<event>
 4    1  0.1065596E-007  0.9269684E+03  0.7818608E-02  0.9484056E-01
         -1   -1    0    0    0  501 -0.00000000000E+00  0.00000000000E+00  0.75086679051E+03  0.75086679053E+03  0.50400000000E-02 0.  1.
          1   -1    0    0  501    0  0.00000000000E+00 -0.00000000000E+00 -0.15817739623E+04  0.15817739623E+04  0.50400000000E-02 0. -1.
    8880023    1    1    2    0    0  0.63874021335E+03 -0.13217847488E+03 -0.12395976309E+04  0.15478606857E+04  0.65864270000E+03 0.  0.
    8880022    1    1    2    0    0 -0.63874021335E+03  0.13217847488E+03  0.40869045916E+03  0.78478006715E+03  0.15294330000E+03 0.  0.
<mgrwt>
<rscale>  0 0.85469581E+03</rscale>
<asrwt>0</asrwt>
<pdfrwt beam="1">  1        1 0.24334984E+00 0.92696840E+03</pdfrwt>
<pdfrwt beam="2">  1       -1 0.11551797E+00 0.92696840E+03</pdfrwt>
<totfact> 0.39625464E+00</totfact>
</mgrwt>
</event>
<event>
 4    1  0.1065596E-007  0.9224666E+03  0.7818608E-02  0.9490887E-01
         -1   -1    0    0    0  501 -0.00000000000E+00  0.00000000000E+00  0.27128960710E+04  0.27128960711E+04  0.50400000000E-02 0.  1.
          1   -1    0    0  501    0  0.00000000000E+00 -0.00000000000E+00 -0.13466022761E+04  0.13466022761E+04  0.50400000000E-02 0. -1.
    8880023    1    1    2    0    0  0.42933660729E+03 -0.48249819403E+03 -0.11401927174E+04  0.14666233561E+04  0.65864270000E+03 0.  0.
    8880022    1    1    2    0    0 -0.42933660729E+03  0.48249819403E+03  0.25064865123E+04  0.25928749910E+04  0.15294330000E+03 0.  0.
<mgrwt>
<rscale>  0 0.84959010E+03</rscale>
<asrwt>0</asrwt>
<pdfrwt beam="1">  1        1 0.20716959E+00 0.92246660E+03</pdfrwt>
<pdfrwt beam="2">  1       -1 0.41736862E+00 0.92246660E+03</pdfrwt>
<totfact> 0.47635742E-02</totfact>
</mgrwt>
</event>
<event>
 4    1  0.1065596E-007  0.9699642E+03  0.7818608E-02  0.9421954E-01
         -1   -1    0    0    0  501 -0.00000000000E+00  0.00000000000E+00  0.78306463409E+03  0.78306463411E+03  0.50400000000E-02 0.  1.
          1   -1    0    0  501    0  0.00000000000E+00 -0.00000000000E+00 -0.15627765455E+04  0.15627765455E+04  0.50400000000E-02 0. -1.
    8880023    1    1    2    0    0  0.50144476038E+03 -0.50554268139E+03 -0.11698249847E+04  0.15196450084E+04  0.65864270000E+03 0. -1.
    8880022    1    1    2    0    0 -0.50144476038E+03  0.50554268139E+03  0.39011307328E+03  0.82619617125E+03  0.15294330000E+03 0.  0.
<mgrwt>
<rscale>  0 0.90290783E+03</rscale>
<asrwt>0</asrwt>
<pdfrwt beam="1">  1        1 0.24042716E+00 0.96996415E+03</pdfrwt>
<pdfrwt beam="2">  1       -1 0.12047148E+00 0.96996415E+03</pdfrwt>
<totfact> 0.36656079E+00</totfact>
</mgrwt>
</event>
<event>
 4    1  0.1065596E-007  0.1670156E+04  0.7818608E-02  0.8797980E-01
          1   -1    0    0  501    0  0.00000000000E+00  0.00000000000E+00  0.16454815386E+04  0.16454815386E+04  0.50400000000E-02 0. -1.
         -1   -1    0    0    0  501 -0.00000000000E+00 -0.00000000000E+00 -0.26648770486E+04  0.26648770486E+04  0.50400000000E-02 0.  1.
    8880023    1    1    2    0    0  0.14948339786E+04  0.34797088078E+03  0.86041224279E+03  0.18787580449E+04  0.65864270000E+03 0.  0.
    8880022    1    1    2    0    0 -0.14948339786E+04 -0.34797088078E+03 -0.18798077527E+04  0.24316005424E+04  0.15294330000E+03 0.  0.
<mgrwt>
<rscale>  0 0.16372585E+04</rscale>
<asrwt>0</asrwt>
<pdfrwt beam="1">  1        1 0.25315101E+00 0.16701564E+04</pdfrwt>
<pdfrwt beam="2">  1       -1 0.40998108E+00 0.16701564E+04</pdfrwt>
<totfact> 0.29356308E-02</totfact>
</mgrwt>
</event>
<event>
 4    1  0.1065596E-007  0.8406243E+03  0.7818608E-02  0.9629004E-01
         -1   -1    0    0    0  501 -0.00000000000E+00  0.00000000000E+00  0.10249079164E+04  0.10249079164E+04  0.50400000000E-02 0.  1.
          1   -1    0    0  501    0  0.00000000000E+00 -0.00000000000E+00 -0.23306404153E+04  0.23306404153E+04  0.50400000000E-02 0. -1.
    8880023    1    1    2    0    0 -0.14926215330E+02 -0.52212661576E+03 -0.21739615303E+04  0.23308277363E+04  0.65864270000E+03 0. -1.
    8880022    1    1    2    0    0  0.14926215330E+02  0.52212661576E+03  0.86822903140E+03  0.10247205955E+04  0.15294330000E+03 0.  0.
<mgrwt>
<rscale>  0 0.75405878E+03</rscale>
<asrwt>0</asrwt>
<pdfrwt beam="1">  1        1 0.35856006E+00 0.84062429E+03</pdfrwt>
<pdfrwt beam="2">  1       -1 0.15767814E+00 0.84062429E+03</pdfrwt>
<totfact> 0.56494486E-01</totfact>
</mgrwt>
</event>
<event>
 4    1  0.1065596E-007  0.8426810E+03  0.7818608E-02  0.9625146E-01
         -1   -1    0    0    0  501 -0.00000000000E+00  0.00000000000E+00  0.31168355695E+03  0.31168355700E+03  0.50400000000E-02 0.  1.
          1   -1    0    0  501    0  0.00000000000E+00 -0.00000000000E+00 -0.16249433141E+04  0.16249433141E+04  0.50400000000E-02 0. -1.
    8880023    1    1    2    0    0 -0.49812423189E+03 -0.16784884842E+03 -0.99308093344E+03  0.13024288591E+04  0.65864270000E+03 0.  0.
    8880022    1    1    2    0    0  0.49812423189E+03  0.16784884842E+03 -0.32017882371E+03  0.63419801204E+03  0.15294330000E+03 0.  0.
<mgrwt>
<rscale>  0 0.75654000E+03</rscale>
<asrwt>0</asrwt>
<pdfrwt beam="1">  1        1 0.24999127E+00 0.84268096E+03</pdfrwt>
<pdfrwt beam="2">  1       -1 0.47951318E-01 0.84268096E+03</pdfrwt>
<totfact> 0.23853716E+01</totfact>
</mgrwt>
</event>
<event>
 4    1  0.1065596E-007  0.8031754E+03  0.7818608E-02  0.9703972E-01
         -1   -1    0    0    0  501 -0.00000000000E+00  0.00000000000E+00  0.93986352469E+03  0.93986352471E+03  0.50400000000E-02 0.  1.
          1   -1    0    0  501    0  0.00000000000E+00 -0.00000000000E+00 -0.45051224148E+03  0.45051224151E+03  0.50400000000E-02 0. -1.
    8880023    1    1    2    0    0 -0.43816858805E+02  0.45755937146E+03  0.40189520578E+03  0.89811494711E+03  0.65864270000E+03 0.  1.
    8880022    1    1    2    0    0  0.43816858805E+02 -0.45755937146E+03  0.87456077432E+02  0.49226081910E+03  0.15294330000E+03 0.  0.
<mgrwt>
<rscale>  0 0.70780803E+03</rscale>
<asrwt>0</asrwt>
<pdfrwt beam="1">  1        1 0.69309576E-01 0.80317539E+03</pdfrwt>
<pdfrwt beam="2">  1       -1 0.14459439E+00 0.80317539E+03</pdfrwt>
<totfact> 0.20080489E+01</totfact>
</mgrwt>
</event>
<event>
 4    1  0.1065596E-007  0.8764620E+03  0.7818608E-02  0.9564926E-01
         -1   -1    0    0    0  501 -0.00000000000E+00  0.00000000000E+00  0.38644134816E+03  0.38644134820E+03  0.50400000000E-02 0.  1.
          1   -1    0    0  501    0  0.00000000000E+00 -0.00000000000E+00 -0.23709684583E+04  0.23709684583E+04  0.50400000000E-02 0. -1.
    8880023    1    1    2    0    0  0.52710976103E+03 -0.23776184090E+03 -0.19732763437E+04  0.21591676934E+04  0.65864270000E+03 0. -1.
    8880022    1    1    2    0    0 -0.52710976103E+03  0.23776184090E+03 -0.11250766418E+02  0.59824211313E+03  0.15294330000E+03 0.  0.
<mgrwt>
<rscale>  0 0.79661752E+03</rscale>
<asrwt>0</asrwt>
<pdfrwt beam="1">  1        1 0.36476437E+00 0.87646198E+03</pdfrwt>
<pdfrwt beam="2">  1       -1 0.59452516E-01 0.87646198E+03</pdfrwt>
<totfact> 0.49360628E+00</totfact>
</mgrwt>
</event>
<event>
 4    1  0.1065596E-007  0.1560853E+04  0.7818608E-02  0.8867819E-01
         -1   -1    0    0    0  501 -0.00000000000E+00  0.00000000000E+00  0.10736122088E+04  0.10736122088E+04  0.50400000000E-02 0.  1.
          1   -1    0    0  501    0  0.00000000000E+00 -0.00000000000E+00 -0.23064213640E+04  0.23064213641E+04  0.50400000000E-02 0. -1.
    8880023    1    1    2    0    0  0.37820907308E+03  0.13636019752E+04 -0.11782938540E+04  0.19556684438E+04  0.65864270000E+03 0.  0.
    8880022    1    1    2    0    0 -0.37820907308E+03 -0.13636019752E+04 -0.54515301261E+02  0.14243651290E+04  0.15294330000E+03 0.  0.
<mgrwt>
<rscale>  0 0.15252720E+04</rscale>
<asrwt>0</asrwt>
<pdfrwt beam="1">  1        1 0.35483405E+00 0.15608532E+04</pdfrwt>
<pdfrwt beam="2">  1       -1 0.16517111E+00 0.15608532E+04</pdfrwt>
<totfact> 0.46362471E-01</totfact>
</mgrwt>
</event>
<event>
 4    1  0.1065596E-007  0.6736665E+03  0.7818608E-02  0.1013160E+00
          1   -1    0    0  501    0  0.00000000000E+00  0.00000000000E+00  0.21022265376E+04  0.21022265376E+04  0.50400000000E-02 0. -1.
         -1   -1    0    0    0  501 -0.00000000000E+00 -0.00000000000E+00 -0.10664169300E+04  0.10664169300E+04  0.50400000000E-02 0.  1.
    8880023    1    1    2    0    0 -0.14015408662E+03 -0.19319392677E+02  0.20372585919E+04  0.21457514263E+04  0.65864270000E+03 0. -1.
    8880022    1    1    2    0    0  0.14015408662E+03  0.19319392677E+02 -0.10014489843E+04  0.10228920413E+04  0.15294330000E+03 0.  0.
<mgrwt>
<rscale>  0 0.50237733E+03</rscale>
<asrwt>0</asrwt>
<pdfrwt beam="1">  1        1 0.32341947E+00 0.67366654E+03</pdfrwt>
<pdfrwt beam="2">  1       -1 0.16406414E+00 0.67366654E+03</pdfrwt>
<totfact> 0.74824150E-01</totfact>
</mgrwt>
</event>
<event>
 4    1  0.1065596E-007  0.1387825E+04  0.7818608E-02  0.8993202E-01
          1   -1    0    0  501    0  0.00000000000E+00  0.00000000000E+00  0.21523147962E+04  0.21523147962E+04  0.50400000000E-02 0. -1.
         -1   -1    0    0    0  501 -0.00000000000E+00 -0.00000000000E+00 -0.95317651960E+03  0.95317651962E+03  0.50400000000E-02 0.  1.
    8880023    1    1    2    0    0  0.15197802795E+03  0.12120847473E+04  0.12577789050E+04  0.18729828445E+04  0.65864270000E+03 0. -1.
    8880022    1    1    2    0    0 -0.15197802795E+03 -0.12120847473E+04 -0.58640628420E+02  0.12325084713E+04  0.15294330000E+03 0.  0.
<mgrwt>
<rscale>  0 0.13468690E+04</rscale>
<asrwt>0</asrwt>
<pdfrwt beam="1">  1        1 0.33112535E+00 0.13878245E+04</pdfrwt>
<pdfrwt beam="2">  1       -1 0.14664254E+00 0.13878245E+04</pdfrwt>
<totfact> 0.83722083E-01</totfact>
</mgrwt>
</event>
<event>
 4    1  0.1065596E-007  0.8825173E+03  0.7818608E-02  0.9554701E-01
          1   -1    0    0  501    0  0.00000000000E+00  0.00000000000E+00  0.11049567938E+04  0.11049567938E+04  0.50400000000E-02 0. -1.
         -1   -1    0    0    0  501 -0.00000000000E+00 -0.00000000000E+00 -0.14704757059E+04  0.14704757059E+04  0.50400000000E-02 0.  1.
    8880023    1    1    2    0    0  0.54389285234E+03 -0.22182700162E+03  0.84464425016E+03  0.12215812577E+04  0.65864270000E+03 0.  0.
    8880022    1    1    2    0    0 -0.54389285234E+03  0.22182700162E+03 -0.12101631623E+04  0.13538512421E+04  0.15294330000E+03 0.  0.
<mgrwt>
<rscale>  0 0.80368356E+03</rscale>
<asrwt>0</asrwt>
<pdfrwt beam="1">  1        1 0.16999335E+00 0.88251734E+03</pdfrwt>
<pdfrwt beam="2">  1       -1 0.22622703E+00 0.88251734E+03</pdfrwt>
<totfact> 0.12878640E+00</totfact>
</mgrwt>
</event>
<event>
 4    1  0.1065596E-007  0.7866281E+03  0.7818608E-02  0.9740492E-01
         -1   -1    0    0    0  501 -0.00000000000E+00  0.00000000000E+00  0.71505764625E+03  0.71505764627E+03  0.50400000000E-02 0.  1.
          1   -1    0    0  501    0  0.00000000000E+00 -0.00000000000E+00 -0.44282052415E+04  0.44282052415E+04  0.50400000000E-02 0. -1.
    8880023    1    1    2    0    0 -0.11747763958E+03  0.41373007385E+03 -0.43159952522E+04  0.43870945730E+04  0.65864270000E+03 0. -1.
    8880022    1    1    2    0    0  0.11747763958E+03 -0.41373007385E+03  0.60284765689E+03  0.75616831476E+03  0.15294330000E+03 0.  0.
<mgrwt>
<rscale>  0 0.68656277E+03</rscale>
<asrwt>0</asrwt>
<pdfrwt beam="1">  1        1 0.68126233E+00 0.78662811E+03</pdfrwt>
<pdfrwt beam="2">  1       -1 0.11000887E+00 0.78662811E+03</pdfrwt>
<totfact> 0.32913061E-02</totfact>
</mgrwt>
</event>
<event>
 4    1  0.1065596E-007  0.1109559E+04  0.7818608E-02  0.9250487E-01
         -1   -1    0    0    0  501 -0.00000000000E+00  0.00000000000E+00  0.13590036153E+04  0.13590036153E+04  0.50400000000E-02 0.  1.
          1   -1    0    0  501    0  0.00000000000E+00 -0.00000000000E+00 -0.14981378389E+04  0.14981378389E+04  0.50400000000E-02 0. -1.
    8880023    1    1    2    0    0 -0.18247148936E+03 -0.87407957577E+03 -0.10818578932E+04  0.15496895355E+04  0.65864270000E+03 0.  0.
    8880022    1    1    2    0    0  0.18247148936E+03  0.87407957577E+03  0.94272366962E+03  0.13074519186E+04  0.15294330000E+03 0.  0.
<mgrwt>
<rscale>  0 0.10547172E+04</rscale>
<asrwt>0</asrwt>
<pdfrwt beam="1">  1        1 0.23048274E+00 0.11095590E+04</pdfrwt>
<pdfrwt beam="2">  1       -1 0.20907748E+00 0.11095590E+04</pdfrwt>
<totfact> 0.84869626E-01</totfact>
</mgrwt>
</event>
<event>
 4    1  0.1065596E-007  0.9956272E+03  0.7818608E-02  0.9387301E-01
          1   -1    0    0  501    0  0.00000000000E+00  0.00000000000E+00  0.17775778008E+04  0.17775778008E+04  0.50400000000E-02 0. -1.
         -1   -1    0    0    0  501 -0.00000000000E+00 -0.00000000000E+00 -0.10517778172E+04  0.10517778172E+04  0.50400000000E-02 0.  1.
    8880023    1    1    2    0    0 -0.94222095719E+02 -0.74066557406E+03  0.14625872542E+04  0.17693035292E+04  0.65864270000E+03 0.  0.
    8880022    1    1    2    0    0  0.94222095719E+02  0.74066557406E+03 -0.73678727061E+03  0.10600520888E+04  0.15294330000E+03 0.  0.
<mgrwt>
<rscale>  0 0.93128160E+03</rscale>
<asrwt>0</asrwt>
<pdfrwt beam="1">  1        1 0.27347351E+00 0.99562719E+03</pdfrwt>
<pdfrwt beam="2">  1       -1 0.16181197E+00 0.99562719E+03</pdfrwt>
<totfact> 0.12058738E+00</totfact>
</mgrwt>
</event>
<event>
 4    1  0.1065596E-007  0.1279862E+04  0.7818608E-02  0.9083148E-01
          1   -1    0    0  501    0  0.00000000000E+00  0.00000000000E+00  0.40870363080E+04  0.40870363080E+04  0.50400000000E-02 0. -1.
         -1   -1    0    0    0  501 -0.00000000000E+00 -0.00000000000E+00 -0.56080619487E+03  0.56080619489E+03  0.50400000000E-02 0.  1.
    8880023    1    1    2    0    0 -0.10760020997E+04 -0.21553761340E+03  0.32686841112E+04  0.35103195020E+04  0.65864270000E+03 0.  0.
    8880022    1    1    2    0    0  0.10760020997E+04  0.21553761340E+03  0.25754600198E+03  0.11375230009E+04  0.15294330000E+03 0.  0.
<mgrwt>
<rscale>  0 0.12345417E+04</rscale>
<asrwt>0</asrwt>
<pdfrwt beam="1">  1        1 0.62877479E+00 0.12798622E+04</pdfrwt>
<pdfrwt beam="2">  1       -1 0.86277880E-01 0.12798622E+04</pdfrwt>
<totfact> 0.10690739E-01</totfact>
</mgrwt>
</event>
<event>
 4    1  0.1065596E-007  0.1074946E+04  0.7818608E-02  0.9289477E-01
          1   -1    0    0  501    0  0.00000000000E+00  0.00000000000E+00  0.82207756300E+03  0.82207756302E+03  0.50400000000E-02 0. -1.
         -1   -1    0    0    0  501 -0.00000000000E+00 -0.00000000000E+00 -0.24507512483E+04  0.24507512483E+04  0.50400000000E-02 0.  1.
    8880023    1    1    2    0    0 -0.13465447629E+03  0.83878859057E+03  0.33654384587E+03  0.11263969523E+04  0.65864270000E+03 0.  0.
    8880022    1    1    2    0    0  0.13465447629E+03 -0.83878859057E+03 -0.19652175312E+04  0.21464318590E+04  0.15294330000E+03 0.  0.
<mgrwt>
<rscale>  0 0.10175740E+04</rscale>
<asrwt>0</asrwt>
<pdfrwt beam="1">  1        1 0.12647347E+00 0.10749457E+04</pdfrwt>
<pdfrwt beam="2">  1       -1 0.37703865E+00 0.10749457E+04</pdfrwt>
<totfact> 0.21912203E-01</totfact>
</mgrwt>
</event>
<event>
 4    1  0.1065596E-007  0.1025530E+04  0.7818608E-02  0.9348894E-01
          1   -1    0    0  501    0  0.00000000000E+00  0.00000000000E+00  0.22241696598E+04  0.22241696598E+04  0.50400000000E-02 0. -1.
         -1   -1    0    0    0  501 -0.00000000000E+00 -0.00000000000E+00 -0.64142646321E+03  0.64142646323E+03  0.50400000000E-02 0.  1.
    8880023    1    1    2    0    0 -0.77448979819E+03 -0.13441124138E+03  0.17677593761E+04  0.20436937754E+04  0.65864270000E+03 0.  0.
    8880022    1    1    2    0    0  0.77448979819E+03  0.13441124138E+03 -0.18501617959E+03  0.82190234763E+03  0.15294330000E+03 0.  0.
<mgrwt>
<rscale>  0 0.96403584E+03</rscale>
<asrwt>0</asrwt>
<pdfrwt beam="1">  1        1 0.34217995E+00 0.10255296E+04</pdfrwt>
<pdfrwt beam="2">  1       -1 0.98680995E-01 0.10255296E+04</pdfrwt>
<totfact> 0.20822731E+00</totfact>
</mgrwt>
</event>
<event>
 4    1  0.1065596E-007  0.1879117E+04  0.7818608E-02  0.8679990E-01
          1   -1    0    0  501    0  0.00000000000E+00  0.00000000000E+00  0.29784483824E+04  0.29784483824E+04  0.50400000000E-02 0. -1.
         -1   -1    0    0    0  501 -0.00000000000E+00 -0.00000000000E+00 -0.14685521308E+04  0.14685521308E+04  0.50400000000E-02 0.  1.
    8880023    1    1    2    0    0  0.10359547203E+04 -0.14226975390E+04  0.18623506871E+04  0.26456437323E+04  0.65864270000E+03 0.  0.
    8880022    1    1    2    0    0 -0.10359547203E+04  0.14226975390E+04 -0.35245443551E+03  0.18013567810E+04  0.15294330000E+03 0.  0.
<mgrwt>
<rscale>  0 0.18503173E+04</rscale>
<asrwt>0</asrwt>
<pdfrwt beam="1">  1        1 0.45822283E+00 0.18791170E+04</pdfrwt>
<pdfrwt beam="2">  1       -1 0.22593110E+00 0.18791170E+04</pdfrwt>
<totfact> 0.56231433E-02</totfact>
</mgrwt>
</event>
<event>
 4    1  0.1065596E-007  0.8684858E+03  0.7818608E-02  0.9578643E-01
          1   -1    0    0  501    0  0.00000000000E+00  0.00000000000E+00  0.78382885862E+03  0.78382885863E+03  0.50400000000E-02 0. -1.
         -1   -1    0    0    0  501 -0.00000000000E+00 -0.00000000000E+00 -0.94213691520E+03  0.94213691521E+03  0.50400000000E-02 0.  1.
    8880023    1    1    2    0    0  0.56111615226E+03 -0.74873462838E+02  0.36305877624E+03  0.94131782785E+03  0.65864270000E+03 0.  0.
    8880022    1    1    2    0    0 -0.56111615226E+03  0.74873462838E+02 -0.52136683282E+03  0.78464794599E+03  0.15294330000E+03 0.  0.
<mgrwt>
<rscale>  0 0.78725969E+03</rscale>
<asrwt>0</asrwt>
<pdfrwt beam="1">  1        1 0.12058905E+00 0.86848580E+03</pdfrwt>
<pdfrwt beam="2">  1       -1 0.14494414E+00 0.86848580E+03</pdfrwt>
<totfact> 0.88817582E+00</totfact>
</mgrwt>
</event>
<event>
 4    1  0.1065596E-007  0.7243197E+03  0.7818608E-02  0.9908232E-01
         -1   -1    0    0    0  501 -0.00000000000E+00  0.00000000000E+00  0.28148223916E+03  0.28148223921E+03  0.50400000000E-02 0.  1.
          1   -1    0    0  501    0  0.00000000000E+00 -0.00000000000E+00 -0.13207141028E+04  0.13207141028E+04  0.50400000000E-02 0. -1.
    8880023    1    1    2    0    0  0.21047029237E+03 -0.21571068108E+03 -0.28990913324E+03  0.78018353847E+03  0.65864270000E+03 0.  1.
    8880022    1    1    2    0    0 -0.21047029237E+03  0.21571068108E+03 -0.74932273042E+03  0.82201280357E+03  0.15294330000E+03 0.  0.
<mgrwt>
<rscale>  0 0.59864000E+03</rscale>
<asrwt>0</asrwt>
<pdfrwt beam="1">  1        1 0.20318678E+00 0.72431971E+03</pdfrwt>
<pdfrwt beam="2">  1       -1 0.43304961E-01 0.72431971E+03</pdfrwt>
<totfact> 0.47360768E+01</totfact>
</mgrwt>
</event>
<event>
 4    1  0.1065596E-007  0.9617612E+03  0.7818608E-02  0.9433390E-01
         -1   -1    0    0    0  501 -0.00000000000E+00  0.00000000000E+00  0.36323243990E+03  0.36323243993E+03  0.50400000000E-02 0.  1.
          1   -1    0    0  501    0  0.00000000000E+00 -0.00000000000E+00 -0.20146798698E+04  0.20146798698E+04  0.50400000000E-02 0. -1.
    8880023    1    1    2    0    0 -0.66736636151E+03  0.21400130290E+03 -0.11673565072E+04  0.15125163931E+04  0.65864270000E+03 0. -1.
    8880022    1    1    2    0    0  0.66736636151E+03 -0.21400130290E+03 -0.48409092266E+03  0.86539591664E+03  0.15294330000E+03 0.  0.
<mgrwt>
<rscale>  0 0.89377990E+03</rscale>
<asrwt>0</asrwt>
<pdfrwt beam="1">  1        1 0.30995074E+00 0.96176121E+03</pdfrwt>
<pdfrwt beam="2">  1       -1 0.55881915E-01 0.96176121E+03</pdfrwt>
<totfact> 0.95850764E+00</totfact>
</mgrwt>
</event>
<event>
 4    1  0.1065596E-007  0.9414369E+03  0.7818608E-02  0.9462543E-01
          1   -1    0    0  501    0  0.00000000000E+00  0.00000000000E+00  0.26446107774E+04  0.26446107774E+04  0.50400000000E-02 0. -1.
         -1   -1    0    0    0  501 -0.00000000000E+00 -0.00000000000E+00 -0.37334985879E+03  0.37334985882E+03  0.50400000000E-02 0.  1.
    8880023    1    1    2    0    0  0.16950288695E+03  0.65097004692E+03  0.21085687433E+04  0.23091915430E+04  0.65864270000E+03 0.  0.
    8880022    1    1    2    0    0 -0.16950288695E+03 -0.65097004692E+03  0.16269217534E+03  0.70876909329E+03  0.15294330000E+03 0.  0.
<mgrwt>
<rscale>  0 0.87102607E+03</rscale>
<asrwt>0</asrwt>
<pdfrwt beam="1">  1        1 0.40686320E+00 0.94143690E+03</pdfrwt>
<pdfrwt beam="2">  1       -1 0.57438440E-01 0.94143690E+03</pdfrwt>
<totfact> 0.33945385E+00</totfact>
</mgrwt>
</event>
<event>
 4    1  0.1065596E-007  0.1414022E+04  0.7818608E-02  0.8972863E-01
          1   -1    0    0  501    0  0.00000000000E+00  0.00000000000E+00  0.14061144162E+04  0.14061144162E+04  0.50400000000E-02 0. -1.
         -1   -1    0    0    0  501 -0.00000000000E+00 -0.00000000000E+00 -0.14283747740E+04  0.14283747740E+04  0.50400000000E-02 0.  1.
    8880023    1    1    2    0    0 -0.42044204089E+03 -0.11785065768E+04  0.45677042469E+03  0.14859672568E+04  0.65864270000E+03 0. -1.
    8880022    1    1    2    0    0  0.42044204089E+03  0.11785065768E+04 -0.47903078254E+03  0.13485219334E+04  0.15294330000E+03 0.  0.
<mgrwt>
<rscale>  0 0.13739917E+04</rscale>
<asrwt>0</asrwt>
<pdfrwt beam="1">  1        1 0.21632530E+00 0.14140224E+04</pdfrwt>
<pdfrwt beam="2">  1       -1 0.21974996E+00 0.14140224E+04</pdfrwt>
<totfact> 0.80344882E-01</totfact>
</mgrwt>
</event>
<event>
 4    1  0.1065596E-007  0.1182164E+04  0.7818608E-02  0.9174658E-01
         -1   -1    0    0    0  501 -0.00000000000E+00  0.00000000000E+00  0.87676780924E+03  0.87676780926E+03  0.50400000000E-02 0.  1.
          1   -1    0    0  501    0  0.00000000000E+00 -0.00000000000E+00 -0.23846800882E+04  0.23846800882E+04  0.50400000000E-02 0. -1.
    8880023    1    1    2    0    0 -0.90461527631E+03  0.38127772265E+03 -0.18629628747E+04  0.22063867246E+04  0.65864270000E+03 0.  0.
    8880022    1    1    2    0    0  0.90461527631E+03 -0.38127772265E+03  0.35505059571E+03  0.10550611728E+04  0.15294330000E+03 0.  0.
<mgrwt>
<rscale>  0 0.11318870E+04</rscale>
<asrwt>0</asrwt>
<pdfrwt beam="1">  1        1 0.36687386E+00 0.11821640E+04</pdfrwt>
<pdfrwt beam="2">  1       -1 0.13488736E+00 0.11821640E+04</pdfrwt>
<totfact> 0.74316401E-01</totfact>
</mgrwt>
</event>
<event>
 4    1  0.1065596E-007  0.2209721E+04  0.7818608E-02  0.8524444E-01
         -1   -1    0    0    0  501 -0.00000000000E+00  0.00000000000E+00  0.29795255487E+04  0.29795255487E+04  0.50400000000E-02 0.  1.
          1   -1    0    0  501    0  0.00000000000E+00 -0.00000000000E+00 -0.23653077241E+04  0.23653077241E+04  0.50400000000E-02 0. -1.
    8880023    1    1    2    0    0  0.19919844605E+04  0.69358146048E+03 -0.12386023295E+04  0.25331804654E+04  0.65864270000E+03 0.  0.
    8880022    1    1    2    0    0 -0.19919844605E+04 -0.69358146048E+03  0.18528201540E+04  0.28116528074E+04  0.15294330000E+03 0.  0.
<mgrwt>
<rscale>  0 0.21856030E+04</rscale>
<asrwt>0</asrwt>
<pdfrwt beam="1">  1        1 0.36389349E+00 0.22097211E+04</pdfrwt>
<pdfrwt beam="2">  1       -1 0.45838855E+00 0.22097211E+04</pdfrwt>
<totfact> 0.40880843E-03</totfact>
</mgrwt>
</event>
<event>
 4    1  0.1065596E-007  0.1078959E+04  0.7818608E-02  0.9284852E-01
         -1   -1    0    0    0  501 -0.00000000000E+00  0.00000000000E+00  0.60002571273E+03  0.60002571275E+03  0.50400000000E-02 0.  1.
          1   -1    0    0  501    0  0.00000000000E+00 -0.00000000000E+00 -0.22227394947E+04  0.22227394947E+04  0.50400000000E-02 0. -1.
    8880023    1    1    2    0    0 -0.85437455331E+03 -0.19684773246E+02 -0.16297671961E+04  0.19545574147E+04  0.65864270000E+03 0. -1.
    8880022    1    1    2    0    0  0.85437455331E+03  0.19684773246E+02  0.70534141690E+01  0.86820779271E+03  0.15294330000E+03 0.  0.
<mgrwt>
<rscale>  0 0.10218948E+04</rscale>
<asrwt>0</asrwt>
<pdfrwt beam="1">  1        1 0.34195992E+00 0.10789595E+04</pdfrwt>
<pdfrwt beam="2">  1       -1 0.92311649E-01 0.10789595E+04</pdfrwt>
<totfact> 0.24083125E+00</totfact>
</mgrwt>
</event>
<event>
 4    1  0.1065596E-007  0.9275976E+03  0.7818608E-02  0.9483107E-01
          1   -1    0    0  501    0  0.00000000000E+00  0.00000000000E+00  0.24258599004E+04  0.24258599004E+04  0.50400000000E-02 0. -1.
         -1   -1    0    0    0  501 -0.00000000000E+00 -0.00000000000E+00 -0.64775390496E+03  0.64775390498E+03  0.50400000000E-02 0.  1.
    8880023    1    1    2    0    0 -0.58313929455E+03  0.29423743900E+03  0.21248270721E+04  0.23184752317E+04  0.65864270000E+03 0.  0.
    8880022    1    1    2    0    0  0.58313929455E+03 -0.29423743900E+03 -0.34672107672E+03  0.75513857365E+03  0.15294330000E+03 0.  0.
<mgrwt>
<rscale>  0 0.85540846E+03</rscale>
<asrwt>0</asrwt>
<pdfrwt beam="1">  1        1 0.37320921E+00 0.92759760E+03</pdfrwt>
<pdfrwt beam="2">  1       -1 0.99654449E-01 0.92759760E+03</pdfrwt>
<totfact> 0.15076821E+00</totfact>
</mgrwt>
</event>
<event>
 4    1  0.1065596E-007  0.1246260E+04  0.7818608E-02  0.9113415E-01
          1   -1    0    0  501    0  0.00000000000E+00  0.00000000000E+00  0.16968729235E+04  0.16968729235E+04  0.50400000000E-02 0. -1.
         -1   -1    0    0    0  501 -0.00000000000E+00 -0.00000000000E+00 -0.93518611588E+03  0.93518611589E+03  0.50400000000E-02 0.  1.
    8880023    1    1    2    0    0  0.56823775071E+03 -0.89244617080E+03  0.92317051882E+03  0.15509378847E+04  0.65864270000E+03 0.  0.
    8880022    1    1    2    0    0 -0.56823775071E+03  0.89244617080E+03 -0.16148371122E+03  0.10811211547E+04  0.15294330000E+03 0.  0.
<mgrwt>
<rscale>  0 0.11993619E+04</rscale>
<asrwt>0</asrwt>
<pdfrwt beam="1">  1        1 0.26105737E+00 0.12462602E+04</pdfrwt>
<pdfrwt beam="2">  1       -1 0.14387479E+00 0.12462602E+04</pdfrwt>
<totfact> 0.18243505E+00</totfact>
</mgrwt>
</event>
<event>
 4    1  0.1102757E-007  0.1009889E+04  0.7818608E-02  0.9368732E-01
          1   -1    0    0  501    0  0.00000000000E+00  0.00000000000E+00  0.21872869655E+04  0.21872869655E+04  0.50400000000E-02 0. -1.
         -1   -1    0    0    0  501 -0.00000000000E+00 -0.00000000000E+00 -0.12831703021E+04  0.12831703021E+04  0.50400000000E-02 0.  1.
    8880023    1    1    2    0    0  0.11047279548E+03 -0.75753691528E+03  0.19318199777E+04  0.21798635391E+04  0.65864270000E+03 0.  0.
    8880022    1    1    2    0    0 -0.11047279548E+03  0.75753691528E+03 -0.10277033143E+04  0.12905937284E+04  0.15294330000E+03 0.  0.
<mgrwt>
<rscale>  0 0.94694192E+03</rscale>
<asrwt>0</asrwt>
<pdfrwt beam="1">  1        1 0.33650568E+00 0.10098894E+04</pdfrwt>
<pdfrwt beam="2">  1       -1 0.19741082E+00 0.10098894E+04</pdfrwt>
<totfact> 0.35325892E-01</totfact>
</mgrwt>
</event>
<event>
 4    1  0.1065596E-007  0.1540400E+04  0.7818608E-02  0.8881622E-01
          1   -1    0    0  501    0  0.00000000000E+00  0.00000000000E+00  0.46854913041E+04  0.46854913041E+04  0.50400000000E-02 0. -1.
         -1   -1    0    0    0  501 -0.00000000000E+00 -0.00000000000E+00 -0.58512736059E+03  0.58512736062E+03  0.50400000000E-02 0.  1.
    8880023    1    1    2    0    0  0.13741950846E+04 -0.22496822873E+03  0.33367477209E+04  0.36751487581E+04  0.65864270000E+03 0. -1.
    8880022    1    1    2    0    0 -0.13741950846E+04  0.22496822873E+03  0.76361622257E+03  0.15954699066E+04  0.15294330000E+03 0.  0.
<mgrwt>
<rscale>  0 0.15042639E+04</rscale>
<asrwt>0</asrwt>
<pdfrwt beam="1">  1        1 0.72084479E+00 0.15404003E+04</pdfrwt>
<pdfrwt beam="2">  1       -1 0.90019597E-01 0.15404003E+04</pdfrwt>
<totfact> 0.24146847E-02</totfact>
</mgrwt>
</event>
<event>
 4    1  0.1065596E-007  0.6659609E+03  0.7818608E-02  0.1018740E+00
         -1   -1    0    0    0  501 -0.00000000000E+00  0.00000000000E+00  0.29522718250E+03  0.29522718255E+03  0.50400000000E-02 0.  1.
          1   -1    0    0  501    0  0.00000000000E+00 -0.00000000000E+00 -0.11061757461E+04  0.11061757461E+04  0.50400000000E-02 0. -1.
    8880023    1    1    2    0    0 -0.98456254260E+02  0.36750870219E+00 -0.95852967405E+03  0.11671688444E+04  0.65864270000E+03 0. -1.
    8880022    1    1    2    0    0  0.98456254260E+02 -0.36750870219E+00  0.14758111043E+03  0.23423408427E+03  0.15294330000E+03 0.  0.
<mgrwt>
<rscale>  0 0.48143887E+03</rscale>
<asrwt>0</asrwt>
<pdfrwt beam="1">  1        1 0.17018088E+00 0.66596094E+03</pdfrwt>
<pdfrwt beam="2">  1       -1 0.45419567E-01 0.66596094E+03</pdfrwt>
<totfact> 0.62309666E+01</totfact>
</mgrwt>
</event>
<event>
 4    1  0.1065596E-007  0.8308716E+03  0.7818608E-02  0.9647639E-01
          1   -1    0    0  501    0  0.00000000000E+00  0.00000000000E+00  0.92587559759E+03  0.92587559760E+03  0.50400000000E-02 0. -1.
         -1   -1    0    0    0  501 -0.00000000000E+00 -0.00000000000E+00 -0.87918475244E+03  0.87918475245E+03  0.50400000000E-02 0.  1.
    8880023    1    1    2    0    0 -0.67692308632E+02  0.50195138918E+03  0.61112926602E+03  0.10314197166E+04  0.65864270000E+03 0.  0.
    8880022    1    1    2    0    0  0.67692308632E+02 -0.50195138918E+03 -0.56443842087E+03  0.77364063345E+03  0.15294330000E+03 0.  0.
<mgrwt>
<rscale>  0 0.74221794E+03</rscale>
<asrwt>0</asrwt>
<pdfrwt beam="1">  1        1 0.14244240E+00 0.83087162E+03</pdfrwt>
<pdfrwt beam="2">  1       -1 0.13525919E+00 0.83087162E+03</pdfrwt>
<totfact> 0.81196474E+00</totfact>
</mgrwt>
</event>
<event>
 4    1  0.1065596E-007  0.8585368E+03  0.7818608E-02  0.9596171E-01
         -1   -1    0    0    0  501 -0.00000000000E+00  0.00000000000E+00  0.10038617740E+04  0.10038617740E+04  0.50400000000E-02 0.  1.
          1   -1    0    0  501    0  0.00000000000E+00 -0.00000000000E+00 -0.71203432768E+03  0.71203432770E+03  0.50400000000E-02 0. -1.
    8880023    1    1    2    0    0 -0.43791330454E+03  0.33392695865E+03  0.61799459068E+03  0.10578292851E+04  0.65864270000E+03 0.  0.
    8880022    1    1    2    0    0  0.43791330454E+03 -0.33392695865E+03 -0.32616714440E+03  0.65806681659E+03  0.15294330000E+03 0.  0.
<mgrwt>
<rscale>  0 0.77550097E+03</rscale>
<asrwt>0</asrwt>
<pdfrwt beam="1">  1        1 0.10954374E+00 0.85853683E+03</pdfrwt>
<pdfrwt beam="2">  1       -1 0.15444027E+00 0.85853683E+03</pdfrwt>
<totfact> 0.87067930E+00</totfact>
</mgrwt>
</event>
<event>
 4    1  0.1065596E-007  0.9528600E+03  0.7818608E-02  0.9446011E-01
         -1   -1    0    0    0  501 -0.00000000000E+00  0.00000000000E+00  0.85718004223E+03  0.85718004225E+03  0.50400000000E-02 0.  1.
          1   -1    0    0  501    0  0.00000000000E+00 -0.00000000000E+00 -0.16012151826E+04  0.16012151826E+04  0.50400000000E-02 0. -1.
    8880023    1    1    2    0    0 -0.97282435641E+02  0.68166565647E+03 -0.12634127771E+04  0.15824518922E+04  0.65864270000E+03 0. -1.
    8880022    1    1    2    0    0  0.97282435641E+02 -0.68166565647E+03  0.51937763673E+03  0.87594333267E+03  0.15294330000E+03 0.  0.
<mgrwt>
<rscale>  0 0.88383974E+03</rscale>
<asrwt>0</asrwt>
<pdfrwt beam="1">  1        1 0.24634080E+00 0.95285998E+03</pdfrwt>
<pdfrwt beam="2">  1       -1 0.13187385E+00 0.95285998E+03</pdfrwt>
<totfact> 0.27590018E+00</totfact>
</mgrwt>
</event>
<event>
 4    1  0.1065596E-007  0.7054103E+03  0.7818608E-02  0.9975456E-01
         -1   -1    0    0    0  501 -0.00000000000E+00  0.00000000000E+00  0.19173389722E+03  0.19173389729E+03  0.50400000000E-02 0.  1.
          1   -1    0    0  501    0  0.00000000000E+00 -0.00000000000E+00 -0.27112337014E+04  0.27112337014E+04  0.50400000000E-02 0. -1.
    8880023    1    1    2    0    0 -0.25197228555E+03 -0.17421107613E+02 -0.25103252225E+04  0.26075537303E+04  0.65864270000E+03 0.  0.
    8880022    1    1    2    0    0  0.25197228555E+03  0.17421107613E+02 -0.91745817365E+01  0.29541386840E+03  0.15294330000E+03 0.  1.
<mgrwt>
<rscale>  0 0.56739656E+03</rscale>
<asrwt>0</asrwt>
<pdfrwt beam="1">  1        1 0.41711285E+00 0.70541033E+03</pdfrwt>
<pdfrwt beam="2">  1       -1 0.29497524E-01 0.70541033E+03</pdfrwt>
<totfact> 0.10778411E+01</totfact>
</mgrwt>
</event>
<event>
 4    1  0.1065596E-007  0.1143386E+04  0.7818608E-02  0.9214222E-01
         -1   -1    0    0    0  501 -0.00000000000E+00  0.00000000000E+00  0.14328028544E+04  0.14328028544E+04  0.50400000000E-02 0.  1.
          1   -1    0    0  501    0  0.00000000000E+00 -0.00000000000E+00 -0.12270672685E+04  0.12270672685E+04  0.50400000000E-02 0. -1.
    8880023    1    1    2    0    0 -0.77682832716E+03  0.51967126585E+03 -0.70721497705E+03  0.13444269056E+04  0.65864270000E+03 0. -1.
    8880022    1    1    2    0    0  0.77682832716E+03 -0.51967126585E+03  0.91295056297E+03  0.13154432173E+04  0.15294330000E+03 0.  0.
<mgrwt>
<rscale>  0 0.10907828E+04</rscale>
<asrwt>0</asrwt>
<pdfrwt beam="1">  1        1 0.18877958E+00 0.11433856E+04</pdfrwt>
<pdfrwt beam="2">  1       -1 0.22043121E+00 0.11433856E+04</pdfrwt>
<totfact> 0.11019078E+00</totfact>
</mgrwt>
</event>
<event>
 4    1  0.1065596E-007  0.6825993E+03  0.7818608E-02  0.1007890E+00
          1   -1    0    0  501    0  0.00000000000E+00  0.00000000000E+00  0.85598471404E+03  0.85598471405E+03  0.50400000000E-02 0. -1.
         -1   -1    0    0    0  501 -0.00000000000E+00 -0.00000000000E+00 -0.12912807386E+04  0.12912807386E+04  0.50400000000E-02 0.  1.
    8880023    1    1    2    0    0 -0.14854497307E+03  0.10032940334E+03  0.70592416868E+03  0.98197287966E+03  0.65864270000E+03 0. -1.
    8880022    1    1    2    0    0  0.14854497307E+03 -0.10032940334E+03 -0.11412201932E+04  0.11652925730E+04  0.15294330000E+03 0.  0.
<mgrwt>
<rscale>  0 0.52321928E+03</rscale>
<asrwt>0</asrwt>
<pdfrwt beam="1">  1        1 0.13168996E+00 0.68259930E+03</pdfrwt>
<pdfrwt beam="2">  1       -1 0.19865858E+00 0.68259930E+03</pdfrwt>
<totfact> 0.32020276E+00</totfact>
</mgrwt>
</event>
<event>
 4    1  0.1065596E-007  0.6756630E+03  0.7818608E-02  0.1011892E+00
          1   -1    0    0  501    0  0.00000000000E+00  0.00000000000E+00  0.35178764362E+04  0.35178764362E+04  0.50400000000E-02 0. -1.
         -1   -1    0    0    0  501 -0.00000000000E+00 -0.00000000000E+00 -0.13695396631E+03  0.13695396640E+03  0.50400000000E-02 0.  1.
    8880023    1    1    2    0    0 -0.95587758655E+02  0.11650454528E+03  0.33729611802E+04  0.34399691362E+04  0.65864270000E+03 0. -1.
    8880022    1    1    2    0    0  0.95587758655E+02 -0.11650454528E+03  0.79612897494E+01  0.21486126646E+03  0.15294330000E+03 0.  0.
<mgrwt>
<rscale>  0 0.50729732E+03</rscale>
<asrwt>0</asrwt>
<pdfrwt beam="1">  1        1 0.54121173E+00 0.67566303E+03</pdfrwt>
<pdfrwt beam="2">  1       -1 0.21069842E-01 0.67566303E+03</pdfrwt>
<totfact> 0.49636999E+00</totfact>
</mgrwt>
</event>
<event>
 4    1  0.1065596E-007  0.1051858E+04  0.7818608E-02  0.9316651E-01
          1   -1    0    0  501    0  0.00000000000E+00  0.00000000000E+00  0.12471996495E+04  0.12471996495E+04  0.50400000000E-02 0. -1.
         -1   -1    0    0    0  501 -0.00000000000E+00 -0.00000000000E+00 -0.11350498048E+04  0.11350498048E+04  0.50400000000E-02 0.  1.
    8880023    1    1    2    0    0  0.66263145587E+03 -0.48323354255E+03  0.78334984556E+03  0.13115038276E+04  0.65864270000E+03 0.  0.
    8880022    1    1    2    0    0 -0.66263145587E+03  0.48323354255E+03 -0.67120000088E+03  0.10707456267E+04  0.15294330000E+03 0.  0.
<mgrwt>
<rscale>  0 0.99264273E+03</rscale>
<asrwt>0</asrwt>
<pdfrwt beam="1">  1        1 0.19187687E+00 0.10518580E+04</pdfrwt>
<pdfrwt beam="2">  1       -1 0.17462305E+00 0.10518580E+04</pdfrwt>
<totfact> 0.22415907E+00</totfact>
</mgrwt>
</event>
<event>
 4    1  0.1065596E-007  0.7312032E+03  0.7818608E-02  0.9886355E-01
          1   -1    0    0  501    0  0.00000000000E+00  0.00000000000E+00  0.14904774505E+04  0.14904774505E+04  0.50400000000E-02 0. -1.
         -1   -1    0    0    0  501 -0.00000000000E+00 -0.00000000000E+00 -0.44397835806E+03  0.44397835809E+03  0.50400000000E-02 0.  1.
    8880023    1    1    2    0    0  0.72843630188E+01 -0.31748194481E+03  0.13059971623E+04  0.14967587118E+04  0.65864270000E+03 0. -1.
    8880022    1    1    2    0    0 -0.72843630188E+01  0.31748194481E+03 -0.25949806988E+03  0.43769709676E+03  0.15294330000E+03 0.  0.
<mgrwt>
<rscale>  0 0.60927170E+03</rscale>
<asrwt>0</asrwt>
<pdfrwt beam="1">  1        1 0.22930422E+00 0.73120315E+03</pdfrwt>
<pdfrwt beam="2">  1       -1 0.68304363E-01 0.73120315E+03</pdfrwt>
<totfact> 0.14971552E+01</totfact>
</mgrwt>
</event>
<event>
 4    1  0.1065596E-007  0.1404688E+04  0.7818608E-02  0.8980049E-01
          1   -1    0    0  501    0  0.00000000000E+00  0.00000000000E+00  0.13332676867E+04  0.13332676867E+04  0.50400000000E-02 0. -1.
         -1   -1    0    0    0  501 -0.00000000000E+00 -0.00000000000E+00 -0.16996150250E+04  0.16996150250E+04  0.50400000000E-02 0.  1.
    8880023    1    1    2    0    0 -0.12351156330E+04 -0.11758957545E+03  0.52281020962E+03  0.14988257593E+04  0.65864270000E+03 0.  0.
    8880022    1    1    2    0    0  0.12351156330E+04  0.11758957545E+03 -0.88915754791E+03  0.15340569524E+04  0.15294330000E+03 0.  0.
<mgrwt>
<rscale>  0 0.13643329E+04</rscale>
<asrwt>0</asrwt>
<pdfrwt beam="1">  1        1 0.20511810E+00 0.14046879E+04</pdfrwt>
<pdfrwt beam="2">  1       -1 0.26147924E+00 0.14046879E+04</pdfrwt>
<totfact> 0.48108795E-01</totfact>
</mgrwt>
</event>
<event>
 4    1  0.1065596E-007  0.7110448E+03  0.7818608E-02  0.9954142E-01
         -1   -1    0    0    0  501 -0.00000000000E+00  0.00000000000E+00  0.38156571303E+03  0.38156571306E+03  0.50400000000E-02 0.  1.
          1   -1    0    0  501    0  0.00000000000E+00 -0.00000000000E+00 -0.17815637892E+04  0.17815637892E+04  0.50400000000E-02 0. -1.
    8880023    1    1    2    0    0  0.19882529705E+03 -0.17956334166E+03 -0.16299980783E+04  0.17783358609E+04  0.65864270000E+03 0. -1.
    8880022    1    1    2    0    0 -0.19882529705E+03  0.17956334166E+03  0.23000000219E+03  0.38479364137E+03  0.15294330000E+03 0.  0.
<mgrwt>
<rscale>  0 0.57707602E+03</rscale>
<asrwt>0</asrwt>
<pdfrwt beam="1">  1        1 0.27408673E+00 0.71104479E+03</pdfrwt>
<pdfrwt beam="2">  1       -1 0.58702418E-01 0.71104479E+03</pdfrwt>
<totfact> 0.12914970E+01</totfact>
</mgrwt>
</event>
<event>
 4    1  0.1065596E-007  0.7132866E+03  0.7818608E-02  0.9945993E-01
          1   -1    0    0  501    0  0.00000000000E+00  0.00000000000E+00  0.22423920488E+04  0.22423920488E+04  0.50400000000E-02 0. -1.
         -1   -1    0    0    0  501 -0.00000000000E+00 -0.00000000000E+00 -0.15993057951E+04  0.15993057951E+04  0.50400000000E-02 0.  1.
    8880023    1    1    2    0    0  0.27197662674E+03  0.31563711176E+02  0.21693183019E+04  0.22835760672E+04  0.65864270000E+03 0. -1.
    8880022    1    1    2    0    0 -0.27197662674E+03 -0.31563711176E+02 -0.15262320481E+04  0.15581217767E+04  0.15294330000E+03 0.  0.
<mgrwt>
<rscale>  0 0.58083118E+03</rscale>
<asrwt>0</asrwt>
<pdfrwt beam="1">  1        1 0.34498339E+00 0.71328659E+03</pdfrwt>
<pdfrwt beam="2">  1       -1 0.24604705E+00 0.71328659E+03</pdfrwt>
<totfact> 0.16441305E-01</totfact>
</mgrwt>
</event>
<event>
 4    1  0.1065596E-007  0.7918304E+03  0.7818608E-02  0.9728747E-01
          1   -1    0    0  501    0  0.00000000000E+00  0.00000000000E+00  0.82014676985E+03  0.82014676986E+03  0.50400000000E-02 0. -1.
         -1   -1    0    0    0  501 -0.00000000000E+00 -0.00000000000E+00 -0.93193503041E+03  0.93193503042E+03  0.50400000000E-02 0.  1.
    8880023    1    1    2    0    0 -0.37302851907E+02 -0.43794253222E+03  0.53473938024E+03  0.95547976186E+03  0.65864270000E+03 0. -1.
    8880022    1    1    2    0    0  0.37302851907E+02  0.43794253222E+03 -0.64652764080E+03  0.79660203842E+03  0.15294330000E+03 0.  0.
<mgrwt>
<rscale>  0 0.69330706E+03</rscale>
<asrwt>0</asrwt>
<pdfrwt beam="1">  1        1 0.12617643E+00 0.79183039E+03</pdfrwt>
<pdfrwt beam="2">  1       -1 0.14337462E+00 0.79183039E+03</pdfrwt>
<totfact> 0.85816768E+00</totfact>
</mgrwt>
</event>
<event>
 4    1  0.1065596E-007  0.1900045E+04  0.7818608E-02  0.8669125E-01
         -1   -1    0    0    0  501 -0.00000000000E+00  0.00000000000E+00  0.21461585624E+04  0.21461585624E+04  0.50400000000E-02 0.  1.
          1   -1    0    0  501    0  0.00000000000E+00 -0.00000000000E+00 -0.26169739813E+04  0.26169739813E+04  0.50400000000E-02 0. -1.
    8880023    1    1    2    0    0  0.11578587104E+04  0.13548888183E+04 -0.17347644851E+04  0.25728541599E+04  0.65864270000E+03 0.  0.
    8880022    1    1    2    0    0 -0.11578587104E+04 -0.13548888183E+04  0.12639490662E+04  0.21902783837E+04  0.15294330000E+03 0.  0.
<mgrwt>
<rscale>  0 0.18715974E+04</rscale>
<asrwt>0</asrwt>
<pdfrwt beam="1">  1        1 0.40261138E+00 0.19000449E+04</pdfrwt>
<pdfrwt beam="2">  1       -1 0.33017824E+00 0.19000449E+04</pdfrwt>
<totfact> 0.21111518E-02</totfact>
</mgrwt>
</event>
<event>
 4    1  0.1065596E-007  0.1792373E+04  0.7818608E-02  0.8726767E-01
         -1   -1    0    0    0  501 -0.00000000000E+00  0.00000000000E+00  0.21016850964E+04  0.21016850964E+04  0.50400000000E-02 0.  1.
          1   -1    0    0  501    0  0.00000000000E+00 -0.00000000000E+00 -0.23724544357E+04  0.23724544357E+04  0.50400000000E-02 0. -1.
    8880023    1    1    2    0    0  0.13139478577E+04  0.10258326456E+04  0.12718480648E+04  0.21977714385E+04  0.65864270000E+03 0.  0.
    8880022    1    1    2    0    0 -0.13139478577E+04 -0.10258326456E+04 -0.15426174040E+04  0.22763680937E+04  0.15294330000E+03 0.  0.
<mgrwt>
<rscale>  0 0.17620101E+04</rscale>
<asrwt>0</asrwt>
<pdfrwt beam="1">  1        1 0.36499299E+00 0.17923732E+04</pdfrwt>
<pdfrwt beam="2">  1       -1 0.32333617E+00 0.17923732E+04</pdfrwt>
<totfact> 0.35089824E-02</totfact>
</mgrwt>
</event>
<event>
 4    1  0.1065596E-007  0.9540164E+03  0.7818608E-02  0.9444359E-01
         -1   -1    0    0    0  501 -0.00000000000E+00  0.00000000000E+00  0.98037792564E+03  0.98037792565E+03  0.50400000000E-02 0.  1.
          1   -1    0    0  501    0  0.00000000000E+00 -0.00000000000E+00 -0.70374911851E+03  0.70374911853E+03  0.50400000000E-02 0. -1.
    8880023    1    1    2    0    0  0.15732963182E+03 -0.67200040891E+03  0.17525825946E+03  0.96998083816E+03  0.65864270000E+03 0.  1.
    8880022    1    1    2    0    0 -0.15732963182E+03  0.67200040891E+03  0.10137054767E+03  0.71414620602E+03  0.15294330000E+03 0. -1.
<mgrwt>
<rscale>  0 0.88513333E+03</rscale>
<asrwt>0</asrwt>
<pdfrwt beam="1">  1        1 0.10826909E+00 0.95401644E+03</pdfrwt>
<pdfrwt beam="2">  1       -1 0.15082737E+00 0.95401644E+03</pdfrwt>
<totfact> 0.93546391E+00</totfact>
</mgrwt>
</event>
<event>
 4    1  0.1065596E-007  0.7113776E+03  0.7818608E-02  0.9952920E-01
          1   -1    0    0  501    0  0.00000000000E+00  0.00000000000E+00  0.26822399262E+04  0.26822399262E+04  0.50400000000E-02 0. -1.
         -1   -1    0    0    0  501 -0.00000000000E+00 -0.00000000000E+00 -0.36629113622E+03  0.36629113626E+03  0.50400000000E-02 0.  1.
    8880023    1    1    2    0    0  0.23449160037E+03  0.13138344805E+03  0.25584664624E+04  0.26555241980E+04  0.65864270000E+03 0. -1.
    8880022    1    1    2    0    0 -0.23449160037E+03 -0.13138344805E+03 -0.24251767237E+03  0.39300686444E+03  0.15294330000E+03 0.  0.
<mgrwt>
<rscale>  0 0.57763680E+03</rscale>
<asrwt>0</asrwt>
<pdfrwt beam="1">  1        1 0.41265231E+00 0.71137763E+03</pdfrwt>
<pdfrwt beam="2">  1       -1 0.56352481E-01 0.71137763E+03</pdfrwt>
<totfact> 0.34528817E+00</totfact>
</mgrwt>
</event>
<event>
 4    1  0.1065596E-007  0.1242248E+04  0.7818608E-02  0.9117110E-01
          1   -1    0    0  501    0  0.00000000000E+00  0.00000000000E+00  0.13644030802E+04  0.13644030802E+04  0.50400000000E-02 0. -1.
         -1   -1    0    0    0  501 -0.00000000000E+00 -0.00000000000E+00 -0.11307572992E+04  0.11307572993E+04  0.50400000000E-02 0.  1.
    8880023    1    1    2    0    0 -0.10264650567E+04 -0.23609115061E+03  0.58668997652E+03  0.13738212689E+04  0.65864270000E+03 0. -1.
    8880022    1    1    2    0    0  0.10264650567E+04  0.23609115061E+03 -0.35304419553E+03  0.11213391106E+04  0.15294330000E+03 0.  0.
<mgrwt>
<rscale>  0 0.11951530E+04</rscale>
<asrwt>0</asrwt>
<pdfrwt beam="1">  1        1 0.20990817E+00 0.12422479E+04</pdfrwt>
<pdfrwt beam="2">  1       -1 0.17396266E+00 0.12422479E+04</pdfrwt>
<totfact> 0.18276708E+00</totfact>
</mgrwt>
</event>
<event>
 4    1  0.1065596E-007  0.1466961E+04  0.7818608E-02  0.8933325E-01
          1   -1    0    0  501    0  0.00000000000E+00  0.00000000000E+00  0.31050635121E+04  0.31050635121E+04  0.50400000000E-02 0. -1.
         -1   -1    0    0    0  501 -0.00000000000E+00 -0.00000000000E+00 -0.12801212118E+04  0.12801212118E+04  0.50400000000E-02 0.  1.
    8880023    1    1    2    0    0 -0.11156647547E+04 -0.68808166619E+03  0.25032250030E+04  0.29013979124E+04  0.65864270000E+03 0.  0.
    8880022    1    1    2    0    0  0.11156647547E+04  0.68808166619E+03 -0.67828270275E+03  0.14837868115E+04  0.15294330000E+03 0.  0.
<mgrwt>
<rscale>  0 0.14286673E+04</rscale>
<asrwt>0</asrwt>
<pdfrwt beam="1">  1        1 0.47770208E+00 0.14669610E+04</pdfrwt>
<pdfrwt beam="2">  1       -1 0.19694172E+00 0.14669610E+04</pdfrwt>
<totfact> 0.75336013E-02</totfact>
</mgrwt>
</event>
<event>
 4    1  0.1065596E-007  0.6885407E+03  0.7818608E-02  0.1004854E+00
          1   -1    0    0  501    0  0.00000000000E+00  0.00000000000E+00  0.60544214693E+03  0.60544214695E+03  0.50400000000E-02 0. -1.
         -1   -1    0    0    0  501 -0.00000000000E+00 -0.00000000000E+00 -0.10556792214E+04  0.10556792214E+04  0.50400000000E-02 0.  1.
    8880023    1    1    2    0    0  0.19357492084E+03 -0.52979195059E+02  0.38481546564E+03  0.78877829201E+03  0.65864270000E+03 0. -1.
    8880022    1    1    2    0    0 -0.19357492084E+03  0.52979195059E+02 -0.83505254012E+03  0.87234307636E+03  0.15294330000E+03 0.  0.
<mgrwt>
<rscale>  0 0.53572115E+03</rscale>
<asrwt>0</asrwt>
<pdfrwt beam="1">  1        1 0.93144946E-01 0.68854067E+03</pdfrwt>
<pdfrwt beam="2">  1       -1 0.16241219E+00 0.68854067E+03</pdfrwt>
<totfact> 0.98445451E+00</totfact>
</mgrwt>
</event>
<event>
 4    1  0.1065596E-007  0.1068674E+04  0.7818608E-02  0.9296763E-01
         -1   -1    0    0    0  501 -0.00000000000E+00  0.00000000000E+00  0.14861916131E+04  0.14861916131E+04  0.50400000000E-02 0.  1.
          1   -1    0    0  501    0  0.00000000000E+00 -0.00000000000E+00 -0.83062868308E+03  0.83062868310E+03  0.50400000000E-02 0. -1.
    8880023    1    1    2    0    0 -0.46200418877E+03 -0.70342428569E+03 -0.22185591131E+03  0.10914595035E+04  0.65864270000E+03 0.  0.
    8880022    1    1    2    0    0  0.46200418877E+03  0.70342428569E+03  0.87741884128E+03  0.12253607927E+04  0.15294330000E+03 0.  0.
<mgrwt>
<rscale>  0 0.10108145E+04</rscale>
<asrwt>0</asrwt>
<pdfrwt beam="1">  1        1 0.12778903E+00 0.10686739E+04</pdfrwt>
<pdfrwt beam="2">  1       -1 0.22864486E+00 0.10686739E+04</pdfrwt>
<totfact> 0.19995406E+00</totfact>
</mgrwt>
</event>
<event>
 4    1  0.1065596E-007  0.1010822E+04  0.7818608E-02  0.9367535E-01
          1   -1    0    0  501    0  0.00000000000E+00  0.00000000000E+00  0.16869529297E+04  0.16869529297E+04  0.50400000000E-02 0. -1.
         -1   -1    0    0    0  501 -0.00000000000E+00 -0.00000000000E+00 -0.58217672096E+03  0.58217672098E+03  0.50400000000E-02 0.  1.
    8880023    1    1    2    0    0  0.65541238949E+03 -0.39797572303E+03  0.10907646824E+04  0.14871206659E+04  0.65864270000E+03 0. -1.
    8880022    1    1    2    0    0 -0.65541238949E+03  0.39797572303E+03  0.14011526395E+02  0.78200898480E+03  0.15294330000E+03 0.  1.
<mgrwt>
<rscale>  0 0.94796300E+03</rscale>
<asrwt>0</asrwt>
<pdfrwt beam="1">  1        1 0.25953122E+00 0.10108216E+04</pdfrwt>
<pdfrwt beam="2">  1       -1 0.89565649E-01 0.10108216E+04</pdfrwt>
<totfact> 0.59765478E+00</totfact>
</mgrwt>
</event>
<event>
 4    1  0.1065596E-007  0.1578301E+04  0.7818608E-02  0.8856236E-01
          1   -1    0    0  501    0  0.00000000000E+00  0.00000000000E+00  0.28406237776E+04  0.28406237776E+04  0.50400000000E-02 0. -1.
         -1   -1    0    0    0  501 -0.00000000000E+00 -0.00000000000E+00 -0.15895343258E+04  0.15895343258E+04  0.50400000000E-02 0.  1.
    8880023    1    1    2    0    0 -0.10444677960E+04 -0.98301091005E+03  0.21970611906E+04  0.27052008258E+04  0.65864270000E+03 0.  0.
    8880022    1    1    2    0    0  0.10444677960E+04  0.98301091005E+03 -0.94597173878E+03  0.17249572777E+04  0.15294330000E+03 0.  0.
<mgrwt>
<rscale>  0 0.15431790E+04</rscale>
<asrwt>0</asrwt>
<pdfrwt beam="1">  1        1 0.43701904E+00 0.15783009E+04</pdfrwt>
<pdfrwt beam="2">  1       -1 0.24454374E+00 0.15783009E+04</pdfrwt>
<totfact> 0.55159646E-02</totfact>
</mgrwt>
</event>
<event>
 4    1  0.1065596E-007  0.1326866E+04  0.7818608E-02  0.9042700E-01
         -1   -1    0    0    0  501 -0.00000000000E+00  0.00000000000E+00  0.98152089000E+03  0.98152089002E+03  0.50400000000E-02 0.  1.
          1   -1    0    0  501    0  0.00000000000E+00 -0.00000000000E+00 -0.21015209022E+04  0.21015209022E+04  0.50400000000E-02 0. -1.
    8880023    1    1    2    0    0  0.11309281205E+04  0.21854996188E+03 -0.13561880535E+04  0.18973188299E+04  0.65864270000E+03 0.  0.
    8880022    1    1    2    0    0 -0.11309281205E+04 -0.21854996188E+03  0.23618804125E+03  0.11857229624E+04  0.15294330000E+03 0.  0.
<mgrwt>
<rscale>  0 0.12835659E+04</rscale>
<asrwt>0</asrwt>
<pdfrwt beam="1">  1        1 0.32331091E+00 0.13268657E+04</pdfrwt>
<pdfrwt beam="2">  1       -1 0.15100321E+00 0.13268657E+04</pdfrwt>
<totfact> 0.84332866E-01</totfact>
</mgrwt>
</event>
<event>
 4    1  0.1065596E-007  0.7036182E+03  0.7818608E-02  0.9982510E-01
          1   -1    0    0  501    0  0.00000000000E+00  0.00000000000E+00  0.78641353235E+03  0.78641353237E+03  0.50400000000E-02 0. -1.
         -1   -1    0    0    0  501 -0.00000000000E+00 -0.00000000000E+00 -0.82259856793E+03  0.82259856794E+03  0.50400000000E-02 0.  1.
    8880023    1    1    2    0    0  0.13662677158E+03  0.20640124915E+03  0.59018127351E+03  0.91836403035E+03  0.65864270000E+03 0. -1.
    8880022    1    1    2    0    0 -0.13662677158E+03 -0.20640124915E+03 -0.62636630909E+03  0.69064806996E+03  0.15294330000E+03 0.  0.
<mgrwt>
<rscale>  0 0.56423832E+03</rscale>
<asrwt>0</asrwt>
<pdfrwt beam="1">  1        1 0.12098670E+00 0.70361819E+03</pdfrwt>
<pdfrwt beam="2">  1       -1 0.12655363E+00 0.70361819E+03</pdfrwt>
<totfact> 0.12775126E+01</totfact>
</mgrwt>
</event>
<event>
 4    1  0.1065596E-007  0.8535055E+03  0.7818608E-02  0.9605222E-01
         -1   -1    0    0    0  501 -0.00000000000E+00  0.00000000000E+00  0.46146153479E+03  0.46146153482E+03  0.50400000000E-02 0.  1.
          1   -1    0    0  501    0  0.00000000000E+00 -0.00000000000E+00 -0.20782571879E+04  0.20782571879E+04  0.50400000000E-02 0. -1.
    8880023    1    1    2    0    0  0.47347646867E+03  0.26548344926E+03 -0.17615902969E+04  0.19574657107E+04  0.65864270000E+03 0. -1.
    8880022    1    1    2    0    0 -0.47347646867E+03 -0.26548344926E+03  0.14479464371E+03  0.58225301208E+03  0.15294330000E+03 0.  0.
<mgrwt>
<rscale>  0 0.76951518E+03</rscale>
<asrwt>0</asrwt>
<pdfrwt beam="1">  1        1 0.31973187E+00 0.85350550E+03</pdfrwt>
<pdfrwt beam="2">  1       -1 0.70994083E-01 0.85350550E+03</pdfrwt>
<totfact> 0.54596697E+00</totfact>
</mgrwt>
</event>
<event>
 4    1  0.1065596E-007  0.6631564E+03  0.7818608E-02  0.1021133E+00
         -1   -1    0    0    0  501 -0.00000000000E+00  0.00000000000E+00  0.20422530532E+04  0.20422530532E+04  0.50400000000E-02 0.  1.
          1   -1    0    0  501    0  0.00000000000E+00 -0.00000000000E+00 -0.18658291483E+04  0.18658291483E+04  0.50400000000E-02 0. -1.
    8880023    1    1    2    0    0  0.53339595316E+02  0.55866461418E+02 -0.18030861854E+04  0.19211705214E+04  0.65864270000E+03 0. -1.
    8880022    1    1    2    0    0 -0.53339595316E+02 -0.55866461418E+02  0.19795100903E+04  0.19869116801E+04  0.15294330000E+03 0.  0.
<mgrwt>
<rscale>  0 0.47279998E+03</rscale>
<asrwt>0</asrwt>
<pdfrwt beam="1">  1        1 0.28705064E+00 0.66315638E+03</pdfrwt>
<pdfrwt beam="2">  1       -1 0.31419278E+00 0.66315638E+03</pdfrwt>
<totfact> 0.10919517E-01</totfact>
</mgrwt>
</event>
<event>
 4    1  0.1065596E-007  0.7508051E+03  0.7818608E-02  0.9829521E-01
          1   -1    0    0  501    0  0.00000000000E+00  0.00000000000E+00  0.12910543159E+04  0.12910543159E+04  0.50400000000E-02 0. -1.
         -1   -1    0    0    0  501 -0.00000000000E+00 -0.00000000000E+00 -0.66168259059E+03  0.66168259061E+03  0.50400000000E-02 0.  1.
    8880023    1    1    2    0    0 -0.35615273447E+03 -0.55256610983E+02  0.11054704109E+04  0.13363282153E+04  0.65864270000E+03 0.  0.
    8880022    1    1    2    0    0  0.35615273447E+03  0.55256610983E+02 -0.47609868553E+03  0.61640869129E+03  0.15294330000E+03 0.  0.
<mgrwt>
<rscale>  0 0.63802035E+03</rscale>
<asrwt>0</asrwt>
<pdfrwt beam="1">  1        1 0.19862374E+00 0.75080508E+03</pdfrwt>
<pdfrwt beam="2">  1       -1 0.10179732E+00 0.75080508E+03</pdfrwt>
<totfact> 0.87028797E+00</totfact>
</mgrwt>
</event>
<event>
 4    1  0.1065596E-007  0.8129406E+03  0.7818608E-02  0.9683484E-01
          1   -1    0    0  501    0  0.00000000000E+00  0.00000000000E+00  0.40304389308E+03  0.40304389311E+03  0.50400000000E-02 0. -1.
         -1   -1    0    0    0  501 -0.00000000000E+00 -0.00000000000E+00 -0.14027994957E+04  0.14027994957E+04  0.50400000000E-02 0.  1.
    8880023    1    1    2    0    0  0.35422381354E+03  0.31872827816E+03 -0.16039519851E+03  0.82861272700E+03  0.65864270000E+03 0.  0.
    8880022    1    1    2    0    0 -0.35422381354E+03 -0.31872827816E+03 -0.83936040408E+03  0.97723066178E+03  0.15294330000E+03 0.  0.
<mgrwt>
<rscale>  0 0.72008719E+03</rscale>
<asrwt>0</asrwt>
<pdfrwt beam="1">  1        1 0.62006753E-01 0.81294061E+03</pdfrwt>
<pdfrwt beam="2">  1       -1 0.21581530E+00 0.81294061E+03</pdfrwt>
<totfact> 0.71572197E+00</totfact>
</mgrwt>
</event>
<event>
 4    1  0.1065596E-007  0.7519587E+03  0.7818608E-02  0.9826389E-01
         -1   -1    0    0    0  501 -0.00000000000E+00  0.00000000000E+00  0.10868046032E+04  0.10868046032E+04  0.50400000000E-02 0.  1.
          1   -1    0    0  501    0  0.00000000000E+00 -0.00000000000E+00 -0.31799937265E+03  0.31799937269E+03  0.50400000000E-02 0. -1.
    8880023    1    1    2    0    0  0.36246550706E+03  0.15827522835E+02  0.34818799266E+03  0.82865966402E+03  0.65864270000E+03 0.  0.
    8880022    1    1    2    0    0 -0.36246550706E+03 -0.15827522835E+02  0.42061723789E+03  0.57614431188E+03  0.15294330000E+03 0. -1.
<mgrwt>
<rscale>  0 0.63965408E+03</rscale>
<asrwt>0</asrwt>
<pdfrwt beam="1">  1        1 0.48922981E-01 0.75195875E+03</pdfrwt>
<pdfrwt beam="2">  1       -1 0.16720071E+00 0.75195875E+03</pdfrwt>
<totfact> 0.21490716E+01</totfact>
</mgrwt>
</event>
<event>
 4    1  0.1065596E-007  0.7007059E+03  0.7818608E-02  0.9994285E-01
          1   -1    0    0  501    0  0.00000000000E+00  0.00000000000E+00  0.40506721989E+03  0.40506721992E+03  0.50400000000E-02 0. -1.
         -1   -1    0    0    0  501 -0.00000000000E+00 -0.00000000000E+00 -0.10624974310E+04  0.10624974311E+04  0.50400000000E-02 0.  1.
    8880023    1    1    2    0    0 -0.14114469143E+03 -0.19301992470E+03  0.52821160534E+02  0.70269395651E+03  0.65864270000E+03 0. -1.
    8880022    1    1    2    0    0  0.14114469143E+03  0.19301992470E+03 -0.71025137169E+03  0.76487069447E+03  0.15294330000E+03 0.  0.
<mgrwt>
<rscale>  0 0.55901518E+03</rscale>
<asrwt>0</asrwt>
<pdfrwt beam="1">  1        1 0.62318034E-01 0.70070587E+03</pdfrwt>
<pdfrwt beam="2">  1       -1 0.16346114E+00 0.70070587E+03</pdfrwt>
<totfact> 0.16767568E+01</totfact>
</mgrwt>
</event>
<event>
 4    1  0.1065596E-007  0.1319446E+04  0.7818608E-02  0.9048947E-01
         -1   -1    0    0    0  501 -0.00000000000E+00  0.00000000000E+00  0.19736010907E+04  0.19736010907E+04  0.50400000000E-02 0.  1.
          1   -1    0    0  501    0  0.00000000000E+00 -0.00000000000E+00 -0.97525801188E+03  0.97525801189E+03  0.50400000000E-02 0. -1.
    8880023    1    1    2    0    0 -0.11173684296E+04 -0.24210457541E+03 -0.14173959553E+03  0.13270369822E+04  0.65864270000E+03 0.  0.
    8880022    1    1    2    0    0  0.11173684296E+04  0.24210457541E+03  0.11400826744E+04  0.16218221204E+04  0.15294330000E+03 0.  0.
<mgrwt>
<rscale>  0 0.12758401E+04</rscale>
<asrwt>0</asrwt>
<pdfrwt beam="1">  1        1 0.15003969E+00 0.13194457E+04</pdfrwt>
<pdfrwt beam="2">  1       -1 0.30363094E+00 0.13194457E+04</pdfrwt>
<totfact> 0.48076398E-01</totfact>
</mgrwt>
</event>
<event>
 4    1  0.1065596E-007  0.9095503E+03  0.7818608E-02  0.9510871E-01
          1   -1    0    0  501    0  0.00000000000E+00  0.00000000000E+00  0.26170033024E+04  0.26170033024E+04  0.50400000000E-02 0. -1.
         -1   -1    0    0    0  501 -0.00000000000E+00 -0.00000000000E+00 -0.77764942067E+03  0.77764942069E+03  0.50400000000E-02 0.  1.
    8880023    1    1    2    0    0  0.62152902673E+03 -0.84694606444E+02  0.23829530640E+04  0.25506365909E+04  0.65864270000E+03 0. -1.
    8880022    1    1    2    0    0 -0.62152902673E+03  0.84694606444E+02 -0.54359918226E+03  0.84401613219E+03  0.15294330000E+03 0.  0.
<mgrwt>
<rscale>  0 0.83487071E+03</rscale>
<asrwt>0</asrwt>
<pdfrwt beam="1">  1        1 0.40261589E+00 0.90955028E+03</pdfrwt>
<pdfrwt beam="2">  1       -1 0.11963837E+00 0.90955028E+03</pdfrwt>
<totfact> 0.72599585E-01</totfact>
</mgrwt>
</event>
<event>
 4    1  0.1065596E-007  0.1206540E+04  0.7818608E-02  0.9150791E-01
         -1   -1    0    0    0  501 -0.00000000000E+00  0.00000000000E+00  0.87146692234E+03  0.87146692236E+03  0.50400000000E-02 0.  1.
          1   -1    0    0  501    0  0.00000000000E+00 -0.00000000000E+00 -0.17259922678E+04  0.17259922678E+04  0.50400000000E-02 0. -1.
    8880023    1    1    2    0    0 -0.43023280528E+03  0.91478385497E+03 -0.99700368860E+03  0.15651697446E+04  0.65864270000E+03 0. -1.
    8880022    1    1    2    0    0  0.43023280528E+03 -0.91478385497E+03  0.14247834319E+03  0.10322894455E+04  0.15294330000E+03 0.  0.
<mgrwt>
<rscale>  0 0.11576110E+04</rscale>
<asrwt>0</asrwt>
<pdfrwt beam="1">  1        1 0.26553727E+00 0.12065405E+04</pdfrwt>
<pdfrwt beam="2">  1       -1 0.13407183E+00 0.12065405E+04</pdfrwt>
<totfact> 0.21058224E+00</totfact>
</mgrwt>
</event>
<event>
 4    1  0.1065596E-007  0.9775353E+03  0.7818608E-02  0.9411557E-01
         -1   -1    0    0    0  501 -0.00000000000E+00  0.00000000000E+00  0.15214339375E+04  0.15214339375E+04  0.50400000000E-02 0.  1.
          1   -1    0    0  501    0  0.00000000000E+00 -0.00000000000E+00 -0.10372034686E+04  0.10372034686E+04  0.50400000000E-02 0. -1.
    8880023    1    1    2    0    0 -0.45482291807E+03  0.56116048985E+03 -0.67237648577E+03  0.11864507268E+04  0.65864270000E+03 0.  0.
    8880022    1    1    2    0    0  0.45482291807E+03 -0.56116048985E+03  0.11566069547E+04  0.13721866793E+04  0.15294330000E+03 0.  0.
<mgrwt>
<rscale>  0 0.91130654E+03</rscale>
<asrwt>0</asrwt>
<pdfrwt beam="1">  1        1 0.15956977E+00 0.97753526E+03</pdfrwt>
<pdfrwt beam="2">  1       -1 0.23406676E+00 0.97753526E+03</pdfrwt>
<totfact> 0.12686098E+00</totfact>
</mgrwt>
</event>
<event>
 4    1  0.1065596E-007  0.6606656E+03  0.7818608E-02  0.1023485E+00
         -1   -1    0    0    0  501 -0.00000000000E+00  0.00000000000E+00  0.43891737043E+03  0.43891737046E+03  0.50400000000E-02 0.  1.
          1   -1    0    0  501    0  0.00000000000E+00 -0.00000000000E+00 -0.83056303630E+03  0.83056303632E+03  0.50400000000E-02 0. -1.
    8880023    1    1    2    0    0  0.17580357187E+02  0.48577144018E+02 -0.67427617857E+03  0.94399543385E+03  0.65864270000E+03 0. -1.
    8880022    1    1    2    0    0 -0.17580357187E+02 -0.48577144018E+02  0.28263051269E+03  0.32548497293E+03  0.15294330000E+03 0.  0.
<mgrwt>
<rscale>  0 0.46449819E+03</rscale>
<asrwt>0</asrwt>
<pdfrwt beam="1">  1        1 0.12777893E+00 0.66066558E+03</pdfrwt>
<pdfrwt beam="2">  1       -1 0.67525750E-01 0.66066558E+03</pdfrwt>
<totfact> 0.47716120E+01</totfact>
</mgrwt>
</event>
<event>
 4    1  0.1065596E-007  0.1005249E+04  0.7818608E-02  0.9374723E-01
         -1   -1    0    0    0  501 -0.00000000000E+00  0.00000000000E+00  0.16417644294E+04  0.16417644294E+04  0.50400000000E-02 0.  1.
          1   -1    0    0  501    0  0.00000000000E+00 -0.00000000000E+00 -0.15968503284E+04  0.15968503284E+04  0.50400000000E-02 0. -1.
    8880023    1    1    2    0    0  0.71004585390E+03  0.26934977955E+03 -0.13259981615E+04  0.16639698762E+04  0.65864270000E+03 0.  0.
    8880022    1    1    2    0    0 -0.71004585390E+03 -0.26934977955E+03  0.13709122625E+04  0.15746448815E+04  0.15294330000E+03 0.  0.
<mgrwt>
<rscale>  0 0.94185401E+03</rscale>
<asrwt>0</asrwt>
<pdfrwt beam="1">  1        1 0.24566928E+00 0.10052485E+04</pdfrwt>
<pdfrwt beam="2">  1       -1 0.25257914E+00 0.10052485E+04</pdfrwt>
<totfact> 0.38041389E-01</totfact>
</mgrwt>
</event>
<event>
 4    1  0.1065596E-007  0.8276028E+03  0.7818608E-02  0.9654015E-01
         -1   -1    0    0    0  501 -0.00000000000E+00  0.00000000000E+00  0.64268369276E+03  0.64268369278E+03  0.50400000000E-02 0.  1.
          1   -1    0    0  501    0  0.00000000000E+00 -0.00000000000E+00 -0.10982839062E+04  0.10982839062E+04  0.50400000000E-02 0. -1.
    8880023    1    1    2    0    0 -0.18207879583E+03  0.46686557901E+03 -0.76960675858E+03  0.11301419937E+04  0.65864270000E+03 0. -1.
    8880022    1    1    2    0    0  0.18207879583E+03 -0.46686557901E+03  0.31400654511E+03  0.61082560534E+03  0.15294330000E+03 0.  0.
<mgrwt>
<rscale>  0 0.73821998E+03</rscale>
<asrwt>0</asrwt>
<pdfrwt beam="1">  1        1 0.16896675E+00 0.82760278E+03</pdfrwt>
<pdfrwt beam="2">  1       -1 0.98874414E-01 0.82760278E+03</pdfrwt>
<totfact> 0.12713382E+01</totfact>
</mgrwt>
</event>
<event>
 4    1  0.1065596E-007  0.7544872E+03  0.7818608E-02  0.9819594E-01
          1   -1    0    0  501    0  0.00000000000E+00  0.00000000000E+00  0.22028223151E+04  0.22028223151E+04  0.50400000000E-02 0. -1.
         -1   -1    0    0    0  501 -0.00000000000E+00 -0.00000000000E+00 -0.52553577640E+03  0.52553577642E+03  0.50400000000E-02 0.  1.
    8880023    1    1    2    0    0 -0.17953869102E+03  0.32125787647E+03  0.20489275688E+04  0.21834273868E+04  0.65864270000E+03 0. -1.
    8880022    1    1    2    0    0  0.17953869102E+03 -0.32125787647E+03 -0.37164103008E+03  0.54493070479E+03  0.15294330000E+03 0.  0.
<mgrwt>
<rscale>  0 0.64321522E+03</rscale>
<asrwt>0</asrwt>
<pdfrwt beam="1">  1        1 0.33889574E+00 0.75448722E+03</pdfrwt>
<pdfrwt beam="2">  1       -1 0.80851659E-01 0.75448722E+03</pdfrwt>
<totfact> 0.34878686E+00</totfact>
</mgrwt>
</event>
<event>
 4    1  0.1065596E-007  0.6963806E+03  0.7818608E-02  0.1001256E+00
         -1   -1    0    0    0  501 -0.00000000000E+00  0.00000000000E+00  0.84025674574E+03  0.84025674576E+03  0.50400000000E-02 0.  1.
          1   -1    0    0  501    0  0.00000000000E+00 -0.00000000000E+00 -0.12108405494E+04  0.12108405494E+04  0.50400000000E-02 0. -1.
    8880023    1    1    2    0    0  0.22415404115E+03  0.29845628049E+02 -0.10833360625E+04  0.12878520979E+04  0.65864270000E+03 0. -1.
    8880022    1    1    2    0    0 -0.22415404115E+03 -0.29845628049E+02  0.71275225879E+03  0.76324519724E+03  0.15294330000E+03 0.  0.
<mgrwt>
<rscale>  0 0.55102912E+03</rscale>
<asrwt>0</asrwt>
<pdfrwt beam="1">  1        1 0.18628316E+00 0.69638064E+03</pdfrwt>
<pdfrwt beam="2">  1       -1 0.12927027E+00 0.69638064E+03</pdfrwt>
<totfact> 0.56504913E+00</totfact>
</mgrwt>
</event>
<event>
 4    1  0.1065596E-007  0.9155043E+03  0.7818608E-02  0.9501587E-01
         -1   -1    0    0    0  501 -0.00000000000E+00  0.00000000000E+00  0.53220006586E+03  0.53220006588E+03  0.50400000000E-02 0.  1.
          1   -1    0    0  501    0  0.00000000000E+00 -0.00000000000E+00 -0.14931173267E+04  0.14931173267E+04  0.50400000000E-02 0. -1.
    8880023    1    1    2    0    0  0.54160239403E+03 -0.33317381099E+03 -0.10176470229E+04  0.13688512012E+04  0.65864270000E+03 0. -1.
    8880022    1    1    2    0    0 -0.54160239403E+03  0.33317381099E+03  0.56729762042E+02  0.65646619141E+03  0.15294330000E+03 0.  0.
<mgrwt>
<rscale>  0 0.84166925E+03</rscale>
<asrwt>0</asrwt>
<pdfrwt beam="1">  1        1 0.22971036E+00 0.91550431E+03</pdfrwt>
<pdfrwt beam="2">  1       -1 0.81876934E-01 0.91550431E+03</pdfrwt>
<totfact> 0.99705797E+00</totfact>
</mgrwt>
</event>
<event>
 4    1  0.1065596E-007  0.1097972E+04  0.7818608E-02  0.9263318E-01
          1   -1    0    0  501    0  0.00000000000E+00  0.00000000000E+00  0.10769690527E+04  0.10769690527E+04  0.50400000000E-02 0. -1.
         -1   -1    0    0    0  501 -0.00000000000E+00 -0.00000000000E+00 -0.15240996911E+04  0.15240996911E+04  0.50400000000E-02 0.  1.
    8880023    1    1    2    0    0 -0.56942651023E+03 -0.66894312407E+03 -0.10543671614E+04  0.15222456343E+04  0.65864270000E+03 0.  1.
    8880022    1    1    2    0    0  0.56942651023E+03  0.66894312407E+03  0.60723652305E+03  0.10788231096E+04  0.15294330000E+03 0.  0.
<mgrwt>
<rscale>  0 0.10423117E+04</rscale>
<asrwt>0</asrwt>
<pdfrwt beam="1">  1        1 0.16568755E+00 0.10979716E+04</pdfrwt>
<pdfrwt beam="2">  1       -1 0.23447687E+00 0.10979716E+04</pdfrwt>
<totfact> 0.11562288E+00</totfact>
</mgrwt>
</event>
<event>
 4    1  0.1065596E-007  0.1972474E+04  0.7818608E-02  0.8632689E-01
          1   -1    0    0  501    0  0.00000000000E+00  0.00000000000E+00  0.22073075798E+04  0.22073075798E+04  0.50400000000E-02 0. -1.
         -1   -1    0    0    0  501 -0.00000000000E+00 -0.00000000000E+00 -0.23756648321E+04  0.23756648321E+04  0.50400000000E-02 0.  1.
    8880023    1    1    2    0    0  0.18392136870E+04 -0.27228306391E+03  0.11641715567E+04  0.22904040414E+04  0.65864270000E+03 0. -1.
    8880022    1    1    2    0    0 -0.18392136870E+04  0.27228306391E+03 -0.13325288091E+04  0.22925683704E+04  0.15294330000E+03 0.  0.
<mgrwt>
<rscale>  0 0.19451793E+04</rscale>
<asrwt>0</asrwt>
<pdfrwt beam="1">  1        1 0.33958578E+00 0.19724744E+04</pdfrwt>
<pdfrwt beam="2">  1       -1 0.36548690E+00 0.19724744E+04</pdfrwt>
<totfact> 0.23471682E-02</totfact>
</mgrwt>
</event>
<event>
 4    1  0.1065596E-007  0.7020356E+03  0.7818608E-02  0.9988859E-01
          1   -1    0    0  501    0  0.00000000000E+00  0.00000000000E+00  0.98364032863E+03  0.98364032864E+03  0.50400000000E-02 0. -1.
         -1   -1    0    0    0  501 -0.00000000000E+00 -0.00000000000E+00 -0.47006644651E+03  0.47006644654E+03  0.50400000000E-02 0.  1.
    8880023    1    1    2    0    0  0.22231258940E+03  0.98086257401E+02  0.78881279082E+03  0.10559733077E+04  0.65864270000E+03 0. -1.
    8880022    1    1    2    0    0 -0.22231258940E+03 -0.98086257401E+02 -0.27523890871E+03  0.39773346751E+03  0.15294330000E+03 0.  0.
<mgrwt>
<rscale>  0 0.56141449E+03</rscale>
<asrwt>0</asrwt>
<pdfrwt beam="1">  1        1 0.15132928E+00 0.70203562E+03</pdfrwt>
<pdfrwt beam="2">  1       -1 0.72317916E-01 0.70203562E+03</pdfrwt>
<totfact> 0.31035916E+01</totfact>
</mgrwt>
</event>
<event>
 4    1  0.1065596E-007  0.1029867E+04  0.7818608E-02  0.9343485E-01
         -1   -1    0    0    0  501 -0.00000000000E+00  0.00000000000E+00  0.69162852695E+03  0.69162852697E+03  0.50400000000E-02 0.  1.
          1   -1    0    0  501    0  0.00000000000E+00 -0.00000000000E+00 -0.20507393859E+04  0.20507393859E+04  0.50400000000E-02 0. -1.
    8880023    1    1    2    0    0 -0.68646369552E+03  0.39443943945E+03 -0.15982304102E+04  0.19013062686E+04  0.65864270000E+03 0. -1.
    8880022    1    1    2    0    0  0.68646369552E+03 -0.39443943945E+03  0.23911955126E+03  0.84106164427E+03  0.15294330000E+03 0.  0.
<mgrwt>
<rscale>  0 0.96876207E+03</rscale>
<asrwt>0</asrwt>
<pdfrwt beam="1">  1        1 0.31549837E+00 0.10298665E+04</pdfrwt>
<pdfrwt beam="2">  1       -1 0.10640439E+00 0.10298665E+04</pdfrwt>
<totfact> 0.22889054E+00</totfact>
</mgrwt>
</event>
<event>
 4    1  0.1065596E-007  0.1628748E+04  0.7818608E-02  0.8823696E-01
         -1   -1    0    0    0  501 -0.00000000000E+00  0.00000000000E+00  0.13396431186E+04  0.13396431186E+04  0.50400000000E-02 0.  1.
          1   -1    0    0  501    0  0.00000000000E+00 -0.00000000000E+00 -0.20915291619E+04  0.20915291619E+04  0.50400000000E-02 0. -1.
    8880023    1    1    2    0    0 -0.14791311134E+04  0.17658520192E+03 -0.10029867515E+04  0.19127999932E+04  0.65864270000E+03 0.  0.
    8880022    1    1    2    0    0  0.14791311134E+04 -0.17658520192E+03  0.25110070816E+03  0.15183722873E+04  0.15294330000E+03 0.  0.
<mgrwt>
<rscale>  0 0.15948862E+04</rscale>
<asrwt>0</asrwt>
<pdfrwt beam="1">  1        1 0.32177371E+00 0.16287484E+04</pdfrwt>
<pdfrwt beam="2">  1       -1 0.20609894E+00 0.16287484E+04</pdfrwt>
<totfact> 0.32885180E-01</totfact>
</mgrwt>
</event>
<event>
 4    1  0.1065596E-007  0.1440361E+04  0.7818608E-02  0.8952939E-01
         -1   -1    0    0    0  501 -0.00000000000E+00  0.00000000000E+00  0.18360344072E+04  0.18360344073E+04  0.50400000000E-02 0.  1.
          1   -1    0    0  501    0  0.00000000000E+00 -0.00000000000E+00 -0.11776169945E+04  0.11776169945E+04  0.50400000000E-02 0. -1.
    8880023    1    1    2    0    0 -0.64298716984E+03 -0.11078795131E+04 -0.21418612370E+03  0.14561989623E+04  0.65864270000E+03 0.  0.
    8880022    1    1    2    0    0  0.64298716984E+03  0.11078795131E+04  0.87260353648E+03  0.15574524394E+04  0.15294330000E+03 0.  0.
<mgrwt>
<rscale>  0 0.14012154E+04</rscale>
<asrwt>0</asrwt>
<pdfrwt beam="1">  1        1 0.18117185E+00 0.14403610E+04</pdfrwt>
<pdfrwt beam="2">  1       -1 0.28246683E+00 0.14403610E+04</pdfrwt>
<totfact> 0.45468084E-01</totfact>
</mgrwt>
</event>
<event>
 4    1  0.1065596E-007  0.7423486E+03  0.7818608E-02  0.9853158E-01
          1   -1    0    0  501    0  0.00000000000E+00  0.00000000000E+00  0.76059036642E+03  0.76059036644E+03  0.50400000000E-02 0. -1.
         -1   -1    0    0    0  501 -0.00000000000E+00 -0.00000000000E+00 -0.11652576875E+04  0.11652576875E+04  0.50400000000E-02 0.  1.
    8880023    1    1    2    0    0  0.33866729583E+02 -0.34077007827E+03  0.53437470754E+03  0.91467903438E+03  0.65864270000E+03 0.  0.
    8880022    1    1    2    0    0 -0.33866729583E+02  0.34077007827E+03 -0.93904202858E+03  0.10111690195E+04  0.15294330000E+03 0.  0.
<mgrwt>
<rscale>  0 0.62586165E+03</rscale>
<asrwt>0</asrwt>
<pdfrwt beam="1">  1        1 0.11701390E+00 0.74234858E+03</pdfrwt>
<pdfrwt beam="2">  1       -1 0.17927041E+00 0.74234858E+03</pdfrwt>
<totfact> 0.52319385E+00</totfact>
</mgrwt>
</event>
<event>
 4    1  0.1065596E-007  0.7637167E+03  0.7818608E-02  0.9795579E-01
         -1   -1    0    0    0  501 -0.00000000000E+00  0.00000000000E+00  0.33343401798E+03  0.33343401802E+03  0.50400000000E-02 0.  1.
          1   -1    0    0  501    0  0.00000000000E+00 -0.00000000000E+00 -0.10648097809E+04  0.10648097809E+04  0.50400000000E-02 0. -1.
    8880023    1    1    2    0    0 -0.13756851150E+03  0.36128640003E+03 -0.56698978927E+03  0.95117852457E+03  0.65864270000E+03 0. -1.
    8880022    1    1    2    0    0  0.13756851150E+03 -0.36128640003E+03 -0.16438597366E+03  0.44706527438E+03  0.15294330000E+03 0.  1.
<mgrwt>
<rscale>  0 0.65600355E+03</rscale>
<asrwt>0</asrwt>
<pdfrwt beam="1">  1        1 0.16381689E+00 0.76371668E+03</pdfrwt>
<pdfrwt beam="2">  1       -1 0.51297542E-01 0.76371668E+03</pdfrwt>
<totfact> 0.52706482E+01</totfact>
</mgrwt>
</event>
<event>
 4    1  0.1065596E-007  0.1044122E+04  0.7818608E-02  0.9325981E-01
         -1   -1    0    0    0  501 -0.00000000000E+00  0.00000000000E+00  0.13235716792E+04  0.13235716792E+04  0.50400000000E-02 0.  1.
          1   -1    0    0  501    0  0.00000000000E+00 -0.00000000000E+00 -0.89938079223E+03  0.89938079225E+03  0.50400000000E-02 0. -1.
    8880023    1    1    2    0    0 -0.20801468233E+03  0.78301337588E+03 -0.34070424279E+03  0.10983030739E+04  0.65864270000E+03 0.  0.
    8880022    1    1    2    0    0  0.20801468233E+03 -0.78301337588E+03  0.76489512977E+03  0.11246493976E+04  0.15294330000E+03 0.  0.
<mgrwt>
<rscale>  0 0.98425753E+03</rscale>
<asrwt>0</asrwt>
<pdfrwt beam="1">  1        1 0.13836628E+00 0.10441218E+04</pdfrwt>
<pdfrwt beam="2">  1       -1 0.20362641E+00 0.10441218E+04</pdfrwt>
<totfact> 0.25857961E+00</totfact>
</mgrwt>
</event>
<event>
 4    1  0.1065596E-007  0.6875965E+03  0.7818608E-02  0.1005316E+00
         -1   -1    0    0    0  501 -0.00000000000E+00  0.00000000000E+00  0.39716779484E+03  0.39716779487E+03  0.50400000000E-02 0.  1.
          1   -1    0    0  501    0  0.00000000000E+00 -0.00000000000E+00 -0.65585463950E+03  0.65585463952E+03  0.50400000000E-02 0. -1.
    8880023    1    1    2    0    0 -0.56691376797E+02 -0.18911608047E+03 -0.36860142351E+03  0.78016409798E+03  0.65864270000E+03 0. -1.
    8880022    1    1    2    0    0  0.56691376797E+02  0.18911608047E+03  0.10991457885E+03  0.27285833642E+03  0.15294330000E+03 0.  0.
<mgrwt>
<rscale>  0 0.53379270E+03</rscale>
<asrwt>0</asrwt>
<pdfrwt beam="1">  1        1 0.10090071E+00 0.68759655E+03</pdfrwt>
<pdfrwt beam="2">  1       -1 0.61102738E-01 0.68759655E+03</pdfrwt>
<totfact> 0.83625827E+01</totfact>
</mgrwt>
</event>
<event>
 4    1  0.1065596E-007  0.9377199E+03  0.7818608E-02  0.9468007E-01
         -1   -1    0    0    0  501 -0.00000000000E+00  0.00000000000E+00  0.37672656792E+04  0.37672656792E+04  0.50400000000E-02 0.  1.
          1   -1    0    0  501    0  0.00000000000E+00 -0.00000000000E+00 -0.32709887030E+03  0.32709887034E+03  0.50400000000E-02 0. -1.
    8880023    1    1    2    0    0  0.59335612499E+03 -0.30567454612E+03  0.47501211560E+03  0.10511684620E+04  0.65864270000E+03 0.  0.
    8880022    1    1    2    0    0 -0.59335612499E+03  0.30567454612E+03  0.29651546933E+04  0.30431960875E+04  0.15294330000E+03 0.  0.
<mgrwt>
<rscale>  0 0.86684189E+03</rscale>
<asrwt>0</asrwt>
<pdfrwt beam="1">  1        1 0.50322904E-01 0.93771991E+03</pdfrwt>
<pdfrwt beam="2">  1       -1 0.57957932E+00 0.93771991E+03</pdfrwt>
<totfact> 0.42106102E-02</totfact>
</mgrwt>
</event>
<event>
 4    1  0.1065596E-007  0.8660027E+03  0.7818608E-02  0.9582974E-01
          1   -1    0    0  501    0  0.00000000000E+00  0.00000000000E+00  0.65570483946E+03  0.65570483948E+03  0.50400000000E-02 0. -1.
         -1   -1    0    0    0  501 -0.00000000000E+00 -0.00000000000E+00 -0.10198902627E+04  0.10198902627E+04  0.50400000000E-02 0.  1.
    8880023    1    1    2    0    0  0.31425453040E+03  0.46625585442E+03  0.17293981668E+03  0.88310181639E+03  0.65864270000E+03 0.  0.
    8880022    1    1    2    0    0 -0.31425453040E+03 -0.46625585442E+03 -0.53712523994E+03  0.79249328581E+03  0.15294330000E+03 0.  0.
<mgrwt>
<rscale>  0 0.78433416E+03</rscale>
<asrwt>0</asrwt>
<pdfrwt beam="1">  1        1 0.10087767E+00 0.86600268E+03</pdfrwt>
<pdfrwt beam="2">  1       -1 0.15690619E+00 0.86600268E+03</pdfrwt>
<totfact> 0.94298355E+00</totfact>
</mgrwt>
</event>
<event>
 4    1  0.1065596E-007  0.8291077E+03  0.7818608E-02  0.9651071E-01
          1   -1    0    0  501    0  0.00000000000E+00  0.00000000000E+00  0.63528387895E+03  0.63528387897E+03  0.50400000000E-02 0. -1.
         -1   -1    0    0    0  501 -0.00000000000E+00 -0.00000000000E+00 -0.18828144960E+04  0.18828144960E+04  0.50400000000E-02 0.  1.
    8880023    1    1    2    0    0  0.48876411965E+03  0.12132182469E+03  0.30140115046E+03  0.88219170794E+03  0.65864270000E+03 0. -1.
    8880022    1    1    2    0    0 -0.48876411965E+03 -0.12132182469E+03 -0.15489317675E+04  0.16359066670E+04  0.15294330000E+03 0.  0.
<mgrwt>
<rscale>  0 0.74006246E+03</rscale>
<asrwt>0</asrwt>
<pdfrwt beam="1">  1        1 0.97735982E-01 0.82910769E+03</pdfrwt>
<pdfrwt beam="2">  1       -1 0.28966377E+00 0.82910769E+03</pdfrwt>
<totfact> 0.12613359E+00</totfact>
</mgrwt>
</event>
<event>
 4    1  0.1065596E-007  0.8369100E+03  0.7818608E-02  0.9636034E-01
         -1   -1    0    0    0  501 -0.00000000000E+00  0.00000000000E+00  0.48722132255E+03  0.48722132257E+03  0.50400000000E-02 0.  1.
          1   -1    0    0  501    0  0.00000000000E+00 -0.00000000000E+00 -0.21685502342E+04  0.21685502342E+04  0.50400000000E-02 0. -1.
    8880023    1    1    2    0    0 -0.51294303997E+03 -0.59140276120E+02 -0.18987575557E+04  0.20750177339E+04  0.65864270000E+03 0.  0.
    8880022    1    1    2    0    0  0.51294303997E+03  0.59140276120E+02  0.21742864403E+03  0.58075382287E+03  0.15294330000E+03 0.  0.
<mgrwt>
<rscale>  0 0.74956410E+03</rscale>
<asrwt>0</asrwt>
<pdfrwt beam="1">  1        1 0.33362311E+00 0.83691000E+03</pdfrwt>
<pdfrwt beam="2">  1       -1 0.74957128E-01 0.83691000E+03</pdfrwt>
<totfact> 0.42533258E+00</totfact>
</mgrwt>
</event>
<event>
 4    1  0.1065596E-007  0.1115207E+04  0.7818608E-02  0.9244311E-01
          1   -1    0    0  501    0  0.00000000000E+00  0.00000000000E+00  0.11321494319E+04  0.11321494319E+04  0.50400000000E-02 0. -1.
         -1   -1    0    0    0  501 -0.00000000000E+00 -0.00000000000E+00 -0.18264692294E+04  0.18264692294E+04  0.50400000000E-02 0.  1.
    8880023    1    1    2    0    0 -0.88154634765E+03 -0.18097461252E+03  0.68191326400E+03  0.13071693384E+04  0.65864270000E+03 0. -1.
    8880022    1    1    2    0    0  0.88154634765E+03  0.18097461252E+03 -0.13762330615E+04  0.16514493229E+04  0.15294330000E+03 0.  0.
<mgrwt>
<rscale>  0 0.10607538E+04</rscale>
<asrwt>0</asrwt>
<pdfrwt beam="1">  1        1 0.17417684E+00 0.11152067E+04</pdfrwt>
<pdfrwt beam="2">  1       -1 0.28099527E+00 0.11152067E+04</pdfrwt>
<totfact> 0.52319629E-01</totfact>
</mgrwt>
</event>
<event>
 4    1  0.1065596E-007  0.8123015E+03  0.7818608E-02  0.9684803E-01
         -1   -1    0    0    0  501 -0.00000000000E+00  0.00000000000E+00  0.53076326848E+03  0.53076326850E+03  0.50400000000E-02 0.  1.
          1   -1    0    0  501    0  0.00000000000E+00 -0.00000000000E+00 -0.20607001120E+04  0.20607001120E+04  0.50400000000E-02 0. -1.
    8880023    1    1    2    0    0  0.98063924427E+02 -0.46519569187E+03 -0.18346469784E+04  0.20064304889E+04  0.65864270000E+03 0. -1.
    8880022    1    1    2    0    0 -0.98063924427E+02  0.46519569187E+03  0.30471013487E+03  0.58503289166E+03  0.15294330000E+03 0.  0.
<mgrwt>
<rscale>  0 0.71928884E+03</rscale>
<asrwt>0</asrwt>
<pdfrwt beam="1">  1        1 0.31703078E+00 0.81230153E+03</pdfrwt>
<pdfrwt beam="2">  1       -1 0.81655888E-01 0.81230153E+03</pdfrwt>
<totfact> 0.42104447E+00</totfact>
</mgrwt>
</event>
<event>
 4    1  0.1065596E-007  0.7288101E+03  0.7818608E-02  0.9893830E-01
         -1   -1    0    0    0  501 -0.00000000000E+00  0.00000000000E+00  0.42085358710E+03  0.42085358713E+03  0.50400000000E-02 0.  1.
          1   -1    0    0  501    0  0.00000000000E+00 -0.00000000000E+00 -0.15142983368E+04  0.15142983368E+04  0.50400000000E-02 0. -1.
    8880023    1    1    2    0    0 -0.17188903718E+03 -0.26039982555E+03 -0.13287446078E+04  0.15154954138E+04  0.65864270000E+03 0. -1.
    8880022    1    1    2    0    0  0.17188903718E+03  0.26039982555E+03  0.23529985811E+03  0.41965651012E+03  0.15294330000E+03 0.  0.
<mgrwt>
<rscale>  0 0.60561228E+03</rscale>
<asrwt>0</asrwt>
<pdfrwt beam="1">  1        1 0.23296897E+00 0.72881007E+03</pdfrwt>
<pdfrwt beam="2">  1       -1 0.64746707E-01 0.72881007E+03</pdfrwt>
<totfact> 0.16070304E+01</totfact>
</mgrwt>
</event>
<event>
 4    1  0.1065596E-007  0.9269695E+03  0.7818608E-02  0.9484054E-01
         -1   -1    0    0    0  501 -0.00000000000E+00  0.00000000000E+00  0.94800855698E+03  0.94800855700E+03  0.50400000000E-02 0.  1.
          1   -1    0    0  501    0  0.00000000000E+00 -0.00000000000E+00 -0.89149069647E+03  0.89149069648E+03  0.50400000000E-02 0. -1.
    8880023    1    1    2    0    0 -0.56602974396E+03 -0.32414897734E+03 -0.41967124945E+03  0.10175442961E+04  0.65864270000E+03 0.  0.
    8880022    1    1    2    0    0  0.56602974396E+03  0.32414897734E+03  0.47618910996E+03  0.82195495742E+03  0.15294330000E+03 0. -1.
<mgrwt>
<rscale>  0 0.85469705E+03</rscale>
<asrwt>0</asrwt>
<pdfrwt beam="1">  1        1 0.13715241E+00 0.92696949E+03</pdfrwt>
<pdfrwt beam="2">  1       -1 0.14584747E+00 0.92696949E+03</pdfrwt>
<totfact> 0.70296491E+00</totfact>
</mgrwt>
</event>
<event>
 4    1  0.1065596E-007  0.1227206E+04  0.7818608E-02  0.9131120E-01
          1   -1    0    0  501    0  0.00000000000E+00  0.00000000000E+00  0.10082296833E+04  0.10082296833E+04  0.50400000000E-02 0. -1.
         -1   -1    0    0    0  501 -0.00000000000E+00 -0.00000000000E+00 -0.14176036935E+04  0.14176036935E+04  0.50400000000E-02 0.  1.
    8880023    1    1    2    0    0 -0.10411856556E+03 -0.10302345229E+04  0.15450688449E+03  0.12368938643E+04  0.65864270000E+03 0.  0.
    8880022    1    1    2    0    0  0.10411856556E+03  0.10302345229E+04 -0.56388089476E+03  0.11889395125E+04  0.15294330000E+03 0.  0.
<mgrwt>
<rscale>  0 0.11793571E+04</rscale>
<asrwt>0</asrwt>
<pdfrwt beam="1">  1        1 0.15511226E+00 0.12272058E+04</pdfrwt>
<pdfrwt beam="2">  1       -1 0.21809288E+00 0.12272058E+04</pdfrwt>
<totfact> 0.16530253E+00</totfact>
</mgrwt>
</event>
<event>
 4    1  0.1065596E-007  0.1031849E+04  0.7818608E-02  0.9341027E-01
          1   -1    0    0  501    0  0.00000000000E+00  0.00000000000E+00  0.21265314070E+04  0.21265314070E+04  0.50400000000E-02 0. -1.
         -1   -1    0    0    0  501 -0.00000000000E+00 -0.00000000000E+00 -0.16480810716E+04  0.16480810717E+04  0.50400000000E-02 0.  1.
    8880023    1    1    2    0    0 -0.49123997782E+03 -0.62416759248E+03  0.18867896841E+04  0.21505086416E+04  0.65864270000E+03 0.  0.
    8880022    1    1    2    0    0  0.49123997782E+03  0.62416759248E+03 -0.14083393487E+04  0.16241038371E+04  0.15294330000E+03 0.  0.
<mgrwt>
<rscale>  0 0.97092046E+03</rscale>
<asrwt>0</asrwt>
<pdfrwt beam="1">  1        1 0.32715868E+00 0.10318489E+04</pdfrwt>
<pdfrwt beam="2">  1       -1 0.25355094E+00 0.10318489E+04</pdfrwt>
<totfact> 0.16362346E-01</totfact>
</mgrwt>
</event>
<event>
 4    1  0.1065596E-007  0.7459615E+03  0.7818608E-02  0.9842910E-01
          1   -1    0    0  501    0  0.00000000000E+00  0.00000000000E+00  0.11981539880E+04  0.11981539880E+04  0.50400000000E-02 0. -1.
         -1   -1    0    0    0  501 -0.00000000000E+00 -0.00000000000E+00 -0.35922191801E+03  0.35922191804E+03  0.50400000000E-02 0.  1.
    8880023    1    1    2    0    0 -0.24387821441E+03  0.25134002412E+03  0.90152625778E+03  0.11701316981E+04  0.65864270000E+03 0.  0.
    8880022    1    1    2    0    0  0.24387821441E+03 -0.25134002412E+03 -0.62594187833E+02  0.38724420790E+03  0.15294330000E+03 0.  0.
<mgrwt>
<rscale>  0 0.63109729E+03</rscale>
<asrwt>0</asrwt>
<pdfrwt beam="1">  1        1 0.18433138E+00 0.74596153E+03</pdfrwt>
<pdfrwt beam="2">  1       -1 0.55264911E-01 0.74596153E+03</pdfrwt>
<totfact> 0.36476529E+01</totfact>
</mgrwt>
</event>
<event>
 4    1  0.1065596E-007  0.8182393E+03  0.7818608E-02  0.9672664E-01
         -1   -1    0    0    0  501 -0.00000000000E+00  0.00000000000E+00  0.27419556908E+03  0.27419556912E+03  0.50400000000E-02 0.  1.
          1   -1    0    0  501    0  0.00000000000E+00 -0.00000000000E+00 -0.32772648789E+04  0.32772648789E+04  0.50400000000E-02 0. -1.
    8880023    1    1    2    0    0  0.46187516107E+03 -0.14958816100E+03 -0.29240142793E+04  0.30363423711E+04  0.65864270000E+03 0. -1.
    8880022    1    1    2    0    0 -0.46187516107E+03  0.14958816100E+03 -0.79055030459E+02  0.51511807693E+03  0.15294330000E+03 0.  0.
<mgrwt>
<rscale>  0 0.72667969E+03</rscale>
<asrwt>0</asrwt>
<pdfrwt beam="1">  1        1 0.50419457E+00 0.81823926E+03</pdfrwt>
<pdfrwt beam="2">  1       -1 0.42183936E-01 0.81823926E+03</pdfrwt>
<totfact> 0.21872313E+00</totfact>
</mgrwt>
</event>
<event>
 4    1  0.1065596E-007  0.8019277E+03  0.7818608E-02  0.9706643E-01
         -1   -1    0    0    0  501 -0.00000000000E+00  0.00000000000E+00  0.31497157111E+03  0.31497157115E+03  0.50400000000E-02 0.  1.
          1   -1    0    0  501    0  0.00000000000E+00 -0.00000000000E+00 -0.18859324053E+04  0.18859324053E+04  0.50400000000E-02 0. -1.
    8880023    1    1    2    0    0 -0.21815502401E+03 -0.40210219172E+03 -0.15165056538E+04  0.17154816791E+04  0.65864270000E+03 0. -1.
    8880022    1    1    2    0    0  0.21815502401E+03  0.40210219172E+03 -0.54455180401E+02  0.48542229736E+03  0.15294330000E+03 0.  0.
<mgrwt>
<rscale>  0 0.70622619E+03</rscale>
<asrwt>0</asrwt>
<pdfrwt beam="1">  1        1 0.29014344E+00 0.80192767E+03</pdfrwt>
<pdfrwt beam="2">  1       -1 0.48457166E-01 0.80192767E+03</pdfrwt>
<totfact> 0.15684018E+01</totfact>
</mgrwt>
</event>
<event>
 4    1  0.1065596E-007  0.6721250E+03  0.7818608E-02  0.1014183E+00
          1   -1    0    0  501    0  0.00000000000E+00  0.00000000000E+00  0.26187957543E+04  0.26187957543E+04  0.50400000000E-02 0. -1.
         -1   -1    0    0    0  501 -0.00000000000E+00 -0.00000000000E+00 -0.23806957436E+03  0.23806957441E+03  0.50400000000E-02 0.  1.
    8880023    1    1    2    0    0 -0.12726486747E+03 -0.41778633837E+02  0.25215232404E+04  0.26095653774E+04  0.65864270000E+03 0. -1.
    8880022    1    1    2    0    0  0.12726486747E+03  0.41778633837E+02 -0.14079706038E+03  0.24729995140E+03  0.15294330000E+03 0.  0.
<mgrwt>
<rscale>  0 0.49845418E+03</rscale>
<asrwt>0</asrwt>
<pdfrwt beam="1">  1        1 0.40289166E+00 0.67212499E+03</pdfrwt>
<pdfrwt beam="2">  1       -1 0.36626088E-01 0.67212499E+03</pdfrwt>
<totfact> 0.85768408E+00</totfact>
</mgrwt>
</event>
<event>
 4    1  0.1065596E-007  0.1189520E+04  0.7818608E-02  0.9167378E-01
         -1   -1    0    0    0  501 -0.00000000000E+00  0.00000000000E+00  0.11130531266E+04  0.11130531267E+04  0.50400000000E-02 0.  1.
          1   -1    0    0  501    0  0.00000000000E+00 -0.00000000000E+00 -0.14967216072E+04  0.14967216072E+04  0.50400000000E-02 0. -1.
    8880023    1    1    2    0    0 -0.15436448699E+03 -0.97842660332E+03 -0.89119479915E+03  0.14863328662E+04  0.65864270000E+03 0. -1.
    8880022    1    1    2    0    0  0.15436448699E+03  0.97842660332E+03  0.50752631858E+03  0.11234418677E+04  0.15294330000E+03 0.  0.
<mgrwt>
<rscale>  0 0.11396581E+04</rscale>
<asrwt>0</asrwt>
<pdfrwt beam="1">  1        1 0.23026486E+00 0.11895197E+04</pdfrwt>
<pdfrwt beam="2">  1       -1 0.17123894E+00 0.11895197E+04</pdfrwt>
<totfact> 0.15552174E+00</totfact>
</mgrwt>
</event>
<event>
 4    1  0.1396630E-007  0.8826816E+03  0.7818608E-02  0.9554425E-01
         -1   -1    0    0    0  501 -0.00000000000E+00  0.00000000000E+00  0.19755474236E+04  0.19755474236E+04  0.50400000000E-02 0.  1.
          1   -1    0    0  501    0  0.00000000000E+00 -0.00000000000E+00 -0.13411371261E+04  0.13411371261E+04  0.50400000000E-02 0. -1.
    8880023    1    1    2    0    0 -0.58649817135E+03  0.36557870752E+02 -0.11396976348E+04  0.14415399710E+04  0.65864270000E+03 0. -1.
    8880022    1    1    2    0    0  0.58649817135E+03 -0.36557870752E+02  0.17741079323E+04  0.18751445788E+04  0.15294330000E+03 0.  0.
<mgrwt>
<rscale>  0 0.80387478E+03</rscale>
<asrwt>0</asrwt>
<pdfrwt beam="1">  1        1 0.20632879E+00 0.88268159E+03</pdfrwt>
<pdfrwt beam="2">  1       -1 0.30393037E+00 0.88268159E+03</pdfrwt>
<totfact> 0.27356659E-01</totfact>
</mgrwt>
</event>
<event>
 4    1  0.1065596E-007  0.6912219E+03  0.7818608E-02  0.1003577E+00
          1   -1    0    0  501    0  0.00000000000E+00  0.00000000000E+00  0.12963536710E+04  0.12963536710E+04  0.50400000000E-02 0. -1.
         -1   -1    0    0    0  501 -0.00000000000E+00 -0.00000000000E+00 -0.30764326279E+03  0.30764326283E+03  0.50400000000E-02 0.  1.
    8880023    1    1    2    0    0 -0.16498351915E+03 -0.12945274586E+03  0.11176899964E+04  0.13141608385E+04  0.65864270000E+03 0. -1.
    8880022    1    1    2    0    0  0.16498351915E+03  0.12945274586E+03 -0.12897958820E+03  0.28983609539E+03  0.15294330000E+03 0.  0.
<mgrwt>
<rscale>  0 0.54109165E+03</rscale>
<asrwt>0</asrwt>
<pdfrwt beam="1">  1        1 0.19943902E+00 0.69122195E+03</pdfrwt>
<pdfrwt beam="2">  1       -1 0.47329733E-01 0.69122195E+03</pdfrwt>
<totfact> 0.41933695E+01</totfact>
</mgrwt>
</event>
<event>
 4    1  0.1065596E-007  0.1579670E+04  0.7818608E-02  0.8855335E-01
          1   -1    0    0  501    0  0.00000000000E+00  0.00000000000E+00  0.20090693360E+04  0.20090693360E+04  0.50400000000E-02 0. -1.
         -1   -1    0    0    0  501 -0.00000000000E+00 -0.00000000000E+00 -0.12489545215E+04  0.12489545215E+04  0.50400000000E-02 0.  1.
    8880023    1    1    2    0    0  0.47044548258E+03  0.13565506156E+04 -0.90339563281E+02  0.15822515501E+04  0.65864270000E+03 0.  0.
    8880022    1    1    2    0    0 -0.47044548258E+03 -0.13565506156E+04  0.85045437782E+03  0.16757723075E+04  0.15294330000E+03 0.  0.
<mgrwt>
<rscale>  0 0.15445841E+04</rscale>
<asrwt>0</asrwt>
<pdfrwt beam="1">  1        1 0.30908759E+00 0.15796705E+04</pdfrwt>
<pdfrwt beam="2">  1       -1 0.19214685E+00 0.15796705E+04</pdfrwt>
<totfact> 0.47034970E-01</totfact>
</mgrwt>
</event>
<event>
 4    1  0.1065596E-007  0.1225775E+04  0.7818608E-02  0.9132465E-01
          1   -1    0    0  501    0  0.00000000000E+00  0.00000000000E+00  0.19208207842E+04  0.19208207843E+04  0.50400000000E-02 0. -1.
         -1   -1    0    0    0  501 -0.00000000000E+00 -0.00000000000E+00 -0.82299478461E+03  0.82299478463E+03  0.50400000000E-02 0.  1.
    8880023    1    1    2    0    0  0.87161906214E+02  0.10301054201E+04  0.11723128404E+04  0.16961255780E+04  0.65864270000E+03 0. -1.
    8880022    1    1    2    0    0 -0.87161906214E+02 -0.10301054201E+04 -0.74486840722E+02  0.10476899909E+04  0.15294330000E+03 0.  0.
<mgrwt>
<rscale>  0 0.11778533E+04</rscale>
<asrwt>0</asrwt>
<pdfrwt beam="1">  1        1 0.29551089E+00 0.12257751E+04</pdfrwt>
<pdfrwt beam="2">  1       -1 0.12661458E+00 0.12257751E+04</pdfrwt>
<totfact> 0.17925886E+00</totfact>
</mgrwt>
</event>
<event>
 4    1  0.1065596E-007  0.7199933E+03  0.7818608E-02  0.9922609E-01
          1   -1    0    0  501    0  0.00000000000E+00  0.00000000000E+00  0.69745547420E+03  0.69745547422E+03  0.50400000000E-02 0. -1.
         -1   -1    0    0    0  501 -0.00000000000E+00 -0.00000000000E+00 -0.12428843344E+04  0.12428843344E+04  0.50400000000E-02 0.  1.
    8880023    1    1    2    0    0  0.24086297030E+03 -0.16298806246E+03  0.47882070053E+03  0.86467308764E+03  0.65864270000E+03 0. -1.
    8880022    1    1    2    0    0 -0.24086297030E+03  0.16298806246E+03 -0.10242495607E+04  0.10756667210E+04  0.15294330000E+03 0.  0.
<mgrwt>
<rscale>  0 0.59177972E+03</rscale>
<asrwt>0</asrwt>
<pdfrwt beam="1">  1        1 0.10730084E+00 0.71999325E+03</pdfrwt>
<pdfrwt beam="2">  1       -1 0.19121298E+00 0.71999325E+03</pdfrwt>
<totfact> 0.49403127E+00</totfact>
</mgrwt>
</event>
<event>
 4    1  0.1065596E-007  0.6826485E+03  0.7818608E-02  0.1007864E+00
         -1   -1    0    0    0  501 -0.00000000000E+00  0.00000000000E+00  0.94737394630E+03  0.94737394632E+03  0.50400000000E-02 0.  1.
          1   -1    0    0  501    0  0.00000000000E+00 -0.00000000000E+00 -0.30061051567E+03  0.30061051571E+03  0.50400000000E-02 0. -1.
    8880023    1    1    2    0    0 -0.12005035478E+03 -0.13336657286E+03  0.15120140091E+03  0.69919296360E+03  0.65864270000E+03 0. -1.
    8880022    1    1    2    0    0  0.12005035478E+03  0.13336657286E+03  0.49556202972E+03  0.54879149843E+03  0.15294330000E+03 0.  0.
<mgrwt>
<rscale>  0 0.52332659E+03</rscale>
<asrwt>0</asrwt>
<pdfrwt beam="1">  1        1 0.46247772E-01 0.68264847E+03</pdfrwt>
<pdfrwt beam="2">  1       -1 0.14574984E+00 0.68264847E+03</pdfrwt>
<totfact> 0.33897673E+01</totfact>
</mgrwt>
</event>
<event>
 4    1  0.1065596E-007  0.1345646E+04  0.7818608E-02  0.9027111E-01
         -1   -1    0    0    0  501 -0.00000000000E+00  0.00000000000E+00  0.22124844121E+04  0.22124844122E+04  0.50400000000E-02 0.  1.
          1   -1    0    0  501    0  0.00000000000E+00 -0.00000000000E+00 -0.17699170624E+04  0.17699170624E+04  0.50400000000E-02 0. -1.
    8880023    1    1    2    0    0  0.11662193697E+04  0.12993860452E+03 -0.13032689528E+04  0.18733050549E+04  0.65864270000E+03 0. -1.
    8880022    1    1    2    0    0 -0.11662193697E+04 -0.12993860452E+03  0.17458363025E+04  0.21090964197E+04  0.15294330000E+03 0.  0.
<mgrwt>
<rscale>  0 0.13030987E+04</rscale>
<asrwt>0</asrwt>
<pdfrwt beam="1">  1        1 0.27229493E+00 0.13456455E+04</pdfrwt>
<pdfrwt beam="2">  1       -1 0.34038222E+00 0.13456455E+04</pdfrwt>
<totfact> 0.74168495E-02</totfact>
</mgrwt>
</event>
<event>
 4    1  0.1065596E-007  0.1076630E+04  0.7818608E-02  0.9287533E-01
          1   -1    0    0  501    0  0.00000000000E+00  0.00000000000E+00  0.24479870254E+04  0.24479870254E+04  0.50400000000E-02 0. -1.
         -1   -1    0    0    0  501 -0.00000000000E+00 -0.00000000000E+00 -0.56542517268E+03  0.56542517270E+03  0.50400000000E-02 0.  1.
    8880023    1    1    2    0    0 -0.74645645104E+03  0.41002936730E+03  0.16364797336E+03  0.10889959508E+04  0.65864270000E+03 0.  1.
    8880022    1    1    2    0    0  0.74645645104E+03 -0.41002936730E+03  0.17189138793E+04  0.19244162473E+04  0.15294330000E+03 0.  0.
<mgrwt>
<rscale>  0 0.10193872E+04</rscale>
<asrwt>0</asrwt>
<pdfrwt beam="1">  1        1 0.37661340E+00 0.10766297E+04</pdfrwt>
<pdfrwt beam="2">  1       -1 0.86988486E-01 0.10766297E+04</pdfrwt>
<totfact> 0.19292242E+00</totfact>
</mgrwt>
</event>
<event>
 4    1  0.1065596E-007  0.7390979E+03  0.7818608E-02  0.9862583E-01
          1   -1    0    0  501    0  0.00000000000E+00  0.00000000000E+00  0.81123923715E+03  0.81123923717E+03  0.50400000000E-02 0. -1.
         -1   -1    0    0    0  501 -0.00000000000E+00 -0.00000000000E+00 -0.94971258341E+03  0.94971258343E+03  0.50400000000E-02 0.  1.
    8880023    1    1    2    0    0 -0.29675089413E+03  0.15618726189E+03  0.58923179876E+03  0.94523006347E+03  0.65864270000E+03 0. -1.
    8880022    1    1    2    0    0  0.29675089413E+03 -0.15618726189E+03 -0.72770514503E+03  0.81572175713E+03  0.15294330000E+03 0.  0.
<mgrwt>
<rscale>  0 0.62109471E+03</rscale>
<asrwt>0</asrwt>
<pdfrwt beam="1">  1        1 0.12480604E+00 0.73909794E+03</pdfrwt>
<pdfrwt beam="2">  1       -1 0.14610963E+00 0.73909794E+03</pdfrwt>
<totfact> 0.83674127E+00</totfact>
</mgrwt>
</event>
<event>
 4    1  0.1065596E-007  0.6935340E+03  0.7818608E-02  0.1002516E+00
         -1   -1    0    0    0  501 -0.00000000000E+00  0.00000000000E+00  0.30915512816E+03  0.30915512820E+03  0.50400000000E-02 0.  1.
          1   -1    0    0  501    0  0.00000000000E+00 -0.00000000000E+00 -0.22939396421E+04  0.22939396421E+04  0.50400000000E-02 0. -1.
    8880023    1    1    2    0    0 -0.83269444872E+02  0.20061272392E+03 -0.21707321546E+04  0.22788303049E+04  0.65864270000E+03 0. -1.
    8880022    1    1    2    0    0  0.83269444872E+02 -0.20061272392E+03  0.18594764063E+03  0.32426446540E+03  0.15294330000E+03 0.  0.
<mgrwt>
<rscale>  0 0.54560590E+03</rscale>
<asrwt>0</asrwt>
<pdfrwt beam="1">  1        1 0.35291378E+00 0.69353405E+03</pdfrwt>
<pdfrwt beam="2">  1       -1 0.47562329E-01 0.69353405E+03</pdfrwt>
<totfact> 0.88036781E+00</totfact>
</mgrwt>
</event>
<event>
 4    1  0.1065596E-007  0.1027168E+04  0.7818608E-02  0.9346846E-01
          1   -1    0    0  501    0  0.00000000000E+00  0.00000000000E+00  0.24111070991E+04  0.24111070991E+04  0.50400000000E-02 0. -1.
         -1   -1    0    0    0  501 -0.00000000000E+00 -0.00000000000E+00 -0.77048700532E+03  0.77048700533E+03  0.50400000000E-02 0.  1.
    8880023    1    1    2    0    0 -0.39518121334E+03  0.68197916701E+03  0.20406278772E+04  0.22845647540E+04  0.65864270000E+03 0. -1.
    8880022    1    1    2    0    0  0.39518121334E+03 -0.68197916701E+03 -0.40000778348E+03  0.89702935040E+03  0.15294330000E+03 0.  0.
<mgrwt>
<rscale>  0 0.96582190E+03</rscale>
<asrwt>0</asrwt>
<pdfrwt beam="1">  1        1 0.37093955E+00 0.10271679E+04</pdfrwt>
<pdfrwt beam="2">  1       -1 0.11853646E+00 0.10271679E+04</pdfrwt>
<totfact> 0.10083347E+00</totfact>
</mgrwt>
</event>
<event>
 4    1  0.1065596E-007  0.9977496E+03  0.7818608E-02  0.9384508E-01
         -1   -1    0    0    0  501 -0.00000000000E+00  0.00000000000E+00  0.82013412714E+03  0.82013412716E+03  0.50400000000E-02 0.  1.
          1   -1    0    0  501    0  0.00000000000E+00 -0.00000000000E+00 -0.24101557373E+04  0.24101557373E+04  0.50400000000E-02 0. -1.
    8880023    1    1    2    0    0 -0.34500819215E+03 -0.66532952574E+03 -0.20903627002E+04  0.23162729664E+04  0.65864270000E+03 0.  0.
    8880022    1    1    2    0    0  0.34500819215E+03  0.66532952574E+03  0.50034109004E+03  0.91401689802E+03  0.15294330000E+03 0.  0.
<mgrwt>
<rscale>  0 0.93361668E+03</rscale>
<asrwt>0</asrwt>
<pdfrwt beam="1">  1        1 0.37079319E+00 0.99774959E+03</pdfrwt>
<pdfrwt beam="2">  1       -1 0.12617448E+00 0.99774959E+03</pdfrwt>
<totfact> 0.86946649E-01</totfact>
</mgrwt>
</event>
<event>
 4    1  0.1065596E-007  0.1259107E+04  0.7818608E-02  0.9101703E-01
          1   -1    0    0  501    0  0.00000000000E+00  0.00000000000E+00  0.13720840031E+04  0.13720840031E+04  0.50400000000E-02 0. -1.
         -1   -1    0    0    0  501 -0.00000000000E+00 -0.00000000000E+00 -0.15742117179E+04  0.15742117179E+04  0.50400000000E-02 0.  1.
    8880023    1    1    2    0    0 -0.90372679863E+03 -0.57863477234E+03  0.78205087390E+03  0.14822125698E+04  0.65864270000E+03 0.  0.
    8880022    1    1    2    0    0  0.90372679863E+03  0.57863477234E+03 -0.98417858872E+03  0.14640831513E+04  0.15294330000E+03 0.  0.
<mgrwt>
<rscale>  0 0.12128262E+04</rscale>
<asrwt>0</asrwt>
<pdfrwt beam="1">  1        1 0.21108985E+00 0.12591070E+04</pdfrwt>
<pdfrwt beam="2">  1       -1 0.24218642E+00 0.12591070E+04</pdfrwt>
<totfact> 0.61366532E-01</totfact>
</mgrwt>
</event>
<event>
 4    1  0.1065596E-007  0.6886498E+03  0.7818608E-02  0.1004801E+00
          1   -1    0    0  501    0  0.00000000000E+00  0.00000000000E+00  0.14690739253E+04  0.14690739253E+04  0.50400000000E-02 0. -1.
         -1   -1    0    0    0  501 -0.00000000000E+00 -0.00000000000E+00 -0.27833281586E+03  0.27833281590E+03  0.50400000000E-02 0.  1.
    8880023    1    1    2    0    0 -0.18498227280E+02  0.20021513546E+03  0.13008042152E+04  0.14718458131E+04  0.65864270000E+03 0. -1.
    8880022    1    1    2    0    0  0.18498227280E+02 -0.20021513546E+03 -0.11006310572E+03  0.27556092818E+03  0.15294330000E+03 0.  0.
<mgrwt>
<rscale>  0 0.53594268E+03</rscale>
<asrwt>0</asrwt>
<pdfrwt beam="1">  1        1 0.22601137E+00 0.68864976E+03</pdfrwt>
<pdfrwt beam="2">  1       -1 0.42820433E-01 0.68864976E+03</pdfrwt>
<totfact> 0.38307621E+01</totfact>
</mgrwt>
</event>
<event>
 4    1  0.1065596E-007  0.1675431E+04  0.7818608E-02  0.8794765E-01
         -1   -1    0    0    0  501 -0.00000000000E+00  0.00000000000E+00  0.19994517613E+04  0.19994517613E+04  0.50400000000E-02 0.  1.
          1   -1    0    0  501    0  0.00000000000E+00 -0.00000000000E+00 -0.14387598250E+04  0.14387598250E+04  0.50400000000E-02 0. -1.
    8880023    1    1    2    0    0 -0.85947302708E+03  0.12785011810E+04 -0.24457545496E+03  0.16931882688E+04  0.65864270000E+03 0.  0.
    8880022    1    1    2    0    0  0.85947302708E+03 -0.12785011810E+04  0.80526739130E+03  0.17450233175E+04  0.15294330000E+03 0. -1.
<mgrwt>
<rscale>  0 0.16426518E+04</rscale>
<asrwt>0</asrwt>
<pdfrwt beam="1">  1        1 0.22134767E+00 0.16754311E+04</pdfrwt>
<pdfrwt beam="2">  1       -1 0.30760796E+00 0.16754311E+04</pdfrwt>
<totfact> 0.19742488E-01</totfact>
</mgrwt>
</event>
<event>
 4    1  0.1065596E-007  0.8240838E+03  0.7818608E-02  0.9660955E-01
          1   -1    0    0  501    0  0.00000000000E+00  0.00000000000E+00  0.19774744878E+04  0.19774744878E+04  0.50400000000E-02 0. -1.
         -1   -1    0    0    0  501 -0.00000000000E+00 -0.00000000000E+00 -0.48512439337E+03  0.48512439340E+03  0.50400000000E-02 0.  1.
    8880023    1    1    2    0    0  0.48326168390E+03 -0.10845292812E+03  0.17116962747E+04  0.18997416234E+04  0.65864270000E+03 0. -1.
    8880022    1    1    2    0    0 -0.48326168390E+03  0.10845292812E+03 -0.21934618031E+03  0.56285725773E+03  0.15294330000E+03 0.  0.
<mgrwt>
<rscale>  0 0.73389865E+03</rscale>
<asrwt>0</asrwt>
<pdfrwt beam="1">  1        1 0.30422684E+00 0.82408379E+03</pdfrwt>
<pdfrwt beam="2">  1       -1 0.74634523E-01 0.82408379E+03</pdfrwt>
<totfact> 0.57771169E+00</totfact>
</mgrwt>
</event>
<event>
 4    1  0.1065596E-007  0.6913286E+03  0.7818608E-02  0.1003527E+00
          1   -1    0    0  501    0  0.00000000000E+00  0.00000000000E+00  0.11274335559E+04  0.11274335559E+04  0.50400000000E-02 0. -1.
         -1   -1    0    0    0  501 -0.00000000000E+00 -0.00000000000E+00 -0.21270703099E+03  0.21270703105E+03  0.50400000000E-02 0.  1.
    8880023    1    1    2    0    0 -0.60509750506E+02 -0.20115576835E+03  0.79646996209E+03  0.10546561903E+04  0.65864270000E+03 0. -1.
    8880022    1    1    2    0    0  0.60509750506E+02  0.20115576835E+03  0.11825656280E+03  0.28548439661E+03  0.15294330000E+03 0.  0.
<mgrwt>
<rscale>  0 0.54130225E+03</rscale>
<asrwt>0</asrwt>
<pdfrwt beam="1">  1        1 0.17345132E+00 0.69132863E+03</pdfrwt>
<pdfrwt beam="2">  1       -1 0.32724158E-01 0.69132863E+03</pdfrwt>
<totfact> 0.10836293E+02</totfact>
</mgrwt>
</event>
<event>
 4    1  0.1065596E-007  0.8182700E+03  0.7818608E-02  0.9672601E-01
         -1   -1    0    0    0  501 -0.00000000000E+00  0.00000000000E+00  0.65070497785E+03  0.65070497787E+03  0.50400000000E-02 0.  1.
          1   -1    0    0  501    0  0.00000000000E+00 -0.00000000000E+00 -0.75412030144E+03  0.75412030145E+03  0.50400000000E-02 0. -1.
    8880023    1    1    2    0    0 -0.33624192982E+03 -0.35028121993E+03  0.15672441118E+03  0.83314363451E+03  0.65864270000E+03 0.  0.
    8880022    1    1    2    0    0  0.33624192982E+03  0.35028121993E+03 -0.26013973476E+03  0.57168164482E+03  0.15294330000E+03 0.  0.
<mgrwt>
<rscale>  0 0.72671778E+03</rscale>
<asrwt>0</asrwt>
<pdfrwt beam="1">  1        1 0.11601851E+00 0.81826999E+03</pdfrwt>
<pdfrwt beam="2">  1       -1 0.10010846E+00 0.81826999E+03</pdfrwt>
<totfact> 0.23527687E+01</totfact>
</mgrwt>
</event>
<event>
 4    1  0.1065596E-007  0.1303371E+04  0.7818608E-02  0.9062654E-01
         -1   -1    0    0    0  501 -0.00000000000E+00  0.00000000000E+00  0.98326902209E+03  0.98326902211E+03  0.50400000000E-02 0.  1.
          1   -1    0    0  501    0  0.00000000000E+00 -0.00000000000E+00 -0.19566286836E+04  0.19566286836E+04  0.50400000000E-02 0. -1.
    8880023    1    1    2    0    0 -0.11187656787E+04  0.11545047623E+03 -0.12122428974E+04  0.17799742989E+04  0.65864270000E+03 0.  0.
    8880022    1    1    2    0    0  0.11187656787E+04 -0.11545047623E+03  0.23888323582E+03  0.11599234068E+04  0.15294330000E+03 0. -1.
<mgrwt>
<rscale>  0 0.12590864E+04</rscale>
<asrwt>0</asrwt>
<pdfrwt beam="1">  1        1 0.30101980E+00 0.13033709E+04</pdfrwt>
<pdfrwt beam="2">  1       -1 0.15127216E+00 0.13033709E+04</pdfrwt>
<totfact> 0.10551385E+00</totfact>
</mgrwt>
</event>
<event>
 4    1  0.1065596E-007  0.6666567E+03  0.7818608E-02  0.1018182E+00
          1   -1    0    0  501    0  0.00000000000E+00  0.00000000000E+00  0.88905423593E+03  0.88905423595E+03  0.50400000000E-02 0. -1.
         -1   -1    0    0    0  501 -0.00000000000E+00 -0.00000000000E+00 -0.24316216990E+03  0.24316216996E+03  0.50400000000E-02 0.  1.
    8880023    1    1    2    0    0  0.92994788921E+02 -0.44417678751E+02  0.67125907329E+03  0.94605491949E+03  0.65864270000E+03 0. -1.
    8880022    1    1    2    0    0 -0.92994788921E+02  0.44417678751E+02 -0.25367007258E+02  0.18616148642E+03  0.15294330000E+03 0.  1.
<mgrwt>
<rscale>  0 0.48348354E+03</rscale>
<asrwt>0</asrwt>
<pdfrwt beam="1">  1        1 0.13677757E+00 0.66665671E+03</pdfrwt>
<pdfrwt beam="2">  1       -1 0.37409565E-01 0.66665671E+03</pdfrwt>
<totfact> 0.13080783E+02</totfact>
</mgrwt>
</event>
<event>
 4    1  0.1065596E-007  0.7831318E+03  0.7818608E-02  0.9748531E-01
          1   -1    0    0  501    0  0.00000000000E+00  0.00000000000E+00  0.17962465055E+04  0.17962465055E+04  0.50400000000E-02 0. -1.
         -1   -1    0    0    0  501 -0.00000000000E+00 -0.00000000000E+00 -0.79076026994E+03  0.79076026995E+03  0.50400000000E-02 0.  1.
    8880023    1    1    2    0    0  0.41830655060E+03 -0.67118272987E+02  0.16350427601E+04  0.18129148536E+04  0.65864270000E+03 0. -1.
    8880022    1    1    2    0    0 -0.41830655060E+03  0.67118272987E+02 -0.62955652455E+03  0.77409192184E+03  0.15294330000E+03 0.  0.
<mgrwt>
<rscale>  0 0.68199348E+03</rscale>
<asrwt>0</asrwt>
<pdfrwt beam="1">  1        1 0.27634561E+00 0.78313181E+03</pdfrwt>
<pdfrwt beam="2">  1       -1 0.12165543E+00 0.78313181E+03</pdfrwt>
<totfact> 0.25595572E+00</totfact>
</mgrwt>
</event>
<event>
 4    1  0.1065596E-007  0.7465302E+03  0.7818608E-02  0.9841318E-01
         -1   -1    0    0    0  501 -0.00000000000E+00  0.00000000000E+00  0.76017956493E+03  0.76017956495E+03  0.50400000000E-02 0.  1.
          1   -1    0    0  501    0  0.00000000000E+00 -0.00000000000E+00 -0.17602076828E+04  0.17602076828E+04  0.50400000000E-02 0. -1.
    8880023    1    1    2    0    0  0.96171744260E+02 -0.33800612659E+03 -0.16244216619E+04  0.17877508462E+04  0.65864270000E+03 0. -1.
    8880022    1    1    2    0    0 -0.96171744260E+02  0.33800612659E+03  0.62439354407E+03  0.73263640157E+03  0.15294330000E+03 0.  0.
<mgrwt>
<rscale>  0 0.63191567E+03</rscale>
<asrwt>0</asrwt>
<pdfrwt beam="1">  1        1 0.27080118E+00 0.74653021E+03</pdfrwt>
<pdfrwt beam="2">  1       -1 0.11695070E+00 0.74653021E+03</pdfrwt>
<totfact> 0.29984793E+00</totfact>
</mgrwt>
</event>
<event>
 4    1  0.1065596E-007  0.1456103E+04  0.7818608E-02  0.8941272E-01
         -1   -1    0    0    0  501 -0.00000000000E+00  0.00000000000E+00  0.96499576373E+03  0.96499576374E+03  0.50400000000E-02 0.  1.
          1   -1    0    0  501    0  0.00000000000E+00 -0.00000000000E+00 -0.21164712135E+04  0.21164712135E+04  0.50400000000E-02 0. -1.
    8880023    1    1    2    0    0  0.12874555452E+04 -0.16994933249E+03 -0.21220543543E+03  0.14714842539E+04  0.65864270000E+03 0.  1.
    8880022    1    1    2    0    0 -0.12874555452E+04  0.16994933249E+03 -0.93927001436E+03  0.16099827233E+04  0.15294330000E+03 0.  0.
<mgrwt>
<rscale>  0 0.14174660E+04</rscale>
<asrwt>0</asrwt>
<pdfrwt beam="1">  1        1 0.32561095E+00 0.14561026E+04</pdfrwt>
<pdfrwt beam="2">  1       -1 0.14846089E+00 0.14561026E+04</pdfrwt>
<totfact> 0.85020564E-01</totfact>
</mgrwt>
</event>
<event>
 4    1  0.1065596E-007  0.1083910E+04  0.7818608E-02  0.9279185E-01
          1   -1    0    0  501    0  0.00000000000E+00  0.00000000000E+00  0.20682832041E+04  0.20682832042E+04  0.50400000000E-02 0. -1.
         -1   -1    0    0    0  501 -0.00000000000E+00 -0.00000000000E+00 -0.13394538050E+04  0.13394538051E+04  0.50400000000E-02 0.  1.
    8880023    1    1    2    0    0 -0.41016929239E+03  0.75684380778E+03  0.17530540066E+04  0.20610822289E+04  0.65864270000E+03 0.  0.
    8880022    1    1    2    0    0  0.41016929239E+03 -0.75684380778E+03 -0.10242246075E+04  0.13466547803E+04  0.15294330000E+03 0.  0.
<mgrwt>
<rscale>  0 0.10272193E+04</rscale>
<asrwt>0</asrwt>
<pdfrwt beam="1">  1        1 0.31819742E+00 0.10839103E+04</pdfrwt>
<pdfrwt beam="2">  1       -1 0.20606982E+00 0.10839103E+04</pdfrwt>
<totfact> 0.36609126E-01</totfact>
</mgrwt>
</event>
<event>
 4    1  0.1065596E-007  0.8732787E+03  0.7818608E-02  0.9570366E-01
          1   -1    0    0  501    0  0.00000000000E+00  0.00000000000E+00  0.88018743769E+03  0.88018743771E+03  0.50400000000E-02 0. -1.
         -1   -1    0    0    0  501 -0.00000000000E+00 -0.00000000000E+00 -0.66056276270E+03  0.66056276272E+03  0.50400000000E-02 0.  1.
    8880023    1    1    2    0    0  0.55628893852E+03 -0.13909740206E+03  0.33653909930E+03  0.93588153203E+03  0.65864270000E+03 0. -1.
    8880022    1    1    2    0    0 -0.55628893852E+03  0.13909740206E+03 -0.11691442431E+03  0.60486866839E+03  0.15294330000E+03 0.  1.
<mgrwt>
<rscale>  0 0.79288988E+03</rscale>
<asrwt>0</asrwt>
<pdfrwt beam="1">  1        1 0.13541345E+00 0.87327869E+03</pdfrwt>
<pdfrwt beam="2">  1       -1 0.10162504E+00 0.87327869E+03</pdfrwt>
<totfact> 0.17608018E+01</totfact>
</mgrwt>
</event>
<event>
 4    1  0.1065596E-007  0.7153234E+03  0.7818608E-02  0.9938740E-01
         -1   -1    0    0    0  501 -0.00000000000E+00  0.00000000000E+00  0.11759488570E+04  0.11759488570E+04  0.50400000000E-02 0.  1.
          1   -1    0    0  501    0  0.00000000000E+00 -0.00000000000E+00 -0.11610877934E+04  0.11610877934E+04  0.50400000000E-02 0. -1.
    8880023    1    1    2    0    0  0.16747469428E+03 -0.22322545202E+03 -0.10248010687E+04  0.12497619023E+04  0.65864270000E+03 0. -1.
    8880022    1    1    2    0    0 -0.16747469428E+03  0.22322545202E+03  0.10396621323E+04  0.10872747482E+04  0.15294330000E+03 0.  0.
<mgrwt>
<rscale>  0 0.58419981E+03</rscale>
<asrwt>0</asrwt>
<pdfrwt beam="1">  1        1 0.17862889E+00 0.71532341E+03</pdfrwt>
<pdfrwt beam="2">  1       -1 0.18091521E+00 0.71532341E+03</pdfrwt>
<totfact> 0.24554713E+00</totfact>
</mgrwt>
</event>
<event>
 4    1  0.1065596E-007  0.1270268E+04  0.7818608E-02  0.9091670E-01
          1   -1    0    0  501    0  0.00000000000E+00  0.00000000000E+00  0.23044772110E+04  0.23044772110E+04  0.50400000000E-02 0. -1.
         -1   -1    0    0    0  501 -0.00000000000E+00 -0.00000000000E+00 -0.66753197638E+03  0.66753197640E+03  0.50400000000E-02 0.  1.
    8880023    1    1    2    0    0 -0.58546058258E+03  0.91488018140E+03  0.13161802454E+04  0.18291830102E+04  0.65864270000E+03 0.  0.
    8880022    1    1    2    0    0  0.58546058258E+03 -0.91488018140E+03  0.32076498924E+03  0.11428261773E+04  0.15294330000E+03 0.  0.
<mgrwt>
<rscale>  0 0.12245089E+04</rscale>
<asrwt>0</asrwt>
<pdfrwt beam="1">  1        1 0.35453495E+00 0.12702677E+04</pdfrwt>
<pdfrwt beam="2">  1       -1 0.10269723E+00 0.12702677E+04</pdfrwt>
<totfact> 0.16231402E+00</totfact>
</mgrwt>
</event>
<event>
 4    1  0.1065596E-007  0.1273813E+04  0.7818608E-02  0.9088511E-01
         -1   -1    0    0    0  501 -0.00000000000E+00  0.00000000000E+00  0.14043447142E+04  0.14043447142E+04  0.50400000000E-02 0.  1.
          1   -1    0    0  501    0  0.00000000000E+00 -0.00000000000E+00 -0.10637947699E+04  0.10637947700E+04  0.50400000000E-02 0. -1.
    8880023    1    1    2    0    0 -0.62472315085E+03  0.89359360270E+03 -0.10994541800E+03  0.12785486863E+04  0.65864270000E+03 0.  0.
    8880022    1    1    2    0    0  0.62472315085E+03 -0.89359360270E+03  0.45049536227E+03  0.11895907979E+04  0.15294330000E+03 0.  0.
<mgrwt>
<rscale>  0 0.12282169E+04</rscale>
<asrwt>0</asrwt>
<pdfrwt beam="1">  1        1 0.16366073E+00 0.12738127E+04</pdfrwt>
<pdfrwt beam="2">  1       -1 0.21605303E+00 0.12738127E+04</pdfrwt>
<totfact> 0.15372639E+00</totfact>
</mgrwt>
</event>
<event>
 4    1  0.1065596E-007  0.8756680E+03  0.7818608E-02  0.9566279E-01
         -1   -1    0    0    0  501 -0.00000000000E+00  0.00000000000E+00  0.19337767381E+03  0.19337767387E+03  0.50400000000E-02 0.  1.
          1   -1    0    0  501    0  0.00000000000E+00 -0.00000000000E+00 -0.33742540405E+04  0.33742540405E+04  0.50400000000E-02 0. -1.
    8880023    1    1    2    0    0  0.35392210724E+03 -0.45576680357E+03 -0.25630677482E+04  0.27085255630E+04  0.65864270000E+03 0.  0.
    8880022    1    1    2    0    0 -0.35392210724E+03  0.45576680357E+03 -0.61780861842E+03  0.85910615132E+03  0.15294330000E+03 0.  0.
<mgrwt>
<rscale>  0 0.79568862E+03</rscale>
<asrwt>0</asrwt>
<pdfrwt beam="1">  1        1 0.51911596E+00 0.87566800E+03</pdfrwt>
<pdfrwt beam="2">  1       -1 0.29750414E-01 0.87566800E+03</pdfrwt>
<totfact> 0.34187400E+00</totfact>
</mgrwt>
</event>
<event>
 4    1  0.1065596E-007  0.1012778E+04  0.7818608E-02  0.9365028E-01
         -1   -1    0    0    0  501 -0.00000000000E+00  0.00000000000E+00  0.87671632759E+03  0.87671632760E+03  0.50400000000E-02 0.  1.
          1   -1    0    0  501    0  0.00000000000E+00 -0.00000000000E+00 -0.24614411644E+04  0.24614411644E+04  0.50400000000E-02 0. -1.
    8880023    1    1    2    0    0 -0.69921568885E+03  0.32094596413E+03 -0.21464311936E+04  0.23733701706E+04  0.65864270000E+03 0.  0.
    8880022    1    1    2    0    0  0.69921568885E+03 -0.32094596413E+03  0.56170635676E+03  0.96478732147E+03  0.15294330000E+03 0.  0.
<mgrwt>
<rscale>  0 0.95010494E+03</rscale>
<asrwt>0</asrwt>
<pdfrwt beam="1">  1        1 0.37868325E+00 0.10127779E+04</pdfrwt>
<pdfrwt beam="2">  1       -1 0.13487944E+00 0.10127779E+04</pdfrwt>
<totfact> 0.67556055E-01</totfact>
</mgrwt>
</event>
<event>
 4    1  0.1065596E-007  0.1213614E+04  0.7818608E-02  0.9144001E-01
         -1   -1    0    0    0  501 -0.00000000000E+00  0.00000000000E+00  0.13583749945E+04  0.13583749945E+04  0.50400000000E-02 0.  1.
          1   -1    0    0  501    0  0.00000000000E+00 -0.00000000000E+00 -0.13665169606E+04  0.13665169607E+04  0.50400000000E-02 0. -1.
    8880023    1    1    2    0    0 -0.60695278838E+03 -0.81893618351E+03 -0.77518523697E+03  0.14400592064E+04  0.65864270000E+03 0. -1.
    8880022    1    1    2    0    0  0.60695278838E+03  0.81893618351E+03  0.76704327078E+03  0.12848327487E+04  0.15294330000E+03 0.  0.
<mgrwt>
<rscale>  0 0.11650603E+04</rscale>
<asrwt>0</asrwt>
<pdfrwt beam="1">  1        1 0.21023338E+00 0.12136138E+04</pdfrwt>
<pdfrwt beam="2">  1       -1 0.20898077E+00 0.12136138E+04</pdfrwt>
<totfact> 0.10366004E+00</totfact>
</mgrwt>
</event>
<event>
 4    1  0.1065596E-007  0.6873799E+03  0.7818608E-02  0.1005424E+00
         -1   -1    0    0    0  501 -0.00000000000E+00  0.00000000000E+00  0.14439117556E+03  0.14439117565E+03  0.50400000000E-02 0.  1.
          1   -1    0    0  501    0  0.00000000000E+00 -0.00000000000E+00 -0.15572090733E+04  0.15572090733E+04  0.50400000000E-02 0. -1.
    8880023    1    1    2    0    0 -0.17181294721E+03  0.95714301291E+02 -0.11476064575E+04  0.13377188434E+04  0.65864270000E+03 0.  0.
    8880022    1    1    2    0    0  0.17181294721E+03 -0.95714301291E+02 -0.26521144023E+03  0.36388140560E+03  0.15294330000E+03 0.  1.
<mgrwt>
<rscale>  0 0.53334728E+03</rscale>
<asrwt>0</asrwt>
<pdfrwt beam="1">  1        1 0.23957062E+00 0.68737990E+03</pdfrwt>
<pdfrwt beam="2">  1       -1 0.22214028E-01 0.68737990E+03</pdfrwt>
<totfact> 0.10527502E+02</totfact>
</mgrwt>
</event>
<event>
 4    1  0.1065596E-007  0.1535261E+04  0.7818608E-02  0.8885130E-01
         -1   -1    0    0    0  501 -0.00000000000E+00  0.00000000000E+00  0.21235331567E+04  0.21235331568E+04  0.50400000000E-02 0.  1.
          1   -1    0    0  501    0  0.00000000000E+00 -0.00000000000E+00 -0.12166960976E+04  0.12166960976E+04  0.50400000000E-02 0. -1.
    8880023    1    1    2    0    0  0.94809258744E+03 -0.10120957498E+04  0.11574570261E+04  0.19226893495E+04  0.65864270000E+03 0.  0.
    8880022    1    1    2    0    0 -0.94809258744E+03  0.10120957498E+04 -0.25061996698E+03  0.14175399049E+04  0.15294330000E+03 0.  0.
<mgrwt>
<rscale>  0 0.14989826E+04</rscale>
<asrwt>0</asrwt>
<pdfrwt beam="1">  1        1 0.18718402E+00 0.15352614E+04</pdfrwt>
<pdfrwt beam="2">  1       -1 0.32669741E+00 0.15352614E+04</pdfrwt>
<totfact> 0.21726907E-01</totfact>
</mgrwt>
</event>
<event>
 4    1  0.1065596E-007  0.9519710E+03  0.7818608E-02  0.9447284E-01
         -1   -1    0    0    0  501 -0.00000000000E+00  0.00000000000E+00  0.35074063805E+03  0.35074063808E+03  0.50400000000E-02 0.  1.
          1   -1    0    0  501    0  0.00000000000E+00 -0.00000000000E+00 -0.37203894369E+04  0.37203894369E+04  0.50400000000E-02 0. -1.
    8880023    1    1    2    0    0  0.32278062313E+03 -0.60683708263E+03 -0.32112467412E+04  0.33493811987E+04  0.65864270000E+03 0.  0.
    8880022    1    1    2    0    0 -0.32278062313E+03  0.60683708263E+03 -0.15840205773E+03  0.72174887629E+03  0.15294330000E+03 0.  0.
<mgrwt>
<rscale>  0 0.88284490E+03</rscale>
<asrwt>0</asrwt>
<pdfrwt beam="1">  1        1 0.57236758E+00 0.95197100E+03</pdfrwt>
<pdfrwt beam="2">  1       -1 0.53960101E-01 0.95197100E+03</pdfrwt>
<totfact> 0.60711723E-01</totfact>
</mgrwt>
</event>
<event>
 4    1  0.1065596E-007  0.1182399E+04  0.7818608E-02  0.9174425E-01
         -1   -1    0    0    0  501 -0.00000000000E+00  0.00000000000E+00  0.59549189697E+03  0.59549189699E+03  0.50400000000E-02 0.  1.
          1   -1    0    0  501    0  0.00000000000E+00 -0.00000000000E+00 -0.29614266452E+04  0.29614266452E+04  0.50400000000E-02 0. -1.
    8880023    1    1    2    0    0 -0.30218855555E+03 -0.93431180668E+03 -0.22687449662E+04  0.25583726084E+04  0.65864270000E+03 0.  0.
    8880022    1    1    2    0    0  0.30218855555E+03  0.93431180668E+03 -0.97189782005E+02  0.99854593382E+03  0.15294330000E+03 0.  0.
<mgrwt>
<rscale>  0 0.11321351E+04</rscale>
<asrwt>0</asrwt>
<pdfrwt beam="1">  1        1 0.45560409E+00 0.11823987E+04</pdfrwt>
<pdfrwt beam="2">  1       -1 0.91614140E-01 0.11823987E+04</pdfrwt>
<totfact> 0.73967577E-01</totfact>
</mgrwt>
</event>
<event>
 4    1  0.1065596E-007  0.1037888E+04  0.7818608E-02  0.9333586E-01
         -1   -1    0    0    0  501 -0.00000000000E+00  0.00000000000E+00  0.18694736440E+04  0.18694736440E+04  0.50400000000E-02 0.  1.
          1   -1    0    0  501    0  0.00000000000E+00 -0.00000000000E+00 -0.20532856650E+04  0.20532856651E+04  0.50400000000E-02 0. -1.
    8880023    1    1    2    0    0  0.60652041069E+03  0.52491314889E+03 -0.18194244561E+04  0.20946399166E+04  0.65864270000E+03 0.  0.
    8880022    1    1    2    0    0 -0.60652041069E+03 -0.52491314889E+03  0.16356124350E+04  0.18281193925E+04  0.15294330000E+03 0.  0.
<mgrwt>
<rscale>  0 0.97748845E+03</rscale>
<asrwt>0</asrwt>
<pdfrwt beam="1">  1        1 0.31589010E+00 0.10378878E+04</pdfrwt>
<pdfrwt beam="2">  1       -1 0.28761133E+00 0.10378878E+04</pdfrwt>
<totfact> 0.11047208E-01</totfact>
</mgrwt>
</event>
<event>
 4    1  0.1065596E-007  0.8801194E+03  0.7818608E-02  0.9558731E-01
          1   -1    0    0  501    0  0.00000000000E+00  0.00000000000E+00  0.17732550888E+04  0.17732550888E+04  0.50400000000E-02 0. -1.
         -1   -1    0    0    0  501 -0.00000000000E+00 -0.00000000000E+00 -0.43308783052E+03  0.43308783055E+03  0.50400000000E-02 0.  1.
    8880023    1    1    2    0    0 -0.30759073716E+03 -0.49617319238E+03  0.13396079514E+04  0.16028598092E+04  0.65864270000E+03 0.  0.
    8880022    1    1    2    0    0  0.30759073716E+03  0.49617319238E+03  0.55930695496E+00  0.60348311017E+03  0.15294330000E+03 0.  0.
<mgrwt>
<rscale>  0 0.80088916E+03</rscale>
<asrwt>0</asrwt>
<pdfrwt beam="1">  1        1 0.27280847E+00 0.88011937E+03</pdfrwt>
<pdfrwt beam="2">  1       -1 0.66628897E-01 0.88011937E+03</pdfrwt>
<totfact> 0.99225324E+00</totfact>
</mgrwt>
</event>
<event>
 4    1  0.1065596E-007  0.7866646E+03  0.7818608E-02  0.9740408E-01
          1   -1    0    0  501    0  0.00000000000E+00  0.00000000000E+00  0.54399623118E+03  0.54399623121E+03  0.50400000000E-02 0. -1.
         -1   -1    0    0    0  501 -0.00000000000E+00 -0.00000000000E+00 -0.13483737791E+04  0.13483737791E+04  0.50400000000E-02 0.  1.
    8880023    1    1    2    0    0  0.23584035619E+03 -0.35973645615E+03  0.18025137622E+03  0.80705127246E+03  0.65864270000E+03 0. -1.
    8880022    1    1    2    0    0 -0.23584035619E+03  0.35973645615E+03 -0.98462892414E+03  0.10853187379E+04  0.15294330000E+03 0.  0.
<mgrwt>
<rscale>  0 0.68661031E+03</rscale>
<asrwt>0</asrwt>
<pdfrwt beam="1">  1        1 0.83691728E-01 0.78666460E+03</pdfrwt>
<pdfrwt beam="2">  1       -1 0.20744212E+00 0.78666460E+03</pdfrwt>
<totfact> 0.54335861E+00</totfact>
</mgrwt>
</event>
<event>
 4    1  0.1065596E-007  0.1357118E+04  0.7818608E-02  0.9017740E-01
          1   -1    0    0  501    0  0.00000000000E+00  0.00000000000E+00  0.16026203193E+04  0.16026203193E+04  0.50400000000E-02 0. -1.
         -1   -1    0    0    0  501 -0.00000000000E+00 -0.00000000000E+00 -0.12795949773E+04  0.12795949773E+04  0.50400000000E-02 0.  1.
    8880023    1    1    2    0    0  0.11790145709E+04 -0.13372923983E+03 -0.48202907000E+03  0.14401809256E+04  0.65864270000E+03 0.  0.
    8880022    1    1    2    0    0 -0.11790145709E+04  0.13372923983E+03  0.80505441199E+03  0.14420343710E+04  0.15294330000E+03 0.  0.
<mgrwt>
<rscale>  0 0.13150172E+04</rscale>
<asrwt>0</asrwt>
<pdfrwt beam="1">  1        1 0.24655697E+00 0.13571179E+04</pdfrwt>
<pdfrwt beam="2">  1       -1 0.19686076E+00 0.13571179E+04</pdfrwt>
<totfact> 0.84570488E-01</totfact>
</mgrwt>
</event>
<event>
 4    1  0.1065596E-007  0.1556936E+04  0.7818608E-02  0.8870444E-01
          1   -1    0    0  501    0  0.00000000000E+00  0.00000000000E+00  0.24485760637E+04  0.24485760637E+04  0.50400000000E-02 0. -1.
         -1   -1    0    0    0  501 -0.00000000000E+00 -0.00000000000E+00 -0.12689362640E+04  0.12689362640E+04  0.50400000000E-02 0.  1.
    8880023    1    1    2    0    0 -0.14071111257E+04 -0.10138078367E+03  0.16050218126E+04  0.22361004021E+04  0.65864270000E+03 0.  0.
    8880022    1    1    2    0    0  0.14071111257E+04  0.10138078367E+03 -0.42538201287E+03  0.14814119256E+04  0.15294330000E+03 0.  0.
<mgrwt>
<rscale>  0 0.15212500E+04</rscale>
<asrwt>0</asrwt>
<pdfrwt beam="1">  1        1 0.37670401E+00 0.15569361E+04</pdfrwt>
<pdfrwt beam="2">  1       -1 0.19522096E+00 0.15569361E+04</pdfrwt>
<totfact> 0.22440444E-01</totfact>
</mgrwt>
</event>
<event>
 4    1  0.1065596E-007  0.8973683E+03  0.7818608E-02  0.9530270E-01
          1   -1    0    0  501    0  0.00000000000E+00  0.00000000000E+00  0.17068298311E+04  0.17068298311E+04  0.50400000000E-02 0. -1.
         -1   -1    0    0    0  501 -0.00000000000E+00 -0.00000000000E+00 -0.12691973113E+04  0.12691973113E+04  0.50400000000E-02 0.  1.
    8880023    1    1    2    0    0  0.60905052487E+03 -0.22739099900E+02  0.14963930357E+04  0.17448386550E+04  0.65864270000E+03 0. -1.
    8880022    1    1    2    0    0 -0.60905052487E+03  0.22739099900E+02 -0.10587605158E+04  0.12311884874E+04  0.15294330000E+03 0.  0.
<mgrwt>
<rscale>  0 0.82088482E+03</rscale>
<asrwt>0</asrwt>
<pdfrwt beam="1">  1        1 0.26258920E+00 0.89736827E+03</pdfrwt>
<pdfrwt beam="2">  1       -1 0.19526113E+00 0.89736827E+03</pdfrwt>
<totfact> 0.78577566E-01</totfact>
</mgrwt>
</event>
<event>
 4    1  0.1065596E-007  0.1175875E+04  0.7818608E-02  0.9180938E-01
         -1   -1    0    0    0  501 -0.00000000000E+00  0.00000000000E+00  0.17808985578E+04  0.17808985578E+04  0.50400000000E-02 0.  1.
          1   -1    0    0  501    0  0.00000000000E+00 -0.00000000000E+00 -0.81928201663E+03  0.81928201665E+03  0.50400000000E-02 0. -1.
    8880023    1    1    2    0    0  0.72006875580E+03  0.65602716823E+03  0.10930319273E+04  0.16054281856E+04  0.65864270000E+03 0.  1.
    8880022    1    1    2    0    0 -0.72006875580E+03 -0.65602716823E+03 -0.13141538614E+03  0.99475238892E+03  0.15294330000E+03 0.  0.
<mgrwt>
<rscale>  0 0.11252361E+04</rscale>
<asrwt>0</asrwt>
<pdfrwt beam="1">  1        1 0.12604339E+00 0.11758745E+04</pdfrwt>
<pdfrwt beam="2">  1       -1 0.27398439E+00 0.11758745E+04</pdfrwt>
<totfact> 0.10230741E+00</totfact>
</mgrwt>
</event>
<event>
 4    1  0.1065596E-007  0.9058834E+03  0.7818608E-02  0.9516652E-01
         -1   -1    0    0    0  501 -0.00000000000E+00  0.00000000000E+00  0.17712126527E+04  0.17712126528E+04  0.50400000000E-02 0.  1.
          1   -1    0    0  501    0  0.00000000000E+00 -0.00000000000E+00 -0.13446597968E+04  0.13446597968E+04  0.50400000000E-02 0. -1.
    8880023    1    1    2    0    0 -0.92783637810E+02 -0.61498430639E+03 -0.11208525990E+04  0.14411576095E+04  0.65864270000E+03 0. -1.
    8880022    1    1    2    0    0  0.92783637810E+02  0.61498430639E+03  0.15474054549E+04  0.16747148401E+04  0.15294330000E+03 0.  0.
<mgrwt>
<rscale>  0 0.83067185E+03</rscale>
<asrwt>0</asrwt>
<pdfrwt beam="1">  1        1 0.20687074E+00 0.90588338E+03</pdfrwt>
<pdfrwt beam="2">  1       -1 0.27249425E+00 0.90588338E+03</pdfrwt>
<totfact> 0.43076095E-01</totfact>
</mgrwt>
</event>
<event>
 4    1  0.1065596E-007  0.9081853E+03  0.7818608E-02  0.9513017E-01
         -1   -1    0    0    0  501 -0.00000000000E+00  0.00000000000E+00  0.25162378234E+03  0.25162378239E+03  0.50400000000E-02 0.  1.
          1   -1    0    0  501    0  0.00000000000E+00 -0.00000000000E+00 -0.28374414097E+04  0.28374414097E+04  0.50400000000E-02 0. -1.
    8880023    1    1    2    0    0  0.26898775525E+03 -0.56447842073E+03 -0.87488473667E+03  0.12610407641E+04  0.65864270000E+03 0.  0.
    8880022    1    1    2    0    0 -0.26898775525E+03  0.56447842073E+03 -0.17109328907E+04  0.18280244281E+04  0.15294330000E+03 0.  0.
<mgrwt>
<rscale>  0 0.83330876E+03</rscale>
<asrwt>0</asrwt>
<pdfrwt beam="1">  1        1 0.43652942E+00 0.90818528E+03</pdfrwt>
<pdfrwt beam="2">  1       -1 0.38711353E-01 0.90818528E+03</pdfrwt>
<totfact> 0.52541821E+00</totfact>
</mgrwt>
</event>
<event>
 4    1  0.1065596E-007  0.7365147E+03  0.7818608E-02  0.9870218E-01
          1   -1    0    0  501    0  0.00000000000E+00  0.00000000000E+00  0.64177614749E+03  0.64177614751E+03  0.50400000000E-02 0. -1.
         -1   -1    0    0    0  501 -0.00000000000E+00 -0.00000000000E+00 -0.87059228254E+03  0.87059228255E+03  0.50400000000E-02 0.  1.
    8880023    1    1    2    0    0 -0.14520021089E+02 -0.32929156260E+03  0.36051852485E+03  0.82001681521E+03  0.65864270000E+03 0. -1.
    8880022    1    1    2    0    0  0.14520021089E+02  0.32929156260E+03 -0.58933465990E+03  0.69235161485E+03  0.15294330000E+03 0.  0.
<mgrwt>
<rscale>  0 0.61726605E+03</rscale>
<asrwt>0</asrwt>
<pdfrwt beam="1">  1        1 0.98734791E-01 0.73651475E+03</pdfrwt>
<pdfrwt beam="2">  1       -1 0.13393728E+00 0.73651475E+03</pdfrwt>
<totfact> 0.15023803E+01</totfact>
</mgrwt>
</event>
<event>
 4    1  0.1065596E-007  0.6920817E+03  0.7818608E-02  0.1003178E+00
          1   -1    0    0  501    0  0.00000000000E+00  0.00000000000E+00  0.19464472313E+04  0.19464472313E+04  0.50400000000E-02 0. -1.
         -1   -1    0    0    0  501 -0.00000000000E+00 -0.00000000000E+00 -0.73083562543E+03  0.73083562544E+03  0.50400000000E-02 0.  1.
    8880023    1    1    2    0    0 -0.10301265238E+03  0.18589044239E+03  0.18584675378E+04  0.19831486728E+04  0.65864270000E+03 0. -1.
    8880022    1    1    2    0    0  0.10301265238E+03 -0.18589044239E+03 -0.64285593192E+03  0.69413418396E+03  0.15294330000E+03 0.  0.
<mgrwt>
<rscale>  0 0.54278233E+03</rscale>
<asrwt>0</asrwt>
<pdfrwt beam="1">  1        1 0.29945341E+00 0.69208169E+03</pdfrwt>
<pdfrwt beam="2">  1       -1 0.11243625E+00 0.69208169E+03</pdfrwt>
<totfact> 0.24995070E+00</totfact>
</mgrwt>
</event>
<event>
 4    1  0.1065596E-007  0.7553994E+03  0.7818608E-02  0.9817167E-01
         -1   -1    0    0    0  501 -0.00000000000E+00  0.00000000000E+00  0.46951044629E+03  0.46951044632E+03  0.50400000000E-02 0.  1.
          1   -1    0    0  501    0  0.00000000000E+00 -0.00000000000E+00 -0.30048046783E+04  0.30048046783E+04  0.50400000000E-02 0. -1.
    8880023    1    1    2    0    0  0.35868553004E+03 -0.90347784460E+02 -0.28605199775E+04  0.29585812105E+04  0.65864270000E+03 0. -1.
    8880022    1    1    2    0    0 -0.35868553004E+03  0.90347784460E+02  0.32522574546E+03  0.51573391409E+03  0.15294330000E+03 0.  0.
<mgrwt>
<rscale>  0 0.64449354E+03</rscale>
<asrwt>0</asrwt>
<pdfrwt beam="1">  1        1 0.46227763E+00 0.75539939E+03</pdfrwt>
<pdfrwt beam="2">  1       -1 0.72232378E-01 0.75539939E+03</pdfrwt>
<totfact> 0.12341914E+00</totfact>
</mgrwt>
</event>
<event>
 4    1  0.1065596E-007  0.1098291E+04  0.7818608E-02  0.9262961E-01
          1   -1    0    0  501    0  0.00000000000E+00  0.00000000000E+00  0.30709252504E+04  0.30709252504E+04  0.50400000000E-02 0. -1.
         -1   -1    0    0    0  501 -0.00000000000E+00 -0.00000000000E+00 -0.36329690567E+03  0.36329690570E+03  0.50400000000E-02 0.  1.
    8880023    1    1    2    0    0  0.85701999965E+03 -0.19480664228E+03  0.20509185151E+04  0.23264801460E+04  0.65864270000E+03 0. -1.
    8880022    1    1    2    0    0 -0.85701999965E+03  0.19480664228E+03  0.65670982958E+03  0.11077420101E+04  0.15294330000E+03 0.  0.
<mgrwt>
<rscale>  0 0.10426541E+04</rscale>
<asrwt>0</asrwt>
<pdfrwt beam="1">  1        1 0.47245005E+00 0.10982910E+04</pdfrwt>
<pdfrwt beam="2">  1       -1 0.55891830E-01 0.10982910E+04</pdfrwt>
<totfact> 0.17423912E+00</totfact>
</mgrwt>
</event>
<event>
 4    1  0.1065596E-007  0.7251964E+03  0.7818608E-02  0.9905380E-01
          1   -1    0    0  501    0  0.00000000000E+00  0.00000000000E+00  0.68697060986E+03  0.68697060988E+03  0.50400000000E-02 0. -1.
         -1   -1    0    0    0  501 -0.00000000000E+00 -0.00000000000E+00 -0.61249942289E+03  0.61249942291E+03  0.50400000000E-02 0.  1.
    8880023    1    1    2    0    0  0.28833452981E+03 -0.94672095150E+02  0.40057658178E+03  0.82847535317E+03  0.65864270000E+03 0. -1.
    8880022    1    1    2    0    0 -0.28833452981E+03  0.94672095150E+02 -0.32610539482E+03  0.47099467961E+03  0.15294330000E+03 0.  0.
<mgrwt>
<rscale>  0 0.60001260E+03</rscale>
<asrwt>0</asrwt>
<pdfrwt beam="1">  1        1 0.10568779E+00 0.72519640E+03</pdfrwt>
<pdfrwt beam="2">  1       -1 0.94230680E-01 0.72519640E+03</pdfrwt>
<totfact> 0.31401519E+01</totfact>
</mgrwt>
</event>
<event>
 4    1  0.1065596E-007  0.6706042E+03  0.7818608E-02  0.1015233E+00
          1   -1    0    0  501    0  0.00000000000E+00  0.00000000000E+00  0.13656609440E+04  0.13656609440E+04  0.50400000000E-02 0. -1.
         -1   -1    0    0    0  501 -0.00000000000E+00 -0.00000000000E+00 -0.24565172717E+03  0.24565172722E+03  0.50400000000E-02 0.  1.
    8880023    1    1    2    0    0  0.11116385386E+03  0.59518340272E+02  0.12178374684E+04  0.13902654929E+04  0.65864270000E+03 0. -1.
    8880022    1    1    2    0    0 -0.11116385386E+03 -0.59518340272E+02 -0.97828251505E+02  0.22104717832E+03  0.15294330000E+03 0.  0.
<mgrwt>
<rscale>  0 0.49446668E+03</rscale>
<asrwt>0</asrwt>
<pdfrwt beam="1">  1        1 0.21010168E+00 0.67060424E+03</pdfrwt>
<pdfrwt beam="2">  1       -1 0.37792575E-01 0.67060424E+03</pdfrwt>
<totfact> 0.56788708E+01</totfact>
</mgrwt>
</event>
<event>
 4    1  0.1065596E-007  0.1206495E+04  0.7818608E-02  0.9150835E-01
         -1   -1    0    0    0  501 -0.00000000000E+00  0.00000000000E+00  0.81289340203E+03  0.81289340205E+03  0.50400000000E-02 0.  1.
          1   -1    0    0  501    0  0.00000000000E+00 -0.00000000000E+00 -0.25648295563E+04  0.25648295563E+04  0.50400000000E-02 0. -1.
    8880023    1    1    2    0    0  0.98405501672E+03  0.23120416172E+03 -0.19907793179E+04  0.23278385122E+04  0.65864270000E+03 0.  0.
    8880022    1    1    2    0    0 -0.98405501672E+03 -0.23120416172E+03  0.23884316362E+03  0.10498844461E+04  0.15294330000E+03 0.  0.
<mgrwt>
<rscale>  0 0.11575630E+04</rscale>
<asrwt>0</asrwt>
<pdfrwt beam="1">  1        1 0.39458916E+00 0.12064949E+04</pdfrwt>
<pdfrwt beam="2">  1       -1 0.12506052E+00 0.12064949E+04</pdfrwt>
<totfact> 0.67434989E-01</totfact>
</mgrwt>
</event>
<event>
 4    1  0.1065596E-007  0.6838273E+03  0.7818608E-02  0.1007237E+00
          1   -1    0    0  501    0  0.00000000000E+00  0.00000000000E+00  0.14840223605E+04  0.14840223605E+04  0.50400000000E-02 0. -1.
         -1   -1    0    0    0  501 -0.00000000000E+00 -0.00000000000E+00 -0.21538945605E+03  0.21538945611E+03  0.50400000000E-02 0.  1.
    8880023    1    1    2    0    0 -0.17386157326E+03  0.59847784278E+02  0.12892278865E+04  0.14593588844E+04  0.65864270000E+03 0. -1.
    8880022    1    1    2    0    0  0.17386157326E+03 -0.59847784278E+02 -0.20594982087E+02  0.24005293217E+03  0.15294330000E+03 0.  0.
<mgrwt>
<rscale>  0 0.52587864E+03</rscale>
<asrwt>0</asrwt>
<pdfrwt beam="1">  1        1 0.22831114E+00 0.68382732E+03</pdfrwt>
<pdfrwt beam="2">  1       -1 0.33136838E-01 0.68382732E+03</pdfrwt>
<totfact> 0.59376914E+01</totfact>
</mgrwt>
</event>
<event>
 4    1  0.1065596E-007  0.6943600E+03  0.7818608E-02  0.1002145E+00
         -1   -1    0    0    0  501 -0.00000000000E+00  0.00000000000E+00  0.12938627075E+04  0.12938627075E+04  0.50400000000E-02 0.  1.
          1   -1    0    0  501    0  0.00000000000E+00 -0.00000000000E+00 -0.14790947372E+04  0.14790947372E+04  0.50400000000E-02 0. -1.
    8880023    1    1    2    0    0 -0.43621497638E+02 -0.21545954507E+03 -0.13819807401E+04  0.15466113355E+04  0.65864270000E+03 0. -1.
    8880022    1    1    2    0    0  0.43621497638E+02  0.21545954507E+03  0.11967487105E+04  0.12263461092E+04  0.15294330000E+03 0.  0.
<mgrwt>
<rscale>  0 0.54719426E+03</rscale>
<asrwt>0</asrwt>
<pdfrwt beam="1">  1        1 0.22755304E+00 0.69436003E+03</pdfrwt>
<pdfrwt beam="2">  1       -1 0.19905580E+00 0.69436003E+03</pdfrwt>
<totfact> 0.11003121E+00</totfact>
</mgrwt>
</event>
<event>
 4    1  0.1065596E-007  0.7879455E+03  0.7818608E-02  0.9737493E-01
         -1   -1    0    0    0  501 -0.00000000000E+00  0.00000000000E+00  0.70543913307E+03  0.70543913309E+03  0.50400000000E-02 0.  1.
          1   -1    0    0  501    0  0.00000000000E+00 -0.00000000000E+00 -0.13373455880E+04  0.13373455880E+04  0.50400000000E-02 0. -1.
    8880023    1    1    2    0    0  0.42127631891E+03  0.97847999928E+02 -0.11222951421E+04  0.13712784401E+04  0.65864270000E+03 0. -1.
    8880022    1    1    2    0    0 -0.42127631891E+03 -0.97847999928E+02  0.49038868716E+03  0.67150628104E+03  0.15294330000E+03 0.  0.
<mgrwt>
<rscale>  0 0.68827674E+03</rscale>
<asrwt>0</asrwt>
<pdfrwt beam="1">  1        1 0.20574548E+00 0.78794554E+03</pdfrwt>
<pdfrwt beam="2">  1       -1 0.10852910E+00 0.78794554E+03</pdfrwt>
<totfact> 0.69185355E+00</totfact>
</mgrwt>
</event>
<event>
 4    1  0.1065596E-007  0.6921890E+03  0.7818608E-02  0.1003129E+00
          1   -1    0    0  501    0  0.00000000000E+00  0.00000000000E+00  0.55882262913E+03  0.55882262916E+03  0.50400000000E-02 0. -1.
         -1   -1    0    0    0  501 -0.00000000000E+00 -0.00000000000E+00 -0.35669184117E+04  0.35669184117E+04  0.50400000000E-02 0.  1.
    8880023    1    1    2    0    0 -0.19577118849E+03  0.83600656590E+02  0.33736554983E+03  0.77002671935E+03  0.65864270000E+03 0. -1.
    8880022    1    1    2    0    0  0.19577118849E+03 -0.83600656590E+02 -0.33454613324E+04  0.33557143215E+04  0.15294330000E+03 0.  0.
<mgrwt>
<rscale>  0 0.54299235E+03</rscale>
<asrwt>0</asrwt>
<pdfrwt beam="1">  1        1 0.85972714E-01 0.69218902E+03</pdfrwt>
<pdfrwt beam="2">  1       -1 0.54875667E+00 0.69218902E+03</pdfrwt>
<totfact> 0.30738678E-02</totfact>
</mgrwt>
</event>
<event>
 4    1  0.1065596E-007  0.8942307E+03  0.7818608E-02  0.9535357E-01
         -1   -1    0    0    0  501 -0.00000000000E+00  0.00000000000E+00  0.15623962053E+04  0.15623962053E+04  0.50400000000E-02 0.  1.
          1   -1    0    0  501    0  0.00000000000E+00 -0.00000000000E+00 -0.76813678443E+03  0.76813678445E+03  0.50400000000E-02 0. -1.
    8880023    1    1    2    0    0 -0.16333890791E+03  0.58237337433E+03 -0.40271358399E+03  0.98072768033E+03  0.65864270000E+03 0. -1.
    8880022    1    1    2    0    0  0.16333890791E+03 -0.58237337433E+03  0.11969730048E+04  0.13498053094E+04  0.15294330000E+03 0.  0.
<mgrwt>
<rscale>  0 0.81726513E+03</rscale>
<asrwt>0</asrwt>
<pdfrwt beam="1">  1        1 0.11817489E+00 0.89423070E+03</pdfrwt>
<pdfrwt beam="2">  1       -1 0.24036864E+00 0.89423070E+03</pdfrwt>
<totfact> 0.19431921E+00</totfact>
</mgrwt>
</event>
<event>
 4    1  0.1065596E-007  0.7874071E+03  0.7818608E-02  0.9738717E-01
          1   -1    0    0  501    0  0.00000000000E+00  0.00000000000E+00  0.59756698989E+03  0.59756698992E+03  0.50400000000E-02 0. -1.
         -1   -1    0    0    0  501 -0.00000000000E+00 -0.00000000000E+00 -0.21778327751E+04  0.21778327751E+04  0.50400000000E-02 0.  1.
    8880023    1    1    2    0    0 -0.21796548143E+03 -0.37241218175E+03  0.29817662319E+03  0.84197344916E+03  0.65864270000E+03 0. -1.
    8880022    1    1    2    0    0  0.21796548143E+03  0.37241218175E+03 -0.18784424084E+04  0.19334263158E+04  0.15294330000E+03 0.  0.
<mgrwt>
<rscale>  0 0.68757678E+03</rscale>
<asrwt>0</asrwt>
<pdfrwt beam="1">  1        1 0.91933384E-01 0.78740713E+03</pdfrwt>
<pdfrwt beam="2">  1       -1 0.33505119E+00 0.78740713E+03</pdfrwt>
<totfact> 0.70908689E-01</totfact>
</mgrwt>
</event>
<event>
 4    1  0.1065596E-007  0.7110149E+03  0.7818608E-02  0.9954251E-01
          1   -1    0    0  501    0  0.00000000000E+00  0.00000000000E+00  0.86153938480E+03  0.86153938482E+03  0.50400000000E-02 0. -1.
         -1   -1    0    0    0  501 -0.00000000000E+00 -0.00000000000E+00 -0.30380892291E+03  0.30380892296E+03  0.50400000000E-02 0.  1.
    8880023    1    1    2    0    0 -0.11722191565E+03 -0.24081321293E+03  0.43419054307E+03  0.83310480432E+03  0.65864270000E+03 0. -1.
    8880022    1    1    2    0    0  0.11722191565E+03  0.24081321293E+03  0.12353991881E+03  0.33224350345E+03  0.15294330000E+03 0. -1.
<mgrwt>
<rscale>  0 0.57702560E+03</rscale>
<asrwt>0</asrwt>
<pdfrwt beam="1">  1        1 0.13254452E+00 0.71101490E+03</pdfrwt>
<pdfrwt beam="2">  1       -1 0.46739834E-01 0.71101490E+03</pdfrwt>
<totfact> 0.91342963E+01</totfact>
</mgrwt>
</event>
<event>
 4    1  0.1065596E-007  0.7551213E+03  0.7818608E-02  0.9817906E-01
         -1   -1    0    0    0  501 -0.00000000000E+00  0.00000000000E+00  0.35025165541E+03  0.35025165545E+03  0.50400000000E-02 0.  1.
          1   -1    0    0  501    0  0.00000000000E+00 -0.00000000000E+00 -0.16919201875E+04  0.16919201875E+04  0.50400000000E-02 0. -1.
    8880023    1    1    2    0    0  0.17329743543E+03 -0.32613792316E+03 -0.14440192375E+04  0.16295397236E+04  0.65864270000E+03 0. -1.
    8880022    1    1    2    0    0 -0.17329743543E+03  0.32613792316E+03  0.10235070543E+03  0.41263211941E+03  0.15294330000E+03 0.  0.
<mgrwt>
<rscale>  0 0.64410415E+03</rscale>
<asrwt>0</asrwt>
<pdfrwt beam="1">  1        1 0.26029541E+00 0.75512128E+03</pdfrwt>
<pdfrwt beam="2">  1       -1 0.53884871E-01 0.75512128E+03</pdfrwt>
<totfact> 0.17404230E+01</totfact>
</mgrwt>
</event>
<event>
 4    1  0.1065596E-007  0.6839443E+03  0.7818608E-02  0.1007175E+00
          1   -1    0    0  501    0  0.00000000000E+00  0.00000000000E+00  0.10775011283E+04  0.10775011283E+04  0.50400000000E-02 0. -1.
         -1   -1    0    0    0  501 -0.00000000000E+00 -0.00000000000E+00 -0.44465952980E+03  0.44465952983E+03  0.50400000000E-02 0.  1.
    8880023    1    1    2    0    0  0.14047109200E+03 -0.11932113510E+03  0.92118181594E+03  0.11473255010E+04  0.65864270000E+03 0. -1.
    8880022    1    1    2    0    0 -0.14047109200E+03  0.11932113510E+03 -0.28834021748E+03  0.37483515710E+03  0.15294330000E+03 0.  0.
<mgrwt>
<rscale>  0 0.52612987E+03</rscale>
<asrwt>0</asrwt>
<pdfrwt beam="1">  1        1 0.16576940E+00 0.68394435E+03</pdfrwt>
<pdfrwt beam="2">  1       -1 0.68409159E-01 0.68394435E+03</pdfrwt>
<totfact> 0.29544115E+01</totfact>
</mgrwt>
</event>
<event>
 4    1  0.1065596E-007  0.8004113E+03  0.7818608E-02  0.9709907E-01
          1   -1    0    0  501    0  0.00000000000E+00  0.00000000000E+00  0.21043785062E+04  0.21043785062E+04  0.50400000000E-02 0. -1.
         -1   -1    0    0    0  501 -0.00000000000E+00 -0.00000000000E+00 -0.57931797353E+03  0.57931797356E+03  0.50400000000E-02 0.  1.
    8880023    1    1    2    0    0 -0.75039939944E+02 -0.44857220070E+03  0.19084538883E+04  0.20695058497E+04  0.65864270000E+03 0. -1.
    8880022    1    1    2    0    0  0.75039939944E+02  0.44857220070E+03 -0.38339335568E+03  0.61419063003E+03  0.15294330000E+03 0.  0.
<mgrwt>
<rscale>  0 0.70429956E+03</rscale>
<asrwt>0</asrwt>
<pdfrwt beam="1">  1        1 0.32375054E+00 0.80041128E+03</pdfrwt>
<pdfrwt beam="2">  1       -1 0.89125841E-01 0.80041128E+03</pdfrwt>
<totfact> 0.32625488E+00</totfact>
</mgrwt>
</event>
<event>
 4    1  0.1065596E-007  0.8949723E+03  0.7818608E-02  0.9534151E-01
         -1   -1    0    0    0  501 -0.00000000000E+00  0.00000000000E+00  0.69443420449E+03  0.69443420451E+03  0.50400000000E-02 0.  1.
          1   -1    0    0  501    0  0.00000000000E+00 -0.00000000000E+00 -0.12145404508E+04  0.12145404508E+04  0.50400000000E-02 0. -1.
    8880023    1    1    2    0    0  0.24343434570E+03 -0.55489180109E+03 -0.82177699312E+03  0.12150279109E+04  0.65864270000E+03 0.  0.
    8880022    1    1    2    0    0 -0.24343434570E+03  0.55489180109E+03  0.30167074682E+03  0.69394674441E+03  0.15294330000E+03 0.  1.
<mgrwt>
<rscale>  0 0.81812134E+03</rscale>
<asrwt>0</asrwt>
<pdfrwt beam="1">  1        1 0.18685238E+00 0.89497229E+03</pdfrwt>
<pdfrwt beam="2">  1       -1 0.10683603E+00 0.89497229E+03</pdfrwt>
<totfact> 0.86579732E+00</totfact>
</mgrwt>
</event>
<event>
 4    1  0.1065596E-007  0.7007855E+03  0.7818608E-02  0.9993958E-01
          1   -1    0    0  501    0  0.00000000000E+00  0.00000000000E+00  0.29828143662E+04  0.29828143662E+04  0.50400000000E-02 0. -1.
         -1   -1    0    0    0  501 -0.00000000000E+00 -0.00000000000E+00 -0.25768853093E+03  0.25768853098E+03  0.50400000000E-02 0.  1.
    8880023    1    1    2    0    0  0.40368396640E+02  0.23592469498E+03  0.28465860338E+04  0.29315784696E+04  0.65864270000E+03 0.  0.
    8880022    1    1    2    0    0 -0.40368396640E+02 -0.23592469498E+03 -0.12146019851E+03  0.30892442763E+03  0.15294330000E+03 0.  0.
<mgrwt>
<rscale>  0 0.55915950E+03</rscale>
<asrwt>0</asrwt>
<pdfrwt beam="1">  1        1 0.45889453E+00 0.70078547E+03</pdfrwt>
<pdfrwt beam="2">  1       -1 0.39644389E-01 0.70078547E+03</pdfrwt>
<totfact> 0.41119944E+00</totfact>
</mgrwt>
</event>
<event>
 4    1  0.1065596E-007  0.1093714E+04  0.7818608E-02  0.9268087E-01
         -1   -1    0    0    0  501 -0.00000000000E+00  0.00000000000E+00  0.89853152238E+03  0.89853152239E+03  0.50400000000E-02 0.  1.
          1   -1    0    0  501    0  0.00000000000E+00 -0.00000000000E+00 -0.12712172623E+04  0.12712172623E+04  0.50400000000E-02 0. -1.
    8880023    1    1    2    0    0 -0.70549114066E+03 -0.51447321791E+03 -0.60967949575E+03  0.12521660175E+04  0.65864270000E+03 0. -1.
    8880022    1    1    2    0    0  0.70549114066E+03  0.51447321791E+03  0.23699375579E+03  0.91758276727E+03  0.15294330000E+03 0.  0.
<mgrwt>
<rscale>  0 0.10377466E+04</rscale>
<asrwt>0</asrwt>
<pdfrwt beam="1">  1        1 0.19557189E+00 0.10937142E+04</pdfrwt>
<pdfrwt beam="2">  1       -1 0.13823562E+00 0.10937142E+04</pdfrwt>
<totfact> 0.40807668E+00</totfact>
</mgrwt>
</event>
<event>
 4    1  0.1065596E-007  0.9127416E+03  0.7818608E-02  0.9505879E-01
         -1   -1    0    0    0  501 -0.00000000000E+00  0.00000000000E+00  0.63026144448E+03  0.63026144450E+03  0.50400000000E-02 0.  1.
          1   -1    0    0  501    0  0.00000000000E+00 -0.00000000000E+00 -0.15210366705E+04  0.15210366705E+04  0.50400000000E-02 0. -1.
    8880023    1    1    2    0    0 -0.62129330036E+03 -0.11524643804E+03  0.14917330617E+03  0.92485133296E+03  0.65864270000E+03 0.  0.
    8880022    1    1    2    0    0  0.62129330036E+03  0.11524643804E+03 -0.10399485322E+04  0.12264467820E+04  0.15294330000E+03 0.  0.
<mgrwt>
<rscale>  0 0.83851764E+03</rscale>
<asrwt>0</asrwt>
<pdfrwt beam="1">  1        1 0.23400564E+00 0.91274165E+03</pdfrwt>
<pdfrwt beam="2">  1       -1 0.96963299E-01 0.91274165E+03</pdfrwt>
<totfact> 0.65758753E+00</totfact>
</mgrwt>
</event>
<event>
 4    1  0.1065596E-007  0.8401672E+03  0.7818608E-02  0.9629865E-01
          1   -1    0    0  501    0  0.00000000000E+00  0.00000000000E+00  0.10268137862E+04  0.10268137862E+04  0.50400000000E-02 0. -1.
         -1   -1    0    0    0  501 -0.00000000000E+00 -0.00000000000E+00 -0.72615906342E+03  0.72615906344E+03  0.50400000000E-02 0.  1.
    8880023    1    1    2    0    0 -0.41544585254E+03  0.31539740582E+03  0.68766598333E+03  0.10857096715E+04  0.65864270000E+03 0. -1.
    8880022    1    1    2    0    0  0.41544585254E+03 -0.31539740582E+03 -0.38701126058E+03  0.66726317808E+03  0.15294330000E+03 0.  0.
<mgrwt>
<rscale>  0 0.75350665E+03</rscale>
<asrwt>0</asrwt>
<pdfrwt beam="1">  1        1 0.15797135E+00 0.84016724E+03</pdfrwt>
<pdfrwt beam="2">  1       -1 0.11171678E+00 0.84016724E+03</pdfrwt>
<totfact> 0.10825842E+01</totfact>
</mgrwt>
</event>
<event>
 4    1  0.1065596E-007  0.1379462E+04  0.7818608E-02  0.8999808E-01
          1   -1    0    0  501    0  0.00000000000E+00  0.00000000000E+00  0.22270321545E+04  0.22270321545E+04  0.50400000000E-02 0. -1.
         -1   -1    0    0    0  501 -0.00000000000E+00 -0.00000000000E+00 -0.13976898628E+04  0.13976898628E+04  0.50400000000E-02 0.  1.
    8880023    1    1    2    0    0 -0.11865108391E+04  0.24758223208E+03  0.16517495061E+04  0.21520203461E+04  0.65864270000E+03 0.  0.
    8880022    1    1    2    0    0  0.11865108391E+04 -0.24758223208E+03 -0.82240721437E+03  0.14727016712E+04  0.15294330000E+03 0.  0.
<mgrwt>
<rscale>  0 0.13382013E+04</rscale>
<asrwt>0</asrwt>
<pdfrwt beam="1">  1        1 0.34262033E+00 0.13794619E+04</pdfrwt>
<pdfrwt beam="2">  1       -1 0.21502921E+00 0.13794619E+04</pdfrwt>
<totfact> 0.23794666E-01</totfact>
</mgrwt>
</event>
<event>
 4    1  0.1065596E-007  0.7365681E+03  0.7818608E-02  0.9870059E-01
          1   -1    0    0  501    0  0.00000000000E+00  0.00000000000E+00  0.11022254495E+04  0.11022254495E+04  0.50400000000E-02 0. -1.
         -1   -1    0    0    0  501 -0.00000000000E+00 -0.00000000000E+00 -0.12189703807E+04  0.12189703807E+04  0.50400000000E-02 0.  1.
    8880023    1    1    2    0    0 -0.24751616870E+03 -0.21784869065E+03  0.94546753457E+03  0.11985163207E+04  0.65864270000E+03 0. -1.
    8880022    1    1    2    0    0  0.24751616870E+03  0.21784869065E+03 -0.10622124658E+04  0.11226795096E+04  0.15294330000E+03 0.  0.
<mgrwt>
<rscale>  0 0.61734545E+03</rscale>
<asrwt>0</asrwt>
<pdfrwt beam="1">  1        1 0.16957315E+00 0.73656806E+03</pdfrwt>
<pdfrwt beam="2">  1       -1 0.18753390E+00 0.73656806E+03</pdfrwt>
<totfact> 0.24276536E+00</totfact>
</mgrwt>
</event>
<event>
 4    1  0.1065596E-007  0.7265827E+03  0.7818608E-02  0.9900911E-01
          1   -1    0    0  501    0  0.00000000000E+00  0.00000000000E+00  0.14620988118E+04  0.14620988118E+04  0.50400000000E-02 0. -1.
         -1   -1    0    0    0  501 -0.00000000000E+00 -0.00000000000E+00 -0.38323882644E+03  0.38323882647E+03  0.50400000000E-02 0.  1.
    8880023    1    1    2    0    0 -0.30256072827E+03  0.50687204156E+02  0.12623566182E+04  0.14565255317E+04  0.65864270000E+03 0.  0.
    8880022    1    1    2    0    0  0.30256072827E+03 -0.50687204156E+02 -0.18349663277E+03  0.38881210656E+03  0.15294330000E+03 0.  0.
<mgrwt>
<rscale>  0 0.60217163E+03</rscale>
<asrwt>0</asrwt>
<pdfrwt beam="1">  1        1 0.22493828E+00 0.72658268E+03</pdfrwt>
<pdfrwt beam="2">  1       -1 0.58959819E-01 0.72658268E+03</pdfrwt>
<totfact> 0.21017402E+01</totfact>
</mgrwt>
</event>
<event>
 4    1  0.1065596E-007  0.8906796E+03  0.7818608E-02  0.9541163E-01
         -1   -1    0    0    0  501 -0.00000000000E+00  0.00000000000E+00  0.46627613419E+03  0.46627613422E+03  0.50400000000E-02 0.  1.
          1   -1    0    0  501    0  0.00000000000E+00 -0.00000000000E+00 -0.18974489649E+04  0.18974489649E+04  0.50400000000E-02 0. -1.
    8880023    1    1    2    0    0  0.31222881111E+03 -0.51187219889E+03 -0.14965039478E+04  0.17415034454E+04  0.65864270000E+03 0.  0.
    8880022    1    1    2    0    0 -0.31222881111E+03  0.51187219889E+03  0.65331117045E+02  0.62222165371E+03  0.15294330000E+03 0.  0.
<mgrwt>
<rscale>  0 0.81315928E+03</rscale>
<asrwt>0</asrwt>
<pdfrwt beam="1">  1        1 0.29191522E+00 0.89067962E+03</pdfrwt>
<pdfrwt beam="2">  1       -1 0.71734791E-01 0.89067962E+03</pdfrwt>
<totfact> 0.70289475E+00</totfact>
</mgrwt>
</event>
<event>
 4    1  0.1065596E-007  0.1330462E+04  0.7818608E-02  0.9039691E-01
         -1   -1    0    0    0  501 -0.00000000000E+00  0.00000000000E+00  0.13185264155E+04  0.13185264155E+04  0.50400000000E-02 0.  1.
          1   -1    0    0  501    0  0.00000000000E+00 -0.00000000000E+00 -0.22559653138E+04  0.22559653138E+04  0.50400000000E-02 0. -1.
    8880023    1    1    2    0    0 -0.95968572775E+03  0.64445418890E+03 -0.17167746866E+04  0.21719676398E+04  0.65864270000E+03 0. -1.
    8880022    1    1    2    0    0  0.95968572775E+03 -0.64445418890E+03  0.77933578835E+03  0.14025240895E+04  0.15294330000E+03 0.  0.
<mgrwt>
<rscale>  0 0.12873082E+04</rscale>
<asrwt>0</asrwt>
<pdfrwt beam="1">  1        1 0.34707159E+00 0.13304616E+04</pdfrwt>
<pdfrwt beam="2">  1       -1 0.20285022E+00 0.13304616E+04</pdfrwt>
<totfact> 0.27707083E-01</totfact>
</mgrwt>
</event>
<event>
 4    1  0.1065596E-007  0.8227873E+03  0.7818608E-02  0.9663533E-01
         -1   -1    0    0    0  501 -0.00000000000E+00  0.00000000000E+00  0.85519018408E+03  0.85519018410E+03  0.50400000000E-02 0.  1.
          1   -1    0    0  501    0  0.00000000000E+00 -0.00000000000E+00 -0.56880904340E+03  0.56880904343E+03  0.50400000000E-02 0. -1.
    8880023    1    1    2    0    0  0.29271460953E+03  0.39684611842E+03  0.36792713767E+03  0.90130420460E+03  0.65864270000E+03 0.  1.
    8880022    1    1    2    0    0 -0.29271460953E+03 -0.39684611842E+03 -0.81545996994E+02  0.52269502292E+03  0.15294330000E+03 0.  0.
<mgrwt>
<rscale>  0 0.73230182E+03</rscale>
<asrwt>0</asrwt>
<pdfrwt beam="1">  1        1 0.87509084E-01 0.82278727E+03</pdfrwt>
<pdfrwt beam="2">  1       -1 0.13156772E+00 0.82278727E+03</pdfrwt>
<totfact> 0.18535237E+01</totfact>
</mgrwt>
</event>
<event>
 4    1  0.1065596E-007  0.8303968E+03  0.7818608E-02  0.9648561E-01
          1   -1    0    0  501    0  0.00000000000E+00  0.00000000000E+00  0.11126265803E+04  0.11126265803E+04  0.50400000000E-02 0. -1.
         -1   -1    0    0    0  501 -0.00000000000E+00 -0.00000000000E+00 -0.68963965422E+03  0.68963965424E+03  0.50400000000E-02 0.  1.
    8880023    1    1    2    0    0 -0.22956626335E+03  0.45060835520E+03  0.80011072563E+03  0.11531417686E+04  0.65864270000E+03 0. -1.
    8880022    1    1    2    0    0  0.22956626335E+03 -0.45060835520E+03 -0.37712379956E+03  0.64912446592E+03  0.15294330000E+03 0.  0.
<mgrwt>
<rscale>  0 0.74163810E+03</rscale>
<asrwt>0</asrwt>
<pdfrwt beam="1">  1        1 0.17117332E+00 0.83039675E+03</pdfrwt>
<pdfrwt beam="2">  1       -1 0.10609841E+00 0.83039675E+03</pdfrwt>
<totfact> 0.10538590E+01</totfact>
</mgrwt>
</event>
<event>
 4    1  0.1065596E-007  0.8536462E+03  0.7818608E-02  0.9604967E-01
         -1   -1    0    0    0  501 -0.00000000000E+00  0.00000000000E+00  0.33814624746E+03  0.33814624750E+03  0.50400000000E-02 0.  1.
          1   -1    0    0  501    0  0.00000000000E+00 -0.00000000000E+00 -0.41669300682E+04  0.41669300682E+04  0.50400000000E-02 0. -1.
    8880023    1    1    2    0    0 -0.15540968346E+03  0.52033597350E+03 -0.38470334193E+04  0.39406063024E+04  0.65864270000E+03 0.  0.
    8880022    1    1    2    0    0  0.15540968346E+03 -0.52033597350E+03  0.18249598584E+02  0.56447001328E+03  0.15294330000E+03 0.  0.
<mgrwt>
<rscale>  0 0.76968300E+03</rscale>
<asrwt>0</asrwt>
<pdfrwt beam="1">  1        1 0.64106613E+00 0.85364624E+03</pdfrwt>
<pdfrwt beam="2">  1       -1 0.52022503E-01 0.85364624E+03</pdfrwt>
<totfact> 0.27599083E-01</totfact>
</mgrwt>
</event>
<event>
 4    1  0.1065596E-007  0.1011257E+04  0.7818608E-02  0.9366976E-01
         -1   -1    0    0    0  501 -0.00000000000E+00  0.00000000000E+00  0.55073099744E+03  0.55073099746E+03  0.50400000000E-02 0.  1.
          1   -1    0    0  501    0  0.00000000000E+00 -0.00000000000E+00 -0.23488465469E+04  0.23488465469E+04  0.50400000000E-02 0. -1.
    8880023    1    1    2    0    0 -0.18497165131E+03 -0.74472494362E+03 -0.18574448434E+04  0.21148856485E+04  0.65864270000E+03 0.  0.
    8880022    1    1    2    0    0  0.18497165131E+03  0.74472494362E+03  0.59329293921E+02  0.78469189595E+03  0.15294330000E+03 0.  0.
<mgrwt>
<rscale>  0 0.94843942E+03</rscale>
<asrwt>0</asrwt>
<pdfrwt beam="1">  1        1 0.36136100E+00 0.10112566E+04</pdfrwt>
<pdfrwt beam="2">  1       -1 0.84727847E-01 0.10112566E+04</pdfrwt>
<totfact> 0.24101591E+00</totfact>
</mgrwt>
</event>
<event>
 4    1  0.1065596E-007  0.6794330E+03  0.7818608E-02  0.1009646E+00
          1   -1    0    0  501    0  0.00000000000E+00  0.00000000000E+00  0.34331870010E+03  0.34331870014E+03  0.50400000000E-02 0. -1.
         -1   -1    0    0    0  501 -0.00000000000E+00 -0.00000000000E+00 -0.10563545302E+04  0.10563545302E+04  0.50400000000E-02 0.  1.
    8880023    1    1    2    0    0 -0.15070536800E+02 -0.16610807319E+03 -0.29966063675E+02  0.68009351143E+03  0.65864270000E+03 0. -1.
    8880022    1    1    2    0    0  0.15070536800E+02  0.16610807319E+03 -0.68306976639E+03  0.71957971888E+03  0.15294330000E+03 0.  0.
<mgrwt>
<rscale>  0 0.51615488E+03</rscale>
<asrwt>0</asrwt>
<pdfrwt beam="1">  1        1 0.52818262E-01 0.67943301E+03</pdfrwt>
<pdfrwt beam="2">  1       -1 0.16251608E+00 0.67943301E+03</pdfrwt>
<totfact> 0.21230657E+01</totfact>
</mgrwt>
</event>
<event>
 4    1  0.1065596E-007  0.8683586E+03  0.7818608E-02  0.9578865E-01
          1   -1    0    0  501    0  0.00000000000E+00  0.00000000000E+00  0.14984802202E+04  0.14984802202E+04  0.50400000000E-02 0. -1.
         -1   -1    0    0    0  501 -0.00000000000E+00 -0.00000000000E+00 -0.58340034180E+03  0.58340034182E+03  0.50400000000E-02 0.  1.
    8880023    1    1    2    0    0 -0.54146707092E+03 -0.16446823569E+03 -0.13545792786E+03  0.87886031081E+03  0.65864270000E+03 0.  0.
    8880022    1    1    2    0    0  0.54146707092E+03  0.16446823569E+03  0.10505378062E+04  0.12030202512E+04  0.15294330000E+03 0.  0.
<mgrwt>
<rscale>  0 0.78710993E+03</rscale>
<asrwt>0</asrwt>
<pdfrwt beam="1">  1        1 0.23053542E+00 0.86835856E+03</pdfrwt>
<pdfrwt beam="2">  1       -1 0.89753899E-01 0.86835856E+03</pdfrwt>
<totfact> 0.81444680E+00</totfact>
</mgrwt>
</event>
<event>
 4    1  0.1065596E-007  0.7738538E+03  0.7818608E-02  0.9770478E-01
         -1   -1    0    0    0  501 -0.00000000000E+00  0.00000000000E+00  0.12922121145E+04  0.12922121146E+04  0.50400000000E-02 0.  1.
          1   -1    0    0  501    0  0.00000000000E+00 -0.00000000000E+00 -0.45794585327E+03  0.45794585330E+03  0.50400000000E-02 0. -1.
    8880023    1    1    2    0    0  0.22105256239E+03  0.34084501241E+03 -0.39123494302E+02  0.77484218515E+03  0.65864270000E+03 0. -1.
    8880022    1    1    2    0    0 -0.22105256239E+03 -0.34084501241E+03  0.87338975558E+03  0.97531578270E+03  0.15294330000E+03 0.  0.
<mgrwt>
<rscale>  0 0.66971235E+03</rscale>
<asrwt>0</asrwt>
<pdfrwt beam="1">  1        1 0.70453208E-01 0.77385384E+03</pdfrwt>
<pdfrwt beam="2">  1       -1 0.19880187E+00 0.77385384E+03</pdfrwt>
<totfact> 0.78989039E+00</totfact>
</mgrwt>
</event>
<event>
 4    1  0.1065596E-007  0.7106351E+03  0.7818608E-02  0.9955650E-01
         -1   -1    0    0    0  501 -0.00000000000E+00  0.00000000000E+00  0.82441452295E+03  0.82441452296E+03  0.50400000000E-02 0.  1.
          1   -1    0    0  501    0  0.00000000000E+00 -0.00000000000E+00 -0.91626853266E+03  0.91626853268E+03  0.50400000000E-02 0. -1.
    8880023    1    1    2    0    0 -0.12642142963E+03  0.23496750841E+03 -0.73834313928E+03  0.10247696841E+04  0.65864270000E+03 0. -1.
    8880022    1    1    2    0    0  0.12642142963E+03 -0.23496750841E+03  0.64648912956E+03  0.71591337153E+03  0.15294330000E+03 0.  0.
<mgrwt>
<rscale>  0 0.57638422E+03</rscale>
<asrwt>0</asrwt>
<pdfrwt beam="1">  1        1 0.14096439E+00 0.71063515E+03</pdfrwt>
<pdfrwt beam="2">  1       -1 0.12683300E+00 0.71063515E+03</pdfrwt>
<totfact> 0.98822234E+00</totfact>
</mgrwt>
</event>
<event>
 4    1  0.1065596E-007  0.1285362E+04  0.7818608E-02  0.9078304E-01
         -1   -1    0    0    0  501 -0.00000000000E+00  0.00000000000E+00  0.28179136576E+04  0.28179136576E+04  0.50400000000E-02 0.  1.
          1   -1    0    0  501    0  0.00000000000E+00 -0.00000000000E+00 -0.82261461574E+03  0.82261461575E+03  0.50400000000E-02 0. -1.
    8880023    1    1    2    0    0 -0.92783473258E+03  0.59788716901E+03 -0.76953950606E+02  0.12876639603E+04  0.65864270000E+03 0.  0.
    8880022    1    1    2    0    0  0.92783473258E+03 -0.59788716901E+03  0.20722529925E+04  0.23528643131E+04  0.15294330000E+03 0.  0.
<mgrwt>
<rscale>  0 0.12402892E+04</rscale>
<asrwt>0</asrwt>
<pdfrwt beam="1">  1        1 0.12655610E+00 0.12853624E+04</pdfrwt>
<pdfrwt beam="2">  1       -1 0.43352517E+00 0.12853624E+04</pdfrwt>
<totfact> 0.87234719E-02</totfact>
</mgrwt>
</event>
<event>
 4    1  0.1065596E-007  0.7964072E+03  0.7818608E-02  0.9718619E-01
         -1   -1    0    0    0  501 -0.00000000000E+00  0.00000000000E+00  0.37905603813E+03  0.37905603816E+03  0.50400000000E-02 0.  1.
          1   -1    0    0  501    0  0.00000000000E+00 -0.00000000000E+00 -0.14105659834E+04  0.14105659834E+04  0.50400000000E-02 0. -1.
    8880023    1    1    2    0    0 -0.30220372508E+03  0.33034401164E+03 -0.10479284024E+04  0.13162136606E+04  0.65864270000E+03 0. -1.
    8880022    1    1    2    0    0  0.30220372508E+03 -0.33034401164E+03  0.16418457151E+02  0.47340836097E+03  0.15294330000E+03 0.  0.
<mgrwt>
<rscale>  0 0.69918973E+03</rscale>
<asrwt>0</asrwt>
<pdfrwt beam="1">  1        1 0.21701015E+00 0.79640722E+03</pdfrwt>
<pdfrwt beam="2">  1       -1 0.58316314E-01 0.79640722E+03</pdfrwt>
<totfact> 0.23105502E+01</totfact>
</mgrwt>
</event>
<event>
 4    1  0.1065596E-007  0.7498863E+03  0.7818608E-02  0.9832031E-01
         -1   -1    0    0    0  501 -0.00000000000E+00  0.00000000000E+00  0.10117307382E+04  0.10117307382E+04  0.50400000000E-02 0.  1.
          1   -1    0    0  501    0  0.00000000000E+00 -0.00000000000E+00 -0.28330528400E+04  0.28330528400E+04  0.50400000000E-02 0. -1.
    8880023    1    1    2    0    0 -0.29146074885E+03 -0.20873413493E+03 -0.27432266762E+04  0.28438744892E+04  0.65864270000E+03 0. -1.
    8880022    1    1    2    0    0  0.29146074885E+03  0.20873413493E+03  0.92190457437E+03  0.10009090890E+04  0.15294330000E+03 0.  0.
<mgrwt>
<rscale>  0 0.63671520E+03</rscale>
<asrwt>0</asrwt>
<pdfrwt beam="1">  1        1 0.43585428E+00 0.74988633E+03</pdfrwt>
<pdfrwt beam="2">  1       -1 0.15565088E+00 0.74988633E+03</pdfrwt>
<totfact> 0.26947860E-01</totfact>
</mgrwt>
</event>
<event>
 4    1  0.1065596E-007  0.8539970E+03  0.7818608E-02  0.9604332E-01
         -1   -1    0    0    0  501 -0.00000000000E+00  0.00000000000E+00  0.48602174371E+03  0.48602174374E+03  0.50400000000E-02 0.  1.
          1   -1    0    0  501    0  0.00000000000E+00 -0.00000000000E+00 -0.14817412069E+04  0.14817412069E+04  0.50400000000E-02 0. -1.
    8880023    1    1    2    0    0  0.52579154981E+02  0.54105089456E+03 -0.11009444078E+04  0.13933375160E+04  0.65864270000E+03 0. -1.
    8880022    1    1    2    0    0 -0.52579154981E+02 -0.54105089456E+03  0.10522494461E+03  0.57442543469E+03  0.15294330000E+03 0.  0.
<mgrwt>
<rscale>  0 0.77010112E+03</rscale>
<asrwt>0</asrwt>
<pdfrwt beam="1">  1        1 0.22796018E+00 0.85399698E+03</pdfrwt>
<pdfrwt beam="2">  1       -1 0.74772577E-01 0.85399698E+03</pdfrwt>
<totfact> 0.12394228E+01</totfact>
</mgrwt>
</event>
<event>
 4    1  0.1065596E-007  0.8210283E+03  0.7818608E-02  0.9667047E-01
          1   -1    0    0  501    0  0.00000000000E+00  0.00000000000E+00  0.25750947963E+04  0.25750947963E+04  0.50400000000E-02 0. -1.
         -1   -1    0    0    0  501 -0.00000000000E+00 -0.00000000000E+00 -0.38318304609E+03  0.38318304613E+03  0.50400000000E-02 0.  1.
    8880023    1    1    2    0    0  0.21316719316E+03  0.44140345253E+03  0.22924517979E+04  0.24350405976E+04  0.65864270000E+03 0.  0.
    8880022    1    1    2    0    0 -0.21316719316E+03 -0.44140345253E+03 -0.10054004769E+03  0.52323724480E+03  0.15294330000E+03 0.  0.
<mgrwt>
<rscale>  0 0.73013129E+03</rscale>
<asrwt>0</asrwt>
<pdfrwt beam="1">  1        1 0.39616843E+00 0.82102830E+03</pdfrwt>
<pdfrwt beam="2">  1       -1 0.58951238E-01 0.82102830E+03</pdfrwt>
<totfact> 0.36730281E+00</totfact>
</mgrwt>
</event>
<event>
 4    1  0.1065596E-007  0.1547215E+04  0.7818608E-02  0.8876996E-01
          1   -1    0    0  501    0  0.00000000000E+00  0.00000000000E+00  0.14704725572E+04  0.14704725572E+04  0.50400000000E-02 0. -1.
         -1   -1    0    0    0  501 -0.00000000000E+00 -0.00000000000E+00 -0.15337487266E+04  0.15337487266E+04  0.50400000000E-02 0.  1.
    8880023    1    1    2    0    0  0.31850382332E+03 -0.13633123270E+04  0.23407209599E+03  0.15648211204E+04  0.65864270000E+03 0.  0.
    8880022    1    1    2    0    0 -0.31850382332E+03  0.13633123270E+04 -0.29734826540E+03  0.14394001634E+04  0.15294330000E+03 0.  0.
<mgrwt>
<rscale>  0 0.15112660E+04</rscale>
<asrwt>0</asrwt>
<pdfrwt beam="1">  1        1 0.22622655E+00 0.15472154E+04</pdfrwt>
<pdfrwt beam="2">  1       -1 0.23596134E+00 0.15472154E+04</pdfrwt>
<totfact> 0.55672515E-01</totfact>
</mgrwt>
</event>
<event>
 4    1  0.1065596E-007  0.6794588E+03  0.7818608E-02  0.1009631E+00
         -1   -1    0    0    0  501 -0.00000000000E+00  0.00000000000E+00  0.78250677634E+03  0.78250677636E+03  0.50400000000E-02 0.  1.
          1   -1    0    0  501    0  0.00000000000E+00 -0.00000000000E+00 -0.13796955054E+04  0.13796955054E+04  0.50400000000E-02 0. -1.
    8880023    1    1    2    0    0  0.57289453084E+02  0.15675463673E+03 -0.12765521656E+04  0.14461153949E+04  0.65864270000E+03 0. -1.
    8880022    1    1    2    0    0 -0.57289453084E+02 -0.15675463673E+03  0.67936343657E+03  0.71608688686E+03  0.15294330000E+03 0.  0.
<mgrwt>
<rscale>  0 0.51621378E+03</rscale>
<asrwt>0</asrwt>
<pdfrwt beam="1">  1        1 0.21226085E+00 0.67945883E+03</pdfrwt>
<pdfrwt beam="2">  1       -1 0.12038566E+00 0.67945883E+03</pdfrwt>
<totfact> 0.51353380E+00</totfact>
</mgrwt>
</event>
<event>
 4    1  0.1065596E-007  0.1267599E+04  0.7818608E-02  0.9094058E-01
         -1   -1    0    0    0  501 -0.00000000000E+00  0.00000000000E+00  0.14992438305E+04  0.14992438305E+04  0.50400000000E-02 0.  1.
          1   -1    0    0  501    0  0.00000000000E+00 -0.00000000000E+00 -0.16465314744E+04  0.16465314744E+04  0.50400000000E-02 0. -1.
    8880023    1    1    2    0    0  0.90045624341E+03 -0.60181052226E+03 -0.11128380374E+04  0.16867768242E+04  0.65864270000E+03 0.  0.
    8880022    1    1    2    0    0 -0.90045624341E+03  0.60181052226E+03  0.96555039350E+03  0.14589984806E+04  0.15294330000E+03 0.  0.
<mgrwt>
<rscale>  0 0.12217167E+04</rscale>
<asrwt>0</asrwt>
<pdfrwt beam="1">  1        1 0.25331253E+00 0.12675991E+04</pdfrwt>
<pdfrwt beam="2">  1       -1 0.23065290E+00 0.12675991E+04</pdfrwt>
<totfact> 0.47080836E-01</totfact>
</mgrwt>
</event>
<event>
 4    1  0.1065596E-007  0.9111290E+03  0.7818608E-02  0.9508397E-01
          1   -1    0    0  501    0  0.00000000000E+00  0.00000000000E+00  0.20934122946E+04  0.20934122946E+04  0.50400000000E-02 0. -1.
         -1   -1    0    0    0  501 -0.00000000000E+00 -0.00000000000E+00 -0.61956489340E+03  0.61956489342E+03  0.50400000000E-02 0.  1.
    8880023    1    1    2    0    0 -0.51096983418E+03  0.36777126160E+03  0.17775469879E+04  0.19974557248E+04  0.65864270000E+03 0. -1.
    8880022    1    1    2    0    0  0.51096983418E+03 -0.36777126160E+03 -0.30369958668E+03  0.71552146318E+03  0.15294330000E+03 0.  0.
<mgrwt>
<rscale>  0 0.83667565E+03</rscale>
<asrwt>0</asrwt>
<pdfrwt beam="1">  1        1 0.32206342E+00 0.91112901E+03</pdfrwt>
<pdfrwt beam="2">  1       -1 0.95317678E-01 0.91112901E+03</pdfrwt>
<totfact> 0.28068692E+00</totfact>
</mgrwt>
</event>
<event>
 4    1  0.1065596E-007  0.1030746E+04  0.7818608E-02  0.9342393E-01
         -1   -1    0    0    0  501 -0.00000000000E+00  0.00000000000E+00  0.75236540474E+03  0.75236540476E+03  0.50400000000E-02 0.  1.
          1   -1    0    0  501    0  0.00000000000E+00 -0.00000000000E+00 -0.19980817834E+04  0.19980817834E+04  0.50400000000E-02 0. -1.
    8880023    1    1    2    0    0  0.51750322036E+03 -0.60068134242E+03 -0.15717905486E+04  0.18796178849E+04  0.65864270000E+03 0.  0.
    8880022    1    1    2    0    0 -0.51750322036E+03  0.60068134242E+03  0.32607416992E+03  0.87082930332E+03  0.15294330000E+03 0.  0.
<mgrwt>
<rscale>  0 0.96972007E+03</rscale>
<asrwt>0</asrwt>
<pdfrwt beam="1">  1        1 0.30739719E+00 0.10307463E+04</pdfrwt>
<pdfrwt beam="2">  1       -1 0.11574853E+00 0.10307463E+04</pdfrwt>
<totfact> 0.20330545E+00</totfact>
</mgrwt>
</event>
<event>
 4    1  0.1065596E-007  0.6655790E+03  0.7818608E-02  0.1019053E+00
          1   -1    0    0  501    0  0.00000000000E+00  0.00000000000E+00  0.16350734515E+04  0.16350734515E+04  0.50400000000E-02 0. -1.
         -1   -1    0    0    0  501 -0.00000000000E+00 -0.00000000000E+00 -0.20662983467E+03  0.20662983473E+03  0.50400000000E-02 0.  1.
    8880023    1    1    2    0    0 -0.29936669874E+02  0.91043872931E+02  0.15050317859E+04  0.16456354620E+04  0.65864270000E+03 0. -1.
    8880022    1    1    2    0    0  0.29936669874E+02 -0.91043872931E+02 -0.76588169137E+02  0.19606782415E+03  0.15294330000E+03 0.  0.
<mgrwt>
<rscale>  0 0.48030082E+03</rscale>
<asrwt>0</asrwt>
<pdfrwt beam="1">  1        1 0.25154976E+00 0.66557899E+03</pdfrwt>
<pdfrwt beam="2">  1       -1 0.31789205E-01 0.66557899E+03</pdfrwt>
<totfact> 0.50557383E+01</totfact>
</mgrwt>
</event>
<event>
 4    1  0.1065596E-007  0.1221513E+04  0.7818608E-02  0.9136488E-01
          1   -1    0    0  501    0  0.00000000000E+00  0.00000000000E+00  0.21885814597E+04  0.21885814597E+04  0.50400000000E-02 0. -1.
         -1   -1    0    0    0  501 -0.00000000000E+00 -0.00000000000E+00 -0.70113772353E+03  0.70113772355E+03  0.50400000000E-02 0.  1.
    8880023    1    1    2    0    0  0.60048906198E+03 -0.83528311222E+03  0.13818372270E+04  0.18443343838E+04  0.65864270000E+03 0.  0.
    8880022    1    1    2    0    0 -0.60048906198E+03  0.83528311222E+03  0.10560650918E+03  0.10453847994E+04  0.15294330000E+03 0.  0.
<mgrwt>
<rscale>  0 0.11733724E+04</rscale>
<asrwt>0</asrwt>
<pdfrwt beam="1">  1        1 0.33670483E+00 0.12215135E+04</pdfrwt>
<pdfrwt beam="2">  1       -1 0.10786734E+00 0.12215135E+04</pdfrwt>
<totfact> 0.17448679E+00</totfact>
</mgrwt>
</event>
<event>
 4    1  0.1065596E-007  0.1119435E+04  0.7818608E-02  0.9239720E-01
         -1   -1    0    0    0  501 -0.00000000000E+00  0.00000000000E+00  0.62909828494E+03  0.62909828496E+03  0.50400000000E-02 0.  1.
          1   -1    0    0  501    0  0.00000000000E+00 -0.00000000000E+00 -0.20875944087E+04  0.20875944087E+04  0.50400000000E-02 0. -1.
    8880023    1    1    2    0    0 -0.80800129834E+03 -0.40799331326E+03 -0.14059795091E+04  0.17971959348E+04  0.65864270000E+03 0.  0.
    8880022    1    1    2    0    0  0.80800129834E+03  0.40799331326E+03 -0.52516614671E+02  0.91949675889E+03  0.15294330000E+03 0.  0.
<mgrwt>
<rscale>  0 0.10652692E+04</rscale>
<asrwt>0</asrwt>
<pdfrwt beam="1">  1        1 0.32116837E+00 0.11194351E+04</pdfrwt>
<pdfrwt beam="2">  1       -1 0.96784353E-01 0.11194351E+04</pdfrwt>
<totfact> 0.26587887E+00</totfact>
</mgrwt>
</event>
<event>
 4    1  0.1065596E-007  0.9931151E+03  0.7818608E-02  0.9390621E-01
         -1   -1    0    0    0  501 -0.00000000000E+00  0.00000000000E+00  0.10682403257E+04  0.10682403257E+04  0.50400000000E-02 0.  1.
          1   -1    0    0  501    0  0.00000000000E+00 -0.00000000000E+00 -0.11201781095E+04  0.11201781096E+04  0.50400000000E-02 0. -1.
    8880023    1    1    2    0    0 -0.48524751720E+03 -0.56302943891E+03 -0.67979995404E+03  0.12034971898E+04  0.65864270000E+03 0. -1.
    8880022    1    1    2    0    0  0.48524751720E+03  0.56302943891E+03  0.62786217021E+03  0.98492124549E+03  0.15294330000E+03 0.  0.
<mgrwt>
<rscale>  0 0.92851557E+03</rscale>
<asrwt>0</asrwt>
<pdfrwt beam="1">  1        1 0.17233509E+00 0.99311505E+03</pdfrwt>
<pdfrwt beam="2">  1       -1 0.16434467E+00 0.99311505E+03</pdfrwt>
<totfact> 0.33321540E+00</totfact>
</mgrwt>
</event>
<event>
 4    1  0.1065596E-007  0.8387836E+03  0.7818608E-02  0.9632478E-01
          1   -1    0    0  501    0  0.00000000000E+00  0.00000000000E+00  0.14361406326E+04  0.14361406326E+04  0.50400000000E-02 0. -1.
         -1   -1    0    0    0  501 -0.00000000000E+00 -0.00000000000E+00 -0.45483369270E+03  0.45483369273E+03  0.50400000000E-02 0.  1.
    8880023    1    1    2    0    0  0.50848703617E+03  0.10577674548E+03  0.10514459397E+04  0.13450266006E+04  0.65864270000E+03 0.  0.
    8880022    1    1    2    0    0 -0.50848703617E+03 -0.10577674548E+03 -0.70138999837E+02  0.54594772474E+03  0.15294330000E+03 0.  0.
<mgrwt>
<rscale>  0 0.75183362E+03</rscale>
<asrwt>0</asrwt>
<pdfrwt beam="1">  1        1 0.22094471E+00 0.83878364E+03</pdfrwt>
<pdfrwt beam="2">  1       -1 0.69974415E-01 0.83878364E+03</pdfrwt>
<totfact> 0.15315398E+01</totfact>
</mgrwt>
</event>
<event>
 4    1  0.1065596E-007  0.7765226E+03  0.7818608E-02  0.9764070E-01
         -1   -1    0    0    0  501 -0.00000000000E+00  0.00000000000E+00  0.51951861614E+03  0.51951861616E+03  0.50400000000E-02 0.  1.
          1   -1    0    0  501    0  0.00000000000E+00 -0.00000000000E+00 -0.14819756287E+04  0.14819756287E+04  0.50400000000E-02 0. -1.
    8880023    1    1    2    0    0  0.37001584143E+03 -0.17962595330E+03 -0.12537790864E+04  0.14747709686E+04  0.65864270000E+03 0.  0.
    8880022    1    1    2    0    0 -0.37001584143E+03  0.17962595330E+03  0.29132207388E+03  0.52672327626E+03  0.15294330000E+03 0.  0.
<mgrwt>
<rscale>  0 0.67326936E+03</rscale>
<asrwt>0</asrwt>
<pdfrwt beam="1">  1        1 0.22799625E+00 0.77652264E+03</pdfrwt>
<pdfrwt beam="2">  1       -1 0.79925942E-01 0.77652264E+03</pdfrwt>
<totfact> 0.10879387E+01</totfact>
</mgrwt>
</event>
<event>
 4    1  0.1065596E-007  0.7887877E+03  0.7818608E-02  0.9735585E-01
         -1   -1    0    0    0  501 -0.00000000000E+00  0.00000000000E+00  0.32727968658E+03  0.32727968662E+03  0.50400000000E-02 0.  1.
          1   -1    0    0  501    0  0.00000000000E+00 -0.00000000000E+00 -0.24853000142E+04  0.24853000142E+04  0.50400000000E-02 0. -1.
    8880023    1    1    2    0    0 -0.17415060083E+03  0.39755169622E+03 -0.22127658704E+04  0.23491527806E+04  0.65864270000E+03 0. -1.
    8880022    1    1    2    0    0  0.17415060083E+03 -0.39755169622E+03  0.54745542805E+02  0.46342692025E+03  0.15294330000E+03 0.  0.
<mgrwt>
<rscale>  0 0.68937016E+03</rscale>
<asrwt>0</asrwt>
<pdfrwt beam="1">  1        1 0.38235384E+00 0.78878767E+03</pdfrwt>
<pdfrwt beam="2">  1       -1 0.50350723E-01 0.78878767E+03</pdfrwt>
<totfact> 0.57702642E+00</totfact>
</mgrwt>
</event>
<event>
 4    1  0.1065596E-007  0.7744928E+03  0.7818608E-02  0.9768936E-01
         -1   -1    0    0    0  501 -0.00000000000E+00  0.00000000000E+00  0.39102147659E+03  0.39102147662E+03  0.50400000000E-02 0.  1.
          1   -1    0    0  501    0  0.00000000000E+00 -0.00000000000E+00 -0.13192469625E+04  0.13192469625E+04  0.50400000000E-02 0. -1.
    8880023    1    1    2    0    0 -0.93797262720E+02  0.39652357205E+03 -0.10045025331E+04  0.12684101919E+04  0.65864270000E+03 0. -1.
    8880022    1    1    2    0    0  0.93797262720E+02 -0.39652357205E+03  0.76277047196E+02  0.44185824721E+03  0.15294330000E+03 0.  0.
<mgrwt>
<rscale>  0 0.67056582E+03</rscale>
<asrwt>0</asrwt>
<pdfrwt beam="1">  1        1 0.20296107E+00 0.77449279E+03</pdfrwt>
<pdfrwt beam="2">  1       -1 0.60157151E-01 0.77449279E+03</pdfrwt>
<totfact> 0.25244567E+01</totfact>
</mgrwt>
</event>
<event>
 4    1  0.1065596E-007  0.8371347E+03  0.7818608E-02  0.9635607E-01
          1   -1    0    0  501    0  0.00000000000E+00  0.00000000000E+00  0.25115111396E+04  0.25115111396E+04  0.50400000000E-02 0. -1.
         -1   -1    0    0    0  501 -0.00000000000E+00 -0.00000000000E+00 -0.66702000310E+03  0.66702000312E+03  0.50400000000E-02 0.  1.
    8880023    1    1    2    0    0 -0.23772044685E+03 -0.45877374516E+03  0.23159072189E+04  0.24625638698E+04  0.65864270000E+03 0. -1.
    8880022    1    1    2    0    0  0.23772044685E+03  0.45877374516E+03 -0.47141608241E+03  0.71596727290E+03  0.15294330000E+03 0.  0.
<mgrwt>
<rscale>  0 0.74983656E+03</rscale>
<asrwt>0</asrwt>
<pdfrwt beam="1">  1        1 0.38638634E+00 0.83713474E+03</pdfrwt>
<pdfrwt beam="2">  1       -1 0.10261846E+00 0.83713474E+03</pdfrwt>
<totfact> 0.12516171E+00</totfact>
</mgrwt>
</event>
<event>
 4    1  0.1065596E-007  0.9550131E+03  0.7818608E-02  0.9442938E-01
         -1   -1    0    0    0  501 -0.00000000000E+00  0.00000000000E+00  0.25550883624E+04  0.25550883624E+04  0.50400000000E-02 0.  1.
          1   -1    0    0  501    0  0.00000000000E+00 -0.00000000000E+00 -0.91268341025E+03  0.91268341026E+03  0.50400000000E-02 0. -1.
    8880023    1    1    2    0    0  0.21010712878E+02  0.69122954484E+03 -0.59212498123E+03  0.11236823098E+04  0.65864270000E+03 0.  0.
    8880022    1    1    2    0    0 -0.21010712878E+02 -0.69122954484E+03  0.22345299334E+04  0.23440894628E+04  0.15294330000E+03 0.  0.
<mgrwt>
<rscale>  0 0.88624760E+03</rscale>
<asrwt>0</asrwt>
<pdfrwt beam="1">  1        1 0.14041283E+00 0.95501306E+03</pdfrwt>
<pdfrwt beam="2">  1       -1 0.39309051E+00 0.95501306E+03</pdfrwt>
<totfact> 0.14643379E-01</totfact>
</mgrwt>
</event>
<event>
 4    1  0.1065596E-007  0.1091135E+04  0.7818608E-02  0.9270991E-01
         -1   -1    0    0    0  501 -0.00000000000E+00  0.00000000000E+00  0.74284784883E+03  0.74284784885E+03  0.50400000000E-02 0.  1.
          1   -1    0    0  501    0  0.00000000000E+00 -0.00000000000E+00 -0.13121732038E+04  0.13121732038E+04  0.50400000000E-02 0. -1.
    8880023    1    1    2    0    0 -0.70635903555E+03 -0.50776146592E+03 -0.32858217504E+03  0.11395355393E+04  0.65864270000E+03 0.  1.
    8880022    1    1    2    0    0  0.70635903555E+03  0.50776146592E+03 -0.24074317990E+03  0.91548551330E+03  0.15294330000E+03 0. -1.
<mgrwt>
<rscale>  0 0.10349789E+04</rscale>
<asrwt>0</asrwt>
<pdfrwt beam="1">  1        1 0.20187280E+00 0.10911347E+04</pdfrwt>
<pdfrwt beam="2">  1       -1 0.11428428E+00 0.10911347E+04</pdfrwt>
<totfact> 0.61406959E+00</totfact>
</mgrwt>
</event>
<event>
 4    1  0.1065596E-007  0.1049984E+04  0.7818608E-02  0.9318900E-01
         -1   -1    0    0    0  501 -0.00000000000E+00  0.00000000000E+00  0.23072457055E+04  0.23072457055E+04  0.50400000000E-02 0.  1.
          1   -1    0    0  501    0  0.00000000000E+00 -0.00000000000E+00 -0.43063700703E+03  0.43063700706E+03  0.50400000000E-02 0. -1.
    8880023    1    1    2    0    0  0.49390826721E+03  0.65169886627E+03  0.58612565202E+03  0.12025016736E+04  0.65864270000E+03 0.  0.
    8880022    1    1    2    0    0 -0.49390826721E+03 -0.65169886627E+03  0.12904830465E+04  0.15353810390E+04  0.15294330000E+03 0.  0.
<mgrwt>
<rscale>  0 0.99061331E+03</rscale>
<asrwt>0</asrwt>
<pdfrwt beam="1">  1        1 0.66251847E-01 0.10499843E+04</pdfrwt>
<pdfrwt beam="2">  1       -1 0.35496088E+00 0.10499843E+04</pdfrwt>
<totfact> 0.79415473E-01</totfact>
</mgrwt>
</event>
<event>
 4    1  0.1065596E-007  0.1229695E+04  0.7818608E-02  0.9128783E-01
          1   -1    0    0  501    0  0.00000000000E+00  0.00000000000E+00  0.82117431117E+03  0.82117431118E+03  0.50400000000E-02 0. -1.
         -1   -1    0    0    0  501 -0.00000000000E+00 -0.00000000000E+00 -0.24639821761E+04  0.24639821761E+04  0.50400000000E-02 0.  1.
    8880023    1    1    2    0    0  0.87799346051E+03 -0.55449766822E+03  0.11788646425E+03  0.12353329938E+04  0.65864270000E+03 0.  0.
    8880022    1    1    2    0    0 -0.87799346051E+03  0.55449766822E+03 -0.17606943292E+04  0.20498234935E+04  0.15294330000E+03 0.  0.
<mgrwt>
<rscale>  0 0.11819731E+04</rscale>
<asrwt>0</asrwt>
<pdfrwt beam="1">  1        1 0.12633451E+00 0.12296952E+04</pdfrwt>
<pdfrwt beam="2">  1       -1 0.37907418E+00 0.12296952E+04</pdfrwt>
<totfact> 0.20792982E-01</totfact>
</mgrwt>
</event>
<event>
 4    1  0.1065596E-007  0.6961594E+03  0.7818608E-02  0.1001352E+00
         -1   -1    0    0    0  501 -0.00000000000E+00  0.00000000000E+00  0.11198082447E+04  0.11198082447E+04  0.50400000000E-02 0.  1.
          1   -1    0    0  501    0  0.00000000000E+00 -0.00000000000E+00 -0.35311311117E+03  0.35311311121E+03  0.50400000000E-02 0. -1.
    8880023    1    1    2    0    0 -0.16079319003E+03  0.15802939720E+03  0.40534428292E+02  0.69733850208E+03  0.65864270000E+03 0. -1.
    8880022    1    1    2    0    0  0.16079319003E+03 -0.15802939720E+03  0.72616070527E+03  0.77558285388E+03  0.15294330000E+03 0.  0.
<mgrwt>
<rscale>  0 0.55061268E+03</rscale>
<asrwt>0</asrwt>
<pdfrwt beam="1">  1        1 0.54325094E-01 0.69615943E+03</pdfrwt>
<pdfrwt beam="2">  1       -1 0.17227819E+00 0.69615943E+03</pdfrwt>
<totfact> 0.17314422E+01</totfact>
</mgrwt>
</event>
<event>
 4    1  0.1065596E-007  0.7388584E+03  0.7818608E-02  0.9863285E-01
          1   -1    0    0  501    0  0.00000000000E+00  0.00000000000E+00  0.79671301740E+03  0.79671301741E+03  0.50400000000E-02 0. -1.
         -1   -1    0    0    0  501 -0.00000000000E+00 -0.00000000000E+00 -0.49981010710E+03  0.49981010712E+03  0.50400000000E-02 0.  1.
    8880023    1    1    2    0    0  0.29150361134E+03 -0.16470351111E+03  0.48433679167E+03  0.88345567859E+03  0.65864270000E+03 0.  0.
    8880022    1    1    2    0    0 -0.29150361134E+03  0.16470351111E+03 -0.18743388137E+03  0.41306744595E+03  0.15294330000E+03 0.  0.
<mgrwt>
<rscale>  0 0.62074130E+03</rscale>
<asrwt>0</asrwt>
<pdfrwt beam="1">  1        1 0.12257123E+00 0.73885845E+03</pdfrwt>
<pdfrwt beam="2">  1       -1 0.76893863E-01 0.73885845E+03</pdfrwt>
<totfact> 0.38717065E+01</totfact>
</mgrwt>
</event>
<event>
 4    1  0.1065596E-007  0.6633620E+03  0.7818608E-02  0.1020949E+00
         -1   -1    0    0    0  501 -0.00000000000E+00  0.00000000000E+00  0.43994714701E+03  0.43994714704E+03  0.50400000000E-02 0.  1.
          1   -1    0    0  501    0  0.00000000000E+00 -0.00000000000E+00 -0.10418297431E+04  0.10418297431E+04  0.50400000000E-02 0. -1.
    8880023    1    1    2    0    0  0.67267534938E+02 -0.41399905948E+02 -0.91161446427E+03  0.11274262775E+04  0.65864270000E+03 0. -1.
    8880022    1    1    2    0    0 -0.67267534938E+02  0.41399905948E+02  0.30973186821E+03  0.35435061263E+03  0.15294330000E+03 0.  0.
<mgrwt>
<rscale>  0 0.47345678E+03</rscale>
<asrwt>0</asrwt>
<pdfrwt beam="1">  1        1 0.16028150E+00 0.66336195E+03</pdfrwt>
<pdfrwt beam="2">  1       -1 0.67684177E-01 0.66336195E+03</pdfrwt>
<totfact> 0.32202683E+01</totfact>
</mgrwt>
</event>
<event>
 4    1  0.1065596E-007  0.8887235E+03  0.7818608E-02  0.9544382E-01
          1   -1    0    0  501    0  0.00000000000E+00  0.00000000000E+00  0.37636800466E+04  0.37636800466E+04  0.50400000000E-02 0. -1.
         -1   -1    0    0    0  501 -0.00000000000E+00 -0.00000000000E+00 -0.31339155059E+03  0.31339155063E+03  0.50400000000E-02 0.  1.
    8880023    1    1    2    0    0  0.59362041284E+03 -0.60283455288E+02  0.33337552905E+04  0.34501817101E+04  0.65864270000E+03 0. -1.
    8880022    1    1    2    0    0 -0.59362041284E+03  0.60283455288E+02  0.11653320544E+03  0.62688988706E+03  0.15294330000E+03 0.  0.
<mgrwt>
<rscale>  0 0.81089335E+03</rscale>
<asrwt>0</asrwt>
<pdfrwt beam="1">  1        1 0.57902775E+00 0.88872352E+03</pdfrwt>
<pdfrwt beam="2">  1       -1 0.48214080E-01 0.88872352E+03</pdfrwt>
<totfact> 0.70239392E-01</totfact>
</mgrwt>
</event>
<event>
 4    1  0.1065596E-007  0.1111442E+04  0.7818608E-02  0.9248422E-01
         -1   -1    0    0    0  501 -0.00000000000E+00  0.00000000000E+00  0.11950530629E+04  0.11950530629E+04  0.50400000000E-02 0.  1.
          1   -1    0    0  501    0  0.00000000000E+00 -0.00000000000E+00 -0.12098589659E+04  0.12098589659E+04  0.50400000000E-02 0. -1.
    8880023    1    1    2    0    0  0.88815223332E+03  0.11260474344E+03 -0.65834963001E+03  0.12917928082E+04  0.65864270000E+03 0.  0.
    8880022    1    1    2    0    0 -0.88815223332E+03 -0.11260474344E+03  0.64354372701E+03  0.11131192207E+04  0.15294330000E+03 0.  0.
<mgrwt>
<rscale>  0 0.10567311E+04</rscale>
<asrwt>0</asrwt>
<pdfrwt beam="1">  1        1 0.18613215E+00 0.11114425E+04</pdfrwt>
<pdfrwt beam="2">  1       -1 0.18385432E+00 0.11114425E+04</pdfrwt>
<totfact> 0.20326672E+00</totfact>
</mgrwt>
</event>
<event>
 4    1  0.1065596E-007  0.1257250E+04  0.7818608E-02  0.9103385E-01
          1   -1    0    0  501    0  0.00000000000E+00  0.00000000000E+00  0.27886618226E+04  0.27886618226E+04  0.50400000000E-02 0. -1.
         -1   -1    0    0    0  501 -0.00000000000E+00 -0.00000000000E+00 -0.78589588809E+03  0.78589588811E+03  0.50400000000E-02 0.  1.
    8880023    1    1    2    0    0  0.85792681303E+03  0.64095974082E+03  0.21421349235E+04  0.24838317259E+04  0.65864270000E+03 0.  0.
    8880022    1    1    2    0    0 -0.85792681303E+03 -0.64095974082E+03 -0.13936898897E+03  0.10907259848E+04  0.15294330000E+03 0.  0.
<mgrwt>
<rscale>  0 0.12108812E+04</rscale>
<asrwt>0</asrwt>
<pdfrwt beam="1">  1        1 0.42902490E+00 0.12572502E+04</pdfrwt>
<pdfrwt beam="2">  1       -1 0.12090706E+00 0.12572502E+04</pdfrwt>
<totfact> 0.50761179E-01</totfact>
</mgrwt>
</event>
<event>
 4    1  0.1065596E-007  0.9246689E+03  0.7818608E-02  0.9487537E-01
         -1   -1    0    0    0  501 -0.00000000000E+00  0.00000000000E+00  0.10573787751E+04  0.10573787751E+04  0.50400000000E-02 0.  1.
          1   -1    0    0  501    0  0.00000000000E+00 -0.00000000000E+00 -0.67504704589E+03  0.67504704591E+03  0.50400000000E-02 0. -1.
    8880023    1    1    2    0    0 -0.63420079628E+03  0.13781045147E+03 -0.69029568896E+02  0.92724196313E+03  0.65864270000E+03 0.  0.
    8880022    1    1    2    0    0  0.63420079628E+03 -0.13781045147E+03  0.45136129807E+03  0.80518385785E+03  0.15294330000E+03 0.  0.
<mgrwt>
<rscale>  0 0.85208936E+03</rscale>
<asrwt>0</asrwt>
<pdfrwt beam="1">  1        1 0.10385339E+00 0.92466890E+03</pdfrwt>
<pdfrwt beam="2">  1       -1 0.16267366E+00 0.92466890E+03</pdfrwt>
<totfact> 0.81140528E+00</totfact>
</mgrwt>
</event>
<event>
 4    1  0.1065596E-007  0.1436465E+04  0.7818608E-02  0.8955854E-01
          1   -1    0    0  501    0  0.00000000000E+00  0.00000000000E+00  0.27995333572E+04  0.27995333572E+04  0.50400000000E-02 0. -1.
         -1   -1    0    0    0  501 -0.00000000000E+00 -0.00000000000E+00 -0.84047281846E+03  0.84047281847E+03  0.50400000000E-02 0.  1.
    8880023    1    1    2    0    0 -0.10296301713E+03 -0.12724071714E+04  0.18605412795E+04  0.23505415231E+04  0.65864270000E+03 0.  0.
    8880022    1    1    2    0    0  0.10296301713E+03  0.12724071714E+04  0.98519259190E+02  0.12894646525E+04  0.15294330000E+03 0.  0.
<mgrwt>
<rscale>  0 0.13971911E+04</rscale>
<asrwt>0</asrwt>
<pdfrwt beam="1">  1        1 0.43069745E+00 0.14364650E+04</pdfrwt>
<pdfrwt beam="2">  1       -1 0.12930351E+00 0.14364650E+04</pdfrwt>
<totfact> 0.41192468E-01</totfact>
</mgrwt>
</event>
<event>
 4    1  0.1065596E-007  0.7004668E+03  0.7818608E-02  0.9995270E-01
         -1   -1    0    0    0  501 -0.00000000000E+00  0.00000000000E+00  0.26377924985E+03  0.26377924989E+03  0.50400000000E-02 0.  1.
          1   -1    0    0  501    0  0.00000000000E+00 -0.00000000000E+00 -0.14150751335E+04  0.14150751335E+04  0.50400000000E-02 0. -1.
    8880023    1    1    2    0    0 -0.21746090129E+03  0.97746199116E+02 -0.12018909099E+04  0.13911130539E+04  0.65864270000E+03 0.  0.
    8880022    1    1    2    0    0  0.21746090129E+03 -0.97746199116E+02  0.50595026254E+02  0.28774132955E+03  0.15294330000E+03 0.  1.
<mgrwt>
<rscale>  0 0.55858119E+03</rscale>
<asrwt>0</asrwt>
<pdfrwt beam="1">  1        1 0.21770386E+00 0.70046682E+03</pdfrwt>
<pdfrwt beam="2">  1       -1 0.40581424E-01 0.70046682E+03</pdfrwt>
<totfact> 0.45973897E+01</totfact>
</mgrwt>
</event>
<event>
 4    1  0.1065596E-007  0.1443094E+04  0.7818608E-02  0.8950901E-01
         -1   -1    0    0    0  501 -0.00000000000E+00  0.00000000000E+00  0.15548774285E+04  0.15548774286E+04  0.50400000000E-02 0.  1.
          1   -1    0    0  501    0  0.00000000000E+00 -0.00000000000E+00 -0.27878416529E+04  0.27878416529E+04  0.50400000000E-02 0. -1.
    8880023    1    1    2    0    0 -0.67294228515E+03  0.10935526545E+04 -0.22667824169E+04  0.26871586219E+04  0.65864270000E+03 0.  0.
    8880022    1    1    2    0    0  0.67294228515E+03 -0.10935526545E+04  0.10338181925E+04  0.16555604596E+04  0.15294330000E+03 0.  0.
<mgrwt>
<rscale>  0 0.14040373E+04</rscale>
<asrwt>0</asrwt>
<pdfrwt beam="1">  1        1 0.42889872E+00 0.14430935E+04</pdfrwt>
<pdfrwt beam="2">  1       -1 0.23921191E+00 0.14430935E+04</pdfrwt>
<totfact> 0.66433224E-02</totfact>
</mgrwt>
</event>
<event>
 4    1  0.1065596E-007  0.1665235E+04  0.7818608E-02  0.8800992E-01
          1   -1    0    0  501    0  0.00000000000E+00  0.00000000000E+00  0.15488578680E+04  0.15488578680E+04  0.50400000000E-02 0. -1.
         -1   -1    0    0    0  501 -0.00000000000E+00 -0.00000000000E+00 -0.18937240052E+04  0.18937240052E+04  0.50400000000E-02 0.  1.
    8880023    1    1    2    0    0  0.12982598970E+04  0.80852886244E+03  0.43197705297E+03  0.17203523076E+04  0.65864270000E+03 0.  0.
    8880022    1    1    2    0    0 -0.12982598970E+04 -0.80852886244E+03 -0.77684319016E+03  0.17222295656E+04  0.15294330000E+03 0.  0.
<mgrwt>
<rscale>  0 0.16322256E+04</rscale>
<asrwt>0</asrwt>
<pdfrwt beam="1">  1        1 0.23828583E+00 0.16652351E+04</pdfrwt>
<pdfrwt beam="2">  1       -1 0.29134215E+00 0.16652351E+04</pdfrwt>
<totfact> 0.21107684E-01</totfact>
</mgrwt>
</event>
<event>
 4    1  0.1065596E-007  0.9170617E+03  0.7818608E-02  0.9499179E-01
          1   -1    0    0  501    0  0.00000000000E+00  0.00000000000E+00  0.22984260777E+04  0.22984260777E+04  0.50400000000E-02 0. -1.
         -1   -1    0    0    0  501 -0.00000000000E+00 -0.00000000000E+00 -0.41232792355E+03  0.41232792358E+03  0.50400000000E-02 0.  1.
    8880023    1    1    2    0    0  0.20147253743E+03  0.60547566981E+03  0.25385384867E+03  0.95154818733E+03  0.65864270000E+03 0.  0.
    8880022    1    1    2    0    0 -0.20147253743E+03 -0.60547566981E+03  0.16322443055E+04  0.17592058139E+04  0.15294330000E+03 0.  0.
<mgrwt>
<rscale>  0 0.84344372E+03</rscale>
<asrwt>0</asrwt>
<pdfrwt beam="1">  1        1 0.35360401E+00 0.91706171E+03</pdfrwt>
<pdfrwt beam="2">  1       -1 0.63435065E-01 0.91706171E+03</pdfrwt>
<totfact> 0.48308464E+00</totfact>
</mgrwt>
</event>
<event>
 4    1  0.1065596E-007  0.7589537E+03  0.7818608E-02  0.9807824E-01
          1   -1    0    0  501    0  0.00000000000E+00  0.00000000000E+00  0.47909356441E+03  0.47909356443E+03  0.50400000000E-02 0. -1.
         -1   -1    0    0    0  501 -0.00000000000E+00 -0.00000000000E+00 -0.98083590636E+03  0.98083590637E+03  0.50400000000E-02 0.  1.
    8880023    1    1    2    0    0 -0.33359362490E+03 -0.17582909921E+03  0.65550743518E+02  0.76177928887E+03  0.65864270000E+03 0.  0.
    8880022    1    1    2    0    0  0.33359362490E+03  0.17582909921E+03 -0.56729308547E+03  0.69815018194E+03  0.15294330000E+03 0.  0.
<mgrwt>
<rscale>  0 0.64944365E+03</rscale>
<asrwt>0</asrwt>
<pdfrwt beam="1">  1        1 0.73706702E-01 0.75895374E+03</pdfrwt>
<pdfrwt beam="2">  1       -1 0.15089783E+00 0.75895374E+03</pdfrwt>
<totfact> 0.16560668E+01</totfact>
</mgrwt>
</event>
<event>
 4    1  0.1065596E-007  0.6619891E+03  0.7818608E-02  0.1022205E+00
          1   -1    0    0  501    0  0.00000000000E+00  0.00000000000E+00  0.11704616658E+04  0.11704616658E+04  0.50400000000E-02 0. -1.
         -1   -1    0    0    0  501 -0.00000000000E+00 -0.00000000000E+00 -0.52004878272E+03  0.52004878274E+03  0.50400000000E-02 0.  1.
    8880023    1    1    2    0    0 -0.64638618702E+02  0.15531291553E+02  0.10591785839E+04  0.12490351680E+04  0.65864270000E+03 0. -1.
    8880022    1    1    2    0    0  0.64638618702E+02 -0.15531291553E+02 -0.40876570089E+03  0.44147528049E+03  0.15294330000E+03 0.  0.
<mgrwt>
<rscale>  0 0.46899181E+03</rscale>
<asrwt>0</asrwt>
<pdfrwt beam="1">  1        1 0.18007102E+00 0.66198911E+03</pdfrwt>
<pdfrwt beam="2">  1       -1 0.80007506E-01 0.66198911E+03</pdfrwt>
<totfact> 0.18286599E+01</totfact>
</mgrwt>
</event>
<event>
 4    1  0.1065596E-007  0.9820159E+03  0.7818608E-02  0.9405474E-01
         -1   -1    0    0    0  501 -0.00000000000E+00  0.00000000000E+00  0.73349530388E+03  0.73349530390E+03  0.50400000000E-02 0.  1.
          1   -1    0    0  501    0  0.00000000000E+00 -0.00000000000E+00 -0.17761113291E+04  0.17761113291E+04  0.50400000000E-02 0. -1.
    8880023    1    1    2    0    0 -0.68014713517E+03 -0.26066231579E+03 -0.13789388734E+04  0.16928755392E+04  0.65864270000E+03 0.  0.
    8880022    1    1    2    0    0  0.68014713517E+03  0.26066231579E+03  0.33632284820E+03  0.81673109381E+03  0.15294330000E+03 0.  0.
<mgrwt>
<rscale>  0 0.91626562E+03</rscale>
<asrwt>0</asrwt>
<pdfrwt beam="1">  1        1 0.27324790E+00 0.98201587E+03</pdfrwt>
<pdfrwt beam="2">  1       -1 0.11284543E+00 0.98201587E+03</pdfrwt>
<totfact> 0.30702866E+00</totfact>
</mgrwt>
</event>
<event>
 4    1  0.1065596E-007  0.6871788E+03  0.7818608E-02  0.1005523E+00
         -1   -1    0    0    0  501 -0.00000000000E+00  0.00000000000E+00  0.36856011609E+03  0.36856011612E+03  0.50400000000E-02 0.  1.
          1   -1    0    0  501    0  0.00000000000E+00 -0.00000000000E+00 -0.17954185683E+04  0.17954185683E+04  0.50400000000E-02 0. -1.
    8880023    1    1    2    0    0 -0.18021158740E+03 -0.76995155463E+02 -0.16763824022E+04  0.18117595412E+04  0.65864270000E+03 0. -1.
    8880022    1    1    2    0    0  0.18021158740E+03  0.76995155463E+02  0.24952395005E+03  0.35221914324E+03  0.15294330000E+03 0.  0.
<mgrwt>
<rscale>  0 0.53293281E+03</rscale>
<asrwt>0</asrwt>
<pdfrwt beam="1">  1        1 0.27621824E+00 0.68717878E+03</pdfrwt>
<pdfrwt beam="2">  1       -1 0.56701557E-01 0.68717878E+03</pdfrwt>
<totfact> 0.13578805E+01</totfact>
</mgrwt>
</event>
<event>
 4    1  0.1065596E-007  0.8000572E+03  0.7818608E-02  0.9710672E-01
          1   -1    0    0  501    0  0.00000000000E+00  0.00000000000E+00  0.14869437439E+04  0.14869437439E+04  0.50400000000E-02 0. -1.
         -1   -1    0    0    0  501 -0.00000000000E+00 -0.00000000000E+00 -0.85731441408E+03  0.85731441410E+03  0.50400000000E-02 0.  1.
    8880023    1    1    2    0    0 -0.36084027394E+03  0.27581808786E+03  0.12962365431E+04  0.15232598934E+04  0.65864270000E+03 0.  0.
    8880022    1    1    2    0    0  0.36084027394E+03 -0.27581808786E+03 -0.66660721321E+03  0.82099826468E+03  0.15294330000E+03 0.  0.
<mgrwt>
<rscale>  0 0.70384903E+03</rscale>
<asrwt>0</asrwt>
<pdfrwt beam="1">  1        1 0.22876057E+00 0.80005720E+03</pdfrwt>
<pdfrwt beam="2">  1       -1 0.13189453E+00 0.80005720E+03</pdfrwt>
<totfact> 0.33797119E+00</totfact>
</mgrwt>
</event>
<event>
 4    1  0.2134616E-007  0.1402726E+04  0.7818608E-02  0.8981568E-01
          1   -1    0    0  501    0  0.00000000000E+00  0.00000000000E+00  0.25660485601E+04  0.25660485601E+04  0.50400000000E-02 0. -1.
         -1   -1    0    0    0  501 -0.00000000000E+00 -0.00000000000E+00 -0.21555215664E+04  0.21555215664E+04  0.50400000000E-02 0.  1.
    8880023    1    1    2    0    0  0.10127080099E+04 -0.71291770094E+03  0.21582681349E+04  0.25740553044E+04  0.65864270000E+03 0.  0.
    8880022    1    1    2    0    0 -0.10127080099E+04  0.71291770094E+03 -0.17477411412E+04  0.21475148221E+04  0.15294330000E+03 0.  0.
<mgrwt>
<rscale>  0 0.13623018E+04</rscale>
<asrwt>0</asrwt>
<pdfrwt beam="1">  1        1 0.39477671E+00 0.14027257E+04</pdfrwt>
<pdfrwt beam="2">  1       -1 0.33161870E+00 0.14027257E+04</pdfrwt>
<totfact> 0.23995978E-02</totfact>
</mgrwt>
</event>
<event>
 4    1  0.1065596E-007  0.1156363E+04  0.7818608E-02  0.9200754E-01
         -1   -1    0    0    0  501 -0.00000000000E+00  0.00000000000E+00  0.31074731031E+04  0.31074731031E+04  0.50400000000E-02 0.  1.
          1   -1    0    0  501    0  0.00000000000E+00 -0.00000000000E+00 -0.90114149549E+03  0.90114149550E+03  0.50400000000E-02 0. -1.
    8880023    1    1    2    0    0  0.19075134321E+03 -0.93111651565E+03 -0.40519779226E+03  0.12252997583E+04  0.65864270000E+03 0. -1.
    8880022    1    1    2    0    0 -0.19075134321E+03  0.93111651565E+03  0.26115293999E+04  0.27833148403E+04  0.15294330000E+03 0.  0.
<mgrwt>
<rscale>  0 0.11045647E+04</rscale>
<asrwt>0</asrwt>
<pdfrwt beam="1">  1        1 0.13863715E+00 0.11563625E+04</pdfrwt>
<pdfrwt beam="2">  1       -1 0.47807279E+00 0.11563625E+04</pdfrwt>
<totfact> 0.37636161E-02</totfact>
</mgrwt>
</event>
<event>
 4    1  0.1065596E-007  0.9118835E+03  0.7818608E-02  0.9507218E-01
          1   -1    0    0  501    0  0.00000000000E+00  0.00000000000E+00  0.34292789988E+04  0.34292789988E+04  0.50400000000E-02 0. -1.
         -1   -1    0    0    0  501 -0.00000000000E+00 -0.00000000000E+00 -0.18621617779E+03  0.18621617786E+03  0.50400000000E-02 0.  1.
    8880023    1    1    2    0    0 -0.36029860092E+03 -0.51759659813E+03  0.22656479182E+04  0.24422718963E+04  0.65864270000E+03 0.  0.
    8880022    1    1    2    0    0  0.36029860092E+03  0.51759659813E+03  0.97741490285E+03  0.11732232803E+04  0.15294330000E+03 0.  0.
<mgrwt>
<rscale>  0 0.83753767E+03</rscale>
<asrwt>0</asrwt>
<pdfrwt beam="1">  1        1 0.52758139E+00 0.91188350E+03</pdfrwt>
<pdfrwt beam="2">  1       -1 0.28648642E-01 0.91188350E+03</pdfrwt>
<totfact> 0.32954866E+00</totfact>
</mgrwt>
</event>
<event>
 4    1  0.1065596E-007  0.1005733E+04  0.7818608E-02  0.9374096E-01
          1   -1    0    0  501    0  0.00000000000E+00  0.00000000000E+00  0.15457154793E+04  0.15457154794E+04  0.50400000000E-02 0. -1.
         -1   -1    0    0    0  501 -0.00000000000E+00 -0.00000000000E+00 -0.66825746569E+03  0.66825746571E+03  0.50400000000E-02 0.  1.
    8880023    1    1    2    0    0  0.52323095718E+03  0.55128710430E+03  0.10123779633E+04  0.14270274884E+04  0.65864270000E+03 0.  0.
    8880022    1    1    2    0    0 -0.52323095718E+03 -0.55128710430E+03 -0.13491994961E+03  0.78694545665E+03  0.15294330000E+03 0.  0.
<mgrwt>
<rscale>  0 0.94238518E+03</rscale>
<asrwt>0</asrwt>
<pdfrwt beam="1">  1        1 0.23780238E+00 0.10057327E+04</pdfrwt>
<pdfrwt beam="2">  1       -1 0.10280884E+00 0.10057327E+04</pdfrwt>
<totfact> 0.54670056E+00</totfact>
</mgrwt>
</event>
<event>
 4    1  0.1065596E-007  0.9131547E+03  0.7818608E-02  0.9505236E-01
          1   -1    0    0  501    0  0.00000000000E+00  0.00000000000E+00  0.11092187737E+04  0.11092187737E+04  0.50400000000E-02 0. -1.
         -1   -1    0    0    0  501 -0.00000000000E+00 -0.00000000000E+00 -0.89556317040E+03  0.89556317041E+03  0.50400000000E-02 0.  1.
    8880023    1    1    2    0    0 -0.49392778235E+03 -0.39506547470E+03  0.73401368946E+03  0.11715919452E+04  0.65864270000E+03 0.  0.
    8880022    1    1    2    0    0  0.49392778235E+03  0.39506547470E+03 -0.52035808616E+03  0.83318999893E+03  0.15294330000E+03 0.  0.
<mgrwt>
<rscale>  0 0.83898921E+03</rscale>
<asrwt>0</asrwt>
<pdfrwt beam="1">  1        1 0.17064904E+00 0.91315475E+03</pdfrwt>
<pdfrwt beam="2">  1       -1 0.13777895E+00 0.91315475E+03</pdfrwt>
<totfact> 0.55259866E+00</totfact>
</mgrwt>
</event>
<event>
 4    1  0.1065596E-007  0.1295131E+04  0.7818608E-02  0.9069776E-01
          1   -1    0    0  501    0  0.00000000000E+00  0.00000000000E+00  0.16289502766E+04  0.16289502766E+04  0.50400000000E-02 0. -1.
         -1   -1    0    0    0  501 -0.00000000000E+00 -0.00000000000E+00 -0.10091336888E+04  0.10091336888E+04  0.50400000000E-02 0.  1.
    8880023    1    1    2    0    0  0.31304143548E+03 -0.10703077412E+04  0.76339841591E+03  0.15033765160E+04  0.65864270000E+03 0.  0.
    8880022    1    1    2    0    0 -0.31304143548E+03  0.10703077412E+04 -0.14358182813E+03  0.11347074493E+04  0.15294330000E+03 0.  0.
<mgrwt>
<rscale>  0 0.12504892E+04</rscale>
<asrwt>0</asrwt>
<pdfrwt beam="1">  1        1 0.25060773E+00 0.12951308E+04</pdfrwt>
<pdfrwt beam="2">  1       -1 0.15525134E+00 0.12951308E+04</pdfrwt>
<totfact> 0.16435831E+00</totfact>
</mgrwt>
</event>
<event>
 4    1  0.1065596E-007  0.6860120E+03  0.7818608E-02  0.1006109E+00
         -1   -1    0    0    0  501 -0.00000000000E+00  0.00000000000E+00  0.84862245760E+03  0.84862245761E+03  0.50400000000E-02 0.  1.
          1   -1    0    0  501    0  0.00000000000E+00 -0.00000000000E+00 -0.15472903310E+04  0.15472903310E+04  0.50400000000E-02 0. -1.
    8880023    1    1    2    0    0  0.55396209564E+02  0.18366705049E+03 -0.14507788787E+04  0.16047965249E+04  0.65864270000E+03 0. -1.
    8880022    1    1    2    0    0 -0.55396209564E+02 -0.18366705049E+03  0.75211100523E+03  0.79111626369E+03  0.15294330000E+03 0.  0.
<mgrwt>
<rscale>  0 0.53050922E+03</rscale>
<asrwt>0</asrwt>
<pdfrwt beam="1">  1        1 0.23804467E+00 0.68601205E+03</pdfrwt>
<pdfrwt beam="2">  1       -1 0.13055730E+00 0.68601205E+03</pdfrwt>
<totfact> 0.32188516E+00</totfact>
</mgrwt>
</event>
<event>
 4    1  0.1065596E-007  0.7230284E+03  0.7818608E-02  0.9912469E-01
         -1   -1    0    0    0  501 -0.00000000000E+00  0.00000000000E+00  0.64258874338E+03  0.64258874340E+03  0.50400000000E-02 0.  1.
          1   -1    0    0  501    0  0.00000000000E+00 -0.00000000000E+00 -0.70472631127E+03  0.70472631129E+03  0.50400000000E-02 0. -1.
    8880023    1    1    2    0    0  0.29802710972E+03 -0.11818437817E+02 -0.43669833170E+03  0.84467477337E+03  0.65864270000E+03 0. -1.
    8880022    1    1    2    0    0 -0.29802710972E+03  0.11818437817E+02  0.37456076381E+03  0.50264028131E+03  0.15294330000E+03 0.  0.
<mgrwt>
<rscale>  0 0.59660771E+03</rscale>
<asrwt>0</asrwt>
<pdfrwt beam="1">  1        1 0.10841943E+00 0.72302838E+03</pdfrwt>
<pdfrwt beam="2">  1       -1 0.98859807E-01 0.72302838E+03</pdfrwt>
<totfact> 0.27133215E+01</totfact>
</mgrwt>
</event>
<event>
 4    1  0.1065596E-007  0.7628506E+03  0.7818608E-02  0.9797783E-01
          1   -1    0    0  501    0  0.00000000000E+00  0.00000000000E+00  0.27113013748E+04  0.27113013748E+04  0.50400000000E-02 0. -1.
         -1   -1    0    0    0  501 -0.00000000000E+00 -0.00000000000E+00 -0.68109968760E+03  0.68109968762E+03  0.50400000000E-02 0.  1.
    8880023    1    1    2    0    0  0.33631202422E+03  0.18715001191E+03  0.25877579214E+04  0.26978569589E+04  0.65864270000E+03 0. -1.
    8880022    1    1    2    0    0 -0.33631202422E+03 -0.18715001191E+03 -0.55755623414E+03  0.69454410359E+03  0.15294330000E+03 0.  0.
<mgrwt>
<rscale>  0 0.65481677E+03</rscale>
<asrwt>0</asrwt>
<pdfrwt beam="1">  1        1 0.41712329E+00 0.76285065E+03</pdfrwt>
<pdfrwt beam="2">  1       -1 0.10478457E+00 0.76285065E+03</pdfrwt>
<totfact> 0.88167241E-01</totfact>
</mgrwt>
</event>
<event>
 4    1  0.1065596E-007  0.7628979E+03  0.7818608E-02  0.9797662E-01
         -1   -1    0    0    0  501 -0.00000000000E+00  0.00000000000E+00  0.79810922409E+03  0.79810922411E+03  0.50400000000E-02 0.  1.
          1   -1    0    0  501    0  0.00000000000E+00 -0.00000000000E+00 -0.88882096330E+03  0.88882096331E+03  0.50400000000E-02 0. -1.
    8880023    1    1    2    0    0  0.35021346995E+03 -0.15985461159E+03 -0.64218779666E+03  0.99720526665E+03  0.65864270000E+03 0. -1.
    8880022    1    1    2    0    0 -0.35021346995E+03  0.15985461159E+03  0.55147605745E+03  0.68972492078E+03  0.15294330000E+03 0.  0.
<mgrwt>
<rscale>  0 0.65488157E+03</rscale>
<asrwt>0</asrwt>
<pdfrwt beam="1">  1        1 0.13674169E+00 0.76289788E+03</pdfrwt>
<pdfrwt beam="2">  1       -1 0.12278603E+00 0.76289788E+03</pdfrwt>
<totfact> 0.11193031E+01</totfact>
</mgrwt>
</event>
<event>
 4    1  0.1065596E-007  0.8353676E+03  0.7818608E-02  0.9638978E-01
          1   -1    0    0  501    0  0.00000000000E+00  0.00000000000E+00  0.13569478116E+04  0.13569478116E+04  0.50400000000E-02 0. -1.
         -1   -1    0    0    0  501 -0.00000000000E+00 -0.00000000000E+00 -0.50270159124E+03  0.50270159126E+03  0.50400000000E-02 0.  1.
    8880023    1    1    2    0    0  0.42434127087E+03  0.28976423180E+03  0.10010301693E+04  0.13038022972E+04  0.65864270000E+03 0.  0.
    8880022    1    1    2    0    0 -0.42434127087E+03 -0.28976423180E+03 -0.14678394890E+03  0.55584710566E+03  0.15294330000E+03 0.  0.
<mgrwt>
<rscale>  0 0.74769235E+03</rscale>
<asrwt>0</asrwt>
<pdfrwt beam="1">  1        1 0.20876120E+00 0.83536760E+03</pdfrwt>
<pdfrwt beam="2">  1       -1 0.77338707E-01 0.83536760E+03</pdfrwt>
<totfact> 0.14131919E+01</totfact>
</mgrwt>
</event>
<event>
 4    1  0.1065596E-007  0.8306921E+03  0.7818608E-02  0.9647987E-01
          1   -1    0    0  501    0  0.00000000000E+00  0.00000000000E+00  0.24274847116E+04  0.24274847116E+04  0.50400000000E-02 0. -1.
         -1   -1    0    0    0  501 -0.00000000000E+00 -0.00000000000E+00 -0.20670153133E+03  0.20670153139E+03  0.50400000000E-02 0.  1.
    8880023    1    1    2    0    0 -0.16114185366E+03 -0.47986710948E+03  0.16994631383E+04  0.18916194925E+04  0.65864270000E+03 0.  0.
    8880022    1    1    2    0    0  0.16114185366E+03  0.47986710948E+03  0.52132004200E+03  0.74256675051E+03  0.15294330000E+03 0.  0.
<mgrwt>
<rscale>  0 0.74199876E+03</rscale>
<asrwt>0</asrwt>
<pdfrwt beam="1">  1        1 0.37345916E+00 0.83069209E+03</pdfrwt>
<pdfrwt beam="2">  1       -1 0.31800238E-01 0.83069209E+03</pdfrwt>
<totfact> 0.14519535E+01</totfact>
</mgrwt>
</event>
<event>
 4    1  0.1065596E-007  0.9324024E+03  0.7818608E-02  0.9475898E-01
         -1   -1    0    0    0  501 -0.00000000000E+00  0.00000000000E+00  0.70052759725E+03  0.70052759727E+03  0.50400000000E-02 0.  1.
          1   -1    0    0  501    0  0.00000000000E+00 -0.00000000000E+00 -0.28678975855E+04  0.28678975855E+04  0.50400000000E-02 0. -1.
    8880023    1    1    2    0    0 -0.18103967301E+02 -0.65972441935E+03 -0.26016715099E+04  0.27637056491E+04  0.65864270000E+03 0.  0.
    8880022    1    1    2    0    0  0.18103967301E+02  0.65972441935E+03  0.43430152167E+03  0.80471953366E+03  0.15294330000E+03 0.  0.
<mgrwt>
<rscale>  0 0.86084288E+03</rscale>
<asrwt>0</asrwt>
<pdfrwt beam="1">  1        1 0.44121501E+00 0.93240242E+03</pdfrwt>
<pdfrwt beam="2">  1       -1 0.10777348E+00 0.93240242E+03</pdfrwt>
<totfact> 0.61929872E-01</totfact>
</mgrwt>
</event>
<event>
 4    1  0.1065596E-007  0.1247399E+04  0.7818608E-02  0.9112370E-01
          1   -1    0    0  501    0  0.00000000000E+00  0.00000000000E+00  0.12278818210E+04  0.12278818211E+04  0.50400000000E-02 0. -1.
         -1   -1    0    0    0  501 -0.00000000000E+00 -0.00000000000E+00 -0.22635069844E+04  0.22635069844E+04  0.50400000000E-02 0.  1.
    8880023    1    1    2    0    0  0.98752193266E+03  0.38339769262E+03  0.71626415084E+03  0.14384150647E+04  0.65864270000E+03 0. -1.
    8880022    1    1    2    0    0 -0.98752193266E+03 -0.38339769262E+03 -0.17518893142E+04  0.20529737408E+04  0.15294330000E+03 0.  0.
<mgrwt>
<rscale>  0 0.12005559E+04</rscale>
<asrwt>0</asrwt>
<pdfrwt beam="1">  1        1 0.18890490E+00 0.12473987E+04</pdfrwt>
<pdfrwt beam="2">  1       -1 0.34823184E+00 0.12473987E+04</pdfrwt>
<totfact> 0.15967880E-01</totfact>
</mgrwt>
</event>
<event>
 4    1  0.1065596E-007  0.7001015E+03  0.7818608E-02  0.9996780E-01
         -1   -1    0    0    0  501 -0.00000000000E+00  0.00000000000E+00  0.56562337536E+03  0.56562337539E+03  0.50400000000E-02 0.  1.
          1   -1    0    0  501    0  0.00000000000E+00 -0.00000000000E+00 -0.75044949927E+03  0.75044949929E+03  0.50400000000E-02 0. -1.
    8880023    1    1    2    0    0 -0.23244914084E+03  0.47950714012E+02 -0.52419904951E+03  0.87460089402E+03  0.65864270000E+03 0. -1.
    8880022    1    1    2    0    0  0.23244914084E+03 -0.47950714012E+02  0.33937292560E+03  0.44147198065E+03  0.15294330000E+03 0.  0.
<mgrwt>
<rscale>  0 0.55791631E+03</rscale>
<asrwt>0</asrwt>
<pdfrwt beam="1">  1        1 0.11545377E+00 0.70010148E+03</pdfrwt>
<pdfrwt beam="2">  1       -1 0.87018980E-01 0.70010148E+03</pdfrwt>
<totfact> 0.32791423E+01</totfact>
</mgrwt>
</event>
<event>
 4    1  0.1065596E-007  0.6895744E+03  0.7818608E-02  0.1004356E+00
          1   -1    0    0  501    0  0.00000000000E+00  0.00000000000E+00  0.15747269784E+04  0.15747269784E+04  0.50400000000E-02 0. -1.
         -1   -1    0    0    0  501 -0.00000000000E+00 -0.00000000000E+00 -0.18968396360E+03  0.18968396367E+03  0.50400000000E-02 0.  1.
    8880023    1    1    2    0    0  0.19452856707E+03  0.62138739157E+02  0.13376199461E+04  0.15049052836E+04  0.65864270000E+03 0. -1.
    8880022    1    1    2    0    0 -0.19452856707E+03 -0.62138739157E+02  0.47423068754E+02  0.25950565847E+03  0.15294330000E+03 0.  0.
<mgrwt>
<rscale>  0 0.53780972E+03</rscale>
<asrwt>0</asrwt>
<pdfrwt beam="1">  1        1 0.24226569E+00 0.68957436E+03</pdfrwt>
<pdfrwt beam="2">  1       -1 0.29182148E-01 0.68957436E+03</pdfrwt>
<totfact> 0.64286109E+01</totfact>
</mgrwt>
</event>
<event>
 4    1  0.1065596E-007  0.1389711E+04  0.7818608E-02  0.8991719E-01
          1   -1    0    0  501    0  0.00000000000E+00  0.00000000000E+00  0.22490891199E+04  0.22490891199E+04  0.50400000000E-02 0. -1.
         -1   -1    0    0    0  501 -0.00000000000E+00 -0.00000000000E+00 -0.89960871727E+03  0.89960871729E+03  0.50400000000E-02 0.  1.
    8880023    1    1    2    0    0  0.11282423533E+04  0.47387299040E+03  0.13176152033E+04  0.19150473751E+04  0.65864270000E+03 0.  0.
    8880022    1    1    2    0    0 -0.11282423533E+04 -0.47387299040E+03  0.31865199355E+02  0.12336504621E+04  0.15294330000E+03 0.  0.
<mgrwt>
<rscale>  0 0.13488236E+04</rscale>
<asrwt>0</asrwt>
<pdfrwt beam="1">  1        1 0.34601371E+00 0.13897110E+04</pdfrwt>
<pdfrwt beam="2">  1       -1 0.13840134E+00 0.13897110E+04</pdfrwt>
<totfact> 0.83845431E-01</totfact>
</mgrwt>
</event>
<event>
 4    1  0.1065596E-007  0.7281719E+03  0.7818608E-02  0.9895847E-01
          1   -1    0    0  501    0  0.00000000000E+00  0.00000000000E+00  0.31970914412E+03  0.31970914416E+03  0.50400000000E-02 0. -1.
         -1   -1    0    0    0  501 -0.00000000000E+00 -0.00000000000E+00 -0.11743713002E+04  0.11743713002E+04  0.50400000000E-02 0.  1.
    8880023    1    1    2    0    0  0.27726163474E+03  0.13982160201E+03 -0.20258800926E+03  0.75582815656E+03  0.65864270000E+03 0. -1.
    8880022    1    1    2    0    0 -0.27726163474E+03 -0.13982160201E+03 -0.65207414684E+03  0.73825228783E+03  0.15294330000E+03 0.  0.
<mgrwt>
<rscale>  0 0.60462997E+03</rscale>
<asrwt>0</asrwt>
<pdfrwt beam="1">  1        1 0.49186023E-01 0.72817189E+03</pdfrwt>
<pdfrwt beam="2">  1       -1 0.18067251E+00 0.72817189E+03</pdfrwt>
<totfact> 0.17091540E+01</totfact>
</mgrwt>
</event>
<event>
 4    1  0.1065596E-007  0.9993503E+03  0.7818608E-02  0.9382408E-01
         -1   -1    0    0    0  501 -0.00000000000E+00  0.00000000000E+00  0.44755101157E+03  0.44755101159E+03  0.50400000000E-02 0.  1.
          1   -1    0    0  501    0  0.00000000000E+00 -0.00000000000E+00 -0.17951621092E+04  0.17951621092E+04  0.50400000000E-02 0. -1.
    8880023    1    1    2    0    0  0.24540425184E+03  0.71039955231E+03 -0.56996863313E+03  0.11504630458E+04  0.65864270000E+03 0.  1.
    8880022    1    1    2    0    0 -0.24540425184E+03 -0.71039955231E+03 -0.77764246454E+03  0.10922500750E+04  0.15294330000E+03 0.  0.
<mgrwt>
<rscale>  0 0.93537668E+03</rscale>
<asrwt>0</asrwt>
<pdfrwt beam="1">  1        1 0.27617878E+00 0.99935028E+03</pdfrwt>
<pdfrwt beam="2">  1       -1 0.68854003E-01 0.99935028E+03</pdfrwt>
<totfact> 0.88399948E+00</totfact>
</mgrwt>
</event>
<event>
 4    1  0.1065596E-007  0.1506308E+04  0.7818608E-02  0.8905194E-01
         -1   -1    0    0    0  501 -0.00000000000E+00  0.00000000000E+00  0.17738641292E+04  0.17738641293E+04  0.50400000000E-02 0.  1.
          1   -1    0    0  501    0  0.00000000000E+00 -0.00000000000E+00 -0.16613580738E+04  0.16613580738E+04  0.50400000000E-02 0. -1.
    8880023    1    1    2    0    0 -0.40822763284E+03  0.12917061601E+04 -0.88401587924E+03  0.17465534304E+04  0.65864270000E+03 0.  0.
    8880022    1    1    2    0    0  0.40822763284E+03 -0.12917061601E+04  0.99652193469E+03  0.16886687726E+04  0.15294330000E+03 0.  0.
<mgrwt>
<rscale>  0 0.14692039E+04</rscale>
<asrwt>0</asrwt>
<pdfrwt beam="1">  1        1 0.25559355E+00 0.15063083E+04</pdfrwt>
<pdfrwt beam="2">  1       -1 0.27290217E+00 0.15063083E+04</pdfrwt>
<totfact> 0.23650341E-01</totfact>
</mgrwt>
</event>
<event>
 4    1  0.1065596E-007  0.8704591E+03  0.7818608E-02  0.9575223E-01
          1   -1    0    0  501    0  0.00000000000E+00  0.00000000000E+00  0.60469080797E+03  0.60469080799E+03  0.50400000000E-02 0. -1.
         -1   -1    0    0    0  501 -0.00000000000E+00 -0.00000000000E+00 -0.13059087652E+04  0.13059087652E+04  0.50400000000E-02 0.  1.
    8880023    1    1    2    0    0 -0.56248438524E+03 -0.86603658073E+02  0.14189643962E+03  0.88194879844E+03  0.65864270000E+03 0. -1.
    8880022    1    1    2    0    0  0.56248438524E+03  0.86603658073E+02 -0.84311439688E+03  0.10286507748E+04  0.15294330000E+03 0.  0.
<mgrwt>
<rscale>  0 0.78958037E+03</rscale>
<asrwt>0</asrwt>
<pdfrwt beam="1">  1        1 0.93029355E-01 0.87045912E+03</pdfrwt>
<pdfrwt beam="2">  1       -1 0.20090904E+00 0.87045912E+03</pdfrwt>
<totfact> 0.51208561E+00</totfact>
</mgrwt>
</event>
<event>
 4    1  0.1065596E-007  0.1200059E+04  0.7818608E-02  0.9157065E-01
          1   -1    0    0  501    0  0.00000000000E+00  0.00000000000E+00  0.21576518173E+04  0.21576518173E+04  0.50400000000E-02 0. -1.
         -1   -1    0    0    0  501 -0.00000000000E+00 -0.00000000000E+00 -0.76395307369E+03  0.76395307371E+03  0.50400000000E-02 0.  1.
    8880023    1    1    2    0    0 -0.52903738898E+03  0.85232072725E+03  0.14774314324E+04  0.19034035370E+04  0.65864270000E+03 0.  0.
    8880022    1    1    2    0    0  0.52903738898E+03 -0.85232072725E+03 -0.83732688797E+02  0.10182013540E+04  0.15294330000E+03 0.  0.
<mgrwt>
<rscale>  0 0.11507791E+04</rscale>
<asrwt>0</asrwt>
<pdfrwt beam="1">  1        1 0.33194643E+00 0.12000589E+04</pdfrwt>
<pdfrwt beam="2">  1       -1 0.11753124E+00 0.12000589E+04</pdfrwt>
<totfact> 0.14949363E+00</totfact>
</mgrwt>
</event>
<event>
 4    1  0.1065596E-007  0.1026654E+04  0.7818608E-02  0.9347487E-01
         -1   -1    0    0    0  501 -0.00000000000E+00  0.00000000000E+00  0.10679536630E+04  0.10679536630E+04  0.50400000000E-02 0.  1.
          1   -1    0    0  501    0  0.00000000000E+00 -0.00000000000E+00 -0.20994155455E+04  0.20994155455E+04  0.50400000000E-02 0. -1.
    8880023    1    1    2    0    0 -0.19126778661E+03 -0.76395398784E+03 -0.17898542838E+04  0.20633946848E+04  0.65864270000E+03 0. -1.
    8880022    1    1    2    0    0  0.19126778661E+03  0.76395398784E+03  0.75839240131E+03  0.11039745238E+04  0.15294330000E+03 0.  0.
<mgrwt>
<rscale>  0 0.96526214E+03</rscale>
<asrwt>0</asrwt>
<pdfrwt beam="1">  1        1 0.32298701E+00 0.10266544E+04</pdfrwt>
<pdfrwt beam="2">  1       -1 0.16430056E+00 0.10266544E+04</pdfrwt>
<totfact> 0.69757276E-01</totfact>
</mgrwt>
</event>
<event>
 4    1  0.1065596E-007  0.1030556E+04  0.7818608E-02  0.9342629E-01
          1   -1    0    0  501    0  0.00000000000E+00  0.00000000000E+00  0.19917378878E+04  0.19917378878E+04  0.50400000000E-02 0. -1.
         -1   -1    0    0    0  501 -0.00000000000E+00 -0.00000000000E+00 -0.62409127176E+03  0.62409127178E+03  0.50400000000E-02 0.  1.
    8880023    1    1    2    0    0 -0.48841140578E+03  0.62425122342E+03  0.14772401068E+04  0.18011895599E+04  0.65864270000E+03 0. -1.
    8880022    1    1    2    0    0  0.48841140578E+03 -0.62425122342E+03 -0.10959349073E+03  0.81463959973E+03  0.15294330000E+03 0.  1.
<mgrwt>
<rscale>  0 0.96951281E+03</rscale>
<asrwt>0</asrwt>
<pdfrwt beam="1">  1        1 0.30642121E+00 0.10305559E+04</pdfrwt>
<pdfrwt beam="2">  1       -1 0.96014043E-01 0.10305559E+04</pdfrwt>
<totfact> 0.31777785E+00</totfact>
</mgrwt>
</event>
<event>
 4    1  0.1065596E-007  0.8965721E+03  0.7818608E-02  0.9531557E-01
          1   -1    0    0  501    0  0.00000000000E+00  0.00000000000E+00  0.23677520791E+04  0.23677520791E+04  0.50400000000E-02 0. -1.
         -1   -1    0    0    0  501 -0.00000000000E+00 -0.00000000000E+00 -0.29043510679E+03  0.29043510683E+03  0.50400000000E-02 0.  1.
    8880023    1    1    2    0    0  0.16284118162E+03 -0.58610073900E+03  0.17113805565E+04  0.19320105958E+04  0.65864270000E+03 0. -1.
    8880022    1    1    2    0    0 -0.16284118162E+03  0.58610073900E+03  0.36593641581E+03  0.72617659018E+03  0.15294330000E+03 0.  0.
<mgrwt>
<rscale>  0 0.81996701E+03</rscale>
<asrwt>0</asrwt>
<pdfrwt beam="1">  1        1 0.36426957E+00 0.89657210E+03</pdfrwt>
<pdfrwt beam="2">  1       -1 0.44682322E-01 0.89657210E+03</pdfrwt>
<totfact> 0.85434928E+00</totfact>
</mgrwt>
</event>
<event>
 4    1  0.1065596E-007  0.9388294E+03  0.7818608E-02  0.9466372E-01
          1   -1    0    0  501    0  0.00000000000E+00  0.00000000000E+00  0.40455248419E+04  0.40455248419E+04  0.50400000000E-02 0. -1.
         -1   -1    0    0    0  501 -0.00000000000E+00 -0.00000000000E+00 -0.64773531962E+03  0.64773531964E+03  0.50400000000E-02 0.  1.
    8880023    1    1    2    0    0  0.18425410879E+03 -0.64314918395E+03  0.37888143244E+04  0.39033978327E+04  0.65864270000E+03 0.  0.
    8880022    1    1    2    0    0 -0.18425410879E+03  0.64314918395E+03 -0.39102480220E+03  0.78986232875E+03  0.15294330000E+03 0.  0.
<mgrwt>
<rscale>  0 0.86809162E+03</rscale>
<asrwt>0</asrwt>
<pdfrwt beam="1">  1        1 0.62238844E+00 0.93882941E+03</pdfrwt>
<pdfrwt beam="2">  1       -1 0.99651587E-01 0.93882941E+03</pdfrwt>
<totfact> 0.89910288E-02</totfact>
</mgrwt>
</event>
<event>
 4    1  0.1065596E-007  0.1039750E+04  0.7818608E-02  0.9331306E-01
         -1   -1    0    0    0  501 -0.00000000000E+00  0.00000000000E+00  0.20078384242E+04  0.20078384242E+04  0.50400000000E-02 0.  1.
          1   -1    0    0  501    0  0.00000000000E+00 -0.00000000000E+00 -0.17130319007E+04  0.17130319007E+04  0.50400000000E-02 0. -1.
    8880023    1    1    2    0    0  0.50922241846E+03 -0.62286558630E+03 -0.14553386481E+04  0.17885999544E+04  0.65864270000E+03 0.  0.
    8880022    1    1    2    0    0 -0.50922241846E+03  0.62286558630E+03  0.17501451716E+04  0.19322703705E+04  0.15294330000E+03 0.  0.
<mgrwt>
<rscale>  0 0.97951124E+03</rscale>
<asrwt>0</asrwt>
<pdfrwt beam="1">  1        1 0.26354337E+00 0.10397496E+04</pdfrwt>
<pdfrwt beam="2">  1       -1 0.30889822E+00 0.10397496E+04</pdfrwt>
<totfact> 0.13669182E-01</totfact>
</mgrwt>
</event>
<event>
 4    1  0.1065596E-007  0.7542892E+03  0.7818608E-02  0.9820123E-01
          1   -1    0    0  501    0  0.00000000000E+00  0.00000000000E+00  0.30411174000E+04  0.30411174000E+04  0.50400000000E-02 0. -1.
         -1   -1    0    0    0  501 -0.00000000000E+00 -0.00000000000E+00 -0.29976268133E+03  0.29976268137E+03  0.50400000000E-02 0.  1.
    8880023    1    1    2    0    0 -0.30053078223E+03 -0.21171506063E+03  0.28335123596E+04  0.29321910777E+04  0.65864270000E+03 0. -1.
    8880022    1    1    2    0    0  0.30053078223E+03  0.21171506063E+03 -0.92157640870E+02  0.40868900371E+03  0.15294330000E+03 0.  0.
<mgrwt>
<rscale>  0 0.64293729E+03</rscale>
<asrwt>0</asrwt>
<pdfrwt beam="1">  1        1 0.46786418E+00 0.75428922E+03</pdfrwt>
<pdfrwt beam="2">  1       -1 0.46117339E-01 0.75428922E+03</pdfrwt>
<totfact> 0.27971769E+00</totfact>
</mgrwt>
</event>
<event>
 4    1  0.1065596E-007  0.7234312E+03  0.7818608E-02  0.9911142E-01
         -1   -1    0    0    0  501 -0.00000000000E+00  0.00000000000E+00  0.29034379160E+03  0.29034379164E+03  0.50400000000E-02 0.  1.
          1   -1    0    0  501    0  0.00000000000E+00 -0.00000000000E+00 -0.13173554854E+04  0.13173554854E+04  0.50400000000E-02 0. -1.
    8880023    1    1    2    0    0 -0.96552698699E+01  0.29908070098E+03 -0.10452127108E+04  0.12711499939E+04  0.65864270000E+03 0. -1.
    8880022    1    1    2    0    0  0.96552698699E+01 -0.29908070098E+03  0.18201017027E+02  0.33654928312E+03  0.15294330000E+03 0.  0.
<mgrwt>
<rscale>  0 0.59724302E+03</rscale>
<asrwt>0</asrwt>
<pdfrwt beam="1">  1        1 0.20267007E+00 0.72343120E+03</pdfrwt>
<pdfrwt beam="2">  1       -1 0.44668277E-01 0.72343120E+03</pdfrwt>
<totfact> 0.44972216E+01</totfact>
</mgrwt>
</event>
<event>
 4    1  0.1065596E-007  0.6845684E+03  0.7818608E-02  0.1006849E+00
          1   -1    0    0  501    0  0.00000000000E+00  0.00000000000E+00  0.27966086404E+04  0.27966086404E+04  0.50400000000E-02 0. -1.
         -1   -1    0    0    0  501 -0.00000000000E+00 -0.00000000000E+00 -0.94592129878E+02  0.94592130012E+02  0.50400000000E-02 0.  1.
    8880023    1    1    2    0    0  0.81500593025E+01  0.18643286029E+03  0.24434978489E+04  0.25375806547E+04  0.65864270000E+03 0. -1.
    8880022    1    1    2    0    0 -0.81500593025E+01 -0.18643286029E+03  0.25851866156E+03  0.35362011574E+03  0.15294330000E+03 0.  0.
<mgrwt>
<rscale>  0 0.52746330E+03</rscale>
<asrwt>0</asrwt>
<pdfrwt beam="1">  1        1 0.43024737E+00 0.68456836E+03</pdfrwt>
<pdfrwt beam="2">  1       -1 0.14552639E-01 0.68456836E+03</pdfrwt>
<totfact> 0.30753798E+01</totfact>
</mgrwt>
</event>
<event>
 4    1  0.1065596E-007  0.1137981E+04  0.7818608E-02  0.9219902E-01
          1   -1    0    0  501    0  0.00000000000E+00  0.00000000000E+00  0.25085216091E+04  0.25085216091E+04  0.50400000000E-02 0. -1.
         -1   -1    0    0    0  501 -0.00000000000E+00 -0.00000000000E+00 -0.44338964522E+03  0.44338964525E+03  0.50400000000E-02 0.  1.
    8880023    1    1    2    0    0  0.25464420249E+03 -0.89238268376E+03  0.13778804310E+04  0.17870521012E+04  0.65864270000E+03 0. -1.
    8880022    1    1    2    0    0 -0.25464420249E+03  0.89238268376E+03  0.68725153285E+03  0.11648591531E+04  0.15294330000E+03 0.  0.
<mgrwt>
<rscale>  0 0.10850345E+04</rscale>
<asrwt>0</asrwt>
<pdfrwt beam="1">  1        1 0.38592640E+00 0.11379810E+04</pdfrwt>
<pdfrwt beam="2">  1       -1 0.68213792E-01 0.11379810E+04</pdfrwt>
<totfact> 0.29092079E+00</totfact>
</mgrwt>
</event>
<event>
 4    1  0.1065596E-007  0.7817198E+03  0.7818608E-02  0.9751813E-01
         -1   -1    0    0    0  501 -0.00000000000E+00  0.00000000000E+00  0.13971356160E+03  0.13971356169E+03  0.50400000000E-02 0.  1.
          1   -1    0    0  501    0  0.00000000000E+00 -0.00000000000E+00 -0.33646540695E+04  0.33646540695E+04  0.50400000000E-02 0. -1.
    8880023    1    1    2    0    0  0.43356905253E+02 -0.41880278118E+03 -0.27165015683E+04  0.28267413336E+04  0.65864270000E+03 0. -1.
    8880022    1    1    2    0    0 -0.43356905253E+02  0.41880278118E+03 -0.50843893961E+03  0.67762629751E+03  0.15294330000E+03 0.  0.
<mgrwt>
<rscale>  0 0.68013932E+03</rscale>
<asrwt>0</asrwt>
<pdfrwt beam="1">  1        1 0.51763903E+00 0.78171977E+03</pdfrwt>
<pdfrwt beam="2">  1       -1 0.21494397E-01 0.78171977E+03</pdfrwt>
<totfact> 0.61621016E+00</totfact>
</mgrwt>
</event>
<event>
 4    1  0.1065596E-007  0.9862433E+03  0.7818608E-02  0.9399781E-01
          1   -1    0    0  501    0  0.00000000000E+00  0.00000000000E+00  0.28532798681E+04  0.28532798681E+04  0.50400000000E-02 0. -1.
         -1   -1    0    0    0  501 -0.00000000000E+00 -0.00000000000E+00 -0.11484947685E+04  0.11484947685E+04  0.50400000000E-02 0.  1.
    8880023    1    1    2    0    0 -0.55183182381E+03 -0.48409434307E+03  0.26311789992E+04  0.28099428511E+04  0.65864270000E+03 0.  0.
    8880022    1    1    2    0    0  0.55183182381E+03  0.48409434307E+03 -0.92639389958E+03  0.11918317855E+04  0.15294330000E+03 0.  0.
<mgrwt>
<rscale>  0 0.92093706E+03</rscale>
<asrwt>0</asrwt>
<pdfrwt beam="1">  1        1 0.43896613E+00 0.98624333E+03</pdfrwt>
<pdfrwt beam="2">  1       -1 0.17669150E+00 0.98624333E+03</pdfrwt>
<totfact> 0.17260668E-01</totfact>
</mgrwt>
</event>
<event>
 4    1  0.1065596E-007  0.7820340E+03  0.7818608E-02  0.9751081E-01
         -1   -1    0    0    0  501 -0.00000000000E+00  0.00000000000E+00  0.28239331262E+03  0.28239331267E+03  0.50400000000E-02 0.  1.
          1   -1    0    0  501    0  0.00000000000E+00 -0.00000000000E+00 -0.18223080385E+04  0.18223080385E+04  0.50400000000E-02 0. -1.
    8880023    1    1    2    0    0 -0.11248361708E+03  0.40634266006E+03 -0.14497432905E+04  0.16472196988E+04  0.65864270000E+03 0. -1.
    8880022    1    1    2    0    0  0.11248361708E+03 -0.40634266006E+03 -0.90171435383E+02  0.45748165238E+03  0.15294330000E+03 0.  0.
<mgrwt>
<rscale>  0 0.68055234E+03</rscale>
<asrwt>0</asrwt>
<pdfrwt beam="1">  1        1 0.28035508E+00 0.78203397E+03</pdfrwt>
<pdfrwt beam="2">  1       -1 0.43445126E-01 0.78203397E+03</pdfrwt>
<totfact> 0.21266627E+01</totfact>
</mgrwt>
</event>
<event>
 4    1  0.1065596E-007  0.8566416E+03  0.7818608E-02  0.9599566E-01
          1   -1    0    0  501    0  0.00000000000E+00  0.00000000000E+00  0.52596548042E+03  0.52596548045E+03  0.50400000000E-02 0. -1.
         -1   -1    0    0    0  501 -0.00000000000E+00 -0.00000000000E+00 -0.16246090603E+04  0.16246090603E+04  0.50400000000E-02 0.  1.
    8880023    1    1    2    0    0  0.11204799162E+03 -0.53616219055E+03  0.61185452890E+02  0.85882391263E+03  0.65864270000E+03 0.  0.
    8880022    1    1    2    0    0 -0.11204799162E+03  0.53616219055E+03 -0.11598290327E+04  0.12917506281E+04  0.15294330000E+03 0.  0.
<mgrwt>
<rscale>  0 0.77324944E+03</rscale>
<asrwt>0</asrwt>
<pdfrwt beam="1">  1        1 0.80917767E-01 0.85664161E+03</pdfrwt>
<pdfrwt beam="2">  1       -1 0.24993985E+00 0.85664161E+03</pdfrwt>
<totfact> 0.29599677E+00</totfact>
</mgrwt>
</event>
<event>
 4    1  0.1065596E-007  0.7876533E+03  0.7818608E-02  0.9738157E-01
          1   -1    0    0  501    0  0.00000000000E+00  0.00000000000E+00  0.85972845169E+03  0.85972845171E+03  0.50400000000E-02 0. -1.
         -1   -1    0    0    0  501 -0.00000000000E+00 -0.00000000000E+00 -0.10435804182E+04  0.10435804182E+04  0.50400000000E-02 0.  1.
    8880023    1    1    2    0    0  0.14707141036E+02 -0.43170729534E+03  0.60352989420E+03  0.99229331767E+03  0.65864270000E+03 0. -1.
    8880022    1    1    2    0    0 -0.14707141036E+02  0.43170729534E+03 -0.78738186071E+03  0.91101555224E+03  0.15294330000E+03 0.  0.
<mgrwt>
<rscale>  0 0.68789687E+03</rscale>
<asrwt>0</asrwt>
<pdfrwt beam="1">  1        1 0.13226592E+00 0.78765328E+03</pdfrwt>
<pdfrwt beam="2">  1       -1 0.16055083E+00 0.78765328E+03</pdfrwt>
<totfact> 0.58547038E+00</totfact>
</mgrwt>
</event>
<event>
 4    1  0.1065596E-007  0.1062926E+04  0.7818608E-02  0.9303501E-01
          1   -1    0    0  501    0  0.00000000000E+00  0.00000000000E+00  0.28801855144E+04  0.28801855144E+04  0.50400000000E-02 0. -1.
         -1   -1    0    0    0  501 -0.00000000000E+00 -0.00000000000E+00 -0.55330965342E+03  0.55330965344E+03  0.50400000000E-02 0.  1.
    8880023    1    1    2    0    0 -0.54741711236E+03  0.62955280560E+03  0.23561571893E+04  0.25848189757E+04  0.65864270000E+03 0.  0.
    8880022    1    1    2    0    0  0.54741711236E+03 -0.62955280560E+03 -0.29281328348E+02  0.84867619216E+03  0.15294330000E+03 0.  0.
<mgrwt>
<rscale>  0 0.10046117E+04</rscale>
<asrwt>0</asrwt>
<pdfrwt beam="1">  1        1 0.44310548E+00 0.10629264E+04</pdfrwt>
<pdfrwt beam="2">  1       -1 0.85124559E-01 0.10629264E+04</pdfrwt>
<totfact> 0.10118620E+00</totfact>
</mgrwt>
</event>
<event>
 4    1  0.1065596E-007  0.7503855E+03  0.7818608E-02  0.9830666E-01
          1   -1    0    0  501    0  0.00000000000E+00  0.00000000000E+00  0.70138984677E+03  0.70138984679E+03  0.50400000000E-02 0. -1.
         -1   -1    0    0    0  501 -0.00000000000E+00 -0.00000000000E+00 -0.12836941729E+04  0.12836941729E+04  0.50400000000E-02 0.  1.
    8880023    1    1    2    0    0 -0.32516573152E+03 -0.15341273180E+03  0.45436672820E+03  0.87722719360E+03  0.65864270000E+03 0.  0.
    8880022    1    1    2    0    0  0.32516573152E+03  0.15341273180E+03 -0.10366710543E+04  0.11078568261E+04  0.15294330000E+03 0.  0.
<mgrwt>
<rscale>  0 0.63742478E+03</rscale>
<asrwt>0</asrwt>
<pdfrwt beam="1">  1        1 0.10790613E+00 0.75038552E+03</pdfrwt>
<pdfrwt beam="2">  1       -1 0.19749141E+00 0.75038552E+03</pdfrwt>
<totfact> 0.44121456E+00</totfact>
</mgrwt>
</event>
<event>
 4    1  0.1065596E-007  0.9764190E+03  0.7818608E-02  0.9413080E-01
          1   -1    0    0  501    0  0.00000000000E+00  0.00000000000E+00  0.10153247937E+04  0.10153247937E+04  0.50400000000E-02 0. -1.
         -1   -1    0    0    0  501 -0.00000000000E+00 -0.00000000000E+00 -0.16657859374E+04  0.16657859374E+04  0.50400000000E-02 0.  1.
    8880023    1    1    2    0    0  0.64167100488E+03 -0.32839341233E+03  0.65939270779E+03  0.11782159654E+04  0.65864270000E+03 0. -1.
    8880022    1    1    2    0    0 -0.64167100488E+03  0.32839341233E+03 -0.13098538515E+04  0.15028947658E+04  0.15294330000E+03 0.  0.
<mgrwt>
<rscale>  0 0.91006982E+03</rscale>
<asrwt>0</asrwt>
<pdfrwt beam="1">  1        1 0.15620381E+00 0.97641903E+03</pdfrwt>
<pdfrwt beam="2">  1       -1 0.25627476E+00 0.97641903E+03</pdfrwt>
<totfact> 0.94561426E-01</totfact>
</mgrwt>
</event>
<event>
 4    1  0.1065596E-007  0.8998594E+03  0.7818608E-02  0.9526257E-01
         -1   -1    0    0    0  501 -0.00000000000E+00  0.00000000000E+00  0.12067230918E+04  0.12067230918E+04  0.50400000000E-02 0.  1.
          1   -1    0    0  501    0  0.00000000000E+00 -0.00000000000E+00 -0.15976526549E+04  0.15976526549E+04  0.50400000000E-02 0. -1.
    8880023    1    1    2    0    0  0.51272979677E+03 -0.33622142087E+03 -0.13699901860E+04  0.16390912129E+04  0.65864270000E+03 0. -1.
    8880022    1    1    2    0    0 -0.51272979677E+03  0.33622142087E+03  0.97906062293E+03  0.11652845338E+04  0.15294330000E+03 0.  0.
<mgrwt>
<rscale>  0 0.82375346E+03</rscale>
<asrwt>0</asrwt>
<pdfrwt beam="1">  1        1 0.24579272E+00 0.89985937E+03</pdfrwt>
<pdfrwt beam="2">  1       -1 0.18564971E+00 0.89985937E+03</pdfrwt>
<totfact> 0.10873906E+00</totfact>
</mgrwt>
</event>
<event>
 4    1  0.1065596E-007  0.1035082E+04  0.7818608E-02  0.9337034E-01
         -1   -1    0    0    0  501 -0.00000000000E+00  0.00000000000E+00  0.94053761022E+03  0.94053761023E+03  0.50400000000E-02 0.  1.
          1   -1    0    0  501    0  0.00000000000E+00 -0.00000000000E+00 -0.16428306122E+04  0.16428306122E+04  0.50400000000E-02 0. -1.
    8880023    1    1    2    0    0  0.73302094358E+03 -0.31664480839E+03 -0.12349862359E+04  0.16113922079E+04  0.65864270000E+03 0.  0.
    8880022    1    1    2    0    0 -0.73302094358E+03  0.31664480839E+03  0.53269323394E+03  0.97197601457E+03  0.15294330000E+03 0.  0.
<mgrwt>
<rscale>  0 0.97443771E+03</rscale>
<asrwt>0</asrwt>
<pdfrwt beam="1">  1        1 0.25274317E+00 0.10350816E+04</pdfrwt>
<pdfrwt beam="2">  1       -1 0.14469809E+00 0.10350816E+04</pdfrwt>
<totfact> 0.20074955E+00</totfact>
</mgrwt>
</event>
<event>
 4    1  0.1065596E-007  0.7173295E+03  0.7818608E-02  0.9931728E-01
          1   -1    0    0  501    0  0.00000000000E+00  0.00000000000E+00  0.21163327522E+04  0.21163327522E+04  0.50400000000E-02 0. -1.
         -1   -1    0    0    0  501 -0.00000000000E+00 -0.00000000000E+00 -0.29764529300E+03  0.29764529304E+03  0.50400000000E-02 0.  1.
    8880023    1    1    2    0    0  0.19903966514E+03  0.20281686881E+03  0.19406552622E+04  0.20689863517E+04  0.65864270000E+03 0. -1.
    8880022    1    1    2    0    0 -0.19903966514E+03 -0.20281686881E+03 -0.12196780306E+03  0.34499169348E+03  0.15294330000E+03 0.  0.
<mgrwt>
<rscale>  0 0.58747970E+03</rscale>
<asrwt>0</asrwt>
<pdfrwt beam="1">  1        1 0.32558966E+00 0.71732955E+03</pdfrwt>
<pdfrwt beam="2">  1       -1 0.45791583E-01 0.71732955E+03</pdfrwt>
<totfact> 0.12381230E+01</totfact>
</mgrwt>
</event>
<event>
 4    1  0.1065596E-007  0.8460949E+03  0.7818608E-02  0.9618793E-01
         -1   -1    0    0    0  501 -0.00000000000E+00  0.00000000000E+00  0.19858746090E+04  0.19858746090E+04  0.50400000000E-02 0.  1.
          1   -1    0    0  501    0  0.00000000000E+00 -0.00000000000E+00 -0.43916083410E+03  0.43916083413E+03  0.50400000000E-02 0. -1.
    8880023    1    1    2    0    0  0.40951449346E+03  0.33817790665E+03  0.70820700340E+02  0.84905370546E+03  0.65864270000E+03 0.  0.
    8880022    1    1    2    0    0 -0.40951449346E+03 -0.33817790665E+03  0.14758930745E+04  0.15759817376E+04  0.15294330000E+03 0.  1.
<mgrwt>
<rscale>  0 0.76064720E+03</rscale>
<asrwt>0</asrwt>
<pdfrwt beam="1">  1        1 0.67563206E-01 0.84609493E+03</pdfrwt>
<pdfrwt beam="2">  1       -1 0.30551917E+00 0.84609493E+03</pdfrwt>
<totfact> 0.16690954E+00</totfact>
</mgrwt>
</event>
<event>
 4    1  0.1065596E-007  0.7895357E+03  0.7818608E-02  0.9733896E-01
         -1   -1    0    0    0  501 -0.00000000000E+00  0.00000000000E+00  0.40347134786E+03  0.40347134789E+03  0.50400000000E-02 0.  1.
          1   -1    0    0  501    0  0.00000000000E+00 -0.00000000000E+00 -0.11025779646E+04  0.11025779647E+04  0.50400000000E-02 0. -1.
    8880023    1    1    2    0    0 -0.52073266160E+02  0.43225548943E+03 -0.68355444103E+03  0.10443243334E+04  0.65864270000E+03 0.  0.
    8880022    1    1    2    0    0  0.52073266160E+02 -0.43225548943E+03 -0.15552175755E+02  0.46172497915E+03  0.15294330000E+03 0.  0.
<mgrwt>
<rscale>  0 0.69034002E+03</rscale>
<asrwt>0</asrwt>
<pdfrwt beam="1">  1        1 0.16962738E+00 0.78953571E+03</pdfrwt>
<pdfrwt beam="2">  1       -1 0.62072516E-01 0.78953571E+03</pdfrwt>
<totfact> 0.33987121E+01</totfact>
</mgrwt>
</event>
<event>
 4    1  0.1065596E-007  0.7959632E+03  0.7818608E-02  0.9719593E-01
          1   -1    0    0  501    0  0.00000000000E+00  0.00000000000E+00  0.13214812936E+04  0.13214812936E+04  0.50400000000E-02 0. -1.
         -1   -1    0    0    0  501 -0.00000000000E+00 -0.00000000000E+00 -0.13802965008E+04  0.13802965008E+04  0.50400000000E-02 0.  1.
    8880023    1    1    2    0    0  0.44681198144E+03 -0.10304981421E+02  0.11530513683E+04  0.14011012824E+04  0.65864270000E+03 0. -1.
    8880022    1    1    2    0    0 -0.44681198144E+03  0.10304981421E+02 -0.12118665754E+04  0.13006765121E+04  0.15294330000E+03 0.  0.
<mgrwt>
<rscale>  0 0.69862096E+03</rscale>
<asrwt>0</asrwt>
<pdfrwt beam="1">  1        1 0.20330482E+00 0.79596316E+03</pdfrwt>
<pdfrwt beam="2">  1       -1 0.21235331E+00 0.79596316E+03</pdfrwt>
<totfact> 0.11269026E+00</totfact>
</mgrwt>
</event>
<event>
 4    1  0.1065596E-007  0.7173908E+03  0.7818608E-02  0.9931516E-01
         -1   -1    0    0    0  501 -0.00000000000E+00  0.00000000000E+00  0.17702701561E+04  0.17702701561E+04  0.50400000000E-02 0.  1.
          1   -1    0    0  501    0  0.00000000000E+00 -0.00000000000E+00 -0.89274240590E+03  0.89274240592E+03  0.50400000000E-02 0. -1.
    8880023    1    1    2    0    0 -0.23028038857E+03  0.16676403541E+03 -0.72993327213E+03  0.10234510682E+04  0.65864270000E+03 0. -1.
    8880022    1    1    2    0    0  0.23028038857E+03 -0.16676403541E+03  0.16074610223E+04  0.16395614939E+04  0.15294330000E+03 0.  0.
<mgrwt>
<rscale>  0 0.58757921E+03</rscale>
<asrwt>0</asrwt>
<pdfrwt beam="1">  1        1 0.13734499E+00 0.71739076E+03</pdfrwt>
<pdfrwt beam="2">  1       -1 0.27234925E+00 0.71739076E+03</pdfrwt>
<totfact> 0.97648645E-01</totfact>
</mgrwt>
</event>
<event>
 4    1  0.1065596E-007  0.7374694E+03  0.7818608E-02  0.9867381E-01
         -1   -1    0    0    0  501 -0.00000000000E+00  0.00000000000E+00  0.96966768921E+03  0.96966768922E+03  0.50400000000E-02 0.  1.
          1   -1    0    0  501    0  0.00000000000E+00 -0.00000000000E+00 -0.16233447285E+04  0.16233447285E+04  0.50400000000E-02 0. -1.
    8880023    1    1    2    0    0 -0.14675722088E+03 -0.29751175111E+03 -0.14998530401E+04  0.16713528270E+04  0.65864270000E+03 0. -1.
    8880022    1    1    2    0    0  0.14675722088E+03  0.29751175111E+03  0.84617600082E+03  0.92165959079E+03  0.15294330000E+03 0.  0.
<mgrwt>
<rscale>  0 0.61868532E+03</rscale>
<asrwt>0</asrwt>
<pdfrwt beam="1">  1        1 0.24974534E+00 0.73746941E+03</pdfrwt>
<pdfrwt beam="2">  1       -1 0.14917964E+00 0.73746941E+03</pdfrwt>
<totfact> 0.20020135E+00</totfact>
</mgrwt>
</event>
<event>
 4    1  0.1065596E-007  0.1087346E+04  0.7818608E-02  0.9275277E-01
          1   -1    0    0  501    0  0.00000000000E+00  0.00000000000E+00  0.17863900173E+04  0.17863900173E+04  0.50400000000E-02 0. -1.
         -1   -1    0    0    0  501 -0.00000000000E+00 -0.00000000000E+00 -0.54414659682E+03  0.54414659685E+03  0.50400000000E-02 0.  1.
    8880023    1    1    2    0    0  0.60033490071E+03 -0.62298367411E+03  0.77651404153E+03  0.13361492859E+04  0.65864270000E+03 0.  1.
    8880022    1    1    2    0    0 -0.60033490071E+03  0.62298367411E+03  0.46572937897E+03  0.99438732829E+03  0.15294330000E+03 0. -1.
<mgrwt>
<rscale>  0 0.10309107E+04</rscale>
<asrwt>0</asrwt>
<pdfrwt beam="1">  1        1 0.27482924E+00 0.10873458E+04</pdfrwt>
<pdfrwt beam="2">  1       -1 0.83714860E-01 0.10873458E+04</pdfrwt>
<totfact> 0.58798602E+00</totfact>
</mgrwt>
</event>
<event>
 4    1  0.1065596E-007  0.7375358E+03  0.7818608E-02  0.9867184E-01
         -1   -1    0    0    0  501 -0.00000000000E+00  0.00000000000E+00  0.30233431440E+03  0.30233431444E+03  0.50400000000E-02 0.  1.
          1   -1    0    0  501    0  0.00000000000E+00 -0.00000000000E+00 -0.20082051921E+04  0.20082051921E+04  0.50400000000E-02 0. -1.
    8880023    1    1    2    0    0 -0.11323393991E+03  0.31197261843E+03 -0.17896152296E+04  0.19356347062E+04  0.65864270000E+03 0.  0.
    8880022    1    1    2    0    0  0.11323393991E+03 -0.31197261843E+03  0.83744351892E+02  0.37490480030E+03  0.15294330000E+03 0.  0.
<mgrwt>
<rscale>  0 0.61878382E+03</rscale>
<asrwt>0</asrwt>
<pdfrwt beam="1">  1        1 0.30895464E+00 0.73753579E+03</pdfrwt>
<pdfrwt beam="2">  1       -1 0.46512973E-01 0.73753579E+03</pdfrwt>
<totfact> 0.14158660E+01</totfact>
</mgrwt>
</event>
<event>
 4    1  0.1065596E-007  0.6746425E+03  0.7818608E-02  0.1012533E+00
          1   -1    0    0  501    0  0.00000000000E+00  0.00000000000E+00  0.14593329093E+04  0.14593329093E+04  0.50400000000E-02 0. -1.
         -1   -1    0    0    0  501 -0.00000000000E+00 -0.00000000000E+00 -0.26147522717E+03  0.26147522722E+03  0.50400000000E-02 0.  1.
    8880023    1    1    2    0    0 -0.11670325784E+03  0.87821615466E+02  0.13157930628E+04  0.14786662493E+04  0.65864270000E+03 0. -1.
    8880022    1    1    2    0    0  0.11670325784E+03 -0.87821615466E+02 -0.11793538062E+03  0.24214188723E+03  0.15294330000E+03 0.  0.
<mgrwt>
<rscale>  0 0.50480399E+03</rscale>
<asrwt>0</asrwt>
<pdfrwt beam="1">  1        1 0.22451275E+00 0.67464249E+03</pdfrwt>
<pdfrwt beam="2">  1       -1 0.40226959E-01 0.67464249E+03</pdfrwt>
<totfact> 0.43684284E+01</totfact>
</mgrwt>
</event>
<event>
 4    1  0.1065596E-007  0.8729636E+03  0.7818608E-02  0.9570907E-01
          1   -1    0    0  501    0  0.00000000000E+00  0.00000000000E+00  0.33890096991E+04  0.33890096991E+04  0.50400000000E-02 0. -1.
         -1   -1    0    0    0  501 -0.00000000000E+00 -0.00000000000E+00 -0.27829196639E+03  0.27829196643E+03  0.50400000000E-02 0.  1.
    8880023    1    1    2    0    0 -0.24802697489E+03 -0.51646677894E+03  0.29148940911E+04  0.30428067771E+04  0.65864270000E+03 0.  0.
    8880022    1    1    2    0    0  0.24802697489E+03  0.51646677894E+03  0.19582364153E+03  0.62449488839E+03  0.15294330000E+03 0.  0.
<mgrwt>
<rscale>  0 0.79252045E+03</rscale>
<asrwt>0</asrwt>
<pdfrwt beam="1">  1        1 0.52138609E+00 0.87296364E+03</pdfrwt>
<pdfrwt beam="2">  1       -1 0.42814150E-01 0.87296364E+03</pdfrwt>
<totfact> 0.17352508E+00</totfact>
</mgrwt>
</event>
<event>
 4    1  0.1065596E-007  0.7108742E+03  0.7818608E-02  0.9954769E-01
          1   -1    0    0  501    0  0.00000000000E+00  0.00000000000E+00  0.10929976904E+04  0.10929976905E+04  0.50400000000E-02 0. -1.
         -1   -1    0    0    0  501 -0.00000000000E+00 -0.00000000000E+00 -0.17719796399E+04  0.17719796399E+04  0.50400000000E-02 0.  1.
    8880023    1    1    2    0    0 -0.18701791301E+03  0.19119697184E+03  0.96153458579E+03  0.11957804764E+04  0.65864270000E+03 0. -1.
    8880022    1    1    2    0    0  0.18701791301E+03 -0.19119697184E+03 -0.16405165352E+04  0.16691968539E+04  0.15294330000E+03 0.  0.
<mgrwt>
<rscale>  0 0.57678822E+03</rscale>
<asrwt>0</asrwt>
<pdfrwt beam="1">  1        1 0.16815349E+00 0.71087424E+03</pdfrwt>
<pdfrwt beam="2">  1       -1 0.27261225E+00 0.71087424E+03</pdfrwt>
<totfact> 0.68037002E-01</totfact>
</mgrwt>
</event>
<event>
 4    1  0.1065596E-007  0.7059800E+03  0.7818608E-02  0.9973243E-01
          1   -1    0    0  501    0  0.00000000000E+00  0.00000000000E+00  0.27172790894E+04  0.27172790894E+04  0.50400000000E-02 0. -1.
         -1   -1    0    0    0  501 -0.00000000000E+00 -0.00000000000E+00 -0.32449136150E+03  0.32449136154E+03  0.50400000000E-02 0.  1.
    8880023    1    1    2    0    0  0.19264673768E+03 -0.16578551814E+03  0.25907053873E+04  0.26851745220E+04  0.65864270000E+03 0. -1.
    8880022    1    1    2    0    0 -0.19264673768E+03  0.16578551814E+03 -0.19791765945E+03  0.35659592889E+03  0.15294330000E+03 0.  0.
<mgrwt>
<rscale>  0 0.56839208E+03</rscale>
<asrwt>0</asrwt>
<pdfrwt beam="1">  1        1 0.41804294E+00 0.70598004E+03</pdfrwt>
<pdfrwt beam="2">  1       -1 0.49921747E-01 0.70598004E+03</pdfrwt>
<totfact> 0.41224019E+00</totfact>
</mgrwt>
</event>
<event>
 4    1  0.1065596E-007  0.1584348E+04  0.7818608E-02  0.8852262E-01
          1   -1    0    0  501    0  0.00000000000E+00  0.00000000000E+00  0.23278468419E+04  0.23278468419E+04  0.50400000000E-02 0. -1.
         -1   -1    0    0    0  501 -0.00000000000E+00 -0.00000000000E+00 -0.13484715341E+04  0.13484715341E+04  0.50400000000E-02 0.  1.
    8880023    1    1    2    0    0 -0.39717500857E+03  0.13851358628E+04  0.14551208515E+04  0.21511709008E+04  0.65864270000E+03 0.  0.
    8880022    1    1    2    0    0  0.39717500857E+03 -0.13851358628E+04 -0.47574554371E+03  0.15251474752E+04  0.15294330000E+03 0.  0.
<mgrwt>
<rscale>  0 0.15493827E+04</rscale>
<asrwt>0</asrwt>
<pdfrwt beam="1">  1        1 0.35813028E+00 0.15843483E+04</pdfrwt>
<pdfrwt beam="2">  1       -1 0.20745716E+00 0.15843483E+04</pdfrwt>
<totfact> 0.22292513E-01</totfact>
</mgrwt>
</event>
<event>
 4    1  0.1065596E-007  0.8437830E+03  0.7818608E-02  0.9623088E-01
          1   -1    0    0  501    0  0.00000000000E+00  0.00000000000E+00  0.15362508007E+04  0.15362508007E+04  0.50400000000E-02 0. -1.
         -1   -1    0    0    0  501 -0.00000000000E+00 -0.00000000000E+00 -0.87298531574E+03  0.87298531575E+03  0.50400000000E-02 0.  1.
    8880023    1    1    2    0    0  0.25861142442E+03  0.45965173685E+03  0.13116148513E+04  0.15595843396E+04  0.65864270000E+03 0. -1.
    8880022    1    1    2    0    0 -0.25861142442E+03 -0.45965173685E+03 -0.64834936633E+03  0.84965177683E+03  0.15294330000E+03 0.  0.
<mgrwt>
<rscale>  0 0.75786740E+03</rscale>
<asrwt>0</asrwt>
<pdfrwt beam="1">  1        1 0.23634627E+00 0.84378303E+03</pdfrwt>
<pdfrwt beam="2">  1       -1 0.13430543E+00 0.84378303E+03</pdfrwt>
<totfact> 0.29647252E+00</totfact>
</mgrwt>
</event>
<event>
 4    1  0.1065596E-007  0.9922203E+03  0.7818608E-02  0.9391807E-01
         -1   -1    0    0    0  501 -0.00000000000E+00  0.00000000000E+00  0.93372316546E+03  0.93372316548E+03  0.50400000000E-02 0.  1.
          1   -1    0    0  501    0  0.00000000000E+00 -0.00000000000E+00 -0.97953838341E+03  0.97953838343E+03  0.50400000000E-02 0. -1.
    8880023    1    1    2    0    0 -0.58557080861E+03  0.45584841626E+03 -0.40877962362E+03  0.10731271767E+04  0.65864270000E+03 0. -1.
    8880022    1    1    2    0    0  0.58557080861E+03 -0.45584841626E+03  0.36296440567E+03  0.84013437217E+03  0.15294330000E+03 0.  0.
<mgrwt>
<rscale>  0 0.92752983E+03</rscale>
<asrwt>0</asrwt>
<pdfrwt beam="1">  1        1 0.15069821E+00 0.99222032E+03</pdfrwt>
<pdfrwt beam="2">  1       -1 0.14364972E+00 0.99222032E+03</pdfrwt>
<totfact> 0.61709321E+00</totfact>
</mgrwt>
</event>
<event>
 4    1  0.1065596E-007  0.8583252E+03  0.7818608E-02  0.9596550E-01
          1   -1    0    0  501    0  0.00000000000E+00  0.00000000000E+00  0.12471314254E+04  0.12471314255E+04  0.50400000000E-02 0. -1.
         -1   -1    0    0    0  501 -0.00000000000E+00 -0.00000000000E+00 -0.47651414443E+03  0.47651414445E+03  0.50400000000E-02 0.  1.
    8880023    1    1    2    0    0 -0.54473845262E+03  0.78561932551E+02  0.76898263525E+03  0.11524133193E+04  0.65864270000E+03 0. -1.
    8880022    1    1    2    0    0  0.54473845262E+03 -0.78561932551E+02  0.16346457730E+01  0.57123225057E+03  0.15294330000E+03 0.  1.
<mgrwt>
<rscale>  0 0.77524975E+03</rscale>
<asrwt>0</asrwt>
<pdfrwt beam="1">  1        1 0.19186637E+00 0.85832521E+03</pdfrwt>
<pdfrwt beam="2">  1       -1 0.73309868E-01 0.85832521E+03</pdfrwt>
<totfact> 0.18859800E+01</totfact>
</mgrwt>
</event>
<event>
 4    1  0.1065596E-007  0.1398725E+04  0.7818608E-02  0.8984674E-01
         -1   -1    0    0    0  501 -0.00000000000E+00  0.00000000000E+00  0.10422883021E+04  0.10422883021E+04  0.50400000000E-02 0.  1.
          1   -1    0    0  501    0  0.00000000000E+00 -0.00000000000E+00 -0.17560229696E+04  0.17560229696E+04  0.50400000000E-02 0. -1.
    8880023    1    1    2    0    0 -0.12043154434E+04  0.26878751649E+03 -0.67805762343E+03  0.15544113880E+04  0.65864270000E+03 0. -1.
    8880022    1    1    2    0    0  0.12043154434E+04 -0.26878751649E+03 -0.35677044117E+02  0.12438998837E+04  0.15294330000E+03 0.  0.
<mgrwt>
<rscale>  0 0.13581603E+04</rscale>
<asrwt>0</asrwt>
<pdfrwt beam="1">  1        1 0.27015738E+00 0.13987254E+04</pdfrwt>
<pdfrwt beam="2">  1       -1 0.16035205E+00 0.13987254E+04</pdfrwt>
<totfact> 0.12161775E+00</totfact>
</mgrwt>
</event>
<event>
 4    1  0.1065596E-007  0.6783018E+03  0.7818608E-02  0.1010301E+00
          1   -1    0    0  501    0  0.00000000000E+00  0.00000000000E+00  0.10167718944E+04  0.10167718944E+04  0.50400000000E-02 0. -1.
         -1   -1    0    0    0  501 -0.00000000000E+00 -0.00000000000E+00 -0.90412841202E+03  0.90412841203E+03  0.50400000000E-02 0.  1.
    8880023    1    1    2    0    0  0.11595319721E+03  0.11330457093E+03  0.88613238293E+03  0.11159408031E+04  0.65864270000E+03 0. -1.
    8880022    1    1    2    0    0 -0.11595319721E+03 -0.11330457093E+03 -0.77348890053E+03  0.80495950333E+03  0.15294330000E+03 0.  0.
<mgrwt>
<rscale>  0 0.51355166E+03</rscale>
<asrwt>0</asrwt>
<pdfrwt beam="1">  1        1 0.15642645E+00 0.67830176E+03</pdfrwt>
<pdfrwt beam="2">  1       -1 0.13909668E+00 0.67830176E+03</pdfrwt>
<totfact> 0.65524523E+00</totfact>
</mgrwt>
</event>
<event>
 4    1  0.1065596E-007  0.6646153E+03  0.7818608E-02  0.1019858E+00
          1   -1    0    0  501    0  0.00000000000E+00  0.00000000000E+00  0.31841817573E+03  0.31841817577E+03  0.50400000000E-02 0. -1.
         -1   -1    0    0    0  501 -0.00000000000E+00 -0.00000000000E+00 -0.56444333643E+03  0.56444333645E+03  0.50400000000E-02 0.  1.
    8880023    1    1    2    0    0 -0.86172397375E+02 -0.21853306199E+02 -0.23741878256E+03  0.70574863346E+03  0.65864270000E+03 0.  1.
    8880022    1    1    2    0    0  0.86172397375E+02  0.21853306199E+02 -0.86063781349E+01  0.17711287875E+03  0.15294330000E+03 0.  1.
<mgrwt>
<rscale>  0 0.47737749E+03</rscale>
<asrwt>0</asrwt>
<pdfrwt beam="1">  1        1 0.48987412E-01 0.66461527E+03</pdfrwt>
<pdfrwt beam="2">  1       -1 0.86837436E-01 0.66461527E+03</pdfrwt>
<totfact> 0.10829213E+02</totfact>
</mgrwt>
</event>
<event>
 4    1  0.1065596E-007  0.1053295E+04  0.7818608E-02  0.9314931E-01
          1   -1    0    0  501    0  0.00000000000E+00  0.00000000000E+00  0.24538861656E+04  0.24538861656E+04  0.50400000000E-02 0. -1.
         -1   -1    0    0    0  501 -0.00000000000E+00 -0.00000000000E+00 -0.80707028894E+03  0.80707028896E+03  0.50400000000E-02 0.  1.
    8880023    1    1    2    0    0  0.51924129596E+03  0.63718844070E+03  0.20709813228E+04  0.23234445287E+04  0.65864270000E+03 0. -1.
    8880022    1    1    2    0    0 -0.51924129596E+03 -0.63718844070E+03 -0.42416544613E+03  0.93751192585E+03  0.15294330000E+03 0.  0.
<mgrwt>
<rscale>  0 0.99419869E+03</rscale>
<asrwt>0</asrwt>
<pdfrwt beam="1">  1        1 0.37752095E+00 0.10532952E+04</pdfrwt>
<pdfrwt beam="2">  1       -1 0.12416466E+00 0.10532952E+04</pdfrwt>
<totfact> 0.83723113E-01</totfact>
</mgrwt>
</event>
<event>
 4    1  0.1065596E-007  0.1043018E+04  0.7818608E-02  0.9327322E-01
          1   -1    0    0  501    0  0.00000000000E+00  0.00000000000E+00  0.26465667379E+04  0.26465667379E+04  0.50400000000E-02 0. -1.
         -1   -1    0    0    0  501 -0.00000000000E+00 -0.00000000000E+00 -0.71538019076E+03  0.71538019078E+03  0.50400000000E-02 0.  1.
    8880023    1    1    2    0    0 -0.25787283467E+03 -0.76653606866E+03  0.22494305563E+04  0.24794805862E+04  0.65864270000E+03 0.  0.
    8880022    1    1    2    0    0  0.25787283467E+03  0.76653606866E+03 -0.31824400910E+03  0.88246634256E+03  0.15294330000E+03 0.  0.
<mgrwt>
<rscale>  0 0.98305962E+03</rscale>
<asrwt>0</asrwt>
<pdfrwt beam="1">  1        1 0.40716412E+00 0.10430178E+04</pdfrwt>
<pdfrwt beam="2">  1       -1 0.11005849E+00 0.10430178E+04</pdfrwt>
<totfact> 0.82710631E-01</totfact>
</mgrwt>
</event>
<event>
 4    1  0.1065596E-007  0.8840139E+03  0.7818608E-02  0.9552198E-01
         -1   -1    0    0    0  501 -0.00000000000E+00  0.00000000000E+00  0.10792552284E+04  0.10792552284E+04  0.50400000000E-02 0.  1.
          1   -1    0    0  501    0  0.00000000000E+00 -0.00000000000E+00 -0.68397119737E+03  0.68397119739E+03  0.50400000000E-02 0. -1.
    8880023    1    1    2    0    0  0.52203520146E+03 -0.27413433457E+03 -0.20557454669E+03  0.90760205237E+03  0.65864270000E+03 0.  0.
    8880022    1    1    2    0    0 -0.52203520146E+03  0.27413433457E+03  0.60085857768E+03  0.85562437339E+03  0.15294330000E+03 0.  0.
<mgrwt>
<rscale>  0 0.80542506E+03</rscale>
<asrwt>0</asrwt>
<pdfrwt beam="1">  1        1 0.10522634E+00 0.88401391E+03</pdfrwt>
<pdfrwt beam="2">  1       -1 0.16603927E+00 0.88401391E+03</pdfrwt>
<totfact> 0.75424055E+00</totfact>
</mgrwt>
</event>
<event>
 4    1  0.1065596E-007  0.9974144E+03  0.7818608E-02  0.9384948E-01
          1   -1    0    0  501    0  0.00000000000E+00  0.00000000000E+00  0.73752855816E+03  0.73752855817E+03  0.50400000000E-02 0. -1.
         -1   -1    0    0    0  501 -0.00000000000E+00 -0.00000000000E+00 -0.13420595778E+04  0.13420595778E+04  0.50400000000E-02 0.  1.
    8880023    1    1    2    0    0  0.72095818218E+03  0.20308737269E+03 -0.81347040030E+03  0.12870778841E+04  0.65864270000E+03 0.  0.
    8880022    1    1    2    0    0 -0.72095818218E+03 -0.20308737269E+03  0.20893938070E+03  0.79251025181E+03  0.15294330000E+03 0.  0.
<mgrwt>
<rscale>  0 0.93324796E+03</rscale>
<asrwt>0</asrwt>
<pdfrwt beam="1">  1        1 0.11346593E+00 0.99741435E+03</pdfrwt>
<pdfrwt beam="2">  1       -1 0.20647070E+00 0.99741435E+03</pdfrwt>
<totfact> 0.34321874E+00</totfact>
</mgrwt>
</event>
<event>
 4    1  0.1065596E-007  0.1160195E+04  0.7818608E-02  0.9196821E-01
          1   -1    0    0  501    0  0.00000000000E+00  0.00000000000E+00  0.53428406741E+03  0.53428406743E+03  0.50400000000E-02 0. -1.
         -1   -1    0    0    0  501 -0.00000000000E+00 -0.00000000000E+00 -0.34384648382E+04  0.34384648382E+04  0.50400000000E-02 0.  1.
    8880023    1    1    2    0    0  0.21556502241E+03 -0.93046973381E+03 -0.30529197264E+03  0.11996897929E+04  0.65864270000E+03 0.  0.
    8880022    1    1    2    0    0 -0.21556502241E+03  0.93046973381E+03 -0.25988887981E+04  0.27730591127E+04  0.15294330000E+03 0.  0.
<mgrwt>
<rscale>  0 0.11086296E+04</rscale>
<asrwt>0</asrwt>
<pdfrwt beam="1">  1        1 0.82197551E-01 0.11601950E+04</pdfrwt>
<pdfrwt beam="2">  1       -1 0.52899458E+00 0.11601950E+04</pdfrwt>
<totfact> 0.39268963E-02</totfact>
</mgrwt>
</event>
<event>
 4    1  0.1065596E-007  0.1184777E+04  0.7818608E-02  0.9172064E-01
          1   -1    0    0  501    0  0.00000000000E+00  0.00000000000E+00  0.10423911920E+04  0.10423911920E+04  0.50400000000E-02 0. -1.
         -1   -1    0    0    0  501 -0.00000000000E+00 -0.00000000000E+00 -0.20002082167E+04  0.20002082167E+04  0.50400000000E-02 0.  1.
    8880023    1    1    2    0    0  0.17864815989E+03  0.96848892862E+03  0.49232801021E+03  0.12829976796E+04  0.65864270000E+03 0.  0.
    8880022    1    1    2    0    0 -0.17864815989E+03 -0.96848892862E+03 -0.14501450349E+04  0.17596017291E+04  0.15294330000E+03 0.  0.
<mgrwt>
<rscale>  0 0.11346483E+04</rscale>
<asrwt>0</asrwt>
<pdfrwt beam="1">  1        1 0.16036788E+00 0.11847768E+04</pdfrwt>
<pdfrwt beam="2">  1       -1 0.30772434E+00 0.11847768E+04</pdfrwt>
<totfact> 0.40761738E-01</totfact>
</mgrwt>
</event>
<event>
 4    1  0.1065596E-007  0.7414102E+03  0.7818608E-02  0.9855858E-01
         -1   -1    0    0    0  501 -0.00000000000E+00  0.00000000000E+00  0.12846337023E+04  0.12846337023E+04  0.50400000000E-02 0.  1.
          1   -1    0    0  501    0  0.00000000000E+00 -0.00000000000E+00 -0.10387900395E+04  0.10387900395E+04  0.50400000000E-02 0. -1.
    8880023    1    1    2    0    0 -0.21332425935E+03  0.26527640690E+03 -0.87220280439E+03  0.11447387256E+04  0.65864270000E+03 0. -1.
    8880022    1    1    2    0    0  0.21332425935E+03 -0.26527640690E+03  0.11180464672E+04  0.11786850162E+04  0.15294330000E+03 0.  0.
<mgrwt>
<rscale>  0 0.62449113E+03</rscale>
<asrwt>0</asrwt>
<pdfrwt beam="1">  1        1 0.15981385E+00 0.74141016E+03</pdfrwt>
<pdfrwt beam="2">  1       -1 0.19763595E+00 0.74141016E+03</pdfrwt>
<totfact> 0.23044351E+00</totfact>
</mgrwt>
</event>
<event>
 4    1  0.1065596E-007  0.7039706E+03  0.7818608E-02  0.9981112E-01
         -1   -1    0    0    0  501 -0.00000000000E+00  0.00000000000E+00  0.59491338278E+03  0.59491338280E+03  0.50400000000E-02 0.  1.
          1   -1    0    0  501    0  0.00000000000E+00 -0.00000000000E+00 -0.63187841640E+03  0.63187841642E+03  0.50400000000E-02 0. -1.
    8880023    1    1    2    0    0 -0.74382058044E+02 -0.23713213219E+03 -0.36065717608E+03  0.79097923082E+03  0.65864270000E+03 0. -1.
    8880022    1    1    2    0    0  0.74382058044E+02  0.23713213219E+03  0.32369214245E+03  0.43581256840E+03  0.15294330000E+03 0.  0.
<mgrwt>
<rscale>  0 0.56486254E+03</rscale>
<asrwt>0</asrwt>
<pdfrwt beam="1">  1        1 0.97212065E-01 0.70397056E+03</pdfrwt>
<pdfrwt beam="2">  1       -1 0.91525135E-01 0.70397056E+03</pdfrwt>
<totfact> 0.37991888E+01</totfact>
</mgrwt>
</event>
<event>
 4    1  0.1065596E-007  0.1395071E+04  0.7818608E-02  0.8987522E-01
         -1   -1    0    0    0  501 -0.00000000000E+00  0.00000000000E+00  0.69479492822E+03  0.69479492824E+03  0.50400000000E-02 0.  1.
          1   -1    0    0  501    0  0.00000000000E+00 -0.00000000000E+00 -0.29562272270E+04  0.29562272270E+04  0.50400000000E-02 0. -1.
    8880023    1    1    2    0    0  0.75451159431E+03  0.97114699552E+03 -0.19055845430E+04  0.23616682430E+04  0.65864270000E+03 0.  0.
    8880022    1    1    2    0    0 -0.75451159431E+03 -0.97114699552E+03 -0.35584775574E+03  0.12893539123E+04  0.15294330000E+03 0.  0.
<mgrwt>
<rscale>  0 0.13543764E+04</rscale>
<asrwt>0</asrwt>
<pdfrwt beam="1">  1        1 0.45480418E+00 0.13950715E+04</pdfrwt>
<pdfrwt beam="2">  1       -1 0.10689153E+00 0.13950715E+04</pdfrwt>
<totfact> 0.50929287E-01</totfact>
</mgrwt>
</event>
<event>
 4    1  0.1065596E-007  0.1234790E+04  0.7818608E-02  0.9124024E-01
         -1   -1    0    0    0  501 -0.00000000000E+00  0.00000000000E+00  0.20052577373E+04  0.20052577373E+04  0.50400000000E-02 0.  1.
          1   -1    0    0  501    0  0.00000000000E+00 -0.00000000000E+00 -0.11961338174E+04  0.11961338174E+04  0.50400000000E-02 0. -1.
    8880023    1    1    2    0    0 -0.19617988178E+03  0.10258701365E+04 -0.65394783845E+03  0.13972666405E+04  0.65864270000E+03 0.  0.
    8880022    1    1    2    0    0  0.19617988178E+03 -0.10258701365E+04  0.14630717584E+04  0.18041249142E+04  0.15294330000E+03 0.  0.
<mgrwt>
<rscale>  0 0.11873247E+04</rscale>
<asrwt>0</asrwt>
<pdfrwt beam="1">  1        1 0.18402059E+00 0.12347900E+04</pdfrwt>
<pdfrwt beam="2">  1       -1 0.30850119E+00 0.12347900E+04</pdfrwt>
<totfact> 0.30661645E-01</totfact>
</mgrwt>
</event>
<event>
 4    1  0.1065596E-007  0.1334625E+04  0.7818608E-02  0.9036221E-01
         -1   -1    0    0    0  501 -0.00000000000E+00  0.00000000000E+00  0.13190638932E+04  0.13190638932E+04  0.50400000000E-02 0.  1.
          1   -1    0    0  501    0  0.00000000000E+00 -0.00000000000E+00 -0.18528503499E+04  0.18528503499E+04  0.50400000000E-02 0. -1.
    8880023    1    1    2    0    0 -0.98483854848E+03  0.61441673908E+03  0.66939551721E+03  0.14930892340E+04  0.65864270000E+03 0.  0.
    8880022    1    1    2    0    0  0.98483854848E+03 -0.61441673908E+03 -0.12031819740E+04  0.16788250091E+04  0.15294330000E+03 0.  0.
<mgrwt>
<rscale>  0 0.12916403E+04</rscale>
<asrwt>0</asrwt>
<pdfrwt beam="1">  1        1 0.28505390E+00 0.13346255E+04</pdfrwt>
<pdfrwt beam="2">  1       -1 0.20293291E+00 0.13346255E+04</pdfrwt>
<totfact> 0.51938886E-01</totfact>
</mgrwt>
</event>
<event>
 4    1  0.1065596E-007  0.8079597E+03  0.7818608E-02  0.9693843E-01
         -1   -1    0    0    0  501 -0.00000000000E+00  0.00000000000E+00  0.45082132471E+03  0.45082132474E+03  0.50400000000E-02 0.  1.
          1   -1    0    0  501    0  0.00000000000E+00 -0.00000000000E+00 -0.24939224718E+04  0.24939224718E+04  0.50400000000E-02 0. -1.
    8880023    1    1    2    0    0 -0.46742387138E+03 -0.22441146819E+02 -0.22649511677E+04  0.24047458658E+04  0.65864270000E+03 0. -1.
    8880022    1    1    2    0    0  0.46742387138E+03  0.22441146819E+02  0.22185002059E+03  0.53999793079E+03  0.15294330000E+03 0.  0.
<mgrwt>
<rscale>  0 0.71384587E+03</rscale>
<asrwt>0</asrwt>
<pdfrwt beam="1">  1        1 0.38368037E+00 0.80795971E+03</pdfrwt>
<pdfrwt beam="2">  1       -1 0.69357128E-01 0.80795971E+03</pdfrwt>
<totfact> 0.30212073E+00</totfact>
</mgrwt>
</event>
<event>
 4    1  0.1065596E-007  0.8279436E+03  0.7818608E-02  0.9653347E-01
         -1   -1    0    0    0  501 -0.00000000000E+00  0.00000000000E+00  0.74347873254E+03  0.74347873255E+03  0.50400000000E-02 0.  1.
          1   -1    0    0  501    0  0.00000000000E+00 -0.00000000000E+00 -0.97379803979E+03  0.97379803980E+03  0.50400000000E-02 0. -1.
    8880023    1    1    2    0    0  0.49119070546E+03  0.10203977643E+03 -0.64430402438E+03  0.10491035732E+04  0.65864270000E+03 0. -1.
    8880022    1    1    2    0    0 -0.49119070546E+03 -0.10203977643E+03  0.41398471712E+03  0.66817319920E+03  0.15294330000E+03 0.  0.
<mgrwt>
<rscale>  0 0.73863755E+03</rscale>
<asrwt>0</asrwt>
<pdfrwt beam="1">  1        1 0.14981508E+00 0.82794362E+03</pdfrwt>
<pdfrwt beam="2">  1       -1 0.11438134E+00 0.82794362E+03</pdfrwt>
<totfact> 0.11270703E+01</totfact>
</mgrwt>
</event>
<event>
 4    1  0.1065596E-007  0.1038874E+04  0.7818608E-02  0.9332377E-01
          1   -1    0    0  501    0  0.00000000000E+00  0.00000000000E+00  0.18668485952E+04  0.18668485952E+04  0.50400000000E-02 0. -1.
         -1   -1    0    0    0  501 -0.00000000000E+00 -0.00000000000E+00 -0.17299402690E+04  0.17299402690E+04  0.50400000000E-02 0.  1.
    8880023    1    1    2    0    0  0.12256399311E+02 -0.80330553062E+03  0.16075635902E+04  0.19140326271E+04  0.65864270000E+03 0. -1.
    8880022    1    1    2    0    0 -0.12256399311E+02  0.80330553062E+03 -0.14706552640E+04  0.16827562371E+04  0.15294330000E+03 0.  0.
<mgrwt>
<rscale>  0 0.97856060E+03</rscale>
<asrwt>0</asrwt>
<pdfrwt beam="1">  1        1 0.28720748E+00 0.10388745E+04</pdfrwt>
<pdfrwt beam="2">  1       -1 0.26614466E+00 0.10388745E+04</pdfrwt>
<totfact> 0.20275013E-01</totfact>
</mgrwt>
</event>
<event>
 4    1  0.1065596E-007  0.9040590E+03  0.7818608E-02  0.9519547E-01
         -1   -1    0    0    0  501 -0.00000000000E+00  0.00000000000E+00  0.41933001972E+03  0.41933001975E+03  0.50400000000E-02 0.  1.
          1   -1    0    0  501    0  0.00000000000E+00 -0.00000000000E+00 -0.19690497838E+04  0.19690497839E+04  0.50400000000E-02 0. -1.
    8880023    1    1    2    0    0  0.19972134467E+03 -0.58619443223E+03 -0.14963608445E+04  0.17482615683E+04  0.65864270000E+03 0.  0.
    8880022    1    1    2    0    0 -0.19972134467E+03  0.58619443223E+03 -0.53358919647E+02  0.64011823534E+03  0.15294330000E+03 0.  0.
<mgrwt>
<rscale>  0 0.82857936E+03</rscale>
<asrwt>0</asrwt>
<pdfrwt beam="1">  1        1 0.30293073E+00 0.90405903E+03</pdfrwt>
<pdfrwt beam="2">  1       -1 0.64512312E-01 0.90405903E+03</pdfrwt>
<totfact> 0.77980406E+00</totfact>
</mgrwt>
</event>
<event>
 4    1  0.1065596E-007  0.1093616E+04  0.7818608E-02  0.9268197E-01
         -1   -1    0    0    0  501 -0.00000000000E+00  0.00000000000E+00  0.27430183986E+04  0.27430183986E+04  0.50400000000E-02 0.  1.
          1   -1    0    0  501    0  0.00000000000E+00 -0.00000000000E+00 -0.12042673605E+04  0.12042673605E+04  0.50400000000E-02 0. -1.
    8880023    1    1    2    0    0 -0.72150666127E+03  0.49154317393E+03 -0.85920777164E+03  0.13907676856E+04  0.65864270000E+03 0. -1.
    8880022    1    1    2    0    0  0.72150666127E+03 -0.49154317393E+03  0.23979588097E+04  0.25565180735E+04  0.15294330000E+03 0.  0.
<mgrwt>
<rscale>  0 0.10376417E+04</rscale>
<asrwt>0</asrwt>
<pdfrwt beam="1">  1        1 0.18527191E+00 0.10936164E+04</pdfrwt>
<pdfrwt beam="2">  1       -1 0.42200282E+00 0.10936164E+04</pdfrwt>
<totfact> 0.54101869E-02</totfact>
</mgrwt>
</event>
<event>
 4    1  0.1065596E-007  0.9292320E+03  0.7818608E-02  0.9480646E-01
         -1   -1    0    0    0  501 -0.00000000000E+00  0.00000000000E+00  0.82016931454E+03  0.82016931455E+03  0.50400000000E-02 0.  1.
          1   -1    0    0  501    0  0.00000000000E+00 -0.00000000000E+00 -0.12185605115E+04  0.12185605116E+04  0.50400000000E-02 0. -1.
    8880023    1    1    2    0    0  0.12180342322E+03 -0.64406971504E+03 -0.82434388141E+03  0.12421815136E+04  0.65864270000E+03 0. -1.
    8880022    1    1    2    0    0 -0.12180342322E+03  0.64406971504E+03  0.42595268440E+03  0.79654831247E+03  0.15294330000E+03 0.  0.
<mgrwt>
<rscale>  0 0.85725850E+03</rscale>
<asrwt>0</asrwt>
<pdfrwt beam="1">  1        1 0.18747085E+00 0.92923198E+03</pdfrwt>
<pdfrwt beam="2">  1       -1 0.12617989E+00 0.92923198E+03</pdfrwt>
<totfact> 0.57295707E+00</totfact>
</mgrwt>
</event>
<event>
 4    1  0.1065596E-007  0.6655598E+03  0.7818608E-02  0.1019068E+00
         -1   -1    0    0    0  501 -0.00000000000E+00  0.00000000000E+00  0.19086605736E+03  0.19086605743E+03  0.50400000000E-02 0.  1.
          1   -1    0    0  501    0  0.00000000000E+00 -0.00000000000E+00 -0.94030442812E+03  0.94030442814E+03  0.50400000000E-02 0. -1.
    8880023    1    1    2    0    0  0.30618536354E+02 -0.90676334438E+02 -0.61465733080E+03  0.90596552526E+03  0.65864270000E+03 0. -1.
    8880022    1    1    2    0    0 -0.30618536354E+02  0.90676334438E+02 -0.13478103996E+03  0.22520496030E+03  0.15294330000E+03 0.  1.
<mgrwt>
<rscale>  0 0.48024345E+03</rscale>
<asrwt>0</asrwt>
<pdfrwt beam="1">  1        1 0.14466222E+00 0.66555984E+03</pdfrwt>
<pdfrwt beam="2">  1       -1 0.29364009E-01 0.66555984E+03</pdfrwt>
<totfact> 0.18235403E+02</totfact>
</mgrwt>
</event>
<event>
 4    1  0.1065596E-007  0.1158508E+04  0.7818608E-02  0.9198551E-01
          1   -1    0    0  501    0  0.00000000000E+00  0.00000000000E+00  0.22829704694E+04  0.22829704694E+04  0.50400000000E-02 0. -1.
         -1   -1    0    0    0  501 -0.00000000000E+00 -0.00000000000E+00 -0.15761713422E+04  0.15761713422E+04  0.50400000000E-02 0.  1.
    8880023    1    1    2    0    0  0.84523386418E+03  0.44035126303E+03  0.19603109532E+04  0.22770504517E+04  0.65864270000E+03 0.  0.
    8880022    1    1    2    0    0 -0.84523386418E+03 -0.44035126303E+03 -0.12535118260E+04  0.15820913598E+04  0.15294330000E+03 0.  0.
<mgrwt>
<rscale>  0 0.11068401E+04</rscale>
<asrwt>0</asrwt>
<pdfrwt beam="1">  1        1 0.35122622E+00 0.11585075E+04</pdfrwt>
<pdfrwt beam="2">  1       -1 0.24248790E+00 0.11585075E+04</pdfrwt>
<totfact> 0.14797808E-01</totfact>
</mgrwt>
</event>
<event>
 4    1  0.1065596E-007  0.1031556E+04  0.7818608E-02  0.9341389E-01
         -1   -1    0    0    0  501 -0.00000000000E+00  0.00000000000E+00  0.17115855404E+04  0.17115855404E+04  0.50400000000E-02 0.  1.
          1   -1    0    0  501    0  0.00000000000E+00 -0.00000000000E+00 -0.11016266122E+04  0.11016266122E+04  0.50400000000E-02 0. -1.
    8880023    1    1    2    0    0  0.11126467624E+03 -0.78607763490E+03 -0.71916053718E+03  0.12574974993E+04  0.65864270000E+03 0.  0.
    8880022    1    1    2    0    0 -0.11126467624E+03  0.78607763490E+03  0.13291194654E+04  0.15557146533E+04  0.15294330000E+03 0.  0.
<mgrwt>
<rscale>  0 0.97060180E+03</rscale>
<asrwt>0</asrwt>
<pdfrwt beam="1">  1        1 0.16948102E+00 0.10315561E+04</pdfrwt>
<pdfrwt beam="2">  1       -1 0.26332085E+00 0.10315561E+04</pdfrwt>
<totfact> 0.72556642E-01</totfact>
</mgrwt>
</event>
<event>
 4    1  0.1079170E-007  0.1206258E+04  0.7818608E-02  0.9151063E-01
         -1   -1    0    0    0  501 -0.00000000000E+00  0.00000000000E+00  0.17021607288E+04  0.17021607288E+04  0.50400000000E-02 0.  1.
          1   -1    0    0  501    0  0.00000000000E+00 -0.00000000000E+00 -0.17352545151E+04  0.17352545151E+04  0.50400000000E-02 0. -1.
    8880023    1    1    2    0    0 -0.99265283620E+03 -0.18944451683E+03 -0.13238561082E+04  0.17909924845E+04  0.65864270000E+03 0.  0.
    8880022    1    1    2    0    0  0.99265283620E+03  0.18944451683E+03  0.12907623219E+04  0.16464227594E+04  0.15294330000E+03 0.  0.
<mgrwt>
<rscale>  0 0.11573137E+04</rscale>
<asrwt>0</asrwt>
<pdfrwt beam="1">  1        1 0.26696223E+00 0.12062583E+04</pdfrwt>
<pdfrwt beam="2">  1       -1 0.26187088E+00 0.12062583E+04</pdfrwt>
<totfact> 0.25815624E-01</totfact>
</mgrwt>
</event>
<event>
 4    1  0.1065596E-007  0.8046036E+03  0.7818608E-02  0.9700929E-01
         -1   -1    0    0    0  501 -0.00000000000E+00  0.00000000000E+00  0.11047062598E+04  0.11047062599E+04  0.50400000000E-02 0.  1.
          1   -1    0    0  501    0  0.00000000000E+00 -0.00000000000E+00 -0.73011080521E+03  0.73011080522E+03  0.50400000000E-02 0. -1.
    8880023    1    1    2    0    0  0.14749308337E+03  0.43797555821E+03 -0.41644943852E+03  0.90598959174E+03  0.65864270000E+03 0.  0.
    8880022    1    1    2    0    0 -0.14749308337E+03 -0.43797555821E+03  0.79104489315E+03  0.92882747334E+03  0.15294330000E+03 0.  0.
<mgrwt>
<rscale>  0 0.70961503E+03</rscale>
<asrwt>0</asrwt>
<pdfrwt beam="1">  1        1 0.11232474E+00 0.80460363E+03</pdfrwt>
<pdfrwt beam="2">  1       -1 0.16995481E+00 0.80460363E+03</pdfrwt>
<totfact> 0.64528977E+00</totfact>
</mgrwt>
</event>
<event>
 4    1  0.1065596E-007  0.1433128E+04  0.7818608E-02  0.8958360E-01
          1   -1    0    0  501    0  0.00000000000E+00  0.00000000000E+00  0.39537416506E+04  0.39537416506E+04  0.50400000000E-02 0. -1.
         -1   -1    0    0    0  501 -0.00000000000E+00 -0.00000000000E+00 -0.13411283391E+04  0.13411283391E+04  0.50400000000E-02 0.  1.
    8880023    1    1    2    0    0  0.91983458333E+03  0.87974439582E+03 -0.80569452837E+03  0.16440802115E+04  0.65864270000E+03 0.  0.
    8880022    1    1    2    0    0 -0.91983458333E+03 -0.87974439582E+03  0.34183078399E+04  0.36507897781E+04  0.15294330000E+03 0.  0.
<mgrwt>
<rscale>  0 0.13937436E+04</rscale>
<asrwt>0</asrwt>
<pdfrwt beam="1">  1        1 0.60826794E+00 0.14331281E+04</pdfrwt>
<pdfrwt beam="2">  1       -1 0.20632744E+00 0.14331281E+04</pdfrwt>
<totfact> 0.13875454E-02</totfact>
</mgrwt>
</event>
<event>
 4    1  0.1065596E-007  0.6671883E+03  0.7818608E-02  0.1017764E+00
         -1   -1    0    0    0  501 -0.00000000000E+00  0.00000000000E+00  0.15856999718E+03  0.15856999726E+03  0.50400000000E-02 0.  1.
          1   -1    0    0  501    0  0.00000000000E+00 -0.00000000000E+00 -0.12365991627E+04  0.12365991627E+04  0.50400000000E-02 0. -1.
    8880023    1    1    2    0    0  0.34704106267E+01  0.10638569317E+03 -0.97737028217E+03  0.11833819477E+04  0.65864270000E+03 0. -1.
    8880022    1    1    2    0    0 -0.34704106267E+01 -0.10638569317E+03 -0.10065888337E+03  0.21178721226E+03  0.15294330000E+03 0.  0.
<mgrwt>
<rscale>  0 0.48502182E+03</rscale>
<asrwt>0</asrwt>
<pdfrwt beam="1">  1        1 0.19024602E+00 0.66718825E+03</pdfrwt>
<pdfrwt beam="2">  1       -1 0.24395385E-01 0.66718825E+03</pdfrwt>
<totfact> 0.15030000E+02</totfact>
</mgrwt>
</event>
<event>
 4    1  0.1065596E-007  0.8801767E+03  0.7818608E-02  0.9558634E-01
          1   -1    0    0  501    0  0.00000000000E+00  0.00000000000E+00  0.10740194299E+04  0.10740194299E+04  0.50400000000E-02 0. -1.
         -1   -1    0    0    0  501 -0.00000000000E+00 -0.00000000000E+00 -0.13448032057E+04  0.13448032058E+04  0.50400000000E-02 0.  1.
    8880023    1    1    2    0    0 -0.15649480978E+03 -0.56250357892E+03  0.80015004930E+03  0.11895172170E+04  0.65864270000E+03 0. -1.
    8880022    1    1    2    0    0  0.15649480978E+03  0.56250357892E+03 -0.10709338251E+04  0.12293054187E+04  0.15294330000E+03 0.  0.
<mgrwt>
<rscale>  0 0.80095609E+03</rscale>
<asrwt>0</asrwt>
<pdfrwt beam="1">  1        1 0.16523376E+00 0.88017675E+03</pdfrwt>
<pdfrwt beam="2">  1       -1 0.20689280E+00 0.88017675E+03</pdfrwt>
<totfact> 0.18307426E+00</totfact>
</mgrwt>
</event>
<event>
 4    1  0.1065596E-007  0.7067481E+03  0.7818608E-02  0.9970281E-01
          1   -1    0    0  501    0  0.00000000000E+00  0.00000000000E+00  0.94389292025E+03  0.94389292026E+03  0.50400000000E-02 0. -1.
         -1   -1    0    0    0  501 -0.00000000000E+00 -0.00000000000E+00 -0.32760252255E+03  0.32760252258E+03  0.50400000000E-02 0.  1.
    8880023    1    1    2    0    0  0.21776356352E+03 -0.13513605518E+03  0.66342522001E+03  0.96934305167E+03  0.65864270000E+03 0. -1.
    8880022    1    1    2    0    0 -0.21776356352E+03  0.13513605518E+03 -0.47134822310E+02  0.30215239118E+03  0.15294330000E+03 0.  0.
<mgrwt>
<rscale>  0 0.56972805E+03</rscale>
<asrwt>0</asrwt>
<pdfrwt beam="1">  1        1 0.14521429E+00 0.70674814E+03</pdfrwt>
<pdfrwt beam="2">  1       -1 0.50400389E-01 0.70674814E+03</pdfrwt>
<totfact> 0.67978390E+01</totfact>
</mgrwt>
</event>
<event>
 4    1  0.1065596E-007  0.7873043E+03  0.7818608E-02  0.9738951E-01
          1   -1    0    0  501    0  0.00000000000E+00  0.00000000000E+00  0.20764731075E+04  0.20764731075E+04  0.50400000000E-02 0. -1.
         -1   -1    0    0    0  501 -0.00000000000E+00 -0.00000000000E+00 -0.19171365662E+03  0.19171365669E+03  0.50400000000E-02 0.  1.
    8880023    1    1    2    0    0 -0.16218273031E+03 -0.39966811431E+03  0.10064707097E+04  0.12778228888E+04  0.65864270000E+03 0.  1.
    8880022    1    1    2    0    0  0.16218273031E+03  0.39966811431E+03  0.87828874120E+03  0.99036387532E+03  0.15294330000E+03 0. -1.
<mgrwt>
<rscale>  0 0.68744300E+03</rscale>
<asrwt>0</asrwt>
<pdfrwt beam="1">  1        1 0.31945739E+00 0.78730429E+03</pdfrwt>
<pdfrwt beam="2">  1       -1 0.29494410E-01 0.78730429E+03</pdfrwt>
<totfact> 0.28736472E+01</totfact>
</mgrwt>
</event>
<event>
 4    1  0.1065596E-007  0.9099918E+03  0.7818608E-02  0.9510178E-01
         -1   -1    0    0    0  501 -0.00000000000E+00  0.00000000000E+00  0.84091433933E+03  0.84091433934E+03  0.50400000000E-02 0.  1.
          1   -1    0    0  501    0  0.00000000000E+00 -0.00000000000E+00 -0.11680128279E+04  0.11680128279E+04  0.50400000000E-02 0. -1.
    8880023    1    1    2    0    0 -0.61931724652E+03  0.10354238419E+03 -0.79717207064E+03  0.12097803080E+04  0.65864270000E+03 0.  0.
    8880022    1    1    2    0    0  0.61931724652E+03 -0.10354238419E+03  0.47007358203E+03  0.79914685928E+03  0.15294330000E+03 0.  0.
<mgrwt>
<rscale>  0 0.83537567E+03</rscale>
<asrwt>0</asrwt>
<pdfrwt beam="1">  1        1 0.17969428E+00 0.90999180E+03</pdfrwt>
<pdfrwt beam="2">  1       -1 0.12937144E+00 0.90999180E+03</pdfrwt>
<totfact> 0.58725538E+00</totfact>
</mgrwt>
</event>
<event>
 4    1  0.1065596E-007  0.6706803E+03  0.7818608E-02  0.1015180E+00
          1   -1    0    0  501    0  0.00000000000E+00  0.00000000000E+00  0.96087723061E+03  0.96087723063E+03  0.50400000000E-02 0. -1.
         -1   -1    0    0    0  501 -0.00000000000E+00 -0.00000000000E+00 -0.13791528816E+04  0.13791528816E+04  0.50400000000E-02 0.  1.
    8880023    1    1    2    0    0  0.99129486105E+02 -0.78582262373E+02  0.83507776069E+03  0.10710587751E+04  0.65864270000E+03 0.  0.
    8880022    1    1    2    0    0 -0.99129486105E+02  0.78582262373E+02 -0.12533534117E+04  0.12689713372E+04  0.15294330000E+03 0.  1.
<mgrwt>
<rscale>  0 0.49466900E+03</rscale>
<asrwt>0</asrwt>
<pdfrwt beam="1">  1        1 0.14782727E+00 0.67068028E+03</pdfrwt>
<pdfrwt beam="2">  1       -1 0.21217737E+00 0.67068028E+03</pdfrwt>
<totfact> 0.21389397E+00</totfact>
</mgrwt>
</event>
<event>
 4    1  0.1065596E-007  0.7082254E+03  0.7818608E-02  0.9964651E-01
          1   -1    0    0  501    0  0.00000000000E+00  0.00000000000E+00  0.89219038672E+03  0.89219038673E+03  0.50400000000E-02 0. -1.
         -1   -1    0    0    0  501 -0.00000000000E+00 -0.00000000000E+00 -0.49404412315E+03  0.49404412317E+03  0.50400000000E-02 0.  1.
    8880023    1    1    2    0    0 -0.30452509339E+02  0.25854522290E+03  0.67369181439E+03  0.97746808369E+03  0.65864270000E+03 0. -1.
    8880022    1    1    2    0    0  0.30452509339E+02 -0.25854522290E+03 -0.27554555081E+03  0.40876642621E+03  0.15294330000E+03 0.  0.
<mgrwt>
<rscale>  0 0.57227783E+03</rscale>
<asrwt>0</asrwt>
<pdfrwt beam="1">  1        1 0.13726006E+00 0.70822538E+03</pdfrwt>
<pdfrwt beam="2">  1       -1 0.76006789E-01 0.70822538E+03</pdfrwt>
<totfact> 0.33082564E+01</totfact>
</mgrwt>
</event>
<event>
 4    1  0.1065596E-007  0.1120776E+04  0.7818608E-02  0.9238269E-01
         -1   -1    0    0    0  501 -0.00000000000E+00  0.00000000000E+00  0.92562339009E+03  0.92562339010E+03  0.50400000000E-02 0.  1.
          1   -1    0    0  501    0  0.00000000000E+00 -0.00000000000E+00 -0.16610435763E+04  0.16610435763E+04  0.50400000000E-02 0. -1.
    8880023    1    1    2    0    0 -0.64026663425E+03  0.64217451887E+03 -0.11249221280E+04  0.15879513456E+04  0.65864270000E+03 0.  0.
    8880022    1    1    2    0    0  0.64026663425E+03 -0.64217451887E+03  0.38950194178E+03  0.99871562082E+03  0.15294330000E+03 0.  0.
<mgrwt>
<rscale>  0 0.10667008E+04</rscale>
<asrwt>0</asrwt>
<pdfrwt beam="1">  1        1 0.25554516E+00 0.11207764E+04</pdfrwt>
<pdfrwt beam="2">  1       -1 0.14240360E+00 0.11207764E+04</pdfrwt>
<totfact> 0.20129845E+00</totfact>
</mgrwt>
</event>
<event>
 4    1  0.1065596E-007  0.1296314E+04  0.7818608E-02  0.9068749E-01
          1   -1    0    0  501    0  0.00000000000E+00  0.00000000000E+00  0.26289213320E+04  0.26289213320E+04  0.50400000000E-02 0. -1.
         -1   -1    0    0    0  501 -0.00000000000E+00 -0.00000000000E+00 -0.65110838642E+03  0.65110838644E+03  0.50400000000E-02 0.  1.
    8880023    1    1    2    0    0 -0.44117352375E+03  0.10256635985E+04  0.16656537962E+04  0.21106474529E+04  0.65864270000E+03 0. -1.
    8880022    1    1    2    0    0  0.44117352375E+03 -0.10256635985E+04  0.31215914938E+03  0.11693822655E+04  0.15294330000E+03 0.  0.
<mgrwt>
<rscale>  0 0.12517241E+04</rscale>
<asrwt>0</asrwt>
<pdfrwt beam="1">  1        1 0.40444944E+00 0.12963140E+04</pdfrwt>
<pdfrwt beam="2">  1       -1 0.10017052E+00 0.12963140E+04</pdfrwt>
<totfact> 0.10240259E+00</totfact>
</mgrwt>
</event>
<event>
 4    1  0.1065596E-007  0.8666104E+03  0.7818608E-02  0.9581911E-01
          1   -1    0    0  501    0  0.00000000000E+00  0.00000000000E+00  0.15129756271E+04  0.15129756271E+04  0.50400000000E-02 0. -1.
         -1   -1    0    0    0  501 -0.00000000000E+00 -0.00000000000E+00 -0.10470310597E+04  0.10470310597E+04  0.50400000000E-02 0.  1.
    8880023    1    1    2    0    0 -0.20854444324E+03 -0.52317543598E+03  0.12876663030E+04  0.15521269393E+04  0.65864270000E+03 0. -1.
    8880022    1    1    2    0    0  0.20854444324E+03  0.52317543598E+03 -0.82172173563E+03  0.10078797475E+04  0.15294330000E+03 0.  0.
<mgrwt>
<rscale>  0 0.78505067E+03</rscale>
<asrwt>0</asrwt>
<pdfrwt beam="1">  1        1 0.23276548E+00 0.86661037E+03</pdfrwt>
<pdfrwt beam="2">  1       -1 0.16108170E+00 0.86661037E+03</pdfrwt>
<totfact> 0.18858792E+00</totfact>
</mgrwt>
</event>
<event>
 4    1  0.1065596E-007  0.8050373E+03  0.7818608E-02  0.9700008E-01
         -1   -1    0    0    0  501 -0.00000000000E+00  0.00000000000E+00  0.15655418872E+04  0.15655418872E+04  0.50400000000E-02 0.  1.
          1   -1    0    0  501    0  0.00000000000E+00 -0.00000000000E+00 -0.45367522571E+03  0.45367522574E+03  0.50400000000E-02 0. -1.
    8880023    1    1    2    0    0  0.45158992380E+03 -0.10169273296E+03 -0.14324322841E+00  0.80503732708E+03  0.65864270000E+03 0.  0.
    8880022    1    1    2    0    0 -0.45158992380E+03  0.10169273296E+03  0.11120099047E+04  0.12141797859E+04  0.15294330000E+03 0.  0.
<mgrwt>
<rscale>  0 0.71016295E+03</rscale>
<asrwt>0</asrwt>
<pdfrwt beam="1">  1        1 0.69796189E-01 0.80503731E+03</pdfrwt>
<pdfrwt beam="2">  1       -1 0.24085260E+00 0.80503731E+03</pdfrwt>
<totfact> 0.41825447E+00</totfact>
</mgrwt>
</event>
<event>
 4    1  0.1065596E-007  0.8419214E+03  0.7818608E-02  0.9626568E-01
         -1   -1    0    0    0  501 -0.00000000000E+00  0.00000000000E+00  0.16117095148E+04  0.16117095148E+04  0.50400000000E-02 0.  1.
          1   -1    0    0  501    0  0.00000000000E+00 -0.00000000000E+00 -0.46263177668E+03  0.46263177670E+03  0.50400000000E-02 0. -1.
    8880023    1    1    2    0    0 -0.40584315742E+03  0.33213354314E+03  0.45724081298E+02  0.84316205843E+03  0.65864270000E+03 0. -1.
    8880022    1    1    2    0    0  0.40584315742E+03 -0.33213354314E+03  0.11033536568E+04  0.12311792330E+04  0.15294330000E+03 0.  0.
<mgrwt>
<rscale>  0 0.75562421E+03</rscale>
<asrwt>0</asrwt>
<pdfrwt beam="1">  1        1 0.71174121E-01 0.84192135E+03</pdfrwt>
<pdfrwt beam="2">  1       -1 0.24795530E+00 0.84192135E+03</pdfrwt>
<totfact> 0.36448755E+00</totfact>
</mgrwt>
</event>
<event>
 4    1  0.1065596E-007  0.1246655E+04  0.7818608E-02  0.9113052E-01
          1   -1    0    0  501    0  0.00000000000E+00  0.00000000000E+00  0.25764456878E+04  0.25764456878E+04  0.50400000000E-02 0. -1.
         -1   -1    0    0    0  501 -0.00000000000E+00 -0.00000000000E+00 -0.74388541316E+03  0.74388541318E+03  0.50400000000E-02 0.  1.
    8880023    1    1    2    0    0 -0.40928380007E+03 -0.97612810178E+03  0.18731866331E+04  0.22501061461E+04  0.65864270000E+03 0.  0.
    8880022    1    1    2    0    0  0.40928380007E+03  0.97612810178E+03 -0.40626358429E+02  0.10702249549E+04  0.15294330000E+03 0.  0.
<mgrwt>
<rscale>  0 0.11997763E+04</rscale>
<asrwt>0</asrwt>
<pdfrwt beam="1">  1        1 0.39637626E+00 0.12466553E+04</pdfrwt>
<pdfrwt beam="2">  1       -1 0.11444391E+00 0.12466553E+04</pdfrwt>
<totfact> 0.81864563E-01</totfact>
</mgrwt>
</event>
<event>
 4    1  0.1065596E-007  0.8527776E+03  0.7818608E-02  0.9606542E-01
          1   -1    0    0  501    0  0.00000000000E+00  0.00000000000E+00  0.23603120904E+04  0.23603120904E+04  0.50400000000E-02 0. -1.
         -1   -1    0    0    0  501 -0.00000000000E+00 -0.00000000000E+00 -0.47262492567E+03  0.47262492569E+03  0.50400000000E-02 0.  1.
    8880023    1    1    2    0    0 -0.39904253287E+03 -0.36631192717E+03  0.20720326435E+04  0.22406581294E+04  0.65864270000E+03 0.  0.
    8880022    1    1    2    0    0  0.39904253287E+03  0.36631192717E+03 -0.18434547877E+03  0.59227888666E+03  0.15294330000E+03 0.  0.
<mgrwt>
<rscale>  0 0.76864687E+03</rscale>
<asrwt>0</asrwt>
<pdfrwt beam="1">  1        1 0.36312493E+00 0.85277757E+03</pdfrwt>
<pdfrwt beam="2">  1       -1 0.72711528E-01 0.85277757E+03</pdfrwt>
<totfact> 0.33541681E+00</totfact>
</mgrwt>
</event>
<event>
 4    1  0.1065596E-007  0.6711939E+03  0.7818608E-02  0.1014821E+00
         -1   -1    0    0    0  501 -0.00000000000E+00  0.00000000000E+00  0.23269808433E+03  0.23269808438E+03  0.50400000000E-02 0.  1.
          1   -1    0    0  501    0  0.00000000000E+00 -0.00000000000E+00 -0.12586612793E+04  0.12586612793E+04  0.50400000000E-02 0. -1.
    8880023    1    1    2    0    0  0.43282890784E+02  0.12172763141E+03 -0.10909344129E+04  0.12808743594E+04  0.65864270000E+03 0. -1.
    8880022    1    1    2    0    0 -0.43282890784E+02 -0.12172763141E+03  0.64971217938E+02  0.21048500435E+03  0.15294330000E+03 0.  0.
<mgrwt>
<rscale>  0 0.49602731E+03</rscale>
<asrwt>0</asrwt>
<pdfrwt beam="1">  1        1 0.19364019E+00 0.67119388E+03</pdfrwt>
<pdfrwt beam="2">  1       -1 0.35799706E-01 0.67119388E+03</pdfrwt>
<totfact> 0.74407313E+01</totfact>
</mgrwt>
</event>
<event>
 4    1  0.1065596E-007  0.1021703E+04  0.7818608E-02  0.9353698E-01
         -1   -1    0    0    0  501 -0.00000000000E+00  0.00000000000E+00  0.56508776343E+03  0.56508776345E+03  0.50400000000E-02 0.  1.
          1   -1    0    0  501    0  0.00000000000E+00 -0.00000000000E+00 -0.30364768892E+04  0.30364768892E+04  0.50400000000E-02 0. -1.
    8880023    1    1    2    0    0 -0.77886956092E+03 -0.58565800357E+02 -0.26016463267E+04  0.27950745180E+04  0.65864270000E+03 0. -1.
    8880022    1    1    2    0    0  0.77886956092E+03  0.58565800357E+02  0.13025720089E+03  0.80649013465E+03  0.15294330000E+03 0.  0.
<mgrwt>
<rscale>  0 0.95986133E+03</rscale>
<asrwt>0</asrwt>
<pdfrwt beam="1">  1        1 0.46715028E+00 0.10217035E+04</pdfrwt>
<pdfrwt beam="2">  1       -1 0.86936581E-01 0.10217035E+04</pdfrwt>
<totfact> 0.75110605E-01</totfact>
</mgrwt>
</event>
<event>
 4    1  0.1065596E-007  0.7523890E+03  0.7818608E-02  0.9825226E-01
         -1   -1    0    0    0  501 -0.00000000000E+00  0.00000000000E+00  0.57082281060E+03  0.57082281062E+03  0.50400000000E-02 0.  1.
          1   -1    0    0  501    0  0.00000000000E+00 -0.00000000000E+00 -0.14495512860E+04  0.14495512860E+04  0.50400000000E-02 0. -1.
    8880023    1    1    2    0    0  0.25471851034E+03 -0.25961016933E+03 -0.12626746282E+04  0.14698422985E+04  0.65864270000E+03 0. -1.
    8880022    1    1    2    0    0 -0.25471851034E+03  0.25961016933E+03  0.38394615277E+03  0.55053179815E+03  0.15294330000E+03 0.  0.
<mgrwt>
<rscale>  0 0.64026188E+03</rscale>
<asrwt>0</asrwt>
<pdfrwt beam="1">  1        1 0.22300789E+00 0.75238897E+03</pdfrwt>
<pdfrwt beam="2">  1       -1 0.87818894E-01 0.75238897E+03</pdfrwt>
<totfact> 0.93839511E+00</totfact>
</mgrwt>
</event>
<event>
 4    1  0.1065596E-007  0.6949339E+03  0.7818608E-02  0.1001890E+00
         -1   -1    0    0    0  501 -0.00000000000E+00  0.00000000000E+00  0.36580262625E+03  0.36580262629E+03  0.50400000000E-02 0.  1.
          1   -1    0    0  501    0  0.00000000000E+00 -0.00000000000E+00 -0.12869799510E+04  0.12869799510E+04  0.50400000000E-02 0. -1.
    8880023    1    1    2    0    0 -0.18021492137E+03  0.12901723758E+03 -0.11199806522E+04  0.13180628714E+04  0.65864270000E+03 0. -1.
    8880022    1    1    2    0    0  0.18021492137E+03 -0.12901723758E+03  0.19880332745E+03  0.33471970587E+03  0.15294330000E+03 0.  0.
<mgrwt>
<rscale>  0 0.54829051E+03</rscale>
<asrwt>0</asrwt>
<pdfrwt beam="1">  1        1 0.19799691E+00 0.69493386E+03</pdfrwt>
<pdfrwt beam="2">  1       -1 0.56277328E-01 0.69493386E+03</pdfrwt>
<totfact> 0.30606708E+01</totfact>
</mgrwt>
</event>
<event>
 4    1  0.1065596E-007  0.7504934E+03  0.7818608E-02  0.9830372E-01
         -1   -1    0    0    0  501 -0.00000000000E+00  0.00000000000E+00  0.13255712947E+04  0.13255712947E+04  0.50400000000E-02 0.  1.
          1   -1    0    0  501    0  0.00000000000E+00 -0.00000000000E+00 -0.24633791261E+03  0.24633791267E+03  0.50400000000E-02 0. -1.
    8880023    1    1    2    0    0 -0.37375370829E+02 -0.35781723460E+03  0.74678595079E+03  0.10587396065E+04  0.65864270000E+03 0.  0.
    8880022    1    1    2    0    0  0.37375370829E+02  0.35781723460E+03  0.33244743131E+03  0.51316960093E+03  0.15294330000E+03 0. -1.
<mgrwt>
<rscale>  0 0.63757795E+03</rscale>
<asrwt>0</asrwt>
<pdfrwt beam="1">  1        1 0.37898140E-01 0.75049337E+03</pdfrwt>
<pdfrwt beam="2">  1       -1 0.20393405E+00 0.75049337E+03</pdfrwt>
<totfact> 0.16478196E+01</totfact>
</mgrwt>
</event>
<event>
 4    1  0.1635251E-007  0.8211004E+03  0.7818608E-02  0.9666903E-01
          1   -1    0    0  501    0  0.00000000000E+00  0.00000000000E+00  0.21406888511E+04  0.21406888511E+04  0.50400000000E-02 0. -1.
         -1   -1    0    0    0  501 -0.00000000000E+00 -0.00000000000E+00 -0.12154105038E+04  0.12154105038E+04  0.50400000000E-02 0.  1.
    8880023    1    1    2    0    0 -0.23076809605E+03 -0.43259882791E+03  0.20016242842E+04  0.21634938506E+04  0.65864270000E+03 0. -1.
    8880022    1    1    2    0    0  0.23076809605E+03  0.43259882791E+03 -0.10763459369E+04  0.11926055043E+04  0.15294330000E+03 0.  0.
<mgrwt>
<rscale>  0 0.73022036E+03</rscale>
<asrwt>0</asrwt>
<pdfrwt beam="1">  1        1 0.32933674E+00 0.82110040E+03</pdfrwt>
<pdfrwt beam="2">  1       -1 0.18698623E+00 0.82110040E+03</pdfrwt>
<totfact> 0.46566792E-01</totfact>
</mgrwt>
</event>
<event>
 4    1  0.1065596E-007  0.7690407E+03  0.7818608E-02  0.9782240E-01
          1   -1    0    0  501    0  0.00000000000E+00  0.00000000000E+00  0.19681452324E+04  0.19681452324E+04  0.50400000000E-02 0. -1.
         -1   -1    0    0    0  501 -0.00000000000E+00 -0.00000000000E+00 -0.38984438512E+03  0.38984438515E+03  0.50400000000E-02 0.  1.
    8880023    1    1    2    0    0  0.39699374025E+03 -0.30566068133E+01  0.17403757608E+04  0.19027168385E+04  0.65864270000E+03 0. -1.
    8880022    1    1    2    0    0 -0.39699374025E+03  0.30566068133E+01 -0.16207491357E+03  0.45527277896E+03  0.15294330000E+03 0.  0.
<mgrwt>
<rscale>  0 0.66324398E+03</rscale>
<asrwt>0</asrwt>
<pdfrwt beam="1">  1        1 0.30279157E+00 0.76904069E+03</pdfrwt>
<pdfrwt beam="2">  1       -1 0.59976059E-01 0.76904069E+03</pdfrwt>
<totfact> 0.92063391E+00</totfact>
</mgrwt>
</event>
<event>
 4    1  0.1065596E-007  0.1077819E+04  0.7818608E-02  0.9286163E-01
         -1   -1    0    0    0  501 -0.00000000000E+00  0.00000000000E+00  0.64044094472E+03  0.64044094474E+03  0.50400000000E-02 0.  1.
          1   -1    0    0  501    0  0.00000000000E+00 -0.00000000000E+00 -0.35073817142E+04  0.35073817142E+04  0.50400000000E-02 0. -1.
    8880023    1    1    2    0    0 -0.81781079993E+03  0.24304216544E+03 -0.30733136231E+04  0.32568314097E+04  0.65864270000E+03 0. -1.
    8880022    1    1    2    0    0  0.81781079993E+03 -0.24304216544E+03  0.20637285359E+03  0.89099124932E+03  0.15294330000E+03 0.  0.
<mgrwt>
<rscale>  0 0.10206676E+04</rscale>
<asrwt>0</asrwt>
<pdfrwt beam="1">  1        1 0.53959718E+00 0.10778192E+04</pdfrwt>
<pdfrwt beam="2">  1       -1 0.98529378E-01 0.10778192E+04</pdfrwt>
<totfact> 0.24919038E-01</totfact>
</mgrwt>
</event>
<event>
 4    1  0.1065596E-007  0.8494574E+03  0.7818608E-02  0.9612599E-01
          1   -1    0    0  501    0  0.00000000000E+00  0.00000000000E+00  0.16385567475E+04  0.16385567475E+04  0.50400000000E-02 0. -1.
         -1   -1    0    0    0  501 -0.00000000000E+00 -0.00000000000E+00 -0.30264991118E+03  0.30264991122E+03  0.50400000000E-02 0.  1.
    8880023    1    1    2    0    0 -0.53023834453E+03 -0.81332726934E+02  0.76792011713E+03  0.11451110108E+04  0.65864270000E+03 0.  0.
    8880022    1    1    2    0    0  0.53023834453E+03  0.81332726934E+02  0.56798671919E+03  0.79609564794E+03  0.15294330000E+03 0.  1.
<mgrwt>
<rscale>  0 0.76467884E+03</rscale>
<asrwt>0</asrwt>
<pdfrwt beam="1">  1        1 0.25208565E+00 0.84945743E+03</pdfrwt>
<pdfrwt beam="2">  1       -1 0.46561525E-01 0.84945743E+03</pdfrwt>
<totfact> 0.24658854E+01</totfact>
</mgrwt>
</event>
<event>
 4    1  0.1065596E-007  0.8371505E+03  0.7818608E-02  0.9635577E-01
          1   -1    0    0  501    0  0.00000000000E+00  0.00000000000E+00  0.18051063493E+04  0.18051063493E+04  0.50400000000E-02 0. -1.
         -1   -1    0    0    0  501 -0.00000000000E+00 -0.00000000000E+00 -0.79172213754E+03  0.79172213756E+03  0.50400000000E-02 0.  1.
    8880023    1    1    2    0    0  0.45224385039E+03  0.24997266183E+03  0.15965990927E+04  0.18027616872E+04  0.65864270000E+03 0. -1.
    8880022    1    1    2    0    0 -0.45224385039E+03 -0.24997266183E+03 -0.58321488095E+03  0.79406679962E+03  0.15294330000E+03 0.  0.
<mgrwt>
<rscale>  0 0.74985573E+03</rscale>
<asrwt>0</asrwt>
<pdfrwt beam="1">  1        1 0.27770867E+00 0.83715055E+03</pdfrwt>
<pdfrwt beam="2">  1       -1 0.12180341E+00 0.83715055E+03</pdfrwt>
<totfact> 0.24936191E+00</totfact>
</mgrwt>
</event>
<event>
 4    1  0.1065596E-007  0.6739273E+03  0.7818608E-02  0.1012991E+00
          1   -1    0    0  501    0  0.00000000000E+00  0.00000000000E+00  0.69300930645E+03  0.69300930646E+03  0.50400000000E-02 0. -1.
         -1   -1    0    0    0  501 -0.00000000000E+00 -0.00000000000E+00 -0.14152277513E+04  0.14152277513E+04  0.50400000000E-02 0.  1.
    8880023    1    1    2    0    0 -0.14155951711E+03  0.18129768053E+02  0.51831294536E+03  0.85019192007E+03  0.65864270000E+03 0. -1.
    8880022    1    1    2    0    0  0.14155951711E+03 -0.18129768053E+02 -0.12405313902E+04  0.12580451376E+04  0.15294330000E+03 0.  0.
<mgrwt>
<rscale>  0 0.50302984E+03</rscale>
<asrwt>0</asrwt>
<pdfrwt beam="1">  1        1 0.10661682E+00 0.67392729E+03</pdfrwt>
<pdfrwt beam="2">  1       -1 0.21772735E+00 0.67392729E+03</pdfrwt>
<totfact> 0.33221635E+00</totfact>
</mgrwt>
</event>
<event>
 4    1  0.1065596E-007  0.6707754E+03  0.7818608E-02  0.1015113E+00
          1   -1    0    0  501    0  0.00000000000E+00  0.00000000000E+00  0.47356960431E+03  0.47356960434E+03  0.50400000000E-02 0. -1.
         -1   -1    0    0    0  501 -0.00000000000E+00 -0.00000000000E+00 -0.83199798878E+03  0.83199798879E+03  0.50400000000E-02 0.  1.
    8880023    1    1    2    0    0 -0.16183646743E+02  0.12596631304E+03  0.21040129216E+03  0.70299952521E+03  0.65864270000E+03 0. -1.
    8880022    1    1    2    0    0  0.16183646743E+02 -0.12596631304E+03 -0.56882967663E+03  0.60256806791E+03  0.15294330000E+03 0.  0.
<mgrwt>
<rscale>  0 0.49492163E+03</rscale>
<asrwt>0</asrwt>
<pdfrwt beam="1">  1        1 0.72856862E-01 0.67077539E+03</pdfrwt>
<pdfrwt beam="2">  1       -1 0.12799969E+00 0.67077539E+03</pdfrwt>
<totfact> 0.26023352E+01</totfact>
</mgrwt>
</event>
<event>
 4    1  0.1065596E-007  0.7200522E+03  0.7818608E-02  0.9922410E-01
         -1   -1    0    0    0  501 -0.00000000000E+00  0.00000000000E+00  0.18544484194E+04  0.18544484194E+04  0.50400000000E-02 0.  1.
          1   -1    0    0  501    0  0.00000000000E+00 -0.00000000000E+00 -0.58228320789E+03  0.58228320791E+03  0.50400000000E-02 0. -1.
    8880023    1    1    2    0    0 -0.17045143093E+03 -0.23582029471E+03 -0.33651703555E+03  0.79480741264E+03  0.65864270000E+03 0. -1.
    8880022    1    1    2    0    0  0.17045143093E+03  0.23582029471E+03  0.16086822470E+04  0.16419242147E+04  0.15294330000E+03 0.  0.
<mgrwt>
<rscale>  0 0.59187413E+03</rscale>
<asrwt>0</asrwt>
<pdfrwt beam="1">  1        1 0.89582030E-01 0.72005216E+03</pdfrwt>
<pdfrwt beam="2">  1       -1 0.28529976E+00 0.72005216E+03</pdfrwt>
<totfact> 0.15548601E+00</totfact>
</mgrwt>
</event>
<event>
 4    1  0.1065596E-007  0.1014935E+04  0.7818608E-02  0.9362274E-01
          1   -1    0    0  501    0  0.00000000000E+00  0.00000000000E+00  0.11050914074E+04  0.11050914074E+04  0.50400000000E-02 0. -1.
         -1   -1    0    0    0  501 -0.00000000000E+00 -0.00000000000E+00 -0.11600782507E+04  0.11600782507E+04  0.50400000000E-02 0.  1.
    8880023    1    1    2    0    0 -0.67165236648E+01 -0.77216422190E+03  0.65265152649E+03  0.12066676919E+04  0.65864270000E+03 0.  0.
    8880022    1    1    2    0    0  0.67165236648E+01  0.77216422190E+03 -0.70763836974E+03  0.10585019663E+04  0.15294330000E+03 0.  0.
<mgrwt>
<rscale>  0 0.95246514E+03</rscale>
<asrwt>0</asrwt>
<pdfrwt beam="1">  1        1 0.17001406E+00 0.10149349E+04</pdfrwt>
<pdfrwt beam="2">  1       -1 0.17847358E+00 0.10149349E+04</pdfrwt>
<totfact> 0.26871448E+00</totfact>
</mgrwt>
</event>
<event>
 4    1  0.1065596E-007  0.1339359E+04  0.7818608E-02  0.9032295E-01
         -1   -1    0    0    0  501 -0.00000000000E+00  0.00000000000E+00  0.14533281312E+04  0.14533281312E+04  0.50400000000E-02 0.  1.
          1   -1    0    0  501    0  0.00000000000E+00 -0.00000000000E+00 -0.18308992210E+04  0.18308992210E+04  0.50400000000E-02 0. -1.
    8880023    1    1    2    0    0 -0.10419862399E+04 -0.52377315759E+03 -0.12403800099E+04  0.18254934730E+04  0.65864270000E+03 0. -1.
    8880022    1    1    2    0    0  0.10419862399E+04  0.52377315759E+03  0.86280892012E+03  0.14587338792E+04  0.15294330000E+03 0.  0.
<mgrwt>
<rscale>  0 0.12965638E+04</rscale>
<asrwt>0</asrwt>
<pdfrwt beam="1">  1        1 0.28167680E+00 0.13393595E+04</pdfrwt>
<pdfrwt beam="2">  1       -1 0.22358894E+00 0.13393595E+04</pdfrwt>
<totfact> 0.38922803E-01</totfact>
</mgrwt>
</event>
<event>
 4    1  0.1065596E-007  0.1321193E+04  0.7818608E-02  0.9047471E-01
         -1   -1    0    0    0  501 -0.00000000000E+00  0.00000000000E+00  0.17712569107E+04  0.17712569107E+04  0.50400000000E-02 0.  1.
          1   -1    0    0  501    0  0.00000000000E+00 -0.00000000000E+00 -0.11182162670E+04  0.11182162670E+04  0.50400000000E-02 0. -1.
    8880023    1    1    2    0    0  0.37411047607E+02 -0.11447012783E+04  0.10287156576E+04  0.16744571399E+04  0.65864270000E+03 0.  0.
    8880022    1    1    2    0    0 -0.37411047607E+02  0.11447012783E+04 -0.37567501390E+03  0.12150160378E+04  0.15294330000E+03 0.  0.
<mgrwt>
<rscale>  0 0.12776598E+04</rscale>
<asrwt>0</asrwt>
<pdfrwt beam="1">  1        1 0.17203327E+00 0.13211929E+04</pdfrwt>
<pdfrwt beam="2">  1       -1 0.27250106E+00 0.13211929E+04</pdfrwt>
<totfact> 0.59211409E-01</totfact>
</mgrwt>
</event>
<event>
 4    1  0.1065596E-007  0.7052809E+03  0.7818608E-02  0.9975961E-01
         -1   -1    0    0    0  501 -0.00000000000E+00  0.00000000000E+00  0.12228827456E+03  0.12228827467E+03  0.50400000000E-02 0.  1.
          1   -1    0    0  501    0  0.00000000000E+00 -0.00000000000E+00 -0.23048002888E+04  0.23048002888E+04  0.50400000000E-02 0. -1.
    8880023    1    1    2    0    0  0.25194868210E+03 -0.11522660745E+02 -0.18640522219E+04  0.19930157556E+04  0.65864270000E+03 0.  0.
    8880022    1    1    2    0    0 -0.25194868210E+03  0.11522660745E+02 -0.31845979235E+03  0.43407280781E+03  0.15294330000E+03 0.  0.
<mgrwt>
<rscale>  0 0.56716979E+03</rscale>
<asrwt>0</asrwt>
<pdfrwt beam="1">  1        1 0.35458463E+00 0.70528088E+03</pdfrwt>
<pdfrwt beam="2">  1       -1 0.18813582E-01 0.70528088E+03</pdfrwt>
<totfact> 0.43734887E+01</totfact>
</mgrwt>
</event>
<event>
 4    1  0.1065596E-007  0.6587609E+03  0.7818608E-02  0.1025463E+00
          1   -1    0    0  501    0  0.00000000000E+00  0.00000000000E+00  0.40020539602E+03  0.40020539606E+03  0.50400000000E-02 0. -1.
         -1   -1    0    0    0  501 -0.00000000000E+00 -0.00000000000E+00 -0.47524436411E+03  0.47524436413E+03  0.50400000000E-02 0.  1.
    8880023    1    1    2    0    0 -0.75915080042E+01  0.99043613482E+01  0.72297852385E+02  0.66271631419E+03  0.65864270000E+03 0. -1.
    8880022    1    1    2    0    0  0.75915080042E+01 -0.99043613482E+01 -0.14733682047E+03  0.21273344600E+03  0.15294330000E+03 0.  0.
<mgrwt>
<rscale>  0 0.45765550E+03</rscale>
<asrwt>0</asrwt>
<pdfrwt beam="1">  1        1 0.61570061E-01 0.65876091E+03</pdfrwt>
<pdfrwt beam="2">  1       -1 0.73114517E-01 0.65876091E+03</pdfrwt>
<totfact> 0.11560178E+02</totfact>
</mgrwt>
</event>
<event>
 4    1  0.1065596E-007  0.9760741E+03  0.7818608E-02  0.9413552E-01
          1   -1    0    0  501    0  0.00000000000E+00  0.00000000000E+00  0.95271865072E+03  0.95271865073E+03  0.50400000000E-02 0. -1.
         -1   -1    0    0    0  501 -0.00000000000E+00 -0.00000000000E+00 -0.17431932551E+04  0.17431932551E+04  0.50400000000E-02 0.  1.
    8880023    1    1    2    0    0  0.19836405537E+03 -0.69250420560E+03  0.58338891403E+03  0.11371293702E+04  0.65864270000E+03 0. -1.
    8880022    1    1    2    0    0 -0.19836405537E+03  0.69250420560E+03 -0.13738635184E+04  0.15587825357E+04  0.15294330000E+03 0.  0.
<mgrwt>
<rscale>  0 0.90968751E+03</rscale>
<asrwt>0</asrwt>
<pdfrwt beam="1">  1        1 0.14657210E+00 0.97607406E+03</pdfrwt>
<pdfrwt beam="2">  1       -1 0.26818358E+00 0.97607406E+03</pdfrwt>
<totfact> 0.88758415E-01</totfact>
</mgrwt>
</event>
<event>
 4    1  0.1065596E-007  0.8429358E+03  0.7818608E-02  0.9624669E-01
         -1   -1    0    0    0  501 -0.00000000000E+00  0.00000000000E+00  0.47851177297E+03  0.47851177300E+03  0.50400000000E-02 0.  1.
          1   -1    0    0  501    0  0.00000000000E+00 -0.00000000000E+00 -0.22747282894E+04  0.22747282894E+04  0.50400000000E-02 0. -1.
    8880023    1    1    2    0    0  0.46650659806E+03 -0.24310947259E+03 -0.19987027995E+04  0.21691827283E+04  0.65864270000E+03 0. -1.
    8880022    1    1    2    0    0 -0.46650659806E+03  0.24310947259E+03  0.20248628307E+03  0.58405733412E+03  0.15294330000E+03 0.  0.
<mgrwt>
<rscale>  0 0.75684713E+03</rscale>
<asrwt>0</asrwt>
<pdfrwt beam="1">  1        1 0.34995819E+00 0.84293584E+03</pdfrwt>
<pdfrwt beam="2">  1       -1 0.73617197E-01 0.84293584E+03</pdfrwt>
<totfact> 0.37417312E+00</totfact>
</mgrwt>
</event>
<event>
 4    1  0.1065596E-007  0.7972294E+03  0.7818608E-02  0.9716819E-01
         -1   -1    0    0    0  501 -0.00000000000E+00  0.00000000000E+00  0.72270146415E+03  0.72270146417E+03  0.50400000000E-02 0.  1.
          1   -1    0    0  501    0  0.00000000000E+00 -0.00000000000E+00 -0.10668528372E+04  0.10668528372E+04  0.50400000000E-02 0. -1.
    8880023    1    1    2    0    0 -0.27461980533E+03  0.35545525811E+03 -0.80153231371E+03  0.11304993296E+04  0.65864270000E+03 0. -1.
    8880022    1    1    2    0    0  0.27461980533E+03 -0.35545525811E+03  0.45738094064E+03  0.65905497182E+03  0.15294330000E+03 0.  0.
<mgrwt>
<rscale>  0 0.70024166E+03</rscale>
<asrwt>0</asrwt>
<pdfrwt beam="1">  1        1 0.16413121E+00 0.79722938E+03</pdfrwt>
<pdfrwt beam="2">  1       -1 0.11118484E+00 0.79722938E+03</pdfrwt>
<totfact> 0.10260906E+01</totfact>
</mgrwt>
</event>
<event>
 4    1  0.1065596E-007  0.9759678E+03  0.7818608E-02  0.9413697E-01
          1   -1    0    0  501    0  0.00000000000E+00  0.00000000000E+00  0.12159939814E+04  0.12159939814E+04  0.50400000000E-02 0. -1.
         -1   -1    0    0    0  501 -0.00000000000E+00 -0.00000000000E+00 -0.81224084487E+03  0.81224084488E+03  0.50400000000E-02 0.  1.
    8880023    1    1    2    0    0 -0.68750156962E+03 -0.21457977195E+03  0.73411501224E+03  0.12212444244E+04  0.65864270000E+03 0.  0.
    8880022    1    1    2    0    0  0.68750156962E+03  0.21457977195E+03 -0.33036187571E+03  0.80699040186E+03  0.15294330000E+03 0.  0.
<mgrwt>
<rscale>  0 0.90956971E+03</rscale>
<asrwt>0</asrwt>
<pdfrwt beam="1">  1        1 0.18707600E+00 0.97596777E+03</pdfrwt>
<pdfrwt beam="2">  1       -1 0.12496013E+00 0.97596777E+03</pdfrwt>
<totfact> 0.58620358E+00</totfact>
</mgrwt>
</event>
<event>
 4    1  0.1065596E-007  0.7188361E+03  0.7818608E-02  0.9926544E-01
          1   -1    0    0  501    0  0.00000000000E+00  0.00000000000E+00  0.20559456968E+04  0.20559456968E+04  0.50400000000E-02 0. -1.
         -1   -1    0    0    0  501 -0.00000000000E+00 -0.00000000000E+00 -0.35290765897E+03  0.35290765901E+03  0.50400000000E-02 0.  1.
    8880023    1    1    2    0    0 -0.83254468506E+02 -0.27565154025E+03  0.18975848661E+04  0.20291755983E+04  0.65864270000E+03 0. -1.
    8880022    1    1    2    0    0  0.83254468506E+02  0.27565154025E+03 -0.19454682830E+03  0.37967775755E+03  0.15294330000E+03 0.  0.
<mgrwt>
<rscale>  0 0.58991914E+03</rscale>
<asrwt>0</asrwt>
<pdfrwt beam="1">  1        1 0.31629934E+00 0.71883606E+03</pdfrwt>
<pdfrwt beam="2">  1       -1 0.54293486E-01 0.71883606E+03</pdfrwt>
<totfact> 0.98418061E+00</totfact>
</mgrwt>
</event>
<event>
 4    1  0.1065596E-007  0.1274869E+04  0.7818608E-02  0.9087572E-01
          1   -1    0    0  501    0  0.00000000000E+00  0.00000000000E+00  0.23146753735E+04  0.23146753735E+04  0.50400000000E-02 0. -1.
         -1   -1    0    0    0  501 -0.00000000000E+00 -0.00000000000E+00 -0.14877721789E+04  0.14877721789E+04  0.50400000000E-02 0.  1.
    8880023    1    1    2    0    0 -0.10498796335E+04 -0.29871961711E+03 -0.10327521329E+04  0.16406912655E+04  0.65864270000E+03 0.  0.
    8880022    1    1    2    0    0  0.10498796335E+04  0.29871961711E+03  0.18596553274E+04  0.21617562869E+04  0.15294330000E+03 0.  0.
<mgrwt>
<rscale>  0 0.12293215E+04</rscale>
<asrwt>0</asrwt>
<pdfrwt beam="1">  1        1 0.35610390E+00 0.12748690E+04</pdfrwt>
<pdfrwt beam="2">  1       -1 0.22888803E+00 0.12748690E+04</pdfrwt>
<totfact> 0.16989523E-01</totfact>
</mgrwt>
</event>
<event>
 4    1  0.1173516E-007  0.1559482E+04  0.7818608E-02  0.8868737E-01
          1   -1    0    0  501    0  0.00000000000E+00  0.00000000000E+00  0.27961597935E+04  0.27961597935E+04  0.50400000000E-02 0. -1.
         -1   -1    0    0    0  501 -0.00000000000E+00 -0.00000000000E+00 -0.19929993557E+04  0.19929993557E+04  0.50400000000E-02 0.  1.
    8880023    1    1    2    0    0 -0.12760675145E+04  0.60813199871E+03  0.22649756715E+04  0.27499268769E+04  0.65864270000E+03 0. -1.
    8880022    1    1    2    0    0  0.12760675145E+04 -0.60813199871E+03 -0.14618152338E+04  0.20392322722E+04  0.15294330000E+03 0.  0.
<mgrwt>
<rscale>  0 0.15238638E+04</rscale>
<asrwt>0</asrwt>
<pdfrwt beam="1">  1        1 0.43017843E+00 0.15594817E+04</pdfrwt>
<pdfrwt beam="2">  1       -1 0.30661529E+00 0.15594817E+04</pdfrwt>
<totfact> 0.23489802E-02</totfact>
</mgrwt>
</event>
<event>
 4    1  0.1065596E-007  0.1699601E+04  0.7818608E-02  0.8780205E-01
         -1   -1    0    0    0  501 -0.00000000000E+00  0.00000000000E+00  0.16243703141E+04  0.16243703141E+04  0.50400000000E-02 0.  1.
          1   -1    0    0  501    0  0.00000000000E+00 -0.00000000000E+00 -0.29112047883E+04  0.29112047883E+04  0.50400000000E-02 0. -1.
    8880023    1    1    2    0    0 -0.55579916208E+03  0.14648966759E+04 -0.21496667016E+04  0.27403853951E+04  0.65864270000E+03 0.  0.
    8880022    1    1    2    0    0  0.55579916208E+03 -0.14648966759E+04  0.86283222730E+03  0.17951897073E+04  0.15294330000E+03 0.  0.
<mgrwt>
<rscale>  0 0.16673545E+04</rscale>
<asrwt>0</asrwt>
<pdfrwt beam="1">  1        1 0.44787766E+00 0.16996015E+04</pdfrwt>
<pdfrwt beam="2">  1       -1 0.24990313E+00 0.16996015E+04</pdfrwt>
<totfact> 0.44567845E-02</totfact>
</mgrwt>
</event>
<event>
 4    1  0.1065596E-007  0.9188194E+03  0.7818608E-02  0.9496472E-01
          1   -1    0    0  501    0  0.00000000000E+00  0.00000000000E+00  0.14139587820E+04  0.14139587820E+04  0.50400000000E-02 0. -1.
         -1   -1    0    0    0  501 -0.00000000000E+00 -0.00000000000E+00 -0.61030516327E+03  0.61030516329E+03  0.50400000000E-02 0.  1.
    8880023    1    1    2    0    0 -0.54946095811E+03 -0.32941086992E+03  0.97904496880E+03  0.13426682848E+04  0.65864270000E+03 0.  0.
    8880022    1    1    2    0    0  0.54946095811E+03  0.32941086992E+03 -0.17539135010E+03  0.68159566050E+03  0.15294330000E+03 0.  1.
<mgrwt>
<rscale>  0 0.84544454E+03</rscale>
<asrwt>0</asrwt>
<pdfrwt beam="1">  1        1 0.21753212E+00 0.91881939E+03</pdfrwt>
<pdfrwt beam="2">  1       -1 0.93893103E-01 0.91881939E+03</pdfrwt>
<totfact> 0.83774505E+00</totfact>
</mgrwt>
</event>
<event>
 4    1  0.1065596E-007  0.9392120E+03  0.7818608E-02  0.9465809E-01
         -1   -1    0    0    0  501 -0.00000000000E+00  0.00000000000E+00  0.32373195309E+03  0.32373195313E+03  0.50400000000E-02 0.  1.
          1   -1    0    0  501    0  0.00000000000E+00 -0.00000000000E+00 -0.20938893449E+04  0.20938893449E+04  0.50400000000E-02 0. -1.
    8880023    1    1    2    0    0  0.30329031442E+03 -0.59692873044E+03 -0.12075293980E+04  0.15297863829E+04  0.65864270000E+03 0.  0.
    8880022    1    1    2    0    0 -0.30329031442E+03  0.59692873044E+03 -0.56262799373E+03  0.88783491505E+03  0.15294330000E+03 0.  0.
<mgrwt>
<rscale>  0 0.86852238E+03</rscale>
<asrwt>0</asrwt>
<pdfrwt beam="1">  1        1 0.32213681E+00 0.93921197E+03</pdfrwt>
<pdfrwt beam="2">  1       -1 0.49804917E-01 0.93921197E+03</pdfrwt>
<totfact> 0.10608923E+01</totfact>
</mgrwt>
</event>
<event>
 4    1  0.1065596E-007  0.8552291E+03  0.7818608E-02  0.9602107E-01
          1   -1    0    0  501    0  0.00000000000E+00  0.00000000000E+00  0.70351791461E+03  0.70351791463E+03  0.50400000000E-02 0. -1.
         -1   -1    0    0    0  501 -0.00000000000E+00 -0.00000000000E+00 -0.13625171466E+04  0.13625171466E+04  0.50400000000E-02 0.  1.
    8880023    1    1    2    0    0  0.21743350941E+03 -0.50032922702E+03  0.33775730852E+03  0.91950903864E+03  0.65864270000E+03 0. -1.
    8880022    1    1    2    0    0 -0.21743350941E+03  0.50032922702E+03 -0.99675654053E+03  0.11465260226E+04  0.15294330000E+03 0.  0.
<mgrwt>
<rscale>  0 0.77156889E+03</rscale>
<asrwt>0</asrwt>
<pdfrwt beam="1">  1        1 0.10823353E+00 0.85522913E+03</pdfrwt>
<pdfrwt beam="2">  1       -1 0.20961802E+00 0.85522913E+03</pdfrwt>
<totfact> 0.35773693E+00</totfact>
</mgrwt>
</event>
<event>
 4    1  0.1065596E-007  0.1197928E+04  0.7818608E-02  0.9159139E-01
         -1   -1    0    0    0  501 -0.00000000000E+00  0.00000000000E+00  0.56406152462E+03  0.56406152464E+03  0.50400000000E-02 0.  1.
          1   -1    0    0  501    0  0.00000000000E+00 -0.00000000000E+00 -0.34446514569E+04  0.34446514569E+04  0.50400000000E-02 0. -1.
    8880023    1    1    2    0    0  0.72477949752E+03 -0.68986622564E+03 -0.27352874978E+04  0.29861059310E+04  0.65864270000E+03 0.  0.
    8880022    1    1    2    0    0 -0.72477949752E+03  0.68986622564E+03 -0.14530243445E+03  0.10226070505E+04  0.15294330000E+03 0.  0.
<mgrwt>
<rscale>  0 0.11485315E+04</rscale>
<asrwt>0</asrwt>
<pdfrwt beam="1">  1        1 0.52994636E+00 0.11979278E+04</pdfrwt>
<pdfrwt beam="2">  1       -1 0.86778699E-01 0.11979278E+04</pdfrwt>
<totfact> 0.36316461E-01</totfact>
</mgrwt>
</event>
<event>
 4    1  0.1065596E-007  0.8062295E+03  0.7818608E-02  0.9697485E-01
          1   -1    0    0  501    0  0.00000000000E+00  0.00000000000E+00  0.14254985705E+04  0.14254985705E+04  0.50400000000E-02 0. -1.
         -1   -1    0    0    0  501 -0.00000000000E+00 -0.00000000000E+00 -0.38118112067E+03  0.38118112070E+03  0.50400000000E-02 0.  1.
    8880023    1    1    2    0    0 -0.18730075753E+03 -0.42557514659E+03  0.10416325438E+04  0.13171956354E+04  0.65864270000E+03 0. -1.
    8880022    1    1    2    0    0  0.18730075753E+03  0.42557514659E+03  0.26849059583E+01  0.48948405582E+03  0.15294330000E+03 0.  0.
<mgrwt>
<rscale>  0 0.71166730E+03</rscale>
<asrwt>0</asrwt>
<pdfrwt beam="1">  1        1 0.21930747E+00 0.80622949E+03</pdfrwt>
<pdfrwt beam="2">  1       -1 0.58643251E-01 0.80622949E+03</pdfrwt>
<totfact> 0.22288841E+01</totfact>
</mgrwt>
</event>
<event>
 4    1  0.1065596E-007  0.8872248E+03  0.7818608E-02  0.9546859E-01
         -1   -1    0    0    0  501 -0.00000000000E+00  0.00000000000E+00  0.20637833015E+04  0.20637833015E+04  0.50400000000E-02 0.  1.
          1   -1    0    0  501    0  0.00000000000E+00 -0.00000000000E+00 -0.42441812026E+03  0.42441812029E+03  0.50400000000E-02 0. -1.
    8880023    1    1    2    0    0  0.37041062804E+03  0.46492324942E+03  0.18040151193E+03  0.90537979489E+03  0.65864270000E+03 0.  0.
    8880022    1    1    2    0    0 -0.37041062804E+03 -0.46492324942E+03  0.14589636693E+04  0.15828216269E+04  0.15294330000E+03 0.  0.
<mgrwt>
<rscale>  0 0.80915518E+03</rscale>
<asrwt>0</asrwt>
<pdfrwt beam="1">  1        1 0.65295095E-01 0.88722481E+03</pdfrwt>
<pdfrwt beam="2">  1       -1 0.31750513E+00 0.88722481E+03</pdfrwt>
<totfact> 0.14542413E+00</totfact>
</mgrwt>
</event>
<event>
 4    1  0.1065596E-007  0.6668041E+03  0.7818608E-02  0.1018066E+00
         -1   -1    0    0    0  501 -0.00000000000E+00  0.00000000000E+00  0.19898238437E+03  0.19898238444E+03  0.50400000000E-02 0.  1.
          1   -1    0    0  501    0  0.00000000000E+00 -0.00000000000E+00 -0.10925222618E+04  0.10925222618E+04  0.50400000000E-02 0. -1.
    8880023    1    1    2    0    0 -0.69456715640E+02  0.77416324829E+02 -0.88267425613E+03  0.11062285349E+04  0.65864270000E+03 0.  0.
    8880022    1    1    2    0    0  0.69456715640E+02 -0.77416324829E+02 -0.10865621290E+02  0.18527611135E+03  0.15294330000E+03 0.  1.
<mgrwt>
<rscale>  0 0.48391215E+03</rscale>
<asrwt>0</asrwt>
<pdfrwt beam="1">  1        1 0.16808035E+00 0.66680412E+03</pdfrwt>
<pdfrwt beam="2">  1       -1 0.30612675E-01 0.66680412E+03</pdfrwt>
<totfact> 0.12956197E+02</totfact>
</mgrwt>
</event>
<event>
 4    1  0.1065596E-007  0.7922718E+03  0.7818608E-02  0.9727762E-01
          1   -1    0    0  501    0  0.00000000000E+00  0.00000000000E+00  0.13742942406E+04  0.13742942406E+04  0.50400000000E-02 0. -1.
         -1   -1    0    0    0  501 -0.00000000000E+00 -0.00000000000E+00 -0.89231935094E+03  0.89231935095E+03  0.50400000000E-02 0.  1.
    8880023    1    1    2    0    0  0.41541010919E+03  0.14600946033E+03  0.11835837278E+04  0.14242769985E+04  0.65864270000E+03 0.  0.
    8880022    1    1    2    0    0 -0.41541010919E+03 -0.14600946033E+03 -0.70160883814E+03  0.84233659311E+03  0.15294330000E+03 0.  1.
<mgrwt>
<rscale>  0 0.69387636E+03</rscale>
<asrwt>0</asrwt>
<pdfrwt beam="1">  1        1 0.21142988E+00 0.79227175E+03</pdfrwt>
<pdfrwt beam="2">  1       -1 0.13727990E+00 0.79227175E+03</pdfrwt>
<totfact> 0.36562106E+00</totfact>
</mgrwt>
</event>
<event>
 4    1  0.1065596E-007  0.8701522E+03  0.7818608E-02  0.9575754E-01
          1   -1    0    0  501    0  0.00000000000E+00  0.00000000000E+00  0.22791167156E+04  0.22791167156E+04  0.50400000000E-02 0. -1.
         -1   -1    0    0    0  501 -0.00000000000E+00 -0.00000000000E+00 -0.46237648195E+03  0.46237648198E+03  0.50400000000E-02 0.  1.
    8880023    1    1    2    0    0  0.52810351195E+03 -0.21085864249E+03  0.19521255289E+04  0.21372784033E+04  0.65864270000E+03 0. -1.
    8880022    1    1    2    0    0 -0.52810351195E+03  0.21085864249E+03 -0.13538529524E+03  0.60421479428E+03  0.15294330000E+03 0.  0.
<mgrwt>
<rscale>  0 0.78921969E+03</rscale>
<asrwt>0</asrwt>
<pdfrwt beam="1">  1        1 0.35063334E+00 0.87015222E+03</pdfrwt>
<pdfrwt beam="2">  1       -1 0.71134843E-01 0.87015222E+03</pdfrwt>
<totfact> 0.39721342E+00</totfact>
</mgrwt>
</event>
<event>
 4    1  0.1065596E-007  0.6597212E+03  0.7818608E-02  0.1024444E+00
          1   -1    0    0  501    0  0.00000000000E+00  0.00000000000E+00  0.40515737696E+03  0.40515737699E+03  0.50400000000E-02 0. -1.
         -1   -1    0    0    0  501 -0.00000000000E+00 -0.00000000000E+00 -0.10419570267E+04  0.10419570267E+04  0.50400000000E-02 0.  1.
    8880023    1    1    2    0    0  0.37536961976E+02  0.35799651844E+01  0.12305860418E+03  0.67110019073E+03  0.65864270000E+03 0. -1.
    8880022    1    1    2    0    0 -0.37536961976E+02 -0.35799651844E+01 -0.75985825389E+03  0.77601421294E+03  0.15294330000E+03 0.  0.
<mgrwt>
<rscale>  0 0.46116497E+03</rscale>
<asrwt>0</asrwt>
<pdfrwt beam="1">  1        1 0.62331905E-01 0.65972119E+03</pdfrwt>
<pdfrwt beam="2">  1       -1 0.16030108E+00 0.65972119E+03</pdfrwt>
<totfact> 0.17786746E+01</totfact>
</mgrwt>
</event>
<event>
 4    1  0.1065596E-007  0.1688140E+04  0.7818608E-02  0.8787075E-01
          1   -1    0    0  501    0  0.00000000000E+00  0.00000000000E+00  0.29959558582E+04  0.29959558582E+04  0.50400000000E-02 0. -1.
         -1   -1    0    0    0  501 -0.00000000000E+00 -0.00000000000E+00 -0.12318389700E+04  0.12318389700E+04  0.50400000000E-02 0.  1.
    8880023    1    1    2    0    0  0.37794466395E+03  0.15077016563E+04  0.20334715060E+04  0.26428815761E+04  0.65864270000E+03 0.  0.
    8880022    1    1    2    0    0 -0.37794466395E+03 -0.15077016563E+04 -0.26935461783E+03  0.15849132521E+04  0.15294330000E+03 0.  0.
<mgrwt>
<rscale>  0 0.16556429E+04</rscale>
<asrwt>0</asrwt>
<pdfrwt beam="1">  1        1 0.46091629E+00 0.16881400E+04</pdfrwt>
<pdfrwt beam="2">  1       -1 0.18951369E+00 0.16881400E+04</pdfrwt>
<totfact> 0.99310606E-02</totfact>
</mgrwt>
</event>
<event>
 4    1  0.1065596E-007  0.1121525E+04  0.7818608E-02  0.9237461E-01
         -1   -1    0    0    0  501 -0.00000000000E+00  0.00000000000E+00  0.19977059965E+04  0.19977059965E+04  0.50400000000E-02 0.  1.
          1   -1    0    0  501    0  0.00000000000E+00 -0.00000000000E+00 -0.78445360843E+03  0.78445360845E+03  0.50400000000E-02 0. -1.
    8880023    1    1    2    0    0  0.89969324139E+03 -0.12066443667E+03 -0.15590954203E+03  0.11323099516E+04  0.65864270000E+03 0.  0.
    8880022    1    1    2    0    0 -0.89969324139E+03  0.12066443667E+03  0.13691619301E+04  0.16498496533E+04  0.15294330000E+03 0.  0.
<mgrwt>
<rscale>  0 0.10674996E+04</rscale>
<asrwt>0</asrwt>
<pdfrwt beam="1">  1        1 0.12068517E+00 0.11215249E+04</pdfrwt>
<pdfrwt beam="2">  1       -1 0.30733939E+00 0.11215249E+04</pdfrwt>
<totfact> 0.67355432E-01</totfact>
</mgrwt>
</event>
<event>
 4    1  0.1065596E-007  0.1633722E+04  0.7818608E-02  0.8820561E-01
          1   -1    0    0  501    0  0.00000000000E+00  0.00000000000E+00  0.29976529891E+04  0.29976529891E+04  0.50400000000E-02 0. -1.
         -1   -1    0    0    0  501 -0.00000000000E+00 -0.00000000000E+00 -0.11514933779E+04  0.11514933779E+04  0.50400000000E-02 0.  1.
    8880023    1    1    2    0    0 -0.44973530007E+03 -0.14258243270E+04  0.20621015978E+04  0.26308382803E+04  0.65864270000E+03 0.  0.
    8880022    1    1    2    0    0  0.44973530007E+03  0.14258243270E+04 -0.21594198655E+03  0.15183080867E+04  0.15294330000E+03 0.  0.
<mgrwt>
<rscale>  0 0.15999786E+04</rscale>
<asrwt>0</asrwt>
<pdfrwt beam="1">  1        1 0.46117738E+00 0.16337218E+04</pdfrwt>
<pdfrwt beam="2">  1       -1 0.17715283E+00 0.16337218E+04</pdfrwt>
<totfact> 0.12227091E-01</totfact>
</mgrwt>
</event>
<event>
 4    1  0.1065596E-007  0.1037145E+04  0.7818608E-02  0.9334497E-01
          1   -1    0    0  501    0  0.00000000000E+00  0.00000000000E+00  0.29273289824E+04  0.29273289824E+04  0.50400000000E-02 0. -1.
         -1   -1    0    0    0  501 -0.00000000000E+00 -0.00000000000E+00 -0.44316200399E+03  0.44316200402E+03  0.50400000000E-02 0.  1.
    8880023    1    1    2    0    0  0.12878089795E+03  0.79074364982E+03  0.23161171084E+04  0.25377290449E+04  0.65864270000E+03 0.  0.
    8880022    1    1    2    0    0 -0.12878089795E+03 -0.79074364982E+03  0.16804987005E+03  0.83276194153E+03  0.15294330000E+03 0.  1.
<mgrwt>
<rscale>  0 0.97668143E+03</rscale>
<asrwt>0</asrwt>
<pdfrwt beam="1">  1        1 0.45035832E+00 0.10371452E+04</pdfrwt>
<pdfrwt beam="2">  1       -1 0.68178767E-01 0.10371452E+04</pdfrwt>
<totfact> 0.15008452E+00</totfact>
</mgrwt>
</event>
<event>
 4    1  0.1065596E-007  0.1167282E+04  0.7818608E-02  0.9189602E-01
          1   -1    0    0  501    0  0.00000000000E+00  0.00000000000E+00  0.77970715866E+03  0.77970715868E+03  0.50400000000E-02 0. -1.
         -1   -1    0    0    0  501 -0.00000000000E+00 -0.00000000000E+00 -0.19034477111E+04  0.19034477111E+04  0.50400000000E-02 0.  1.
    8880023    1    1    2    0    0  0.10917684251E+03  0.95750594727E+03  0.35610699187E+02  0.11678251368E+04  0.65864270000E+03 0.  0.
    8880022    1    1    2    0    0 -0.10917684251E+03 -0.95750594727E+03 -0.11593512516E+04  0.15153297330E+04  0.15294330000E+03 0.  0.
<mgrwt>
<rscale>  0 0.11161404E+04</rscale>
<asrwt>0</asrwt>
<pdfrwt beam="1">  1        1 0.11995495E+00 0.11672821E+04</pdfrwt>
<pdfrwt beam="2">  1       -1 0.29283811E+00 0.11672821E+04</pdfrwt>
<totfact> 0.83864910E-01</totfact>
</mgrwt>
</event>
<event>
 4    1  0.1065596E-007  0.1156268E+04  0.7818608E-02  0.9200851E-01
          1   -1    0    0  501    0  0.00000000000E+00  0.00000000000E+00  0.17976053015E+04  0.17976053016E+04  0.50400000000E-02 0. -1.
         -1   -1    0    0    0  501 -0.00000000000E+00 -0.00000000000E+00 -0.79463070717E+03  0.79463070718E+03  0.50400000000E-02 0.  1.
    8880023    1    1    2    0    0  0.64693994156E+03  0.69614294888E+03  0.11354951791E+04  0.16205881035E+04  0.65864270000E+03 0. -1.
    8880022    1    1    2    0    0 -0.64693994156E+03 -0.69614294888E+03 -0.13252058476E+03  0.97164790519E+03  0.15294330000E+03 0.  1.
<mgrwt>
<rscale>  0 0.11044648E+04</rscale>
<asrwt>0</asrwt>
<pdfrwt beam="1">  1        1 0.27655466E+00 0.11562684E+04</pdfrwt>
<pdfrwt beam="2">  1       -1 0.12225088E+00 0.11562684E+04</pdfrwt>
<totfact> 0.23905008E+00</totfact>
</mgrwt>
</event>
<event>
 4    1  0.1065596E-007  0.1466323E+04  0.7818608E-02  0.8933790E-01
         -1   -1    0    0    0  501 -0.00000000000E+00  0.00000000000E+00  0.14280893594E+04  0.14280893594E+04  0.50400000000E-02 0.  1.
          1   -1    0    0  501    0  0.00000000000E+00 -0.00000000000E+00 -0.14115032587E+04  0.14115032587E+04  0.50400000000E-02 0. -1.
    8880023    1    1    2    0    0  0.74701089334E+03  0.10762280892E+04 -0.26711990946E+03  0.14904547719E+04  0.65864270000E+03 0.  0.
    8880022    1    1    2    0    0 -0.74701089334E+03 -0.10762280892E+04  0.28370601018E+03  0.13491378462E+04  0.15294330000E+03 0.  0.
<mgrwt>
<rscale>  0 0.14280091E+04</rscale>
<asrwt>0</asrwt>
<pdfrwt beam="1">  1        1 0.21715435E+00 0.14663227E+04</pdfrwt>
<pdfrwt beam="2">  1       -1 0.21970605E+00 0.14663227E+04</pdfrwt>
<totfact> 0.79262548E-01</totfact>
</mgrwt>
</event>
<event>
 4    1  0.1065596E-007  0.7496873E+03  0.7818608E-02  0.9832577E-01
          1   -1    0    0  501    0  0.00000000000E+00  0.00000000000E+00  0.13537237274E+04  0.13537237274E+04  0.50400000000E-02 0. -1.
         -1   -1    0    0    0  501 -0.00000000000E+00 -0.00000000000E+00 -0.75573354021E+03  0.75573354022E+03  0.50400000000E-02 0.  1.
    8880023    1    1    2    0    0 -0.21538092670E+03  0.28606270047E+03  0.11866766926E+04  0.14036497395E+04  0.65864270000E+03 0. -1.
    8880022    1    1    2    0    0  0.21538092670E+03 -0.28606270047E+03 -0.58868650537E+03  0.70580752816E+03  0.15294330000E+03 0.  0.
<mgrwt>
<rscale>  0 0.63643195E+03</rscale>
<asrwt>0</asrwt>
<pdfrwt beam="1">  1        1 0.20826519E+00 0.74968728E+03</pdfrwt>
<pdfrwt beam="2">  1       -1 0.11626670E+00 0.74968728E+03</pdfrwt>
<totfact> 0.57551664E+00</totfact>
</mgrwt>
</event>
<event>
 4    1  0.1065596E-007  0.9449609E+03  0.7818608E-02  0.9457402E-01
          1   -1    0    0  501    0  0.00000000000E+00  0.00000000000E+00  0.11688864156E+04  0.11688864156E+04  0.50400000000E-02 0. -1.
         -1   -1    0    0    0  501 -0.00000000000E+00 -0.00000000000E+00 -0.10930429971E+04  0.10930429971E+04  0.50400000000E-02 0.  1.
    8880023    1    1    2    0    0 -0.65654709397E+03  0.16759133567E+03  0.81479812253E+03  0.12477368028E+04  0.65864270000E+03 0. -1.
    8880022    1    1    2    0    0  0.65654709397E+03 -0.16759133567E+03 -0.73895470399E+03  0.10141926099E+04  0.15294330000E+03 0.  0.
<mgrwt>
<rscale>  0 0.87498623E+03</rscale>
<asrwt>0</asrwt>
<pdfrwt beam="1">  1        1 0.17982868E+00 0.94496092E+03</pdfrwt>
<pdfrwt beam="2">  1       -1 0.16816046E+00 0.94496092E+03</pdfrwt>
<totfact> 0.28907813E+00</totfact>
</mgrwt>
</event>
<event>
 4    1  0.1065596E-007  0.8168231E+03  0.7818608E-02  0.9675536E-01
          1   -1    0    0  501    0  0.00000000000E+00  0.00000000000E+00  0.23999565654E+04  0.23999565654E+04  0.50400000000E-02 0. -1.
         -1   -1    0    0    0  501 -0.00000000000E+00 -0.00000000000E+00 -0.28717054868E+03  0.28717054873E+03  0.50400000000E-02 0.  1.
    8880023    1    1    2    0    0  0.43084496431E+03  0.21854593806E+03  0.20106047495E+04  0.21701915526E+04  0.65864270000E+03 0.  0.
    8880022    1    1    2    0    0 -0.43084496431E+03 -0.21854593806E+03  0.10218126722E+03  0.51693556145E+03  0.15294330000E+03 0.  1.
<mgrwt>
<rscale>  0 0.72492225E+03</rscale>
<asrwt>0</asrwt>
<pdfrwt beam="1">  1        1 0.36922408E+00 0.81682306E+03</pdfrwt>
<pdfrwt beam="2">  1       -1 0.44180086E-01 0.81682306E+03</pdfrwt>
<totfact> 0.83922189E+00</totfact>
</mgrwt>
</event>
<event>
 4    1  0.1065596E-007  0.6947017E+03  0.7818608E-02  0.1001993E+00
         -1   -1    0    0    0  501 -0.00000000000E+00  0.00000000000E+00  0.67173647295E+03  0.67173647297E+03  0.50400000000E-02 0.  1.
          1   -1    0    0  501    0  0.00000000000E+00 -0.00000000000E+00 -0.18573462839E+04  0.18573462839E+04  0.50400000000E-02 0. -1.
    8880023    1    1    2    0    0  0.21972419590E+03 -0.22835903627E+02 -0.17615315276E+04  0.18935690454E+04  0.65864270000E+03 0. -1.
    8880022    1    1    2    0    0 -0.21972419590E+03  0.22835903627E+02  0.57592171664E+03  0.63551371147E+03  0.15294330000E+03 0.  0.
<mgrwt>
<rscale>  0 0.54784762E+03</rscale>
<asrwt>0</asrwt>
<pdfrwt beam="1">  1        1 0.28574558E+00 0.69470167E+03</pdfrwt>
<pdfrwt beam="2">  1       -1 0.10334407E+00 0.69470167E+03</pdfrwt>
<totfact> 0.34888963E+00</totfact>
</mgrwt>
</event>
<event>
 4    1  0.1065596E-007  0.9098951E+03  0.7818608E-02  0.9510330E-01
          1   -1    0    0  501    0  0.00000000000E+00  0.00000000000E+00  0.11844265139E+04  0.11844265139E+04  0.50400000000E-02 0. -1.
         -1   -1    0    0    0  501 -0.00000000000E+00 -0.00000000000E+00 -0.56570805607E+03  0.56570805610E+03  0.50400000000E-02 0.  1.
    8880023    1    1    2    0    0 -0.29839636895E+03 -0.55232099526E+03  0.62516777849E+03  0.11039673149E+04  0.65864270000E+03 0.  0.
    8880022    1    1    2    0    0  0.29839636895E+03  0.55232099526E+03 -0.64493206940E+01  0.64616725509E+03  0.15294330000E+03 0.  0.
<mgrwt>
<rscale>  0 0.83526507E+03</rscale>
<asrwt>0</asrwt>
<pdfrwt beam="1">  1        1 0.18221946E+00 0.90989509E+03</pdfrwt>
<pdfrwt beam="2">  1       -1 0.87032009E-01 0.90989509E+03</pdfrwt>
<totfact> 0.14450534E+01</totfact>
</mgrwt>
</event>
<event>
 4    1  0.1065596E-007  0.8151286E+03  0.7818608E-02  0.9678991E-01
          1   -1    0    0  501    0  0.00000000000E+00  0.00000000000E+00  0.53668227753E+03  0.53668227755E+03  0.50400000000E-02 0. -1.
         -1   -1    0    0    0  501 -0.00000000000E+00 -0.00000000000E+00 -0.15201502111E+04  0.15201502112E+04  0.50400000000E-02 0.  1.
    8880023    1    1    2    0    0  0.46668484656E+03  0.11326844580E+03  0.13854665243E+03  0.82681912652E+03  0.65864270000E+03 0. -1.
    8880022    1    1    2    0    0 -0.46668484656E+03 -0.11326844580E+03 -0.11220145860E+04  0.12300133622E+04  0.15294330000E+03 0.  0.
<mgrwt>
<rscale>  0 0.72281520E+03</rscale>
<asrwt>0</asrwt>
<pdfrwt beam="1">  1        1 0.82566505E-01 0.81512864E+03</pdfrwt>
<pdfrwt beam="2">  1       -1 0.23386926E+00 0.81512864E+03</pdfrwt>
<totfact> 0.36819928E+00</totfact>
</mgrwt>
</event>
<event>
 4    1  0.1065596E-007  0.6664984E+03  0.7818608E-02  0.1018308E+00
         -1   -1    0    0    0  501 -0.00000000000E+00  0.00000000000E+00  0.13276668380E+04  0.13276668380E+04  0.50400000000E-02 0.  1.
          1   -1    0    0  501    0  0.00000000000E+00 -0.00000000000E+00 -0.42145658295E+03  0.42145658298E+03  0.50400000000E-02 0. -1.
    8880023    1    1    2    0    0 -0.52036045116E+02 -0.87761640217E+02 -0.14488985203E+03  0.68206534215E+03  0.65864270000E+03 0. -1.
    8880022    1    1    2    0    0  0.52036045116E+02  0.87761640217E+02  0.10511001071E+04  0.10670580788E+04  0.15294330000E+03 0.  0.
<mgrwt>
<rscale>  0 0.48302135E+03</rscale>
<asrwt>0</asrwt>
<pdfrwt beam="1">  1        1 0.64839475E-01 0.66649836E+03</pdfrwt>
<pdfrwt beam="2">  1       -1 0.20425644E+00 0.66649836E+03</pdfrwt>
<totfact> 0.82236548E+00</totfact>
</mgrwt>
</event>
<event>
 4    1  0.1481660E-007  0.1187697E+04  0.7818608E-02  0.9169175E-01
          1   -1    0    0  501    0  0.00000000000E+00  0.00000000000E+00  0.33873473490E+04  0.33873473490E+04  0.50400000000E-02 0. -1.
         -1   -1    0    0    0  501 -0.00000000000E+00 -0.00000000000E+00 -0.13099752040E+04  0.13099752040E+04  0.50400000000E-02 0.  1.
    8880023    1    1    2    0    0  0.97654346439E+03  0.15224209217E+03  0.30678634090E+04  0.32897432871E+04  0.65864270000E+03 0. -1.
    8880022    1    1    2    0    0 -0.97654346439E+03 -0.15224209217E+03 -0.99049126402E+03  0.14075792658E+04  0.15294330000E+03 0.  0.
<mgrwt>
<rscale>  0 0.11377335E+04</rscale>
<asrwt>0</asrwt>
<pdfrwt beam="1">  1        1 0.52113036E+00 0.11876974E+04</pdfrwt>
<pdfrwt beam="2">  1       -1 0.20153465E+00 0.11876974E+04</pdfrwt>
<totfact> 0.44945459E-02</totfact>
</mgrwt>
</event>
<event>
 4    1  0.1065596E-007  0.7050088E+03  0.7818608E-02  0.9977025E-01
          1   -1    0    0  501    0  0.00000000000E+00  0.00000000000E+00  0.21712245414E+04  0.21712245414E+04  0.50400000000E-02 0. -1.
         -1   -1    0    0    0  501 -0.00000000000E+00 -0.00000000000E+00 -0.31278241627E+03  0.31278241631E+03  0.50400000000E-02 0.  1.
    8880023    1    1    2    0    0  0.24454771141E+03 -0.58511571339E+02  0.20261255855E+04  0.21452790684E+04  0.65864270000E+03 0. -1.
    8880022    1    1    2    0    0 -0.24454771141E+03  0.58511571339E+02 -0.16768346029E+03  0.33872788932E+03  0.15294330000E+03 0.  0.
<mgrwt>
<rscale>  0 0.56669247E+03</rscale>
<asrwt>0</asrwt>
<pdfrwt beam="1">  1        1 0.33403455E+00 0.70500879E+03</pdfrwt>
<pdfrwt beam="2">  1       -1 0.48120370E-01 0.70500879E+03</pdfrwt>
<totfact> 0.10390677E+01</totfact>
</mgrwt>
</event>
<event>
 4    1  0.1065596E-007  0.1454208E+04  0.7818608E-02  0.8942667E-01
         -1   -1    0    0    0  501 -0.00000000000E+00  0.00000000000E+00  0.98875391523E+03  0.98875391524E+03  0.50400000000E-02 0.  1.
          1   -1    0    0  501    0  0.00000000000E+00 -0.00000000000E+00 -0.21282780995E+04  0.21282780995E+04  0.50400000000E-02 0. -1.
    8880023    1    1    2    0    0  0.12342374865E+04 -0.39694860313E+03 -0.10778163059E+04  0.18100852362E+04  0.65864270000E+03 0.  0.
    8880022    1    1    2    0    0 -0.12342374865E+04  0.39694860313E+03 -0.61707878312E+02  0.13069467785E+04  0.15294330000E+03 0.  0.
<mgrwt>
<rscale>  0 0.14155108E+04</rscale>
<asrwt>0</asrwt>
<pdfrwt beam="1">  1        1 0.32742740E+00 0.14542079E+04</pdfrwt>
<pdfrwt beam="2">  1       -1 0.15211599E+00 0.14542079E+04</pdfrwt>
<totfact> 0.78137997E-01</totfact>
</mgrwt>
</event>
<event>
 4    1  0.1065596E-007  0.1070787E+04  0.7818608E-02  0.9294300E-01
         -1   -1    0    0    0  501 -0.00000000000E+00  0.00000000000E+00  0.16186314314E+04  0.16186314314E+04  0.50400000000E-02 0.  1.
          1   -1    0    0  501    0  0.00000000000E+00 -0.00000000000E+00 -0.73964639813E+03  0.73964639815E+03  0.50400000000E-02 0. -1.
    8880023    1    1    2    0    0 -0.15148609483E+03 -0.83055784440E+03 -0.77213396260E+02  0.10735671775E+04  0.65864270000E+03 0.  0.
    8880022    1    1    2    0    0  0.15148609483E+03  0.83055784440E+03  0.95619842955E+03  0.12847106521E+04  0.15294330000E+03 0.  0.
<mgrwt>
<rscale>  0 0.10130929E+04</rscale>
<asrwt>0</asrwt>
<pdfrwt beam="1">  1        1 0.11379175E+00 0.10707869E+04</pdfrwt>
<pdfrwt beam="2">  1       -1 0.24902022E+00 0.10707869E+04</pdfrwt>
<totfact> 0.17691863E+00</totfact>
</mgrwt>
</event>
<event>
 4    1  0.1065596E-007  0.8859918E+03  0.7818608E-02  0.9548904E-01
         -1   -1    0    0    0  501 -0.00000000000E+00  0.00000000000E+00  0.10148075336E+04  0.10148075336E+04  0.50400000000E-02 0.  1.
          1   -1    0    0  501    0  0.00000000000E+00 -0.00000000000E+00 -0.14108191149E+04  0.14108191149E+04  0.50400000000E-02 0. -1.
    8880023    1    1    2    0    0 -0.59257921273E+03 -0.45895391824E+01 -0.11517821288E+04  0.14531288538E+04  0.65864270000E+03 0.  0.
    8880022    1    1    2    0    0  0.59257921273E+03  0.45895391824E+01  0.75577054751E+03  0.97249779472E+03  0.15294330000E+03 0.  1.
<mgrwt>
<rscale>  0 0.80772374E+03</rscale>
<asrwt>0</asrwt>
<pdfrwt beam="1">  1        1 0.21704910E+00 0.88599176E+03</pdfrwt>
<pdfrwt beam="2">  1       -1 0.15612424E+00 0.88599176E+03</pdfrwt>
<totfact> 0.24123124E+00</totfact>
</mgrwt>
</event>
<event>
 4    1  0.1065596E-007  0.1481949E+04  0.7818608E-02  0.8922489E-01
         -1   -1    0    0    0  501 -0.00000000000E+00  0.00000000000E+00  0.89508326659E+03  0.89508326661E+03  0.50400000000E-02 0.  1.
          1   -1    0    0  501    0  0.00000000000E+00 -0.00000000000E+00 -0.23066538390E+04  0.23066538390E+04  0.50400000000E-02 0. -1.
    8880023    1    1    2    0    0 -0.12698514719E+04  0.38709108247E+03 -0.42814457659E+03  0.15425564014E+04  0.65864270000E+03 0.  0.
    8880022    1    1    2    0    0  0.12698514719E+04 -0.38709108247E+03 -0.98342599583E+03  0.16591807042E+04  0.15294330000E+03 0.  0.
<mgrwt>
<rscale>  0 0.14441178E+04</rscale>
<asrwt>0</asrwt>
<pdfrwt beam="1">  1        1 0.35486982E+00 0.14819489E+04</pdfrwt>
<pdfrwt beam="2">  1       -1 0.13770512E+00 0.14819489E+04</pdfrwt>
<totfact> 0.76809300E-01</totfact>
</mgrwt>
</event>
<event>
 4    1  0.1065596E-007  0.9574075E+03  0.7818608E-02  0.9439535E-01
         -1   -1    0    0    0  501 -0.00000000000E+00  0.00000000000E+00  0.32456678662E+03  0.32456678666E+03  0.50400000000E-02 0.  1.
          1   -1    0    0  501    0  0.00000000000E+00 -0.00000000000E+00 -0.25680869249E+04  0.25680869249E+04  0.50400000000E-02 0. -1.
    8880023    1    1    2    0    0 -0.32930111204E+03 -0.61186581252E+03 -0.18413284489E+04  0.20753601272E+04  0.65864270000E+03 0.  0.
    8880022    1    1    2    0    0  0.32930111204E+03  0.61186581252E+03 -0.40219168943E+03  0.81729358433E+03  0.15294330000E+03 0.  0.
<mgrwt>
<rscale>  0 0.88892279E+03</rscale>
<asrwt>0</asrwt>
<pdfrwt beam="1">  1        1 0.39509028E+00 0.95740754E+03</pdfrwt>
<pdfrwt beam="2">  1       -1 0.49933353E-01 0.95740754E+03</pdfrwt>
<totfact> 0.50127807E+00</totfact>
</mgrwt>
</event>
<event>
 4    1  0.1065596E-007  0.9818673E+03  0.7818608E-02  0.9405675E-01
         -1   -1    0    0    0  501 -0.00000000000E+00  0.00000000000E+00  0.11042365318E+04  0.11042365318E+04  0.50400000000E-02 0.  1.
          1   -1    0    0  501    0  0.00000000000E+00 -0.00000000000E+00 -0.13297910668E+04  0.13297910668E+04  0.50400000000E-02 0. -1.
    8880023    1    1    2    0    0 -0.31453129604E+03  0.65675202579E+03 -0.97090883451E+03  0.13808429783E+04  0.65864270000E+03 0.  0.
    8880022    1    1    2    0    0  0.31453129604E+03 -0.65675202579E+03  0.74535429955E+03  0.10531846203E+04  0.15294330000E+03 0.  0.
<mgrwt>
<rscale>  0 0.91610129E+03</rscale>
<asrwt>0</asrwt>
<pdfrwt beam="1">  1        1 0.20458324E+00 0.98186729E+03</pdfrwt>
<pdfrwt beam="2">  1       -1 0.16988254E+00 0.98186729E+03</pdfrwt>
<totfact> 0.21388274E+00</totfact>
</mgrwt>
</event>
<event>
 4    1  0.1065596E-007  0.6613618E+03  0.7818608E-02  0.1022803E+00
         -1   -1    0    0    0  501 -0.00000000000E+00  0.00000000000E+00  0.31696603265E+03  0.31696603269E+03  0.50400000000E-02 0.  1.
          1   -1    0    0  501    0  0.00000000000E+00 -0.00000000000E+00 -0.83063682980E+03  0.83063682982E+03  0.50400000000E-02 0. -1.
    8880023    1    1    2    0    0 -0.59739739604E+02 -0.45200195038E+01 -0.65506851320E+03  0.93086746120E+03  0.65864270000E+03 0. -1.
    8880022    1    1    2    0    0  0.59739739604E+02  0.45200195038E+01  0.14139771604E+03  0.21673540131E+03  0.15294330000E+03 0.  0.
<mgrwt>
<rscale>  0 0.46688663E+03</rscale>
<asrwt>0</asrwt>
<pdfrwt beam="1">  1        1 0.12779028E+00 0.66136183E+03</pdfrwt>
<pdfrwt beam="2">  1       -1 0.48764005E-01 0.66136183E+03</pdfrwt>
<totfact> 0.89934401E+01</totfact>
</mgrwt>
</event>
<event>
 4    1  0.1065596E-007  0.1185072E+04  0.7818608E-02  0.9171772E-01
          1   -1    0    0  501    0  0.00000000000E+00  0.00000000000E+00  0.50005556702E+03  0.50005556704E+03  0.50400000000E-02 0. -1.
         -1   -1    0    0    0  501 -0.00000000000E+00 -0.00000000000E+00 -0.48035473049E+04  0.48035473049E+04  0.50400000000E-02 0.  1.
    8880023    1    1    2    0    0  0.98086843918E+03  0.92094967736E+02 -0.36370469900E+03  0.12396272393E+04  0.65864270000E+03 0.  0.
    8880022    1    1    2    0    0 -0.98086843918E+03 -0.92094967736E+02 -0.39397870389E+04  0.40639756327E+04  0.15294330000E+03 0.  0.
<mgrwt>
<rscale>  0 0.11349596E+04</rscale>
<asrwt>0</asrwt>
<pdfrwt beam="1">  1        1 0.76931629E-01 0.11850716E+04</pdfrwt>
<pdfrwt beam="2">  1       -1 0.73900725E+00 0.11850716E+04</pdfrwt>
<totfact> 0.63104223E-03</totfact>
</mgrwt>
</event>
<event>
 4    1  0.1065596E-007  0.8621393E+03  0.7818608E-02  0.9589769E-01
          1   -1    0    0  501    0  0.00000000000E+00  0.00000000000E+00  0.84545860281E+03  0.84545860282E+03  0.50400000000E-02 0. -1.
         -1   -1    0    0    0  501 -0.00000000000E+00 -0.00000000000E+00 -0.15603111208E+04  0.15603111208E+04  0.50400000000E-02 0.  1.
    8880023    1    1    2    0    0  0.45539369390E+03 -0.31951608788E+03  0.54509677664E+03  0.10200071809E+04  0.65864270000E+03 0. -1.
    8880022    1    1    2    0    0 -0.45539369390E+03  0.31951608788E+03 -0.12599492946E+04  0.13857625428E+04  0.15294330000E+03 0.  0.
<mgrwt>
<rscale>  0 0.77977030E+03</rscale>
<asrwt>0</asrwt>
<pdfrwt beam="1">  1        1 0.13007055E+00 0.86213929E+03</pdfrwt>
<pdfrwt beam="2">  1       -1 0.24004786E+00 0.86213929E+03</pdfrwt>
<totfact> 0.16814534E+00</totfact>
</mgrwt>
</event>
<event>
 4    1  0.1065596E-007  0.9902213E+03  0.7818608E-02  0.9394464E-01
         -1   -1    0    0    0  501 -0.00000000000E+00  0.00000000000E+00  0.15195847197E+04  0.15195847198E+04  0.50400000000E-02 0.  1.
          1   -1    0    0  501    0  0.00000000000E+00 -0.00000000000E+00 -0.10471854886E+04  0.10471854886E+04  0.50400000000E-02 0. -1.
    8880023    1    1    2    0    0  0.14720118231E+03  0.72461015794E+03 -0.67129101684E+03  0.11963151360E+04  0.65864270000E+03 0.  0.
    8880022    1    1    2    0    0 -0.14720118231E+03 -0.72461015794E+03  0.11436902480E+04  0.13704550724E+04  0.15294330000E+03 0.  0.
<mgrwt>
<rscale>  0 0.92532643E+03</rscale>
<asrwt>0</asrwt>
<pdfrwt beam="1">  1        1 0.16110546E+00 0.99022133E+03</pdfrwt>
<pdfrwt beam="2">  1       -1 0.23378226E+00 0.99022133E+03</pdfrwt>
<totfact> 0.12494935E+00</totfact>
</mgrwt>
</event>
<event>
 4    1  0.1065596E-007  0.9698156E+03  0.7818608E-02  0.9422159E-01
          1   -1    0    0  501    0  0.00000000000E+00  0.00000000000E+00  0.17145320061E+04  0.17145320061E+04  0.50400000000E-02 0. -1.
         -1   -1    0    0    0  501 -0.00000000000E+00 -0.00000000000E+00 -0.70525972637E+03  0.70525972639E+03  0.50400000000E-02 0.  1.
    8880023    1    1    2    0    0  0.44964773110E+02  0.71042959837E+03 -0.21686840065E+03  0.99376765621E+03  0.65864270000E+03 0.  0.
    8880022    1    1    2    0    0 -0.44964773110E+02 -0.71042959837E+03  0.12261406804E+04  0.14260240763E+04  0.15294330000E+03 0.  0.
<mgrwt>
<rscale>  0 0.90274277E+03</rscale>
<asrwt>0</asrwt>
<pdfrwt beam="1">  1        1 0.26377415E+00 0.96981558E+03</pdfrwt>
<pdfrwt beam="2">  1       -1 0.10850150E+00 0.96981558E+03</pdfrwt>
<totfact> 0.37152584E+00</totfact>
</mgrwt>
</event>
<event>
 4    1  0.1065596E-007  0.1017436E+04  0.7818608E-02  0.9359093E-01
         -1   -1    0    0    0  501 -0.00000000000E+00  0.00000000000E+00  0.14556322234E+04  0.14556322234E+04  0.50400000000E-02 0.  1.
          1   -1    0    0  501    0  0.00000000000E+00 -0.00000000000E+00 -0.94505520122E+03  0.94505520124E+03  0.50400000000E-02 0. -1.
    8880023    1    1    2    0    0 -0.41201628437E+02 -0.77438310038E+03 -0.48695406161E+03  0.11279633082E+04  0.65864270000E+03 0. -1.
    8880022    1    1    2    0    0  0.41201628437E+02  0.77438310038E+03  0.99753108375E+03  0.12727241164E+04  0.15294330000E+03 0.  0.
<mgrwt>
<rscale>  0 0.95520039E+03</rscale>
<asrwt>0</asrwt>
<pdfrwt beam="1">  1        1 0.14539311E+00 0.10174365E+04</pdfrwt>
<pdfrwt beam="2">  1       -1 0.22394342E+00 0.10174365E+04</pdfrwt>
<totfact> 0.17382930E+00</totfact>
</mgrwt>
</event>
<event>
 4    1  0.1065596E-007  0.9887268E+03  0.7818608E-02  0.9396457E-01
         -1   -1    0    0    0  501 -0.00000000000E+00  0.00000000000E+00  0.10189800866E+04  0.10189800866E+04  0.50400000000E-02 0.  1.
          1   -1    0    0  501    0  0.00000000000E+00 -0.00000000000E+00 -0.91195097951E+03  0.91195097952E+03  0.50400000000E-02 0. -1.
    8880023    1    1    2    0    0  0.57183553364E+03  0.46559060803E+03  0.47019828637E+03  0.10948365753E+04  0.65864270000E+03 0.  0.
    8880022    1    1    2    0    0 -0.57183553364E+03 -0.46559060803E+03 -0.36316917928E+03  0.83609449084E+03  0.15294330000E+03 0.  0.
<mgrwt>
<rscale>  0 0.92367808E+03</rscale>
<asrwt>0</asrwt>
<pdfrwt beam="1">  1        1 0.14030015E+00 0.98872681E+03</pdfrwt>
<pdfrwt beam="2">  1       -1 0.15676617E+00 0.98872681E+03</pdfrwt>
<totfact> 0.55238285E+00</totfact>
</mgrwt>
</event>
<event>
 4    1  0.1065596E-007  0.1360302E+04  0.7818608E-02  0.9015159E-01
          1   -1    0    0  501    0  0.00000000000E+00  0.00000000000E+00  0.32716924213E+04  0.32716924213E+04  0.50400000000E-02 0. -1.
         -1   -1    0    0    0  501 -0.00000000000E+00 -0.00000000000E+00 -0.77231183109E+03  0.77231183111E+03  0.50400000000E-02 0.  1.
    8880023    1    1    2    0    0  0.86063325352E+02  0.11870993036E+04  0.24975834000E+04  0.28440015293E+04  0.65864270000E+03 0.  0.
    8880022    1    1    2    0    0 -0.86063325352E+02 -0.11870993036E+04  0.17971902201E+01  0.12000027231E+04  0.15294330000E+03 0.  0.
<mgrwt>
<rscale>  0 0.13183234E+04</rscale>
<asrwt>0</asrwt>
<pdfrwt beam="1">  1        1 0.50333729E+00 0.13603021E+04</pdfrwt>
<pdfrwt beam="2">  1       -1 0.11881721E+00 0.13603021E+04</pdfrwt>
<totfact> 0.23223681E-01</totfact>
</mgrwt>
</event>
<event>
 4    1  0.1065596E-007  0.1175527E+04  0.7818608E-02  0.9181287E-01
         -1   -1    0    0    0  501 -0.00000000000E+00  0.00000000000E+00  0.16407896680E+04  0.16407896680E+04  0.50400000000E-02 0.  1.
          1   -1    0    0  501    0  0.00000000000E+00 -0.00000000000E+00 -0.20213057750E+04  0.20213057750E+04  0.50400000000E-02 0. -1.
    8880023    1    1    2    0    0  0.76730451773E+03  0.59941445834E+03 -0.16680297625E+04  0.20406340707E+04  0.65864270000E+03 0.  0.
    8880022    1    1    2    0    0 -0.76730451773E+03 -0.59941445834E+03  0.12875136555E+04  0.16214613723E+04  0.15294330000E+03 0.  0.
<mgrwt>
<rscale>  0 0.11248686E+04</rscale>
<asrwt>0</asrwt>
<pdfrwt beam="1">  1        1 0.31097012E+00 0.11755272E+04</pdfrwt>
<pdfrwt beam="2">  1       -1 0.25242918E+00 0.11755272E+04</pdfrwt>
<totfact> 0.19120803E-01</totfact>
</mgrwt>
</event>
<event>
 4    1  0.1065596E-007  0.6974777E+03  0.7818608E-02  0.1000783E+00
          1   -1    0    0  501    0  0.00000000000E+00  0.00000000000E+00  0.14299523163E+04  0.14299523163E+04  0.50400000000E-02 0. -1.
         -1   -1    0    0    0  501 -0.00000000000E+00 -0.00000000000E+00 -0.16706631292E+03  0.16706631300E+03  0.50400000000E-02 0.  1.
    8880023    1    1    2    0    0  0.15447592016E+03  0.16971204695E+03  0.96998265539E+03  0.11947140021E+04  0.65864270000E+03 0.  0.
    8880022    1    1    2    0    0 -0.15447592016E+03 -0.16971204695E+03  0.29290334797E+03  0.40230462719E+03  0.15294330000E+03 0.  1.
<mgrwt>
<rscale>  0 0.55308249E+03</rscale>
<asrwt>0</asrwt>
<pdfrwt beam="1">  1        1 0.21999265E+00 0.69747774E+03</pdfrwt>
<pdfrwt beam="2">  1       -1 0.25702511E-01 0.69747774E+03</pdfrwt>
<totfact> 0.10036788E+02</totfact>
</mgrwt>
</event>
<event>
 4    1  0.1065596E-007  0.1630348E+04  0.7818608E-02  0.8822686E-01
         -1   -1    0    0    0  501 -0.00000000000E+00  0.00000000000E+00  0.71286470894E+03  0.71286470896E+03  0.50400000000E-02 0.  1.
          1   -1    0    0  501    0  0.00000000000E+00 -0.00000000000E+00 -0.40453244169E+04  0.40453244169E+04  0.50400000000E-02 0. -1.
    8880023    1    1    2    0    0 -0.13415937236E+04  0.65142169715E+03 -0.80193605124E+03  0.18169027446E+04  0.65864270000E+03 0.  0.
    8880022    1    1    2    0    0  0.13415937236E+04 -0.65142169715E+03 -0.25305236567E+04  0.29412863813E+04  0.15294330000E+03 0.  0.
<mgrwt>
<rscale>  0 0.15965240E+04</rscale>
<asrwt>0</asrwt>
<pdfrwt beam="1">  1        1 0.62235759E+00 0.16303479E+04</pdfrwt>
<pdfrwt beam="2">  1       -1 0.10967150E+00 0.16303479E+04</pdfrwt>
<totfact> 0.64009501E-02</totfact>
</mgrwt>
</event>
<event>
 4    1  0.1065596E-007  0.9696178E+03  0.7818608E-02  0.9422433E-01
         -1   -1    0    0    0  501 -0.00000000000E+00  0.00000000000E+00  0.85166396397E+03  0.85166396399E+03  0.50400000000E-02 0.  1.
          1   -1    0    0  501    0  0.00000000000E+00 -0.00000000000E+00 -0.30471990664E+04  0.30471990664E+04  0.50400000000E-02 0. -1.
    8880023    1    1    2    0    0  0.61387550442E+02 -0.70892881270E+03 -0.27934392066E+04  0.29569344430E+04  0.65864270000E+03 0.  0.
    8880022    1    1    2    0    0 -0.61387550442E+02  0.70892881270E+03  0.59790410423E+03  0.94192858736E+03  0.15294330000E+03 0.  0.
<mgrwt>
<rscale>  0 0.90252304E+03</rscale>
<asrwt>0</asrwt>
<pdfrwt beam="1">  1        1 0.46879985E+00 0.96961781E+03</pdfrwt>
<pdfrwt beam="2">  1       -1 0.13102523E+00 0.96961781E+03</pdfrwt>
<totfact> 0.28396778E-01</totfact>
</mgrwt>
</event>
<event>
 4    1  0.1065596E-007  0.1449500E+04  0.7818608E-02  0.8946145E-01
         -1   -1    0    0    0  501 -0.00000000000E+00  0.00000000000E+00  0.95720966160E+03  0.95720966162E+03  0.50400000000E-02 0.  1.
          1   -1    0    0  501    0  0.00000000000E+00 -0.00000000000E+00 -0.21256406814E+04  0.21256406814E+04  0.50400000000E-02 0. -1.
    8880023    1    1    2    0    0  0.57096750271E+03  0.11581169825E+04 -0.20358297389E+03  0.14637264320E+04  0.65864270000E+03 0.  0.
    8880022    1    1    2    0    0 -0.57096750271E+03 -0.11581169825E+04 -0.96484804587E+03  0.16191239109E+04  0.15294330000E+03 0.  0.
<mgrwt>
<rscale>  0 0.14106513E+04</rscale>
<asrwt>0</asrwt>
<pdfrwt beam="1">  1        1 0.32702164E+00 0.14494996E+04</pdfrwt>
<pdfrwt beam="2">  1       -1 0.14726302E+00 0.14494996E+04</pdfrwt>
<totfact> 0.85721750E-01</totfact>
</mgrwt>
</event>
<event>
 4    1  0.1065596E-007  0.6612348E+03  0.7818608E-02  0.1022926E+00
         -1   -1    0    0    0  501 -0.00000000000E+00  0.00000000000E+00  0.39349709266E+03  0.39349709269E+03  0.50400000000E-02 0.  1.
          1   -1    0    0  501    0  0.00000000000E+00 -0.00000000000E+00 -0.44368409883E+03  0.44368409886E+03  0.50400000000E-02 0. -1.
    8880023    1    1    2    0    0 -0.50658696325E+02 -0.29239104687E+02 -0.93476261297E+02  0.66780928898E+03  0.65864270000E+03 0. -1.
    8880022    1    1    2    0    0  0.50658696325E+02  0.29239104687E+02  0.43289255129E+02  0.16937190257E+03  0.15294330000E+03 0. -1.
<mgrwt>
<rscale>  0 0.46645495E+03</rscale>
<asrwt>0</asrwt>
<pdfrwt beam="1">  1        1 0.68259093E-01 0.66123478E+03</pdfrwt>
<pdfrwt beam="2">  1       -1 0.60538014E-01 0.66123478E+03</pdfrwt>
<totfact> 0.14742272E+02</totfact>
</mgrwt>
</event>
<event>
 4    1  0.1065596E-007  0.1512104E+04  0.7818608E-02  0.8901136E-01
          1   -1    0    0  501    0  0.00000000000E+00  0.00000000000E+00  0.36297598019E+04  0.36297598019E+04  0.50400000000E-02 0. -1.
         -1   -1    0    0    0  501 -0.00000000000E+00 -0.00000000000E+00 -0.57690624227E+03  0.57690624229E+03  0.50400000000E-02 0.  1.
    8880023    1    1    2    0    0  0.13385019383E+04 -0.24710441388E+03  0.14072454965E+04  0.20656229385E+04  0.65864270000E+03 0.  0.
    8880022    1    1    2    0    0 -0.13385019383E+04  0.24710441388E+03  0.16456080631E+04  0.21410431057E+04  0.15294330000E+03 0.  0.
<mgrwt>
<rscale>  0 0.14751680E+04</rscale>
<asrwt>0</asrwt>
<pdfrwt beam="1">  1        1 0.55842458E+00 0.15121039E+04</pdfrwt>
<pdfrwt beam="2">  1       -1 0.88754807E-01 0.15121039E+04</pdfrwt>
<totfact> 0.23661743E-01</totfact>
</mgrwt>
</event>
<event>
 4    1  0.1065596E-007  0.6680705E+03  0.7818608E-02  0.1017086E+00
          1   -1    0    0  501    0  0.00000000000E+00  0.00000000000E+00  0.16020318244E+04  0.16020318244E+04  0.50400000000E-02 0. -1.
         -1   -1    0    0    0  501 -0.00000000000E+00 -0.00000000000E+00 -0.60977551628E+03  0.60977551630E+03  0.50400000000E-02 0.  1.
    8880023    1    1    2    0    0  0.91807336548E+02 -0.63869882119E+02  0.15150132871E+04  0.16557727547E+04  0.65864270000E+03 0. -1.
    8880022    1    1    2    0    0 -0.91807336548E+02  0.63869882119E+02 -0.52275697891E+03  0.55603458607E+03  0.15294330000E+03 0.  0.
<mgrwt>
<rscale>  0 0.48753176E+03</rscale>
<asrwt>0</asrwt>
<pdfrwt beam="1">  1        1 0.24646643E+00 0.66807047E+03</pdfrwt>
<pdfrwt beam="2">  1       -1 0.93811619E-01 0.66807047E+03</pdfrwt>
<totfact> 0.64758920E+00</totfact>
</mgrwt>
</event>
<event>
 4    1  0.1065596E-007  0.1363331E+04  0.7818608E-02  0.9012712E-01
          1   -1    0    0  501    0  0.00000000000E+00  0.00000000000E+00  0.24037149230E+04  0.24037149230E+04  0.50400000000E-02 0. -1.
         -1   -1    0    0    0  501 -0.00000000000E+00 -0.00000000000E+00 -0.13424157946E+04  0.13424157946E+04  0.50400000000E-02 0.  1.
    8880023    1    1    2    0    0 -0.10205247037E+04  0.61918529388E+03 -0.76173931101E+03  0.15617035836E+04  0.65864270000E+03 0.  1.
    8880022    1    1    2    0    0  0.10205247037E+04 -0.61918529388E+03  0.18230384395E+04  0.21844271340E+04  0.15294330000E+03 0. -1.
<mgrwt>
<rscale>  0 0.13214676E+04</rscale>
<asrwt>0</asrwt>
<pdfrwt beam="1">  1        1 0.36980230E+00 0.13633310E+04</pdfrwt>
<pdfrwt beam="2">  1       -1 0.20652551E+00 0.13633310E+04</pdfrwt>
<totfact> 0.20620946E-01</totfact>
</mgrwt>
</event>
<event>
 4    1  0.1065596E-007  0.1068015E+04  0.7818608E-02  0.9297532E-01
          1   -1    0    0  501    0  0.00000000000E+00  0.00000000000E+00  0.82410050846E+03  0.82410050848E+03  0.50400000000E-02 0. -1.
         -1   -1    0    0    0  501 -0.00000000000E+00 -0.00000000000E+00 -0.15429143562E+04  0.15429143562E+04  0.50400000000E-02 0.  1.
    8880023    1    1    2    0    0 -0.83427038392E+03 -0.10410726820E+03  0.22749044707E+03  0.10919741327E+04  0.65864270000E+03 0.  0.
    8880022    1    1    2    0    0  0.83427038392E+03  0.10410726820E+03 -0.94630429482E+03  0.12750407320E+04  0.15294330000E+03 0.  0.
<mgrwt>
<rscale>  0 0.10101036E+04</rscale>
<asrwt>0</asrwt>
<pdfrwt beam="1">  1        1 0.12678469E+00 0.10680148E+04</pdfrwt>
<pdfrwt beam="2">  1       -1 0.23737144E+00 0.10680148E+04</pdfrwt>
<totfact> 0.17744785E+00</totfact>
</mgrwt>
</event>
<event>
 4    1  0.1065596E-007  0.8580698E+03  0.7818608E-02  0.9597006E-01
          1   -1    0    0  501    0  0.00000000000E+00  0.00000000000E+00  0.20170113426E+04  0.20170113427E+04  0.50400000000E-02 0. -1.
         -1   -1    0    0    0  501 -0.00000000000E+00 -0.00000000000E+00 -0.55282243685E+03  0.55282243687E+03  0.50400000000E-02 0.  1.
    8880023    1    1    2    0    0  0.10639245177E+03 -0.53958705078E+03  0.17368231476E+04  0.19372244040E+04  0.65864270000E+03 0. -1.
    8880022    1    1    2    0    0 -0.10639245177E+03  0.53958705078E+03 -0.27263424181E+03  0.63260937551E+03  0.15294330000E+03 0.  0.
<mgrwt>
<rscale>  0 0.77494646E+03</rscale>
<asrwt>0</asrwt>
<pdfrwt beam="1">  1        1 0.31030943E+00 0.85806978E+03</pdfrwt>
<pdfrwt beam="2">  1       -1 0.85049607E-01 0.85806978E+03</pdfrwt>
<totfact> 0.40958282E+00</totfact>
</mgrwt>
</event>
<event>
 4    1  0.1065596E-007  0.1657413E+04  0.7818608E-02  0.8805803E-01
         -1   -1    0    0    0  501 -0.00000000000E+00  0.00000000000E+00  0.33908065792E+04  0.33908065793E+04  0.50400000000E-02 0.  1.
          1   -1    0    0  501    0  0.00000000000E+00 -0.00000000000E+00 -0.12443014153E+04  0.12443014153E+04  0.50400000000E-02 0. -1.
    8880023    1    1    2    0    0 -0.80642456473E+03  0.12895296126E+04 -0.36300546265E+03  0.16966998475E+04  0.65864270000E+03 0.  0.
    8880022    1    1    2    0    0  0.80642456473E+03 -0.12895296126E+04  0.25095106266E+04  0.29384081470E+04  0.15294330000E+03 0.  0.
<mgrwt>
<rscale>  0 0.16242245E+04</rscale>
<asrwt>0</asrwt>
<pdfrwt beam="1">  1        1 0.19143099E+00 0.16574129E+04</pdfrwt>
<pdfrwt beam="2">  1       -1 0.52166255E+00 0.16574129E+04</pdfrwt>
<totfact> 0.99272287E-03</totfact>
</mgrwt>
</event>
<event>
 4    1  0.1065596E-007  0.1236483E+04  0.7818608E-02  0.9122450E-01
         -1   -1    0    0    0  501 -0.00000000000E+00  0.00000000000E+00  0.26927616848E+04  0.26927616849E+04  0.50400000000E-02 0.  1.
          1   -1    0    0  501    0  0.00000000000E+00 -0.00000000000E+00 -0.13211879712E+04  0.13211879712E+04  0.50400000000E-02 0. -1.
    8880023    1    1    2    0    0 -0.92233174814E+03 -0.49435101077E+03 -0.88585992983E+03  0.15210643632E+04  0.65864270000E+03 0.  0.
    8880022    1    1    2    0    0  0.92233174814E+03  0.49435101077E+03  0.22574336435E+04  0.24928852928E+04  0.15294330000E+03 0.  0.
<mgrwt>
<rscale>  0 0.11891018E+04</rscale>
<asrwt>0</asrwt>
<pdfrwt beam="1">  1        1 0.20325969E+00 0.12364825E+04</pdfrwt>
<pdfrwt beam="2">  1       -1 0.41427102E+00 0.12364825E+04</pdfrwt>
<totfact> 0.49142083E-02</totfact>
</mgrwt>
</event>
<event>
 4    1  0.1065596E-007  0.9656680E+03  0.7818608E-02  0.9427921E-01
         -1   -1    0    0    0  501 -0.00000000000E+00  0.00000000000E+00  0.96766495068E+03  0.96766495070E+03  0.50400000000E-02 0.  1.
          1   -1    0    0  501    0  0.00000000000E+00 -0.00000000000E+00 -0.93852680380E+03  0.93852680382E+03  0.50400000000E-02 0. -1.
    8880023    1    1    2    0    0  0.67473163856E+03 -0.20842652507E+03 -0.42254597711E+03  0.10540681712E+04  0.65864270000E+03 0.  0.
    8880022    1    1    2    0    0 -0.67473163856E+03  0.20842652507E+03  0.45168412399E+03  0.85212358335E+03  0.15294330000E+03 0.  0.
<mgrwt>
<rscale>  0 0.89813096E+03</rscale>
<asrwt>0</asrwt>
<pdfrwt beam="1">  1        1 0.14438874E+00 0.96566796E+03</pdfrwt>
<pdfrwt beam="2">  1       -1 0.14887153E+00 0.96566796E+03</pdfrwt>
<totfact> 0.60664630E+00</totfact>
</mgrwt>
</event>
<event>
 4    1  0.1065596E-007  0.7891110E+03  0.7818608E-02  0.9734855E-01
          1   -1    0    0  501    0  0.00000000000E+00  0.00000000000E+00  0.15138881414E+04  0.15138881414E+04  0.50400000000E-02 0. -1.
         -1   -1    0    0    0  501 -0.00000000000E+00 -0.00000000000E+00 -0.87348047313E+03  0.87348047314E+03  0.50400000000E-02 0.  1.
    8880023    1    1    2    0    0 -0.17322978723E+03  0.39859430507E+03  0.13368171325E+04  0.15523453969E+04  0.65864270000E+03 0. -1.
    8880022    1    1    2    0    0  0.17322978723E+03 -0.39859430507E+03 -0.69640946421E+03  0.83502321768E+03  0.15294330000E+03 0.  0.
<mgrwt>
<rscale>  0 0.68978954E+03</rscale>
<asrwt>0</asrwt>
<pdfrwt beam="1">  1        1 0.23290587E+00 0.78911101E+03</pdfrwt>
<pdfrwt beam="2">  1       -1 0.13438161E+00 0.78911101E+03</pdfrwt>
<totfact> 0.30943196E+00</totfact>
</mgrwt>
</event>
<event>
 4    1  0.1065596E-007  0.1049272E+04  0.7818608E-02  0.9319757E-01
          1   -1    0    0  501    0  0.00000000000E+00  0.00000000000E+00  0.10874331103E+04  0.10874331104E+04  0.50400000000E-02 0. -1.
         -1   -1    0    0    0  501 -0.00000000000E+00 -0.00000000000E+00 -0.23547847465E+04  0.23547847465E+04  0.50400000000E-02 0.  1.
    8880023    1    1    2    0    0  0.74191666607E+03 -0.34164491769E+03  0.73044483930E+03  0.12784840471E+04  0.65864270000E+03 0. -1.
    8880022    1    1    2    0    0 -0.74191666607E+03  0.34164491769E+03 -0.19977964755E+04  0.21637338098E+04  0.15294330000E+03 0.  0.
<mgrwt>
<rscale>  0 0.98984164E+03</rscale>
<asrwt>0</asrwt>
<pdfrwt beam="1">  1        1 0.16729740E+00 0.10492720E+04</pdfrwt>
<pdfrwt beam="2">  1       -1 0.36227458E+00 0.10492720E+04</pdfrwt>
<totfact> 0.16906420E-01</totfact>
</mgrwt>
</event>
<event>
 4    1  0.1065596E-007  0.8596408E+03  0.7818608E-02  0.9594203E-01
          1   -1    0    0  501    0  0.00000000000E+00  0.00000000000E+00  0.12391466378E+04  0.12391466378E+04  0.50400000000E-02 0. -1.
         -1   -1    0    0    0  501 -0.00000000000E+00 -0.00000000000E+00 -0.72877981828E+03  0.72877981830E+03  0.50400000000E-02 0.  1.
    8880023    1    1    2    0    0  0.54800332868E+03  0.69745250427E+02  0.92325397806E+03  0.12614991726E+04  0.65864270000E+03 0.  0.
    8880022    1    1    2    0    0 -0.54800332868E+03 -0.69745250427E+02 -0.41288715853E+03  0.70642728352E+03  0.15294330000E+03 0.  0.
<mgrwt>
<rscale>  0 0.77681070E+03</rscale>
<asrwt>0</asrwt>
<pdfrwt beam="1">  1        1 0.19063794E+00 0.85964077E+03</pdfrwt>
<pdfrwt beam="2">  1       -1 0.11211997E+00 0.85964077E+03</pdfrwt>
<totfact> 0.74489387E+00</totfact>
</mgrwt>
</event>
<event>
 4    1  0.1065596E-007  0.1018835E+04  0.7818608E-02  0.9357320E-01
          1   -1    0    0  501    0  0.00000000000E+00  0.00000000000E+00  0.24501594190E+04  0.24501594190E+04  0.50400000000E-02 0. -1.
         -1   -1    0    0    0  501 -0.00000000000E+00 -0.00000000000E+00 -0.65036474800E+03  0.65036474802E+03  0.50400000000E-02 0.  1.
    8880023    1    1    2    0    0 -0.63360598744E+03 -0.45028646200E+03  0.20335851088E+04  0.22745313904E+04  0.65864270000E+03 0. -1.
    8880022    1    1    2    0    0  0.63360598744E+03  0.45028646200E+03 -0.23379043778E+03  0.82599277659E+03  0.15294330000E+03 0.  0.
<mgrwt>
<rscale>  0 0.95672863E+03</rscale>
<asrwt>0</asrwt>
<pdfrwt beam="1">  1        1 0.37694761E+00 0.10188349E+04</pdfrwt>
<pdfrwt beam="2">  1       -1 0.10005611E+00 0.10188349E+04</pdfrwt>
<totfact> 0.14170568E+00</totfact>
</mgrwt>
</event>
<event>
 4    1  0.1196795E-007  0.7939730E+03  0.7818608E-02  0.9723982E-01
         -1   -1    0    0    0  501 -0.00000000000E+00  0.00000000000E+00  0.15167306808E+04  0.15167306808E+04  0.50400000000E-02 0.  1.
          1   -1    0    0  501    0  0.00000000000E+00 -0.00000000000E+00 -0.49893243240E+04  0.49893243240E+04  0.50400000000E-02 0. -1.
    8880023    1    1    2    0    0 -0.41678367602E+03 -0.15124224632E+03 -0.49204659537E+04  0.49841125847E+04  0.65864270000E+03 0. -1.
    8880022    1    1    2    0    0  0.41678367602E+03  0.15124224632E+03  0.14478723104E+04  0.15219424201E+04  0.15294330000E+03 0.  0.
<mgrwt>
<rscale>  0 0.69606665E+03</rscale>
<asrwt>0</asrwt>
<pdfrwt beam="1">  1        1 0.76758835E+00 0.79397296E+03</pdfrwt>
<pdfrwt beam="2">  1       -1 0.23334318E+00 0.79397296E+03</pdfrwt>
<totfact> 0.94653535E-04</totfact>
</mgrwt>
</event>
<event>
 4    1  0.1065596E-007  0.1652029E+04  0.7818608E-02  0.8809132E-01
         -1   -1    0    0    0  501 -0.00000000000E+00  0.00000000000E+00  0.12098474180E+04  0.12098474180E+04  0.50400000000E-02 0.  1.
          1   -1    0    0  501    0  0.00000000000E+00 -0.00000000000E+00 -0.27670328128E+04  0.27670328128E+04  0.50400000000E-02 0. -1.
    8880023    1    1    2    0    0 -0.87766776513E+03 -0.12349447004E+04  0.18575876761E+03  0.16624396666E+04  0.65864270000E+03 0.  1.
    8880022    1    1    2    0    0  0.87766776513E+03  0.12349447004E+04 -0.17429441624E+04  0.23144405642E+04  0.15294330000E+03 0.  0.
<mgrwt>
<rscale>  0 0.16187161E+04</rscale>
<asrwt>0</asrwt>
<pdfrwt beam="1">  1        1 0.42569735E+00 0.16520289E+04</pdfrwt>
<pdfrwt beam="2">  1       -1 0.18613037E+00 0.16520289E+04</pdfrwt>
<totfact> 0.15400016E-01</totfact>
</mgrwt>
</event>
<event>
 4    1  0.1065596E-007  0.1030295E+04  0.7818608E-02  0.9342954E-01
          1   -1    0    0  501    0  0.00000000000E+00  0.00000000000E+00  0.10447342286E+04  0.10447342287E+04  0.50400000000E-02 0. -1.
         -1   -1    0    0    0  501 -0.00000000000E+00 -0.00000000000E+00 -0.14914997555E+04  0.14914997555E+04  0.50400000000E-02 0.  1.
    8880023    1    1    2    0    0 -0.68897727297E+03  0.39116161095E+03  0.61711187883E+03  0.12009722586E+04  0.65864270000E+03 0.  0.
    8880022    1    1    2    0    0  0.68897727297E+03 -0.39116161095E+03 -0.10638774057E+04  0.13352617256E+04  0.15294330000E+03 0.  0.
<mgrwt>
<rscale>  0 0.96922842E+03</rscale>
<asrwt>0</asrwt>
<pdfrwt beam="1">  1        1 0.16072834E+00 0.10302948E+04</pdfrwt>
<pdfrwt beam="2">  1       -1 0.22946150E+00 0.10302948E+04</pdfrwt>
<totfact> 0.13324378E+00</totfact>
</mgrwt>
</event>
<event>
 4    1  0.1065596E-007  0.9878983E+03  0.7818608E-02  0.9397564E-01
          1   -1    0    0  501    0  0.00000000000E+00  0.00000000000E+00  0.12707949375E+04  0.12707949375E+04  0.50400000000E-02 0. -1.
         -1   -1    0    0    0  501 -0.00000000000E+00 -0.00000000000E+00 -0.92573711399E+03  0.92573711400E+03  0.50400000000E-02 0.  1.
    8880023    1    1    2    0    0 -0.72429703192E+03  0.13238835367E+03  0.83959521276E+03  0.12964810813E+04  0.65864270000E+03 0.  0.
    8880022    1    1    2    0    0  0.72429703192E+03 -0.13238835367E+03 -0.49453738923E+03  0.90005097022E+03  0.15294330000E+03 0.  0.
<mgrwt>
<rscale>  0 0.92276393E+03</rscale>
<asrwt>0</asrwt>
<pdfrwt beam="1">  1        1 0.19550691E+00 0.98789831E+03</pdfrwt>
<pdfrwt beam="2">  1       -1 0.14242109E+00 0.98789831E+03</pdfrwt>
<totfact> 0.38237366E+00</totfact>
</mgrwt>
</event>
<event>
 4    1  0.1065596E-007  0.7443624E+03  0.7818608E-02  0.9847417E-01
          1   -1    0    0  501    0  0.00000000000E+00  0.00000000000E+00  0.89821822932E+03  0.89821822933E+03  0.50400000000E-02 0. -1.
         -1   -1    0    0    0  501 -0.00000000000E+00 -0.00000000000E+00 -0.79782704912E+03  0.79782704914E+03  0.50400000000E-02 0.  1.
    8880023    1    1    2    0    0  0.30056001063E+03 -0.17299955641E+03  0.67689205341E+03  0.10061104436E+04  0.65864270000E+03 0. -1.
    8880022    1    1    2    0    0 -0.30056001063E+03  0.17299955641E+03 -0.57650087322E+03  0.68993483486E+03  0.15294330000E+03 0.  0.
<mgrwt>
<rscale>  0 0.62878779E+03</rscale>
<asrwt>0</asrwt>
<pdfrwt beam="1">  1        1 0.13818742E+00 0.74436239E+03</pdfrwt>
<pdfrwt beam="2">  1       -1 0.12274262E+00 0.74436239E+03</pdfrwt>
<totfact> 0.11033255E+01</totfact>
</mgrwt>
</event>
<event>
 4    1  0.1065596E-007  0.1729177E+04  0.7818608E-02  0.8762759E-01
         -1   -1    0    0    0  501 -0.00000000000E+00  0.00000000000E+00  0.13097584766E+04  0.13097584766E+04  0.50400000000E-02 0.  1.
          1   -1    0    0  501    0  0.00000000000E+00 -0.00000000000E+00 -0.25754330276E+04  0.25754330276E+04  0.50400000000E-02 0. -1.
    8880023    1    1    2    0    0 -0.14540110683E+04  0.66490291554E+03  0.16135889316E+03  0.17366896593E+04  0.65864270000E+03 0.  0.
    8880022    1    1    2    0    0  0.14540110683E+04 -0.66490291554E+03 -0.14270334441E+04  0.21485018449E+04  0.15294330000E+03 0.  0.
<mgrwt>
<rscale>  0 0.16975573E+04</rscale>
<asrwt>0</asrwt>
<pdfrwt beam="1">  1        1 0.39622046E+00 0.17291773E+04</pdfrwt>
<pdfrwt beam="2">  1       -1 0.20150130E+00 0.17291773E+04</pdfrwt>
<totfact> 0.16246533E-01</totfact>
</mgrwt>
</event>
<event>
 4    1  0.1065596E-007  0.1103301E+04  0.7818608E-02  0.9257390E-01
          1   -1    0    0  501    0  0.00000000000E+00  0.00000000000E+00  0.38767297557E+04  0.38767297557E+04  0.50400000000E-02 0. -1.
         -1   -1    0    0    0  501 -0.00000000000E+00 -0.00000000000E+00 -0.30946334698E+03  0.30946334702E+03  0.50400000000E-02 0.  1.
    8880023    1    1    2    0    0 -0.45466895384E+03 -0.75943369318E+03  0.10892606895E+04  0.15504071877E+04  0.65864270000E+03 0.  1.
    8880022    1    1    2    0    0  0.45466895384E+03  0.75943369318E+03  0.24780057192E+04  0.26357859150E+04  0.15294330000E+03 0.  0.
<mgrwt>
<rscale>  0 0.10480211E+04</rscale>
<asrwt>0</asrwt>
<pdfrwt beam="1">  1        1 0.59641993E+00 0.11033012E+04</pdfrwt>
<pdfrwt beam="2">  1       -1 0.47609749E-01 0.11033012E+04</pdfrwt>
<totfact> 0.55789311E-01</totfact>
</mgrwt>
</event>
<event>
 4    1  0.1065596E-007  0.6941598E+03  0.7818608E-02  0.1002235E+00
          1   -1    0    0  501    0  0.00000000000E+00  0.00000000000E+00  0.31681909739E+04  0.31681909739E+04  0.50400000000E-02 0. -1.
         -1   -1    0    0    0  501 -0.00000000000E+00 -0.00000000000E+00 -0.92642738990E+03  0.92642738991E+03  0.50400000000E-02 0.  1.
    8880023    1    1    2    0    0  0.21805927870E+03 -0.22311428539E+02  0.31098162288E+04  0.31863481969E+04  0.65864270000E+03 0. -1.
    8880022    1    1    2    0    0 -0.21805927870E+03  0.22311428539E+02 -0.86805264481E+03  0.90827016688E+03  0.15294330000E+03 0.  0.
<mgrwt>
<rscale>  0 0.54681038E+03</rscale>
<asrwt>0</asrwt>
<pdfrwt beam="1">  1        1 0.48741400E+00 0.69415982E+03</pdfrwt>
<pdfrwt beam="2">  1       -1 0.14252729E+00 0.69415982E+03</pdfrwt>
<totfact> 0.19912790E-01</totfact>
</mgrwt>
</event>
<event>
 4    1  0.1065596E-007  0.9419636E+03  0.7818608E-02  0.9461772E-01
          1   -1    0    0  501    0  0.00000000000E+00  0.00000000000E+00  0.58813292587E+03  0.58813292589E+03  0.50400000000E-02 0. -1.
         -1   -1    0    0    0  501 -0.00000000000E+00 -0.00000000000E+00 -0.13836340922E+04  0.13836340922E+04  0.50400000000E-02 0.  1.
    8880023    1    1    2    0    0 -0.52940224739E+03  0.41619515387E+03 -0.32298349930E+02  0.94251712733E+03  0.65864270000E+03 0. -1.
    8880022    1    1    2    0    0  0.52940224739E+03 -0.41619515387E+03 -0.76320281635E+03  0.10292498907E+04  0.15294330000E+03 0.  0.
<mgrwt>
<rscale>  0 0.87161832E+03</rscale>
<asrwt>0</asrwt>
<pdfrwt beam="1">  1        1 0.90481989E-01 0.94196356E+03</pdfrwt>
<pdfrwt beam="2">  1       -1 0.21286678E+00 0.94196356E+03</pdfrwt>
<totfact> 0.43842857E+00</totfact>
</mgrwt>
</event>
<event>
 4    1  0.1065596E-007  0.1066797E+04  0.7818608E-02  0.9298957E-01
         -1   -1    0    0    0  501 -0.00000000000E+00  0.00000000000E+00  0.20324777242E+04  0.20324777242E+04  0.50400000000E-02 0.  1.
          1   -1    0    0  501    0  0.00000000000E+00 -0.00000000000E+00 -0.77268223857E+03  0.77268223859E+03  0.50400000000E-02 0. -1.
    8880023    1    1    2    0    0 -0.53719295602E+02  0.83747192016E+03 -0.22733676437E+03  0.10907507463E+04  0.65864270000E+03 0. -1.
    8880022    1    1    2    0    0  0.53719295602E+02 -0.83747192016E+03  0.14871322500E+04  0.17144092166E+04  0.15294330000E+03 0.  0.
<mgrwt>
<rscale>  0 0.10087895E+04</rscale>
<asrwt>0</asrwt>
<pdfrwt beam="1">  1        1 0.11887419E+00 0.10667967E+04</pdfrwt>
<pdfrwt beam="2">  1       -1 0.31268888E+00 0.10667967E+04</pdfrwt>
<totfact> 0.64194587E-01</totfact>
</mgrwt>
</event>
<event>
 4    1  0.1065596E-007  0.7922332E+03  0.7818608E-02  0.9727848E-01
          1   -1    0    0  501    0  0.00000000000E+00  0.00000000000E+00  0.94620108156E+03  0.94620108157E+03  0.50400000000E-02 0. -1.
         -1   -1    0    0    0  501 -0.00000000000E+00 -0.00000000000E+00 -0.12381626486E+04  0.12381626486E+04  0.50400000000E-02 0.  1.
    8880023    1    1    2    0    0  0.22247777915E+03 -0.37990371174E+03  0.71981420771E+03  0.10704045461E+04  0.65864270000E+03 0. -1.
    8880022    1    1    2    0    0 -0.22247777915E+03  0.37990371174E+03 -0.10117757747E+04  0.11139591841E+04  0.15294330000E+03 0.  0.
<mgrwt>
<rscale>  0 0.69382661E+03</rscale>
<asrwt>0</asrwt>
<pdfrwt beam="1">  1        1 0.14556940E+00 0.79223317E+03</pdfrwt>
<pdfrwt beam="2">  1       -1 0.19048656E+00 0.79223317E+03</pdfrwt>
<totfact> 0.30231745E+00</totfact>
</mgrwt>
</event>
<event>
 4    1  0.1065596E-007  0.8705556E+03  0.7818608E-02  0.9575056E-01
         -1   -1    0    0    0  501 -0.00000000000E+00  0.00000000000E+00  0.24516365793E+04  0.24516365793E+04  0.50400000000E-02 0.  1.
          1   -1    0    0  501    0  0.00000000000E+00 -0.00000000000E+00 -0.30874105034E+03  0.30874105039E+03  0.50400000000E-02 0. -1.
    8880023    1    1    2    0    0  0.52946011594E+03  0.20911439141E+03  0.47569800264E+03  0.99204618796E+03  0.65864270000E+03 0.  0.
    8880022    1    1    2    0    0 -0.52946011594E+03 -0.20911439141E+03  0.16671975263E+04  0.17683314417E+04  0.15294330000E+03 0.  0.
<mgrwt>
<rscale>  0 0.78969373E+03</rscale>
<asrwt>0</asrwt>
<pdfrwt beam="1">  1        1 0.47498623E-01 0.87055560E+03</pdfrwt>
<pdfrwt beam="2">  1       -1 0.37717486E+00 0.87055560E+03</pdfrwt>
<totfact> 0.90095379E-01</totfact>
</mgrwt>
</event>
<event>
 4    1  0.1065596E-007  0.8959389E+03  0.7818608E-02  0.9532583E-01
          1   -1    0    0  501    0  0.00000000000E+00  0.00000000000E+00  0.12517701698E+04  0.12517701698E+04  0.50400000000E-02 0. -1.
         -1   -1    0    0    0  501 -0.00000000000E+00 -0.00000000000E+00 -0.87880537500E+03  0.87880537502E+03  0.50400000000E-02 0.  1.
    8880023    1    1    2    0    0 -0.30504780391E+03  0.52520676195E+03  0.93073565891E+03  0.12918882995E+04  0.65864270000E+03 0.  0.
    8880022    1    1    2    0    0  0.30504780391E+03 -0.52520676195E+03 -0.55777086414E+03  0.83868724526E+03  0.15294330000E+03 0.  0.
<mgrwt>
<rscale>  0 0.81923673E+03</rscale>
<asrwt>0</asrwt>
<pdfrwt beam="1">  1        1 0.19258003E+00 0.89593890E+03</pdfrwt>
<pdfrwt beam="2">  1       -1 0.13520083E+00 0.89593890E+03</pdfrwt>
<totfact> 0.45723460E+00</totfact>
</mgrwt>
</event>
<event>
 4    1  0.1065596E-007  0.9309347E+03  0.7818608E-02  0.9478092E-01
          1   -1    0    0  501    0  0.00000000000E+00  0.00000000000E+00  0.86357753939E+03  0.86357753940E+03  0.50400000000E-02 0. -1.
         -1   -1    0    0    0  501 -0.00000000000E+00 -0.00000000000E+00 -0.23092404414E+04  0.23092404415E+04  0.50400000000E-02 0.  1.
    8880023    1    1    2    0    0  0.31401894569E+03 -0.57811871521E+03  0.53945092628E+03  0.10759398939E+04  0.65864270000E+03 0.  0.
    8880022    1    1    2    0    0 -0.31401894569E+03  0.57811871521E+03 -0.19851138283E+04  0.20968780870E+04  0.15294330000E+03 0.  0.
<mgrwt>
<rscale>  0 0.85918421E+03</rscale>
<asrwt>0</asrwt>
<pdfrwt beam="1">  1        1 0.13285808E+00 0.93093467E+03</pdfrwt>
<pdfrwt beam="2">  1       -1 0.35526776E+00 0.93093467E+03</pdfrwt>
<totfact> 0.28898482E-01</totfact>
</mgrwt>
</event>
<event>
 4    1  0.1065596E-007  0.1198005E+04  0.7818608E-02  0.9159064E-01
         -1   -1    0    0    0  501 -0.00000000000E+00  0.00000000000E+00  0.67687027377E+03  0.67687027378E+03  0.50400000000E-02 0.  1.
          1   -1    0    0  501    0  0.00000000000E+00 -0.00000000000E+00 -0.21008783398E+04  0.21008783398E+04  0.50400000000E-02 0. -1.
    8880023    1    1    2    0    0  0.99688301728E+03  0.87344549739E+02 -0.12834863012E+04  0.17557198273E+04  0.65864270000E+03 0.  0.
    8880022    1    1    2    0    0 -0.99688301728E+03 -0.87344549739E+02 -0.14052176483E+03  0.10220287862E+04  0.15294330000E+03 0.  0.
<mgrwt>
<rscale>  0 0.11486126E+04</rscale>
<asrwt>0</asrwt>
<pdfrwt beam="1">  1        1 0.32321205E+00 0.11980046E+04</pdfrwt>
<pdfrwt beam="2">  1       -1 0.10413389E+00 0.11980046E+04</pdfrwt>
<totfact> 0.21795983E+00</totfact>
</mgrwt>
</event>
<event>
 4    1  0.1065596E-007  0.9613929E+03  0.7818608E-02  0.9433908E-01
         -1   -1    0    0    0  501 -0.00000000000E+00  0.00000000000E+00  0.45880924907E+03  0.45880924909E+03  0.50400000000E-02 0.  1.
          1   -1    0    0  501    0  0.00000000000E+00 -0.00000000000E+00 -0.30199986201E+04  0.30199986201E+04  0.50400000000E-02 0. -1.
    8880023    1    1    2    0    0 -0.46567888067E+03 -0.52307670137E+03 -0.25886842404E+04  0.27614420795E+04  0.65864270000E+03 0. -1.
    8880022    1    1    2    0    0  0.46567888067E+03  0.52307670137E+03  0.27494869384E+02  0.71736578973E+03  0.15294330000E+03 0.  0.
<mgrwt>
<rscale>  0 0.89336932E+03</rscale>
<asrwt>0</asrwt>
<pdfrwt beam="1">  1        1 0.46461516E+00 0.96139288E+03</pdfrwt>
<pdfrwt beam="2">  1       -1 0.70586040E-01 0.96139288E+03</pdfrwt>
<totfact> 0.12134548E+00</totfact>
</mgrwt>
</event>
<event>
 4    1  0.1065596E-007  0.9949379E+03  0.7818608E-02  0.9388211E-01
         -1   -1    0    0    0  501 -0.00000000000E+00  0.00000000000E+00  0.40720247524E+04  0.40720247525E+04  0.50400000000E-02 0.  1.
          1   -1    0    0  501    0  0.00000000000E+00 -0.00000000000E+00 -0.50985173571E+03  0.50985173573E+03  0.50400000000E-02 0. -1.
    8880023    1    1    2    0    0  0.73032459513E+03  0.15072223927E+03  0.58713082401E+02  0.99666877144E+03  0.65864270000E+03 0.  0.
    8880022    1    1    2    0    0 -0.73032459513E+03 -0.15072223927E+03  0.35034599343E+04  0.35852077167E+04  0.15294330000E+03 0.  1.
<mgrwt>
<rscale>  0 0.93052287E+03</rscale>
<asrwt>0</asrwt>
<pdfrwt beam="1">  1        1 0.78438731E-01 0.99493789E+03</pdfrwt>
<pdfrwt beam="2">  1       -1 0.62646533E+00 0.99493789E+03</pdfrwt>
<totfact> 0.14974474E-02</totfact>
</mgrwt>
</event>
<event>
 4    1  0.1065596E-007  0.1008329E+04  0.7818608E-02  0.9370741E-01
          1   -1    0    0  501    0  0.00000000000E+00  0.00000000000E+00  0.11427718188E+04  0.11427718188E+04  0.50400000000E-02 0. -1.
         -1   -1    0    0    0  501 -0.00000000000E+00 -0.00000000000E+00 -0.11583437246E+04  0.11583437246E+04  0.50400000000E-02 0.  1.
    8880023    1    1    2    0    0 -0.29034861852E+01 -0.76348418330E+03  0.71284700582E+03  0.12348593395E+04  0.65864270000E+03 0.  0.
    8880022    1    1    2    0    0  0.29034861852E+01  0.76348418330E+03 -0.72841891163E+03  0.10662562038E+04  0.15294330000E+03 0.  0.
<mgrwt>
<rscale>  0 0.94523168E+03</rscale>
<asrwt>0</asrwt>
<pdfrwt beam="1">  1        1 0.17581105E+00 0.10083287E+04</pdfrwt>
<pdfrwt beam="2">  1       -1 0.17820673E+00 0.10083287E+04</pdfrwt>
<totfact> 0.25318742E+00</totfact>
</mgrwt>
</event>
<event>
 4    1  0.1065596E-007  0.7125258E+03  0.7818608E-02  0.9948738E-01
          1   -1    0    0  501    0  0.00000000000E+00  0.00000000000E+00  0.64941880638E+03  0.64941880640E+03  0.50400000000E-02 0. -1.
         -1   -1    0    0    0  501 -0.00000000000E+00 -0.00000000000E+00 -0.50897692620E+03  0.50897692623E+03  0.50400000000E-02 0.  1.
    8880023    1    1    2    0    0 -0.58013744020E+02 -0.26555089643E+03  0.33859352127E+03  0.78888443514E+03  0.65864270000E+03 0. -1.
    8880022    1    1    2    0    0  0.58013744020E+02  0.26555089643E+03 -0.19815164110E+03  0.36951129749E+03  0.15294330000E+03 0.  0.
<mgrwt>
<rscale>  0 0.57956261E+03</rscale>
<asrwt>0</asrwt>
<pdfrwt beam="1">  1        1 0.99910585E-01 0.71252584E+03</pdfrwt>
<pdfrwt beam="2">  1       -1 0.78304143E-01 0.71252584E+03</pdfrwt>
<totfact> 0.51056681E+01</totfact>
</mgrwt>
</event>
<event>
 4    1  0.1065596E-007  0.6876064E+03  0.7818608E-02  0.1005312E+00
          1   -1    0    0  501    0  0.00000000000E+00  0.00000000000E+00  0.33268796413E+04  0.33268796413E+04  0.50400000000E-02 0. -1.
         -1   -1    0    0    0  501 -0.00000000000E+00 -0.00000000000E+00 -0.18395815743E+03  0.18395815750E+03  0.50400000000E-02 0.  1.
    8880023    1    1    2    0    0  0.11521222607E+03 -0.16036980272E+03  0.31842752588E+04  0.32576696366E+04  0.65864270000E+03 0. -1.
    8880022    1    1    2    0    0 -0.11521222607E+03  0.16036980272E+03 -0.41353774966E+02  0.25316816225E+03  0.15294330000E+03 0.  0.
<mgrwt>
<rscale>  0 0.53381290E+03</rscale>
<asrwt>0</asrwt>
<pdfrwt beam="1">  1        1 0.51182764E+00 0.68760638E+03</pdfrwt>
<pdfrwt beam="2">  1       -1 0.28301255E-01 0.68760638E+03</pdfrwt>
<totfact> 0.41931233E+00</totfact>
</mgrwt>
</event>
<event>
 4    1  0.1065596E-007  0.9964384E+03  0.7818608E-02  0.9386232E-01
          1   -1    0    0  501    0  0.00000000000E+00  0.00000000000E+00  0.22430846930E+04  0.22430846930E+04  0.50400000000E-02 0. -1.
         -1   -1    0    0    0  501 -0.00000000000E+00 -0.00000000000E+00 -0.40199669942E+03  0.40199669945E+03  0.50400000000E-02 0.  1.
    8880023    1    1    2    0    0  0.64610721153E+03 -0.37633053238E+03  0.15190970179E+04  0.18167402551E+04  0.65864270000E+03 0.  0.
    8880022    1    1    2    0    0 -0.64610721153E+03  0.37633053238E+03  0.32199097562E+03  0.82834113733E+03  0.15294330000E+03 0.  0.
<mgrwt>
<rscale>  0 0.93217425E+03</rscale>
<asrwt>0</asrwt>
<pdfrwt beam="1">  1        1 0.34508995E+00 0.99643836E+03</pdfrwt>
<pdfrwt beam="2">  1       -1 0.61845646E-01 0.99643836E+03</pdfrwt>
<totfact> 0.54807390E+00</totfact>
</mgrwt>
</event>
<event>
 4    1  0.1065596E-007  0.9890882E+03  0.7818608E-02  0.9395975E-01
         -1   -1    0    0    0  501 -0.00000000000E+00  0.00000000000E+00  0.83264302723E+03  0.83264302725E+03  0.50400000000E-02 0.  1.
          1   -1    0    0  501    0  0.00000000000E+00 -0.00000000000E+00 -0.16320168494E+04  0.16320168495E+04  0.50400000000E-02 0. -1.
    8880023    1    1    2    0    0  0.68698530750E+03 -0.26932609793E+03 -0.12443137880E+04  0.15895321227E+04  0.65864270000E+03 0. -1.
    8880022    1    1    2    0    0 -0.68698530750E+03  0.26932609793E+03  0.44493996576E+03  0.87512775404E+03  0.15294330000E+03 0.  0.
<mgrwt>
<rscale>  0 0.92407680E+03</rscale>
<asrwt>0</asrwt>
<pdfrwt beam="1">  1        1 0.25107951E+00 0.98908825E+03</pdfrwt>
<pdfrwt beam="2">  1       -1 0.12809893E+00 0.98908825E+03</pdfrwt>
<totfact> 0.28148965E+00</totfact>
</mgrwt>
</event>
<event>
 4    1  0.1065596E-007  0.8984569E+03  0.7818608E-02  0.9528513E-01
          1   -1    0    0  501    0  0.00000000000E+00  0.00000000000E+00  0.20472149342E+04  0.20472149342E+04  0.50400000000E-02 0. -1.
         -1   -1    0    0    0  501 -0.00000000000E+00 -0.00000000000E+00 -0.88456702387E+03  0.88456702389E+03  0.50400000000E-02 0.  1.
    8880023    1    1    2    0    0 -0.35151264135E+03 -0.49985342502E+03  0.18148343671E+04  0.20250552017E+04  0.65864270000E+03 0. -1.
    8880022    1    1    2    0    0  0.35151264135E+03  0.49985342502E+03 -0.65218645673E+03  0.90672675646E+03  0.15294330000E+03 0.  0.
<mgrwt>
<rscale>  0 0.82213899E+03</rscale>
<asrwt>0</asrwt>
<pdfrwt beam="1">  1        1 0.31495614E+00 0.89845689E+03</pdfrwt>
<pdfrwt beam="2">  1       -1 0.13608723E+00 0.89845689E+03</pdfrwt>
<totfact> 0.12843977E+00</totfact>
</mgrwt>
</event>
<event>
 4    1  0.1065596E-007  0.1024580E+04  0.7818608E-02  0.9350083E-01
          1   -1    0    0  501    0  0.00000000000E+00  0.00000000000E+00  0.31145249623E+04  0.31145249623E+04  0.50400000000E-02 0. -1.
         -1   -1    0    0    0  501 -0.00000000000E+00 -0.00000000000E+00 -0.42004753713E+03  0.42004753716E+03  0.50400000000E-02 0.  1.
    8880023    1    1    2    0    0  0.77538532188E+03 -0.12137380357E+03  0.25141410049E+04  0.27148976401E+04  0.65864270000E+03 0.  0.
    8880022    1    1    2    0    0 -0.77538532188E+03  0.12137380357E+03  0.18033642032E+03  0.81967485937E+03  0.15294330000E+03 0.  0.
<mgrwt>
<rscale>  0 0.96300019E+03</rscale>
<asrwt>0</asrwt>
<pdfrwt beam="1">  1        1 0.47915768E+00 0.10245800E+04</pdfrwt>
<pdfrwt beam="2">  1       -1 0.64622698E-01 0.10245800E+04</pdfrwt>
<totfact> 0.12271514E+00</totfact>
</mgrwt>
</event>
<event>
 4    1  0.1065596E-007  0.1214019E+04  0.7818608E-02  0.9143614E-01
          1   -1    0    0  501    0  0.00000000000E+00  0.00000000000E+00  0.18244453683E+04  0.18244453683E+04  0.50400000000E-02 0. -1.
         -1   -1    0    0    0  501 -0.00000000000E+00 -0.00000000000E+00 -0.17144466335E+04  0.17144466335E+04  0.50400000000E-02 0.  1.
    8880023    1    1    2    0    0  0.17678660742E+03 -0.10043796273E+04  0.14222515641E+04  0.18699309234E+04  0.65864270000E+03 0.  0.
    8880022    1    1    2    0    0 -0.17678660742E+03  0.10043796273E+04 -0.13122528294E+04  0.16689610785E+04  0.15294330000E+03 0.  0.
<mgrwt>
<rscale>  0 0.11654869E+04</rscale>
<asrwt>0</asrwt>
<pdfrwt beam="1">  1        1 0.28068390E+00 0.12140190E+04</pdfrwt>
<pdfrwt beam="2">  1       -1 0.26376102E+00 0.12140190E+04</pdfrwt>
<totfact> 0.21806849E-01</totfact>
</mgrwt>
</event>
<event>
 4    1  0.1065596E-007  0.6642273E+03  0.7818608E-02  0.1020191E+00
          1   -1    0    0  501    0  0.00000000000E+00  0.00000000000E+00  0.13316359017E+04  0.13316359017E+04  0.50400000000E-02 0. -1.
         -1   -1    0    0    0  501 -0.00000000000E+00 -0.00000000000E+00 -0.18148463168E+03  0.18148463175E+03  0.50400000000E-02 0.  1.
    8880023    1    1    2    0    0  0.85947971565E+02  0.80122939240E+00  0.11607475585E+04  0.13373603840E+04  0.65864270000E+03 0. -1.
    8880022    1    1    2    0    0 -0.85947971565E+02 -0.80122939240E+00 -0.10596288540E+02  0.17576014944E+03  0.15294330000E+03 0.  0.
<mgrwt>
<rscale>  0 0.47617870E+03</rscale>
<asrwt>0</asrwt>
<pdfrwt beam="1">  1        1 0.20486706E+00 0.66422730E+03</pdfrwt>
<pdfrwt beam="2">  1       -1 0.27920713E-01 0.66422730E+03</pdfrwt>
<totfact> 0.10224252E+02</totfact>
</mgrwt>
</event>
<event>
 4    1  0.1065596E-007  0.6933493E+03  0.7818608E-02  0.1002600E+00
          1   -1    0    0  501    0  0.00000000000E+00  0.00000000000E+00  0.41979827855E+03  0.41979827858E+03  0.50400000000E-02 0. -1.
         -1   -1    0    0    0  501 -0.00000000000E+00 -0.00000000000E+00 -0.15224343321E+04  0.15224343321E+04  0.50400000000E-02 0.  1.
    8880023    1    1    2    0    0 -0.19575383096E+03 -0.92755163019E+02  0.10904823735E+03  0.70187235801E+03  0.65864270000E+03 0. -1.
    8880022    1    1    2    0    0  0.19575383096E+03  0.92755163019E+02 -0.12116842909E+04  0.12403602526E+04  0.15294330000E+03 0.  0.
<mgrwt>
<rscale>  0 0.54524899E+03</rscale>
<asrwt>0</asrwt>
<pdfrwt beam="1">  1        1 0.64584352E-01 0.69334933E+03</pdfrwt>
<pdfrwt beam="2">  1       -1 0.23422066E+00 0.69334933E+03</pdfrwt>
<totfact> 0.52100278E+00</totfact>
</mgrwt>
</event>
<event>
 4    1  0.1065596E-007  0.8710878E+03  0.7818608E-02  0.9574137E-01
          1   -1    0    0  501    0  0.00000000000E+00  0.00000000000E+00  0.54003933755E+03  0.54003933757E+03  0.50400000000E-02 0. -1.
         -1   -1    0    0    0  501 -0.00000000000E+00 -0.00000000000E+00 -0.20202133849E+04  0.20202133849E+04  0.50400000000E-02 0.  1.
    8880023    1    1    2    0    0  0.25307152781E+03 -0.51082136632E+03  0.96791515151E+02  0.87644878353E+03  0.65864270000E+03 0.  0.
    8880022    1    1    2    0    0 -0.25307152781E+03  0.51082136632E+03 -0.15769655625E+04  0.16838039390E+04  0.15294330000E+03 0.  0.
<mgrwt>
<rscale>  0 0.79031887E+03</rscale>
<asrwt>0</asrwt>
<pdfrwt beam="1">  1        1 0.83082976E-01 0.87108775E+03</pdfrwt>
<pdfrwt beam="2">  1       -1 0.31080206E+00 0.87108775E+03</pdfrwt>
<totfact> 0.11574283E+00</totfact>
</mgrwt>
</event>
<event>
 4    1  0.1065596E-007  0.7093068E+03  0.7818608E-02  0.9960584E-01
         -1   -1    0    0    0  501 -0.00000000000E+00  0.00000000000E+00  0.56272706418E+03  0.56272706420E+03  0.50400000000E-02 0.  1.
          1   -1    0    0  501    0  0.00000000000E+00 -0.00000000000E+00 -0.11633975877E+04  0.11633975877E+04  0.50400000000E-02 0. -1.
    8880023    1    1    2    0    0 -0.26314755303E+03  0.77040867459E+01 -0.99872766667E+03  0.12249788349E+04  0.65864270000E+03 0. -1.
    8880022    1    1    2    0    0  0.26314755303E+03 -0.77040867459E+01  0.39805714316E+03  0.50114581696E+03  0.15294330000E+03 0.  0.
<mgrwt>
<rscale>  0 0.57412862E+03</rscale>
<asrwt>0</asrwt>
<pdfrwt beam="1">  1        1 0.17898424E+00 0.70930684E+03</pdfrwt>
<pdfrwt beam="2">  1       -1 0.86573395E-01 0.70930684E+03</pdfrwt>
<totfact> 0.15520660E+01</totfact>
</mgrwt>
</event>
<event>
 4    1  0.1065596E-007  0.8772455E+03  0.7818608E-02  0.9563594E-01
          1   -1    0    0  501    0  0.00000000000E+00  0.00000000000E+00  0.29405543608E+04  0.29405543608E+04  0.50400000000E-02 0. -1.
         -1   -1    0    0    0  501 -0.00000000000E+00 -0.00000000000E+00 -0.27953814226E+03  0.27953814231E+03  0.50400000000E-02 0.  1.
    8880023    1    1    2    0    0 -0.13220836276E+03  0.56415455128E+03  0.24201150134E+04  0.25742020692E+04  0.65864270000E+03 0.  0.
    8880022    1    1    2    0    0  0.13220836276E+03 -0.56415455128E+03  0.24090120513E+03  0.64589043387E+03  0.15294330000E+03 0.  0.
<mgrwt>
<rscale>  0 0.79753359E+03</rscale>
<asrwt>0</asrwt>
<pdfrwt beam="1">  1        1 0.45239297E+00 0.87724547E+03</pdfrwt>
<pdfrwt beam="2">  1       -1 0.43005869E-01 0.87724547E+03</pdfrwt>
<totfact> 0.36780211E+00</totfact>
</mgrwt>
</event>
<event>
 4    1  0.1065596E-007  0.7703596E+03  0.7818608E-02  0.9778990E-01
         -1   -1    0    0    0  501 -0.00000000000E+00  0.00000000000E+00  0.13058608124E+04  0.13058608124E+04  0.50400000000E-02 0.  1.
          1   -1    0    0  501    0  0.00000000000E+00 -0.00000000000E+00 -0.10723768044E+04  0.10723768044E+04  0.50400000000E-02 0. -1.
    8880023    1    1    2    0    0  0.35901546216E+03  0.17536138340E+03 -0.88938234405E+03  0.11766286062E+04  0.65864270000E+03 0. -1.
    8880022    1    1    2    0    0 -0.35901546216E+03 -0.17536138340E+03  0.11228663520E+04  0.12016090106E+04  0.15294330000E+03 0.  0.
<mgrwt>
<rscale>  0 0.66502352E+03</rscale>
<asrwt>0</asrwt>
<pdfrwt beam="1">  1        1 0.16498105E+00 0.77035961E+03</pdfrwt>
<pdfrwt beam="2">  1       -1 0.20090166E+00 0.77035961E+03</pdfrwt>
<totfact> 0.20535309E+00</totfact>
</mgrwt>
</event>
<event>
 4    1  0.1065596E-007  0.1320332E+04  0.7818608E-02  0.9048198E-01
         -1   -1    0    0    0  501 -0.00000000000E+00  0.00000000000E+00  0.10291172665E+04  0.10291172665E+04  0.50400000000E-02 0.  1.
          1   -1    0    0  501    0  0.00000000000E+00 -0.00000000000E+00 -0.26036911645E+04  0.26036911645E+04  0.50400000000E-02 0. -1.
    8880023    1    1    2    0    0  0.10362189294E+04 -0.48550648639E+03 -0.20049989723E+04  0.24006868399E+04  0.65864270000E+03 0.  0.
    8880022    1    1    2    0    0 -0.10362189294E+04  0.48550648639E+03  0.43042507429E+03  0.12321215912E+04  0.15294330000E+03 0.  0.
<mgrwt>
<rscale>  0 0.12767631E+04</rscale>
<asrwt>0</asrwt>
<pdfrwt beam="1">  1        1 0.40056787E+00 0.13203319E+04</pdfrwt>
<pdfrwt beam="2">  1       -1 0.15832573E+00 0.13203319E+04</pdfrwt>
<totfact> 0.33513584E-01</totfact>
</mgrwt>
</event>
<event>
 4    1  0.1065596E-007  0.1101091E+04  0.7818608E-02  0.9259842E-01
          1   -1    0    0  501    0  0.00000000000E+00  0.00000000000E+00  0.34969815010E+04  0.34969815010E+04  0.50400000000E-02 0. -1.
         -1   -1    0    0    0  501 -0.00000000000E+00 -0.00000000000E+00 -0.38944949245E+03  0.38944949248E+03  0.50400000000E-02 0.  1.
    8880023    1    1    2    0    0  0.40139640120E+02  0.88146474168E+03  0.26732792556E+04  0.28911629954E+04  0.65864270000E+03 0. -1.
    8880022    1    1    2    0    0 -0.40139640120E+02 -0.88146474168E+03  0.43425275301E+03  0.99526799810E+03  0.15294330000E+03 0.  0.
<mgrwt>
<rscale>  0 0.10456541E+04</rscale>
<asrwt>0</asrwt>
<pdfrwt beam="1">  1        1 0.53799718E+00 0.11010910E+04</pdfrwt>
<pdfrwt beam="2">  1       -1 0.59915304E-01 0.11010910E+04</pdfrwt>
<totfact> 0.72583779E-01</totfact>
</mgrwt>
</event>
<event>
 4    1  0.1065596E-007  0.8397728E+03  0.7818608E-02  0.9630609E-01
          1   -1    0    0  501    0  0.00000000000E+00  0.00000000000E+00  0.16200053043E+04  0.16200053043E+04  0.50400000000E-02 0. -1.
         -1   -1    0    0    0  501 -0.00000000000E+00 -0.00000000000E+00 -0.55337595064E+03  0.55337595066E+03  0.50400000000E-02 0.  1.
    8880023    1    1    2    0    0 -0.29004106228E+03 -0.43276352522E+03  0.13276475014E+04  0.15709443595E+04  0.65864270000E+03 0.  0.
    8880022    1    1    2    0    0  0.29004106228E+03  0.43276352522E+03 -0.26101814770E+03  0.60243689546E+03  0.15294330000E+03 0.  0.
<mgrwt>
<rscale>  0 0.75302991E+03</rscale>
<asrwt>0</asrwt>
<pdfrwt beam="1">  1        1 0.24923158E+00 0.83977276E+03</pdfrwt>
<pdfrwt beam="2">  1       -1 0.85134764E-01 0.83977276E+03</pdfrwt>
<totfact> 0.75807083E+00</totfact>
</mgrwt>
</event>
<event>
 4    1  0.1065596E-007  0.9675666E+03  0.7818608E-02  0.9425278E-01
         -1   -1    0    0    0  501 -0.00000000000E+00  0.00000000000E+00  0.12204548623E+04  0.12204548623E+04  0.50400000000E-02 0.  1.
          1   -1    0    0  501    0  0.00000000000E+00 -0.00000000000E+00 -0.81918064016E+03  0.81918064017E+03  0.50400000000E-02 0. -1.
    8880023    1    1    2    0    0 -0.62425923249E+03 -0.33567148087E+03  0.76027741002E+03  0.12305311369E+04  0.65864270000E+03 0.  1.
    8880022    1    1    2    0    0  0.62425923249E+03  0.33567148087E+03 -0.35900318791E+03  0.80910436556E+03  0.15294330000E+03 0.  0.
<mgrwt>
<rscale>  0 0.90024305E+03</rscale>
<asrwt>0</asrwt>
<pdfrwt beam="1">  1        1 0.12602779E+00 0.96756661E+03</pdfrwt>
<pdfrwt beam="2">  1       -1 0.18776228E+00 0.96756661E+03</pdfrwt>
<totfact> 0.39271199E+00</totfact>
</mgrwt>
</event>
<event>
 4    1  0.1065596E-007  0.7275376E+03  0.7818608E-02  0.9897861E-01
         -1   -1    0    0    0  501 -0.00000000000E+00  0.00000000000E+00  0.17045679726E+03  0.17045679734E+03  0.50400000000E-02 0.  1.
          1   -1    0    0  501    0  0.00000000000E+00 -0.00000000000E+00 -0.37578066623E+04  0.37578066623E+04  0.50400000000E-02 0. -1.
    8880023    1    1    2    0    0  0.26793292424E+03  0.15398909700E+03 -0.34969118337E+04  0.35717927254E+04  0.65864270000E+03 0.  0.
    8880022    1    1    2    0    0 -0.26793292424E+03 -0.15398909700E+03 -0.90438031350E+02  0.35647073431E+03  0.15294330000E+03 0.  0.
<mgrwt>
<rscale>  0 0.60365083E+03</rscale>
<asrwt>0</asrwt>
<pdfrwt beam="1">  1        1 0.57812404E+00 0.72753756E+03</pdfrwt>
<pdfrwt beam="2">  1       -1 0.26224125E-01 0.72753756E+03</pdfrwt>
<totfact> 0.21867685E+00</totfact>
</mgrwt>
</event>
<event>
 4    1  0.1065596E-007  0.6714939E+03  0.7818608E-02  0.1014614E+00
         -1   -1    0    0    0  501 -0.00000000000E+00  0.00000000000E+00  0.47590052575E+03  0.47590052577E+03  0.50400000000E-02 0.  1.
          1   -1    0    0  501    0  0.00000000000E+00 -0.00000000000E+00 -0.20862686060E+04  0.20862686060E+04  0.50400000000E-02 0. -1.
    8880023    1    1    2    0    0  0.13063884241E+03  0.52342265047E+01 -0.20075790097E+04  0.21169028297E+04  0.65864270000E+03 0. -1.
    8880022    1    1    2    0    0 -0.13063884241E+03 -0.52342265047E+01  0.39721092941E+03  0.44526630204E+03  0.15294330000E+03 0.  0.
<mgrwt>
<rscale>  0 0.49681430E+03</rscale>
<asrwt>0</asrwt>
<pdfrwt beam="1">  1        1 0.32096439E+00 0.67149394E+03</pdfrwt>
<pdfrwt beam="2">  1       -1 0.73215467E-01 0.67149394E+03</pdfrwt>
<totfact> 0.52219719E+00</totfact>
</mgrwt>
</event>
<event>
 4    1  0.1065596E-007  0.8918417E+03  0.7818608E-02  0.9539257E-01
         -1   -1    0    0    0  501 -0.00000000000E+00  0.00000000000E+00  0.13508526048E+04  0.13508526048E+04  0.50400000000E-02 0.  1.
          1   -1    0    0  501    0  0.00000000000E+00 -0.00000000000E+00 -0.46035349507E+03  0.46035349510E+03  0.50400000000E-02 0. -1.
    8880023    1    1    2    0    0  0.17234620346E+03 -0.57607998221E+03  0.26547726520E+03  0.93051584852E+03  0.65864270000E+03 0.  0.
    8880022    1    1    2    0    0 -0.17234620346E+03  0.57607998221E+03  0.62502184453E+03  0.88069025139E+03  0.15294330000E+03 0.  0.
<mgrwt>
<rscale>  0 0.81450395E+03</rscale>
<asrwt>0</asrwt>
<pdfrwt beam="1">  1        1 0.70823614E-01 0.89184167E+03</pdfrwt>
<pdfrwt beam="2">  1       -1 0.20782348E+00 0.89184167E+03</pdfrwt>
<totfact> 0.67132325E+00</totfact>
</mgrwt>
</event>
<event>
 4    1  0.1065596E-007  0.7353790E+03  0.7818608E-02  0.9873618E-01
         -1   -1    0    0    0  501 -0.00000000000E+00  0.00000000000E+00  0.11325680908E+04  0.11325680908E+04  0.50400000000E-02 0.  1.
          1   -1    0    0  501    0  0.00000000000E+00 -0.00000000000E+00 -0.88373553464E+03  0.88373553465E+03  0.50400000000E-02 0. -1.
    8880023    1    1    2    0    0  0.32332832188E+03  0.49304191645E+02 -0.69125453112E+03  0.10092646532E+04  0.65864270000E+03 0. -1.
    8880022    1    1    2    0    0 -0.32332832188E+03 -0.49304191645E+02  0.94008708727E+03  0.10070389723E+04  0.15294330000E+03 0.  0.
<mgrwt>
<rscale>  0 0.61557084E+03</rscale>
<asrwt>0</asrwt>
<pdfrwt beam="1">  1        1 0.13595931E+00 0.73537903E+03</pdfrwt>
<pdfrwt beam="2">  1       -1 0.17424124E+00 0.73537903E+03</pdfrwt>
<totfact> 0.44682476E+00</totfact>
</mgrwt>
</event>
<event>
 4    1  0.1065596E-007  0.9015538E+03  0.7818608E-02  0.9523542E-01
         -1   -1    0    0    0  501 -0.00000000000E+00  0.00000000000E+00  0.66921557253E+03  0.66921557255E+03  0.50400000000E-02 0.  1.
          1   -1    0    0  501    0  0.00000000000E+00 -0.00000000000E+00 -0.50478204157E+04  0.50478204157E+04  0.50400000000E-02 0. -1.
    8880023    1    1    2    0    0 -0.38287492457E+03 -0.48207460143E+03 -0.48459702159E+04  0.49291202733E+04  0.65864270000E+03 0. -1.
    8880022    1    1    2    0    0  0.38287492457E+03  0.48207460143E+03  0.46736537273E+03  0.78791571494E+03  0.15294330000E+03 0.  0.
<mgrwt>
<rscale>  0 0.82570213E+03</rscale>
<asrwt>0</asrwt>
<pdfrwt beam="1">  1        1 0.77658773E+00 0.90155385E+03</pdfrwt>
<pdfrwt beam="2">  1       -1 0.10295625E+00 0.90155385E+03</pdfrwt>
<totfact> 0.75592586E-03</totfact>
</mgrwt>
</event>
<event>
 4    1  0.1065596E-007  0.8915100E+03  0.7818608E-02  0.9539800E-01
         -1   -1    0    0    0  501 -0.00000000000E+00  0.00000000000E+00  0.99548557655E+03  0.99548557657E+03  0.50400000000E-02 0.  1.
          1   -1    0    0  501    0  0.00000000000E+00 -0.00000000000E+00 -0.94256611237E+03  0.94256611238E+03  0.50400000000E-02 0. -1.
    8880023    1    1    2    0    0 -0.59897210817E+03  0.47035600426E+02 -0.57082897184E+03  0.10586008953E+04  0.65864270000E+03 0.  1.
    8880022    1    1    2    0    0  0.59897210817E+03 -0.47035600426E+02  0.62374843603E+03  0.87945079370E+03  0.15294330000E+03 0.  0.
<mgrwt>
<rscale>  0 0.81412030E+03</rscale>
<asrwt>0</asrwt>
<pdfrwt beam="1">  1        1 0.14501017E+00 0.89151003E+03</pdfrwt>
<pdfrwt beam="2">  1       -1 0.15315163E+00 0.89151003E+03</pdfrwt>
<totfact> 0.56268079E+00</totfact>
</mgrwt>
</event>
<event>
 4    1  0.1065596E-007  0.1894189E+04  0.7818608E-02  0.8672149E-01
          1   -1    0    0  501    0  0.00000000000E+00  0.00000000000E+00  0.30879810315E+04  0.30879810315E+04  0.50400000000E-02 0. -1.
         -1   -1    0    0    0  501 -0.00000000000E+00 -0.00000000000E+00 -0.11807931706E+04  0.11807931707E+04  0.50400000000E-02 0.  1.
    8880023    1    1    2    0    0 -0.15816625628E+04  0.80776481504E+03  0.15573621913E+04  0.24522087310E+04  0.65864270000E+03 0.  0.
    8880022    1    1    2    0    0  0.15816625628E+04 -0.80776481504E+03  0.34982566961E+03  0.18165654712E+04  0.15294330000E+03 0.  0.
<mgrwt>
<rscale>  0 0.18656435E+04</rscale>
<asrwt>0</asrwt>
<pdfrwt beam="1">  1        1 0.47507400E+00 0.18941887E+04</pdfrwt>
<pdfrwt beam="2">  1       -1 0.18166049E+00 0.18941887E+04</pdfrwt>
<totfact> 0.94584611E-02</totfact>
</mgrwt>
</event>
<event>
 4    1  0.1065596E-007  0.9809737E+03  0.7818608E-02  0.9406884E-01
         -1   -1    0    0    0  501 -0.00000000000E+00  0.00000000000E+00  0.47165330220E+03  0.47165330222E+03  0.50400000000E-02 0.  1.
          1   -1    0    0  501    0  0.00000000000E+00 -0.00000000000E+00 -0.39324549982E+04  0.39324549982E+04  0.50400000000E-02 0. -1.
    8880023    1    1    2    0    0  0.72653810957E+03 -0.25327324235E+02 -0.35245171742E+04  0.36584874765E+04  0.65864270000E+03 0.  0.
    8880022    1    1    2    0    0 -0.72653810957E+03  0.25327324235E+02  0.63715478149E+02  0.74562082400E+03  0.15294330000E+03 0.  0.
<mgrwt>
<rscale>  0 0.91511283E+03</rscale>
<asrwt>0</asrwt>
<pdfrwt beam="1">  1        1 0.60499305E+00 0.98097365E+03</pdfrwt>
<pdfrwt beam="2">  1       -1 0.72562049E-01 0.98097365E+03</pdfrwt>
<totfact> 0.22240761E-01</totfact>
</mgrwt>
</event>
<event>
 4    1  0.1065596E-007  0.1020774E+04  0.7818608E-02  0.9354870E-01
         -1   -1    0    0    0  501 -0.00000000000E+00  0.00000000000E+00  0.11508816707E+04  0.11508816707E+04  0.50400000000E-02 0.  1.
          1   -1    0    0  501    0  0.00000000000E+00 -0.00000000000E+00 -0.91970573320E+03  0.91970573322E+03  0.50400000000E-02 0. -1.
    8880023    1    1    2    0    0 -0.50538334343E+03  0.59393288937E+03  0.61112010466E+03  0.11897254261E+04  0.65864270000E+03 0.  0.
    8880022    1    1    2    0    0  0.50538334343E+03 -0.59393288937E+03 -0.37994416714E+03  0.88086197786E+03  0.15294330000E+03 0.  0.
<mgrwt>
<rscale>  0 0.95884615E+03</rscale>
<asrwt>0</asrwt>
<pdfrwt beam="1">  1        1 0.14149319E+00 0.10207736E+04</pdfrwt>
<pdfrwt beam="2">  1       -1 0.17705872E+00 0.10207736E+04</pdfrwt>
<totfact> 0.38342817E+00</totfact>
</mgrwt>
</event>
<event>
 4    1  0.1065596E-007  0.8437517E+03  0.7818608E-02  0.9623146E-01
         -1   -1    0    0    0  501 -0.00000000000E+00  0.00000000000E+00  0.17483974102E+04  0.17483974102E+04  0.50400000000E-02 0.  1.
          1   -1    0    0  501    0  0.00000000000E+00 -0.00000000000E+00 -0.51628185718E+03  0.51628185721E+03  0.50400000000E-02 0. -1.
    8880023    1    1    2    0    0 -0.98352904081E+02  0.51810568158E+03 -0.74840270907E+02  0.84706437975E+03  0.65864270000E+03 0. -1.
    8880022    1    1    2    0    0  0.98352904081E+02 -0.51810568158E+03  0.13069558239E+04  0.14176148876E+04  0.15294330000E+03 0.  0.
<mgrwt>
<rscale>  0 0.75782974E+03</rscale>
<asrwt>0</asrwt>
<pdfrwt beam="1">  1        1 0.79427978E-01 0.84375174E+03</pdfrwt>
<pdfrwt beam="2">  1       -1 0.26898422E+00 0.84375174E+03</pdfrwt>
<totfact> 0.22944818E+00</totfact>
</mgrwt>
</event>
<event>
 4    1  0.1065596E-007  0.1021956E+04  0.7818608E-02  0.9353380E-01
          1   -1    0    0  501    0  0.00000000000E+00  0.00000000000E+00  0.18884839943E+04  0.18884839943E+04  0.50400000000E-02 0. -1.
         -1   -1    0    0    0  501 -0.00000000000E+00 -0.00000000000E+00 -0.51353405485E+03  0.51353405487E+03  0.50400000000E-02 0.  1.
    8880023    1    1    2    0    0  0.66874160128E+03  0.40418763244E+03  0.12189225416E+04  0.15906493454E+04  0.65864270000E+03 0.  0.
    8880022    1    1    2    0    0 -0.66874160128E+03 -0.40418763244E+03  0.15602739786E+03  0.81136870374E+03  0.15294330000E+03 0.  0.
<mgrwt>
<rscale>  0 0.96013653E+03</rscale>
<asrwt>0</asrwt>
<pdfrwt beam="1">  1        1 0.29053600E+00 0.10219556E+04</pdfrwt>
<pdfrwt beam="2">  1       -1 0.79005239E-01 0.10219556E+04</pdfrwt>
<totfact> 0.57239780E+00</totfact>
</mgrwt>
</event>
<event>
 4    1  0.1065596E-007  0.1197816E+04  0.7818608E-02  0.9159248E-01
          1   -1    0    0  501    0  0.00000000000E+00  0.00000000000E+00  0.99143605076E+03  0.99143605077E+03  0.50400000000E-02 0. -1.
         -1   -1    0    0    0  501 -0.00000000000E+00 -0.00000000000E+00 -0.14913355609E+04  0.14913355609E+04  0.50400000000E-02 0.  1.
    8880023    1    1    2    0    0  0.38494471034E+03  0.92345617819E+03  0.24937884038E+03  0.12235006152E+04  0.65864270000E+03 0.  0.
    8880022    1    1    2    0    0 -0.38494471034E+03 -0.92345617819E+03 -0.74927835053E+03  0.12592709965E+04  0.15294330000E+03 0.  0.
<mgrwt>
<rscale>  0 0.11484140E+04</rscale>
<asrwt>0</asrwt>
<pdfrwt beam="1">  1        1 0.15252862E+00 0.11978163E+04</pdfrwt>
<pdfrwt beam="2">  1       -1 0.22943624E+00 0.11978163E+04</pdfrwt>
<totfact> 0.14364340E+00</totfact>
</mgrwt>
</event>
<event>
 4    1  0.1065596E-007  0.1167090E+04  0.7818608E-02  0.9189796E-01
          1   -1    0    0  501    0  0.00000000000E+00  0.00000000000E+00  0.18674578660E+04  0.18674578660E+04  0.50400000000E-02 0. -1.
         -1   -1    0    0    0  501 -0.00000000000E+00 -0.00000000000E+00 -0.76363403568E+03  0.76363403570E+03  0.50400000000E-02 0.  1.
    8880023    1    1    2    0    0 -0.56394427836E+03 -0.78118903784E+03  0.12297370536E+02  0.11671550426E+04  0.65864270000E+03 0.  1.
    8880022    1    1    2    0    0  0.56394427836E+03  0.78118903784E+03  0.10915264598E+04  0.14639368591E+04  0.15294330000E+03 0.  0.
<mgrwt>
<rscale>  0 0.11159372E+04</rscale>
<asrwt>0</asrwt>
<pdfrwt beam="1">  1        1 0.28730121E+00 0.11670903E+04</pdfrwt>
<pdfrwt beam="2">  1       -1 0.11748216E+00 0.11670903E+04</pdfrwt>
<totfact> 0.23610613E+00</totfact>
</mgrwt>
</event>
<event>
 4    1  0.1065596E-007  0.8220327E+03  0.7818608E-02  0.9665038E-01
          1   -1    0    0  501    0  0.00000000000E+00  0.00000000000E+00  0.29208944461E+04  0.29208944461E+04  0.50400000000E-02 0. -1.
         -1   -1    0    0    0  501 -0.00000000000E+00 -0.00000000000E+00 -0.52858620306E+03  0.52858620309E+03  0.50400000000E-02 0.  1.
    8880023    1    1    2    0    0  0.68717719177E+02 -0.48703732414E+03  0.27183157995E+04  0.28398905739E+04  0.65864270000E+03 0. -1.
    8880022    1    1    2    0    0 -0.68717719177E+02  0.48703732414E+03 -0.32600755640E+03  0.60959007528E+03  0.15294330000E+03 0.  1.
<mgrwt>
<rscale>  0 0.73137123E+03</rscale>
<asrwt>0</asrwt>
<pdfrwt beam="1">  1        1 0.44936837E+00 0.82203266E+03</pdfrwt>
<pdfrwt beam="2">  1       -1 0.81320956E-01 0.82203266E+03</pdfrwt>
<totfact> 0.10895697E+00</totfact>
</mgrwt>
</event>
<event>
 4    1  0.1065596E-007  0.6928529E+03  0.7818608E-02  0.1002825E+00
         -1   -1    0    0    0  501 -0.00000000000E+00  0.00000000000E+00  0.10025705823E+04  0.10025705823E+04  0.50400000000E-02 0.  1.
          1   -1    0    0  501    0  0.00000000000E+00 -0.00000000000E+00 -0.39945584994E+03  0.39945584998E+03  0.50400000000E-02 0. -1.
    8880023    1    1    2    0    0  0.16517490822E+03  0.13766717030E+03 -0.52962648867E+02  0.69487426814E+03  0.65864270000E+03 0. -1.
    8880022    1    1    2    0    0 -0.16517490822E+03 -0.13766717030E+03  0.65607738119E+03  0.70715216411E+03  0.15294330000E+03 0.  0.
<mgrwt>
<rscale>  0 0.54428672E+03</rscale>
<asrwt>0</asrwt>
<pdfrwt beam="1">  1        1 0.61454746E-01 0.69285295E+03</pdfrwt>
<pdfrwt beam="2">  1       -1 0.15424163E+00 0.69285295E+03</pdfrwt>
<totfact> 0.20067171E+01</totfact>
</mgrwt>
</event>
<event>
 4    1  0.1065596E-007  0.8501029E+03  0.7818608E-02  0.9611417E-01
         -1   -1    0    0    0  501 -0.00000000000E+00  0.00000000000E+00  0.42889194671E+03  0.42889194674E+03  0.50400000000E-02 0.  1.
          1   -1    0    0  501    0  0.00000000000E+00 -0.00000000000E+00 -0.12872702516E+04  0.12872702516E+04  0.50400000000E-02 0. -1.
    8880023    1    1    2    0    0 -0.23086709357E+03 -0.48535044877E+03 -0.77657101272E+03  0.11514067123E+04  0.65864270000E+03 0.  0.
    8880022    1    1    2    0    0  0.23086709357E+03  0.48535044877E+03 -0.81807292196E+02  0.56475548611E+03  0.15294330000E+03 0.  0.
<mgrwt>
<rscale>  0 0.76545121E+03</rscale>
<asrwt>0</asrwt>
<pdfrwt beam="1">  1        1 0.19804158E+00 0.85010286E+03</pdfrwt>
<pdfrwt beam="2">  1       -1 0.65983377E-01 0.85010286E+03</pdfrwt>
<totfact> 0.21923190E+01</totfact>
</mgrwt>
</event>
<event>
 4    1  0.1065596E-007  0.6823474E+03  0.7818608E-02  0.1008026E+00
         -1   -1    0    0    0  501 -0.00000000000E+00  0.00000000000E+00  0.16898695089E+03  0.16898695096E+03  0.50400000000E-02 0.  1.
          1   -1    0    0  501    0  0.00000000000E+00 -0.00000000000E+00 -0.15282610773E+04  0.15282610773E+04  0.50400000000E-02 0. -1.
    8880023    1    1    2    0    0 -0.12749498968E+03 -0.12463065128E+03 -0.12778746822E+04  0.14486413225E+04  0.65864270000E+03 0. -1.
    8880022    1    1    2    0    0  0.12749498968E+03  0.12463065128E+03 -0.81399444281E+02  0.24860670582E+03  0.15294330000E+03 0.  0.
<mgrwt>
<rscale>  0 0.52266847E+03</rscale>
<asrwt>0</asrwt>
<pdfrwt beam="1">  1        1 0.23511708E+00 0.68234740E+03</pdfrwt>
<pdfrwt beam="2">  1       -1 0.25997994E-01 0.68234740E+03</pdfrwt>
<totfact> 0.84418375E+01</totfact>
</mgrwt>
</event>
<event>
 4    1  0.1065596E-007  0.8021926E+03  0.7818608E-02  0.9706075E-01
          1   -1    0    0  501    0  0.00000000000E+00  0.00000000000E+00  0.27572888990E+04  0.27572888990E+04  0.50400000000E-02 0. -1.
         -1   -1    0    0    0  501 -0.00000000000E+00 -0.00000000000E+00 -0.45319962611E+03  0.45319962613E+03  0.50400000000E-02 0.  1.
    8880023    1    1    2    0    0 -0.23257596138E+03 -0.39447573717E+03  0.25467752403E+04  0.26701267790E+04  0.65864270000E+03 0. -1.
    8880022    1    1    2    0    0  0.23257596138E+03  0.39447573717E+03 -0.24268596733E+03  0.54036174622E+03  0.15294330000E+03 0.  0.
<mgrwt>
<rscale>  0 0.70656226E+03</rscale>
<asrwt>0</asrwt>
<pdfrwt beam="1">  1        1 0.42419830E+00 0.80219255E+03</pdfrwt>
<pdfrwt beam="2">  1       -1 0.69723019E-01 0.80219255E+03</pdfrwt>
<totfact> 0.19679982E+00</totfact>
</mgrwt>
</event>
<event>
 4    1  0.1065596E-007  0.8558859E+03  0.7818608E-02  0.9600924E-01
         -1   -1    0    0    0  501 -0.00000000000E+00  0.00000000000E+00  0.83160714750E+03  0.83160714752E+03  0.50400000000E-02 0.  1.
          1   -1    0    0  501    0  0.00000000000E+00 -0.00000000000E+00 -0.12679400229E+04  0.12679400229E+04  0.50400000000E-02 0. -1.
    8880023    1    1    2    0    0  0.44165355599E+03 -0.32198223569E+03 -0.98861184694E+03  0.13076291576E+04  0.65864270000E+03 0.  0.
    8880022    1    1    2    0    0 -0.44165355599E+03  0.32198223569E+03  0.55227897155E+03  0.79191801283E+03  0.15294330000E+03 0.  0.
<mgrwt>
<rscale>  0 0.77235054E+03</rscale>
<asrwt>0</asrwt>
<pdfrwt beam="1">  1        1 0.19506770E+00 0.85588587E+03</pdfrwt>
<pdfrwt beam="2">  1       -1 0.12793956E+00 0.85588587E+03</pdfrwt>
<totfact> 0.51488713E+00</totfact>
</mgrwt>
</event>
<event>
 4    1  0.1065596E-007  0.7778490E+03  0.7818608E-02  0.9760914E-01
         -1   -1    0    0    0  501 -0.00000000000E+00  0.00000000000E+00  0.64304063763E+03  0.64304063765E+03  0.50400000000E-02 0.  1.
          1   -1    0    0  501    0  0.00000000000E+00 -0.00000000000E+00 -0.18956404900E+04  0.18956404900E+04  0.50400000000E-02 0. -1.
    8880023    1    1    2    0    0 -0.32519122098E+03 -0.25590935949E+03 -0.17250277067E+04  0.18922921882E+04  0.65864270000E+03 0. -1.
    8880022    1    1    2    0    0  0.32519122098E+03  0.25590935949E+03  0.47242785431E+03  0.64638893943E+03  0.15294330000E+03 0.  0.
<mgrwt>
<rscale>  0 0.67502969E+03</rscale>
<asrwt>0</asrwt>
<pdfrwt beam="1">  1        1 0.29163700E+00 0.77784904E+03</pdfrwt>
<pdfrwt beam="2">  1       -1 0.98929330E-01 0.77784904E+03</pdfrwt>
<totfact> 0.35795478E+00</totfact>
</mgrwt>
</event>
<event>
 4    1  0.1065596E-007  0.6637441E+03  0.7818608E-02  0.1020611E+00
          1   -1    0    0  501    0  0.00000000000E+00  0.00000000000E+00  0.16975340951E+04  0.16975340951E+04  0.50400000000E-02 0. -1.
         -1   -1    0    0    0  501 -0.00000000000E+00 -0.00000000000E+00 -0.38455377781E+03  0.38455377784E+03  0.50400000000E-02 0.  1.
    8880023    1    1    2    0    0 -0.52458904125E+02 -0.63198822939E+02  0.16080991426E+04  0.17396951131E+04  0.65864270000E+03 0. -1.
    8880022    1    1    2    0    0  0.52458904125E+02  0.63198822939E+02 -0.29511882538E+03  0.34239275978E+03  0.15294330000E+03 0.  0.
<mgrwt>
<rscale>  0 0.47466721E+03</rscale>
<asrwt>0</asrwt>
<pdfrwt beam="1">  1        1 0.26115910E+00 0.66374410E+03</pdfrwt>
<pdfrwt beam="2">  1       -1 0.59162118E-01 0.66374410E+03</pdfrwt>
<totfact> 0.14590560E+01</totfact>
</mgrwt>
</event>
<event>
 4    1  0.1065596E-007  0.9690106E+03  0.7818608E-02  0.9423274E-01
          1   -1    0    0  501    0  0.00000000000E+00  0.00000000000E+00  0.15801971425E+04  0.15801971425E+04  0.50400000000E-02 0. -1.
         -1   -1    0    0    0  501 -0.00000000000E+00 -0.00000000000E+00 -0.45680647493E+03  0.45680647495E+03  0.50400000000E-02 0.  1.
    8880023    1    1    2    0    0  0.69565893602E+03 -0.14570541719E+03  0.70332151534E+03  0.11973482301E+04  0.65864270000E+03 0.  0.
    8880022    1    1    2    0    0 -0.69565893602E+03  0.14570541719E+03  0.42006915219E+03  0.83965538734E+03  0.15294330000E+03 0.  1.
<mgrwt>
<rscale>  0 0.90184835E+03</rscale>
<asrwt>0</asrwt>
<pdfrwt beam="1">  1        1 0.24310725E+00 0.96901064E+03</pdfrwt>
<pdfrwt beam="2">  1       -1 0.70277921E-01 0.96901064E+03</pdfrwt>
<totfact> 0.11901778E+01</totfact>
</mgrwt>
</event>
<event>
 4    1  0.1065596E-007  0.1175191E+04  0.7818608E-02  0.9181624E-01
         -1   -1    0    0    0  501 -0.00000000000E+00  0.00000000000E+00  0.15063144452E+04  0.15063144452E+04  0.50400000000E-02 0.  1.
          1   -1    0    0  501    0  0.00000000000E+00 -0.00000000000E+00 -0.97697631541E+03  0.97697631542E+03  0.50400000000E-02 0. -1.
    8880023    1    1    2    0    0 -0.96469052995E+03  0.12897666886E+03 -0.28020958779E+03  0.12081350997E+04  0.65864270000E+03 0.  0.
    8880022    1    1    2    0    0  0.96469052995E+03 -0.12897666886E+03  0.80954771760E+03  0.12751556610E+04  0.15294330000E+03 0.  0.
<mgrwt>
<rscale>  0 0.11245126E+04</rscale>
<asrwt>0</asrwt>
<pdfrwt beam="1">  1        1 0.15030405E+00 0.11751906E+04</pdfrwt>
<pdfrwt beam="2">  1       -1 0.23174068E+00 0.11751906E+04</pdfrwt>
<totfact> 0.14275770E+00</totfact>
</mgrwt>
</event>
<event>
 4    1  0.1065596E-007  0.1340914E+04  0.7818608E-02  0.9031009E-01
          1   -1    0    0  501    0  0.00000000000E+00  0.00000000000E+00  0.13916934880E+04  0.13916934880E+04  0.50400000000E-02 0. -1.
         -1   -1    0    0    0  501 -0.00000000000E+00 -0.00000000000E+00 -0.12795575968E+04  0.12795575968E+04  0.50400000000E-02 0.  1.
    8880023    1    1    2    0    0  0.10519201857E+04 -0.50764615608E+03 -0.38134245188E+03  0.13940849934E+04  0.65864270000E+03 0.  0.
    8880022    1    1    2    0    0 -0.10519201857E+04  0.50764615608E+03  0.49347834312E+03  0.12771660914E+04  0.15294330000E+03 0.  0.
<mgrwt>
<rscale>  0 0.12981804E+04</rscale>
<asrwt>0</asrwt>
<pdfrwt beam="1">  1        1 0.21410669E+00 0.13409142E+04</pdfrwt>
<pdfrwt beam="2">  1       -1 0.19685502E+00 0.13409142E+04</pdfrwt>
<totfact> 0.11882530E+00</totfact>
</mgrwt>
</event>
<event>
 4    1  0.1065596E-007  0.8108709E+03  0.7818608E-02  0.9687766E-01
          1   -1    0    0  501    0  0.00000000000E+00  0.00000000000E+00  0.87017212683E+03  0.87017212685E+03  0.50400000000E-02 0. -1.
         -1   -1    0    0    0  501 -0.00000000000E+00 -0.00000000000E+00 -0.11742452183E+04  0.11742452183E+04  0.50400000000E-02 0.  1.
    8880023    1    1    2    0    0  0.36559406902E+03  0.30007064445E+03  0.60270463068E+03  0.10103289034E+04  0.65864270000E+03 0. -1.
    8880022    1    1    2    0    0 -0.36559406902E+03 -0.30007064445E+03 -0.90677772216E+03  0.10340884418E+04  0.15294330000E+03 0.  0.
<mgrwt>
<rscale>  0 0.71749910E+03</rscale>
<asrwt>0</asrwt>
<pdfrwt beam="1">  1        1 0.13387264E+00 0.81087090E+03</pdfrwt>
<pdfrwt beam="2">  1       -1 0.18065311E+00 0.81087090E+03</pdfrwt>
<totfact> 0.40766339E+00</totfact>
</mgrwt>
</event>
<event>
 4    1  0.1065596E-007  0.2082211E+04  0.7818608E-02  0.8580657E-01
          1   -1    0    0  501    0  0.00000000000E+00  0.00000000000E+00  0.22752842054E+04  0.22752842054E+04  0.50400000000E-02 0. -1.
         -1   -1    0    0    0  501 -0.00000000000E+00 -0.00000000000E+00 -0.23548342631E+04  0.23548342631E+04  0.50400000000E-02 0.  1.
    8880023    1    1    2    0    0 -0.36348428142E+03 -0.19415641751E+04 -0.11495236187E+04  0.23784463469E+04  0.65864270000E+03 0.  0.
    8880022    1    1    2    0    0  0.36348428142E+03  0.19415641751E+04  0.10699735610E+04  0.22516721216E+04  0.15294330000E+03 0.  0.
<mgrwt>
<rscale>  0 0.20564874E+04</rscale>
<asrwt>0</asrwt>
<pdfrwt beam="1">  1        1 0.35004373E+00 0.20822110E+04</pdfrwt>
<pdfrwt beam="2">  1       -1 0.36228219E+00 0.20822110E+04</pdfrwt>
<totfact> 0.21889246E-02</totfact>
</mgrwt>
</event>
<event>
 4    1  0.5956409E-007  0.1280490E+04  0.7818608E-02  0.9082594E-01
          1   -1    0    0  501    0  0.00000000000E+00  0.00000000000E+00  0.25921329562E+04  0.25921329562E+04  0.50400000000E-02 0. -1.
         -1   -1    0    0    0  501 -0.00000000000E+00 -0.00000000000E+00 -0.25753369149E+04  0.25753369149E+04  0.50400000000E-02 0.  1.
    8880023    1    1    2    0    0 -0.99644772351E+03 -0.46145063292E+03  0.22982437705E+04  0.26308894670E+04  0.65864270000E+03 0.  0.
    8880022    1    1    2    0    0  0.99644772351E+03  0.46145063292E+03 -0.22814477292E+04  0.25365804041E+04  0.15294330000E+03 0.  0.
<mgrwt>
<rscale>  0 0.12351981E+04</rscale>
<asrwt>0</asrwt>
<pdfrwt beam="1">  1        1 0.39878968E+00 0.12804901E+04</pdfrwt>
<pdfrwt beam="2">  1       -1 0.39620568E+00 0.12804901E+04</pdfrwt>
<totfact> 0.87109252E-03</totfact>
</mgrwt>
</event>
<event>
 4    1  0.1065596E-007  0.7851941E+03  0.7818608E-02  0.9743774E-01
         -1   -1    0    0    0  501 -0.00000000000E+00  0.00000000000E+00  0.32636315005E+03  0.32636315009E+03  0.50400000000E-02 0.  1.
          1   -1    0    0  501    0  0.00000000000E+00 -0.00000000000E+00 -0.12300661808E+04  0.12300661808E+04  0.50400000000E-02 0. -1.
    8880023    1    1    2    0    0  0.15577398969E+02 -0.42717318789E+03 -0.72440055072E+03  0.10683098577E+04  0.65864270000E+03 0.  0.
    8880022    1    1    2    0    0 -0.15577398969E+02  0.42717318789E+03 -0.17930248005E+03  0.48811947326E+03  0.15294330000E+03 0.  0.
<mgrwt>
<rscale>  0 0.68469237E+03</rscale>
<asrwt>0</asrwt>
<pdfrwt beam="1">  1        1 0.18924095E+00 0.78519411E+03</pdfrwt>
<pdfrwt beam="2">  1       -1 0.50209716E-01 0.78519411E+03</pdfrwt>
<totfact> 0.41394843E+01</totfact>
</mgrwt>
</event>
<event>
 4    1  0.1065596E-007  0.1108851E+04  0.7818608E-02  0.9251265E-01
          1   -1    0    0  501    0  0.00000000000E+00  0.00000000000E+00  0.30103216787E+04  0.30103216788E+04  0.50400000000E-02 0. -1.
         -1   -1    0    0    0  501 -0.00000000000E+00 -0.00000000000E+00 -0.64560835890E+03  0.64560835892E+03  0.50400000000E-02 0.  1.
    8880023    1    1    2    0    0 -0.84605591032E+03  0.28271840518E+03  0.25055759245E+04  0.27399746750E+04  0.65864270000E+03 0.  0.
    8880022    1    1    2    0    0  0.84605591032E+03 -0.28271840518E+03 -0.14086260464E+03  0.91595536268E+03  0.15294330000E+03 0.  0.
<mgrwt>
<rscale>  0 0.10539600E+04</rscale>
<asrwt>0</asrwt>
<pdfrwt beam="1">  1        1 0.46312641E+00 0.11088510E+04</pdfrwt>
<pdfrwt beam="2">  1       -1 0.99324364E-01 0.11088510E+04</pdfrwt>
<totfact> 0.57433605E-01</totfact>
</mgrwt>
</event>
<event>
 4    1  0.1065596E-007  0.6788116E+03  0.7818608E-02  0.1010004E+00
         -1   -1    0    0    0  501 -0.00000000000E+00  0.00000000000E+00  0.42122006897E+03  0.42122006900E+03  0.50400000000E-02 0.  1.
          1   -1    0    0  501    0  0.00000000000E+00 -0.00000000000E+00 -0.75619024173E+03  0.75619024175E+03  0.50400000000E-02 0. -1.
    8880023    1    1    2    0    0  0.12357887355E+03  0.10818140424E+03 -0.54462778346E+03  0.87028994191E+03  0.65864270000E+03 0. -1.
    8880022    1    1    2    0    0 -0.12357887355E+03 -0.10818140424E+03  0.20965761070E+03  0.30712036883E+03  0.15294330000E+03 0.  0.
<mgrwt>
<rscale>  0 0.51473034E+03</rscale>
<asrwt>0</asrwt>
<pdfrwt beam="1">  1        1 0.11633696E+00 0.67881158E+03</pdfrwt>
<pdfrwt beam="2">  1       -1 0.64803087E-01 0.67881158E+03</pdfrwt>
<totfact> 0.60032182E+01</totfact>
</mgrwt>
</event>
<event>
 4    1  0.1065596E-007  0.8772847E+03  0.7818608E-02  0.9563527E-01
         -1   -1    0    0    0  501 -0.00000000000E+00  0.00000000000E+00  0.99895551103E+03  0.99895551104E+03  0.50400000000E-02 0.  1.
          1   -1    0    0  501    0  0.00000000000E+00 -0.00000000000E+00 -0.13500543401E+04  0.13500543401E+04  0.50400000000E-02 0. -1.
    8880023    1    1    2    0    0 -0.53879053488E+03  0.21336105581E+03 -0.10889772965E+04  0.13983919119E+04  0.65864270000E+03 0.  0.
    8880022    1    1    2    0    0  0.53879053488E+03 -0.21336105581E+03  0.73787846748E+03  0.95061793924E+03  0.15294330000E+03 0.  0.
<mgrwt>
<rscale>  0 0.79757941E+03</rscale>
<asrwt>0</asrwt>
<pdfrwt beam="1">  1        1 0.20770067E+00 0.87728467E+03</pdfrwt>
<pdfrwt beam="2">  1       -1 0.15368546E+00 0.87728467E+03</pdfrwt>
<totfact> 0.27811702E+00</totfact>
</mgrwt>
</event>
<event>
 4    1  0.1065596E-007  0.6648659E+03  0.7818608E-02  0.1019646E+00
         -1   -1    0    0    0  501 -0.00000000000E+00  0.00000000000E+00  0.12909922283E+04  0.12909922284E+04  0.50400000000E-02 0.  1.
          1   -1    0    0  501    0  0.00000000000E+00 -0.00000000000E+00 -0.41772128528E+03  0.41772128531E+03  0.50400000000E-02 0. -1.
    8880023    1    1    2    0    0  0.72856325671E+02 -0.54114885570E+02 -0.14042655130E+03  0.67953387524E+03  0.65864270000E+03 0. -1.
    8880022    1    1    2    0    0 -0.72856325671E+02  0.54114885570E+02  0.10136974944E+04  0.10291796384E+04  0.15294330000E+03 0.  0.
<mgrwt>
<rscale>  0 0.47814511E+03</rscale>
<asrwt>0</asrwt>
<pdfrwt beam="1">  1        1 0.64264814E-01 0.66486590E+03</pdfrwt>
<pdfrwt beam="2">  1       -1 0.19861419E+00 0.66486590E+03</pdfrwt>
<totfact> 0.90930887E+00</totfact>
</mgrwt>
</event>
<event>
 4    1  0.1065596E-007  0.8337156E+03  0.7818608E-02  0.9642146E-01
          1   -1    0    0  501    0  0.00000000000E+00  0.00000000000E+00  0.50668775537E+03  0.50668775540E+03  0.50400000000E-02 0. -1.
         -1   -1    0    0    0  501 -0.00000000000E+00 -0.00000000000E+00 -0.11918504232E+04  0.11918504232E+04  0.50400000000E-02 0.  1.
    8880023    1    1    2    0    0  0.56096964994E+02 -0.50805965750E+03 -0.45500836486E+01  0.83372800995E+03  0.65864270000E+03 0.  0.
    8880022    1    1    2    0    0 -0.56096964994E+02  0.50805965750E+03 -0.68061258420E+03  0.86481016868E+03  0.15294330000E+03 0.  0.
<mgrwt>
<rscale>  0 0.74568404E+03</rscale>
<asrwt>0</asrwt>
<pdfrwt beam="1">  1        1 0.77951963E-01 0.83371559E+03</pdfrwt>
<pdfrwt beam="2">  1       -1 0.18336160E+00 0.83371559E+03</pdfrwt>
<totfact> 0.87496562E+00</totfact>
</mgrwt>
</event>
<event>
 4    1  0.1065596E-007  0.1055179E+04  0.7818608E-02  0.9312682E-01
          1   -1    0    0  501    0  0.00000000000E+00  0.00000000000E+00  0.39988440386E+04  0.39988440386E+04  0.50400000000E-02 0. -1.
         -1   -1    0    0    0  501 -0.00000000000E+00 -0.00000000000E+00 -0.32846172608E+03  0.32846172612E+03  0.50400000000E-02 0.  1.
    8880023    1    1    2    0    0  0.78375500273E+03 -0.25557809740E+03  0.31922340812E+04  0.33621065872E+04  0.65864270000E+03 0. -1.
    8880022    1    1    2    0    0 -0.78375500273E+03  0.25557809740E+03  0.47814823132E+03  0.96519917753E+03  0.15294330000E+03 0.  0.
<mgrwt>
<rscale>  0 0.99623707E+03</rscale>
<asrwt>0</asrwt>
<pdfrwt beam="1">  1        1 0.61520678E+00 0.10551788E+04</pdfrwt>
<pdfrwt beam="2">  1       -1 0.50532573E-01 0.10551788E+04</pdfrwt>
<totfact> 0.39483872E-01</totfact>
</mgrwt>
</event>
<event>
 4    1  0.1065596E-007  0.1685047E+04  0.7818608E-02  0.8788940E-01
         -1   -1    0    0    0  501 -0.00000000000E+00  0.00000000000E+00  0.14705708064E+04  0.14705708064E+04  0.50400000000E-02 0.  1.
          1   -1    0    0  501    0  0.00000000000E+00 -0.00000000000E+00 -0.24807721914E+04  0.24807721914E+04  0.50400000000E-02 0. -1.
    8880023    1    1    2    0    0 -0.10966708999E+04 -0.10967618893E+04 -0.15623669503E+04  0.22979065251E+04  0.65864270000E+03 0.  0.
    8880022    1    1    2    0    0  0.10966708999E+04  0.10967618893E+04  0.55216556527E+03  0.16534364726E+04  0.15294330000E+03 0.  0.
<mgrwt>
<rscale>  0 0.16524819E+04</rscale>
<asrwt>0</asrwt>
<pdfrwt beam="1">  1        1 0.38165726E+00 0.16850472E+04</pdfrwt>
<pdfrwt beam="2">  1       -1 0.22624166E+00 0.16850472E+04</pdfrwt>
<totfact> 0.12898919E-01</totfact>
</mgrwt>
</event>
<event>
 4    1  0.1065596E-007  0.9803652E+03  0.7818608E-02  0.9407709E-01
         -1   -1    0    0    0  501 -0.00000000000E+00  0.00000000000E+00  0.22709377960E+04  0.22709377960E+04  0.50400000000E-02 0.  1.
          1   -1    0    0  501    0  0.00000000000E+00 -0.00000000000E+00 -0.50029724297E+03  0.50029724300E+03  0.50400000000E-02 0. -1.
    8880023    1    1    2    0    0 -0.44154890817E+03  0.57648964398E+03  0.15397155317E+03  0.99238258418E+03  0.65864270000E+03 0.  0.
    8880022    1    1    2    0    0  0.44154890817E+03 -0.57648964398E+03  0.16166689999E+04  0.17788524548E+04  0.15294330000E+03 0.  0.
<mgrwt>
<rscale>  0 0.91443965E+03</rscale>
<asrwt>0</asrwt>
<pdfrwt beam="1">  1        1 0.76968809E-01 0.98036521E+03</pdfrwt>
<pdfrwt beam="2">  1       -1 0.34937503E+00 0.98036521E+03</pdfrwt>
<totfact> 0.71120674E-01</totfact>
</mgrwt>
</event>
<event>
 4    1  0.1065596E-007  0.1033488E+04  0.7818608E-02  0.9338999E-01
          1   -1    0    0  501    0  0.00000000000E+00  0.00000000000E+00  0.20865374194E+04  0.20865374194E+04  0.50400000000E-02 0. -1.
         -1   -1    0    0    0  501 -0.00000000000E+00 -0.00000000000E+00 -0.15445510807E+04  0.15445510807E+04  0.50400000000E-02 0.  1.
    8880023    1    1    2    0    0  0.33755171716E+03 -0.72135062537E+03  0.18342882406E+04  0.21054005421E+04  0.65864270000E+03 0.  0.
    8880022    1    1    2    0    0 -0.33755171716E+03  0.72135062537E+03 -0.12923019020E+04  0.15256879581E+04  0.15294330000E+03 0.  1.
<mgrwt>
<rscale>  0 0.97270460E+03</rscale>
<asrwt>0</asrwt>
<pdfrwt beam="1">  1        1 0.32100575E+00 0.10334883E+04</pdfrwt>
<pdfrwt beam="2">  1       -1 0.23762324E+00 0.10334883E+04</pdfrwt>
<totfact> 0.22103618E-01</totfact>
</mgrwt>
</event>
<event>
 4    1  0.1065596E-007  0.7069244E+03  0.7818608E-02  0.9969604E-01
          1   -1    0    0  501    0  0.00000000000E+00  0.00000000000E+00  0.79810304718E+03  0.79810304720E+03  0.50400000000E-02 0. -1.
         -1   -1    0    0    0  501 -0.00000000000E+00 -0.00000000000E+00 -0.16226192238E+04  0.16226192238E+04  0.50400000000E-02 0.  1.
    8880023    1    1    2    0    0 -0.28847123104E+02  0.25514641225E+03  0.62324682461E+03  0.94243230995E+03  0.65864270000E+03 0. -1.
    8880022    1    1    2    0    0  0.28847123104E+02 -0.25514641225E+03 -0.14477630013E+04  0.14782899611E+04  0.15294330000E+03 0.  0.
<mgrwt>
<rscale>  0 0.57003357E+03</rscale>
<asrwt>0</asrwt>
<pdfrwt beam="1">  1        1 0.12278508E+00 0.70692436E+03</pdfrwt>
<pdfrwt beam="2">  1       -1 0.24963373E+00 0.70692436E+03</pdfrwt>
<totfact> 0.16433286E+00</totfact>
</mgrwt>
</event>
<event>
 4    1  0.1065596E-007  0.9117551E+03  0.7818608E-02  0.9507418E-01
         -1   -1    0    0    0  501 -0.00000000000E+00  0.00000000000E+00  0.20477651202E+04  0.20477651202E+04  0.50400000000E-02 0.  1.
          1   -1    0    0  501    0  0.00000000000E+00 -0.00000000000E+00 -0.19166711481E+04  0.19166711481E+04  0.50400000000E-02 0. -1.
    8880023    1    1    2    0    0  0.33127515097E+03 -0.53641763845E+03 -0.17507330395E+04  0.19739208419E+04  0.65864270000E+03 0. -1.
    8880022    1    1    2    0    0 -0.33127515097E+03  0.53641763845E+03  0.18818270116E+04  0.19905154265E+04  0.15294330000E+03 0.  0.
<mgrwt>
<rscale>  0 0.83739096E+03</rscale>
<asrwt>0</asrwt>
<pdfrwt beam="1">  1        1 0.29487248E+00 0.91175507E+03</pdfrwt>
<pdfrwt beam="2">  1       -1 0.31504079E+00 0.91175507E+03</pdfrwt>
<totfact> 0.93357780E-02</totfact>
</mgrwt>
</event>
<event>
 4    1  0.1065596E-007  0.1521771E+04  0.7818608E-02  0.8894414E-01
          1   -1    0    0  501    0  0.00000000000E+00  0.00000000000E+00  0.83925652344E+03  0.83925652346E+03  0.50400000000E-02 0. -1.
         -1   -1    0    0    0  501 -0.00000000000E+00 -0.00000000000E+00 -0.33755869849E+04  0.33755869849E+04  0.50400000000E-02 0.  1.
    8880023    1    1    2    0    0 -0.68756379248E+03  0.11871104780E+04 -0.24716864004E+03  0.15417126187E+04  0.65864270000E+03 0.  0.
    8880022    1    1    2    0    0  0.68756379248E+03 -0.11871104780E+04 -0.22891618214E+04  0.26731308896E+04  0.15294330000E+03 0.  0.
<mgrwt>
<rscale>  0 0.14851120E+04</rscale>
<asrwt>0</asrwt>
<pdfrwt beam="1">  1        1 0.12911639E+00 0.15217705E+04</pdfrwt>
<pdfrwt beam="2">  1       -1 0.51932107E+00 0.15217705E+04</pdfrwt>
<totfact> 0.21657157E-02</totfact>
</mgrwt>
</event>
<event>
 4    1  0.1065596E-007  0.1047439E+04  0.7818608E-02  0.9321966E-01
         -1   -1    0    0    0  501 -0.00000000000E+00  0.00000000000E+00  0.75793890122E+03  0.75793890124E+03  0.50400000000E-02 0.  1.
          1   -1    0    0  501    0  0.00000000000E+00 -0.00000000000E+00 -0.14830995677E+04  0.14830995677E+04  0.50400000000E-02 0. -1.
    8880023    1    1    2    0    0  0.77092530649E+03  0.26266412570E+03 -0.91509271311E+03  0.13908713639E+04  0.65864270000E+03 0. -1.
    8880022    1    1    2    0    0 -0.77092530649E+03 -0.26266412570E+03  0.18993204664E+03  0.85016710503E+03  0.15294330000E+03 0.  0.
<mgrwt>
<rscale>  0 0.98785505E+03</rscale>
<asrwt>0</asrwt>
<pdfrwt beam="1">  1        1 0.22816916E+00 0.10474390E+04</pdfrwt>
<pdfrwt beam="2">  1       -1 0.11660599E+00 0.10474390E+04</pdfrwt>
<totfact> 0.44596134E+00</totfact>
</mgrwt>
</event>
<event>
 4    1  0.1065596E-007  0.1698172E+04  0.7818608E-02  0.8781059E-01
         -1   -1    0    0    0  501 -0.00000000000E+00  0.00000000000E+00  0.11841443716E+04  0.11841443716E+04  0.50400000000E-02 0.  1.
          1   -1    0    0  501    0  0.00000000000E+00 -0.00000000000E+00 -0.28601663908E+04  0.28601663908E+04  0.50400000000E-02 0. -1.
    8880023    1    1    2    0    0 -0.79139786695E+03  0.13504328690E+04 -0.17901573808E+04  0.24674791127E+04  0.65864270000E+03 0.  0.
    8880022    1    1    2    0    0  0.79139786695E+03 -0.13504328690E+04  0.11413536157E+03  0.15768316496E+04  0.15294330000E+03 0.  0.
<mgrwt>
<rscale>  0 0.16658946E+04</rscale>
<asrwt>0</asrwt>
<pdfrwt beam="1">  1        1 0.44002560E+00 0.16981725E+04</pdfrwt>
<pdfrwt beam="2">  1       -1 0.18217606E+00 0.16981725E+04</pdfrwt>
<totfact> 0.14031750E-01</totfact>
</mgrwt>
</event>
<event>
 4    1  0.1065596E-007  0.7982001E+03  0.7818608E-02  0.9714701E-01
         -1   -1    0    0    0  501 -0.00000000000E+00  0.00000000000E+00  0.88281047641E+03  0.88281047643E+03  0.50400000000E-02 0.  1.
          1   -1    0    0  501    0  0.00000000000E+00 -0.00000000000E+00 -0.16611321241E+04  0.16611321241E+04  0.50400000000E-02 0. -1.
    8880023    1    1    2    0    0 -0.27060722500E+03  0.36067278023E+03 -0.14884491929E+04  0.16889654616E+04  0.65864270000E+03 0. -1.
    8880022    1    1    2    0    0  0.27060722500E+03 -0.36067278023E+03  0.71012754517E+03  0.85497713890E+03  0.15294330000E+03 0.  0.
<mgrwt>
<rscale>  0 0.70148179E+03</rscale>
<asrwt>0</asrwt>
<pdfrwt beam="1">  1        1 0.25555879E+00 0.79820006E+03</pdfrwt>
<pdfrwt beam="2">  1       -1 0.13581700E+00 0.79820006E+03</pdfrwt>
<totfact> 0.23877124E+00</totfact>
</mgrwt>
</event>
<event>
 4    1  0.1065596E-007  0.7134528E+03  0.7818608E-02  0.9945396E-01
          1   -1    0    0  501    0  0.00000000000E+00  0.00000000000E+00  0.88852007296E+03  0.88852007298E+03  0.50400000000E-02 0. -1.
         -1   -1    0    0    0  501 -0.00000000000E+00 -0.00000000000E+00 -0.11079664983E+04  0.11079664984E+04  0.50400000000E-02 0.  1.
    8880023    1    1    2    0    0  0.26928861935E+03 -0.51849690739E+02  0.71537741067E+03  0.10103364771E+04  0.65864270000E+03 0. -1.
    8880022    1    1    2    0    0 -0.26928861935E+03  0.51849690739E+02 -0.93482383605E+03  0.98615009425E+03  0.15294330000E+03 0.  0.
<mgrwt>
<rscale>  0 0.58110764E+03</rscale>
<asrwt>0</asrwt>
<pdfrwt beam="1">  1        1 0.13669540E+00 0.71345284E+03</pdfrwt>
<pdfrwt beam="2">  1       -1 0.17045638E+00 0.71345284E+03</pdfrwt>
<totfact> 0.47338512E+00</totfact>
</mgrwt>
</event>
<event>
 4    1  0.1065596E-007  0.7292070E+03  0.7818608E-02  0.9892581E-01
          1   -1    0    0  501    0  0.00000000000E+00  0.00000000000E+00  0.14254084248E+04  0.14254084248E+04  0.50400000000E-02 0. -1.
         -1   -1    0    0    0  501 -0.00000000000E+00 -0.00000000000E+00 -0.56293404675E+03  0.56293404677E+03  0.50400000000E-02 0.  1.
    8880023    1    1    2    0    0  0.13356401107E+03 -0.28300757988E+03  0.12624768127E+04  0.14579405146E+04  0.65864270000E+03 0. -1.
    8880022    1    1    2    0    0 -0.13356401107E+03  0.28300757988E+03 -0.40000243458E+03  0.53040195702E+03  0.15294330000E+03 0.  0.
<mgrwt>
<rscale>  0 0.60622185E+03</rscale>
<asrwt>0</asrwt>
<pdfrwt beam="1">  1        1 0.21929360E+00 0.72920700E+03</pdfrwt>
<pdfrwt beam="2">  1       -1 0.86605240E-01 0.72920700E+03</pdfrwt>
<totfact> 0.10085915E+01</totfact>
</mgrwt>
</event>
<event>
 4    1  0.1065596E-007  0.7311425E+03  0.7818608E-02  0.9886543E-01
          1   -1    0    0  501    0  0.00000000000E+00  0.00000000000E+00  0.69466739082E+03  0.69466739084E+03  0.50400000000E-02 0. -1.
         -1   -1    0    0    0  501 -0.00000000000E+00 -0.00000000000E+00 -0.49982814513E+03  0.49982814516E+03  0.50400000000E-02 0.  1.
    8880023    1    1    2    0    0  0.23508259394E+03  0.21329642011E+03  0.34867471311E+03  0.81002682093E+03  0.65864270000E+03 0. -1.
    8880022    1    1    2    0    0 -0.23508259394E+03 -0.21329642011E+03 -0.15383546743E+03  0.38446871506E+03  0.15294330000E+03 0.  0.
<mgrwt>
<rscale>  0 0.60917945E+03</rscale>
<asrwt>0</asrwt>
<pdfrwt beam="1">  1        1 0.10687191E+00 0.73114253E+03</pdfrwt>
<pdfrwt beam="2">  1       -1 0.76896638E-01 0.73114253E+03</pdfrwt>
<totfact> 0.47896027E+01</totfact>
</mgrwt>
</event>
<event>
 4    1  0.1065596E-007  0.1401283E+04  0.7818608E-02  0.8982686E-01
         -1   -1    0    0    0  501 -0.00000000000E+00  0.00000000000E+00  0.23233419727E+04  0.23233419727E+04  0.50400000000E-02 0.  1.
          1   -1    0    0  501    0  0.00000000000E+00 -0.00000000000E+00 -0.19315676286E+04  0.19315676286E+04  0.50400000000E-02 0. -1.
    8880023    1    1    2    0    0 -0.88435636874E+03  0.86469505211E+03 -0.14594565089E+04  0.20232664747E+04  0.65864270000E+03 0.  0.
    8880022    1    1    2    0    0  0.88435636874E+03 -0.86469505211E+03  0.18512308530E+04  0.22316431266E+04  0.15294330000E+03 0.  0.
<mgrwt>
<rscale>  0 0.13608083E+04</rscale>
<asrwt>0</asrwt>
<pdfrwt beam="1">  1        1 0.29716425E+00 0.14012830E+04</pdfrwt>
<pdfrwt beam="2">  1       -1 0.35743723E+00 0.14012830E+04</pdfrwt>
<totfact> 0.44057448E-02</totfact>
</mgrwt>
</event>
<event>
 4    1  0.1065596E-007  0.1305963E+04  0.7818608E-02  0.9060427E-01
         -1   -1    0    0    0  501 -0.00000000000E+00  0.00000000000E+00  0.60248273469E+03  0.60248273471E+03  0.50400000000E-02 0.  1.
          1   -1    0    0  501    0  0.00000000000E+00 -0.00000000000E+00 -0.32029069893E+04  0.32029069893E+04  0.50400000000E-02 0. -1.
    8880023    1    1    2    0    0  0.11012059189E+04  0.24305323697E+03 -0.22725384451E+04  0.26210628651E+04  0.65864270000E+03 0.  0.
    8880022    1    1    2    0    0 -0.11012059189E+04 -0.24305323697E+03 -0.32788580947E+03  0.11843268589E+04  0.15294330000E+03 0.  0.
<mgrwt>
<rscale>  0 0.12617897E+04</rscale>
<asrwt>0</asrwt>
<pdfrwt beam="1">  1        1 0.49275491E+00 0.13059631E+04</pdfrwt>
<pdfrwt beam="2">  1       -1 0.92689653E-01 0.13059631E+04</pdfrwt>
<totfact> 0.47141522E-01</totfact>
</mgrwt>
</event>
<event>
 4    1  0.1065596E-007  0.1015507E+04  0.7818608E-02  0.9361545E-01
         -1   -1    0    0    0  501 -0.00000000000E+00  0.00000000000E+00  0.21866414130E+04  0.21866414130E+04  0.50400000000E-02 0.  1.
          1   -1    0    0  501    0  0.00000000000E+00 -0.00000000000E+00 -0.86336289557E+03  0.86336289559E+03  0.50400000000E-02 0. -1.
    8880023    1    1    2    0    0 -0.56887838289E+03 -0.52328009013E+03 -0.44909553006E+03  0.11103790653E+04  0.65864270000E+03 0. -1.
    8880022    1    1    2    0    0  0.56887838289E+03  0.52328009013E+03  0.17723740475E+04  0.19396252433E+04  0.15294330000E+03 0.  0.
<mgrwt>
<rscale>  0 0.95309106E+03</rscale>
<asrwt>0</asrwt>
<pdfrwt beam="1">  1        1 0.13282506E+00 0.10155072E+04</pdfrwt>
<pdfrwt beam="2">  1       -1 0.33640637E+00 0.10155072E+04</pdfrwt>
<totfact> 0.37889624E-01</totfact>
</mgrwt>
</event>
<event>
 4    1  0.1065596E-007  0.1080928E+04  0.7818608E-02  0.9282593E-01
          1   -1    0    0  501    0  0.00000000000E+00  0.00000000000E+00  0.21516544350E+04  0.21516544350E+04  0.50400000000E-02 0. -1.
         -1   -1    0    0    0  501 -0.00000000000E+00 -0.00000000000E+00 -0.61100311913E+03  0.61100311915E+03  0.50400000000E-02 0.  1.
    8880023    1    1    2    0    0 -0.81462450998E+03  0.26642525319E+03  0.15527602626E+04  0.18919487697E+04  0.65864270000E+03 0. -1.
    8880022    1    1    2    0    0  0.81462450998E+03 -0.26642525319E+03 -0.12108946688E+02  0.87070878450E+03  0.15294330000E+03 0.  0.
<mgrwt>
<rscale>  0 0.10240127E+04</rscale>
<asrwt>0</asrwt>
<pdfrwt beam="1">  1        1 0.33102377E+00 0.10809282E+04</pdfrwt>
<pdfrwt beam="2">  1       -1 0.94000478E-01 0.10809282E+04</pdfrwt>
<totfact> 0.25828479E+00</totfact>
</mgrwt>
</event>
<event>
 4    1  0.1340706E-007  0.7694639E+03  0.7818608E-02  0.9781195E-01
          1   -1    0    0  501    0  0.00000000000E+00  0.00000000000E+00  0.18943162475E+04  0.18943162475E+04  0.50400000000E-02 0. -1.
         -1   -1    0    0    0  501 -0.00000000000E+00 -0.00000000000E+00 -0.13885824896E+04  0.13885824896E+04  0.50400000000E-02 0.  1.
    8880023    1    1    2    0    0  0.37434352896E+03  0.13465307488E+03  0.17800260876E+04  0.19392182979E+04  0.65864270000E+03 0. -1.
    8880022    1    1    2    0    0 -0.37434352896E+03 -0.13465307488E+03 -0.12742923297E+04  0.13436804392E+04  0.15294330000E+03 0.  0.
<mgrwt>
<rscale>  0 0.66381563E+03</rscale>
<asrwt>0</asrwt>
<pdfrwt beam="1">  1        1 0.29143327E+00 0.76946393E+03</pdfrwt>
<pdfrwt beam="2">  1       -1 0.21362808E+00 0.76946393E+03</pdfrwt>
<totfact> 0.45243445E-01</totfact>
</mgrwt>
</event>
<event>
 4    1  0.1065596E-007  0.8073910E+03  0.7818608E-02  0.9695037E-01
         -1   -1    0    0    0  501 -0.00000000000E+00  0.00000000000E+00  0.74742998243E+03  0.74742998245E+03  0.50400000000E-02 0.  1.
          1   -1    0    0  501    0  0.00000000000E+00 -0.00000000000E+00 -0.20239244884E+04  0.20239244884E+04  0.50400000000E-02 0. -1.
    8880023    1    1    2    0    0  0.38766787721E+03  0.26035275728E+03 -0.18485774171E+04  0.20172056451E+04  0.65864270000E+03 0. -1.
    8880022    1    1    2    0    0 -0.38766787721E+03 -0.26035275728E+03  0.57208291111E+03  0.75414882579E+03  0.15294330000E+03 0.  0.
<mgrwt>
<rscale>  0 0.71313034E+03</rscale>
<asrwt>0</asrwt>
<pdfrwt beam="1">  1        1 0.31137300E+00 0.80739095E+03</pdfrwt>
<pdfrwt beam="2">  1       -1 0.11498923E+00 0.80739095E+03</pdfrwt>
<totfact> 0.20563723E+00</totfact>
</mgrwt>
</event>
<event>
 4    1  0.1065596E-007  0.6783990E+03  0.7818608E-02  0.1010244E+00
         -1   -1    0    0    0  501 -0.00000000000E+00  0.00000000000E+00  0.44441216164E+03  0.44441216167E+03  0.50400000000E-02 0.  1.
          1   -1    0    0  501    0  0.00000000000E+00 -0.00000000000E+00 -0.45809088994E+03  0.45809088997E+03  0.50400000000E-02 0. -1.
    8880023    1    1    2    0    0  0.16129658418E+03 -0.19960068441E+02  0.63841559516E+01  0.67842903543E+03  0.65864270000E+03 0.  1.
    8880022    1    1    2    0    0 -0.16129658418E+03  0.19960068441E+02 -0.20062884256E+02  0.22407401621E+03  0.15294330000E+03 0.  1.
<mgrwt>
<rscale>  0 0.51377718E+03</rscale>
<asrwt>0</asrwt>
<pdfrwt beam="1">  1        1 0.70475522E-01 0.67839900E+03</pdfrwt>
<pdfrwt beam="2">  1       -1 0.68371102E-01 0.67839900E+03</pdfrwt>
<totfact> 0.11059507E+02</totfact>
</mgrwt>
</event>
<event>
 4    1  0.1065596E-007  0.9507506E+03  0.7818608E-02  0.9449035E-01
          1   -1    0    0  501    0  0.00000000000E+00  0.00000000000E+00  0.28342592876E+04  0.28342592876E+04  0.50400000000E-02 0. -1.
         -1   -1    0    0    0  501 -0.00000000000E+00 -0.00000000000E+00 -0.78127108211E+03  0.78127108213E+03  0.50400000000E-02 0.  1.
    8880023    1    1    2    0    0  0.58362259042E+03  0.35986272828E+03  0.25719999039E+04  0.27420996012E+04  0.65864270000E+03 0. -1.
    8880022    1    1    2    0    0 -0.58362259042E+03 -0.35986272828E+03 -0.51901169840E+03  0.87343076849E+03  0.15294330000E+03 0.  0.
<mgrwt>
<rscale>  0 0.88147856E+03</rscale>
<asrwt>0</asrwt>
<pdfrwt beam="1">  1        1 0.43603989E+00 0.95075061E+03</pdfrwt>
<pdfrwt beam="2">  1       -1 0.12019555E+00 0.95075061E+03</pdfrwt>
<totfact> 0.50205090E-01</totfact>
</mgrwt>
</event>
<event>
 4    1  0.1065596E-007  0.1177559E+04  0.7818608E-02  0.9179251E-01
          1   -1    0    0  501    0  0.00000000000E+00  0.00000000000E+00  0.12830904071E+04  0.12830904071E+04  0.50400000000E-02 0. -1.
         -1   -1    0    0    0  501 -0.00000000000E+00 -0.00000000000E+00 -0.25813276794E+04  0.25813276794E+04  0.50400000000E-02 0.  1.
    8880023    1    1    2    0    0  0.49246430304E+02  0.97488979182E+03  0.88166848818E+03  0.14710488933E+04  0.65864270000E+03 0.  0.
    8880022    1    1    2    0    0 -0.49246430304E+02 -0.97488979182E+03 -0.21799057606E+04  0.23933691932E+04  0.15294330000E+03 0.  0.
<mgrwt>
<rscale>  0 0.11270181E+04</rscale>
<asrwt>0</asrwt>
<pdfrwt beam="1">  1        1 0.19739852E+00 0.11775591E+04</pdfrwt>
<pdfrwt beam="2">  1       -1 0.39712734E+00 0.11775591E+04</pdfrwt>
<totfact> 0.69231013E-02</totfact>
</mgrwt>
</event>
<event>
 4    1  0.1065596E-007  0.1088258E+04  0.7818608E-02  0.9274243E-01
         -1   -1    0    0    0  501 -0.00000000000E+00  0.00000000000E+00  0.98468457970E+03  0.98468457971E+03  0.50400000000E-02 0.  1.
          1   -1    0    0  501    0  0.00000000000E+00 -0.00000000000E+00 -0.11783248288E+04  0.11783248288E+04  0.50400000000E-02 0. -1.
    8880023    1    1    2    0    0  0.12051756382E+03 -0.85788721855E+03 -0.54332375137E+03  0.12163494021E+04  0.65864270000E+03 0. -1.
    8880022    1    1    2    0    0 -0.12051756382E+03  0.85788721855E+03  0.34968350228E+03  0.94666000640E+03  0.15294330000E+03 0.  0.
<mgrwt>
<rscale>  0 0.10318903E+04</rscale>
<asrwt>0</asrwt>
<pdfrwt beam="1">  1        1 0.18128074E+00 0.10882579E+04</pdfrwt>
<pdfrwt beam="2">  1       -1 0.15148994E+00 0.10882579E+04</pdfrwt>
<totfact> 0.37390960E+00</totfact>
</mgrwt>
</event>
<event>
 4    1  0.1065596E-007  0.1748233E+04  0.7818608E-02  0.8751726E-01
         -1   -1    0    0    0  501 -0.00000000000E+00  0.00000000000E+00  0.34304825076E+04  0.34304825076E+04  0.50400000000E-02 0.  1.
          1   -1    0    0  501    0  0.00000000000E+00 -0.00000000000E+00 -0.15554029285E+04  0.15554029285E+04  0.50400000000E-02 0. -1.
    8880023    1    1    2    0    0  0.12435308037E+04  0.10373711123E+04 -0.74627793465E+03  0.19008547147E+04  0.65864270000E+03 0.  0.
    8880022    1    1    2    0    0 -0.12435308037E+04 -0.10373711123E+04  0.26213575137E+04  0.30850307214E+04  0.15294330000E+03 0.  0.
<mgrwt>
<rscale>  0 0.17170032E+04</rscale>
<asrwt>0</asrwt>
<pdfrwt beam="1">  1        1 0.23929276E+00 0.17482328E+04</pdfrwt>
<pdfrwt beam="2">  1       -1 0.52776654E+00 0.17482328E+04</pdfrwt>
<totfact> 0.54176312E-03</totfact>
</mgrwt>
</event>
<event>
 4    1  0.1065596E-007  0.9762896E+03  0.7818608E-02  0.9413257E-01
         -1   -1    0    0    0  501 -0.00000000000E+00  0.00000000000E+00  0.45959783317E+03  0.45959783319E+03  0.50400000000E-02 0.  1.
          1   -1    0    0  501    0  0.00000000000E+00 -0.00000000000E+00 -0.21590265686E+04  0.21590265686E+04  0.50400000000E-02 0. -1.
    8880023    1    1    2    0    0 -0.65105420402E+03  0.30896536029E+03 -0.27389125678E+03  0.10139811622E+04  0.65864270000E+03 0.  0.
    8880022    1    1    2    0    0  0.65105420402E+03 -0.30896536029E+03 -0.14255374786E+04  0.16046432396E+04  0.15294330000E+03 0.  0.
<mgrwt>
<rscale>  0 0.90992638E+03</rscale>
<asrwt>0</asrwt>
<pdfrwt beam="1">  1        1 0.33215793E+00 0.97628960E+03</pdfrwt>
<pdfrwt beam="2">  1       -1 0.70707360E-01 0.97628960E+03</pdfrwt>
<totfact> 0.47739914E+00</totfact>
</mgrwt>
</event>
<event>
 4    1  0.1065596E-007  0.8823240E+03  0.7818608E-02  0.9555025E-01
         -1   -1    0    0    0  501 -0.00000000000E+00  0.00000000000E+00  0.27635952276E+04  0.27635952276E+04  0.50400000000E-02 0.  1.
          1   -1    0    0  501    0  0.00000000000E+00 -0.00000000000E+00 -0.36057200477E+03  0.36057200481E+03  0.50400000000E-02 0. -1.
    8880023    1    1    2    0    0  0.58020988927E+03  0.89677064582E+02  0.29462251277E+03  0.93021401989E+03  0.65864270000E+03 0. -1.
    8880022    1    1    2    0    0 -0.58020988927E+03 -0.89677064582E+02  0.21084007100E+04  0.21939532125E+04  0.15294330000E+03 0.  0.
<mgrwt>
<rscale>  0 0.80345848E+03</rscale>
<asrwt>0</asrwt>
<pdfrwt beam="1">  1        1 0.55472619E-01 0.88232403E+03</pdfrwt>
<pdfrwt beam="2">  1       -1 0.42516847E+00 0.88232403E+03</pdfrwt>
<totfact> 0.34623856E-01</totfact>
</mgrwt>
</event>
<event>
 4    1  0.1065596E-007  0.8304379E+03  0.7818608E-02  0.9648481E-01
          1   -1    0    0  501    0  0.00000000000E+00  0.00000000000E+00  0.14042786797E+04  0.14042786797E+04  0.50400000000E-02 0. -1.
         -1   -1    0    0    0  501 -0.00000000000E+00 -0.00000000000E+00 -0.59100101717E+03  0.59100101720E+03  0.50400000000E-02 0.  1.
    8880023    1    1    2    0    0  0.49526417541E+03 -0.10261689899E+03  0.11123235685E+04  0.13881249075E+04  0.65864270000E+03 0. -1.
    8880022    1    1    2    0    0 -0.49526417541E+03  0.10261689899E+03 -0.29904590600E+03  0.60715478942E+03  0.15294330000E+03 0.  0.
<mgrwt>
<rscale>  0 0.74168831E+03</rscale>
<asrwt>0</asrwt>
<pdfrwt beam="1">  1        1 0.21604287E+00 0.83043786E+03</pdfrwt>
<pdfrwt beam="2">  1       -1 0.90923234E-01 0.83043786E+03</pdfrwt>
<totfact> 0.92428323E+00</totfact>
</mgrwt>
</event>
<event>
 4    1  0.1065596E-007  0.1190831E+04  0.7818608E-02  0.9166087E-01
         -1   -1    0    0    0  501 -0.00000000000E+00  0.00000000000E+00  0.72737026481E+03  0.72737026483E+03  0.50400000000E-02 0.  1.
          1   -1    0    0  501    0  0.00000000000E+00 -0.00000000000E+00 -0.19086467158E+04  0.19086467159E+04  0.50400000000E-02 0. -1.
    8880023    1    1    2    0    0 -0.43356599376E+02 -0.99115539457E+03 -0.11128222677E+04  0.16298626987E+04  0.65864270000E+03 0. -1.
    8880022    1    1    2    0    0  0.43356599376E+02  0.99115539457E+03 -0.68454183330E+02  0.10061542820E+04  0.15294330000E+03 0.  0.
<mgrwt>
<rscale>  0 0.11410428E+04</rscale>
<asrwt>0</asrwt>
<pdfrwt beam="1">  1        1 0.29363795E+00 0.11908312E+04</pdfrwt>
<pdfrwt beam="2">  1       -1 0.11190312E+00 0.11908312E+04</pdfrwt>
<totfact> 0.24827667E+00</totfact>
</mgrwt>
</event>
<event>
 4    1  0.1065596E-007  0.1992512E+04  0.7818608E-02  0.8622914E-01
         -1   -1    0    0    0  501 -0.00000000000E+00  0.00000000000E+00  0.17475723954E+04  0.17475723955E+04  0.50400000000E-02 0.  1.
          1   -1    0    0  501    0  0.00000000000E+00 -0.00000000000E+00 -0.26150642774E+04  0.26150642774E+04  0.50400000000E-02 0. -1.
    8880023    1    1    2    0    0 -0.16772496187E+04  0.85036801652E+03 -0.13603617997E+04  0.24126098896E+04  0.65864270000E+03 0.  0.
    8880022    1    1    2    0    0  0.16772496187E+04 -0.85036801652E+03  0.49286991771E+03  0.19500267833E+04  0.15294330000E+03 0.  0.
<mgrwt>
<rscale>  0 0.19655182E+04</rscale>
<asrwt>0</asrwt>
<pdfrwt beam="1">  1        1 0.40231758E+00 0.19925115E+04</pdfrwt>
<pdfrwt beam="2">  1       -1 0.26885729E+00 0.19925115E+04</pdfrwt>
<totfact> 0.52681733E-02</totfact>
</mgrwt>
</event>
<event>
 4    1  0.1065596E-007  0.8003023E+03  0.7818608E-02  0.9710143E-01
         -1   -1    0    0    0  501 -0.00000000000E+00  0.00000000000E+00  0.12762882712E+04  0.12762882712E+04  0.50400000000E-02 0.  1.
          1   -1    0    0  501    0  0.00000000000E+00 -0.00000000000E+00 -0.56710402262E+03  0.56710402264E+03  0.50400000000E-02 0. -1.
    8880023    1    1    2    0    0  0.97433031163E+02 -0.44404994233E+03 -0.19155167343E+03  0.82290691861E+03  0.65864270000E+03 0. -1.
    8880022    1    1    2    0    0 -0.97433031163E+02  0.44404994233E+03  0.90073592199E+03  0.10204853752E+04  0.15294330000E+03 0.  0.
<mgrwt>
<rscale>  0 0.70416091E+03</rscale>
<asrwt>0</asrwt>
<pdfrwt beam="1">  1        1 0.87246773E-01 0.80030229E+03</pdfrwt>
<pdfrwt beam="2">  1       -1 0.19635204E+00 0.80030229E+03</pdfrwt>
<totfact> 0.60883170E+00</totfact>
</mgrwt>
</event>
<event>
 4    1  0.1065596E-007  0.1888822E+04  0.7818608E-02  0.8674932E-01
         -1   -1    0    0    0  501 -0.00000000000E+00  0.00000000000E+00  0.21014996301E+04  0.21014996301E+04  0.50400000000E-02 0.  1.
          1   -1    0    0  501    0  0.00000000000E+00 -0.00000000000E+00 -0.19203399017E+04  0.19203399017E+04  0.50400000000E-02 0. -1.
    8880023    1    1    2    0    0  0.13863235147E+04  0.11008845034E+04 -0.72999969525E+03  0.20249813181E+04  0.65864270000E+03 0.  0.
    8880022    1    1    2    0    0 -0.13863235147E+04 -0.11008845034E+04  0.91115942361E+03  0.19968582137E+04  0.15294330000E+03 0.  0.
<mgrwt>
<rscale>  0 0.18601871E+04</rscale>
<asrwt>0</asrwt>
<pdfrwt beam="1">  1        1 0.29543691E+00 0.18888223E+04</pdfrwt>
<pdfrwt beam="2">  1       -1 0.32330764E+00 0.18888223E+04</pdfrwt>
<totfact> 0.70884616E-02</totfact>
</mgrwt>
</event>
<event>
 4    1  0.1065596E-007  0.6618852E+03  0.7818608E-02  0.1022303E+00
         -1   -1    0    0    0  501 -0.00000000000E+00  0.00000000000E+00  0.70885214444E+03  0.70885214446E+03  0.50400000000E-02 0.  1.
          1   -1    0    0  501    0  0.00000000000E+00 -0.00000000000E+00 -0.66075306954E+03  0.66075306956E+03  0.50400000000E-02 0. -1.
    8880023    1    1    2    0    0 -0.59808946100E+02 -0.26547244041E+02 -0.47890350253E+03  0.81697040166E+03  0.65864270000E+03 0. -1.
    8880022    1    1    2    0    0  0.59808946100E+02  0.26547244041E+02  0.52700257742E+03  0.55263481235E+03  0.15294330000E+03 0.  0.
<mgrwt>
<rscale>  0 0.46864617E+03</rscale>
<asrwt>0</asrwt>
<pdfrwt beam="1">  1        1 0.10165432E+00 0.66188524E+03</pdfrwt>
<pdfrwt beam="2">  1       -1 0.10905418E+00 0.66188524E+03</pdfrwt>
<totfact> 0.23989657E+01</totfact>
</mgrwt>
</event>
<event>
 4    1  0.1065596E-007  0.1188826E+04  0.7818608E-02  0.9168061E-01
          1   -1    0    0  501    0  0.00000000000E+00  0.00000000000E+00  0.15803347612E+04  0.15803347612E+04  0.50400000000E-02 0. -1.
         -1   -1    0    0    0  501 -0.00000000000E+00 -0.00000000000E+00 -0.16903065012E+04  0.16903065012E+04  0.50400000000E-02 0.  1.
    8880023    1    1    2    0    0 -0.43961215513E+03  0.88670117222E+03  0.11548232925E+04  0.16573849459E+04  0.65864270000E+03 0.  0.
    8880022    1    1    2    0    0  0.43961215513E+03 -0.88670117222E+03 -0.12647950324E+04  0.16132563165E+04  0.15294330000E+03 0.  0.
<mgrwt>
<rscale>  0 0.11389258E+04</rscale>
<asrwt>0</asrwt>
<pdfrwt beam="1">  1        1 0.24312842E+00 0.11888263E+04</pdfrwt>
<pdfrwt beam="2">  1       -1 0.26004715E+00 0.11888263E+04</pdfrwt>
<totfact> 0.33937375E-01</totfact>
</mgrwt>
</event>
<event>
 4    1  0.1065596E-007  0.1063132E+04  0.7818608E-02  0.9303259E-01
         -1   -1    0    0    0  501 -0.00000000000E+00  0.00000000000E+00  0.38947301161E+03  0.38947301164E+03  0.50400000000E-02 0.  1.
          1   -1    0    0  501    0  0.00000000000E+00 -0.00000000000E+00 -0.27780143232E+04  0.27780143232E+04  0.50400000000E-02 0. -1.
    8880023    1    1    2    0    0  0.42488073381E+01 -0.83451924567E+03 -0.19290845992E+04  0.22026388766E+04  0.65864270000E+03 0.  0.
    8880022    1    1    2    0    0 -0.42488073381E+01  0.83451924567E+03 -0.45945671243E+03  0.96484845824E+03  0.15294330000E+03 0.  0.
<mgrwt>
<rscale>  0 0.10048343E+04</rscale>
<asrwt>0</asrwt>
<pdfrwt beam="1">  1        1 0.42738681E+00 0.10631325E+04</pdfrwt>
<pdfrwt beam="2">  1       -1 0.59918927E-01 0.10631325E+04</pdfrwt>
<totfact> 0.24755641E+00</totfact>
</mgrwt>
</event>
<event>
 4    1  0.1065596E-007  0.9801186E+03  0.7818608E-02  0.9408044E-01
         -1   -1    0    0    0  501 -0.00000000000E+00  0.00000000000E+00  0.55970545144E+03  0.55970545146E+03  0.50400000000E-02 0.  1.
          1   -1    0    0  501    0  0.00000000000E+00 -0.00000000000E+00 -0.16826349989E+04  0.16826349990E+04  0.50400000000E-02 0. -1.
    8880023    1    1    2    0    0  0.18001347545E+03 -0.70314815170E+03 -0.11361099909E+04  0.15004593604E+04  0.65864270000E+03 0. -1.
    8880022    1    1    2    0    0 -0.18001347545E+03  0.70314815170E+03  0.13180443391E+02  0.74188108999E+03  0.15294330000E+03 0.  0.
<mgrwt>
<rscale>  0 0.91416670E+03</rscale>
<asrwt>0</asrwt>
<pdfrwt beam="1">  1        1 0.25886692E+00 0.98011855E+03</pdfrwt>
<pdfrwt beam="2">  1       -1 0.86108532E-01 0.98011855E+03</pdfrwt>
<totfact> 0.65843951E+00</totfact>
</mgrwt>
</event>
<event>
 4    1  0.1065596E-007  0.8360064E+03  0.7818608E-02  0.9637757E-01
          1   -1    0    0  501    0  0.00000000000E+00  0.00000000000E+00  0.84741353481E+03  0.84741353483E+03  0.50400000000E-02 0. -1.
         -1   -1    0    0    0  501 -0.00000000000E+00 -0.00000000000E+00 -0.74142344785E+03  0.74142344787E+03  0.50400000000E-02 0.  1.
    8880023    1    1    2    0    0 -0.31197055453E+03 -0.40959843950E+03  0.45155647953E+03  0.95016312757E+03  0.65864270000E+03 0.  0.
    8880022    1    1    2    0    0  0.31197055453E+03  0.40959843950E+03 -0.34556639256E+03  0.63867385512E+03  0.15294330000E+03 0.  0.
<mgrwt>
<rscale>  0 0.74846794E+03</rscale>
<asrwt>0</asrwt>
<pdfrwt beam="1">  1        1 0.13037131E+00 0.83600641E+03</pdfrwt>
<pdfrwt beam="2">  1       -1 0.11406515E+00 0.83600641E+03</pdfrwt>
<totfact> 0.14358924E+01</totfact>
</mgrwt>
</event>
<event>
 4    1  0.1065596E-007  0.1354888E+04  0.7818608E-02  0.9019553E-01
         -1   -1    0    0    0  501 -0.00000000000E+00  0.00000000000E+00  0.51066870007E+03  0.51066870009E+03  0.50400000000E-02 0.  1.
          1   -1    0    0  501    0  0.00000000000E+00 -0.00000000000E+00 -0.41461888611E+04  0.41461888611E+04  0.50400000000E-02 0. -1.
    8880023    1    1    2    0    0  0.94110355891E+02  0.11802767879E+04 -0.78367773021E+03  0.15652063910E+04  0.65864270000E+03 0.  0.
    8880022    1    1    2    0    0 -0.94110355891E+02 -0.11802767879E+04 -0.28518424309E+04  0.30916511703E+04  0.15294330000E+03 0.  0.
<mgrwt>
<rscale>  0 0.13127009E+04</rscale>
<asrwt>0</asrwt>
<pdfrwt beam="1">  1        1 0.63787519E+00 0.13548875E+04</pdfrwt>
<pdfrwt beam="2">  1       -1 0.78564418E-01 0.13548875E+04</pdfrwt>
<totfact> 0.11450207E-01</totfact>
</mgrwt>
</event>
<event>
 4    1  0.1065596E-007  0.8187653E+03  0.7818608E-02  0.9671600E-01
          1   -1    0    0  501    0  0.00000000000E+00  0.00000000000E+00  0.10189582273E+04  0.10189582273E+04  0.50400000000E-02 0. -1.
         -1   -1    0    0    0  501 -0.00000000000E+00 -0.00000000000E+00 -0.16930671751E+04  0.16930671752E+04  0.50400000000E-02 0.  1.
    8880023    1    1    2    0    0  0.44897264393E+03 -0.18705590747E+03  0.80456827447E+03  0.11479140482E+04  0.65864270000E+03 0. -1.
    8880022    1    1    2    0    0 -0.44897264393E+03  0.18705590747E+03 -0.14786772223E+04  0.15641113542E+04  0.15294330000E+03 0.  0.
<mgrwt>
<rscale>  0 0.72733160E+03</rscale>
<asrwt>0</asrwt>
<pdfrwt beam="1">  1        1 0.15676280E+00 0.81876526E+03</pdfrwt>
<pdfrwt beam="2">  1       -1 0.26047187E+00 0.81876526E+03</pdfrwt>
<totfact> 0.90619390E-01</totfact>
</mgrwt>
</event>
<event>
 4    1  0.1065596E-007  0.9517528E+03  0.7818608E-02  0.9447597E-01
         -1   -1    0    0    0  501 -0.00000000000E+00  0.00000000000E+00  0.48577520354E+03  0.48577520356E+03  0.50400000000E-02 0.  1.
          1   -1    0    0  501    0  0.00000000000E+00 -0.00000000000E+00 -0.36090250398E+04  0.36090250398E+04  0.50400000000E-02 0. -1.
    8880023    1    1    2    0    0 -0.53371062612E+03 -0.43263851627E+03 -0.32439340884E+04  0.33806717815E+04  0.65864270000E+03 0. -1.
    8880022    1    1    2    0    0  0.53371062612E+03  0.43263851627E+03  0.12068425220E+03  0.71412846179E+03  0.15294330000E+03 0.  0.
<mgrwt>
<rscale>  0 0.88260062E+03</rscale>
<asrwt>0</asrwt>
<pdfrwt beam="1">  1        1 0.55523460E+00 0.95175276E+03</pdfrwt>
<pdfrwt beam="2">  1       -1 0.74734649E-01 0.95175276E+03</pdfrwt>
<totfact> 0.38779722E-01</totfact>
</mgrwt>
</event>
<event>
 4    1  0.1065596E-007  0.7000526E+03  0.7818608E-02  0.9996983E-01
         -1   -1    0    0    0  501 -0.00000000000E+00  0.00000000000E+00  0.92064270075E+03  0.92064270077E+03  0.50400000000E-02 0.  1.
          1   -1    0    0  501    0  0.00000000000E+00 -0.00000000000E+00 -0.49366319044E+03  0.49366319046E+03  0.50400000000E-02 0. -1.
    8880023    1    1    2    0    0  0.89958798959E+02  0.21947871759E+03 -0.19887829012E+03  0.72775426727E+03  0.65864270000E+03 0. -1.
    8880022    1    1    2    0    0 -0.89958798959E+02 -0.21947871759E+03  0.62585780043E+03  0.68655162396E+03  0.15294330000E+03 0.  0.
<mgrwt>
<rscale>  0 0.55782729E+03</rscale>
<asrwt>0</asrwt>
<pdfrwt beam="1">  1        1 0.75948184E-01 0.70005264E+03</pdfrwt>
<pdfrwt beam="2">  1       -1 0.14163734E+00 0.70005264E+03</pdfrwt>
<totfact> 0.18929264E+01</totfact>
</mgrwt>
</event>
<event>
 4    1  0.1065596E-007  0.7207031E+03  0.7818608E-02  0.9920214E-01
         -1   -1    0    0    0  501 -0.00000000000E+00  0.00000000000E+00  0.81678328433E+03  0.81678328435E+03  0.50400000000E-02 0.  1.
          1   -1    0    0  501    0  0.00000000000E+00 -0.00000000000E+00 -0.12275217313E+04  0.12275217313E+04  0.50400000000E-02 0. -1.
    8880023    1    1    2    0    0 -0.18394577692E+03 -0.22752294635E+03 -0.10798006794E+04  0.12982228058E+04  0.65864270000E+03 0.  0.
    8880022    1    1    2    0    0  0.18394577692E+03  0.22752294635E+03  0.66906223245E+03  0.74608220986E+03  0.15294330000E+03 0.  0.
<mgrwt>
<rscale>  0 0.59291551E+03</rscale>
<asrwt>0</asrwt>
<pdfrwt beam="1">  1        1 0.18884950E+00 0.72070309E+03</pdfrwt>
<pdfrwt beam="2">  1       -1 0.12565897E+00 0.72070309E+03</pdfrwt>
<totfact> 0.58750172E+00</totfact>
</mgrwt>
</event>
<event>
 4    1  0.1065596E-007  0.7193727E+03  0.7818608E-02  0.9924714E-01
          1   -1    0    0  501    0  0.00000000000E+00  0.00000000000E+00  0.26624427082E+04  0.26624427082E+04  0.50400000000E-02 0. -1.
         -1   -1    0    0    0  501 -0.00000000000E+00 -0.00000000000E+00 -0.31639872069E+03  0.31639872073E+03  0.50400000000E-02 0.  1.
    8880023    1    1    2    0    0  0.15864160886E+03 -0.24190857860E+03  0.25112638713E+04  0.26122678572E+04  0.65864270000E+03 0. -1.
    8880022    1    1    2    0    0 -0.15864160886E+03  0.24190857860E+03 -0.16521988378E+03  0.36657357170E+03  0.15294330000E+03 0.  0.
<mgrwt>
<rscale>  0 0.59078342E+03</rscale>
<asrwt>0</asrwt>
<pdfrwt beam="1">  1        1 0.40960657E+00 0.71937273E+03</pdfrwt>
<pdfrwt beam="2">  1       -1 0.48676727E-01 0.71937273E+03</pdfrwt>
<totfact> 0.47062654E+00</totfact>
</mgrwt>
</event>
<event>
 4    1  0.1065596E-007  0.6684626E+03  0.7818608E-02  0.1016790E+00
         -1   -1    0    0    0  501 -0.00000000000E+00  0.00000000000E+00  0.47899876681E+03  0.47899876684E+03  0.50400000000E-02 0.  1.
          1   -1    0    0  501    0  0.00000000000E+00 -0.00000000000E+00 -0.79907078378E+03  0.79907078379E+03  0.50400000000E-02 0. -1.
    8880023    1    1    2    0    0 -0.82671368293E+02  0.78724250562E+02 -0.62709419111E+03  0.91656390587E+03  0.65864270000E+03 0. -1.
    8880022    1    1    2    0    0  0.82671368293E+02 -0.78724250562E+02  0.30702217414E+03  0.36150564476E+03  0.15294330000E+03 0.  0.
<mgrwt>
<rscale>  0 0.48863084E+03</rscale>
<asrwt>0</asrwt>
<pdfrwt beam="1">  1        1 0.12293397E+00 0.66846262E+03</pdfrwt>
<pdfrwt beam="2">  1       -1 0.73692118E-01 0.66846262E+03</pdfrwt>
<totfact> 0.42418448E+01</totfact>
</mgrwt>
</event>
<event>
 4    1  0.1065596E-007  0.6934408E+03  0.7818608E-02  0.1002558E+00
         -1   -1    0    0    0  501 -0.00000000000E+00  0.00000000000E+00  0.85932955314E+03  0.85932955315E+03  0.50400000000E-02 0.  1.
          1   -1    0    0  501    0  0.00000000000E+00 -0.00000000000E+00 -0.51596503296E+03  0.51596503298E+03  0.50400000000E-02 0. -1.
    8880023    1    1    2    0    0  0.19677330884E+03  0.91270296148E+02 -0.24047974964E+03  0.73395552882E+03  0.65864270000E+03 0. -1.
    8880022    1    1    2    0    0 -0.19677330884E+03 -0.91270296148E+02  0.58384426982E+03  0.64133905732E+03  0.15294330000E+03 0.  0.
<mgrwt>
<rscale>  0 0.54542590E+03</rscale>
<asrwt>0</asrwt>
<pdfrwt beam="1">  1        1 0.79379237E-01 0.69344085E+03</pdfrwt>
<pdfrwt beam="2">  1       -1 0.13220455E+00 0.69344085E+03</pdfrwt>
<totfact> 0.21282714E+01</totfact>
</mgrwt>
</event>
<event>
 4    1  0.1065596E-007  0.9465045E+03  0.7818608E-02  0.9455161E-01
          1   -1    0    0  501    0  0.00000000000E+00  0.00000000000E+00  0.25139248455E+04  0.25139248455E+04  0.50400000000E-02 0. -1.
         -1   -1    0    0    0  501 -0.00000000000E+00 -0.00000000000E+00 -0.88435750843E+03  0.88435750845E+03  0.50400000000E-02 0.  1.
    8880023    1    1    2    0    0 -0.67539725826E+03 -0.76805033173E+02  0.22653027689E+04  0.24550900820E+04  0.65864270000E+03 0. -1.
    8880022    1    1    2    0    0  0.67539725826E+03  0.76805033173E+02 -0.63573543184E+03  0.94319227197E+03  0.15294330000E+03 0.  0.
<mgrwt>
<rscale>  0 0.87671875E+03</rscale>
<asrwt>0</asrwt>
<pdfrwt beam="1">  1        1 0.38675767E+00 0.94650445E+03</pdfrwt>
<pdfrwt beam="2">  1       -1 0.13605500E+00 0.94650445E+03</pdfrwt>
<totfact> 0.61512227E-01</totfact>
</mgrwt>
</event>
<event>
 4    1  0.1065596E-007  0.7782198E+03  0.7818608E-02  0.9760035E-01
         -1   -1    0    0    0  501 -0.00000000000E+00  0.00000000000E+00  0.23488565596E+03  0.23488565601E+03  0.50400000000E-02 0.  1.
          1   -1    0    0  501    0  0.00000000000E+00 -0.00000000000E+00 -0.29831748045E+04  0.29831748045E+04  0.50400000000E-02 0. -1.
    8880023    1    1    2    0    0 -0.30597405197E+03  0.27963495742E+03 -0.49599889453E+03  0.92284394105E+03  0.65864270000E+03 0.  1.
    8880022    1    1    2    0    0  0.30597405197E+03 -0.27963495742E+03 -0.22522902540E+04  0.22952165194E+04  0.15294330000E+03 0.  0.
<mgrwt>
<rscale>  0 0.67552085E+03</rscale>
<asrwt>0</asrwt>
<pdfrwt beam="1">  1        1 0.45894994E+00 0.77821979E+03</pdfrwt>
<pdfrwt beam="2">  1       -1 0.36136257E-01 0.77821979E+03</pdfrwt>
<totfact> 0.47853790E+00</totfact>
</mgrwt>
</event>
<event>
 4    1  0.1065596E-007  0.1113295E+04  0.7818608E-02  0.9246396E-01
         -1   -1    0    0    0  501 -0.00000000000E+00  0.00000000000E+00  0.13745197804E+04  0.13745197804E+04  0.50400000000E-02 0.  1.
          1   -1    0    0  501    0  0.00000000000E+00 -0.00000000000E+00 -0.10406797441E+04  0.10406797441E+04  0.50400000000E-02 0. -1.
    8880023    1    1    2    0    0 -0.62283961245E+03  0.64628696417E+03  0.82032801784E+03  0.13828826002E+04  0.65864270000E+03 0.  1.
    8880022    1    1    2    0    0  0.62283961245E+03 -0.64628696417E+03 -0.48648798150E+03  0.10323169242E+04  0.15294330000E+03 0.  0.
<mgrwt>
<rscale>  0 0.10587114E+04</rscale>
<asrwt>0</asrwt>
<pdfrwt beam="1">  1        1 0.16010458E+00 0.11132952E+04</pdfrwt>
<pdfrwt beam="2">  1       -1 0.21146458E+00 0.11132952E+04</pdfrwt>
<totfact> 0.17514934E+00</totfact>
</mgrwt>
</event>
<event>
 4    1  0.1065596E-007  0.8311007E+03  0.7818608E-02  0.9647195E-01
          1   -1    0    0  501    0  0.00000000000E+00  0.00000000000E+00  0.13584442075E+04  0.13584442075E+04  0.50400000000E-02 0. -1.
         -1   -1    0    0    0  501 -0.00000000000E+00 -0.00000000000E+00 -0.74725255582E+03  0.74725255584E+03  0.50400000000E-02 0.  1.
    8880023    1    1    2    0    0  0.17425730565E+03 -0.47597531637E+03  0.11043575577E+04  0.13821483032E+04  0.65864270000E+03 0. -1.
    8880022    1    1    2    0    0 -0.17425730565E+03  0.47597531637E+03 -0.49316590603E+03  0.72354846020E+03  0.15294330000E+03 0.  0.
<mgrwt>
<rscale>  0 0.74249751E+03</rscale>
<asrwt>0</asrwt>
<pdfrwt beam="1">  1        1 0.20899141E+00 0.83110067E+03</pdfrwt>
<pdfrwt beam="2">  1       -1 0.11496193E+00 0.83110067E+03</pdfrwt>
<totfact> 0.57963926E+00</totfact>
</mgrwt>
</event>
<event>
 4    1  0.1065596E-007  0.1494945E+04  0.7818608E-02  0.8913214E-01
         -1   -1    0    0    0  501 -0.00000000000E+00  0.00000000000E+00  0.11100810665E+04  0.11100810665E+04  0.50400000000E-02 0.  1.
          1   -1    0    0  501    0  0.00000000000E+00 -0.00000000000E+00 -0.26274617400E+04  0.26274617400E+04  0.50400000000E-02 0. -1.
    8880023    1    1    2    0    0 -0.64398540816E+03 -0.11774262950E+04 -0.18180584604E+04  0.23537622348E+04  0.65864270000E+03 0.  0.
    8880022    1    1    2    0    0  0.64398540816E+03  0.11774262950E+04  0.30067778689E+03  0.13837805717E+04  0.15294330000E+03 0.  0.
<mgrwt>
<rscale>  0 0.14575052E+04</rscale>
<asrwt>0</asrwt>
<pdfrwt beam="1">  1        1 0.40422488E+00 0.14949448E+04</pdfrwt>
<pdfrwt beam="2">  1       -1 0.17078170E+00 0.14949448E+04</pdfrwt>
<totfact> 0.25429879E-01</totfact>
</mgrwt>
</event>
<event>
 4    1  0.1065596E-007  0.7760275E+03  0.7818608E-02  0.9765253E-01
         -1   -1    0    0    0  501 -0.00000000000E+00  0.00000000000E+00  0.81659645747E+03  0.81659645749E+03  0.50400000000E-02 0.  1.
          1   -1    0    0  501    0  0.00000000000E+00 -0.00000000000E+00 -0.89830627386E+03  0.89830627387E+03  0.50400000000E-02 0. -1.
    8880023    1    1    2    0    0  0.41002118739E+03  0.17060195837E+02 -0.63960774408E+03  0.10056424300E+04  0.65864270000E+03 0. -1.
    8880022    1    1    2    0    0 -0.41002118739E+03 -0.17060195837E+02  0.55789792770E+03  0.70926030140E+03  0.15294330000E+03 0.  0.
<mgrwt>
<rscale>  0 0.67261093E+03</rscale>
<asrwt>0</asrwt>
<pdfrwt beam="1">  1        1 0.13820097E+00 0.77602747E+03</pdfrwt>
<pdfrwt beam="2">  1       -1 0.12563022E+00 0.77602747E+03</pdfrwt>
<totfact> 0.10371550E+01</totfact>
</mgrwt>
</event>
<event>
 4    1  0.1065596E-007  0.8035578E+03  0.7818608E-02  0.9703156E-01
         -1   -1    0    0    0  501 -0.00000000000E+00  0.00000000000E+00  0.10778935686E+04  0.10778935686E+04  0.50400000000E-02 0.  1.
          1   -1    0    0  501    0  0.00000000000E+00 -0.00000000000E+00 -0.16455035617E+04  0.16455035617E+04  0.50400000000E-02 0. -1.
    8880023    1    1    2    0    0 -0.51285818925E+02 -0.45745457018E+03 -0.14834085007E+04  0.16870702135E+04  0.65864270000E+03 0. -1.
    8880022    1    1    2    0    0  0.51285818925E+02  0.45745457018E+03  0.91579850765E+03  0.10363269169E+04  0.15294330000E+03 0.  0.
<mgrwt>
<rscale>  0 0.70829223E+03</rscale>
<asrwt>0</asrwt>
<pdfrwt beam="1">  1        1 0.25315440E+00 0.80355779E+03</pdfrwt>
<pdfrwt beam="2">  1       -1 0.16582978E+00 0.80355779E+03</pdfrwt>
<totfact> 0.14275413E+00</totfact>
</mgrwt>
</event>
<event>
 4    1  0.1065596E-007  0.7737050E+03  0.7818608E-02  0.9770837E-01
          1   -1    0    0  501    0  0.00000000000E+00  0.00000000000E+00  0.90201592119E+03  0.90201592120E+03  0.50400000000E-02 0. -1.
         -1   -1    0    0    0  501 -0.00000000000E+00 -0.00000000000E+00 -0.49599119974E+03  0.49599119977E+03  0.50400000000E-02 0.  1.
    8880023    1    1    2    0    0 -0.17732993867E+03 -0.36518935520E+03  0.54052421525E+03  0.94381449758E+03  0.65864270000E+03 0. -1.
    8880022    1    1    2    0    0  0.17732993867E+03  0.36518935520E+03 -0.13449949381E+03  0.45419262339E+03  0.15294330000E+03 0.  0.
<mgrwt>
<rscale>  0 0.66951333E+03</rscale>
<asrwt>0</asrwt>
<pdfrwt beam="1">  1        1 0.13877168E+00 0.77370497E+03</pdfrwt>
<pdfrwt beam="2">  1       -1 0.76306339E-01 0.77370497E+03</pdfrwt>
<totfact> 0.31986636E+01</totfact>
</mgrwt>
</event>
<event>
 4    1  0.1065596E-007  0.1741685E+04  0.7818608E-02  0.8755499E-01
         -1   -1    0    0    0  501 -0.00000000000E+00  0.00000000000E+00  0.11790447760E+04  0.11790447760E+04  0.50400000000E-02 0.  1.
          1   -1    0    0  501    0  0.00000000000E+00 -0.00000000000E+00 -0.25056666903E+04  0.25056666903E+04  0.50400000000E-02 0. -1.
    8880023    1    1    2    0    0  0.91966678568E+03 -0.13243376811E+04 -0.10722232827E+04  0.20452702179E+04  0.65864270000E+03 0.  0.
    8880022    1    1    2    0    0 -0.91966678568E+03  0.13243376811E+04 -0.25439863150E+03  0.16394412484E+04  0.15294330000E+03 0.  0.
<mgrwt>
<rscale>  0 0.17103227E+04</rscale>
<asrwt>0</asrwt>
<pdfrwt beam="1">  1        1 0.38548718E+00 0.17416852E+04</pdfrwt>
<pdfrwt beam="2">  1       -1 0.18139150E+00 0.17416852E+04</pdfrwt>
<totfact> 0.25176732E-01</totfact>
</mgrwt>
</event>
<event>
 4    1  0.1065596E-007  0.1019897E+04  0.7818608E-02  0.9355977E-01
         -1   -1    0    0    0  501 -0.00000000000E+00  0.00000000000E+00  0.15132297313E+04  0.15132297313E+04  0.50400000000E-02 0.  1.
          1   -1    0    0  501    0  0.00000000000E+00 -0.00000000000E+00 -0.32510037915E+04  0.32510037915E+04  0.50400000000E-02 0. -1.
    8880023    1    1    2    0    0  0.64876603598E+01  0.77867691837E+03 -0.30581445404E+04  0.32237304585E+04  0.65864270000E+03 0. -1.
    8880022    1    1    2    0    0 -0.64876603598E+01 -0.77867691837E+03  0.13203704802E+04  0.15405030642E+04  0.15294330000E+03 0.  0.
<mgrwt>
<rscale>  0 0.95788888E+03</rscale>
<asrwt>0</asrwt>
<pdfrwt beam="1">  1        1 0.50015443E+00 0.10198971E+04</pdfrwt>
<pdfrwt beam="2">  1       -1 0.23280457E+00 0.10198971E+04</pdfrwt>
<totfact> 0.36344740E-02</totfact>
</mgrwt>
</event>
<event>
 4    1  0.1065596E-007  0.1282257E+04  0.7818608E-02  0.9081035E-01
         -1   -1    0    0    0  501 -0.00000000000E+00  0.00000000000E+00  0.19187398182E+04  0.19187398182E+04  0.50400000000E-02 0.  1.
          1   -1    0    0  501    0  0.00000000000E+00 -0.00000000000E+00 -0.13533355187E+04  0.13533355187E+04  0.50400000000E-02 0. -1.
    8880023    1    1    2    0    0  0.11000640946E+04 -0.15227095726E+02 -0.80044724527E+03  0.15115881964E+04  0.65864270000E+03 0.  0.
    8880022    1    1    2    0    0 -0.11000640946E+04  0.15227095726E+02  0.13658515448E+04  0.17604871406E+04  0.15294330000E+03 0.  0.
<mgrwt>
<rscale>  0 0.12370446E+04</rscale>
<asrwt>0</asrwt>
<pdfrwt beam="1">  1        1 0.20820546E+00 0.12822570E+04</pdfrwt>
<pdfrwt beam="2">  1       -1 0.29519074E+00 0.12822570E+04</pdfrwt>
<totfact> 0.28601121E-01</totfact>
</mgrwt>
</event>
<event>
 4    1  0.1065596E-007  0.1217782E+04  0.7818608E-02  0.9140028E-01
         -1   -1    0    0    0  501 -0.00000000000E+00  0.00000000000E+00  0.24410908845E+04  0.24410908845E+04  0.50400000000E-02 0.  1.
          1   -1    0    0  501    0  0.00000000000E+00 -0.00000000000E+00 -0.53556605703E+03  0.53556605706E+03  0.50400000000E-02 0. -1.
    8880023    1    1    2    0    0 -0.10219609890E+04  0.69129998194E+02  0.12800536422E+04  0.17667854292E+04  0.65864270000E+03 0.  0.
    8880022    1    1    2    0    0  0.10219609890E+04 -0.69129998194E+02  0.62547118527E+03  0.12098715123E+04  0.15294330000E+03 0.  0.
<mgrwt>
<rscale>  0 0.11694473E+04</rscale>
<asrwt>0</asrwt>
<pdfrwt beam="1">  1        1 0.82394780E-01 0.12177822E+04</pdfrwt>
<pdfrwt beam="2">  1       -1 0.37555244E+00 0.12177822E+04</pdfrwt>
<totfact> 0.41955194E-01</totfact>
</mgrwt>
</event>
<event>
 4    1  0.1065596E-007  0.7819142E+03  0.7818608E-02  0.9751360E-01
          1   -1    0    0  501    0  0.00000000000E+00  0.00000000000E+00  0.16948234144E+04  0.16948234144E+04  0.50400000000E-02 0. -1.
         -1   -1    0    0    0  501 -0.00000000000E+00 -0.00000000000E+00 -0.22932888799E+03  0.22932888804E+03  0.50400000000E-02 0.  1.
    8880023    1    1    2    0    0 -0.94055584805E+01  0.42129693295E+03  0.10772095056E+04  0.13310785460E+04  0.65864270000E+03 0.  1.
    8880022    1    1    2    0    0  0.94055584805E+01 -0.42129693295E+03  0.38828502075E+03  0.59307375646E+03  0.15294330000E+03 0. -1.
<mgrwt>
<rscale>  0 0.68039490E+03</rscale>
<asrwt>0</asrwt>
<pdfrwt beam="1">  1        1 0.26074206E+00 0.78191417E+03</pdfrwt>
<pdfrwt beam="2">  1       -1 0.35281368E-01 0.78191417E+03</pdfrwt>
<totfact> 0.37792356E+01</totfact>
</mgrwt>
</event>
<event>
 4    1  0.1065596E-007  0.1071613E+04  0.7818608E-02  0.9293340E-01
         -1   -1    0    0    0  501 -0.00000000000E+00  0.00000000000E+00  0.10283067670E+04  0.10283067670E+04  0.50400000000E-02 0.  1.
          1   -1    0    0  501    0  0.00000000000E+00 -0.00000000000E+00 -0.12280685241E+04  0.12280685241E+04  0.50400000000E-02 0. -1.
    8880023    1    1    2    0    0  0.84481377177E+03  0.28882958543E+02 -0.68298628609E+03  0.12707576510E+04  0.65864270000E+03 0.  0.
    8880022    1    1    2    0    0 -0.84481377177E+03 -0.28882958543E+02  0.48322452898E+03  0.98561764021E+03  0.15294330000E+03 0.  0.
<mgrwt>
<rscale>  0 0.10139835E+04</rscale>
<asrwt>0</asrwt>
<pdfrwt beam="1">  1        1 0.18893362E+00 0.10716131E+04</pdfrwt>
<pdfrwt beam="2">  1       -1 0.15820104E+00 0.10716131E+04</pdfrwt>
<totfact> 0.30587078E+00</totfact>
</mgrwt>
</event>
<event>
 4    1  0.1065596E-007  0.1543726E+04  0.7818608E-02  0.8879361E-01
          1   -1    0    0  501    0  0.00000000000E+00  0.00000000000E+00  0.17679067892E+04  0.17679067892E+04  0.50400000000E-02 0. -1.
         -1   -1    0    0    0  501 -0.00000000000E+00 -0.00000000000E+00 -0.15600638425E+04  0.15600638425E+04  0.50400000000E-02 0.  1.
    8880023    1    1    2    0    0 -0.12639632188E+04  0.59302217760E+03  0.87347156173E+03  0.17737082897E+04  0.65864270000E+03 0.  0.
    8880022    1    1    2    0    0  0.12639632188E+04 -0.59302217760E+03 -0.66562861496E+03  0.15542623420E+04  0.15294330000E+03 0.  0.
<mgrwt>
<rscale>  0 0.15076807E+04</rscale>
<asrwt>0</asrwt>
<pdfrwt beam="1">  1        1 0.27198566E+00 0.15437255E+04</pdfrwt>
<pdfrwt beam="2">  1       -1 0.24000982E+00 0.15437255E+04</pdfrwt>
<totfact> 0.32636749E-01</totfact>
</mgrwt>
</event>
<event>
 4    1  0.1065596E-007  0.6843921E+03  0.7818608E-02  0.1006941E+00
         -1   -1    0    0    0  501 -0.00000000000E+00  0.00000000000E+00  0.34223366464E+03  0.34223366467E+03  0.50400000000E-02 0.  1.
          1   -1    0    0  501    0  0.00000000000E+00 -0.00000000000E+00 -0.10818012146E+04  0.10818012147E+04  0.50400000000E-02 0. -1.
    8880023    1    1    2    0    0 -0.16074560043E+03  0.93504892339E+02 -0.90298516379E+03  0.11330378305E+04  0.65864270000E+03 0. -1.
    8880022    1    1    2    0    0  0.16074560043E+03 -0.93504892339E+02  0.16341761378E+03  0.29099704888E+03  0.15294330000E+03 0.  0.
<mgrwt>
<rscale>  0 0.52708767E+03</rscale>
<asrwt>0</asrwt>
<pdfrwt beam="1">  1        1 0.16643095E+00 0.68439208E+03</pdfrwt>
<pdfrwt beam="2">  1       -1 0.52651333E-01 0.68439208E+03</pdfrwt>
<totfact> 0.49096228E+01</totfact>
</mgrwt>
</event>
<event>
 4    1  0.1300525E-007  0.1999458E+04  0.7818608E-02  0.8619555E-01
         -1   -1    0    0    0  501 -0.00000000000E+00  0.00000000000E+00  0.27486672544E+04  0.27486672544E+04  0.50400000000E-02 0.  1.
          1   -1    0    0  501    0  0.00000000000E+00 -0.00000000000E+00 -0.24956495293E+04  0.24956495293E+04  0.50400000000E-02 0. -1.
    8880023    1    1    2    0    0  0.10779525150E+04 -0.15498513480E+04 -0.16253897803E+04  0.25767659905E+04  0.65864270000E+03 0.  0.
    8880022    1    1    2    0    0 -0.10779525150E+04  0.15498513480E+04  0.18784075054E+04  0.26675507933E+04  0.15294330000E+03 0.  0.
<mgrwt>
<rscale>  0 0.19725673E+04</rscale>
<asrwt>0</asrwt>
<pdfrwt beam="1">  1        1 0.38394608E+00 0.19994577E+04</pdfrwt>
<pdfrwt beam="2">  1       -1 0.42287189E+00 0.19994577E+04</pdfrwt>
<totfact> 0.59924758E-03</totfact>
</mgrwt>
</event>
<event>
 4    1  0.1065596E-007  0.8256895E+03  0.7818608E-02  0.9657778E-01
         -1   -1    0    0    0  501 -0.00000000000E+00  0.00000000000E+00  0.13663263125E+04  0.13663263125E+04  0.50400000000E-02 0.  1.
          1   -1    0    0  501    0  0.00000000000E+00 -0.00000000000E+00 -0.12450156051E+04  0.12450156052E+04  0.50400000000E-02 0. -1.
    8880023    1    1    2    0    0  0.49794823183E+03  0.68301026378E+00 -0.10462689800E+04  0.13328322824E+04  0.65864270000E+03 0. -1.
    8880022    1    1    2    0    0 -0.49794823183E+03 -0.68301026378E+00  0.11675796874E+04  0.12785096353E+04  0.15294330000E+03 0.  0.
<mgrwt>
<rscale>  0 0.73587272E+03</rscale>
<asrwt>0</asrwt>
<pdfrwt beam="1">  1        1 0.19154086E+00 0.82568948E+03</pdfrwt>
<pdfrwt beam="2">  1       -1 0.21020405E+00 0.82568948E+03</pdfrwt>
<totfact> 0.13133419E+00</totfact>
</mgrwt>
</event>
<event>
 4    1  0.1065596E-007  0.1228810E+04  0.7818608E-02  0.9129613E-01
          1   -1    0    0  501    0  0.00000000000E+00  0.00000000000E+00  0.14117212650E+04  0.14117212650E+04  0.50400000000E-02 0. -1.
         -1   -1    0    0    0  501 -0.00000000000E+00 -0.00000000000E+00 -0.13845650255E+04  0.13845650255E+04  0.50400000000E-02 0.  1.
    8880023    1    1    2    0    0 -0.92803056787E+03  0.46359851594E+03 -0.79521669179E+03  0.14636748656E+04  0.65864270000E+03 0.  0.
    8880022    1    1    2    0    0  0.92803056787E+03 -0.46359851594E+03  0.82237293130E+03  0.13326114250E+04  0.15294330000E+03 0.  0.
<mgrwt>
<rscale>  0 0.11810432E+04</rscale>
<asrwt>0</asrwt>
<pdfrwt beam="1">  1        1 0.21718789E+00 0.12288102E+04</pdfrwt>
<pdfrwt beam="2">  1       -1 0.21301000E+00 0.12288102E+04</pdfrwt>
<totfact> 0.90281951E-01</totfact>
</mgrwt>
</event>
<event>
 4    1  0.1065596E-007  0.8434357E+03  0.7818608E-02  0.9623736E-01
         -1   -1    0    0    0  501 -0.00000000000E+00  0.00000000000E+00  0.12125954832E+04  0.12125954832E+04  0.50400000000E-02 0.  1.
          1   -1    0    0  501    0  0.00000000000E+00 -0.00000000000E+00 -0.69922848674E+03  0.69922848676E+03  0.50400000000E-02 0. -1.
    8880023    1    1    2    0    0  0.39282838667E+03  0.35108325521E+03 -0.33002560349E+03  0.90570453167E+03  0.65864270000E+03 0. -1.
    8880022    1    1    2    0    0 -0.39282838667E+03 -0.35108325521E+03  0.84339259999E+03  0.10061194383E+04  0.15294330000E+03 0.  0.
<mgrwt>
<rscale>  0 0.75744924E+03</rscale>
<asrwt>0</asrwt>
<pdfrwt beam="1">  1        1 0.10757362E+00 0.84343571E+03</pdfrwt>
<pdfrwt beam="2">  1       -1 0.18655315E+00 0.84343571E+03</pdfrwt>
<totfact> 0.52129144E+00</totfact>
</mgrwt>
</event>
<event>
 4    1  0.1065596E-007  0.1366634E+04  0.7818608E-02  0.9010053E-01
         -1   -1    0    0    0  501 -0.00000000000E+00  0.00000000000E+00  0.17499001790E+04  0.17499001790E+04  0.50400000000E-02 0.  1.
          1   -1    0    0  501    0  0.00000000000E+00 -0.00000000000E+00 -0.14496284585E+04  0.14496284586E+04  0.50400000000E-02 0. -1.
    8880023    1    1    2    0    0  0.69433816052E+03  0.97558787547E+03  0.10975810973E+04  0.17528182037E+04  0.65864270000E+03 0.  0.
    8880022    1    1    2    0    0 -0.69433816052E+03 -0.97558787547E+03 -0.79730937685E+03  0.14467104338E+04  0.15294330000E+03 0.  0.
<mgrwt>
<rscale>  0 0.13248952E+04</rscale>
<asrwt>0</asrwt>
<pdfrwt beam="1">  1        1 0.22301976E+00 0.13666336E+04</pdfrwt>
<pdfrwt beam="2">  1       -1 0.26921541E+00 0.13666336E+04</pdfrwt>
<totfact> 0.35621100E-01</totfact>
</mgrwt>
</event>
<event>
 4    1  0.1065596E-007  0.1501298E+04  0.7818608E-02  0.8908720E-01
         -1   -1    0    0    0  501 -0.00000000000E+00  0.00000000000E+00  0.68068961645E+03  0.68068961647E+03  0.50400000000E-02 0.  1.
          1   -1    0    0  501    0  0.00000000000E+00 -0.00000000000E+00 -0.35511152132E+04  0.35511152132E+04  0.50400000000E-02 0. -1.
    8880023    1    1    2    0    0  0.11056777777E+04  0.77302118775E+03 -0.66509548881E+03  0.16420253714E+04  0.65864270000E+03 0.  1.
    8880022    1    1    2    0    0 -0.11056777777E+04 -0.77302118775E+03 -0.22053301080E+04  0.25897794583E+04  0.15294330000E+03 0.  0.
<mgrwt>
<rscale>  0 0.14640465E+04</rscale>
<asrwt>0</asrwt>
<pdfrwt beam="1">  1        1 0.54632541E+00 0.15012979E+04</pdfrwt>
<pdfrwt beam="2">  1       -1 0.10472148E+00 0.15012979E+04</pdfrwt>
<totfact> 0.18773408E-01</totfact>
</mgrwt>
</event>
<event>
 4    1  0.1065596E-007  0.7501636E+03  0.7818608E-02  0.9831272E-01
         -1   -1    0    0    0  501 -0.00000000000E+00  0.00000000000E+00  0.70820713724E+03  0.70820713726E+03  0.50400000000E-02 0.  1.
          1   -1    0    0  501    0  0.00000000000E+00 -0.00000000000E+00 -0.56637605721E+03  0.56637605723E+03  0.50400000000E-02 0. -1.
    8880023    1    1    2    0    0  0.19481797354E+02 -0.35854672573E+03 -0.17683345105E+03  0.77072405609E+03  0.65864270000E+03 0. -1.
    8880022    1    1    2    0    0 -0.19481797354E+02  0.35854672573E+03  0.31866453109E+03  0.50385913840E+03  0.15294330000E+03 0.  0.
<mgrwt>
<rscale>  0 0.63710953E+03</rscale>
<asrwt>0</asrwt>
<pdfrwt beam="1">  1        1 0.87134778E-01 0.75016365E+03</pdfrwt>
<pdfrwt beam="2">  1       -1 0.10895494E+00 0.75016365E+03</pdfrwt>
<totfact> 0.29747637E+01</totfact>
</mgrwt>
</event>
<event>
 4    1  0.1065596E-007  0.8474691E+03  0.7818608E-02  0.9616254E-01
          1   -1    0    0  501    0  0.00000000000E+00  0.00000000000E+00  0.92616001989E+03  0.92616001990E+03  0.50400000000E-02 0. -1.
         -1   -1    0    0    0  501 -0.00000000000E+00 -0.00000000000E+00 -0.11870839464E+04  0.11870839464E+04  0.50400000000E-02 0.  1.
    8880023    1    1    2    0    0 -0.52696480197E+03 -0.81864567244E+02  0.63533276754E+03  0.10591749816E+04  0.65864270000E+03 0. -1.
    8880022    1    1    2    0    0  0.52696480197E+03  0.81864567244E+02 -0.89625669402E+03  0.10540689847E+04  0.15294330000E+03 0.  0.
<mgrwt>
<rscale>  0 0.76229647E+03</rscale>
<asrwt>0</asrwt>
<pdfrwt beam="1">  1        1 0.14248616E+00 0.84746912E+03</pdfrwt>
<pdfrwt beam="2">  1       -1 0.18262830E+00 0.84746912E+03</pdfrwt>
<totfact> 0.35332758E+00</totfact>
</mgrwt>
</event>
<event>
 4    1  0.1065596E-007  0.7273949E+03  0.7818608E-02  0.9898315E-01
         -1   -1    0    0    0  501 -0.00000000000E+00  0.00000000000E+00  0.10707763567E+04  0.10707763568E+04  0.50400000000E-02 0.  1.
          1   -1    0    0  501    0  0.00000000000E+00 -0.00000000000E+00 -0.84518628905E+03  0.84518628907E+03  0.50400000000E-02 0. -1.
    8880023    1    1    2    0    0  0.30823875548E+03 -0.16793685752E+02 -0.64970847394E+03  0.97530736983E+03  0.65864270000E+03 0.  0.
    8880022    1    1    2    0    0 -0.30823875548E+03  0.16793685752E+02  0.87529854163E+03  0.94065527600E+03  0.15294330000E+03 0.  0.
<mgrwt>
<rscale>  0 0.60343027E+03</rscale>
<asrwt>0</asrwt>
<pdfrwt beam="1">  1        1 0.13002866E+00 0.72739492E+03</pdfrwt>
<pdfrwt beam="2">  1       -1 0.16473482E+00 0.72739492E+03</pdfrwt>
<totfact> 0.56524267E+00</totfact>
</mgrwt>
</event>
<event>
 4    1  0.1065596E-007  0.7430281E+03  0.7818608E-02  0.9851213E-01
          1   -1    0    0  501    0  0.00000000000E+00  0.00000000000E+00  0.20974920994E+04  0.20974920994E+04  0.50400000000E-02 0. -1.
         -1   -1    0    0    0  501 -0.00000000000E+00 -0.00000000000E+00 -0.35851590788E+03  0.35851590792E+03  0.50400000000E-02 0.  1.
    8880023    1    1    2    0    0  0.32561527859E+03  0.11070367192E+03  0.19048854558E+04  0.20446709805E+04  0.65864270000E+03 0. -1.
    8880022    1    1    2    0    0 -0.32561527859E+03 -0.11070367192E+03 -0.16590926428E+03  0.41133702680E+03  0.15294330000E+03 0.  0.
<mgrwt>
<rscale>  0 0.62685133E+03</rscale>
<asrwt>0</asrwt>
<pdfrwt beam="1">  1        1 0.32269110E+00 0.74302814E+03</pdfrwt>
<pdfrwt beam="2">  1       -1 0.55156292E-01 0.74302814E+03</pdfrwt>
<totfact> 0.89202646E+00</totfact>
</mgrwt>
</event>
<event>
 4    1  0.1065596E-007  0.1332496E+04  0.7818608E-02  0.9037994E-01
          1   -1    0    0  501    0  0.00000000000E+00  0.00000000000E+00  0.29459720869E+04  0.29459720869E+04  0.50400000000E-02 0. -1.
         -1   -1    0    0    0  501 -0.00000000000E+00 -0.00000000000E+00 -0.89778984853E+03  0.89778984854E+03  0.50400000000E-02 0.  1.
    8880023    1    1    2    0    0  0.99616624879E+03  0.59109026374E+03  0.22910796928E+04  0.26503945480E+04  0.65864270000E+03 0.  0.
    8880022    1    1    2    0    0 -0.99616624879E+03 -0.59109026374E+03 -0.24289745438E+03  0.11933673875E+04  0.15294330000E+03 0.  0.
<mgrwt>
<rscale>  0 0.12894248E+04</rscale>
<asrwt>0</asrwt>
<pdfrwt beam="1">  1        1 0.45322647E+00 0.13324958E+04</pdfrwt>
<pdfrwt beam="2">  1       -1 0.13812152E+00 0.13324958E+04</pdfrwt>
<totfact> 0.27671439E-01</totfact>
</mgrwt>
</event>
<event>
 4    1  0.1065596E-007  0.9031806E+03  0.7818608E-02  0.9520945E-01
         -1   -1    0    0    0  501 -0.00000000000E+00  0.00000000000E+00  0.12446600901E+04  0.12446600901E+04  0.50400000000E-02 0.  1.
          1   -1    0    0  501    0  0.00000000000E+00 -0.00000000000E+00 -0.60507942220E+03  0.60507942222E+03  0.50400000000E-02 0. -1.
    8880023    1    1    2    0    0 -0.51601151899E+02 -0.61584269177E+03 -0.58342826712E+02  0.90506297658E+03  0.65864270000E+03 0.  0.
    8880022    1    1    2    0    0  0.51601151899E+02  0.61584269177E+03  0.69792349465E+03  0.94467653579E+03  0.15294330000E+03 0.  0.
<mgrwt>
<rscale>  0 0.82757093E+03</rscale>
<asrwt>0</asrwt>
<pdfrwt beam="1">  1        1 0.93089144E-01 0.90318055E+03</pdfrwt>
<pdfrwt beam="2">  1       -1 0.19148616E+00 0.90318055E+03</pdfrwt>
<totfact> 0.59212517E+00</totfact>
</mgrwt>
</event>
<event>
 4    1  0.1065596E-007  0.7295948E+03  0.7818608E-02  0.9891364E-01
         -1   -1    0    0    0  501 -0.00000000000E+00  0.00000000000E+00  0.40044427842E+03  0.40044427845E+03  0.50400000000E-02 0.  1.
          1   -1    0    0  501    0  0.00000000000E+00 -0.00000000000E+00 -0.17776507337E+04  0.17776507337E+04  0.50400000000E-02 0. -1.
    8880023    1    1    2    0    0 -0.31041156630E+03 -0.46293313567E+02 -0.16037490971E+04  0.17619079954E+04  0.65864270000E+03 0. -1.
    8880022    1    1    2    0    0  0.31041156630E+03  0.46293313567E+02  0.22654264182E+03  0.41618701680E+03  0.15294330000E+03 0.  0.
<mgrwt>
<rscale>  0 0.60681646E+03</rscale>
<asrwt>0</asrwt>
<pdfrwt beam="1">  1        1 0.27348472E+00 0.72959483E+03</pdfrwt>
<pdfrwt beam="2">  1       -1 0.61606813E-01 0.72959483E+03</pdfrwt>
<totfact> 0.11779666E+01</totfact>
</mgrwt>
</event>
<event>
 4    1  0.1065596E-007  0.7035336E+03  0.7818608E-02  0.9982847E-01
         -1   -1    0    0    0  501 -0.00000000000E+00  0.00000000000E+00  0.98657247785E+03  0.98657247786E+03  0.50400000000E-02 0.  1.
          1   -1    0    0  501    0  0.00000000000E+00 -0.00000000000E+00 -0.30299916091E+03  0.30299916095E+03  0.50400000000E-02 0. -1.
    8880023    1    1    2    0    0  0.10523899284E+03 -0.22377222448E+03  0.21060840435E+03  0.73438093678E+03  0.65864270000E+03 0. -1.
    8880022    1    1    2    0    0 -0.10523899284E+03  0.22377222448E+03  0.47296491259E+03  0.55519070203E+03  0.15294330000E+03 0.  0.
<mgrwt>
<rscale>  0 0.56408815E+03</rscale>
<asrwt>0</asrwt>
<pdfrwt beam="1">  1        1 0.46615256E-01 0.70353355E+03</pdfrwt>
<pdfrwt beam="2">  1       -1 0.15178038E+00 0.70353355E+03</pdfrwt>
<totfact> 0.30048946E+01</totfact>
</mgrwt>
</event>
<event>
 4    1  0.1065596E-007  0.7471628E+03  0.7818608E-02  0.9839553E-01
         -1   -1    0    0    0  501 -0.00000000000E+00  0.00000000000E+00  0.30847744467E+03  0.30847744471E+03  0.50400000000E-02 0.  1.
          1   -1    0    0  501    0  0.00000000000E+00 -0.00000000000E+00 -0.21090745976E+04  0.21090745976E+04  0.50400000000E-02 0. -1.
    8880023    1    1    2    0    0 -0.12953981822E+03 -0.32811814035E+03 -0.18816907572E+04  0.20246017857E+04  0.65864270000E+03 0.  0.
    8880022    1    1    2    0    0  0.12953981822E+03  0.32811814035E+03  0.81093604265E+02  0.39295025665E+03  0.15294330000E+03 0.  0.
<mgrwt>
<rscale>  0 0.63282428E+03</rscale>
<asrwt>0</asrwt>
<pdfrwt beam="1">  1        1 0.32447301E+00 0.74716282E+03</pdfrwt>
<pdfrwt beam="2">  1       -1 0.47458070E-01 0.74716282E+03</pdfrwt>
<totfact> 0.11656889E+01</totfact>
</mgrwt>
</event>
<event>
 4    1  0.1065596E-007  0.1051806E+04  0.7818608E-02  0.9316713E-01
          1   -1    0    0  501    0  0.00000000000E+00  0.00000000000E+00  0.25838855371E+04  0.25838855371E+04  0.50400000000E-02 0. -1.
         -1   -1    0    0    0  501 -0.00000000000E+00 -0.00000000000E+00 -0.46445687386E+03  0.46445687389E+03  0.50400000000E-02 0.  1.
    8880023    1    1    2    0    0 -0.70088843511E+03  0.42572516429E+03  0.19221974048E+04  0.21911502877E+04  0.65864270000E+03 0. -1.
    8880022    1    1    2    0    0  0.70088843511E+03 -0.42572516429E+03  0.19723125848E+03  0.85719212334E+03  0.15294330000E+03 0.  0.
<mgrwt>
<rscale>  0 0.99258683E+03</rscale>
<asrwt>0</asrwt>
<pdfrwt beam="1">  1        1 0.39752085E+00 0.10518064E+04</pdfrwt>
<pdfrwt beam="2">  1       -1 0.71454904E-01 0.10518064E+04</pdfrwt>
<totfact> 0.23715787E+00</totfact>
</mgrwt>
</event>
<event>
 4    1  0.1065596E-007  0.6876805E+03  0.7818608E-02  0.1005275E+00
         -1   -1    0    0    0  501 -0.00000000000E+00  0.00000000000E+00  0.18525471762E+03  0.18525471769E+03  0.50400000000E-02 0.  1.
          1   -1    0    0  501    0  0.00000000000E+00 -0.00000000000E+00 -0.32876910683E+04  0.32876910683E+04  0.50400000000E-02 0. -1.
    8880023    1    1    2    0    0  0.18150067243E+03 -0.78432801622E+02 -0.31450615816E+04  0.32193658936E+04  0.65864270000E+03 0. -1.
    8880022    1    1    2    0    0 -0.18150067243E+03  0.78432801622E+02  0.42625230989E+02  0.25357989233E+03  0.15294330000E+03 0.  0.
<mgrwt>
<rscale>  0 0.53396491E+03</rscale>
<asrwt>0</asrwt>
<pdfrwt beam="1">  1        1 0.50579858E+00 0.68768045E+03</pdfrwt>
<pdfrwt beam="2">  1       -1 0.28500728E-01 0.68768045E+03</pdfrwt>
<totfact> 0.44314586E+00</totfact>
</mgrwt>
</event>
<event>
 4    1  0.1065596E-007  0.9259338E+03  0.7818608E-02  0.9485620E-01
          1   -1    0    0  501    0  0.00000000000E+00  0.00000000000E+00  0.20060587155E+04  0.20060587155E+04  0.50400000000E-02 0. -1.
         -1   -1    0    0    0  501 -0.00000000000E+00 -0.00000000000E+00 -0.93388185123E+03  0.93388185124E+03  0.50400000000E-02 0.  1.
    8880023    1    1    2    0    0  0.59172703375E+03 -0.27092863660E+03  0.17550325190E+04  0.19843116080E+04  0.65864270000E+03 0.  0.
    8880022    1    1    2    0    0 -0.59172703375E+03  0.27092863660E+03 -0.68285565473E+03  0.95562895876E+03  0.15294330000E+03 0.  0.
<mgrwt>
<rscale>  0 0.85352350E+03</rscale>
<asrwt>0</asrwt>
<pdfrwt beam="1">  1        1 0.30862441E+00 0.92593381E+03</pdfrwt>
<pdfrwt beam="2">  1       -1 0.14367413E+00 0.92593381E+03</pdfrwt>
<totfact> 0.11825204E+00</totfact>
</mgrwt>
</event>
<event>
 4    1  0.1065596E-007  0.1061742E+04  0.7818608E-02  0.9304898E-01
         -1   -1    0    0    0  501 -0.00000000000E+00  0.00000000000E+00  0.12372318051E+04  0.12372318051E+04  0.50400000000E-02 0.  1.
          1   -1    0    0  501    0  0.00000000000E+00 -0.00000000000E+00 -0.12504431863E+04  0.12504431863E+04  0.50400000000E-02 0. -1.
    8880023    1    1    2    0    0  0.57039774954E+03 -0.60673826709E+03 -0.80191793453E+03  0.13305515764E+04  0.65864270000E+03 0. -1.
    8880022    1    1    2    0    0 -0.57039774954E+03  0.60673826709E+03  0.78870655325E+03  0.11571234150E+04  0.15294330000E+03 0.  0.
<mgrwt>
<rscale>  0 0.10033320E+04</rscale>
<asrwt>0</asrwt>
<pdfrwt beam="1">  1        1 0.19237587E+00 0.10617416E+04</pdfrwt>
<pdfrwt beam="2">  1       -1 0.19034335E+00 0.10617416E+04</pdfrwt>
<totfact> 0.17196121E+00</totfact>
</mgrwt>
</event>
<event>
 4    1  0.1065596E-007  0.6769577E+03  0.7818608E-02  0.1011100E+00
          1   -1    0    0  501    0  0.00000000000E+00  0.00000000000E+00  0.24904740739E+04  0.24904740739E+04  0.50400000000E-02 0. -1.
         -1   -1    0    0    0  501 -0.00000000000E+00 -0.00000000000E+00 -0.10169477431E+03  0.10169477444E+03  0.50400000000E-02 0.  1.
    8880023    1    1    2    0    0 -0.10727867637E+03  0.11381046168E+03  0.22046344511E+04  0.23062273966E+04  0.65864270000E+03 0.  0.
    8880022    1    1    2    0    0  0.10727867637E+03 -0.11381046168E+03  0.18414484850E+03  0.28594145176E+03  0.15294330000E+03 0.  0.
<mgrwt>
<rscale>  0 0.51039923E+03</rscale>
<asrwt>0</asrwt>
<pdfrwt beam="1">  1        1 0.38314986E+00 0.67695771E+03</pdfrwt>
<pdfrwt beam="2">  1       -1 0.15645350E-01 0.67695771E+03</pdfrwt>
<totfact> 0.44497305E+01</totfact>
</mgrwt>
</event>
<event>
 4    1  0.1065596E-007  0.7105201E+03  0.7818608E-02  0.9956075E-01
          1   -1    0    0  501    0  0.00000000000E+00  0.00000000000E+00  0.18789679909E+04  0.18789679909E+04  0.50400000000E-02 0. -1.
         -1   -1    0    0    0  501 -0.00000000000E+00 -0.00000000000E+00 -0.36414173768E+03  0.36414173772E+03  0.50400000000E-02 0.  1.
    8880023    1    1    2    0    0  0.14154118897E+03  0.22582009834E+03  0.17285030882E+04  0.18688396820E+04  0.65864270000E+03 0. -1.
    8880022    1    1    2    0    0 -0.14154118897E+03 -0.22582009834E+03 -0.21367683495E+03  0.37427004662E+03  0.15294330000E+03 0.  0.
<mgrwt>
<rscale>  0 0.57618964E+03</rscale>
<asrwt>0</asrwt>
<pdfrwt beam="1">  1        1 0.28907200E+00 0.71052011E+03</pdfrwt>
<pdfrwt beam="2">  1       -1 0.56021806E-01 0.71052011E+03</pdfrwt>
<totfact> 0.12177380E+01</totfact>
</mgrwt>
</event>
<event>
 4    1  0.1065596E-007  0.9111906E+03  0.7818608E-02  0.9508301E-01
          1   -1    0    0  501    0  0.00000000000E+00  0.00000000000E+00  0.31580213466E+04  0.31580213467E+04  0.50400000000E-02 0. -1.
         -1   -1    0    0    0  501 -0.00000000000E+00 -0.00000000000E+00 -0.10802925207E+04  0.10802925207E+04  0.50400000000E-02 0.  1.
    8880023    1    1    2    0    0 -0.25468030189E+03  0.57584376954E+03  0.29863796536E+04  0.31222959093E+04  0.65864270000E+03 0. -1.
    8880022    1    1    2    0    0  0.25468030189E+03 -0.57584376954E+03 -0.90865082767E+03  0.11160179581E+04  0.15294330000E+03 0.  0.
<mgrwt>
<rscale>  0 0.83674603E+03</rscale>
<asrwt>0</asrwt>
<pdfrwt beam="1">  1        1 0.48584943E+00 0.91119060E+03</pdfrwt>
<pdfrwt beam="2">  1       -1 0.16619885E+00 0.91119060E+03</pdfrwt>
<totfact> 0.12612834E-01</totfact>
</mgrwt>
</event>
<event>
 4    1  0.1065596E-007  0.6823478E+03  0.7818608E-02  0.1008026E+00
         -1   -1    0    0    0  501 -0.00000000000E+00  0.00000000000E+00  0.15539304356E+04  0.15539304356E+04  0.50400000000E-02 0.  1.
          1   -1    0    0  501    0  0.00000000000E+00 -0.00000000000E+00 -0.43956295617E+03  0.43956295620E+03  0.50400000000E-02 0. -1.
    8880023    1    1    2    0    0 -0.17398627778E+03 -0.38950575127E+02 -0.15735613692E+03  0.70025676166E+03  0.65864270000E+03 0. -1.
    8880022    1    1    2    0    0  0.17398627778E+03  0.38950575127E+02  0.12717236163E+04  0.12932366301E+04  0.15294330000E+03 0.  0.
<mgrwt>
<rscale>  0 0.52266944E+03</rscale>
<asrwt>0</asrwt>
<pdfrwt beam="1">  1        1 0.67625070E-01 0.68234784E+03</pdfrwt>
<pdfrwt beam="2">  1       -1 0.23906622E+00 0.68234784E+03</pdfrwt>
<totfact> 0.45643672E+00</totfact>
</mgrwt>
</event>
<event>
 4    1  0.1065596E-007  0.1034908E+04  0.7818608E-02  0.9337248E-01
          1   -1    0    0  501    0  0.00000000000E+00  0.00000000000E+00  0.11085711695E+04  0.11085711695E+04  0.50400000000E-02 0. -1.
         -1   -1    0    0    0  501 -0.00000000000E+00 -0.00000000000E+00 -0.97972752632E+03  0.97972752634E+03  0.50400000000E-02 0.  1.
    8880023    1    1    2    0    0 -0.78602695920E+03 -0.13923061381E+03 -0.40995562421E+03  0.11131475035E+04  0.65864270000E+03 0.  1.
    8880022    1    1    2    0    0  0.78602695920E+03  0.13923061381E+03  0.53879926733E+03  0.97515119233E+03  0.15294330000E+03 0.  0.
<mgrwt>
<rscale>  0 0.97424852E+03</rscale>
<asrwt>0</asrwt>
<pdfrwt beam="1">  1        1 0.17054941E+00 0.10349076E+04</pdfrwt>
<pdfrwt beam="2">  1       -1 0.15072731E+00 0.10349076E+04</pdfrwt>
<totfact> 0.42969784E+00</totfact>
</mgrwt>
</event>
<event>
 4    1  0.1065596E-007  0.9602878E+03  0.7818608E-02  0.9435464E-01
         -1   -1    0    0    0  501 -0.00000000000E+00  0.00000000000E+00  0.14038969638E+04  0.14038969638E+04  0.50400000000E-02 0.  1.
          1   -1    0    0  501    0  0.00000000000E+00 -0.00000000000E+00 -0.53646972398E+03  0.53646972400E+03  0.50400000000E-02 0. -1.
    8880023    1    1    2    0    0  0.61200465148E+03  0.33733178264E+03  0.24236676595E+03  0.99040107053E+03  0.65864270000E+03 0.  1.
    8880022    1    1    2    0    0 -0.61200465148E+03 -0.33733178264E+03  0.62506047390E+03  0.94996561731E+03  0.15294330000E+03 0.  0.
<mgrwt>
<rscale>  0 0.89213709E+03</rscale>
<asrwt>0</asrwt>
<pdfrwt beam="1">  1        1 0.82533803E-01 0.96028779E+03</pdfrwt>
<pdfrwt beam="2">  1       -1 0.21598415E+00 0.96028779E+03</pdfrwt>
<totfact> 0.47516223E+00</totfact>
</mgrwt>
</event>
<event>
 4    1  0.1065596E-007  0.1099833E+04  0.7818608E-02  0.9261242E-01
         -1   -1    0    0    0  501 -0.00000000000E+00  0.00000000000E+00  0.85443593867E+03  0.85443593869E+03  0.50400000000E-02 0.  1.
          1   -1    0    0  501    0  0.00000000000E+00 -0.00000000000E+00 -0.31894766952E+04  0.31894766952E+04  0.50400000000E-02 0. -1.
    8880023    1    1    2    0    0  0.74713870975E+03 -0.46648250547E+03 -0.28199811682E+04  0.30268673864E+04  0.65864270000E+03 0. -1.
    8880022    1    1    2    0    0 -0.74713870975E+03  0.46648250547E+03  0.48494041170E+03  0.10170452475E+04  0.15294330000E+03 0.  0.
<mgrwt>
<rscale>  0 0.10443063E+04</rscale>
<asrwt>0</asrwt>
<pdfrwt beam="1">  1        1 0.49068872E+00 0.10998329E+04</pdfrwt>
<pdfrwt beam="2">  1       -1 0.13145168E+00 0.10998329E+04</pdfrwt>
<totfact> 0.21626300E-01</totfact>
</mgrwt>
</event>
<event>
 4    1  0.1065596E-007  0.7038283E+03  0.7818608E-02  0.9981676E-01
         -1   -1    0    0    0  501 -0.00000000000E+00  0.00000000000E+00  0.24467817732E+03  0.24467817738E+03  0.50400000000E-02 0.  1.
          1   -1    0    0  501    0  0.00000000000E+00 -0.00000000000E+00 -0.13698663422E+04  0.13698663422E+04  0.50400000000E-02 0. -1.
    8880023    1    1    2    0    0  0.23497638517E+03 -0.79687696321E+02 -0.11202850722E+04  0.13230317002E+04  0.65864270000E+03 0. -1.
    8880022    1    1    2    0    0 -0.23497638517E+03  0.79687696321E+02 -0.49030926966E+01  0.29151281938E+03  0.15294330000E+03 0.  0.
<mgrwt>
<rscale>  0 0.56461068E+03</rscale>
<asrwt>0</asrwt>
<pdfrwt beam="1">  1        1 0.21074866E+00 0.70382827E+03</pdfrwt>
<pdfrwt beam="2">  1       -1 0.37642797E-01 0.70382827E+03</pdfrwt>
<totfact> 0.56597561E+01</totfact>
</mgrwt>
</event>
<event>
 4    1  0.1065596E-007  0.1022747E+04  0.7818608E-02  0.9352385E-01
          1   -1    0    0  501    0  0.00000000000E+00  0.00000000000E+00  0.24388971935E+04  0.24388971935E+04  0.50400000000E-02 0. -1.
         -1   -1    0    0    0  501 -0.00000000000E+00 -0.00000000000E+00 -0.36489445488E+03  0.36489445491E+03  0.50400000000E-02 0.  1.
    8880023    1    1    2    0    0  0.77141473147E+02  0.77862075095E+03  0.15234931204E+04  0.18349502922E+04  0.65864270000E+03 0. -1.
    8880022    1    1    2    0    0 -0.77141473147E+02 -0.77862075095E+03  0.55050961818E+03  0.96884135617E+03  0.15294330000E+03 0.  1.
<mgrwt>
<rscale>  0 0.96100026E+03</rscale>
<asrwt>0</asrwt>
<pdfrwt beam="1">  1        1 0.37521494E+00 0.10227469E+04</pdfrwt>
<pdfrwt beam="2">  1       -1 0.56137610E-01 0.10227469E+04</pdfrwt>
<totfact> 0.48647899E+00</totfact>
</mgrwt>
</event>
<event>
 4    1  0.1065596E-007  0.8932949E+03  0.7818608E-02  0.9536882E-01
          1   -1    0    0  501    0  0.00000000000E+00  0.00000000000E+00  0.19586700586E+04  0.19586700586E+04  0.50400000000E-02 0. -1.
         -1   -1    0    0    0  501 -0.00000000000E+00 -0.00000000000E+00 -0.87989954694E+03  0.87989954695E+03  0.50400000000E-02 0.  1.
    8880023    1    1    2    0    0  0.20723465597E+03 -0.56676221919E+03  0.17241798257E+04  0.19418475463E+04  0.65864270000E+03 0.  0.
    8880022    1    1    2    0    0 -0.20723465597E+03  0.56676221919E+03 -0.64540931405E+03  0.89672205918E+03  0.15294330000E+03 0.  0.
<mgrwt>
<rscale>  0 0.81618411E+03</rscale>
<asrwt>0</asrwt>
<pdfrwt beam="1">  1        1 0.30133386E+00 0.89329492E+03</pdfrwt>
<pdfrwt beam="2">  1       -1 0.13536916E+00 0.89329492E+03</pdfrwt>
<totfact> 0.14942822E+00</totfact>
</mgrwt>
</event>
<event>
 4    1  0.1065596E-007  0.1008593E+04  0.7818608E-02  0.9370401E-01
          1   -1    0    0  501    0  0.00000000000E+00  0.00000000000E+00  0.15162676879E+04  0.15162676879E+04  0.50400000000E-02 0. -1.
         -1   -1    0    0    0  501 -0.00000000000E+00 -0.00000000000E+00 -0.10265133234E+04  0.10265133234E+04  0.50400000000E-02 0.  1.
    8880023    1    1    2    0    0 -0.76142212686E+03  0.60708612184E+02  0.11442655067E+04  0.15253206046E+04  0.65864270000E+03 0. -1.
    8880022    1    1    2    0    0  0.76142212686E+03 -0.60708612184E+02 -0.65451114223E+03  0.10174604067E+04  0.15294330000E+03 0.  0.
<mgrwt>
<rscale>  0 0.94552114E+03</rscale>
<asrwt>0</asrwt>
<pdfrwt beam="1">  1        1 0.23327195E+00 0.10085928E+04</pdfrwt>
<pdfrwt beam="2">  1       -1 0.15792513E+00 0.10085928E+04</pdfrwt>
<totfact> 0.19405851E+00</totfact>
</mgrwt>
</event>
<event>
 4    1  0.1065596E-007  0.1103611E+04  0.7818608E-02  0.9257046E-01
         -1   -1    0    0    0  501 -0.00000000000E+00  0.00000000000E+00  0.10894402166E+04  0.10894402166E+04  0.50400000000E-02 0.  1.
          1   -1    0    0  501    0  0.00000000000E+00 -0.00000000000E+00 -0.11769040790E+04  0.11769040790E+04  0.50400000000E-02 0. -1.
    8880023    1    1    2    0    0 -0.23585768290E+03  0.85353267554E+03 -0.57453015934E+03  0.12442033536E+04  0.65864270000E+03 0.  0.
    8880022    1    1    2    0    0  0.23585768290E+03 -0.85353267554E+03  0.48706629697E+03  0.10221409421E+04  0.15294330000E+03 0.  0.
<mgrwt>
<rscale>  0 0.10483527E+04</rscale>
<asrwt>0</asrwt>
<pdfrwt beam="1">  1        1 0.18106217E+00 0.11036109E+04</pdfrwt>
<pdfrwt beam="2">  1       -1 0.16760619E+00 0.11036109E+04</pdfrwt>
<totfact> 0.28225192E+00</totfact>
</mgrwt>
</event>
<event>
 4    1  0.1065596E-007  0.1077735E+04  0.7818608E-02  0.9286260E-01
          1   -1    0    0  501    0  0.00000000000E+00  0.00000000000E+00  0.16960819825E+04  0.16960819825E+04  0.50400000000E-02 0. -1.
         -1   -1    0    0    0  501 -0.00000000000E+00 -0.00000000000E+00 -0.78981417057E+03  0.78981417058E+03  0.50400000000E-02 0.  1.
    8880023    1    1    2    0    0 -0.29817673746E+03 -0.79924564545E+03  0.11594800749E+04  0.15830057545E+04  0.65864270000E+03 0. -1.
    8880022    1    1    2    0    0  0.29817673746E+03  0.79924564545E+03 -0.25321226303E+03  0.90289039850E+03  0.15294330000E+03 0.  0.
<mgrwt>
<rscale>  0 0.10205773E+04</rscale>
<asrwt>0</asrwt>
<pdfrwt beam="1">  1        1 0.26093569E+00 0.10777352E+04</pdfrwt>
<pdfrwt beam="2">  1       -1 0.12150987E+00 0.10777352E+04</pdfrwt>
<totfact> 0.28709649E+00</totfact>
</mgrwt>
</event>
<event>
 4    1  0.1065596E-007  0.1178913E+04  0.7818608E-02  0.9177897E-01
         -1   -1    0    0    0  501 -0.00000000000E+00  0.00000000000E+00  0.10255440384E+04  0.10255440385E+04  0.50400000000E-02 0.  1.
          1   -1    0    0  501    0  0.00000000000E+00 -0.00000000000E+00 -0.12996147036E+04  0.12996147036E+04  0.50400000000E-02 0. -1.
    8880023    1    1    2    0    0  0.19505220154E+03 -0.95811335449E+03 -0.54543230262E+03  0.12989738890E+04  0.65864270000E+03 0.  1.
    8880022    1    1    2    0    0 -0.19505220154E+03  0.95811335449E+03  0.27136163743E+03  0.10261848531E+04  0.15294330000E+03 0.  0.
<mgrwt>
<rscale>  0 0.11284503E+04</rscale>
<asrwt>0</asrwt>
<pdfrwt beam="1">  1        1 0.19994072E+00 0.11789134E+04</pdfrwt>
<pdfrwt beam="2">  1       -1 0.15777601E+00 0.11789134E+04</pdfrwt>
<totfact> 0.27035930E+00</totfact>
</mgrwt>
</event>
<event>
 4    1  0.1065596E-007  0.1090400E+04  0.7818608E-02  0.9271821E-01
          1   -1    0    0  501    0  0.00000000000E+00  0.00000000000E+00  0.82293661139E+03  0.82293661141E+03  0.50400000000E-02 0. -1.
         -1   -1    0    0    0  501 -0.00000000000E+00 -0.00000000000E+00 -0.15034904346E+04  0.15034904347E+04  0.50400000000E-02 0.  1.
    8880023    1    1    2    0    0  0.79005381141E+03  0.36190705883E+03  0.16680312067E+03  0.11030844172E+04  0.65864270000E+03 0.  0.
    8880022    1    1    2    0    0 -0.79005381141E+03 -0.36190705883E+03 -0.84735694393E+03  0.12233426289E+04  0.15294330000E+03 0.  0.
<mgrwt>
<rscale>  0 0.10341902E+04</rscale>
<asrwt>0</asrwt>
<pdfrwt beam="1">  1        1 0.12660563E+00 0.10903999E+04</pdfrwt>
<pdfrwt beam="2">  1       -1 0.23130622E+00 0.10903999E+04</pdfrwt>
<totfact> 0.19446133E+00</totfact>
</mgrwt>
</event>
<event>
 4    1  0.1065596E-007  0.6899637E+03  0.7818608E-02  0.1004170E+00
         -1   -1    0    0    0  501 -0.00000000000E+00  0.00000000000E+00  0.64688116632E+03  0.64688116634E+03  0.50400000000E-02 0.  1.
          1   -1    0    0  501    0  0.00000000000E+00 -0.00000000000E+00 -0.17213240697E+04  0.17213240697E+04  0.50400000000E-02 0. -1.
    8880023    1    1    2    0    0 -0.17046918443E+03 -0.11480370297E+03 -0.16225645514E+04  0.17631691816E+04  0.65864270000E+03 0. -1.
    8880022    1    1    2    0    0  0.17046918443E+03  0.11480370297E+03  0.54812164808E+03  0.60503605444E+03  0.15294330000E+03 0.  0.
<mgrwt>
<rscale>  0 0.53859029E+03</rscale>
<asrwt>0</asrwt>
<pdfrwt beam="1">  1        1 0.26481909E+00 0.68996365E+03</pdfrwt>
<pdfrwt beam="2">  1       -1 0.99520180E-01 0.68996365E+03</pdfrwt>
<totfact> 0.46945612E+00</totfact>
</mgrwt>
</event>
<event>
 4    1  0.1065596E-007  0.8708791E+03  0.7818608E-02  0.9574497E-01
         -1   -1    0    0    0  501 -0.00000000000E+00  0.00000000000E+00  0.90995393193E+03  0.90995393195E+03  0.50400000000E-02 0.  1.
          1   -1    0    0  501    0  0.00000000000E+00 -0.00000000000E+00 -0.14936360487E+04  0.14936360487E+04  0.50400000000E-02 0. -1.
    8880023    1    1    2    0    0  0.35073725291E+03 -0.44900282001E+03 -0.12437402794E+04  0.15183281074E+04  0.65864270000E+03 0. -1.
    8880022    1    1    2    0    0 -0.35073725291E+03  0.44900282001E+03  0.66005816268E+03  0.88526187318E+03  0.15294330000E+03 0.  0.
<mgrwt>
<rscale>  0 0.79007376E+03</rscale>
<asrwt>0</asrwt>
<pdfrwt beam="1">  1        1 0.22979016E+00 0.87087907E+03</pdfrwt>
<pdfrwt beam="2">  1       -1 0.13999291E+00 0.87087907E+03</pdfrwt>
<totfact> 0.28368934E+00</totfact>
</mgrwt>
</event>
<event>
 4    1  0.1065596E-007  0.8157827E+03  0.7818608E-02  0.9677655E-01
         -1   -1    0    0    0  501 -0.00000000000E+00  0.00000000000E+00  0.41916518054E+03  0.41916518057E+03  0.50400000000E-02 0.  1.
          1   -1    0    0  501    0  0.00000000000E+00 -0.00000000000E+00 -0.12355469104E+04  0.12355469104E+04  0.50400000000E-02 0. -1.
    8880023    1    1    2    0    0  0.16455005091E+03 -0.45234326221E+03 -0.81000770716E+03  0.11496146476E+04  0.65864270000E+03 0.  1.
    8880022    1    1    2    0    0 -0.16455005091E+03  0.45234326221E+03 -0.63740227294E+01  0.50509744337E+03  0.15294330000E+03 0.  0.
<mgrwt>
<rscale>  0 0.72362906E+03</rscale>
<asrwt>0</asrwt>
<pdfrwt beam="1">  1        1 0.19008414E+00 0.81578266E+03</pdfrwt>
<pdfrwt beam="2">  1       -1 0.64486951E-01 0.81578266E+03</pdfrwt>
<totfact> 0.25096898E+01</totfact>
</mgrwt>
</event>
<event>
 4    1  0.1065596E-007  0.1187752E+04  0.7818608E-02  0.9169121E-01
         -1   -1    0    0    0  501 -0.00000000000E+00  0.00000000000E+00  0.79587666190E+03  0.79587666192E+03  0.50400000000E-02 0.  1.
          1   -1    0    0  501    0  0.00000000000E+00 -0.00000000000E+00 -0.24429536533E+04  0.24429536533E+04  0.50400000000E-02 0. -1.
    8880023    1    1    2    0    0 -0.64289195239E+03  0.75075571795E+03 -0.18688668934E+04  0.22143662484E+04  0.65864270000E+03 0.  0.
    8880022    1    1    2    0    0  0.64289195239E+03 -0.75075571795E+03  0.22178990205E+03  0.10244640668E+04  0.15294330000E+03 0.  0.
<mgrwt>
<rscale>  0 0.11377910E+04</rscale>
<asrwt>0</asrwt>
<pdfrwt beam="1">  1        1 0.37583902E+00 0.11877518E+04</pdfrwt>
<pdfrwt beam="2">  1       -1 0.12244256E+00 0.11877518E+04</pdfrwt>
<totfact> 0.86498462E-01</totfact>
</mgrwt>
</event>
<event>
 4    1  0.1065596E-007  0.1036527E+04  0.7818608E-02  0.9335256E-01
          1   -1    0    0  501    0  0.00000000000E+00  0.00000000000E+00  0.13037150717E+04  0.13037150717E+04  0.50400000000E-02 0. -1.
         -1   -1    0    0    0  501 -0.00000000000E+00 -0.00000000000E+00 -0.15910112206E+04  0.15910112206E+04  0.50400000000E-02 0.  1.
    8880023    1    1    2    0    0  0.68242019368E+03  0.41818637957E+03  0.95476016716E+03  0.14092389265E+04  0.65864270000E+03 0.  0.
    8880022    1    1    2    0    0 -0.68242019368E+03 -0.41818637957E+03 -0.12420563160E+04  0.14854873658E+04  0.15294330000E+03 0.  0.
<mgrwt>
<rscale>  0 0.97600894E+03</rscale>
<asrwt>0</asrwt>
<pdfrwt beam="1">  1        1 0.20057155E+00 0.10365266E+04</pdfrwt>
<pdfrwt beam="2">  1       -1 0.24477095E+00 0.10365266E+04</pdfrwt>
<totfact> 0.68053323E-01</totfact>
</mgrwt>
</event>
<event>
 4    1  0.1065596E-007  0.8138332E+03  0.7818608E-02  0.9681647E-01
          1   -1    0    0  501    0  0.00000000000E+00  0.00000000000E+00  0.10420533978E+04  0.10420533978E+04  0.50400000000E-02 0. -1.
         -1   -1    0    0    0  501 -0.00000000000E+00 -0.00000000000E+00 -0.63994915929E+03  0.63994915931E+03  0.50400000000E-02 0.  1.
    8880023    1    1    2    0    0  0.14463554658E+03  0.45562566934E+03  0.72107104317E+03  0.10873214095E+04  0.65864270000E+03 0. -1.
    8880022    1    1    2    0    0 -0.14463554658E+03 -0.45562566934E+03 -0.31896680467E+03  0.59468114767E+03  0.15294330000E+03 0.  0.
<mgrwt>
<rscale>  0 0.72120099E+03</rscale>
<asrwt>0</asrwt>
<pdfrwt beam="1">  1        1 0.16031591E+00 0.81383315E+03</pdfrwt>
<pdfrwt beam="2">  1       -1 0.98453717E-01 0.81383315E+03</pdfrwt>
<totfact> 0.14181090E+01</totfact>
</mgrwt>
</event>
<event>
 4    1  0.1065596E-007  0.8569468E+03  0.7818608E-02  0.9599018E-01
          1   -1    0    0  501    0  0.00000000000E+00  0.00000000000E+00  0.47414356420E+03  0.47414356423E+03  0.50400000000E-02 0. -1.
         -1   -1    0    0    0  501 -0.00000000000E+00 -0.00000000000E+00 -0.11889970657E+04  0.11889970657E+04  0.50400000000E-02 0.  1.
    8880023    1    1    2    0    0  0.26671207631E+03 -0.47897000563E+03 -0.16683258171E+03  0.87303546006E+03  0.65864270000E+03 0.  0.
    8880022    1    1    2    0    0 -0.26671207631E+03  0.47897000563E+03 -0.54802091982E+03  0.79010516991E+03  0.15294330000E+03 0.  0.
<mgrwt>
<rscale>  0 0.77361225E+03</rscale>
<asrwt>0</asrwt>
<pdfrwt beam="1">  1        1 0.72945164E-01 0.85694679E+03</pdfrwt>
<pdfrwt beam="2">  1       -1 0.18292262E+00 0.85694679E+03</pdfrwt>
<totfact> 0.96288806E+00</totfact>
</mgrwt>
</event>
<event>
 4    1  0.1065596E-007  0.7521832E+03  0.7818608E-02  0.9825781E-01
          1   -1    0    0  501    0  0.00000000000E+00  0.00000000000E+00  0.20668074893E+04  0.20668074893E+04  0.50400000000E-02 0. -1.
         -1   -1    0    0    0  501 -0.00000000000E+00 -0.00000000000E+00 -0.91538587375E+03  0.91538587376E+03  0.50400000000E-02 0.  1.
    8880023    1    1    2    0    0  0.35255603083E+03 -0.87599185803E+02  0.19508718040E+04  0.20908563734E+04  0.65864270000E+03 0. -1.
    8880022    1    1    2    0    0 -0.35255603083E+03  0.87599185803E+02 -0.79945018849E+03  0.89133698965E+03  0.15294330000E+03 0.  0.
<mgrwt>
<rscale>  0 0.63997128E+03</rscale>
<asrwt>0</asrwt>
<pdfrwt beam="1">  1        1 0.31797038E+00 0.75218321E+03</pdfrwt>
<pdfrwt beam="2">  1       -1 0.14082860E+00 0.75218321E+03</pdfrwt>
<totfact> 0.11723859E+00</totfact>
</mgrwt>
</event>
<event>
 4    1  0.1065596E-007  0.8604436E+03  0.7818608E-02  0.9592775E-01
          1   -1    0    0  501    0  0.00000000000E+00  0.00000000000E+00  0.68365530650E+03  0.68365530652E+03  0.50400000000E-02 0. -1.
         -1   -1    0    0    0  501 -0.00000000000E+00 -0.00000000000E+00 -0.14436398967E+04  0.14436398967E+04  0.50400000000E-02 0.  1.
    8880023    1    1    2    0    0 -0.60904431524E+02 -0.55031229644E+03  0.30860021019E+03  0.91411009697E+03  0.65864270000E+03 0.  0.
    8880022    1    1    2    0    0  0.60904431524E+02  0.55031229644E+03 -0.10685848004E+04  0.12131851063E+04  0.15294330000E+03 0.  1.
<mgrwt>
<rscale>  0 0.77776239E+03</rscale>
<asrwt>0</asrwt>
<pdfrwt beam="1">  1        1 0.10517774E+00 0.86044359E+03</pdfrwt>
<pdfrwt beam="2">  1       -1 0.22209844E+00 0.86044359E+03</pdfrwt>
<totfact> 0.30800119E+00</totfact>
</mgrwt>
</event>
<event>
 4    1  0.1065596E-007  0.1219036E+04  0.7818608E-02  0.9138836E-01
          1   -1    0    0  501    0  0.00000000000E+00  0.00000000000E+00  0.14719255178E+04  0.14719255178E+04  0.50400000000E-02 0. -1.
         -1   -1    0    0    0  501 -0.00000000000E+00 -0.00000000000E+00 -0.10580796486E+04  0.10580796486E+04  0.50400000000E-02 0.  1.
    8880023    1    1    2    0    0  0.43265070408E+03  0.93008231549E+03  0.76011347928E+03  0.14366010069E+04  0.65864270000E+03 0.  0.
    8880022    1    1    2    0    0 -0.43265070408E+03 -0.93008231549E+03 -0.34626761000E+03  0.10934041595E+04  0.15294330000E+03 0.  0.
<mgrwt>
<rscale>  0 0.11707670E+04</rscale>
<asrwt>0</asrwt>
<pdfrwt beam="1">  1        1 0.22645008E+00 0.12190365E+04</pdfrwt>
<pdfrwt beam="2">  1       -1 0.16278148E+00 0.12190365E+04</pdfrwt>
<totfact> 0.18639940E+00</totfact>
</mgrwt>
</event>
<event>
 4    1  0.1065596E-007  0.6644583E+03  0.7818608E-02  0.1019992E+00
         -1   -1    0    0    0  501 -0.00000000000E+00  0.00000000000E+00  0.25091413145E+03  0.25091413150E+03  0.50400000000E-02 0.  1.
          1   -1    0    0  501    0  0.00000000000E+00 -0.00000000000E+00 -0.76300875394E+03  0.76300875396E+03  0.50400000000E-02 0. -1.
    8880023    1    1    2    0    0  0.68606163973E+02 -0.54660942991E+02 -0.50996462686E+03  0.83759701010E+03  0.65864270000E+03 0. -1.
    8880022    1    1    2    0    0 -0.68606163973E+02  0.54660942991E+02 -0.21299956338E+01  0.17632587536E+03  0.15294330000E+03 0.  0.
<mgrwt>
<rscale>  0 0.47689403E+03</rscale>
<asrwt>0</asrwt>
<pdfrwt beam="1">  1        1 0.11738596E+00 0.66445830E+03</pdfrwt>
<pdfrwt beam="2">  1       -1 0.38602174E-01 0.66445830E+03</pdfrwt>
<totfact> 0.15820194E+02</totfact>
</mgrwt>
</event>
<event>
 4    1  0.1065596E-007  0.1125274E+04  0.7818608E-02  0.9233425E-01
          1   -1    0    0  501    0  0.00000000000E+00  0.00000000000E+00  0.74863391201E+03  0.74863391203E+03  0.50400000000E-02 0. -1.
         -1   -1    0    0    0  501 -0.00000000000E+00 -0.00000000000E+00 -0.15467434212E+04  0.15467434212E+04  0.50400000000E-02 0.  1.
    8880023    1    1    2    0    0  0.32491551885E+03  0.85256204439E+03 -0.87166694722E+02  0.11286453707E+04  0.65864270000E+03 0.  0.
    8880022    1    1    2    0    0 -0.32491551885E+03 -0.85256204439E+03 -0.71094281449E+03  0.11667319625E+04  0.15294330000E+03 0.  0.
<mgrwt>
<rscale>  0 0.10714992E+04</rscale>
<asrwt>0</asrwt>
<pdfrwt beam="1">  1        1 0.11517445E+00 0.11252743E+04</pdfrwt>
<pdfrwt beam="2">  1       -1 0.23796052E+00 0.11252743E+04</pdfrwt>
<totfact> 0.20373301E+00</totfact>
</mgrwt>
</event>
<event>
 4    1  0.1065596E-007  0.6825339E+03  0.7818608E-02  0.1007925E+00
         -1   -1    0    0    0  501 -0.00000000000E+00  0.00000000000E+00  0.31226326109E+03  0.31226326113E+03  0.50400000000E-02 0.  1.
          1   -1    0    0  501    0  0.00000000000E+00 -0.00000000000E+00 -0.95469092732E+03  0.95469092733E+03  0.50400000000E-02 0. -1.
    8880023    1    1    2    0    0 -0.17009835866E+03  0.55757604872E+02 -0.74478182402E+03  0.10102240018E+04  0.65864270000E+03 0.  0.
    8880022    1    1    2    0    0  0.17009835866E+03 -0.55757604872E+02  0.10235415779E+03  0.25673018668E+03  0.15294330000E+03 0.  0.
<mgrwt>
<rscale>  0 0.52307652E+03</rscale>
<asrwt>0</asrwt>
<pdfrwt beam="1">  1        1 0.14687553E+00 0.68253393E+03</pdfrwt>
<pdfrwt beam="2">  1       -1 0.48040502E-01 0.68253393E+03</pdfrwt>
<totfact> 0.73130210E+01</totfact>
</mgrwt>
</event>
<event>
 4    1  0.1065596E-007  0.1130960E+04  0.7818608E-02  0.9227345E-01
          1   -1    0    0  501    0  0.00000000000E+00  0.00000000000E+00  0.10971300500E+04  0.10971300500E+04  0.50400000000E-02 0. -1.
         -1   -1    0    0    0  501 -0.00000000000E+00 -0.00000000000E+00 -0.22855554858E+04  0.22855554858E+04  0.50400000000E-02 0.  1.
    8880023    1    1    2    0    0 -0.30572417137E+03  0.86705982128E+03  0.66223793379E+03  0.13105835684E+04  0.65864270000E+03 0.  0.
    8880022    1    1    2    0    0  0.30572417137E+03 -0.86705982128E+03 -0.18506633696E+04  0.20721019674E+04  0.15294330000E+03 0.  0.
<mgrwt>
<rscale>  0 0.10775591E+04</rscale>
<asrwt>0</asrwt>
<pdfrwt beam="1">  1        1 0.16878924E+00 0.11309599E+04</pdfrwt>
<pdfrwt beam="2">  1       -1 0.35162392E+00 0.11309599E+04</pdfrwt>
<totfact> 0.19296401E-01</totfact>
</mgrwt>
</event>
<event>
 4    1  0.1065596E-007  0.7798913E+03  0.7818608E-02  0.9756092E-01
          1   -1    0    0  501    0  0.00000000000E+00  0.00000000000E+00  0.45653554672E+03  0.45653554675E+03  0.50400000000E-02 0. -1.
         -1   -1    0    0    0  501 -0.00000000000E+00 -0.00000000000E+00 -0.91701616693E+03  0.91701616695E+03  0.50400000000E-02 0.  1.
    8880023    1    1    2    0    0 -0.17080165323E+03 -0.38111290269E+03 -0.50100302126E+03  0.92694901851E+03  0.65864270000E+03 0. -1.
    8880022    1    1    2    0    0  0.17080165323E+03  0.38111290269E+03  0.40522401043E+02  0.44660269518E+03  0.15294330000E+03 0.  0.
<mgrwt>
<rscale>  0 0.67773063E+03</rscale>
<asrwt>0</asrwt>
<pdfrwt beam="1">  1        1 0.70236238E-01 0.77989131E+03</pdfrwt>
<pdfrwt beam="2">  1       -1 0.14107941E+00 0.77989131E+03</pdfrwt>
<totfact> 0.21090198E+01</totfact>
</mgrwt>
</event>
<event>
 4    1  0.1065596E-007  0.1546031E+04  0.7818608E-02  0.8877797E-01
          1   -1    0    0  501    0  0.00000000000E+00  0.00000000000E+00  0.39627679784E+04  0.39627679784E+04  0.50400000000E-02 0. -1.
         -1   -1    0    0    0  501 -0.00000000000E+00 -0.00000000000E+00 -0.72330471509E+03  0.72330471511E+03  0.50400000000E-02 0.  1.
    8880023    1    1    2    0    0  0.13126885722E+04  0.48296089697E+03  0.28230972124E+04  0.32187094607E+04  0.65864270000E+03 0.  0.
    8880022    1    1    2    0    0 -0.13126885722E+04 -0.48296089697E+03  0.41636605095E+03  0.14673632328E+04  0.15294330000E+03 0.  0.
<mgrwt>
<rscale>  0 0.15100496E+04</rscale>
<asrwt>0</asrwt>
<pdfrwt beam="1">  1        1 0.60965661E+00 0.15460313E+04</pdfrwt>
<pdfrwt beam="2">  1       -1 0.11127765E+00 0.15460313E+04</pdfrwt>
<totfact> 0.73817892E-02</totfact>
</mgrwt>
</event>
<event>
 4    1  0.1065596E-007  0.6796175E+03  0.7818608E-02  0.1009541E+00
         -1   -1    0    0    0  501 -0.00000000000E+00  0.00000000000E+00  0.71799963683E+03  0.71799963685E+03  0.50400000000E-02 0.  1.
          1   -1    0    0  501    0  0.00000000000E+00 -0.00000000000E+00 -0.28610878617E+03  0.28610878621E+03  0.50400000000E-02 0. -1.
    8880023    1    1    2    0    0  0.11515718810E+03  0.12169070461E+03  0.32586577707E+03  0.75370320186E+03  0.65864270000E+03 0.  0.
    8880022    1    1    2    0    0 -0.11515718810E+03 -0.12169070461E+03  0.10602507359E+03  0.25040522120E+03  0.15294330000E+03 0. -1.
<mgrwt>
<rscale>  0 0.51657537E+03</rscale>
<asrwt>0</asrwt>
<pdfrwt beam="1">  1        1 0.44016736E-01 0.67961755E+03</pdfrwt>
<pdfrwt beam="2">  1       -1 0.11046148E+00 0.67961755E+03</pdfrwt>
<totfact> 0.72120374E+01</totfact>
</mgrwt>
</event>
<event>
 4    1  0.1065596E-007  0.1056500E+04  0.7818608E-02  0.9311108E-01
          1   -1    0    0  501    0  0.00000000000E+00  0.00000000000E+00  0.41711283251E+03  0.41711283254E+03  0.50400000000E-02 0. -1.
         -1   -1    0    0    0  501 -0.00000000000E+00 -0.00000000000E+00 -0.23505966065E+04  0.23505966065E+04  0.50400000000E-02 0.  1.
    8880023    1    1    2    0    0 -0.59648165824E+03  0.57148222785E+03 -0.14637428552E+04  0.18051968474E+04  0.65864270000E+03 0.  0.
    8880022    1    1    2    0    0  0.59648165824E+03 -0.57148222785E+03 -0.46974091882E+03  0.96251259171E+03  0.15294330000E+03 0.  0.
<mgrwt>
<rscale>  0 0.99766645E+03</rscale>
<asrwt>0</asrwt>
<pdfrwt beam="1">  1        1 0.64171206E-01 0.10565001E+04</pdfrwt>
<pdfrwt beam="2">  1       -1 0.36163024E+00 0.10565001E+04</pdfrwt>
<totfact> 0.74823601E-01</totfact>
</mgrwt>
</event>
<event>
 4    1  0.1065596E-007  0.1026296E+04  0.7818608E-02  0.9347935E-01
         -1   -1    0    0    0  501 -0.00000000000E+00  0.00000000000E+00  0.11747275949E+04  0.11747275949E+04  0.50400000000E-02 0.  1.
          1   -1    0    0  501    0  0.00000000000E+00 -0.00000000000E+00 -0.15598804029E+04  0.15598804029E+04  0.50400000000E-02 0. -1.
    8880023    1    1    2    0    0  0.66676737193E+03  0.41820479542E+03 -0.12084181865E+04  0.15854206694E+04  0.65864270000E+03 0. -1.
    8880022    1    1    2    0    0 -0.66676737193E+03 -0.41820479542E+03  0.82326537856E+03  0.11491873284E+04  0.15294330000E+03 0.  0.
<mgrwt>
<rscale>  0 0.96487180E+03</rscale>
<asrwt>0</asrwt>
<pdfrwt beam="1">  1        1 0.23998160E+00 0.10262963E+04</pdfrwt>
<pdfrwt beam="2">  1       -1 0.18072732E+00 0.10262963E+04</pdfrwt>
<totfact> 0.12263596E+00</totfact>
</mgrwt>
</event>
<event>
 4    1  0.1065596E-007  0.8792799E+03  0.7818608E-02  0.9560148E-01
         -1   -1    0    0    0  501 -0.00000000000E+00  0.00000000000E+00  0.17491155239E+04  0.17491155240E+04  0.50400000000E-02 0.  1.
          1   -1    0    0  501    0  0.00000000000E+00 -0.00000000000E+00 -0.31876572660E+03  0.31876572664E+03  0.50400000000E-02 0. -1.
    8880023    1    1    2    0    0 -0.53514555117E+03 -0.23009165130E+03  0.71900303716E+03  0.11358250317E+04  0.65864270000E+03 0.  0.
    8880022    1    1    2    0    0  0.53514555117E+03  0.23009165130E+03  0.71134676019E+03  0.93205621890E+03  0.15294330000E+03 0.  0.
<mgrwt>
<rscale>  0 0.79990974E+03</rscale>
<asrwt>0</asrwt>
<pdfrwt beam="1">  1        1 0.49040881E-01 0.87927990E+03</pdfrwt>
<pdfrwt beam="2">  1       -1 0.26909470E+00 0.87927990E+03</pdfrwt>
<totfact> 0.43460261E+00</totfact>
</mgrwt>
</event>
<event>
 4    1  0.1065596E-007  0.1051300E+04  0.7818608E-02  0.9317320E-01
          1   -1    0    0  501    0  0.00000000000E+00  0.00000000000E+00  0.20583363507E+04  0.20583363507E+04  0.50400000000E-02 0. -1.
         -1   -1    0    0    0  501 -0.00000000000E+00 -0.00000000000E+00 -0.55038505332E+03  0.55038505334E+03  0.50400000000E-02 0.  1.
    8880023    1    1    2    0    0  0.27270760917E+03  0.77269180164E+03  0.14253032559E+04  0.17710792297E+04  0.65864270000E+03 0. -1.
    8880022    1    1    2    0    0 -0.27270760917E+03 -0.77269180164E+03  0.82648041480E+02  0.83764217432E+03  0.15294330000E+03 0.  0.
<mgrwt>
<rscale>  0 0.99203874E+03</rscale>
<asrwt>0</asrwt>
<pdfrwt beam="1">  1        1 0.31666713E+00 0.10513003E+04</pdfrwt>
<pdfrwt beam="2">  1       -1 0.84674625E-01 0.10513003E+04</pdfrwt>
<totfact> 0.37752726E+00</totfact>
</mgrwt>
</event>
<event>
 4    1  0.1065596E-007  0.7377072E+03  0.7818608E-02  0.9866677E-01
          1   -1    0    0  501    0  0.00000000000E+00  0.00000000000E+00  0.17545429472E+04  0.17545429472E+04  0.50400000000E-02 0. -1.
         -1   -1    0    0    0  501 -0.00000000000E+00 -0.00000000000E+00 -0.24310840198E+03  0.24310840203E+03  0.50400000000E-02 0.  1.
    8880023    1    1    2    0    0  0.21767898196E+03  0.25103300878E+03  0.14498325224E+04  0.16267225516E+04  0.65864270000E+03 0. -1.
    8880022    1    1    2    0    0 -0.21767898196E+03 -0.25103300878E+03  0.61602022835E+02  0.37092879764E+03  0.15294330000E+03 0.  1.
<mgrwt>
<rscale>  0 0.61903804E+03</rscale>
<asrwt>0</asrwt>
<pdfrwt beam="1">  1        1 0.26992969E+00 0.73770720E+03</pdfrwt>
<pdfrwt beam="2">  1       -1 0.37401292E-01 0.73770720E+03</pdfrwt>
<totfact> 0.31200073E+01</totfact>
</mgrwt>
</event>
<event>
 4    1  0.1065596E-007  0.6726502E+03  0.7818608E-02  0.1013830E+00
         -1   -1    0    0    0  501 -0.00000000000E+00  0.00000000000E+00  0.48067463253E+03  0.48067463255E+03  0.50400000000E-02 0.  1.
          1   -1    0    0  501    0  0.00000000000E+00 -0.00000000000E+00 -0.13296337996E+04  0.13296337996E+04  0.50400000000E-02 0. -1.
    8880023    1    1    2    0    0  0.13502883497E+03 -0.20380470472E+02 -0.12161350761E+04  0.13897636056E+04  0.65864270000E+03 0. -1.
    8880022    1    1    2    0    0 -0.13502883497E+03  0.20380470472E+02  0.36717590911E+03  0.42054482650E+03  0.15294330000E+03 0.  0.
<mgrwt>
<rscale>  0 0.49980381E+03</rscale>
<asrwt>0</asrwt>
<pdfrwt beam="1">  1        1 0.20455904E+00 0.67265025E+03</pdfrwt>
<pdfrwt beam="2">  1       -1 0.73949944E-01 0.67265025E+03</pdfrwt>
<totfact> 0.16579205E+01</totfact>
</mgrwt>
</event>
<event>
 4    1  0.1065596E-007  0.1134835E+04  0.7818608E-02  0.9223228E-01
         -1   -1    0    0    0  501 -0.00000000000E+00  0.00000000000E+00  0.59154708803E+03  0.59154708805E+03  0.50400000000E-02 0.  1.
          1   -1    0    0  501    0  0.00000000000E+00 -0.00000000000E+00 -0.32957081309E+04  0.32957081309E+04  0.50400000000E-02 0. -1.
    8880023    1    1    2    0    0 -0.90187007661E+03  0.20167111548E+03 -0.27233588665E+04  0.29503448266E+04  0.65864270000E+03 0.  0.
    8880022    1    1    2    0    0  0.90187007661E+03 -0.20167111548E+03  0.19197823602E+02  0.93691039237E+03  0.15294330000E+03 0.  0.
<mgrwt>
<rscale>  0 0.10816863E+04</rscale>
<asrwt>0</asrwt>
<pdfrwt beam="1">  1        1 0.50703201E+00 0.11348353E+04</pdfrwt>
<pdfrwt beam="2">  1       -1 0.91007246E-01 0.11348353E+04</pdfrwt>
<totfact> 0.42894201E-01</totfact>
</mgrwt>
</event>
<event>
 4    1  0.1065596E-007  0.1627775E+04  0.7818608E-02  0.8824311E-01
         -1   -1    0    0    0  501 -0.00000000000E+00  0.00000000000E+00  0.24501317773E+04  0.24501317773E+04  0.50400000000E-02 0.  1.
          1   -1    0    0  501    0  0.00000000000E+00 -0.00000000000E+00 -0.17308063437E+04  0.17308063437E+04  0.50400000000E-02 0. -1.
    8880023    1    1    2    0    0  0.10050011971E+04  0.10980959413E+04 -0.99310919246E+03  0.19068083744E+04  0.65864270000E+03 0.  1.
    8880022    1    1    2    0    0 -0.10050011971E+04 -0.10980959413E+04  0.17124346261E+04  0.22741297466E+04  0.15294330000E+03 0.  0.
<mgrwt>
<rscale>  0 0.15938897E+04</rscale>
<asrwt>0</asrwt>
<pdfrwt beam="1">  1        1 0.26627790E+00 0.16277753E+04</pdfrwt>
<pdfrwt beam="2">  1       -1 0.37694335E+00 0.16277753E+04</pdfrwt>
<totfact> 0.43320431E-02</totfact>
</mgrwt>
</event>
<event>
 4    1  0.1065596E-007  0.8119037E+03  0.7818608E-02  0.9685625E-01
         -1   -1    0    0    0  501 -0.00000000000E+00  0.00000000000E+00  0.56012967580E+03  0.56012967582E+03  0.50400000000E-02 0.  1.
          1   -1    0    0  501    0  0.00000000000E+00 -0.00000000000E+00 -0.13631210718E+04  0.13631210718E+04  0.50400000000E-02 0. -1.
    8880023    1    1    2    0    0 -0.43953492415E+03  0.17940590723E+03 -0.10812280649E+04  0.13521249068E+04  0.65864270000E+03 0.  0.
    8880022    1    1    2    0    0  0.43953492415E+03 -0.17940590723E+03  0.27823666890E+03  0.57112584080E+03  0.15294330000E+03 0.  0.
<mgrwt>
<rscale>  0 0.71879152E+03</rscale>
<asrwt>0</asrwt>
<pdfrwt beam="1">  1        1 0.20971093E+00 0.81190371E+03</pdfrwt>
<pdfrwt beam="2">  1       -1 0.86173796E-01 0.81190371E+03</pdfrwt>
<totfact> 0.11134785E+01</totfact>
</mgrwt>
</event>
<event>
 4    1  0.1065596E-007  0.9742885E+03  0.7818608E-02  0.9415997E-01
         -1   -1    0    0    0  501 -0.00000000000E+00  0.00000000000E+00  0.48346432494E+03  0.48346432496E+03  0.50400000000E-02 0.  1.
          1   -1    0    0  501    0  0.00000000000E+00 -0.00000000000E+00 -0.23518798404E+04  0.23518798404E+04  0.50400000000E-02 0. -1.
    8880023    1    1    2    0    0  0.51313094824E+03 -0.50211992764E+03 -0.18617465900E+04  0.21012706545E+04  0.65864270000E+03 0.  0.
    8880022    1    1    2    0    0 -0.51313094824E+03  0.50211992764E+03 -0.66689254428E+01  0.73407351086E+03  0.15294330000E+03 0.  0.
<mgrwt>
<rscale>  0 0.90770782E+03</rscale>
<asrwt>0</asrwt>
<pdfrwt beam="1">  1        1 0.36182766E+00 0.97428846E+03</pdfrwt>
<pdfrwt beam="2">  1       -1 0.74379128E-01 0.97428846E+03</pdfrwt>
<totfact> 0.31823711E+00</totfact>
</mgrwt>
</event>
<event>
 4    1  0.1065596E-007  0.1052947E+04  0.7818608E-02  0.9315347E-01
         -1   -1    0    0    0  501 -0.00000000000E+00  0.00000000000E+00  0.38570152782E+03  0.38570152785E+03  0.50400000000E-02 0.  1.
          1   -1    0    0  501    0  0.00000000000E+00 -0.00000000000E+00 -0.31463153932E+04  0.31463153932E+04  0.50400000000E-02 0. -1.
    8880023    1    1    2    0    0 -0.81018233820E+03  0.13598211462E+03 -0.24020668413E+04  0.26227126936E+04  0.65864270000E+03 0.  0.
    8880022    1    1    2    0    0  0.81018233820E+03 -0.13598211462E+03 -0.35854702408E+03  0.90930422749E+03  0.15294330000E+03 0.  0.
<mgrwt>
<rscale>  0 0.99382142E+03</rscale>
<asrwt>0</asrwt>
<pdfrwt beam="1">  1        1 0.48404851E+00 0.10529467E+04</pdfrwt>
<pdfrwt beam="2">  1       -1 0.59338699E-01 0.10529467E+04</pdfrwt>
<totfact> 0.13729051E+00</totfact>
</mgrwt>
</event>
<event>
 4    1  0.1068799E-007  0.1761448E+04  0.7818608E-02  0.8744167E-01
          1   -1    0    0  501    0  0.00000000000E+00  0.00000000000E+00  0.29161227391E+04  0.29161227391E+04  0.50400000000E-02 0. -1.
         -1   -1    0    0    0  501 -0.00000000000E+00 -0.00000000000E+00 -0.19945626849E+04  0.19945626849E+04  0.50400000000E-02 0.  1.
    8880023    1    1    2    0    0 -0.99260133472E+03 -0.12975475849E+04  0.22088301753E+04  0.28251775332E+04  0.65864270000E+03 0.  0.
    8880022    1    1    2    0    0  0.99260133472E+03  0.12975475849E+04 -0.12872701211E+04  0.20855078907E+04  0.15294330000E+03 0.  0.
<mgrwt>
<rscale>  0 0.17304828E+04</rscale>
<asrwt>0</asrwt>
<pdfrwt beam="1">  1        1 0.44863427E+00 0.17614475E+04</pdfrwt>
<pdfrwt beam="2">  1       -1 0.30685580E+00 0.17614475E+04</pdfrwt>
<totfact> 0.18680941E-02</totfact>
</mgrwt>
</event>
<event>
 4    1  0.1065596E-007  0.7026285E+03  0.7818608E-02  0.9986467E-01
         -1   -1    0    0    0  501 -0.00000000000E+00  0.00000000000E+00  0.73737113393E+03  0.73737113395E+03  0.50400000000E-02 0.  1.
          1   -1    0    0  501    0  0.00000000000E+00 -0.00000000000E+00 -0.85764664522E+03  0.85764664523E+03  0.50400000000E-02 0. -1.
    8880023    1    1    2    0    0 -0.21919291993E+03 -0.10877074539E+03 -0.67208707313E+03  0.97231057350E+03  0.65864270000E+03 0. -1.
    8880022    1    1    2    0    0  0.21919291993E+03  0.10877074539E+03  0.55181156185E+03  0.62270720568E+03  0.15294330000E+03 0.  0.
<mgrwt>
<rscale>  0 0.56247635E+03</rscale>
<asrwt>0</asrwt>
<pdfrwt beam="1">  1        1 0.13194564E+00 0.70262851E+03</pdfrwt>
<pdfrwt beam="2">  1       -1 0.11344171E+00 0.70262851E+03</pdfrwt>
<totfact> 0.14497514E+01</totfact>
</mgrwt>
</event>
<event>
 4    1  0.1065596E-007  0.7018898E+03  0.7818608E-02  0.9989450E-01
          1   -1    0    0  501    0  0.00000000000E+00  0.00000000000E+00  0.28988009475E+04  0.28988009475E+04  0.50400000000E-02 0. -1.
         -1   -1    0    0    0  501 -0.00000000000E+00 -0.00000000000E+00 -0.64903273157E+03  0.64903273159E+03  0.50400000000E-02 0.  1.
    8880023    1    1    2    0    0 -0.58452800538E+02  0.23541953819E+03  0.28218893446E+04  0.29078701429E+04  0.65864270000E+03 0. -1.
    8880022    1    1    2    0    0  0.58452800538E+02 -0.23541953819E+03 -0.57212112861E+03  0.63996353620E+03  0.15294330000E+03 0.  0.
<mgrwt>
<rscale>  0 0.56115260E+03</rscale>
<asrwt>0</asrwt>
<pdfrwt beam="1">  1        1 0.44596938E+00 0.70188980E+03</pdfrwt>
<pdfrwt beam="2">  1       -1 0.99851188E-01 0.70188980E+03</pdfrwt>
<totfact> 0.73829187E-01</totfact>
</mgrwt>
</event>
<event>
 4    1  0.1065596E-007  0.7292955E+03  0.7818608E-02  0.9892303E-01
         -1   -1    0    0    0  501 -0.00000000000E+00  0.00000000000E+00  0.20870264706E+04  0.20870264706E+04  0.50400000000E-02 0.  1.
          1   -1    0    0  501    0  0.00000000000E+00 -0.00000000000E+00 -0.10435903931E+04  0.10435903931E+04  0.50400000000E-02 0. -1.
    8880023    1    1    2    0    0  0.27337874621E+03  0.15272788074E+03 -0.89874446200E+03  0.11574167610E+04  0.65864270000E+03 0. -1.
    8880022    1    1    2    0    0 -0.27337874621E+03 -0.15272788074E+03  0.19421805394E+04  0.19732001027E+04  0.15294330000E+03 0.  0.
<mgrwt>
<rscale>  0 0.60635766E+03</rscale>
<asrwt>0</asrwt>
<pdfrwt beam="1">  1        1 0.16055237E+00 0.72929552E+03</pdfrwt>
<pdfrwt beam="2">  1       -1 0.32108099E+00 0.72929552E+03</pdfrwt>
<totfact> 0.36160167E-01</totfact>
</mgrwt>
</event>
<event>
 4    1  0.1065596E-007  0.8753037E+03  0.7818608E-02  0.9566900E-01
          1   -1    0    0  501    0  0.00000000000E+00  0.00000000000E+00  0.10038046465E+04  0.10038046465E+04  0.50400000000E-02 0. -1.
         -1   -1    0    0    0  501 -0.00000000000E+00 -0.00000000000E+00 -0.12559451020E+04  0.12559451020E+04  0.50400000000E-02 0.  1.
    8880023    1    1    2    0    0 -0.57511239336E+03  0.39901051176E+02  0.71045988769E+03  0.11273463608E+04  0.65864270000E+03 0.  0.
    8880022    1    1    2    0    0  0.57511239336E+03 -0.39901051176E+02 -0.96260034319E+03  0.11324033878E+04  0.15294330000E+03 0.  1.
<mgrwt>
<rscale>  0 0.79526223E+03</rscale>
<asrwt>0</asrwt>
<pdfrwt beam="1">  1        1 0.15443149E+00 0.87530370E+03</pdfrwt>
<pdfrwt beam="2">  1       -1 0.19322232E+00 0.87530370E+03</pdfrwt>
<totfact> 0.25739962E+00</totfact>
</mgrwt>
</event>
<event>
 4    1  0.1065596E-007  0.8386608E+03  0.7818608E-02  0.9632711E-01
         -1   -1    0    0    0  501 -0.00000000000E+00  0.00000000000E+00  0.52039027245E+03  0.52039027248E+03  0.50400000000E-02 0.  1.
          1   -1    0    0  501    0  0.00000000000E+00 -0.00000000000E+00 -0.16568750364E+04  0.16568750364E+04  0.50400000000E-02 0. -1.
    8880023    1    1    2    0    0 -0.14090217485E+03 -0.49968813795E+03 -0.13550352541E+04  0.15935722150E+04  0.65864270000E+03 0. -1.
    8880022    1    1    2    0    0  0.14090217485E+03  0.49968813795E+03  0.21855049021E+03  0.58369309390E+03  0.15294330000E+03 0.  0.
<mgrwt>
<rscale>  0 0.75168492E+03</rscale>
<asrwt>0</asrwt>
<pdfrwt beam="1">  1        1 0.25490385E+00 0.83866076E+03</pdfrwt>
<pdfrwt beam="2">  1       -1 0.80060043E-01 0.83866076E+03</pdfrwt>
<totfact> 0.81674564E+00</totfact>
</mgrwt>
</event>
<event>
 4    1  0.1065596E-007  0.1245255E+04  0.7818608E-02  0.9114339E-01
         -1   -1    0    0    0  501 -0.00000000000E+00  0.00000000000E+00  0.57304847753E+03  0.57304847755E+03  0.50400000000E-02 0.  1.
          1   -1    0    0  501    0  0.00000000000E+00 -0.00000000000E+00 -0.34759241147E+04  0.34759241147E+04  0.50400000000E-02 0. -1.
    8880023    1    1    2    0    0  0.92926569578E+03 -0.50330456299E+03 -0.26842083405E+04  0.29589921997E+04  0.65864270000E+03 0. -1.
    8880022    1    1    2    0    0 -0.92926569578E+03  0.50330456299E+03 -0.21866729667E+03  0.10899803925E+04  0.15294330000E+03 0.  0.
<mgrwt>
<rscale>  0 0.11983078E+04</rscale>
<asrwt>0</asrwt>
<pdfrwt beam="1">  1        1 0.53475754E+00 0.12452552E+04</pdfrwt>
<pdfrwt beam="2">  1       -1 0.88161307E-01 0.12452552E+04</pdfrwt>
<totfact> 0.32934352E-01</totfact>
</mgrwt>
</event>
<event>
 4    1  0.1065596E-007  0.7450416E+03  0.7818608E-02  0.9845497E-01
          1   -1    0    0  501    0  0.00000000000E+00  0.00000000000E+00  0.12017133577E+04  0.12017133577E+04  0.50400000000E-02 0. -1.
         -1   -1    0    0    0  501 -0.00000000000E+00 -0.00000000000E+00 -0.87620278263E+03  0.87620278265E+03  0.50400000000E-02 0.  1.
    8880023    1    1    2    0    0 -0.14524530098E+03  0.31651305003E+03  0.10336028409E+04  0.12741356864E+04  0.65864270000E+03 0. -1.
    8880022    1    1    2    0    0  0.14524530098E+03 -0.31651305003E+03 -0.70809226583E+03  0.80378045400E+03  0.15294330000E+03 0.  0.
<mgrwt>
<rscale>  0 0.62977014E+03</rscale>
<asrwt>0</asrwt>
<pdfrwt beam="1">  1        1 0.18487898E+00 0.74504155E+03</pdfrwt>
<pdfrwt beam="2">  1       -1 0.13480043E+00 0.74504155E+03</pdfrwt>
<totfact> 0.51187194E+00</totfact>
</mgrwt>
</event>
<event>
 4    1  0.1065596E-007  0.1166524E+04  0.7818608E-02  0.9190370E-01
          1   -1    0    0  501    0  0.00000000000E+00  0.00000000000E+00  0.13512280585E+04  0.13512280585E+04  0.50400000000E-02 0. -1.
         -1   -1    0    0    0  501 -0.00000000000E+00 -0.00000000000E+00 -0.10247807475E+04  0.10247807475E+04  0.50400000000E-02 0.  1.
    8880023    1    1    2    0    0  0.40627607003E+03 -0.87287362877E+03 -0.31590552251E+03  0.12085425612E+04  0.65864270000E+03 0.  0.
    8880022    1    1    2    0    0 -0.40627607003E+03  0.87287362877E+03  0.64235283351E+03  0.11674662447E+04  0.15294330000E+03 0.  0.
<mgrwt>
<rscale>  0 0.11153376E+04</rscale>
<asrwt>0</asrwt>
<pdfrwt beam="1">  1        1 0.20788124E+00 0.11665242E+04</pdfrwt>
<pdfrwt beam="2">  1       -1 0.15765858E+00 0.11665242E+04</pdfrwt>
<totfact> 0.24926990E+00</totfact>
</mgrwt>
</event>
<event>
 4    1  0.1065596E-007  0.9133164E+03  0.7818608E-02  0.9504984E-01
          1   -1    0    0  501    0  0.00000000000E+00  0.00000000000E+00  0.10385842682E+04  0.10385842682E+04  0.50400000000E-02 0. -1.
         -1   -1    0    0    0  501 -0.00000000000E+00 -0.00000000000E+00 -0.25499214753E+04  0.25499214753E+04  0.50400000000E-02 0.  1.
    8880023    1    1    2    0    0  0.61418550888E+03 -0.15202909187E+03  0.78337334953E+03  0.12032542105E+04  0.65864270000E+03 0. -1.
    8880022    1    1    2    0    0 -0.61418550888E+03  0.15202909187E+03 -0.22947105566E+04  0.23852515330E+04  0.15294330000E+03 0.  0.
<mgrwt>
<rscale>  0 0.83917375E+03</rscale>
<asrwt>0</asrwt>
<pdfrwt beam="1">  1        1 0.15978220E+00 0.91331642E+03</pdfrwt>
<pdfrwt beam="2">  1       -1 0.39229561E+00 0.91331642E+03</pdfrwt>
<totfact> 0.11889538E-01</totfact>
</mgrwt>
</event>
<event>
 4    1  0.1065596E-007  0.1212279E+04  0.7818608E-02  0.9145278E-01
          1   -1    0    0  501    0  0.00000000000E+00  0.00000000000E+00  0.15616839958E+04  0.15616839958E+04  0.50400000000E-02 0. -1.
         -1   -1    0    0    0  501 -0.00000000000E+00 -0.00000000000E+00 -0.14520194384E+04  0.14520194384E+04  0.50400000000E-02 0.  1.
    8880023    1    1    2    0    0  0.61054895853E+03 -0.81427256486E+03  0.10618847379E+04  0.16115890430E+04  0.65864270000E+03 0.  0.
    8880022    1    1    2    0    0 -0.61054895853E+03  0.81427256486E+03 -0.95222018061E+03  0.14021143912E+04  0.15294330000E+03 0.  0.
<mgrwt>
<rscale>  0 0.11636550E+04</rscale>
<asrwt>0</asrwt>
<pdfrwt beam="1">  1        1 0.24025908E+00 0.12122789E+04</pdfrwt>
<pdfrwt beam="2">  1       -1 0.22338761E+00 0.12122789E+04</pdfrwt>
<totfact> 0.60612380E-01</totfact>
</mgrwt>
</event>
<event>
 4    1  0.1065596E-007  0.7700103E+03  0.7818608E-02  0.9779849E-01
          1   -1    0    0  501    0  0.00000000000E+00  0.00000000000E+00  0.19763638237E+04  0.19763638237E+04  0.50400000000E-02 0. -1.
         -1   -1    0    0    0  501 -0.00000000000E+00 -0.00000000000E+00 -0.72149353717E+03  0.72149353719E+03  0.50400000000E-02 0.  1.
    8880023    1    1    2    0    0 -0.39812831116E+03  0.24483459293E+02  0.18276952927E+04  0.19832765519E+04  0.65864270000E+03 0. -1.
    8880022    1    1    2    0    0  0.39812831116E+03 -0.24483459293E+02 -0.57282500618E+03  0.71458080904E+03  0.15294330000E+03 0.  0.
<mgrwt>
<rscale>  0 0.66455269E+03</rscale>
<asrwt>0</asrwt>
<pdfrwt beam="1">  1        1 0.30405597E+00 0.77001026E+03</pdfrwt>
<pdfrwt beam="2">  1       -1 0.11099901E+00 0.77001026E+03</pdfrwt>
<totfact> 0.24234018E+00</totfact>
</mgrwt>
</event>
<event>
 4    1  0.1065596E-007  0.8188523E+03  0.7818608E-02  0.9671425E-01
          1   -1    0    0  501    0  0.00000000000E+00  0.00000000000E+00  0.29902721577E+04  0.29902721577E+04  0.50400000000E-02 0. -1.
         -1   -1    0    0    0  501 -0.00000000000E+00 -0.00000000000E+00 -0.18679789328E+03  0.18679789335E+03  0.50400000000E-02 0.  1.
    8880023    1    1    2    0    0 -0.37025433306E+03 -0.31562735721E+03  0.23709028392E+04  0.25083260113E+04  0.65864270000E+03 0. -1.
    8880022    1    1    2    0    0  0.37025433306E+03  0.31562735721E+03  0.43257142519E+03  0.66874403973E+03  0.15294330000E+03 0.  0.
<mgrwt>
<rscale>  0 0.72743944E+03</rscale>
<asrwt>0</asrwt>
<pdfrwt beam="1">  1        1 0.46004188E+00 0.81885231E+03</pdfrwt>
<pdfrwt beam="2">  1       -1 0.28738137E-01 0.81885231E+03</pdfrwt>
<totfact> 0.70344489E+00</totfact>
</mgrwt>
</event>
<event>
 4    1  0.1065596E-007  0.9159776E+03  0.7818608E-02  0.9500854E-01
         -1   -1    0    0    0  501 -0.00000000000E+00  0.00000000000E+00  0.67227704489E+03  0.67227704491E+03  0.50400000000E-02 0.  1.
          1   -1    0    0  501    0  0.00000000000E+00 -0.00000000000E+00 -0.34260454299E+04  0.34260454299E+04  0.50400000000E-02 0. -1.
    8880023    1    1    2    0    0  0.60126402170E+03 -0.20901285419E+03 -0.31851908085E+04  0.33142805387E+04  0.65864270000E+03 0. -1.
    8880022    1    1    2    0    0 -0.60126402170E+03  0.20901285419E+03  0.43142242346E+03  0.78404193605E+03  0.15294330000E+03 0.  0.
<mgrwt>
<rscale>  0 0.84220869E+03</rscale>
<asrwt>0</asrwt>
<pdfrwt beam="1">  1        1 0.52708390E+00 0.91597762E+03</pdfrwt>
<pdfrwt beam="2">  1       -1 0.10342724E+00 0.91597762E+03</pdfrwt>
<totfact> 0.26573899E-01</totfact>
</mgrwt>
</event>
<event>
 4    1  0.1065596E-007  0.6946548E+03  0.7818608E-02  0.1002014E+00
          1   -1    0    0  501    0  0.00000000000E+00  0.00000000000E+00  0.14248248130E+04  0.14248248130E+04  0.50400000000E-02 0. -1.
         -1   -1    0    0    0  501 -0.00000000000E+00 -0.00000000000E+00 -0.41164258655E+03  0.41164258658E+03  0.50400000000E-02 0.  1.
    8880023    1    1    2    0    0 -0.13116307982E+02 -0.22037010246E+03  0.12809761876E+04  0.14572045906E+04  0.65864270000E+03 0. -1.
    8880022    1    1    2    0    0  0.13116307982E+02  0.22037010246E+03 -0.26779396115E+03  0.37926280892E+03  0.15294330000E+03 0.  0.
<mgrwt>
<rscale>  0 0.54775802E+03</rscale>
<asrwt>0</asrwt>
<pdfrwt beam="1">  1        1 0.21920382E+00 0.69465475E+03</pdfrwt>
<pdfrwt beam="2">  1       -1 0.63329628E-01 0.69465475E+03</pdfrwt>
<totfact> 0.19443638E+01</totfact>
</mgrwt>
</event>
<event>
 4    1  0.1065596E-007  0.9701059E+03  0.7818608E-02  0.9421758E-01
         -1   -1    0    0    0  501 -0.00000000000E+00  0.00000000000E+00  0.58365662450E+03  0.58365662452E+03  0.50400000000E-02 0.  1.
          1   -1    0    0  501    0  0.00000000000E+00 -0.00000000000E+00 -0.26497810040E+04  0.26497810040E+04  0.50400000000E-02 0. -1.
    8880023    1    1    2    0    0  0.11829322970E+03  0.70235457800E+03  0.73805735978E+02  0.97290941734E+03  0.65864270000E+03 0.  0.
    8880022    1    1    2    0    0 -0.11829322970E+03 -0.70235457800E+03 -0.21399301155E+04  0.22605282112E+04  0.15294330000E+03 0.  0.
<mgrwt>
<rscale>  0 0.90306530E+03</rscale>
<asrwt>0</asrwt>
<pdfrwt beam="1">  1        1 0.40765861E+00 0.97010590E+03</pdfrwt>
<pdfrwt beam="2">  1       -1 0.89793328E-01 0.97010590E+03</pdfrwt>
<totfact> 0.13265827E+00</totfact>
</mgrwt>
</event>
<event>
 4    1  0.1065596E-007  0.9990577E+03  0.7818608E-02  0.9382792E-01
          1   -1    0    0  501    0  0.00000000000E+00  0.00000000000E+00  0.95472955026E+03  0.95472955028E+03  0.50400000000E-02 0. -1.
         -1   -1    0    0    0  501 -0.00000000000E+00 -0.00000000000E+00 -0.91699277247E+03  0.91699277249E+03  0.50400000000E-02 0.  1.
    8880023    1    1    2    0    0 -0.15743833585E+03 -0.73451969485E+03  0.32871050962E+03  0.10517446540E+04  0.65864270000E+03 0.  1.
    8880022    1    1    2    0    0  0.15743833585E+03  0.73451969485E+03 -0.29097373183E+03  0.81997766881E+03  0.15294330000E+03 0.  0.
<mgrwt>
<rscale>  0 0.93505501E+03</rscale>
<asrwt>0</asrwt>
<pdfrwt beam="1">  1        1 0.14688147E+00 0.99905766E+03</pdfrwt>
<pdfrwt beam="2">  1       -1 0.14107581E+00 0.99905766E+03</pdfrwt>
<totfact> 0.67672304E+00</totfact>
</mgrwt>
</event>
<event>
 4    1  0.1065596E-007  0.7839546E+03  0.7818608E-02  0.9746628E-01
          1   -1    0    0  501    0  0.00000000000E+00  0.00000000000E+00  0.12975544535E+04  0.12975544535E+04  0.50400000000E-02 0. -1.
         -1   -1    0    0    0  501 -0.00000000000E+00 -0.00000000000E+00 -0.37556087403E+03  0.37556087407E+03  0.50400000000E-02 0.  1.
    8880023    1    1    2    0    0  0.33148957237E+03  0.26625046042E+03  0.93614568681E+03  0.12210461078E+04  0.65864270000E+03 0. -1.
    8880022    1    1    2    0    0 -0.33148957237E+03 -0.26625046042E+03 -0.14152107357E+02  0.45206921972E+03  0.15294330000E+03 0.  1.
<mgrwt>
<rscale>  0 0.68307156E+03</rscale>
<asrwt>0</asrwt>
<pdfrwt beam="1">  1        1 0.19962376E+00 0.78395462E+03</pdfrwt>
<pdfrwt beam="2">  1       -1 0.57778596E-01 0.78395462E+03</pdfrwt>
<totfact> 0.28277565E+01</totfact>
</mgrwt>
</event>
<event>
 4    1  0.1065596E-007  0.9593653E+03  0.7818608E-02  0.9436766E-01
          1   -1    0    0  501    0  0.00000000000E+00  0.00000000000E+00  0.43083825212E+03  0.43083825215E+03  0.50400000000E-02 0. -1.
         -1   -1    0    0    0  501 -0.00000000000E+00 -0.00000000000E+00 -0.22708968543E+04  0.22708968543E+04  0.50400000000E-02 0.  1.
    8880023    1    1    2    0    0  0.46813115470E+03 -0.51713138104E+03 -0.30166532781E+03  0.10056758024E+04  0.65864270000E+03 0.  0.
    8880022    1    1    2    0    0 -0.46813115470E+03  0.51713138104E+03 -0.15383932743E+04  0.16960593040E+04  0.15294330000E+03 0.  0.
<mgrwt>
<rscale>  0 0.89110808E+03</rscale>
<asrwt>0</asrwt>
<pdfrwt beam="1">  1        1 0.66282809E-01 0.95936534E+03</pdfrwt>
<pdfrwt beam="2">  1       -1 0.34936874E+00 0.95936534E+03</pdfrwt>
<totfact> 0.87493455E-01</totfact>
</mgrwt>
</event>
<event>
 4    1  0.1065596E-007  0.9820684E+03  0.7818608E-02  0.9405403E-01
          1   -1    0    0  501    0  0.00000000000E+00  0.00000000000E+00  0.39055180665E+04  0.39055180665E+04  0.50400000000E-02 0. -1.
         -1   -1    0    0    0  501 -0.00000000000E+00 -0.00000000000E+00 -0.23294748401E+03  0.23294748407E+03  0.50400000000E-02 0.  1.
    8880023    1    1    2    0    0  0.29808078080E+03  0.66467739049E+03  0.29168281899E+04  0.30777175115E+04  0.65864270000E+03 0. -1.
    8880022    1    1    2    0    0 -0.29808078080E+03 -0.66467739049E+03  0.75574239262E+03  0.10607480390E+04  0.15294330000E+03 0.  0.
<mgrwt>
<rscale>  0 0.91632373E+03</rscale>
<asrwt>0</asrwt>
<pdfrwt beam="1">  1        1 0.60084894E+00 0.98206843E+03</pdfrwt>
<pdfrwt beam="2">  1       -1 0.35838074E-01 0.98206843E+03</pdfrwt>
<totfact> 0.90804197E-01</totfact>
</mgrwt>
</event>
<event>
 4    1  0.1065596E-007  0.1300548E+04  0.7818608E-02  0.9065087E-01
          1   -1    0    0  501    0  0.00000000000E+00  0.00000000000E+00  0.15229259376E+04  0.15229259376E+04  0.50400000000E-02 0. -1.
         -1   -1    0    0    0  501 -0.00000000000E+00 -0.00000000000E+00 -0.12603921247E+04  0.12603921247E+04  0.50400000000E-02 0.  1.
    8880023    1    1    2    0    0 -0.50082960625E+02  0.11203152531E+04  0.80363446164E+03  0.15288077457E+04  0.65864270000E+03 0.  0.
    8880022    1    1    2    0    0  0.50082960625E+02 -0.11203152531E+04 -0.54110064878E+03  0.12545103165E+04  0.15294330000E+03 0.  0.
<mgrwt>
<rscale>  0 0.12561418E+04</rscale>
<asrwt>0</asrwt>
<pdfrwt beam="1">  1        1 0.23429630E+00 0.13005479E+04</pdfrwt>
<pdfrwt beam="2">  1       -1 0.19390648E+00 0.13005479E+04</pdfrwt>
<totfact> 0.10130725E+00</totfact>
</mgrwt>
</event>
<event>
 4    1  0.1065596E-007  0.8352093E+03  0.7818608E-02  0.9639280E-01
          1   -1    0    0  501    0  0.00000000000E+00  0.00000000000E+00  0.12133691892E+04  0.12133691892E+04  0.50400000000E-02 0. -1.
         -1   -1    0    0    0  501 -0.00000000000E+00 -0.00000000000E+00 -0.98672653895E+03  0.98672653897E+03  0.50400000000E-02 0.  1.
    8880023    1    1    2    0    0  0.50912539245E+03  0.67496512903E+02 -0.72628821676E+03  0.11068284531E+04  0.65864270000E+03 0.  0.
    8880022    1    1    2    0    0 -0.50912539245E+03 -0.67496512903E+02  0.95293086703E+03  0.10932672751E+04  0.15294330000E+03 0.  0.
<mgrwt>
<rscale>  0 0.74750012E+03</rscale>
<asrwt>0</asrwt>
<pdfrwt beam="1">  1        1 0.18667218E+00 0.83520935E+03</pdfrwt>
<pdfrwt beam="2">  1       -1 0.15180408E+00 0.83520935E+03</pdfrwt>
<totfact> 0.36219724E+00</totfact>
</mgrwt>
</event>
<event>
 4    1  0.1065596E-007  0.7358066E+03  0.7818608E-02  0.9872335E-01
          1   -1    0    0  501    0  0.00000000000E+00  0.00000000000E+00  0.18615902142E+04  0.18615902143E+04  0.50400000000E-02 0. -1.
         -1   -1    0    0    0  501 -0.00000000000E+00 -0.00000000000E+00 -0.76694391529E+03  0.76694391531E+03  0.50400000000E-02 0.  1.
    8880023    1    1    2    0    0  0.85397682882E+02 -0.31671499462E+03  0.17396857012E+04  0.18888932467E+04  0.65864270000E+03 0. -1.
    8880022    1    1    2    0    0 -0.85397682882E+02  0.31671499462E+03 -0.64503940229E+03  0.73964088285E+03  0.15294330000E+03 0.  0.
<mgrwt>
<rscale>  0 0.61620993E+03</rscale>
<asrwt>0</asrwt>
<pdfrwt beam="1">  1        1 0.28639849E+00 0.73580660E+03</pdfrwt>
<pdfrwt beam="2">  1       -1 0.11799137E+00 0.73580660E+03</pdfrwt>
<totfact> 0.25154254E+00</totfact>
</mgrwt>
</event>
<event>
 4    1  0.1065596E-007  0.1580303E+04  0.7818608E-02  0.8854919E-01
          1   -1    0    0  501    0  0.00000000000E+00  0.00000000000E+00  0.24749182851E+04  0.24749182851E+04  0.50400000000E-02 0. -1.
         -1   -1    0    0    0  501 -0.00000000000E+00 -0.00000000000E+00 -0.15918927042E+04  0.15918927042E+04  0.50400000000E-02 0.  1.
    8880023    1    1    2    0    0  0.14065021681E+04 -0.29205777207E+03  0.17690599429E+04  0.23721149591E+04  0.65864270000E+03 0.  0.
    8880022    1    1    2    0    0 -0.14065021681E+04  0.29205777207E+03 -0.88603436201E+03  0.16946960302E+04  0.15294330000E+03 0.  0.
<mgrwt>
<rscale>  0 0.15452327E+04</rscale>
<asrwt>0</asrwt>
<pdfrwt beam="1">  1        1 0.38075666E+00 0.15803026E+04</pdfrwt>
<pdfrwt beam="2">  1       -1 0.24490657E+00 0.15803026E+04</pdfrwt>
<totfact> 0.99147177E-02</totfact>
</mgrwt>
</event>
<event>
 4    1  0.1065596E-007  0.1398141E+04  0.7818608E-02  0.8985129E-01
         -1   -1    0    0    0  501 -0.00000000000E+00  0.00000000000E+00  0.14511659834E+04  0.14511659834E+04  0.50400000000E-02 0.  1.
          1   -1    0    0  501    0  0.00000000000E+00 -0.00000000000E+00 -0.15578756249E+04  0.15578756250E+04  0.50400000000E-02 0. -1.
    8880023    1    1    2    0    0  0.22981751136E+03  0.12116809067E+04  0.66287150242E+03  0.15473188240E+04  0.65864270000E+03 0.  0.
    8880022    1    1    2    0    0 -0.22981751136E+03 -0.12116809067E+04 -0.76958114395E+03  0.14617227844E+04  0.15294330000E+03 0.  0.
<mgrwt>
<rscale>  0 0.13575547E+04</rscale>
<asrwt>0</asrwt>
<pdfrwt beam="1">  1        1 0.23967317E+00 0.13981405E+04</pdfrwt>
<pdfrwt beam="2">  1       -1 0.22325630E+00 0.13981405E+04</pdfrwt>
<totfact> 0.59738095E-01</totfact>
</mgrwt>
</event>
<event>
 4    1  0.1065596E-007  0.7653417E+03  0.7818608E-02  0.9791470E-01
          1   -1    0    0  501    0  0.00000000000E+00  0.00000000000E+00  0.63902369818E+03  0.63902369820E+03  0.50400000000E-02 0. -1.
         -1   -1    0    0    0  501 -0.00000000000E+00 -0.00000000000E+00 -0.59933258982E+03  0.59933258984E+03  0.50400000000E-02 0.  1.
    8880023    1    1    2    0    0 -0.34623031776E+03 -0.17905922643E+03  0.19827590976E+03  0.79060810909E+03  0.65864270000E+03 0. -1.
    8880022    1    1    2    0    0  0.34623031776E+03  0.17905922643E+03 -0.15858480139E+03  0.44774817895E+03  0.15294330000E+03 0.  0.
<mgrwt>
<rscale>  0 0.65822341E+03</rscale>
<asrwt>0</asrwt>
<pdfrwt beam="1">  1        1 0.98311338E-01 0.76534165E+03</pdfrwt>
<pdfrwt beam="2">  1       -1 0.92205014E-01 0.76534165E+03</pdfrwt>
<totfact> 0.36546263E+01</totfact>
</mgrwt>
</event>
<event>
 4    1  0.1065596E-007  0.8768997E+03  0.7818608E-02  0.9564181E-01
         -1   -1    0    0    0  501 -0.00000000000E+00  0.00000000000E+00  0.52878789834E+03  0.52878789836E+03  0.50400000000E-02 0.  1.
          1   -1    0    0  501    0  0.00000000000E+00 -0.00000000000E+00 -0.15727031798E+04  0.15727031799E+04  0.50400000000E-02 0. -1.
    8880023    1    1    2    0    0 -0.55926002710E+03 -0.14956983555E+03 -0.11966401389E+04  0.14835433064E+04  0.65864270000E+03 0. -1.
    8880022    1    1    2    0    0  0.55926002710E+03  0.14956983555E+03  0.15272485741E+03  0.61794777183E+03  0.15294330000E+03 0.  0.
<mgrwt>
<rscale>  0 0.79712940E+03</rscale>
<asrwt>0</asrwt>
<pdfrwt beam="1">  1        1 0.24195433E+00 0.87689972E+03</pdfrwt>
<pdfrwt beam="2">  1       -1 0.81351985E-01 0.87689972E+03</pdfrwt>
<totfact> 0.89580474E+00</totfact>
</mgrwt>
</event>
<event>
 4    1  0.1065596E-007  0.6969511E+03  0.7818608E-02  0.1001009E+00
         -1   -1    0    0    0  501 -0.00000000000E+00  0.00000000000E+00  0.42160669460E+04  0.42160669460E+04  0.50400000000E-02 0.  1.
          1   -1    0    0  501    0  0.00000000000E+00 -0.00000000000E+00 -0.65732350901E+02  0.65732351094E+02  0.50400000000E-02 0. -1.
    8880023    1    1    2    0    0  0.82824286941E+02  0.21229889123E+03  0.20871292742E+04  0.22004202997E+04  0.65864270000E+03 0. -1.
    8880022    1    1    2    0    0 -0.82824286941E+02 -0.21229889123E+03  0.20632053208E+04  0.20813789974E+04  0.15294330000E+03 0. -1.
<mgrwt>
<rscale>  0 0.55209933E+03</rscale>
<asrwt>0</asrwt>
<pdfrwt beam="1">  1        1 0.10112664E-01 0.69695114E+03</pdfrwt>
<pdfrwt beam="2">  1       -1 0.64862600E+00 0.69695114E+03</pdfrwt>
<totfact> 0.20167134E-01</totfact>
</mgrwt>
</event>
<event>
 4    1  0.1065596E-007  0.8509723E+03  0.7818608E-02  0.9609828E-01
         -1   -1    0    0    0  501 -0.00000000000E+00  0.00000000000E+00  0.75237815590E+03  0.75237815592E+03  0.50400000000E-02 0.  1.
          1   -1    0    0  501    0  0.00000000000E+00 -0.00000000000E+00 -0.13339347295E+04  0.13339347295E+04  0.50400000000E-02 0. -1.
    8880023    1    1    2    0    0 -0.47303037466E+03 -0.25804256306E+03 -0.10532299794E+04  0.13540484834E+04  0.65864270000E+03 0. -1.
    8880022    1    1    2    0    0  0.47303037466E+03  0.25804256306E+03  0.47167340578E+03  0.73226440200E+03  0.15294330000E+03 0.  0.
<mgrwt>
<rscale>  0 0.76649091E+03</rscale>
<asrwt>0</asrwt>
<pdfrwt beam="1">  1        1 0.20522073E+00 0.85097233E+03</pdfrwt>
<pdfrwt beam="2">  1       -1 0.11575049E+00 0.85097233E+03</pdfrwt>
<totfact> 0.59161956E+00</totfact>
</mgrwt>
</event>
<event>
 4    1  0.1065596E-007  0.7415712E+03  0.7818608E-02  0.9855394E-01
         -1   -1    0    0    0  501 -0.00000000000E+00  0.00000000000E+00  0.25484110395E+03  0.25484110400E+03  0.50400000000E-02 0.  1.
          1   -1    0    0  501    0  0.00000000000E+00 -0.00000000000E+00 -0.27761028479E+04  0.27761028479E+04  0.50400000000E-02 0. -1.
    8880023    1    1    2    0    0  0.20329036317E+03  0.27347874101E+03 -0.25506647433E+04  0.26562790577E+04  0.65864270000E+03 0. -1.
    8880022    1    1    2    0    0 -0.20329036317E+03 -0.27347874101E+03  0.29402999349E+02  0.37466489418E+03  0.15294330000E+03 0.  0.
<mgrwt>
<rscale>  0 0.62472661E+03</rscale>
<asrwt>0</asrwt>
<pdfrwt beam="1">  1        1 0.42709273E+00 0.74157117E+03</pdfrwt>
<pdfrwt beam="2">  1       -1 0.39206326E-01 0.74157117E+03</pdfrwt>
<totfact> 0.58270697E+00</totfact>
</mgrwt>
</event>
<event>
 4    1  0.1065596E-007  0.1040510E+04  0.7818608E-02  0.9330377E-01
         -1   -1    0    0    0  501 -0.00000000000E+00  0.00000000000E+00  0.13596971822E+04  0.13596971822E+04  0.50400000000E-02 0.  1.
          1   -1    0    0  501    0  0.00000000000E+00 -0.00000000000E+00 -0.87796937086E+03  0.87796937087E+03  0.50400000000E-02 0. -1.
    8880023    1    1    2    0    0 -0.23143535389E+03  0.77155001413E+03 -0.32233443495E+03  0.10892940106E+04  0.65864270000E+03 0. -1.
    8880022    1    1    2    0    0  0.23143535389E+03 -0.77155001413E+03  0.80406224627E+03  0.11483725424E+04  0.15294330000E+03 0.  0.
<mgrwt>
<rscale>  0 0.98033757E+03</rscale>
<asrwt>0</asrwt>
<pdfrwt beam="1">  1        1 0.13507221E+00 0.10405104E+04</pdfrwt>
<pdfrwt beam="2">  1       -1 0.20918418E+00 0.10405104E+04</pdfrwt>
<totfact> 0.24697932E+00</totfact>
</mgrwt>
</event>
<event>
 4    1  0.1065596E-007  0.1055949E+04  0.7818608E-02  0.9311764E-01
         -1   -1    0    0    0  501 -0.00000000000E+00  0.00000000000E+00  0.15853468802E+04  0.15853468802E+04  0.50400000000E-02 0.  1.
          1   -1    0    0  501    0  0.00000000000E+00 -0.00000000000E+00 -0.73572115845E+03  0.73572115846E+03  0.50400000000E-02 0. -1.
    8880023    1    1    2    0    0 -0.55664906727E+03  0.60939274100E+03 -0.91596846871E+02  0.10599140934E+04  0.65864270000E+03 0.  0.
    8880022    1    1    2    0    0  0.55664906727E+03 -0.60939274100E+03  0.94122256864E+03  0.12611539452E+04  0.15294330000E+03 0.  0.
<mgrwt>
<rscale>  0 0.99707012E+03</rscale>
<asrwt>0</asrwt>
<pdfrwt beam="1">  1        1 0.11318787E+00 0.10559488E+04</pdfrwt>
<pdfrwt beam="2">  1       -1 0.24389952E+00 0.10559488E+04</pdfrwt>
<totfact> 0.19297052E+00</totfact>
</mgrwt>
</event>
<event>
 4    1  0.1065596E-007  0.7000999E+03  0.7818608E-02  0.9996787E-01
          1   -1    0    0  501    0  0.00000000000E+00  0.00000000000E+00  0.14318293811E+04  0.14318293811E+04  0.50400000000E-02 0. -1.
         -1   -1    0    0    0  501 -0.00000000000E+00 -0.00000000000E+00 -0.29904391891E+03  0.29904391895E+03  0.50400000000E-02 0.  1.
    8880023    1    1    2    0    0 -0.22182058955E+03  0.84411325136E+02  0.12439500472E+04  0.14274283071E+04  0.65864270000E+03 0. -1.
    8880022    1    1    2    0    0  0.22182058955E+03 -0.84411325136E+02 -0.11116458502E+03  0.30344499293E+03  0.15294330000E+03 0.  0.
<mgrwt>
<rscale>  0 0.55791341E+03</rscale>
<asrwt>0</asrwt>
<pdfrwt beam="1">  1        1 0.22028145E+00 0.70009989E+03</pdfrwt>
<pdfrwt beam="2">  1       -1 0.46006756E-01 0.70009989E+03</pdfrwt>
<totfact> 0.35531132E+01</totfact>
</mgrwt>
</event>
<event>
 4    1  0.1065596E-007  0.7677262E+03  0.7818608E-02  0.9785501E-01
         -1   -1    0    0    0  501 -0.00000000000E+00  0.00000000000E+00  0.37841538875E+03  0.37841538878E+03  0.50400000000E-02 0.  1.
          1   -1    0    0  501    0  0.00000000000E+00 -0.00000000000E+00 -0.21645578967E+04  0.21645578967E+04  0.50400000000E-02 0. -1.
    8880023    1    1    2    0    0  0.30659430994E+03  0.24817990923E+03 -0.19450235365E+04  0.20910571733E+04  0.65864270000E+03 0. -1.
    8880022    1    1    2    0    0 -0.30659430994E+03 -0.24817990923E+03  0.15888102853E+03  0.45191611221E+03  0.15294330000E+03 0.  0.
<mgrwt>
<rscale>  0 0.66146498E+03</rscale>
<asrwt>0</asrwt>
<pdfrwt beam="1">  1        1 0.33300890E+00 0.76772622E+03</pdfrwt>
<pdfrwt beam="2">  1       -1 0.58217753E-01 0.76772622E+03</pdfrwt>
<totfact> 0.72122620E+00</totfact>
</mgrwt>
</event>
<event>
 4    1  0.1065596E-007  0.1070495E+04  0.7818608E-02  0.9294640E-01
         -1   -1    0    0    0  501 -0.00000000000E+00  0.00000000000E+00  0.20359756819E+04  0.20359756819E+04  0.50400000000E-02 0.  1.
          1   -1    0    0  501    0  0.00000000000E+00 -0.00000000000E+00 -0.76888551002E+03  0.76888551004E+03  0.50400000000E-02 0. -1.
    8880023    1    1    2    0    0 -0.53396012860E+03  0.65347990765E+03 -0.21560418334E+03  0.10919911990E+04  0.65864270000E+03 0.  0.
    8880022    1    1    2    0    0  0.53396012860E+03 -0.65347990765E+03  0.14826943552E+04  0.17128699929E+04  0.15294330000E+03 0.  0.
<mgrwt>
<rscale>  0 0.10127782E+04</rscale>
<asrwt>0</asrwt>
<pdfrwt beam="1">  1        1 0.11829008E+00 0.10704950E+04</pdfrwt>
<pdfrwt beam="2">  1       -1 0.31322702E+00 0.10704950E+04</pdfrwt>
<totfact> 0.64149234E-01</totfact>
</mgrwt>
</event>
<event>
 4    1  0.1065596E-007  0.1167130E+04  0.7818608E-02  0.9189756E-01
         -1   -1    0    0    0  501 -0.00000000000E+00  0.00000000000E+00  0.14602294620E+04  0.14602294620E+04  0.50400000000E-02 0.  1.
          1   -1    0    0  501    0  0.00000000000E+00 -0.00000000000E+00 -0.15876865197E+04  0.15876865197E+04  0.50400000000E-02 0. -1.
    8880023    1    1    2    0    0  0.25113316815E+03 -0.93022223721E+03 -0.11472838363E+04  0.16365975944E+04  0.65864270000E+03 0.  0.
    8880022    1    1    2    0    0 -0.25113316815E+03  0.93022223721E+03  0.10198267786E+04  0.14113183872E+04  0.15294330000E+03 0.  0.
<mgrwt>
<rscale>  0 0.11159789E+04</rscale>
<asrwt>0</asrwt>
<pdfrwt beam="1">  1        1 0.24425946E+00 0.11671296E+04</pdfrwt>
<pdfrwt beam="2">  1       -1 0.22465069E+00 0.11671296E+04</pdfrwt>
<totfact> 0.57401504E-01</totfact>
</mgrwt>
</event>
<event>
 4    1  0.1065596E-007  0.6839658E+03  0.7818608E-02  0.1007164E+00
         -1   -1    0    0    0  501 -0.00000000000E+00  0.00000000000E+00  0.39070424489E+03  0.39070424493E+03  0.50400000000E-02 0.  1.
          1   -1    0    0  501    0  0.00000000000E+00 -0.00000000000E+00 -0.59260292551E+03  0.59260292554E+03  0.50400000000E-02 0. -1.
    8880023    1    1    2    0    0  0.17764588491E+03 -0.49406281705E+02 -0.26830730369E+03  0.73470950489E+03  0.65864270000E+03 0.  1.
    8880022    1    1    2    0    0 -0.17764588491E+03  0.49406281705E+02  0.66408623070E+02  0.24859766557E+03  0.15294330000E+03 0.  0.
<mgrwt>
<rscale>  0 0.52617594E+03</rscale>
<asrwt>0</asrwt>
<pdfrwt beam="1">  1        1 0.91169681E-01 0.68396582E+03</pdfrwt>
<pdfrwt beam="2">  1       -1 0.60108345E-01 0.68396582E+03</pdfrwt>
<totfact> 0.10010335E+02</totfact>
</mgrwt>
</event>
<event>
 4    1  0.1065596E-007  0.9959099E+03  0.7818608E-02  0.9386928E-01
         -1   -1    0    0    0  501 -0.00000000000E+00  0.00000000000E+00  0.11522654612E+04  0.11522654612E+04  0.50400000000E-02 0.  1.
          1   -1    0    0  501    0  0.00000000000E+00 -0.00000000000E+00 -0.11444234931E+04  0.11444234931E+04  0.50400000000E-02 0. -1.
    8880023    1    1    2    0    0 -0.64782884892E+03 -0.37194639496E+03 -0.73064957699E+03  0.12351863620E+04  0.65864270000E+03 0. -1.
    8880022    1    1    2    0    0  0.64782884892E+03  0.37194639496E+03  0.73849154516E+03  0.10615025923E+04  0.15294330000E+03 0.  0.
<mgrwt>
<rscale>  0 0.93159275E+03</rscale>
<asrwt>0</asrwt>
<pdfrwt beam="1">  1        1 0.17606515E+00 0.99590991E+03</pdfrwt>
<pdfrwt beam="2">  1       -1 0.17727161E+00 0.99590991E+03</pdfrwt>
<totfact> 0.25683996E+00</totfact>
</mgrwt>
</event>
<event>
 4    1  0.1065596E-007  0.9672232E+03  0.7818608E-02  0.9425755E-01
          1   -1    0    0  501    0  0.00000000000E+00  0.00000000000E+00  0.10750189653E+04  0.10750189653E+04  0.50400000000E-02 0. -1.
         -1   -1    0    0    0  501 -0.00000000000E+00 -0.00000000000E+00 -0.95307109481E+03  0.95307109483E+03  0.50400000000E-02 0.  1.
    8880023    1    1    2    0    0  0.62906550483E+03 -0.32555651380E+03  0.61992586811E+03  0.11488379961E+04  0.65864270000E+03 0. -1.
    8880022    1    1    2    0    0 -0.62906550483E+03  0.32555651380E+03 -0.49797799761E+03  0.87925206406E+03  0.15294330000E+03 0.  0.
<mgrwt>
<rscale>  0 0.89986112E+03</rscale>
<asrwt>0</asrwt>
<pdfrwt beam="1">  1        1 0.16538753E+00 0.96722317E+03</pdfrwt>
<pdfrwt beam="2">  1       -1 0.14662632E+00 0.96722317E+03</pdfrwt>
<totfact> 0.49446655E+00</totfact>
</mgrwt>
</event>
<event>
 4    1  0.1065596E-007  0.6808412E+03  0.7818608E-02  0.1008852E+00
         -1   -1    0    0    0  501 -0.00000000000E+00  0.00000000000E+00  0.25533242264E+03  0.25533242269E+03  0.50400000000E-02 0.  1.
          1   -1    0    0  501    0  0.00000000000E+00 -0.00000000000E+00 -0.15584932282E+04  0.15584932282E+04  0.50400000000E-02 0. -1.
    8880023    1    1    2    0    0  0.15127770223E+03  0.82762434659E+02 -0.14054344168E+04  0.15616627901E+04  0.65864270000E+03 0. -1.
    8880022    1    1    2    0    0 -0.15127770223E+03 -0.82762434659E+02  0.10227361127E+03  0.25216286078E+03  0.15294330000E+03 0.  0.
<mgrwt>
<rscale>  0 0.51933548E+03</rscale>
<asrwt>0</asrwt>
<pdfrwt beam="1">  1        1 0.23976818E+00 0.68084122E+03</pdfrwt>
<pdfrwt beam="2">  1       -1 0.39281912E-01 0.68084122E+03</pdfrwt>
<totfact> 0.38999943E+01</totfact>
</mgrwt>
</event>
<event>
 4    1  0.1065596E-007  0.1083520E+04  0.7818608E-02  0.9279630E-01
         -1   -1    0    0    0  501 -0.00000000000E+00  0.00000000000E+00  0.10147925831E+04  0.10147925832E+04  0.50400000000E-02 0.  1.
          1   -1    0    0  501    0  0.00000000000E+00 -0.00000000000E+00 -0.18438299669E+04  0.18438299669E+04  0.50400000000E-02 0. -1.
    8880023    1    1    2    0    0 -0.83262771985E+03  0.21664894546E+03 -0.14328902087E+04  0.17964382099E+04  0.65864270000E+03 0.  0.
    8880022    1    1    2    0    0  0.83262771985E+03 -0.21664894546E+03  0.60385282492E+03  0.10621843402E+04  0.15294330000E+03 0.  0.
<mgrwt>
<rscale>  0 0.10267998E+04</rscale>
<asrwt>0</asrwt>
<pdfrwt beam="1">  1        1 0.28366615E+00 0.10835201E+04</pdfrwt>
<pdfrwt beam="2">  1       -1 0.15612194E+00 0.10835201E+04</pdfrwt>
<totfact> 0.11864523E+00</totfact>
</mgrwt>
</event>
<event>
 4    1  0.1065596E-007  0.6977815E+03  0.7818608E-02  0.1000653E+00
          1   -1    0    0  501    0  0.00000000000E+00  0.00000000000E+00  0.51312004381E+03  0.51312004384E+03  0.50400000000E-02 0. -1.
         -1   -1    0    0    0  501 -0.00000000000E+00 -0.00000000000E+00 -0.47712084888E+03  0.47712084890E+03  0.50400000000E-02 0.  1.
    8880023    1    1    2    0    0 -0.89611001595E+02  0.21227035820E+03  0.10390408081E+03  0.70547508875E+03  0.65864270000E+03 0.  0.
    8880022    1    1    2    0    0  0.89611001595E+02 -0.21227035820E+03 -0.67904885875E+02  0.28476580399E+03  0.15294330000E+03 0.  0.
<mgrwt>
<rscale>  0 0.55364761E+03</rscale>
<asrwt>0</asrwt>
<pdfrwt beam="1">  1        1 0.78941545E-01 0.69778152E+03</pdfrwt>
<pdfrwt beam="2">  1       -1 0.73403207E-01 0.69778152E+03</pdfrwt>
<totfact> 0.81794614E+01</totfact>
</mgrwt>
</event>
<event>
 4    1  0.1065596E-007  0.9460138E+03  0.7818608E-02  0.9455873E-01
          1   -1    0    0  501    0  0.00000000000E+00  0.00000000000E+00  0.93112981744E+03  0.93112981746E+03  0.50400000000E-02 0. -1.
         -1   -1    0    0    0  501 -0.00000000000E+00 -0.00000000000E+00 -0.18035921286E+04  0.18035921286E+04  0.50400000000E-02 0.  1.
    8880023    1    1    2    0    0 -0.37851251568E+03 -0.56379090289E+03  0.59009598147E+03  0.11149687800E+04  0.65864270000E+03 0.  0.
    8880022    1    1    2    0    0  0.37851251568E+03  0.56379090289E+03 -0.14625582926E+04  0.16197531661E+04  0.15294330000E+03 0.  0.
<mgrwt>
<rscale>  0 0.87616816E+03</rscale>
<asrwt>0</asrwt>
<pdfrwt beam="1">  1        1 0.14325074E+00 0.94601380E+03</pdfrwt>
<pdfrwt beam="2">  1       -1 0.27747571E+00 0.94601380E+03</pdfrwt>
<totfact> 0.80876306E-01</totfact>
</mgrwt>
</event>
<event>
 4    1  0.1065596E-007  0.1026611E+04  0.7818608E-02  0.9347541E-01
          1   -1    0    0  501    0  0.00000000000E+00  0.00000000000E+00  0.19498610348E+04  0.19498610348E+04  0.50400000000E-02 0. -1.
         -1   -1    0    0    0  501 -0.00000000000E+00 -0.00000000000E+00 -0.52941982451E+03  0.52941982453E+03  0.50400000000E-02 0.  1.
    8880023    1    1    2    0    0 -0.75670949520E+03 -0.21797043724E+03  0.13178933599E+04  0.16705608298E+04  0.65864270000E+03 0.  0.
    8880022    1    1    2    0    0  0.75670949520E+03  0.21797043724E+03  0.10254785042E+03  0.80872002960E+03  0.15294330000E+03 0.  0.
<mgrwt>
<rscale>  0 0.96521505E+03</rscale>
<asrwt>0</asrwt>
<pdfrwt beam="1">  1        1 0.29997862E+00 0.10266112E+04</pdfrwt>
<pdfrwt beam="2">  1       -1 0.81449203E-01 0.10266112E+04</pdfrwt>
<totfact> 0.48733330E+00</totfact>
</mgrwt>
</event>
<event>
 4    1  0.1065596E-007  0.7262245E+03  0.7818608E-02  0.9902061E-01
         -1   -1    0    0    0  501 -0.00000000000E+00  0.00000000000E+00  0.10240346367E+04  0.10240346367E+04  0.50400000000E-02 0.  1.
          1   -1    0    0  501    0  0.00000000000E+00 -0.00000000000E+00 -0.14767528546E+04  0.14767528546E+04  0.50400000000E-02 0. -1.
    8880023    1    1    2    0    0  0.20618099598E+03  0.22601148592E+03 -0.13541798193E+04  0.15366212885E+04  0.65864270000E+03 0. -1.
    8880022    1    1    2    0    0 -0.20618099598E+03 -0.22601148592E+03  0.90146160143E+03  0.96416620286E+03  0.15294330000E+03 0.  0.
<mgrwt>
<rscale>  0 0.60161508E+03</rscale>
<asrwt>0</asrwt>
<pdfrwt beam="1">  1        1 0.22719275E+00 0.72622448E+03</pdfrwt>
<pdfrwt beam="2">  1       -1 0.15754379E+00 0.72622448E+03</pdfrwt>
<totfact> 0.21774748E+00</totfact>
</mgrwt>
</event>
<event>
 4    1  0.1065596E-007  0.1181836E+04  0.7818608E-02  0.9174984E-01
          1   -1    0    0  501    0  0.00000000000E+00  0.00000000000E+00  0.30214304299E+04  0.30214304299E+04  0.50400000000E-02 0. -1.
         -1   -1    0    0    0  501 -0.00000000000E+00 -0.00000000000E+00 -0.67127493222E+03  0.67127493224E+03  0.50400000000E-02 0.  1.
    8880023    1    1    2    0    0 -0.37836927333E+03  0.90540809027E+03  0.24240700765E+04  0.26968227712E+04  0.65864270000E+03 0.  0.
    8880022    1    1    2    0    0  0.37836927333E+03 -0.90540809027E+03 -0.73914578881E+02  0.99588259093E+03  0.15294330000E+03 0.  0.
<mgrwt>
<rscale>  0 0.11315407E+04</rscale>
<asrwt>0</asrwt>
<pdfrwt beam="1">  1        1 0.46483545E+00 0.11818364E+04</pdfrwt>
<pdfrwt beam="2">  1       -1 0.10327307E+00 0.11818364E+04</pdfrwt>
<totfact> 0.50957041E-01</totfact>
</mgrwt>
</event>
<event>
 4    1  0.1065596E-007  0.8656266E+03  0.7818608E-02  0.9583632E-01
          1   -1    0    0  501    0  0.00000000000E+00  0.00000000000E+00  0.19598463623E+04  0.19598463623E+04  0.50400000000E-02 0. -1.
         -1   -1    0    0    0  501 -0.00000000000E+00 -0.00000000000E+00 -0.80319709079E+03  0.80319709080E+03  0.50400000000E-02 0.  1.
    8880023    1    1    2    0    0  0.13389345435E+03  0.54550143124E+03  0.17371831687E+04  0.19409056743E+04  0.65864270000E+03 0. -1.
    8880022    1    1    2    0    0 -0.13389345435E+03 -0.54550143124E+03 -0.58053389718E+03  0.82213777883E+03  0.15294330000E+03 0.  0.
<mgrwt>
<rscale>  0 0.78389059E+03</rscale>
<asrwt>0</asrwt>
<pdfrwt beam="1">  1        1 0.30151482E+00 0.86562664E+03</pdfrwt>
<pdfrwt beam="2">  1       -1 0.12356879E+00 0.86562664E+03</pdfrwt>
<totfact> 0.18856122E+00</totfact>
</mgrwt>
</event>
<event>
 4    1  0.1065596E-007  0.8406525E+03  0.7818608E-02  0.9628951E-01
          1   -1    0    0  501    0  0.00000000000E+00  0.00000000000E+00  0.96863167386E+03  0.96863167387E+03  0.50400000000E-02 0. -1.
         -1   -1    0    0    0  501 -0.00000000000E+00 -0.00000000000E+00 -0.75405705303E+03  0.75405705305E+03  0.50400000000E-02 0.  1.
    8880023    1    1    2    0    0 -0.26465094747E+03 -0.45038464312E+03  0.61951498423E+03  0.10442679123E+04  0.65864270000E+03 0.  0.
    8880022    1    1    2    0    0  0.26465094747E+03  0.45038464312E+03 -0.40494036340E+03  0.67842081460E+03  0.15294330000E+03 0.  0.
<mgrwt>
<rscale>  0 0.75409287E+03</rscale>
<asrwt>0</asrwt>
<pdfrwt beam="1">  1        1 0.14902026E+00 0.84065252E+03</pdfrwt>
<pdfrwt beam="2">  1       -1 0.11600878E+00 0.84065252E+03</pdfrwt>
<totfact> 0.10981032E+01</totfact>
</mgrwt>
</event>
<event>
 4    1  0.1065596E-007  0.9779664E+03  0.7818608E-02  0.9410969E-01
         -1   -1    0    0    0  501 -0.00000000000E+00  0.00000000000E+00  0.22930597164E+03  0.22930597170E+03  0.50400000000E-02 0.  1.
          1   -1    0    0  501    0  0.00000000000E+00 -0.00000000000E+00 -0.35945070224E+04  0.35945070224E+04  0.50400000000E-02 0. -1.
    8880023    1    1    2    0    0  0.72228004097E+03  0.30325884158E+02 -0.25089312536E+04  0.26927967540E+04  0.65864270000E+03 0. -1.
    8880022    1    1    2    0    0 -0.72228004097E+03 -0.30325884158E+02 -0.85626979717E+03  0.11310162401E+04  0.15294330000E+03 0.  1.
<mgrwt>
<rscale>  0 0.91178410E+03</rscale>
<asrwt>0</asrwt>
<pdfrwt beam="1">  1        1 0.55300104E+00 0.97796642E+03</pdfrwt>
<pdfrwt beam="2">  1       -1 0.35277844E-01 0.97796642E+03</pdfrwt>
<totfact> 0.16789442E+00</totfact>
</mgrwt>
</event>
<event>
 4    1  0.1065596E-007  0.1538309E+04  0.7818608E-02  0.8883048E-01
         -1   -1    0    0    0  501 -0.00000000000E+00  0.00000000000E+00  0.83765473112E+03  0.83765473113E+03  0.50400000000E-02 0.  1.
          1   -1    0    0  501    0  0.00000000000E+00 -0.00000000000E+00 -0.27068911975E+04  0.27068911975E+04  0.50400000000E-02 0. -1.
    8880023    1    1    2    0    0 -0.91720614385E+03  0.10446610836E+04 -0.13688561012E+04  0.20591651517E+04  0.65864270000E+03 0.  0.
    8880022    1    1    2    0    0  0.91720614385E+03 -0.10446610836E+04 -0.50038036524E+03  0.14853807770E+04  0.15294330000E+03 0.  0.
<mgrwt>
<rscale>  0 0.15021146E+04</rscale>
<asrwt>0</asrwt>
<pdfrwt beam="1">  1        1 0.41644479E+00 0.15383088E+04</pdfrwt>
<pdfrwt beam="2">  1       -1 0.12886996E+00 0.15383088E+04</pdfrwt>
<totfact> 0.47752037E-01</totfact>
</mgrwt>
</event>
<event>
 4    1  0.1065596E-007  0.7667969E+03  0.7818608E-02  0.9787819E-01
         -1   -1    0    0    0  501 -0.00000000000E+00  0.00000000000E+00  0.22461682316E+03  0.22461682322E+03  0.50400000000E-02 0.  1.
          1   -1    0    0  501    0  0.00000000000E+00 -0.00000000000E+00 -0.19763901807E+04  0.19763901807E+04  0.50400000000E-02 0. -1.
    8880023    1    1    2    0    0 -0.21433683089E+03 -0.32897869630E+03 -0.15595322609E+04  0.17378487675E+04  0.65864270000E+03 0. -1.
    8880022    1    1    2    0    0  0.21433683089E+03  0.32897869630E+03 -0.19224109661E+03  0.46315823639E+03  0.15294330000E+03 0.  0.
<mgrwt>
<rscale>  0 0.66020387E+03</rscale>
<asrwt>0</asrwt>
<pdfrwt beam="1">  1        1 0.30406002E+00 0.76679689E+03</pdfrwt>
<pdfrwt beam="2">  1       -1 0.34556436E-01 0.76679689E+03</pdfrwt>
<totfact> 0.25439248E+01</totfact>
</mgrwt>
</event>
<event>
 4    1  0.1065596E-007  0.7076188E+03  0.7818608E-02  0.9966952E-01
          1   -1    0    0  501    0  0.00000000000E+00  0.00000000000E+00  0.66955239964E+03  0.66955239965E+03  0.50400000000E-02 0. -1.
         -1   -1    0    0    0  501 -0.00000000000E+00 -0.00000000000E+00 -0.76693653999E+03  0.76693654001E+03  0.50400000000E-02 0.  1.
    8880023    1    1    2    0    0  0.17977531973E+03  0.18599729455E+03  0.43105995661E+03  0.82857531439E+03  0.65864270000E+03 0. -1.
    8880022    1    1    2    0    0 -0.17977531973E+03 -0.18599729455E+03 -0.52844409697E+03  0.60791362527E+03  0.15294330000E+03 0.  0.
<mgrwt>
<rscale>  0 0.57123392E+03</rscale>
<asrwt>0</asrwt>
<pdfrwt beam="1">  1        1 0.10300806E+00 0.70761880E+03</pdfrwt>
<pdfrwt beam="2">  1       -1 0.11799024E+00 0.70761880E+03</pdfrwt>
<totfact> 0.19400110E+01</totfact>
</mgrwt>
</event>
<event>
 4    1  0.1065596E-007  0.8241974E+03  0.7818608E-02  0.9660730E-01
         -1   -1    0    0    0  501 -0.00000000000E+00  0.00000000000E+00  0.13394560620E+04  0.13394560620E+04  0.50400000000E-02 0.  1.
          1   -1    0    0  501    0  0.00000000000E+00 -0.00000000000E+00 -0.40379351754E+03  0.40379351757E+03  0.50400000000E-02 0. -1.
    8880023    1    1    2    0    0 -0.16903014359E+03  0.46574670068E+03  0.20854023958E+03  0.85017081603E+03  0.65864270000E+03 0.  0.
    8880022    1    1    2    0    0  0.16903014359E+03 -0.46574670068E+03  0.72712230485E+03  0.89307876353E+03  0.15294330000E+03 0.  0.
<mgrwt>
<rscale>  0 0.73403847E+03</rscale>
<asrwt>0</asrwt>
<pdfrwt beam="1">  1        1 0.62122079E-01 0.82419742E+03</pdfrwt>
<pdfrwt beam="2">  1       -1 0.20607017E+00 0.82419742E+03</pdfrwt>
<totfact> 0.82924439E+00</totfact>
</mgrwt>
</event>
<event>
 4    1  0.1065596E-007  0.8554068E+03  0.7818608E-02  0.9601787E-01
          1   -1    0    0  501    0  0.00000000000E+00  0.00000000000E+00  0.44509109022E+03  0.44509109025E+03  0.50400000000E-02 0. -1.
         -1   -1    0    0    0  501 -0.00000000000E+00 -0.00000000000E+00 -0.12507977849E+04  0.12507977849E+04  0.50400000000E-02 0.  1.
    8880023    1    1    2    0    0  0.26204842842E+03  0.47879146247E+03 -0.72896541632E+03  0.11238823016E+04  0.65864270000E+03 0.  0.
    8880022    1    1    2    0    0 -0.26204842842E+03 -0.47879146247E+03 -0.76741278335E+02  0.57200657355E+03  0.15294330000E+03 0.  0.
<mgrwt>
<rscale>  0 0.77178044E+03</rscale>
<asrwt>0</asrwt>
<pdfrwt beam="1">  1        1 0.68475553E-01 0.85540683E+03</pdfrwt>
<pdfrwt beam="2">  1       -1 0.19243043E+00 0.85540683E+03</pdfrwt>
<totfact> 0.89981168E+00</totfact>
</mgrwt>
</event>
<event>
 4    1  0.1065596E-007  0.7157246E+03  0.7818608E-02  0.9937327E-01
         -1   -1    0    0    0  501 -0.00000000000E+00  0.00000000000E+00  0.43681675069E+03  0.43681675071E+03  0.50400000000E-02 0.  1.
          1   -1    0    0  501    0  0.00000000000E+00 -0.00000000000E+00 -0.28757524074E+04  0.28757524074E+04  0.50400000000E-02 0. -1.
    8880023    1    1    2    0    0 -0.22447712174E+03  0.16751571914E+03 -0.27651134873E+04  0.28562412885E+04  0.65864270000E+03 0. -1.
    8880022    1    1    2    0    0  0.22447712174E+03 -0.16751571914E+03  0.32617783062E+03  0.45632786957E+03  0.15294330000E+03 0.  0.
<mgrwt>
<rscale>  0 0.58485867E+03</rscale>
<asrwt>0</asrwt>
<pdfrwt beam="1">  1        1 0.44242344E+00 0.71572460E+03</pdfrwt>
<pdfrwt beam="2">  1       -1 0.67202579E-01 0.71572460E+03</pdfrwt>
<totfact> 0.17824931E+00</totfact>
</mgrwt>
</event>
<event>
 4    1  0.1065596E-007  0.7365930E+03  0.7818608E-02  0.9869985E-01
         -1   -1    0    0    0  501 -0.00000000000E+00  0.00000000000E+00  0.39982399945E+03  0.39982399948E+03  0.50400000000E-02 0.  1.
          1   -1    0    0  501    0  0.00000000000E+00 -0.00000000000E+00 -0.14066560489E+04  0.14066560490E+04  0.50400000000E-02 0. -1.
    8880023    1    1    2    0    0 -0.25264723695E+03 -0.21196339318E+03 -0.11899163043E+04  0.13994535090E+04  0.65864270000E+03 0.  0.
    8880022    1    1    2    0    0  0.25264723695E+03  0.21196339318E+03  0.18308425483E+03  0.40702653939E+03  0.15294330000E+03 0.  0.
<mgrwt>
<rscale>  0 0.61738265E+03</rscale>
<asrwt>0</asrwt>
<pdfrwt beam="1">  1        1 0.21640862E+00 0.73659304E+03</pdfrwt>
<pdfrwt beam="2">  1       -1 0.61511385E-01 0.73659304E+03</pdfrwt>
<totfact> 0.21086170E+01</totfact>
</mgrwt>
</event>
<event>
 4    1  0.1065596E-007  0.1127445E+04  0.7818608E-02  0.9231097E-01
          1   -1    0    0  501    0  0.00000000000E+00  0.00000000000E+00  0.19033523238E+04  0.19033523238E+04  0.50400000000E-02 0. -1.
         -1   -1    0    0    0  501 -0.00000000000E+00 -0.00000000000E+00 -0.12910988574E+04  0.12910988574E+04  0.50400000000E-02 0.  1.
    8880023    1    1    2    0    0 -0.19157950942E+03  0.89477351679E+03  0.15226545892E+04  0.18946264960E+04  0.65864270000E+03 0.  0.
    8880022    1    1    2    0    0  0.19157950942E+03 -0.89477351679E+03 -0.91040112286E+03  0.12998246852E+04  0.15294330000E+03 0.  0.
<mgrwt>
<rscale>  0 0.10738137E+04</rscale>
<asrwt>0</asrwt>
<pdfrwt beam="1">  1        1 0.29282343E+00 0.11274451E+04</pdfrwt>
<pdfrwt beam="2">  1       -1 0.19863059E+00 0.11274451E+04</pdfrwt>
<totfact> 0.52853572E-01</totfact>
</mgrwt>
</event>
<event>
 4    1  0.1065596E-007  0.7799497E+03  0.7818608E-02  0.9755955E-01
          1   -1    0    0  501    0  0.00000000000E+00  0.00000000000E+00  0.31176859166E+04  0.31176859166E+04  0.50400000000E-02 0. -1.
         -1   -1    0    0    0  501 -0.00000000000E+00 -0.00000000000E+00 -0.76694849513E+03  0.76694849514E+03  0.50400000000E-02 0.  1.
    8880023    1    1    2    0    0 -0.20315745455E+03 -0.36501841490E+03  0.29988044026E+04  0.30985721625E+04  0.65864270000E+03 0. -1.
    8880022    1    1    2    0    0  0.20315745455E+03  0.36501841490E+03 -0.64806698119E+03  0.78606224924E+03  0.15294330000E+03 0.  0.
<mgrwt>
<rscale>  0 0.67780774E+03</rscale>
<asrwt>0</asrwt>
<pdfrwt beam="1">  1        1 0.47964398E+00 0.77994974E+03</pdfrwt>
<pdfrwt beam="2">  1       -1 0.11799208E+00 0.77994974E+03</pdfrwt>
<totfact> 0.34095874E-01</totfact>
</mgrwt>
</event>
<event>
 4    1  0.1065596E-007  0.7336218E+03  0.7818608E-02  0.9878932E-01
         -1   -1    0    0    0  501 -0.00000000000E+00  0.00000000000E+00  0.11760020704E+04  0.11760020704E+04  0.50400000000E-02 0.  1.
          1   -1    0    0  501    0  0.00000000000E+00 -0.00000000000E+00 -0.44423050770E+03  0.44423050773E+03  0.50400000000E-02 0. -1.
    8880023    1    1    2    0    0  0.31945099213E+03  0.48391777363E+02 -0.75362489579E+02  0.73748248222E+03  0.65864270000E+03 0. -1.
    8880022    1    1    2    0    0 -0.31945099213E+03 -0.48391777363E+02  0.80713405229E+03  0.88275009594E+03  0.15294330000E+03 0.  0.
<mgrwt>
<rscale>  0 0.61293302E+03</rscale>
<asrwt>0</asrwt>
<pdfrwt beam="1">  1        1 0.68343156E-01 0.73362177E+03</pdfrwt>
<pdfrwt beam="2">  1       -1 0.18092339E+00 0.73362177E+03</pdfrwt>
<totfact> 0.11023674E+01</totfact>
</mgrwt>
</event>
<event>
 4    1  0.1065596E-007  0.1578176E+04  0.7818608E-02  0.8856319E-01
          1   -1    0    0  501    0  0.00000000000E+00  0.00000000000E+00  0.15258144328E+04  0.15258144328E+04  0.50400000000E-02 0. -1.
         -1   -1    0    0    0  501 -0.00000000000E+00 -0.00000000000E+00 -0.25494024265E+04  0.25494024265E+04  0.50400000000E-02 0.  1.
    8880023    1    1    2    0    0 -0.61846740168E+02  0.14328303983E+04  0.78444495932E+03  0.17623824982E+04  0.65864270000E+03 0.  0.
    8880022    1    1    2    0    0  0.61846740168E+02 -0.14328303983E+04 -0.18080329531E+04  0.23128343611E+04  0.15294330000E+03 0.  0.
<mgrwt>
<rscale>  0 0.15430505E+04</rscale>
<asrwt>0</asrwt>
<pdfrwt beam="1">  1        1 0.23474068E+00 0.15781756E+04</pdfrwt>
<pdfrwt beam="2">  1       -1 0.39221576E+00 0.15781756E+04</pdfrwt>
<totfact> 0.47562253E-02</totfact>
</mgrwt>
</event>
<event>
 4    1  0.1065596E-007  0.1103074E+04  0.7818608E-02  0.9257641E-01
          1   -1    0    0  501    0  0.00000000000E+00  0.00000000000E+00  0.16395890153E+04  0.16395890153E+04  0.50400000000E-02 0. -1.
         -1   -1    0    0    0  501 -0.00000000000E+00 -0.00000000000E+00 -0.71667341505E+03  0.71667341507E+03  0.50400000000E-02 0.  1.
    8880023    1    1    2    0    0 -0.65469671852E+03 -0.59525956215E+03  0.95308054540E+03  0.14577840964E+04  0.65864270000E+03 0.  0.
    8880022    1    1    2    0    0  0.65469671852E+03  0.59525956215E+03 -0.30164945173E+02  0.89847833391E+03  0.15294330000E+03 0.  0.
<mgrwt>
<rscale>  0 0.10477776E+04</rscale>
<asrwt>0</asrwt>
<pdfrwt beam="1">  1        1 0.25224446E+00 0.11030739E+04</pdfrwt>
<pdfrwt beam="2">  1       -1 0.11025745E+00 0.11030739E+04</pdfrwt>
<totfact> 0.39557918E+00</totfact>
</mgrwt>
</event>
<event>
 4    1  0.1065596E-007  0.6599010E+03  0.7818608E-02  0.1024258E+00
         -1   -1    0    0    0  501 -0.00000000000E+00  0.00000000000E+00  0.24589726879E+03  0.24589726884E+03  0.50400000000E-02 0.  1.
          1   -1    0    0  501    0  0.00000000000E+00 -0.00000000000E+00 -0.79321220028E+03  0.79321220029E+03  0.50400000000E-02 0. -1.
    8880023    1    1    2    0    0  0.38795770520E+02  0.12410550824E+02 -0.57875859610E+03  0.87774190535E+03  0.65864270000E+03 0. -1.
    8880022    1    1    2    0    0 -0.38795770520E+02 -0.12410550824E+02  0.31443664617E+02  0.16136756378E+03  0.15294330000E+03 0.  0.
<mgrwt>
<rscale>  0 0.46180833E+03</rscale>
<asrwt>0</asrwt>
<pdfrwt beam="1">  1        1 0.12203265E+00 0.65990101E+03</pdfrwt>
<pdfrwt beam="2">  1       -1 0.37830349E-01 0.65990101E+03</pdfrwt>
<totfact> 0.15440634E+02</totfact>
</mgrwt>
</event>
<event>
 4    1  0.1065596E-007  0.9489117E+03  0.7818608E-02  0.9451682E-01
         -1   -1    0    0    0  501 -0.00000000000E+00  0.00000000000E+00  0.10691396346E+04  0.10691396346E+04  0.50400000000E-02 0.  1.
          1   -1    0    0  501    0  0.00000000000E+00 -0.00000000000E+00 -0.79762427113E+03  0.79762427114E+03  0.50400000000E-02 0. -1.
    8880023    1    1    2    0    0  0.27670178704E+03 -0.62454722353E+03 -0.26451906199E+03  0.98509068303E+03  0.65864270000E+03 0.  0.
    8880022    1    1    2    0    0 -0.27670178704E+03  0.62454722353E+03  0.53603442545E+03  0.88167322272E+03  0.15294330000E+03 0.  0.
<mgrwt>
<rscale>  0 0.87941826E+03</rscale>
<asrwt>0</asrwt>
<pdfrwt beam="1">  1        1 0.12271143E+00 0.94891165E+03</pdfrwt>
<pdfrwt beam="2">  1       -1 0.16448302E+00 0.94891165E+03</pdfrwt>
<totfact> 0.60563977E+00</totfact>
</mgrwt>
</event>
<event>
 4    1  0.1065596E-007  0.1022770E+04  0.7818608E-02  0.9352356E-01
         -1   -1    0    0    0  501 -0.00000000000E+00  0.00000000000E+00  0.18159071566E+04  0.18159071566E+04  0.50400000000E-02 0.  1.
          1   -1    0    0  501    0  0.00000000000E+00 -0.00000000000E+00 -0.15716168380E+04  0.15716168380E+04  0.50400000000E-02 0. -1.
    8880023    1    1    2    0    0  0.48865373769E+03  0.61111828318E+03  0.15503670183E+04  0.18573357610E+04  0.65864270000E+03 0.  0.
    8880022    1    1    2    0    0 -0.48865373769E+03 -0.61111828318E+03 -0.13060766998E+04  0.15301882335E+04  0.15294330000E+03 0.  0.
<mgrwt>
<rscale>  0 0.96102531E+03</rscale>
<asrwt>0</asrwt>
<pdfrwt beam="1">  1        1 0.24178721E+00 0.10227699E+04</pdfrwt>
<pdfrwt beam="2">  1       -1 0.27937033E+00 0.10227699E+04</pdfrwt>
<totfact> 0.26511833E-01</totfact>
</mgrwt>
</event>
<event>
 4    1  0.1065596E-007  0.6689663E+03  0.7818608E-02  0.1016415E+00
          1   -1    0    0  501    0  0.00000000000E+00  0.00000000000E+00  0.83095384495E+03  0.83095384497E+03  0.50400000000E-02 0. -1.
         -1   -1    0    0    0  501 -0.00000000000E+00 -0.00000000000E+00 -0.41779978656E+03  0.41779978659E+03  0.50400000000E-02 0.  1.
    8880023    1    1    2    0    0  0.11655220525E+03 -0.11014698847E+02  0.65725406880E+03  0.93781600400E+03  0.65864270000E+03 0. -1.
    8880022    1    1    2    0    0 -0.11655220525E+03  0.11014698847E+02 -0.24410001041E+03  0.31093762756E+03  0.15294330000E+03 0.  0.
<mgrwt>
<rscale>  0 0.49002825E+03</rscale>
<asrwt>0</asrwt>
<pdfrwt beam="1">  1        1 0.12783905E+00 0.66896633E+03</pdfrwt>
<pdfrwt beam="2">  1       -1 0.64276891E-01 0.66896633E+03</pdfrwt>
<totfact> 0.52603478E+01</totfact>
</mgrwt>
</event>
<event>
 4    1  0.1065596E-007  0.7961080E+03  0.7818608E-02  0.9719275E-01
          1   -1    0    0  501    0  0.00000000000E+00  0.00000000000E+00  0.87161391996E+03  0.87161391998E+03  0.50400000000E-02 0. -1.
         -1   -1    0    0    0  501 -0.00000000000E+00 -0.00000000000E+00 -0.65829096336E+03  0.65829096338E+03  0.50400000000E-02 0.  1.
    8880023    1    1    2    0    0 -0.46379816757E+02 -0.44477703264E+03  0.53413170022E+03  0.95868898795E+03  0.65864270000E+03 0. -1.
    8880022    1    1    2    0    0  0.46379816757E+02  0.44477703264E+03 -0.32080874362E+03  0.57121589541E+03  0.15294330000E+03 0.  0.
<mgrwt>
<rscale>  0 0.69880649E+03</rscale>
<asrwt>0</asrwt>
<pdfrwt beam="1">  1        1 0.13409445E+00 0.79610797E+03</pdfrwt>
<pdfrwt beam="2">  1       -1 0.10127553E+00 0.79610797E+03</pdfrwt>
<totfact> 0.18191167E+01</totfact>
</mgrwt>
</event>
<event>
 4    1  0.1065596E-007  0.6807689E+03  0.7818608E-02  0.1008892E+00
         -1   -1    0    0    0  501 -0.00000000000E+00  0.00000000000E+00  0.23130117769E+03  0.23130117775E+03  0.50400000000E-02 0.  1.
          1   -1    0    0  501    0  0.00000000000E+00 -0.00000000000E+00 -0.96417215710E+03  0.96417215711E+03  0.50400000000E-02 0. -1.
    8880023    1    1    2    0    0  0.17133777535E+03 -0.16717209226E+02 -0.67358543228E+03  0.95768660802E+03  0.65864270000E+03 0. -1.
    8880022    1    1    2    0    0 -0.17133777535E+03  0.16717209226E+02 -0.59285547128E+02  0.23778672684E+03  0.15294330000E+03 0.  0.
<mgrwt>
<rscale>  0 0.51917370E+03</rscale>
<asrwt>0</asrwt>
<pdfrwt beam="1">  1        1 0.14833418E+00 0.68076891E+03</pdfrwt>
<pdfrwt beam="2">  1       -1 0.35584797E-01 0.68076891E+03</pdfrwt>
<totfact> 0.12441052E+02</totfact>
</mgrwt>
</event>
<event>
 4    1  0.1065596E-007  0.8757786E+03  0.7818608E-02  0.9566090E-01
         -1   -1    0    0    0  501 -0.00000000000E+00  0.00000000000E+00  0.59958277871E+03  0.59958277873E+03  0.50400000000E-02 0.  1.
          1   -1    0    0  501    0  0.00000000000E+00 -0.00000000000E+00 -0.13655425244E+04  0.13655425244E+04  0.50400000000E-02 0. -1.
    8880023    1    1    2    0    0  0.11937127104E+03  0.56473746827E+03 -0.99504314490E+03  0.13255561002E+04  0.65864270000E+03 0.  0.
    8880022    1    1    2    0    0 -0.11937127104E+03 -0.56473746827E+03  0.22908339925E+03  0.63956920286E+03  0.15294330000E+03 0.  0.
<mgrwt>
<rscale>  0 0.79581802E+03</rscale>
<asrwt>0</asrwt>
<pdfrwt beam="1">  1        1 0.21008347E+00 0.87577858E+03</pdfrwt>
<pdfrwt beam="2">  1       -1 0.92243504E-01 0.87577858E+03</pdfrwt>
<totfact> 0.94715713E+00</totfact>
</mgrwt>
</event>
<event>
 4    1  0.1065596E-007  0.9348251E+03  0.7818608E-02  0.9472292E-01
         -1   -1    0    0    0  501 -0.00000000000E+00  0.00000000000E+00  0.14519373853E+04  0.14519373854E+04  0.50400000000E-02 0.  1.
          1   -1    0    0  501    0  0.00000000000E+00 -0.00000000000E+00 -0.14157580635E+04  0.14157580635E+04  0.50400000000E-02 0. -1.
    8880023    1    1    2    0    0  0.59480372599E+03  0.29376236603E+03 -0.11609423221E+04  0.14905318117E+04  0.65864270000E+03 0. -1.
    8880022    1    1    2    0    0 -0.59480372599E+03 -0.29376236603E+03  0.11971216439E+04  0.13771636372E+04  0.15294330000E+03 0.  0.
<mgrwt>
<rscale>  0 0.86357804E+03</rscale>
<asrwt>0</asrwt>
<pdfrwt beam="1">  1        1 0.21780893E+00 0.93482512E+03</pdfrwt>
<pdfrwt beam="2">  1       -1 0.22337498E+00 0.93482512E+03</pdfrwt>
<totfact> 0.79716182E-01</totfact>
</mgrwt>
</event>
<event>
 4    1  0.1065596E-007  0.9787554E+03  0.7818608E-02  0.9409895E-01
          1   -1    0    0  501    0  0.00000000000E+00  0.00000000000E+00  0.14226328462E+04  0.14226328462E+04  0.50400000000E-02 0. -1.
         -1   -1    0    0    0  501 -0.00000000000E+00 -0.00000000000E+00 -0.87027329812E+03  0.87027329814E+03  0.50400000000E-02 0.  1.
    8880023    1    1    2    0    0 -0.70705702283E+03  0.15563491481E+03  0.10231214889E+04  0.14158882892E+04  0.65864270000E+03 0.  0.
    8880022    1    1    2    0    0  0.70705702283E+03 -0.15563491481E+03 -0.47076194083E+03  0.87701785511E+03  0.15294330000E+03 0.  0.
<mgrwt>
<rscale>  0 0.91265775E+03</rscale>
<asrwt>0</asrwt>
<pdfrwt beam="1">  1        1 0.21886659E+00 0.97875537E+03</pdfrwt>
<pdfrwt beam="2">  1       -1 0.13388820E+00 0.97875537E+03</pdfrwt>
<totfact> 0.35112800E+00</totfact>
</mgrwt>
</event>
<event>
 4    1  0.1065596E-007  0.9605491E+03  0.7818608E-02  0.9435096E-01
          1   -1    0    0  501    0  0.00000000000E+00  0.00000000000E+00  0.25456009918E+04  0.25456009918E+04  0.50400000000E-02 0. -1.
         -1   -1    0    0    0  501 -0.00000000000E+00 -0.00000000000E+00 -0.88654902008E+03  0.88654902010E+03  0.50400000000E-02 0.  1.
    8880023    1    1    2    0    0 -0.50813144868E+03 -0.48025701314E+03  0.22866771430E+04  0.24802312252E+04  0.65864270000E+03 0. -1.
    8880022    1    1    2    0    0  0.50813144868E+03  0.48025701314E+03 -0.62762517130E+03  0.95191878670E+03  0.15294330000E+03 0.  0.
<mgrwt>
<rscale>  0 0.89242852E+03</rscale>
<asrwt>0</asrwt>
<pdfrwt beam="1">  1        1 0.39163091E+00 0.96054910E+03</pdfrwt>
<pdfrwt beam="2">  1       -1 0.13639216E+00 0.96054910E+03</pdfrwt>
<totfact> 0.57983602E-01</totfact>
</mgrwt>
</event>
<event>
 4    1  0.1065596E-007  0.8289114E+03  0.7818608E-02  0.9651454E-01
          1   -1    0    0  501    0  0.00000000000E+00  0.00000000000E+00  0.15474963392E+04  0.15474963392E+04  0.50400000000E-02 0. -1.
         -1   -1    0    0    0  501 -0.00000000000E+00 -0.00000000000E+00 -0.37460353809E+03  0.37460353812E+03  0.50400000000E-02 0.  1.
    8880023    1    1    2    0    0 -0.74697012249E+02 -0.49769900009E+03  0.11201030032E+04  0.13934578868E+04  0.65864270000E+03 0.  0.
    8880022    1    1    2    0    0  0.74697012249E+02  0.49769900009E+03  0.52789797889E+02  0.52864199048E+03  0.15294330000E+03 0.  0.
<mgrwt>
<rscale>  0 0.73982235E+03</rscale>
<asrwt>0</asrwt>
<pdfrwt beam="1">  1        1 0.23807636E+00 0.82891142E+03</pdfrwt>
<pdfrwt beam="2">  1       -1 0.57631314E-01 0.82891142E+03</pdfrwt>
<totfact> 0.18959387E+01</totfact>
</mgrwt>
</event>
<event>
 4    1  0.1065596E-007  0.1934206E+04  0.7818608E-02  0.8651720E-01
          1   -1    0    0  501    0  0.00000000000E+00  0.00000000000E+00  0.19974864908E+04  0.19974864908E+04  0.50400000000E-02 0. -1.
         -1   -1    0    0    0  501 -0.00000000000E+00 -0.00000000000E+00 -0.26251961726E+04  0.26251961727E+04  0.50400000000E-02 0.  1.
    8880023    1    1    2    0    0  0.98618822311E+03 -0.15279969222E+04 -0.16398363550E+04  0.25357869159E+04  0.65864270000E+03 0.  0.
    8880022    1    1    2    0    0 -0.98618822311E+03  0.15279969222E+04  0.10121266731E+04  0.20868957475E+04  0.15294330000E+03 0.  0.
<mgrwt>
<rscale>  0 0.19063142E+04</rscale>
<asrwt>0</asrwt>
<pdfrwt beam="1">  1        1 0.30730561E+00 0.19342058E+04</pdfrwt>
<pdfrwt beam="2">  1       -1 0.40387634E+00 0.19342058E+04</pdfrwt>
<totfact> 0.17990189E-02</totfact>
</mgrwt>
</event>
<event>
 4    1  0.1065596E-007  0.7622898E+03  0.7818608E-02  0.9799215E-01
          1   -1    0    0  501    0  0.00000000000E+00  0.00000000000E+00  0.99045441959E+03  0.99045441961E+03  0.50400000000E-02 0. -1.
         -1   -1    0    0    0  501 -0.00000000000E+00 -0.00000000000E+00 -0.93699756548E+03  0.93699756550E+03  0.50400000000E-02 0.  1.
    8880023    1    1    2    0    0 -0.17570652772E+03 -0.34117836195E+03  0.78065263565E+03  0.10911022878E+04  0.65864270000E+03 0. -1.
    8880022    1    1    2    0    0  0.17570652772E+03  0.34117836195E+03 -0.72719578154E+03  0.83634969735E+03  0.15294330000E+03 0.  0.
<mgrwt>
<rscale>  0 0.65404675E+03</rscale>
<asrwt>0</asrwt>
<pdfrwt beam="1">  1        1 0.15237760E+00 0.76228975E+03</pdfrwt>
<pdfrwt beam="2">  1       -1 0.14415347E+00 0.76228975E+03</pdfrwt>
<totfact> 0.61730340E+00</totfact>
</mgrwt>
</event>
<event>
 4    1  0.1065596E-007  0.1165098E+04  0.7818608E-02  0.9191820E-01
          1   -1    0    0  501    0  0.00000000000E+00  0.00000000000E+00  0.23999809003E+04  0.23999809003E+04  0.50400000000E-02 0. -1.
         -1   -1    0    0    0  501 -0.00000000000E+00 -0.00000000000E+00 -0.17049919691E+04  0.17049919691E+04  0.50400000000E-02 0.  1.
    8880023    1    1    2    0    0  0.42777662511E+03  0.86061010729E+03  0.20966397420E+04  0.23986143941E+04  0.65864270000E+03 0.  0.
    8880022    1    1    2    0    0 -0.42777662511E+03 -0.86061010729E+03 -0.14016508108E+04  0.17063584753E+04  0.15294330000E+03 0.  0.
<mgrwt>
<rscale>  0 0.11138264E+04</rscale>
<asrwt>0</asrwt>
<pdfrwt beam="1">  1        1 0.36922783E+00 0.11650978E+04</pdfrwt>
<pdfrwt beam="2">  1       -1 0.26230646E+00 0.11650978E+04</pdfrwt>
<totfact> 0.91399163E-02</totfact>
</mgrwt>
</event>
<event>
 4    1  0.1065596E-007  0.7875422E+03  0.7818608E-02  0.9738409E-01
          1   -1    0    0  501    0  0.00000000000E+00  0.00000000000E+00  0.19174141375E+04  0.19174141375E+04  0.50400000000E-02 0. -1.
         -1   -1    0    0    0  501 -0.00000000000E+00 -0.00000000000E+00 -0.68273389393E+03  0.68273389395E+03  0.50400000000E-02 0.  1.
    8880023    1    1    2    0    0 -0.30494581014E+03 -0.30564781533E+03  0.17449582347E+04  0.19144456067E+04  0.65864270000E+03 0. -1.
    8880022    1    1    2    0    0  0.30494581014E+03  0.30564781533E+03 -0.51027799107E+03  0.68570242476E+03  0.15294330000E+03 0.  0.
<mgrwt>
<rscale>  0 0.68775246E+03</rscale>
<asrwt>0</asrwt>
<pdfrwt beam="1">  1        1 0.29498679E+00 0.78754221E+03</pdfrwt>
<pdfrwt beam="2">  1       -1 0.10503598E+00 0.78754221E+03</pdfrwt>
<totfact> 0.30109196E+00</totfact>
</mgrwt>
</event>
<event>
 4    1  0.1065596E-007  0.1061866E+04  0.7818608E-02  0.9304751E-01
         -1   -1    0    0    0  501 -0.00000000000E+00  0.00000000000E+00  0.13683775344E+04  0.13683775344E+04  0.50400000000E-02 0.  1.
          1   -1    0    0  501    0  0.00000000000E+00 -0.00000000000E+00 -0.16276450682E+04  0.16276450682E+04  0.50400000000E-02 0. -1.
    8880023    1    1    2    0    0 -0.83279578722E+03  0.14132260613E+02 -0.12842969974E+04  0.16664265744E+04  0.65864270000E+03 0.  0.
    8880022    1    1    2    0    0  0.83279578722E+03 -0.14132260613E+02  0.10250294636E+04  0.13295960282E+04  0.15294330000E+03 0.  0.
<mgrwt>
<rscale>  0 0.10034661E+04</rscale>
<asrwt>0</asrwt>
<pdfrwt beam="1">  1        1 0.25040693E+00 0.10618657E+04</pdfrwt>
<pdfrwt beam="2">  1       -1 0.21051962E+00 0.10618657E+04</pdfrwt>
<totfact> 0.68070401E-01</totfact>
</mgrwt>
</event>
<event>
 4    1  0.1065596E-007  0.7281927E+03  0.7818608E-02  0.9895781E-01
          1   -1    0    0  501    0  0.00000000000E+00  0.00000000000E+00  0.21855837555E+04  0.21855837555E+04  0.50400000000E-02 0. -1.
         -1   -1    0    0    0  501 -0.00000000000E+00 -0.00000000000E+00 -0.17972462073E+03  0.17972462081E+03  0.50400000000E-02 0.  1.
    8880023    1    1    2    0    0 -0.71479686066E+02 -0.30223350429E+03  0.18451351999E+04  0.19836301442E+04  0.65864270000E+03 0. -1.
    8880022    1    1    2    0    0  0.71479686066E+02  0.30223350429E+03  0.16072393483E+03  0.38167823212E+03  0.15294330000E+03 0.  0.
<mgrwt>
<rscale>  0 0.60466208E+03</rscale>
<asrwt>0</asrwt>
<pdfrwt beam="1">  1        1 0.33624366E+00 0.72819272E+03</pdfrwt>
<pdfrwt beam="2">  1       -1 0.27649941E-01 0.72819272E+03</pdfrwt>
<totfact> 0.27371156E+01</totfact>
</mgrwt>
</event>
<event>
 4    1  0.1065596E-007  0.9884552E+03  0.7818608E-02  0.9396820E-01
         -1   -1    0    0    0  501 -0.00000000000E+00  0.00000000000E+00  0.73047277011E+03  0.73047277013E+03  0.50400000000E-02 0.  1.
          1   -1    0    0  501    0  0.00000000000E+00 -0.00000000000E+00 -0.22796382710E+04  0.22796382710E+04  0.50400000000E-02 0. -1.
    8880023    1    1    2    0    0 -0.72727508872E+03  0.11960118684E+03 -0.19285940852E+04  0.21671453228E+04  0.65864270000E+03 0. -1.
    8880022    1    1    2    0    0  0.72727508872E+03 -0.11960118684E+03  0.37942858433E+03  0.84296571828E+03  0.15294330000E+03 0.  0.
<mgrwt>
<rscale>  0 0.92337843E+03</rscale>
<asrwt>0</asrwt>
<pdfrwt beam="1">  1        1 0.35071358E+00 0.98845521E+03</pdfrwt>
<pdfrwt beam="2">  1       -1 0.11238043E+00 0.98845521E+03</pdfrwt>
<totfact> 0.14174451E+00</totfact>
</mgrwt>
</event>
<event>
 4    1  0.1065596E-007  0.1411398E+04  0.7818608E-02  0.8974876E-01
          1   -1    0    0  501    0  0.00000000000E+00  0.00000000000E+00  0.46099211302E+04  0.46099211302E+04  0.50400000000E-02 0. -1.
         -1   -1    0    0    0  501 -0.00000000000E+00 -0.00000000000E+00 -0.45879172216E+03  0.45879172218E+03  0.50400000000E-02 0.  1.
    8880023    1    1    2    0    0 -0.10235089535E+04  0.71460767108E+03  0.31820845548E+04  0.34810497011E+04  0.65864270000E+03 0.  0.
    8880022    1    1    2    0    0  0.10235089535E+04 -0.71460767108E+03  0.96904485327E+03  0.15876631513E+04  0.15294330000E+03 0.  0.
<mgrwt>
<rscale>  0 0.13712769E+04</rscale>
<asrwt>0</asrwt>
<pdfrwt beam="1">  1        1 0.70921866E+00 0.14113982E+04</pdfrwt>
<pdfrwt beam="2">  1       -1 0.70583340E-01 0.14113982E+04</pdfrwt>
<totfact> 0.50087487E-02</totfact>
</mgrwt>
</event>
<event>
 4    1  0.1065596E-007  0.8850623E+03  0.7818608E-02  0.9550450E-01
         -1   -1    0    0    0  501 -0.00000000000E+00  0.00000000000E+00  0.12706735287E+04  0.12706735287E+04  0.50400000000E-02 0.  1.
          1   -1    0    0  501    0  0.00000000000E+00 -0.00000000000E+00 -0.11403308949E+04  0.11403308950E+04  0.50400000000E-02 0. -1.
    8880023    1    1    2    0    0  0.52804543593E+03 -0.26588160009E+03 -0.86867100799E+03  0.12401308536E+04  0.65864270000E+03 0.  0.
    8880022    1    1    2    0    0 -0.52804543593E+03  0.26588160009E+03  0.99901364176E+03  0.11708735701E+04  0.15294330000E+03 0.  0.
<mgrwt>
<rscale>  0 0.80664388E+03</rscale>
<asrwt>0</asrwt>
<pdfrwt beam="1">  1        1 0.17543552E+00 0.88506227E+03</pdfrwt>
<pdfrwt beam="2">  1       -1 0.19548823E+00 0.88506227E+03</pdfrwt>
<totfact> 0.19534851E+00</totfact>
</mgrwt>
</event>
<event>
 4    1  0.1065596E-007  0.7803055E+03  0.7818608E-02  0.9755120E-01
         -1   -1    0    0    0  501 -0.00000000000E+00  0.00000000000E+00  0.15205412775E+04  0.15205412775E+04  0.50400000000E-02 0.  1.
          1   -1    0    0  501    0  0.00000000000E+00 -0.00000000000E+00 -0.77273520236E+03  0.77273520238E+03  0.50400000000E-02 0. -1.
    8880023    1    1    2    0    0 -0.22793768403E+03 -0.35087151606E+03 -0.52784836585E+03  0.94207245591E+03  0.65864270000E+03 0. -1.
    8880022    1    1    2    0    0  0.22793768403E+03  0.35087151606E+03  0.12756544410E+04  0.13512040240E+04  0.15294330000E+03 0.  0.
<mgrwt>
<rscale>  0 0.67827698E+03</rscale>
<asrwt>0</asrwt>
<pdfrwt beam="1">  1        1 0.11888234E+00 0.78030546E+03</pdfrwt>
<pdfrwt beam="2">  1       -1 0.23392943E+00 0.78030546E+03</pdfrwt>
<totfact> 0.21585046E+00</totfact>
</mgrwt>
</event>
<event>
 4    1  0.1065596E-007  0.8732211E+03  0.7818608E-02  0.9570465E-01
         -1   -1    0    0    0  501 -0.00000000000E+00  0.00000000000E+00  0.97663425317E+03  0.97663425318E+03  0.50400000000E-02 0.  1.
          1   -1    0    0  501    0  0.00000000000E+00 -0.00000000000E+00 -0.13812101338E+04  0.13812101339E+04  0.50400000000E-02 0. -1.
    8880023    1    1    2    0    0 -0.39643949784E+03 -0.41417464320E+03 -0.11252465910E+04  0.14243226486E+04  0.65864270000E+03 0. -1.
    8880022    1    1    2    0    0  0.39643949784E+03  0.41417464320E+03  0.72067071028E+03  0.93352173846E+03  0.15294330000E+03 0.  0.
<mgrwt>
<rscale>  0 0.79282237E+03</rscale>
<asrwt>0</asrwt>
<pdfrwt beam="1">  1        1 0.21249387E+00 0.87322112E+03</pdfrwt>
<pdfrwt beam="2">  1       -1 0.15025142E+00 0.87322112E+03</pdfrwt>
<totfact> 0.28132497E+00</totfact>
</mgrwt>
</event>
<event>
 4    1  0.1065596E-007  0.7585569E+03  0.7818608E-02  0.9808858E-01
         -1   -1    0    0    0  501 -0.00000000000E+00  0.00000000000E+00  0.49351299950E+03  0.49351299952E+03  0.50400000000E-02 0.  1.
          1   -1    0    0  501    0  0.00000000000E+00 -0.00000000000E+00 -0.92320043702E+03  0.92320043704E+03  0.50400000000E-02 0. -1.
    8880023    1    1    2    0    0  0.37272520640E+03  0.51713693505E+02 -0.60893333023E+03  0.97273243624E+03  0.65864270000E+03 0. -1.
    8880022    1    1    2    0    0 -0.37272520640E+03 -0.51713693505E+02  0.17924589270E+03  0.44398100032E+03  0.15294330000E+03 0.  0.
<mgrwt>
<rscale>  0 0.64889338E+03</rscale>
<asrwt>0</asrwt>
<pdfrwt beam="1">  1        1 0.14203084E+00 0.75855691E+03</pdfrwt>
<pdfrwt beam="2">  1       -1 0.75925077E-01 0.75855691E+03</pdfrwt>
<totfact> 0.31122156E+01</totfact>
</mgrwt>
</event>
<event>
 4    1  0.1065596E-007  0.1213798E+04  0.7818608E-02  0.9143825E-01
         -1   -1    0    0    0  501 -0.00000000000E+00  0.00000000000E+00  0.11447947929E+04  0.11447947929E+04  0.50400000000E-02 0.  1.
          1   -1    0    0  501    0  0.00000000000E+00 -0.00000000000E+00 -0.11421847205E+04  0.11421847206E+04  0.50400000000E-02 0. -1.
    8880023    1    1    2    0    0  0.39336944996E+03  0.94061410048E+03 -0.21659076104E+03  0.12329704677E+04  0.65864270000E+03 0.  0.
    8880022    1    1    2    0    0 -0.39336944996E+03 -0.94061410048E+03  0.21920083338E+03  0.10540090458E+04  0.15294330000E+03 0.  0.
<mgrwt>
<rscale>  0 0.11652538E+04</rscale>
<asrwt>0</asrwt>
<pdfrwt beam="1">  1        1 0.17572073E+00 0.12137976E+04</pdfrwt>
<pdfrwt beam="2">  1       -1 0.17612228E+00 0.12137976E+04</pdfrwt>
<totfact> 0.25624695E+00</totfact>
</mgrwt>
</event>
<event>
 4    1  0.1065596E-007  0.7294222E+03  0.7818608E-02  0.9891906E-01
          1   -1    0    0  501    0  0.00000000000E+00  0.00000000000E+00  0.37273978050E+03  0.37273978054E+03  0.50400000000E-02 0. -1.
         -1   -1    0    0    0  501 -0.00000000000E+00 -0.00000000000E+00 -0.25509843937E+04  0.25509843937E+04  0.50400000000E-02 0.  1.
    8880023    1    1    2    0    0  0.15218261926E+03  0.27401992914E+03 -0.11935604938E+02  0.72951979829E+03  0.65864270000E+03 0. -1.
    8880022    1    1    2    0    0 -0.15218261926E+03 -0.27401992914E+03 -0.21663090083E+04  0.21942043760E+04  0.15294330000E+03 0.  0.
<mgrwt>
<rscale>  0 0.60655184E+03</rscale>
<asrwt>0</asrwt>
<pdfrwt beam="1">  1        1 0.57344583E-01 0.72942215E+03</pdfrwt>
<pdfrwt beam="2">  1       -1 0.39245913E+00 0.72942215E+03</pdfrwt>
<totfact> 0.56997523E-01</totfact>
</mgrwt>
</event>
<event>
 4    1  0.1065596E-007  0.1305231E+04  0.7818608E-02  0.9061056E-01
          1   -1    0    0  501    0  0.00000000000E+00  0.00000000000E+00  0.31902462571E+04  0.31902462571E+04  0.50400000000E-02 0. -1.
         -1   -1    0    0    0  501 -0.00000000000E+00 -0.00000000000E+00 -0.90385560708E+03  0.90385560710E+03  0.50400000000E-02 0.  1.
    8880023    1    1    2    0    0  0.99032745897E+03 -0.53765154829E+03  0.26044996750E+04  0.29132535809E+04  0.65864270000E+03 0.  0.
    8880022    1    1    2    0    0 -0.99032745897E+03  0.53765154829E+03 -0.31810902498E+03  0.11808482833E+04  0.15294330000E+03 0.  0.
<mgrwt>
<rscale>  0 0.12610263E+04</rscale>
<asrwt>0</asrwt>
<pdfrwt beam="1">  1        1 0.49080713E+00 0.13052310E+04</pdfrwt>
<pdfrwt beam="2">  1       -1 0.13905470E+00 0.13052310E+04</pdfrwt>
<totfact> 0.18079012E-01</totfact>
</mgrwt>
</event>
<event>
 4    1  0.1065596E-007  0.1076765E+04  0.7818608E-02  0.9287377E-01
         -1   -1    0    0    0  501 -0.00000000000E+00  0.00000000000E+00  0.16677920878E+04  0.16677920879E+04  0.50400000000E-02 0.  1.
          1   -1    0    0  501    0  0.00000000000E+00 -0.00000000000E+00 -0.10925813817E+04  0.10925813817E+04  0.50400000000E-02 0. -1.
    8880023    1    1    2    0    0 -0.52185617962E+03 -0.67326011451E+03 -0.65193314423E+03  0.12587454408E+04  0.65864270000E+03 0.  0.
    8880022    1    1    2    0    0  0.52185617962E+03  0.67326011451E+03  0.12271438504E+04  0.15016280287E+04  0.15294330000E+03 0.  0.
<mgrwt>
<rscale>  0 0.10195331E+04</rscale>
<asrwt>0</asrwt>
<pdfrwt beam="1">  1        1 0.16808944E+00 0.10767652E+04</pdfrwt>
<pdfrwt beam="2">  1       -1 0.25658340E+00 0.10767652E+04</pdfrwt>
<totfact> 0.80952115E-01</totfact>
</mgrwt>
</event>
<event>
 4    1  0.1065596E-007  0.9462861E+03  0.7818608E-02  0.9455478E-01
         -1   -1    0    0    0  501 -0.00000000000E+00  0.00000000000E+00  0.15861793340E+04  0.15861793340E+04  0.50400000000E-02 0.  1.
          1   -1    0    0  501    0  0.00000000000E+00 -0.00000000000E+00 -0.26020769168E+04  0.26020769168E+04  0.50400000000E-02 0. -1.
    8880023    1    1    2    0    0  0.49489507134E+02 -0.67764153050E+03 -0.24322993543E+04  0.26098922603E+04  0.65864270000E+03 0.  0.
    8880022    1    1    2    0    0 -0.49489507134E+02  0.67764153050E+03  0.14164017715E+04  0.15783639905E+04  0.15294330000E+03 0.  0.
<mgrwt>
<rscale>  0 0.87647379E+03</rscale>
<asrwt>0</asrwt>
<pdfrwt beam="1">  1        1 0.40031953E+00 0.94628614E+03</pdfrwt>
<pdfrwt beam="2">  1       -1 0.24402759E+00 0.94628614E+03</pdfrwt>
<totfact> 0.91001293E-02</totfact>
</mgrwt>
</event>
<event>
 4    1  0.1065596E-007  0.8111580E+03  0.7818608E-02  0.9687170E-01
         -1   -1    0    0    0  501 -0.00000000000E+00  0.00000000000E+00  0.39678319859E+03  0.39678319862E+03  0.50400000000E-02 0.  1.
          1   -1    0    0  501    0  0.00000000000E+00 -0.00000000000E+00 -0.35183414430E+04  0.35183414430E+04  0.50400000000E-02 0. -1.
    8880023    1    1    2    0    0 -0.37450045737E+03 -0.28968337402E+03 -0.32910147952E+04  0.33895066954E+04  0.65864270000E+03 0.  0.
    8880022    1    1    2    0    0  0.37450045737E+03  0.28968337402E+03  0.16945655079E+03  0.52561794621E+03  0.15294330000E+03 0.  0.
<mgrwt>
<rscale>  0 0.71785851E+03</rscale>
<asrwt>0</asrwt>
<pdfrwt beam="1">  1        1 0.54128328E+00 0.81115797E+03</pdfrwt>
<pdfrwt beam="2">  1       -1 0.61043571E-01 0.81115797E+03</pdfrwt>
<totfact> 0.70984848E-01</totfact>
</mgrwt>
</event>
<event>
 4    1  0.1065596E-007  0.8333891E+03  0.7818608E-02  0.9642774E-01
          1   -1    0    0  501    0  0.00000000000E+00  0.00000000000E+00  0.16011507518E+04  0.16011507518E+04  0.50400000000E-02 0. -1.
         -1   -1    0    0    0  501 -0.00000000000E+00 -0.00000000000E+00 -0.48841103466E+03  0.48841103469E+03  0.50400000000E-02 0.  1.
    8880023    1    1    2    0    0  0.32900288928E+03 -0.39049241223E+03  0.12830797467E+04  0.15299774730E+04  0.65864270000E+03 0.  0.
    8880022    1    1    2    0    0 -0.32900288928E+03  0.39049241223E+03 -0.17034002962E+03  0.55958431346E+03  0.15294330000E+03 0.  0.
<mgrwt>
<rscale>  0 0.74528672E+03</rscale>
<asrwt>0</asrwt>
<pdfrwt beam="1">  1        1 0.24633088E+00 0.83338912E+03</pdfrwt>
<pdfrwt beam="2">  1       -1 0.75140160E-01 0.83338912E+03</pdfrwt>
<totfact> 0.10192162E+01</totfact>
</mgrwt>
</event>
<event>
 4    1  0.1065596E-007  0.7123406E+03  0.7818608E-02  0.9949410E-01
         -1   -1    0    0    0  501 -0.00000000000E+00  0.00000000000E+00  0.36642786488E+03  0.36642786492E+03  0.50400000000E-02 0.  1.
          1   -1    0    0  501    0  0.00000000000E+00 -0.00000000000E+00 -0.15560432592E+04  0.15560432592E+04  0.50400000000E-02 0. -1.
    8880023    1    1    2    0    0 -0.24227376578E+03 -0.12215703594E+03 -0.13831277901E+04  0.15557864921E+04  0.65864270000E+03 0.  0.
    8880022    1    1    2    0    0  0.24227376578E+03  0.12215703594E+03  0.19351239579E+03  0.36668463201E+03  0.15294330000E+03 0.  0.
<mgrwt>
<rscale>  0 0.57925282E+03</rscale>
<asrwt>0</asrwt>
<pdfrwt beam="1">  1        1 0.23939127E+00 0.71234060E+03</pdfrwt>
<pdfrwt beam="2">  1       -1 0.56373518E-01 0.71234060E+03</pdfrwt>
<totfact> 0.19826363E+01</totfact>
</mgrwt>
</event>
<event>
 4    1  0.1065596E-007  0.1190526E+04  0.7818608E-02  0.9166387E-01
         -1   -1    0    0    0  501 -0.00000000000E+00  0.00000000000E+00  0.37630002693E+04  0.37630002693E+04  0.50400000000E-02 0.  1.
          1   -1    0    0  501    0  0.00000000000E+00 -0.00000000000E+00 -0.10712937559E+04  0.10712937559E+04  0.50400000000E-02 0. -1.
    8880023    1    1    2    0    0  0.37308105908E+03  0.91888675462E+03 -0.64216910137E+03  0.13526764970E+04  0.65864270000E+03 0. -1.
    8880022    1    1    2    0    0 -0.37308105908E+03 -0.91888675462E+03  0.33338756148E+04  0.34816175282E+04  0.15294330000E+03 0.  0.
<mgrwt>
<rscale>  0 0.11407207E+04</rscale>
<asrwt>0</asrwt>
<pdfrwt beam="1">  1        1 0.16481442E+00 0.11905262E+04</pdfrwt>
<pdfrwt beam="2">  1       -1 0.57892312E+00 0.11905262E+04</pdfrwt>
<totfact> 0.69352006E-03</totfact>
</mgrwt>
</event>
<event>
 4    1  0.1065596E-007  0.7083374E+03  0.7818608E-02  0.9964228E-01
          1   -1    0    0  501    0  0.00000000000E+00  0.00000000000E+00  0.16009468042E+04  0.16009468042E+04  0.50400000000E-02 0. -1.
         -1   -1    0    0    0  501 -0.00000000000E+00 -0.00000000000E+00 -0.20903924526E+03  0.20903924532E+03  0.50400000000E-02 0.  1.
    8880023    1    1    2    0    0  0.19422030625E+01  0.26062970624E+03  0.13219993057E+04  0.14998079832E+04  0.65864270000E+03 0.  0.
    8880022    1    1    2    0    0 -0.19422030625E+01 -0.26062970624E+03  0.69908253190E+02  0.31017806629E+03  0.15294330000E+03 0.  0.
<mgrwt>
<rscale>  0 0.57247008E+03</rscale>
<asrwt>0</asrwt>
<pdfrwt beam="1">  1        1 0.24629952E+00 0.70833736E+03</pdfrwt>
<pdfrwt beam="2">  1       -1 0.32159883E-01 0.70833736E+03</pdfrwt>
<totfact> 0.51966772E+01</totfact>
</mgrwt>
</event>
<event>
 4    1  0.1065596E-007  0.8031483E+03  0.7818608E-02  0.9704030E-01
          1   -1    0    0  501    0  0.00000000000E+00  0.00000000000E+00  0.15065424277E+04  0.15065424277E+04  0.50400000000E-02 0. -1.
         -1   -1    0    0    0  501 -0.00000000000E+00 -0.00000000000E+00 -0.49842106155E+03  0.49842106157E+03  0.50400000000E-02 0.  1.
    8880023    1    1    2    0    0 -0.44088947990E+03  0.12982090383E+03  0.12325352282E+04  0.14711187225E+04  0.65864270000E+03 0. -1.
    8880022    1    1    2    0    0  0.44088947990E+03 -0.12982090383E+03 -0.22441386206E+03  0.53384476681E+03  0.15294330000E+03 0.  0.
<mgrwt>
<rscale>  0 0.70777374E+03</rscale>
<asrwt>0</asrwt>
<pdfrwt beam="1">  1        1 0.23177576E+00 0.80314831E+03</pdfrwt>
<pdfrwt beam="2">  1       -1 0.76680163E-01 0.80314831E+03</pdfrwt>
<totfact> 0.11380479E+01</totfact>
</mgrwt>
</event>
<event>
 4    1  0.1065596E-007  0.6946180E+03  0.7818608E-02  0.1002031E+00
          1   -1    0    0  501    0  0.00000000000E+00  0.00000000000E+00  0.14506160657E+04  0.14506160657E+04  0.50400000000E-02 0. -1.
         -1   -1    0    0    0  501 -0.00000000000E+00 -0.00000000000E+00 -0.22107017135E+03  0.22107017141E+03  0.50400000000E-02 0.  1.
    8880023    1    1    2    0    0  0.77747498976E+02 -0.20649287214E+03  0.12189923740E+04  0.14030098339E+04  0.65864270000E+03 0. -1.
    8880022    1    1    2    0    0 -0.77747498976E+02  0.20649287214E+03  0.10553520330E+02  0.26867640322E+03  0.15294330000E+03 0.  0.
<mgrwt>
<rscale>  0 0.54768783E+03</rscale>
<asrwt>0</asrwt>
<pdfrwt beam="1">  1        1 0.22317169E+00 0.69461801E+03</pdfrwt>
<pdfrwt beam="2">  1       -1 0.34010798E-01 0.69461801E+03</pdfrwt>
<totfact> 0.59705519E+01</totfact>
</mgrwt>
</event>
<event>
 4    1  0.1065596E-007  0.8372774E+03  0.7818608E-02  0.9635336E-01
         -1   -1    0    0    0  501 -0.00000000000E+00  0.00000000000E+00  0.93265114287E+03  0.93265114288E+03  0.50400000000E-02 0.  1.
          1   -1    0    0  501    0  0.00000000000E+00 -0.00000000000E+00 -0.11695339997E+04  0.11695339997E+04  0.50400000000E-02 0. -1.
    8880023    1    1    2    0    0  0.49457225084E+03  0.15040438371E+03 -0.91212382547E+03  0.12381450921E+04  0.65864270000E+03 0.  0.
    8880022    1    1    2    0    0 -0.49457225084E+03 -0.15040438371E+03  0.67524096868E+03  0.86404005042E+03  0.15294330000E+03 0.  0.
<mgrwt>
<rscale>  0 0.75000946E+03</rscale>
<asrwt>0</asrwt>
<pdfrwt beam="1">  1        1 0.17992831E+00 0.83727737E+03</pdfrwt>
<pdfrwt beam="2">  1       -1 0.14348479E+00 0.83727737E+03</pdfrwt>
<totfact> 0.45298532E+00</totfact>
</mgrwt>
</event>
<event>
 4    1  0.1065596E-007  0.1721890E+04  0.7818608E-02  0.8767021E-01
         -1   -1    0    0    0  501 -0.00000000000E+00  0.00000000000E+00  0.23400150538E+04  0.23400150538E+04  0.50400000000E-02 0.  1.
          1   -1    0    0  501    0  0.00000000000E+00 -0.00000000000E+00 -0.17776994385E+04  0.17776994385E+04  0.50400000000E-02 0. -1.
    8880023    1    1    2    0    0  0.14796096355E+04  0.58467987865E+03  0.14836399625E+04  0.22729040848E+04  0.65864270000E+03 0.  0.
    8880022    1    1    2    0    0 -0.14796096355E+04 -0.58467987865E+03 -0.92132434715E+03  0.18448104075E+04  0.15294330000E+03 0.  0.
<mgrwt>
<rscale>  0 0.16901180E+04</rscale>
<asrwt>0</asrwt>
<pdfrwt beam="1">  1        1 0.27349222E+00 0.17218901E+04</pdfrwt>
<pdfrwt beam="2">  1       -1 0.36000232E+00 0.17218901E+04</pdfrwt>
<totfact> 0.51689563E-02</totfact>
</mgrwt>
</event>
<event>
 4    1  0.1065596E-007  0.7677027E+03  0.7818608E-02  0.9785559E-01
         -1   -1    0    0    0  501 -0.00000000000E+00  0.00000000000E+00  0.68724995342E+03  0.68724995344E+03  0.50400000000E-02 0.  1.
          1   -1    0    0  501    0  0.00000000000E+00 -0.00000000000E+00 -0.13750791108E+04  0.13750791108E+04  0.50400000000E-02 0. -1.
    8880023    1    1    2    0    0  0.23156355797E+03  0.31927346070E+03 -0.11834990672E+04  0.14106868797E+04  0.65864270000E+03 0. -1.
    8880022    1    1    2    0    0 -0.23156355797E+03 -0.31927346070E+03  0.49566990989E+03  0.65164218454E+03  0.15294330000E+03 0.  0.
<mgrwt>
<rscale>  0 0.66143310E+03</rscale>
<asrwt>0</asrwt>
<pdfrwt beam="1">  1        1 0.21155063E+00 0.76770270E+03</pdfrwt>
<pdfrwt beam="2">  1       -1 0.10573076E+00 0.76770270E+03</pdfrwt>
<totfact> 0.69410965E+00</totfact>
</mgrwt>
</event>
<event>
 4    1  0.1065596E-007  0.6729698E+03  0.7818608E-02  0.1013618E+00
          1   -1    0    0  501    0  0.00000000000E+00  0.00000000000E+00  0.13179675441E+04  0.13179675441E+04  0.50400000000E-02 0. -1.
         -1   -1    0    0    0  501 -0.00000000000E+00 -0.00000000000E+00 -0.56265806667E+03  0.56265806669E+03  0.50400000000E-02 0.  1.
    8880023    1    1    2    0    0 -0.12601297949E+03  0.56558856852E+02  0.12082398816E+04  0.13830155433E+04  0.65864270000E+03 0. -1.
    8880022    1    1    2    0    0  0.12601297949E+03 -0.56558856852E+02 -0.45293040414E+03  0.49761006752E+03  0.15294330000E+03 0.  0.
<mgrwt>
<rscale>  0 0.50061834E+03</rscale>
<asrwt>0</asrwt>
<pdfrwt beam="1">  1        1 0.20276424E+00 0.67296982E+03</pdfrwt>
<pdfrwt beam="2">  1       -1 0.86562780E-01 0.67296982E+03</pdfrwt>
<totfact> 0.12100452E+01</totfact>
</mgrwt>
</event>
<event>
 4    1  0.1193932E-007  0.1129873E+04  0.7818608E-02  0.9228503E-01
         -1   -1    0    0    0  501 -0.00000000000E+00  0.00000000000E+00  0.12813817812E+04  0.12813817812E+04  0.50400000000E-02 0.  1.
          1   -1    0    0  501    0  0.00000000000E+00 -0.00000000000E+00 -0.23022921388E+04  0.23022921388E+04  0.50400000000E-02 0. -1.
    8880023    1    1    2    0    0 -0.81748033518E+03  0.41776727059E+03 -0.19594769750E+04  0.22618938553E+04  0.65864270000E+03 0.  0.
    8880022    1    1    2    0    0  0.81748033518E+03 -0.41776727059E+03  0.93856661745E+03  0.13217800646E+04  0.15294330000E+03 0.  0.
<mgrwt>
<rscale>  0 0.10764015E+04</rscale>
<asrwt>0</asrwt>
<pdfrwt beam="1">  1        1 0.35419879E+00 0.11298734E+04</pdfrwt>
<pdfrwt beam="2">  1       -1 0.19713566E+00 0.11298734E+04</pdfrwt>
<totfact> 0.29057298E-01</totfact>
</mgrwt>
</event>
<event>
 4    1  0.1065596E-007  0.1632142E+04  0.7818608E-02  0.8821556E-01
          1   -1    0    0  501    0  0.00000000000E+00  0.00000000000E+00  0.18814290274E+04  0.18814290274E+04  0.50400000000E-02 0. -1.
         -1   -1    0    0    0  501 -0.00000000000E+00 -0.00000000000E+00 -0.15628989711E+04  0.15628989711E+04  0.50400000000E-02 0.  1.
    8880023    1    1    2    0    0  0.14725570128E+04 -0.24829972127E+03 -0.53487252966E+03  0.17175493404E+04  0.65864270000E+03 0.  0.
    8880022    1    1    2    0    0 -0.14725570128E+04  0.24829972127E+03  0.85340258593E+03  0.17267786581E+04  0.15294330000E+03 0.  0.
<mgrwt>
<rscale>  0 0.15983610E+04</rscale>
<asrwt>0</asrwt>
<pdfrwt beam="1">  1        1 0.28945062E+00 0.16321419E+04</pdfrwt>
<pdfrwt beam="2">  1       -1 0.24044600E+00 0.16321419E+04</pdfrwt>
<totfact> 0.26869252E-01</totfact>
</mgrwt>
</event>
<event>
 4    1  0.1065596E-007  0.7632019E+03  0.7818608E-02  0.9796887E-01
         -1   -1    0    0    0  501 -0.00000000000E+00  0.00000000000E+00  0.21196302275E+03  0.21196302281E+03  0.50400000000E-02 0.  1.
          1   -1    0    0  501    0  0.00000000000E+00 -0.00000000000E+00 -0.18525403817E+04  0.18525403817E+04  0.50400000000E-02 0. -1.
    8880023    1    1    2    0    0  0.14278399897E+03  0.35816156017E+03 -0.13730791871E+04  0.15709308176E+04  0.65864270000E+03 0.  0.
    8880022    1    1    2    0    0 -0.14278399897E+03 -0.35816156017E+03 -0.26749817186E+03  0.49357258687E+03  0.15294330000E+03 0.  0.
<mgrwt>
<rscale>  0 0.65529846E+03</rscale>
<asrwt>0</asrwt>
<pdfrwt beam="1">  1        1 0.28500620E+00 0.76320193E+03</pdfrwt>
<pdfrwt beam="2">  1       -1 0.32609697E-01 0.76320193E+03</pdfrwt>
<totfact> 0.34130694E+01</totfact>
</mgrwt>
</event>
<event>
 4    1  0.1065596E-007  0.1577483E+04  0.7818608E-02  0.8856776E-01
          1   -1    0    0  501    0  0.00000000000E+00  0.00000000000E+00  0.14073799676E+04  0.14073799676E+04  0.50400000000E-02 0. -1.
         -1   -1    0    0    0  501 -0.00000000000E+00 -0.00000000000E+00 -0.28950797484E+04  0.28950797484E+04  0.50400000000E-02 0.  1.
    8880023    1    1    2    0    0  0.14289356893E+04  0.11306831956E+03  0.66479994347E+03  0.17118442745E+04  0.65864270000E+03 0.  0.
    8880022    1    1    2    0    0 -0.14289356893E+04 -0.11306831956E+03 -0.21524997243E+04  0.25906154414E+04  0.15294330000E+03 0.  0.
<mgrwt>
<rscale>  0 0.15423397E+04</rscale>
<asrwt>0</asrwt>
<pdfrwt beam="1">  1        1 0.21652000E+00 0.15774828E+04</pdfrwt>
<pdfrwt beam="2">  1       -1 0.44539688E+00 0.15774828E+04</pdfrwt>
<totfact> 0.24754244E-02</totfact>
</mgrwt>
</event>
<event>
 4    1  0.1065596E-007  0.6850302E+03  0.7818608E-02  0.1006610E+00
          1   -1    0    0  501    0  0.00000000000E+00  0.00000000000E+00  0.16286059970E+04  0.16286059970E+04  0.50400000000E-02 0. -1.
         -1   -1    0    0    0  501 -0.00000000000E+00 -0.00000000000E+00 -0.53399369204E+03  0.53399369206E+03  0.50400000000E-02 0.  1.
    8880023    1    1    2    0    0 -0.86298403673E+02 -0.16735830903E+03  0.15231831031E+04  0.16701356801E+04  0.65864270000E+03 0. -1.
    8880022    1    1    2    0    0  0.86298403673E+02  0.16735830903E+03 -0.42857079815E+03  0.49246400896E+03  0.15294330000E+03 0.  0.
<mgrwt>
<rscale>  0 0.52844361E+03</rscale>
<asrwt>0</asrwt>
<pdfrwt beam="1">  1        1 0.25055477E+00 0.68503024E+03</pdfrwt>
<pdfrwt beam="2">  1       -1 0.82152876E-01 0.68503024E+03</pdfrwt>
<totfact> 0.82723716E+00</totfact>
</mgrwt>
</event>
<event>
 4    1  0.1065596E-007  0.6783800E+03  0.7818608E-02  0.1010255E+00
          1   -1    0    0  501    0  0.00000000000E+00  0.00000000000E+00  0.14087564634E+04  0.14087564634E+04  0.50400000000E-02 0. -1.
         -1   -1    0    0    0  501 -0.00000000000E+00 -0.00000000000E+00 -0.64208466816E+03  0.64208466818E+03  0.50400000000E-02 0.  1.
    8880023    1    1    2    0    0 -0.16046205694E+03  0.25321230248E+02  0.13035185286E+04  0.14694760961E+04  0.65864270000E+03 0. -1.
    8880022    1    1    2    0    0  0.16046205694E+03 -0.25321230248E+02 -0.53684673332E+03  0.58136503551E+03  0.15294330000E+03 0.  0.
<mgrwt>
<rscale>  0 0.51373318E+03</rscale>
<asrwt>0</asrwt>
<pdfrwt beam="1">  1        1 0.21673176E+00 0.67838001E+03</pdfrwt>
<pdfrwt beam="2">  1       -1 0.98782257E-01 0.67838001E+03</pdfrwt>
<totfact> 0.78006431E+00</totfact>
</mgrwt>
</event>
<event>
 4    1  0.1065596E-007  0.7610317E+03  0.7818608E-02  0.9802444E-01
          1   -1    0    0  501    0  0.00000000000E+00  0.00000000000E+00  0.77096031515E+03  0.77096031517E+03  0.50400000000E-02 0. -1.
         -1   -1    0    0    0  501 -0.00000000000E+00 -0.00000000000E+00 -0.46431787590E+03  0.46431787592E+03  0.50400000000E-02 0.  1.
    8880023    1    1    2    0    0  0.37620902378E+03 -0.61853203516E+02  0.31685586017E+03  0.82435847224E+03  0.65864270000E+03 0.  0.
    8880022    1    1    2    0    0 -0.37620902378E+03  0.61853203516E+02 -0.10213420923E+02  0.41091971885E+03  0.15294330000E+03 0.  0.
<mgrwt>
<rscale>  0 0.65231559E+03</rscale>
<asrwt>0</asrwt>
<pdfrwt beam="1">  1        1 0.11860928E+00 0.76103170E+03</pdfrwt>
<pdfrwt beam="2">  1       -1 0.71433520E-01 0.76103170E+03</pdfrwt>
<totfact> 0.47426416E+01</totfact>
</mgrwt>
</event>
<event>
 4    1  0.1065596E-007  0.1160384E+04  0.7818608E-02  0.9196628E-01
          1   -1    0    0  501    0  0.00000000000E+00  0.00000000000E+00  0.25445864179E+04  0.25445864179E+04  0.50400000000E-02 0. -1.
         -1   -1    0    0    0  501 -0.00000000000E+00 -0.00000000000E+00 -0.64334104117E+03  0.64334104119E+03  0.50400000000E-02 0.  1.
    8880023    1    1    2    0    0  0.84337490701E+03  0.44877557674E+03  0.18930440316E+04  0.22203843504E+04  0.65864270000E+03 0.  0.
    8880022    1    1    2    0    0 -0.84337490701E+03 -0.44877557674E+03  0.82013451891E+01  0.96754310866E+03  0.15294330000E+03 0.  0.
<mgrwt>
<rscale>  0 0.11088300E+04</rscale>
<asrwt>0</asrwt>
<pdfrwt beam="1">  1        1 0.39147483E+00 0.11603840E+04</pdfrwt>
<pdfrwt beam="2">  1       -1 0.98975547E-01 0.11603840E+04</pdfrwt>
<totfact> 0.12258826E+00</totfact>
</mgrwt>
</event>
<event>
 4    1  0.1065596E-007  0.7582686E+03  0.7818608E-02  0.9809611E-01
          1   -1    0    0  501    0  0.00000000000E+00  0.00000000000E+00  0.10060542056E+04  0.10060542056E+04  0.50400000000E-02 0. -1.
         -1   -1    0    0    0  501 -0.00000000000E+00 -0.00000000000E+00 -0.10069492873E+04  0.10069492873E+04  0.50400000000E-02 0.  1.
    8880023    1    1    2    0    0  0.28747687947E+03 -0.24190504159E+03  0.80800938799E+03  0.11080841045E+04  0.65864270000E+03 0. -1.
    8880022    1    1    2    0    0 -0.28747687947E+03  0.24190504159E+03 -0.80890446967E+03  0.90491938837E+03  0.15294330000E+03 0.  0.
<mgrwt>
<rscale>  0 0.64849316E+03</rscale>
<asrwt>0</asrwt>
<pdfrwt beam="1">  1        1 0.15477757E+00 0.75826856E+03</pdfrwt>
<pdfrwt beam="2">  1       -1 0.15491528E+00 0.75826856E+03</pdfrwt>
<totfact> 0.49527302E+00</totfact>
</mgrwt>
</event>
<event>
 4    1  0.1065596E-007  0.1037135E+04  0.7818608E-02  0.9334510E-01
         -1   -1    0    0    0  501 -0.00000000000E+00  0.00000000000E+00  0.42710521567E+03  0.42710521570E+03  0.50400000000E-02 0.  1.
          1   -1    0    0  501    0  0.00000000000E+00 -0.00000000000E+00 -0.28201715667E+04  0.28201715667E+04  0.50400000000E-02 0. -1.
    8880023    1    1    2    0    0 -0.60734312847E+03 -0.52246734402E+03 -0.43227104329E+03  0.11236130394E+04  0.65864270000E+03 0.  0.
    8880022    1    1    2    0    0  0.60734312847E+03  0.52246734402E+03 -0.19607953077E+04  0.21236637429E+04  0.15294330000E+03 0.  0.
<mgrwt>
<rscale>  0 0.97666978E+03</rscale>
<asrwt>0</asrwt>
<pdfrwt beam="1">  1        1 0.43387254E+00 0.10371345E+04</pdfrwt>
<pdfrwt beam="2">  1       -1 0.65708496E-01 0.10371345E+04</pdfrwt>
<totfact> 0.19284732E+00</totfact>
</mgrwt>
</event>
<event>
 4    1  0.1065596E-007  0.7322549E+03  0.7818608E-02  0.9883111E-01
         -1   -1    0    0    0  501 -0.00000000000E+00  0.00000000000E+00  0.66882536097E+03  0.66882536099E+03  0.50400000000E-02 0.  1.
          1   -1    0    0  501    0  0.00000000000E+00 -0.00000000000E+00 -0.20550672440E+04  0.20550672441E+04  0.50400000000E-02 0. -1.
    8880023    1    1    2    0    0  0.91223480237E+02  0.30670056612E+03 -0.19358943855E+04  0.20697546325E+04  0.65864270000E+03 0. -1.
    8880022    1    1    2    0    0 -0.91223480237E+02 -0.30670056612E+03  0.54965250246E+03  0.65413797252E+03  0.15294330000E+03 0.  0.
<mgrwt>
<rscale>  0 0.61086824E+03</rscale>
<asrwt>0</asrwt>
<pdfrwt beam="1">  1        1 0.31616419E+00 0.73225485E+03</pdfrwt>
<pdfrwt beam="2">  1       -1 0.10289621E+00 0.73225485E+03</pdfrwt>
<totfact> 0.25810471E+00</totfact>
</mgrwt>
</event>
<event>
 4    1  0.1065596E-007  0.6904355E+03  0.7818608E-02  0.1003946E+00
         -1   -1    0    0    0  501 -0.00000000000E+00  0.00000000000E+00  0.11866192738E+04  0.11866192738E+04  0.50400000000E-02 0.  1.
          1   -1    0    0  501    0  0.00000000000E+00 -0.00000000000E+00 -0.10275800729E+04  0.10275800729E+04  0.50400000000E-02 0. -1.
    8880023    1    1    2    0    0  0.20710102425E+03 -0.27845710573E+00 -0.89432389654E+03  0.11298302306E+04  0.65864270000E+03 0. -1.
    8880022    1    1    2    0    0 -0.20710102425E+03  0.27845710573E+00  0.10533630975E+04  0.10843691161E+04  0.15294330000E+03 0.  0.
<mgrwt>
<rscale>  0 0.53953202E+03</rscale>
<asrwt>0</asrwt>
<pdfrwt beam="1">  1        1 0.15808924E+00 0.69043546E+03</pdfrwt>
<pdfrwt beam="2">  1       -1 0.18255681E+00 0.69043546E+03</pdfrwt>
<totfact> 0.30214981E+00</totfact>
</mgrwt>
</event>
<event>
 4    1  0.1065596E-007  0.1014532E+04  0.7818608E-02  0.9362787E-01
          1   -1    0    0  501    0  0.00000000000E+00  0.00000000000E+00  0.99138670522E+03  0.99138670523E+03  0.50400000000E-02 0. -1.
         -1   -1    0    0    0  501 -0.00000000000E+00 -0.00000000000E+00 -0.14520713282E+04  0.14520713283E+04  0.50400000000E-02 0.  1.
    8880023    1    1    2    0    0  0.55114414688E+03 -0.54009740260E+03  0.55683581838E+03  0.11572991877E+04  0.65864270000E+03 0.  0.
    8880022    1    1    2    0    0 -0.55114414688E+03  0.54009740260E+03 -0.10175204414E+04  0.12861588458E+04  0.15294330000E+03 0.  0.
<mgrwt>
<rscale>  0 0.95202443E+03</rscale>
<asrwt>0</asrwt>
<pdfrwt beam="1">  1        1 0.15252103E+00 0.10145321E+04</pdfrwt>
<pdfrwt beam="2">  1       -1 0.22339559E+00 0.10145321E+04</pdfrwt>
<totfact> 0.16112788E+00</totfact>
</mgrwt>
</event>
<event>
 4    1  0.1065596E-007  0.7247420E+03  0.7818608E-02  0.9906856E-01
         -1   -1    0    0    0  501 -0.00000000000E+00  0.00000000000E+00  0.25497590452E+03  0.25497590457E+03  0.50400000000E-02 0.  1.
          1   -1    0    0  501    0  0.00000000000E+00 -0.00000000000E+00 -0.15292092138E+04  0.15292092139E+04  0.50400000000E-02 0. -1.
    8880023    1    1    2    0    0 -0.17027181356E+03  0.24989649980E+03 -0.12494264760E+04  0.14444090405E+04  0.65864270000E+03 0.  0.
    8880022    1    1    2    0    0  0.17027181356E+03 -0.24989649980E+03 -0.24806833273E+02  0.33977607788E+03  0.15294330000E+03 0.  0.
<mgrwt>
<rscale>  0 0.59930186E+03</rscale>
<asrwt>0</asrwt>
<pdfrwt beam="1">  1        1 0.23526295E+00 0.72474199E+03</pdfrwt>
<pdfrwt beam="2">  1       -1 0.39227063E-01 0.72474199E+03</pdfrwt>
<totfact> 0.40711026E+01</totfact>
</mgrwt>
</event>
<event>
 4    1  0.1065596E-007  0.6725634E+03  0.7818608E-02  0.1013888E+00
          1   -1    0    0  501    0  0.00000000000E+00  0.00000000000E+00  0.50825599755E+03  0.50825599757E+03  0.50400000000E-02 0. -1.
         -1   -1    0    0    0  501 -0.00000000000E+00 -0.00000000000E+00 -0.54126906767E+03  0.54126906769E+03  0.50400000000E-02 0.  1.
    8880023    1    1    2    0    0  0.42331100950E+02 -0.12938101626E+03  0.23483419639E+03  0.71238239418E+03  0.65864270000E+03 0. -1.
    8880022    1    1    2    0    0 -0.42331100950E+02  0.12938101626E+03 -0.26784726651E+03  0.33714267109E+03  0.15294330000E+03 0.  0.
<mgrwt>
<rscale>  0 0.49958169E+03</rscale>
<asrwt>0</asrwt>
<pdfrwt beam="1">  1        1 0.78193230E-01 0.67256344E+03</pdfrwt>
<pdfrwt beam="2">  1       -1 0.83272164E-01 0.67256344E+03</pdfrwt>
<totfact> 0.63676495E+01</totfact>
</mgrwt>
</event>
<event>
 4    1  0.1065596E-007  0.7205595E+03  0.7818608E-02  0.9920698E-01
         -1   -1    0    0    0  501 -0.00000000000E+00  0.00000000000E+00  0.28978725777E+03  0.28978725782E+03  0.50400000000E-02 0.  1.
          1   -1    0    0  501    0  0.00000000000E+00 -0.00000000000E+00 -0.11463048603E+04  0.11463048603E+04  0.50400000000E-02 0. -1.
    8880023    1    1    2    0    0 -0.26473767598E+03 -0.12373230588E+03 -0.83878341046E+03  0.11057863883E+04  0.65864270000E+03 0.  0.
    8880022    1    1    2    0    0  0.26473767598E+03  0.12373230588E+03 -0.17734192104E+02  0.33030572987E+03  0.15294330000E+03 0.  0.
<mgrwt>
<rscale>  0 0.59268601E+03</rscale>
<asrwt>0</asrwt>
<pdfrwt beam="1">  1        1 0.17635459E+00 0.72055945E+03</pdfrwt>
<pdfrwt beam="2">  1       -1 0.44582656E-01 0.72055945E+03</pdfrwt>
<totfact> 0.59900820E+01</totfact>
</mgrwt>
</event>
<event>
 4    1  0.1201960E-007  0.1360860E+04  0.7818608E-02  0.9014708E-01
         -1   -1    0    0    0  501 -0.00000000000E+00  0.00000000000E+00  0.15069878144E+04  0.15069878144E+04  0.50400000000E-02 0.  1.
          1   -1    0    0  501    0  0.00000000000E+00 -0.00000000000E+00 -0.20859335065E+04  0.20859335065E+04  0.50400000000E-02 0. -1.
    8880023    1    1    2    0    0 -0.83179094454E+03  0.85220489458E+03 -0.15399220517E+04  0.20550667846E+04  0.65864270000E+03 0. -1.
    8880022    1    1    2    0    0  0.83179094454E+03 -0.85220489458E+03  0.96097635960E+03  0.15378545362E+04  0.15294330000E+03 0.  0.
<mgrwt>
<rscale>  0 0.13189025E+04</rscale>
<asrwt>0</asrwt>
<pdfrwt beam="1">  1        1 0.32091285E+00 0.13608599E+04</pdfrwt>
<pdfrwt beam="2">  1       -1 0.23184428E+00 0.13608599E+04</pdfrwt>
<totfact> 0.22964856E-01</totfact>
</mgrwt>
</event>
<event>
 4    1  0.1065596E-007  0.8325420E+03  0.7818608E-02  0.9644407E-01
          1   -1    0    0  501    0  0.00000000000E+00  0.00000000000E+00  0.68270176459E+03  0.68270176461E+03  0.50400000000E-02 0. -1.
         -1   -1    0    0    0  501 -0.00000000000E+00 -0.00000000000E+00 -0.25501471504E+04  0.25501471504E+04  0.50400000000E-02 0.  1.
    8880023    1    1    2    0    0  0.33546868384E+03  0.38311458465E+03  0.38589457082E+03  0.91762783789E+03  0.65864270000E+03 0. -1.
    8880022    1    1    2    0    0 -0.33546868384E+03 -0.38311458465E+03 -0.22533399566E+04  0.23152210771E+04  0.15294330000E+03 0.  0.
<mgrwt>
<rscale>  0 0.74425511E+03</rscale>
<asrwt>0</asrwt>
<pdfrwt beam="1">  1        1 0.10503104E+00 0.83254203E+03</pdfrwt>
<pdfrwt beam="2">  1       -1 0.39233033E+00 0.83254203E+03</pdfrwt>
<totfact> 0.24134931E-01</totfact>
</mgrwt>
</event>
<event>
 4    1  0.1065596E-007  0.6771209E+03  0.7818608E-02  0.1011001E+00
          1   -1    0    0  501    0  0.00000000000E+00  0.00000000000E+00  0.74347582561E+03  0.74347582563E+03  0.50400000000E-02 0. -1.
         -1   -1    0    0    0  501 -0.00000000000E+00 -0.00000000000E+00 -0.12093014432E+04  0.12093014432E+04  0.50400000000E-02 0.  1.
    8880023    1    1    2    0    0 -0.93841384394E+02  0.12600140239E+03  0.57548282098E+03  0.88863560717E+03  0.65864270000E+03 0. -1.
    8880022    1    1    2    0    0  0.93841384394E+02 -0.12600140239E+03 -0.10413084385E+04  0.10641416616E+04  0.15294330000E+03 0.  0.
<mgrwt>
<rscale>  0 0.51078567E+03</rscale>
<asrwt>0</asrwt>
<pdfrwt beam="1">  1        1 0.11438090E+00 0.67712094E+03</pdfrwt>
<pdfrwt beam="2">  1       -1 0.18604638E+00 0.67712094E+03</pdfrwt>
<totfact> 0.49035807E+00</totfact>
</mgrwt>
</event>
<event>
 4    1  0.1065596E-007  0.8136006E+03  0.7818608E-02  0.9682125E-01
         -1   -1    0    0    0  501 -0.00000000000E+00  0.00000000000E+00  0.76372798881E+03  0.76372798882E+03  0.50400000000E-02 0.  1.
          1   -1    0    0  501    0  0.00000000000E+00 -0.00000000000E+00 -0.13290712590E+04  0.13290712590E+04  0.50400000000E-02 0. -1.
    8880023    1    1    2    0    0  0.32427600513E+03  0.35068610394E+03 -0.10944755251E+04  0.13637531127E+04  0.65864270000E+03 0. -1.
    8880022    1    1    2    0    0 -0.32427600513E+03 -0.35068610394E+03  0.52913225492E+03  0.72904613517E+03  0.15294330000E+03 0.  0.
<mgrwt>
<rscale>  0 0.72091087E+03</rscale>
<asrwt>0</asrwt>
<pdfrwt beam="1">  1        1 0.20447250E+00 0.81360056E+03</pdfrwt>
<pdfrwt beam="2">  1       -1 0.11749661E+00 0.81360056E+03</pdfrwt>
<totfact> 0.57827755E+00</totfact>
</mgrwt>
</event>
<event>
 4    1  0.1065596E-007  0.7397091E+03  0.7818608E-02  0.9860795E-01
          1   -1    0    0  501    0  0.00000000000E+00  0.00000000000E+00  0.87528346051E+03  0.87528346053E+03  0.50400000000E-02 0. -1.
         -1   -1    0    0    0  501 -0.00000000000E+00 -0.00000000000E+00 -0.86471110785E+03  0.86471110787E+03  0.50400000000E-02 0.  1.
    8880023    1    1    2    0    0 -0.19700694626E+03 -0.27303406062E+03  0.66085582161E+03  0.99191731427E+03  0.65864270000E+03 0.  0.
    8880022    1    1    2    0    0  0.19700694626E+03  0.27303406062E+03 -0.65028346895E+03  0.74807725412E+03  0.15294330000E+03 0.  0.
<mgrwt>
<rscale>  0 0.62199519E+03</rscale>
<asrwt>0</asrwt>
<pdfrwt beam="1">  1        1 0.13465899E+00 0.73970909E+03</pdfrwt>
<pdfrwt beam="2">  1       -1 0.13303248E+00 0.73970909E+03</pdfrwt>
<totfact> 0.94271730E+00</totfact>
</mgrwt>
</event>
<event>
 4    1  0.1065596E-007  0.1037347E+04  0.7818608E-02  0.9334249E-01
         -1   -1    0    0    0  501 -0.00000000000E+00  0.00000000000E+00  0.13392606414E+04  0.13392606414E+04  0.50400000000E-02 0.  1.
          1   -1    0    0  501    0  0.00000000000E+00 -0.00000000000E+00 -0.18567222732E+04  0.18567222732E+04  0.50400000000E-02 0. -1.
    8880023    1    1    2    0    0 -0.74754390821E+03 -0.28888825232E+03 -0.15592130921E+04  0.18727610605E+04  0.65864270000E+03 0.  0.
    8880022    1    1    2    0    0  0.74754390821E+03  0.28888825232E+03  0.10417514603E+04  0.13232218541E+04  0.15294330000E+03 0.  1.
<mgrwt>
<rscale>  0 0.97690059E+03</rscale>
<asrwt>0</asrwt>
<pdfrwt beam="1">  1        1 0.28564958E+00 0.10373469E+04</pdfrwt>
<pdfrwt beam="2">  1       -1 0.20604010E+00 0.10373469E+04</pdfrwt>
<totfact> 0.51253629E-01</totfact>
</mgrwt>
</event>
<event>
 4    1  0.1065596E-007  0.2040385E+04  0.7818608E-02  0.8600063E-01
         -1   -1    0    0    0  501 -0.00000000000E+00  0.00000000000E+00  0.25017131163E+04  0.25017131163E+04  0.50400000000E-02 0.  1.
          1   -1    0    0  501    0  0.00000000000E+00 -0.00000000000E+00 -0.16622143356E+04  0.16622143356E+04  0.50400000000E-02 0. -1.
    8880023    1    1    2    0    0  0.10222018763E+04  0.16384338477E+04 -0.29840413430E+02  0.20406035396E+04  0.65864270000E+03 0.  0.
    8880022    1    1    2    0    0 -0.10222018763E+04 -0.16384338477E+04  0.86933919416E+03  0.21233239124E+04  0.15294330000E+03 0.  0.
<mgrwt>
<rscale>  0 0.20140855E+04</rscale>
<asrwt>0</asrwt>
<pdfrwt beam="1">  1        1 0.25572528E+00 0.20403853E+04</pdfrwt>
<pdfrwt beam="2">  1       -1 0.38487894E+00 0.20403853E+04</pdfrwt>
<totfact> 0.40770425E-02</totfact>
</mgrwt>
</event>
<event>
 4    1  0.1065596E-007  0.7236935E+03  0.7818608E-02  0.9910281E-01
          1   -1    0    0  501    0  0.00000000000E+00  0.00000000000E+00  0.13109571205E+04  0.13109571205E+04  0.50400000000E-02 0. -1.
         -1   -1    0    0    0  501 -0.00000000000E+00 -0.00000000000E+00 -0.39710840154E+03  0.39710840158E+03  0.50400000000E-02 0.  1.
    8880023    1    1    2    0    0 -0.23192629085E+03  0.19008490038E+03  0.11050488561E+04  0.13209334784E+04  0.65864270000E+03 0. -1.
    8880022    1    1    2    0    0  0.23192629085E+03 -0.19008490038E+03 -0.19120013719E+03  0.38713204364E+03  0.15294330000E+03 0.  0.
<mgrwt>
<rscale>  0 0.59765605E+03</rscale>
<asrwt>0</asrwt>
<pdfrwt beam="1">  1        1 0.20168571E+00 0.72369350E+03</pdfrwt>
<pdfrwt beam="2">  1       -1 0.61093600E-01 0.72369350E+03</pdfrwt>
<totfact> 0.24971737E+01</totfact>
</mgrwt>
</event>
<event>
 4    1  0.1065596E-007  0.1003377E+04  0.7818608E-02  0.9377153E-01
          1   -1    0    0  501    0  0.00000000000E+00  0.00000000000E+00  0.16158710593E+04  0.16158710593E+04  0.50400000000E-02 0. -1.
         -1   -1    0    0    0  501 -0.00000000000E+00 -0.00000000000E+00 -0.86381789650E+03  0.86381789651E+03  0.50400000000E-02 0.  1.
    8880023    1    1    2    0    0 -0.36088710627E+03  0.66536904192E+03  0.12177727112E+04  0.15778897452E+04  0.65864270000E+03 0. -1.
    8880022    1    1    2    0    0  0.36088710627E+03 -0.66536904192E+03 -0.46571954847E+03  0.90179921061E+03  0.15294330000E+03 0.  0.
<mgrwt>
<rscale>  0 0.93980022E+03</rscale>
<asrwt>0</asrwt>
<pdfrwt beam="1">  1        1 0.24859554E+00 0.10033771E+04</pdfrwt>
<pdfrwt beam="2">  1       -1 0.13289506E+00 0.10033771E+04</pdfrwt>
<totfact> 0.26253454E+00</totfact>
</mgrwt>
</event>
<event>
 4    1  0.1065596E-007  0.2079221E+04  0.7818608E-02  0.8582028E-01
          1   -1    0    0  501    0  0.00000000000E+00  0.00000000000E+00  0.28753501425E+04  0.28753501425E+04  0.50400000000E-02 0. -1.
         -1   -1    0    0    0  501 -0.00000000000E+00 -0.00000000000E+00 -0.19594142310E+04  0.19594142310E+04  0.50400000000E-02 0.  1.
    8880023    1    1    2    0    0  0.66516483245E+03 -0.18565838300E+04 -0.78845418063E+03  0.22236946673E+04  0.65864270000E+03 0.  0.
    8880022    1    1    2    0    0 -0.66516483245E+03  0.18565838300E+04  0.17043900921E+04  0.26110697063E+04  0.15294330000E+03 0.  0.
<mgrwt>
<rscale>  0 0.20534566E+04</rscale>
<asrwt>0</asrwt>
<pdfrwt beam="1">  1        1 0.44236156E+00 0.20792205E+04</pdfrwt>
<pdfrwt beam="2">  1       -1 0.30144835E+00 0.20792205E+04</pdfrwt>
<totfact> 0.20894410E-02</totfact>
</mgrwt>
</event>
<event>
 4    1  0.1065596E-007  0.9594201E+03  0.7818608E-02  0.9436688E-01
          1   -1    0    0  501    0  0.00000000000E+00  0.00000000000E+00  0.87164097665E+03  0.87164097667E+03  0.50400000000E-02 0. -1.
         -1   -1    0    0    0  501 -0.00000000000E+00 -0.00000000000E+00 -0.13557519963E+04  0.13557519963E+04  0.50400000000E-02 0.  1.
    8880023    1    1    2    0    0 -0.16876093997E+03  0.67690207798E+03  0.44327671845E+03  0.10568732816E+04  0.65864270000E+03 0. -1.
    8880022    1    1    2    0    0  0.16876093997E+03 -0.67690207798E+03 -0.92738773805E+03  0.11705196913E+04  0.15294330000E+03 0.  0.
<mgrwt>
<rscale>  0 0.89116916E+03</rscale>
<asrwt>0</asrwt>
<pdfrwt beam="1">  1        1 0.13409861E+00 0.95942008E+03</pdfrwt>
<pdfrwt beam="2">  1       -1 0.20857723E+00 0.95942008E+03</pdfrwt>
<totfact> 0.25496160E+00</totfact>
</mgrwt>
</event>
<event>
 4    1  0.1065596E-007  0.1551254E+04  0.7818608E-02  0.8874267E-01
         -1   -1    0    0    0  501 -0.00000000000E+00  0.00000000000E+00  0.12408393414E+04  0.12408393415E+04  0.50400000000E-02 0.  1.
          1   -1    0    0  501    0  0.00000000000E+00 -0.00000000000E+00 -0.33094973991E+04  0.33094973991E+04  0.50400000000E-02 0. -1.
    8880023    1    1    2    0    0 -0.12460953469E+04 -0.64793899974E+03  0.49063180691E+03  0.16269936500E+04  0.65864270000E+03 0.  1.
    8880022    1    1    2    0    0  0.12460953469E+04  0.64793899974E+03 -0.25592898646E+04  0.29233430905E+04  0.15294330000E+03 0.  0.
<mgrwt>
<rscale>  0 0.15154145E+04</rscale>
<asrwt>0</asrwt>
<pdfrwt beam="1">  1        1 0.50915344E+00 0.15512539E+04</pdfrwt>
<pdfrwt beam="2">  1       -1 0.19089836E+00 0.15512539E+04</pdfrwt>
<totfact> 0.57730251E-02</totfact>
</mgrwt>
</event>
<event>
 4    1  0.1065596E-007  0.9054430E+03  0.7818608E-02  0.9517350E-01
         -1   -1    0    0    0  501 -0.00000000000E+00  0.00000000000E+00  0.90692206031E+03  0.90692206032E+03  0.50400000000E-02 0.  1.
          1   -1    0    0  501    0  0.00000000000E+00 -0.00000000000E+00 -0.13512917259E+04  0.13512917259E+04  0.50400000000E-02 0. -1.
    8880023    1    1    2    0    0 -0.34483939563E+03  0.51681974169E+03 -0.10435590827E+04  0.13816087071E+04  0.65864270000E+03 0. -1.
    8880022    1    1    2    0    0  0.34483939563E+03 -0.51681974169E+03  0.59918941711E+03  0.87660507913E+03  0.15294330000E+03 0.  0.
<mgrwt>
<rscale>  0 0.83016697E+03</rscale>
<asrwt>0</asrwt>
<pdfrwt beam="1">  1        1 0.20789103E+00 0.90544302E+03</pdfrwt>
<pdfrwt beam="2">  1       -1 0.13952647E+00 0.90544302E+03</pdfrwt>
<totfact> 0.35763596E+00</totfact>
</mgrwt>
</event>
<event>
 4    1  0.1065596E-007  0.8406309E+03  0.7818608E-02  0.9628992E-01
         -1   -1    0    0    0  501 -0.00000000000E+00  0.00000000000E+00  0.62350172994E+03  0.62350172996E+03  0.50400000000E-02 0.  1.
          1   -1    0    0  501    0  0.00000000000E+00 -0.00000000000E+00 -0.12740147051E+04  0.12740147051E+04  0.50400000000E-02 0. -1.
    8880023    1    1    2    0    0 -0.30400670890E+03  0.42477049081E+03 -0.95627355348E+03  0.12732318580E+04  0.65864270000E+03 0.  0.
    8880022    1    1    2    0    0  0.30400670890E+03 -0.42477049081E+03  0.30576057829E+03  0.62428457708E+03  0.15294330000E+03 0.  0.
<mgrwt>
<rscale>  0 0.75406672E+03</rscale>
<asrwt>0</asrwt>
<pdfrwt beam="1">  1        1 0.19600226E+00 0.84063087E+03</pdfrwt>
<pdfrwt beam="2">  1       -1 0.95923344E-01 0.84063087E+03</pdfrwt>
<totfact> 0.10117717E+01</totfact>
</mgrwt>
</event>
<event>
 4    1  0.1065596E-007  0.9896723E+03  0.7818608E-02  0.9395196E-01
          1   -1    0    0  501    0  0.00000000000E+00  0.00000000000E+00  0.16427930292E+04  0.16427930292E+04  0.50400000000E-02 0. -1.
         -1   -1    0    0    0  501 -0.00000000000E+00 -0.00000000000E+00 -0.96686827843E+03  0.96686827844E+03  0.50400000000E-02 0.  1.
    8880023    1    1    2    0    0  0.50436556286E+03 -0.53968182277E+03  0.12977546489E+04  0.16320595657E+04  0.65864270000E+03 0.  0.
    8880022    1    1    2    0    0 -0.50436556286E+03  0.53968182277E+03 -0.62182989810E+03  0.97760174202E+03  0.15294330000E+03 0.  0.
<mgrwt>
<rscale>  0 0.92472101E+03</rscale>
<asrwt>0</asrwt>
<pdfrwt beam="1">  1        1 0.25273739E+00 0.98967232E+03</pdfrwt>
<pdfrwt beam="2">  1       -1 0.14874897E+00 0.98967232E+03</pdfrwt>
<totfact> 0.18767315E+00</totfact>
</mgrwt>
</event>
<event>
 4    1  0.1065596E-007  0.1152996E+04  0.7818608E-02  0.9204225E-01
         -1   -1    0    0    0  501 -0.00000000000E+00  0.00000000000E+00  0.24885673320E+04  0.24885673320E+04  0.50400000000E-02 0.  1.
          1   -1    0    0  501    0  0.00000000000E+00 -0.00000000000E+00 -0.10915310674E+04  0.10915310675E+04  0.50400000000E-02 0. -1.
    8880023    1    1    2    0    0 -0.62064823448E+03  0.71441282578E+03 -0.64722025378E+03  0.13222307589E+04  0.65864270000E+03 0.  0.
    8880022    1    1    2    0    0  0.62064823448E+03 -0.71441282578E+03  0.20442565183E+04  0.22578676406E+04  0.15294330000E+03 0.  0.
<mgrwt>
<rscale>  0 0.11009922E+04</rscale>
<asrwt>0</asrwt>
<pdfrwt beam="1">  1        1 0.16792786E+00 0.11529962E+04</pdfrwt>
<pdfrwt beam="2">  1       -1 0.38285651E+00 0.11529962E+04</pdfrwt>
<totfact> 0.12017739E-01</totfact>
</mgrwt>
</event>
<event>
 4    1  0.1065596E-007  0.6928588E+03  0.7818608E-02  0.1002822E+00
         -1   -1    0    0    0  501 -0.00000000000E+00  0.00000000000E+00  0.12428487825E+04  0.12428487825E+04  0.50400000000E-02 0.  1.
          1   -1    0    0  501    0  0.00000000000E+00 -0.00000000000E+00 -0.18484158640E+03  0.18484158647E+03  0.50400000000E-02 0. -1.
    8880023    1    1    2    0    0  0.20644971715E+03  0.60179720848E+02  0.72551695112E+03  0.10032089200E+04  0.65864270000E+03 0. -1.
    8880022    1    1    2    0    0 -0.20644971715E+03 -0.60179720848E+02  0.33249024496E+03  0.42448144897E+03  0.15294330000E+03 0.  1.
<mgrwt>
<rscale>  0 0.54429806E+03</rscale>
<asrwt>0</asrwt>
<pdfrwt beam="1">  1        1 0.28437167E-01 0.69285878E+03</pdfrwt>
<pdfrwt beam="2">  1       -1 0.19120751E+00 0.69285878E+03</pdfrwt>
<totfact> 0.29410814E+01</totfact>
</mgrwt>
</event>
<event>
 4    1  0.1065596E-007  0.7255934E+03  0.7818608E-02  0.9904095E-01
          1   -1    0    0  501    0  0.00000000000E+00  0.00000000000E+00  0.11397623706E+04  0.11397623706E+04  0.50400000000E-02 0. -1.
         -1   -1    0    0    0  501 -0.00000000000E+00 -0.00000000000E+00 -0.25244491088E+03  0.25244491093E+03  0.50400000000E-02 0.  1.
    8880023    1    1    2    0    0 -0.28231288199E+03 -0.11390801546E+03  0.67341963650E+03  0.98993929734E+03  0.65864270000E+03 0.  0.
    8880022    1    1    2    0    0  0.28231288199E+03  0.11390801546E+03  0.21389782321E+03  0.40226798420E+03  0.15294330000E+03 0.  0.
<mgrwt>
<rscale>  0 0.60063234E+03</rscale>
<asrwt>0</asrwt>
<pdfrwt beam="1">  1        1 0.17534806E+00 0.72559342E+03</pdfrwt>
<pdfrwt beam="2">  1       -1 0.38837678E-01 0.72559342E+03</pdfrwt>
<totfact> 0.77930768E+01</totfact>
</mgrwt>
</event>
<event>
 4    1  0.1065596E-007  0.1094070E+04  0.7818608E-02  0.9267688E-01
         -1   -1    0    0    0  501 -0.00000000000E+00  0.00000000000E+00  0.10336094111E+04  0.10336094111E+04  0.50400000000E-02 0.  1.
          1   -1    0    0  501    0  0.00000000000E+00 -0.00000000000E+00 -0.14868200767E+04  0.14868200767E+04  0.50400000000E-02 0. -1.
    8880023    1    1    2    0    0 -0.13862204414E+03 -0.86253247135E+03 -0.99691831131E+03  0.14801468376E+04  0.65864270000E+03 0.  0.
    8880022    1    1    2    0    0  0.13862204414E+03  0.86253247135E+03  0.54370764566E+03  0.10402826502E+04  0.15294330000E+03 0.  0.
<mgrwt>
<rscale>  0 0.10381280E+04</rscale>
<asrwt>0</asrwt>
<pdfrwt beam="1">  1        1 0.22874155E+00 0.10940697E+04</pdfrwt>
<pdfrwt beam="2">  1       -1 0.15901683E+00 0.10940697E+04</pdfrwt>
<totfact> 0.19727419E+00</totfact>
</mgrwt>
</event>
<event>
 4    1  0.1065596E-007  0.1575822E+04  0.7818608E-02  0.8857872E-01
          1   -1    0    0  501    0  0.00000000000E+00  0.00000000000E+00  0.26067879128E+04  0.26067879128E+04  0.50400000000E-02 0. -1.
         -1   -1    0    0    0  501 -0.00000000000E+00 -0.00000000000E+00 -0.14176166981E+04  0.14176166981E+04  0.50400000000E-02 0.  1.
    8880023    1    1    2    0    0 -0.91719715824E+03  0.10991603968E+04  0.18585492272E+04  0.24366820969E+04  0.65864270000E+03 0.  0.
    8880022    1    1    2    0    0  0.91719715824E+03 -0.10991603968E+04 -0.66937801249E+03  0.15877225140E+04  0.15294330000E+03 0.  0.
<mgrwt>
<rscale>  0 0.15406355E+04</rscale>
<asrwt>0</asrwt>
<pdfrwt beam="1">  1        1 0.40104429E+00 0.15758218E+04</pdfrwt>
<pdfrwt beam="2">  1       -1 0.21809488E+00 0.15758218E+04</pdfrwt>
<totfact> 0.12106114E-01</totfact>
</mgrwt>
</event>
<event>
 4    1  0.1065596E-007  0.1381836E+04  0.7818608E-02  0.8997927E-01
         -1   -1    0    0    0  501 -0.00000000000E+00  0.00000000000E+00  0.16011905508E+04  0.16011905508E+04  0.50400000000E-02 0.  1.
          1   -1    0    0  501    0  0.00000000000E+00 -0.00000000000E+00 -0.23737656202E+04  0.23737656202E+04  0.50400000000E-02 0. -1.
    8880023    1    1    2    0    0  0.11956926343E+04 -0.21442578387E+03 -0.18738003122E+04  0.23282175819E+04  0.65864270000E+03 0.  0.
    8880022    1    1    2    0    0 -0.11956926343E+04  0.21442578387E+03  0.11012252428E+04  0.16467385891E+04  0.15294330000E+03 0.  0.
<mgrwt>
<rscale>  0 0.13406621E+04</rscale>
<asrwt>0</asrwt>
<pdfrwt beam="1">  1        1 0.36519471E+00 0.13818356E+04</pdfrwt>
<pdfrwt beam="2">  1       -1 0.24633701E+00 0.13818356E+04</pdfrwt>
<totfact> 0.11697313E-01</totfact>
</mgrwt>
</event>
<event>
 4    1  0.1065596E-007  0.1151915E+04  0.7818608E-02  0.9205343E-01
          1   -1    0    0  501    0  0.00000000000E+00  0.00000000000E+00  0.31667097452E+04  0.31667097452E+04  0.50400000000E-02 0. -1.
         -1   -1    0    0    0  501 -0.00000000000E+00 -0.00000000000E+00 -0.62799422368E+03  0.62799422370E+03  0.50400000000E-02 0.  1.
    8880023    1    1    2    0    0  0.89256703716E+03  0.31051978647E+03  0.25914331965E+04  0.28359186645E+04  0.65864270000E+03 0.  0.
    8880022    1    1    2    0    0 -0.89256703716E+03 -0.31051978647E+03 -0.52717674982E+02  0.95878530437E+03  0.15294330000E+03 0.  0.
<mgrwt>
<rscale>  0 0.10998447E+04</rscale>
<asrwt>0</asrwt>
<pdfrwt beam="1">  1        1 0.48718612E+00 0.11519152E+04</pdfrwt>
<pdfrwt beam="2">  1       -1 0.96614496E-01 0.11519152E+04</pdfrwt>
<totfact> 0.46691309E-01</totfact>
</mgrwt>
</event>
<event>
 4    1  0.1065596E-007  0.7319684E+03  0.7818608E-02  0.9883992E-01
         -1   -1    0    0    0  501 -0.00000000000E+00  0.00000000000E+00  0.36882264748E+03  0.36882264751E+03  0.50400000000E-02 0.  1.
          1   -1    0    0  501    0  0.00000000000E+00 -0.00000000000E+00 -0.10456004562E+04  0.10456004562E+04  0.50400000000E-02 0. -1.
    8880023    1    1    2    0    0  0.18613781113E+03  0.25946139982E+03 -0.75527062189E+03  0.10517658586E+04  0.65864270000E+03 0.  0.
    8880022    1    1    2    0    0 -0.18613781113E+03 -0.25946139982E+03  0.78492813156E+02  0.36265724515E+03  0.15294330000E+03 0.  0.
<mgrwt>
<rscale>  0 0.61043405E+03</rscale>
<asrwt>0</asrwt>
<pdfrwt beam="1">  1        1 0.16086161E+00 0.73196838E+03</pdfrwt>
<pdfrwt beam="2">  1       -1 0.56741946E-01 0.73196838E+03</pdfrwt>
<totfact> 0.45032900E+01</totfact>
</mgrwt>
</event>
<event>
 4    1  0.1065596E-007  0.6709556E+03  0.7818608E-02  0.1014987E+00
         -1   -1    0    0    0  501 -0.00000000000E+00  0.00000000000E+00  0.69244261151E+03  0.69244261153E+03  0.50400000000E-02 0.  1.
          1   -1    0    0  501    0  0.00000000000E+00 -0.00000000000E+00 -0.48011502217E+03  0.48011502219E+03  0.50400000000E-02 0. -1.
    8880023    1    1    2    0    0 -0.91306102476E+02 -0.89635198257E+02 -0.21204959201E+03  0.70366647558E+03  0.65864270000E+03 0. -1.
    8880022    1    1    2    0    0  0.91306102476E+02  0.89635198257E+02  0.42437718136E+03  0.46889115815E+03  0.15294330000E+03 0.  0.
<mgrwt>
<rscale>  0 0.49539903E+03</rscale>
<asrwt>0</asrwt>
<pdfrwt beam="1">  1        1 0.73863849E-01 0.67095565E+03</pdfrwt>
<pdfrwt beam="2">  1       -1 0.10652963E+00 0.67095565E+03</pdfrwt>
<totfact> 0.39738277E+01</totfact>
</mgrwt>
</event>
<event>
 4    1  0.1065596E-007  0.9962812E+03  0.7818608E-02  0.9386439E-01
          1   -1    0    0  501    0  0.00000000000E+00  0.00000000000E+00  0.13259870368E+04  0.13259870368E+04  0.50400000000E-02 0. -1.
         -1   -1    0    0    0  501 -0.00000000000E+00 -0.00000000000E+00 -0.99079914857E+03  0.99079914859E+03  0.50400000000E-02 0.  1.
    8880023    1    1    2    0    0 -0.70248331353E+02 -0.74419839896E+03  0.91950535789E+03  0.13557530728E+04  0.65864270000E+03 0. -1.
    8880022    1    1    2    0    0  0.70248331353E+02  0.74419839896E+03 -0.58431746966E+03  0.96103311256E+03  0.15294330000E+03 0.  0.
<mgrwt>
<rscale>  0 0.93200136E+03</rscale>
<asrwt>0</asrwt>
<pdfrwt beam="1">  1        1 0.20399800E+00 0.99628123E+03</pdfrwt>
<pdfrwt beam="2">  1       -1 0.15243064E+00 0.99628123E+03</pdfrwt>
<totfact> 0.29087753E+00</totfact>
</mgrwt>
</event>
<event>
 4    1  0.1065596E-007  0.7443588E+03  0.7818608E-02  0.9847427E-01
         -1   -1    0    0    0  501 -0.00000000000E+00  0.00000000000E+00  0.31477013156E+04  0.31477013156E+04  0.50400000000E-02 0.  1.
          1   -1    0    0  501    0  0.00000000000E+00 -0.00000000000E+00 -0.24950625411E+03  0.24950625416E+03  0.50400000000E-02 0. -1.
    8880023    1    1    2    0    0  0.34632801384E+03 -0.17796376079E+02  0.35277288160E+03  0.82372247537E+03  0.65864270000E+03 0. -1.
    8880022    1    1    2    0    0 -0.34632801384E+03  0.17796376079E+02  0.25454221799E+04  0.25734850944E+04  0.15294330000E+03 0.  0.
<mgrwt>
<rscale>  0 0.62878257E+03</rscale>
<asrwt>0</asrwt>
<pdfrwt beam="1">  1        1 0.38385578E-01 0.74435879E+03</pdfrwt>
<pdfrwt beam="2">  1       -1 0.48426173E+00 0.74435879E+03</pdfrwt>
<totfact> 0.22498614E-01</totfact>
</mgrwt>
</event>
<event>
 4    1  0.1065596E-007  0.1158717E+04  0.7818608E-02  0.9198335E-01
         -1   -1    0    0    0  501 -0.00000000000E+00  0.00000000000E+00  0.19344046044E+04  0.19344046044E+04  0.50400000000E-02 0.  1.
          1   -1    0    0  501    0  0.00000000000E+00 -0.00000000000E+00 -0.10275538455E+04  0.10275538455E+04  0.50400000000E-02 0. -1.
    8880023    1    1    2    0    0  0.91348866186E+03  0.27267982822E+03  0.14484690164E+04  0.18549093029E+04  0.65864270000E+03 0.  1.
    8880022    1    1    2    0    0 -0.91348866186E+03 -0.27267982822E+03 -0.54161825747E+03  0.11070491470E+04  0.15294330000E+03 0.  0.
<mgrwt>
<rscale>  0 0.11070627E+04</rscale>
<asrwt>0</asrwt>
<pdfrwt beam="1">  1        1 0.15808521E+00 0.11587174E+04</pdfrwt>
<pdfrwt beam="2">  1       -1 0.29760071E+00 0.11587174E+04</pdfrwt>
<totfact> 0.48825128E-01</totfact>
</mgrwt>
</event>
<event>
 4    1  0.1065596E-007  0.1222305E+04  0.7818608E-02  0.9135739E-01
         -1   -1    0    0    0  501 -0.00000000000E+00  0.00000000000E+00  0.72850883310E+03  0.72850883311E+03  0.50400000000E-02 0.  1.
          1   -1    0    0  501    0  0.00000000000E+00 -0.00000000000E+00 -0.19374373394E+04  0.19374373394E+04  0.50400000000E-02 0. -1.
    8880023    1    1    2    0    0 -0.26381925258E+03  0.99529864919E+03 -0.10530676446E+04  0.16133758612E+04  0.65864270000E+03 0.  0.
    8880022    1    1    2    0    0  0.26381925258E+03 -0.99529864919E+03 -0.15586086173E+03  0.10525703114E+04  0.15294330000E+03 0.  0.
<mgrwt>
<rscale>  0 0.11742051E+04</rscale>
<asrwt>0</asrwt>
<pdfrwt beam="1">  1        1 0.29806728E+00 0.12223053E+04</pdfrwt>
<pdfrwt beam="2">  1       -1 0.11207828E+00 0.12223053E+04</pdfrwt>
<totfact> 0.23564709E+00</totfact>
</mgrwt>
</event>
<event>
 4    1  0.1065596E-007  0.9398471E+03  0.7818608E-02  0.9464875E-01
          1   -1    0    0  501    0  0.00000000000E+00  0.00000000000E+00  0.14679330906E+04  0.14679330906E+04  0.50400000000E-02 0. -1.
         -1   -1    0    0    0  501 -0.00000000000E+00 -0.00000000000E+00 -0.16308474493E+04  0.16308474493E+04  0.50400000000E-02 0.  1.
    8880023    1    1    2    0    0  0.75895114578E+02 -0.66613979043E+03  0.12284583567E+04  0.15467457546E+04  0.65864270000E+03 0.  0.
    8880022    1    1    2    0    0 -0.75895114578E+02  0.66613979043E+03 -0.13913727154E+04  0.15520347854E+04  0.15294330000E+03 0.  0.
<mgrwt>
<rscale>  0 0.86923731E+03</rscale>
<asrwt>0</asrwt>
<pdfrwt beam="1">  1        1 0.22583586E+00 0.93984706E+03</pdfrwt>
<pdfrwt beam="2">  1       -1 0.25089961E+00 0.93984706E+03</pdfrwt>
<totfact> 0.48385465E-01</totfact>
</mgrwt>
</event>
<event>
 4    1  0.1065596E-007  0.1484498E+04  0.7818608E-02  0.8920660E-01
          1   -1    0    0  501    0  0.00000000000E+00  0.00000000000E+00  0.10541038144E+04  0.10541038144E+04  0.50400000000E-02 0. -1.
         -1   -1    0    0    0  501 -0.00000000000E+00 -0.00000000000E+00 -0.20376839831E+04  0.20376839831E+04  0.50400000000E-02 0.  1.
    8880023    1    1    2    0    0 -0.56377638040E+03  0.12050234216E+04 -0.92962583730E+03  0.17515534983E+04  0.65864270000E+03 0.  0.
    8880022    1    1    2    0    0  0.56377638040E+03 -0.12050234216E+04 -0.53954331394E+02  0.13402342992E+04  0.15294330000E+03 0.  0.
<mgrwt>
<rscale>  0 0.14467448E+04</rscale>
<asrwt>0</asrwt>
<pdfrwt beam="1">  1        1 0.16216982E+00 0.14844984E+04</pdfrwt>
<pdfrwt beam="2">  1       -1 0.31348984E+00 0.14844984E+04</pdfrwt>
<totfact> 0.35318231E-01</totfact>
</mgrwt>
</event>
<event>
 4    1  0.1065596E-007  0.7571624E+03  0.7818608E-02  0.9812510E-01
          1   -1    0    0  501    0  0.00000000000E+00  0.00000000000E+00  0.12603181446E+04  0.12603181446E+04  0.50400000000E-02 0. -1.
         -1   -1    0    0    0  501 -0.00000000000E+00 -0.00000000000E+00 -0.33476205232E+03  0.33476205236E+03  0.50400000000E-02 0.  1.
    8880023    1    1    2    0    0 -0.33049507848E+03 -0.17394729367E+03  0.91993813591E+03  0.11914617233E+04  0.65864270000E+03 0. -1.
    8880022    1    1    2    0    0  0.33049507848E+03  0.17394729367E+03  0.56179563941E+01  0.40361847371E+03  0.15294330000E+03 0.  0.
<mgrwt>
<rscale>  0 0.64695490E+03</rscale>
<asrwt>0</asrwt>
<pdfrwt beam="1">  1        1 0.19389510E+00 0.75716238E+03</pdfrwt>
<pdfrwt beam="2">  1       -1 0.51501855E-01 0.75716238E+03</pdfrwt>
<totfact> 0.37634067E+01</totfact>
</mgrwt>
</event>
<event>
 4    1  0.1065596E-007  0.9772364E+03  0.7818608E-02  0.9411965E-01
         -1   -1    0    0    0  501 -0.00000000000E+00  0.00000000000E+00  0.56666974240E+03  0.56666974243E+03  0.50400000000E-02 0.  1.
          1   -1    0    0  501    0  0.00000000000E+00 -0.00000000000E+00 -0.25514078023E+04  0.25514078023E+04  0.50400000000E-02 0. -1.
    8880023    1    1    2    0    0 -0.41209010114E+03  0.59275832817E+03 -0.21501561662E+04  0.23618133780E+04  0.65864270000E+03 0. -1.
    8880022    1    1    2    0    0  0.41209010114E+03 -0.59275832817E+03  0.16541810627E+03  0.75626416679E+03  0.15294330000E+03 0.  0.
<mgrwt>
<rscale>  0 0.91097542E+03</rscale>
<asrwt>0</asrwt>
<pdfrwt beam="1">  1        1 0.39252427E+00 0.97723635E+03</pdfrwt>
<pdfrwt beam="2">  1       -1 0.87179962E-01 0.97723635E+03</pdfrwt>
<totfact> 0.16539796E+00</totfact>
</mgrwt>
</event>
<event>
 4    1  0.1065596E-007  0.6747864E+03  0.7818608E-02  0.1012441E+00
         -1   -1    0    0    0  501 -0.00000000000E+00  0.00000000000E+00  0.29045942025E+03  0.29045942029E+03  0.50400000000E-02 0.  1.
          1   -1    0    0  501    0  0.00000000000E+00 -0.00000000000E+00 -0.87467226994E+03  0.87467226996E+03  0.50400000000E-02 0. -1.
    8880023    1    1    2    0    0 -0.11922474031E+03 -0.85509907036E+02 -0.65625838457E+03  0.94128197501E+03  0.65864270000E+03 0. -1.
    8880022    1    1    2    0    0  0.11922474031E+03  0.85509907036E+02  0.72045534870E+02  0.22384971524E+03  0.15294330000E+03 0.  0.
<mgrwt>
<rscale>  0 0.50515826E+03</rscale>
<asrwt>0</asrwt>
<pdfrwt beam="1">  1        1 0.13456496E+00 0.67478640E+03</pdfrwt>
<pdfrwt beam="2">  1       -1 0.44686065E-01 0.67478640E+03</pdfrwt>
<totfact> 0.97151184E+01</totfact>
</mgrwt>
</event>
<event>
 4    1  0.1065596E-007  0.8049366E+03  0.7818608E-02  0.9700222E-01
          1   -1    0    0  501    0  0.00000000000E+00  0.00000000000E+00  0.32598312256E+04  0.32598312256E+04  0.50400000000E-02 0. -1.
         -1   -1    0    0    0  501 -0.00000000000E+00 -0.00000000000E+00 -0.17078938530E+03  0.17078938537E+03  0.50400000000E-02 0.  1.
    8880023    1    1    2    0    0 -0.32535581418E+03  0.32902330398E+03  0.26673578379E+04  0.27861659646E+04  0.65864270000E+03 0. -1.
    8880022    1    1    2    0    0  0.32535581418E+03 -0.32902330398E+03  0.42168400236E+03  0.64445464638E+03  0.15294330000E+03 0.  0.
<mgrwt>
<rscale>  0 0.71003575E+03</rscale>
<asrwt>0</asrwt>
<pdfrwt beam="1">  1        1 0.50151247E+00 0.80493661E+03</pdfrwt>
<pdfrwt beam="2">  1       -1 0.26275291E-01 0.80493661E+03</pdfrwt>
<totfact> 0.52304976E+00</totfact>
</mgrwt>
</event>
<event>
 4    1  0.1065596E-007  0.1406901E+04  0.7818608E-02  0.8978339E-01
          1   -1    0    0  501    0  0.00000000000E+00  0.00000000000E+00  0.29338511801E+04  0.29338511801E+04  0.50400000000E-02 0. -1.
         -1   -1    0    0    0  501 -0.00000000000E+00 -0.00000000000E+00 -0.75662955097E+03  0.75662955099E+03  0.50400000000E-02 0.  1.
    8880023    1    1    2    0    0 -0.12146318650E+04  0.26500645591E+03  0.19701207671E+04  0.24208975675E+04  0.65864270000E+03 0.  0.
    8880022    1    1    2    0    0  0.12146318650E+04 -0.26500645591E+03  0.20710086198E+03  0.12695831636E+04  0.15294330000E+03 0.  0.
<mgrwt>
<rscale>  0 0.13666230E+04</rscale>
<asrwt>0</asrwt>
<pdfrwt beam="1">  1        1 0.45136172E+00 0.14069006E+04</pdfrwt>
<pdfrwt beam="2">  1       -1 0.11640455E+00 0.14069006E+04</pdfrwt>
<totfact> 0.43036414E-01</totfact>
</mgrwt>
</event>
<event>
 4    1  0.1065596E-007  0.8710510E+03  0.7818608E-02  0.9574200E-01
         -1   -1    0    0    0  501 -0.00000000000E+00  0.00000000000E+00  0.83017456507E+03  0.83017456509E+03  0.50400000000E-02 0.  1.
          1   -1    0    0  501    0  0.00000000000E+00 -0.00000000000E+00 -0.12947243047E+04  0.12947243047E+04  0.50400000000E-02 0. -1.
    8880023    1    1    2    0    0 -0.35302546315E+03  0.44754071673E+03 -0.10012949158E+04  0.13271478386E+04  0.65864270000E+03 0.  0.
    8880022    1    1    2    0    0  0.35302546315E+03 -0.44754071673E+03  0.53674517613E+03  0.79775103126E+03  0.15294330000E+03 0.  0.
<mgrwt>
<rscale>  0 0.79027573E+03</rscale>
<asrwt>0</asrwt>
<pdfrwt beam="1">  1        1 0.19918835E+00 0.87105102E+03</pdfrwt>
<pdfrwt beam="2">  1       -1 0.12771916E+00 0.87105102E+03</pdfrwt>
<totfact> 0.49382702E+00</totfact>
</mgrwt>
</event>
<event>
 4    1  0.1065596E-007  0.8225350E+03  0.7818608E-02  0.9664035E-01
          1   -1    0    0  501    0  0.00000000000E+00  0.00000000000E+00  0.10665239113E+04  0.10665239113E+04  0.50400000000E-02 0. -1.
         -1   -1    0    0    0  501 -0.00000000000E+00 -0.00000000000E+00 -0.93852697449E+03  0.93852697451E+03  0.50400000000E-02 0.  1.
    8880023    1    1    2    0    0 -0.47181001988E+03 -0.14194698588E+03  0.80699240928E+03  0.11523023026E+04  0.65864270000E+03 0. -1.
    8880022    1    1    2    0    0  0.47181001988E+03  0.14194698588E+03 -0.67899547244E+03  0.85274858327E+03  0.15294330000E+03 0.  0.
<mgrwt>
<rscale>  0 0.73199084E+03</rscale>
<asrwt>0</asrwt>
<pdfrwt beam="1">  1        1 0.16408060E+00 0.82253501E+03</pdfrwt>
<pdfrwt beam="2">  1       -1 0.14438877E+00 0.82253501E+03</pdfrwt>
<totfact> 0.53267723E+00</totfact>
</mgrwt>
</event>
<event>
 4    1  0.1065596E-007  0.8088587E+03  0.7818608E-02  0.9691959E-01
         -1   -1    0    0    0  501 -0.00000000000E+00  0.00000000000E+00  0.29332358266E+03  0.29332358270E+03  0.50400000000E-02 0.  1.
          1   -1    0    0  501    0  0.00000000000E+00 -0.00000000000E+00 -0.19068867834E+04  0.19068867834E+04  0.50400000000E-02 0. -1.
    8880023    1    1    2    0    0  0.46357847474E+03 -0.74411886145E+02 -0.14833258579E+04  0.16895289101E+04  0.65864270000E+03 0.  1.
    8880022    1    1    2    0    0 -0.46357847474E+03  0.74411886145E+02 -0.13023734283E+03  0.51068145602E+03  0.15294330000E+03 0. -1.
<mgrwt>
<rscale>  0 0.71497559E+03</rscale>
<asrwt>0</asrwt>
<pdfrwt beam="1">  1        1 0.29336719E+00 0.80885866E+03</pdfrwt>
<pdfrwt beam="2">  1       -1 0.45126706E-01 0.80885866E+03</pdfrwt>
<totfact> 0.17335397E+01</totfact>
</mgrwt>
</event>
<event>
 4    1  0.1065596E-007  0.1596161E+04  0.7818608E-02  0.8844558E-01
          1   -1    0    0  501    0  0.00000000000E+00  0.00000000000E+00  0.33461014186E+04  0.33461014186E+04  0.50400000000E-02 0. -1.
         -1   -1    0    0    0  501 -0.00000000000E+00 -0.00000000000E+00 -0.99828669493E+03  0.99828669494E+03  0.50400000000E-02 0.  1.
    8880023    1    1    2    0    0  0.11966223327E+04  0.82584118366E+03  0.23990663557E+04  0.28815357455E+04  0.65864270000E+03 0.  0.
    8880022    1    1    2    0    0 -0.11966223327E+04 -0.82584118366E+03 -0.51251632025E+02  0.14628523680E+04  0.15294330000E+03 0.  0.
<mgrwt>
<rscale>  0 0.15614961E+04</rscale>
<asrwt>0</asrwt>
<pdfrwt beam="1">  1        1 0.51478483E+00 0.15961607E+04</pdfrwt>
<pdfrwt beam="2">  1       -1 0.15358257E+00 0.15961607E+04</pdfrwt>
<totfact> 0.10156492E-01</totfact>
</mgrwt>
</event>
<event>
 4    1  0.1065596E-007  0.9574582E+03  0.7818608E-02  0.9439464E-01
         -1   -1    0    0    0  501 -0.00000000000E+00  0.00000000000E+00  0.45656509830E+03  0.45656509833E+03  0.50400000000E-02 0.  1.
          1   -1    0    0  501    0  0.00000000000E+00 -0.00000000000E+00 -0.18332739980E+04  0.18332739980E+04  0.50400000000E-02 0. -1.
    8880023    1    1    2    0    0 -0.67148741648E+03  0.17894292988E+03 -0.12377431469E+04  0.15648431956E+04  0.65864270000E+03 0.  0.
    8880022    1    1    2    0    0  0.67148741648E+03 -0.17894292988E+03 -0.13896575272E+03  0.72499590074E+03  0.15294330000E+03 0.  0.
<mgrwt>
<rscale>  0 0.88897932E+03</rscale>
<asrwt>0</asrwt>
<pdfrwt beam="1">  1        1 0.28204215E+00 0.95745816E+03</pdfrwt>
<pdfrwt beam="2">  1       -1 0.70240785E-01 0.95745816E+03</pdfrwt>
<totfact> 0.80380000E+00</totfact>
</mgrwt>
</event>
<event>
 4    1  0.1065596E-007  0.1489725E+04  0.7818608E-02  0.8916925E-01
          1   -1    0    0  501    0  0.00000000000E+00  0.00000000000E+00  0.25223345967E+04  0.25223345967E+04  0.50400000000E-02 0. -1.
         -1   -1    0    0    0  501 -0.00000000000E+00 -0.00000000000E+00 -0.86458573712E+03  0.86458573714E+03  0.50400000000E-02 0.  1.
    8880023    1    1    2    0    0  0.55132077306E+03  0.12171757228E+04  0.13428133217E+04  0.20055994511E+04  0.65864270000E+03 0. -1.
    8880022    1    1    2    0    0 -0.55132077306E+03 -0.12171757228E+04  0.31493553786E+03  0.13813208827E+04  0.15294330000E+03 0.  0.
<mgrwt>
<rscale>  0 0.14521295E+04</rscale>
<asrwt>0</asrwt>
<pdfrwt beam="1">  1        1 0.38805148E+00 0.14897253E+04</pdfrwt>
<pdfrwt beam="2">  1       -1 0.13301319E+00 0.14897253E+04</pdfrwt>
<totfact> 0.59612975E-01</totfact>
</mgrwt>
</event>
<event>
 4    1  0.1065596E-007  0.7459805E+03  0.7818608E-02  0.9842857E-01
          1   -1    0    0  501    0  0.00000000000E+00  0.00000000000E+00  0.21986353272E+04  0.21986353272E+04  0.50400000000E-02 0. -1.
         -1   -1    0    0    0  501 -0.00000000000E+00 -0.00000000000E+00 -0.35403621928E+03  0.35403621932E+03  0.50400000000E-02 0.  1.
    8880023    1    1    2    0    0  0.17196582300E+03  0.30513014336E+03  0.20041759450E+04  0.21385060377E+04  0.65864270000E+03 0. -1.
    8880022    1    1    2    0    0 -0.17196582300E+03 -0.30513014336E+03 -0.15957683713E+03  0.41416550874E+03  0.15294330000E+03 0.  0.
<mgrwt>
<rscale>  0 0.63112457E+03</rscale>
<asrwt>0</asrwt>
<pdfrwt beam="1">  1        1 0.33825159E+00 0.74598047E+03</pdfrwt>
<pdfrwt beam="2">  1       -1 0.54467111E-01 0.74598047E+03</pdfrwt>
<totfact> 0.78149392E+00</totfact>
</mgrwt>
</event>
<event>
 4    1  0.1065596E-007  0.1134369E+04  0.7818608E-02  0.9223722E-01
          1   -1    0    0  501    0  0.00000000000E+00  0.00000000000E+00  0.15491114998E+04  0.15491114998E+04  0.50400000000E-02 0. -1.
         -1   -1    0    0    0  501 -0.00000000000E+00 -0.00000000000E+00 -0.81342042276E+03  0.81342042278E+03  0.50400000000E-02 0.  1.
    8880023    1    1    2    0    0  0.25433191401E+03 -0.88786123577E+03  0.85267722529E+03  0.14191021645E+04  0.65864270000E+03 0.  0.
    8880022    1    1    2    0    0 -0.25433191401E+03  0.88786123577E+03 -0.11698614830E+03  0.94342975805E+03  0.15294330000E+03 0.  0.
<mgrwt>
<rscale>  0 0.10811896E+04</rscale>
<asrwt>0</asrwt>
<pdfrwt beam="1">  1        1 0.23832484E+00 0.11343688E+04</pdfrwt>
<pdfrwt beam="2">  1       -1 0.12514160E+00 0.11343688E+04</pdfrwt>
<totfact> 0.33408116E+00</totfact>
</mgrwt>
</event>
<event>
 4    1  0.1065596E-007  0.7032490E+03  0.7818608E-02  0.9983981E-01
          1   -1    0    0  501    0  0.00000000000E+00  0.00000000000E+00  0.12366640724E+04  0.12366640724E+04  0.50400000000E-02 0. -1.
         -1   -1    0    0    0  501 -0.00000000000E+00 -0.00000000000E+00 -0.72236381267E+03  0.72236381269E+03  0.50400000000E-02 0.  1.
    8880023    1    1    2    0    0  0.24243715062E+03  0.44421080556E+02  0.10999116585E+04  0.13055132581E+04  0.65864270000E+03 0. -1.
    8880022    1    1    2    0    0 -0.24243715062E+03 -0.44421080556E+02 -0.58561139872E+03  0.65351462701E+03  0.15294330000E+03 0.  0.
<mgrwt>
<rscale>  0 0.56358263E+03</rscale>
<asrwt>0</asrwt>
<pdfrwt beam="1">  1        1 0.19025601E+00 0.70324904E+03</pdfrwt>
<pdfrwt beam="2">  1       -1 0.11113289E+00 0.70324904E+03</pdfrwt>
<totfact> 0.78125853E+00</totfact>
</mgrwt>
</event>
<event>
 4    1  0.1065596E-007  0.6626817E+03  0.7818608E-02  0.1021563E+00
          1   -1    0    0  501    0  0.00000000000E+00  0.00000000000E+00  0.16894981101E+04  0.16894981101E+04  0.50400000000E-02 0. -1.
         -1   -1    0    0    0  501 -0.00000000000E+00 -0.00000000000E+00 -0.12902303770E+03  0.12902303780E+03  0.50400000000E-02 0.  1.
    8880023    1    1    2    0    0 -0.70995110056E+02 -0.17218846930E+02  0.14977294813E+04  0.16377852728E+04  0.65864270000E+03 0. -1.
    8880022    1    1    2    0    0  0.70995110056E+02  0.17218846930E+02  0.62745591120E+02  0.18073587514E+03  0.15294330000E+03 0.  0.
<mgrwt>
<rscale>  0 0.47126777E+03</rscale>
<asrwt>0</asrwt>
<pdfrwt beam="1">  1        1 0.25992277E+00 0.66268167E+03</pdfrwt>
<pdfrwt beam="2">  1       -1 0.19849699E-01 0.66268167E+03</pdfrwt>
<totfact> 0.10371959E+02</totfact>
</mgrwt>
</event>
<event>
 4    1  0.1065596E-007  0.6850925E+03  0.7818608E-02  0.1006578E+00
          1   -1    0    0  501    0  0.00000000000E+00  0.00000000000E+00  0.46802678286E+03  0.46802678288E+03  0.50400000000E-02 0. -1.
         -1   -1    0    0    0  501 -0.00000000000E+00 -0.00000000000E+00 -0.12979055435E+04  0.12979055435E+04  0.50400000000E-02 0.  1.
    8880023    1    1    2    0    0  0.40529110699E+02 -0.18411641825E+03  0.19531344377E+03  0.71238964890E+03  0.65864270000E+03 0. -1.
    8880022    1    1    2    0    0 -0.40529110699E+02  0.18411641825E+03 -0.10251922044E+04  0.10535426775E+04  0.15294330000E+03 0.  0.
<mgrwt>
<rscale>  0 0.52857524E+03</rscale>
<asrwt>0</asrwt>
<pdfrwt beam="1">  1        1 0.72004121E-01 0.68509245E+03</pdfrwt>
<pdfrwt beam="2">  1       -1 0.19967777E+00 0.68509245E+03</pdfrwt>
<totfact> 0.76550837E+00</totfact>
</mgrwt>
</event>
<event>
 4    1  0.1065596E-007  0.6681611E+03  0.7818608E-02  0.1017017E+00
          1   -1    0    0  501    0  0.00000000000E+00  0.00000000000E+00  0.34765397815E+03  0.34765397818E+03  0.50400000000E-02 0. -1.
         -1   -1    0    0    0  501 -0.00000000000E+00 -0.00000000000E+00 -0.13750690136E+04  0.13750690136E+04  0.50400000000E-02 0.  1.
    8880023    1    1    2    0    0 -0.79550913014E+01  0.11209716942E+03  0.98538873704E+01  0.66823376466E+03  0.65864270000E+03 0. -1.
    8880022    1    1    2    0    0  0.79550913014E+01 -0.11209716942E+03 -0.10372689228E+04  0.10544892271E+04  0.15294330000E+03 0.  0.
<mgrwt>
<rscale>  0 0.48778667E+03</rscale>
<asrwt>0</asrwt>
<pdfrwt beam="1">  1        1 0.53485228E-01 0.66816111E+03</pdfrwt>
<pdfrwt beam="2">  1       -1 0.21154908E+00 0.66816111E+03</pdfrwt>
<totfact> 0.94611839E+00</totfact>
</mgrwt>
</event>
<event>
 4    1  0.1065596E-007  0.9081444E+03  0.7818608E-02  0.9513082E-01
          1   -1    0    0  501    0  0.00000000000E+00  0.00000000000E+00  0.88184172111E+03  0.88184172112E+03  0.50400000000E-02 0. -1.
         -1   -1    0    0    0  501 -0.00000000000E+00 -0.00000000000E+00 -0.20230869402E+04  0.20230869402E+04  0.50400000000E-02 0.  1.
    8880023    1    1    2    0    0  0.49878051098E+03  0.37700672483E+03  0.57301350895E+03  0.10738113225E+04  0.65864270000E+03 0. -1.
    8880022    1    1    2    0    0 -0.49878051098E+03 -0.37700672483E+03 -0.17142587280E+04  0.18311173387E+04  0.15294330000E+03 0.  0.
<mgrwt>
<rscale>  0 0.83326198E+03</rscale>
<asrwt>0</asrwt>
<pdfrwt beam="1">  1        1 0.13566796E+00 0.90814441E+03</pdfrwt>
<pdfrwt beam="2">  1       -1 0.31124414E+00 0.90814441E+03</pdfrwt>
<totfact> 0.54192625E-01</totfact>
</mgrwt>
</event>
<event>
 4    1  0.1065596E-007  0.1304259E+04  0.7818608E-02  0.9061890E-01
          1   -1    0    0  501    0  0.00000000000E+00  0.00000000000E+00  0.17309058134E+04  0.17309058134E+04  0.50400000000E-02 0. -1.
         -1   -1    0    0    0  501 -0.00000000000E+00 -0.00000000000E+00 -0.12861453769E+04  0.12861453769E+04  0.50400000000E-02 0.  1.
    8880023    1    1    2    0    0 -0.34052787624E+02  0.11252213144E+04 -0.63418653553E+03  0.14502707909E+04  0.65864270000E+03 0.  0.
    8880022    1    1    2    0    0  0.34052787624E+02 -0.11252213144E+04  0.10789469720E+04  0.15667803995E+04  0.15294330000E+03 0.  0.
<mgrwt>
<rscale>  0 0.12600132E+04</rscale>
<asrwt>0</asrwt>
<pdfrwt beam="1">  1        1 0.26629320E+00 0.13042595E+04</pdfrwt>
<pdfrwt beam="2">  1       -1 0.19786852E+00 0.13042595E+04</pdfrwt>
<totfact> 0.68395149E-01</totfact>
</mgrwt>
</event>
<event>
 4    1  0.1065596E-007  0.1397784E+04  0.7818608E-02  0.8985406E-01
          1   -1    0    0  501    0  0.00000000000E+00  0.00000000000E+00  0.36326733931E+04  0.36326733931E+04  0.50400000000E-02 0. -1.
         -1   -1    0    0    0  501 -0.00000000000E+00 -0.00000000000E+00 -0.80770713146E+03  0.80770713148E+03  0.50400000000E-02 0.  1.
    8880023    1    1    2    0    0 -0.80821727741E+02  0.12302269035E+04  0.28752772028E+04  0.31970329346E+04  0.65864270000E+03 0.  0.
    8880022    1    1    2    0    0  0.80821727741E+02 -0.12302269035E+04 -0.50310941132E+02  0.12433475900E+04  0.15294330000E+03 0.  0.
<mgrwt>
<rscale>  0 0.13571857E+04</rscale>
<asrwt>0</asrwt>
<pdfrwt beam="1">  1        1 0.55887283E+00 0.13977842E+04</pdfrwt>
<pdfrwt beam="2">  1       -1 0.12426263E+00 0.13977842E+04</pdfrwt>
<totfact> 0.10835643E-01</totfact>
</mgrwt>
</event>
<event>
 4    1  0.1065596E-007  0.1744654E+04  0.7818608E-02  0.8753786E-01
         -1   -1    0    0    0  501 -0.00000000000E+00  0.00000000000E+00  0.96514591298E+03  0.96514591299E+03  0.50400000000E-02 0.  1.
          1   -1    0    0  501    0  0.00000000000E+00 -0.00000000000E+00 -0.40864402843E+04  0.40864402843E+04  0.50400000000E-02 0. -1.
    8880023    1    1    2    0    0 -0.11815004838E+03  0.16112252824E+04 -0.29400393193E+04  0.34187201919E+04  0.65864270000E+03 0.  0.
    8880022    1    1    2    0    0  0.11815004838E+03 -0.16112252824E+04 -0.18125505195E+03  0.16328660054E+04  0.15294330000E+03 0.  0.
<mgrwt>
<rscale>  0 0.17133516E+04</rscale>
<asrwt>0</asrwt>
<pdfrwt beam="1">  1        1 0.62868311E+00 0.17446537E+04</pdfrwt>
<pdfrwt beam="2">  1       -1 0.14848399E+00 0.17446537E+04</pdfrwt>
<totfact> 0.26860330E-02</totfact>
</mgrwt>
</event>
<event>
 4    1  0.1065596E-007  0.1354736E+04  0.7818608E-02  0.9019677E-01
         -1   -1    0    0    0  501 -0.00000000000E+00  0.00000000000E+00  0.97997759986E+03  0.97997759987E+03  0.50400000000E-02 0.  1.
          1   -1    0    0  501    0  0.00000000000E+00 -0.00000000000E+00 -0.21878312664E+04  0.21878312664E+04  0.50400000000E-02 0. -1.
    8880023    1    1    2    0    0 -0.11812493704E+04 -0.78419167300E+02 -0.14119921727E+04  0.19567911853E+04  0.65864270000E+03 0.  0.
    8880022    1    1    2    0    0  0.11812493704E+04  0.78419167300E+02  0.20413850610E+03  0.12110176810E+04  0.15294330000E+03 0.  0.
<mgrwt>
<rscale>  0 0.13125436E+04</rscale>
<asrwt>0</asrwt>
<pdfrwt beam="1">  1        1 0.33658943E+00 0.13547361E+04</pdfrwt>
<pdfrwt beam="2">  1       -1 0.15076578E+00 0.13547361E+04</pdfrwt>
<totfact> 0.73753004E-01</totfact>
</mgrwt>
</event>
<event>
 4    1  0.1065596E-007  0.1277810E+04  0.7818608E-02  0.9084963E-01
          1   -1    0    0  501    0  0.00000000000E+00  0.00000000000E+00  0.28050855883E+04  0.28050855883E+04  0.50400000000E-02 0. -1.
         -1   -1    0    0    0  501 -0.00000000000E+00 -0.00000000000E+00 -0.58548093317E+03  0.58548093320E+03  0.50400000000E-02 0.  1.
    8880023    1    1    2    0    0  0.95569012186E+03 -0.53445647508E+03  0.55704856024E+03  0.13939514473E+04  0.65864270000E+03 0.  0.
    8880022    1    1    2    0    0 -0.95569012186E+03  0.53445647508E+03  0.16625560949E+04  0.19966150742E+04  0.15294330000E+03 0.  0.
<mgrwt>
<rscale>  0 0.12323962E+04</rscale>
<asrwt>0</asrwt>
<pdfrwt beam="1">  1        1 0.43155163E+00 0.12778097E+04</pdfrwt>
<pdfrwt beam="2">  1       -1 0.90073989E-01 0.12778097E+04</pdfrwt>
<totfact> 0.98098428E-01</totfact>
</mgrwt>
</event>
<event>
 4    1  0.1065596E-007  0.8250684E+03  0.7818608E-02  0.9659005E-01
         -1   -1    0    0    0  501 -0.00000000000E+00  0.00000000000E+00  0.39718667708E+03  0.39718667711E+03  0.50400000000E-02 0.  1.
          1   -1    0    0  501    0  0.00000000000E+00 -0.00000000000E+00 -0.13223050939E+04  0.13223050939E+04  0.50400000000E-02 0. -1.
    8880023    1    1    2    0    0  0.16761104912E+03 -0.46779725600E+03 -0.86616822687E+03  0.11962379947E+04  0.65864270000E+03 0.  0.
    8880022    1    1    2    0    0 -0.16761104912E+03  0.46779725600E+03 -0.58950189952E+02  0.52325377631E+03  0.15294330000E+03 0.  0.
<mgrwt>
<rscale>  0 0.73510967E+03</rscale>
<asrwt>0</asrwt>
<pdfrwt beam="1">  1        1 0.20343155E+00 0.82506845E+03</pdfrwt>
<pdfrwt beam="2">  1       -1 0.61105643E-01 0.82506845E+03</pdfrwt>
<totfact> 0.24212810E+01</totfact>
</mgrwt>
</event>
<event>
 4    1  0.1065596E-007  0.2275019E+04  0.7818608E-02  0.8497234E-01
         -1   -1    0    0    0  501 -0.00000000000E+00  0.00000000000E+00  0.20603368442E+04  0.20603368442E+04  0.50400000000E-02 0.  1.
          1   -1    0    0  501    0  0.00000000000E+00 -0.00000000000E+00 -0.25824737746E+04  0.25824737746E+04  0.50400000000E-02 0. -1.
    8880023    1    1    2    0    0 -0.13850437849E+04 -0.16803441925E+04 -0.86339065227E+03  0.24333426631E+04  0.65864270000E+03 0.  0.
    8880022    1    1    2    0    0  0.13850437849E+04  0.16803441925E+04  0.34125372184E+03  0.22094679557E+04  0.15294330000E+03 0.  0.
<mgrwt>
<rscale>  0 0.22516456E+04</rscale>
<asrwt>0</asrwt>
<pdfrwt beam="1">  1        1 0.39730366E+00 0.22750194E+04</pdfrwt>
<pdfrwt beam="2">  1       -1 0.31697490E+00 0.22750194E+04</pdfrwt>
<totfact> 0.26212816E-02</totfact>
</mgrwt>
</event>
<event>
 4    1  0.1065596E-007  0.9254462E+03  0.7818608E-02  0.9486358E-01
         -1   -1    0    0    0  501 -0.00000000000E+00  0.00000000000E+00  0.51206486535E+03  0.51206486537E+03  0.50400000000E-02 0.  1.
          1   -1    0    0  501    0  0.00000000000E+00 -0.00000000000E+00 -0.34145976052E+04  0.34145976052E+04  0.50400000000E-02 0. -1.
    8880023    1    1    2    0    0  0.28670023344E+03 -0.58347527657E+03 -0.30959932238E+04  0.32313502860E+04  0.65864270000E+03 0. -1.
    8880022    1    1    2    0    0 -0.28670023344E+03  0.58347527657E+03  0.19346048397E+03  0.69531218463E+03  0.15294330000E+03 0.  0.
<mgrwt>
<rscale>  0 0.85297074E+03</rscale>
<asrwt>0</asrwt>
<pdfrwt beam="1">  1        1 0.52532269E+00 0.92544618E+03</pdfrwt>
<pdfrwt beam="2">  1       -1 0.78779212E-01 0.92544618E+03</pdfrwt>
<totfact> 0.49438375E-01</totfact>
</mgrwt>
</event>
<event>
 4    1  0.1065596E-007  0.1167881E+04  0.7818608E-02  0.9188995E-01
          1   -1    0    0  501    0  0.00000000000E+00  0.00000000000E+00  0.11207339463E+04  0.11207339463E+04  0.50400000000E-02 0. -1.
         -1   -1    0    0    0  501 -0.00000000000E+00 -0.00000000000E+00 -0.12041889851E+04  0.12041889851E+04  0.50400000000E-02 0.  1.
    8880023    1    1    2    0    0 -0.74379648895E+03 -0.61392362204E+03 -0.49087769912E+03  0.12668490646E+04  0.65864270000E+03 0.  1.
    8880022    1    1    2    0    0  0.74379648895E+03  0.61392362204E+03  0.40742266031E+03  0.10580738669E+04  0.15294330000E+03 0.  0.
<mgrwt>
<rscale>  0 0.11167746E+04</rscale>
<asrwt>0</asrwt>
<pdfrwt beam="1">  1        1 0.17242061E+00 0.11678808E+04</pdfrwt>
<pdfrwt beam="2">  1       -1 0.18525984E+00 0.11678808E+04</pdfrwt>
<totfact> 0.22972191E+00</totfact>
</mgrwt>
</event>
<event>
 4    1  0.1065596E-007  0.8341589E+03  0.7818608E-02  0.9641294E-01
          1   -1    0    0  501    0  0.00000000000E+00  0.00000000000E+00  0.56188980018E+03  0.56188980020E+03  0.50400000000E-02 0. -1.
         -1   -1    0    0    0  501 -0.00000000000E+00 -0.00000000000E+00 -0.23717426292E+04  0.23717426292E+04  0.50400000000E-02 0.  1.
    8880023    1    1    2    0    0  0.71808051230E+02 -0.50680813813E+03  0.19681936399E+03  0.85706414777E+03  0.65864270000E+03 0. -1.
    8880022    1    1    2    0    0 -0.71808051230E+02  0.50680813813E+03 -0.20066721930E+04  0.20765682817E+04  0.15294330000E+03 0.  0.
<mgrwt>
<rscale>  0 0.74622333E+03</rscale>
<asrwt>0</asrwt>
<pdfrwt beam="1">  1        1 0.86444586E-01 0.83415891E+03</pdfrwt>
<pdfrwt beam="2">  1       -1 0.36488348E+00 0.83415891E+03</pdfrwt>
<totfact> 0.48917389E-01</totfact>
</mgrwt>
</event>
<event>
 4    1  0.1065596E-007  0.7979213E+03  0.7818608E-02  0.9715309E-01
         -1   -1    0    0    0  501 -0.00000000000E+00  0.00000000000E+00  0.13458810553E+03  0.13458810563E+03  0.50400000000E-02 0.  1.
          1   -1    0    0  501    0  0.00000000000E+00 -0.00000000000E+00 -0.36098533808E+04  0.36098533808E+04  0.50400000000E-02 0. -1.
    8880023    1    1    2    0    0 -0.13948126051E+03  0.42826755346E+03 -0.28452956950E+04  0.29550610684E+04  0.65864270000E+03 0. -1.
    8880022    1    1    2    0    0  0.13948126051E+03 -0.42826755346E+03 -0.62996958021E+03  0.78938041804E+03  0.15294330000E+03 0.  0.
<mgrwt>
<rscale>  0 0.70112579E+03</rscale>
<asrwt>0</asrwt>
<pdfrwt beam="1">  1        1 0.55536199E+00 0.79792125E+03</pdfrwt>
<pdfrwt beam="2">  1       -1 0.20705865E-01 0.79792125E+03</pdfrwt>
<totfact> 0.42285459E+00</totfact>
</mgrwt>
</event>
<event>
 4    1  0.1065596E-007  0.1061742E+04  0.7818608E-02  0.9304897E-01
          1   -1    0    0  501    0  0.00000000000E+00  0.00000000000E+00  0.20701308607E+04  0.20701308607E+04  0.50400000000E-02 0. -1.
         -1   -1    0    0    0  501 -0.00000000000E+00 -0.00000000000E+00 -0.80952837412E+03  0.80952837414E+03  0.50400000000E-02 0.  1.
    8880023    1    1    2    0    0  0.60874253783E+03 -0.56825949526E+03 -0.30074656864E+03  0.11035148554E+04  0.65864270000E+03 0.  1.
    8880022    1    1    2    0    0 -0.60874253783E+03  0.56825949526E+03  0.15613490552E+04  0.17761443794E+04  0.15294330000E+03 0.  0.
<mgrwt>
<rscale>  0 0.10033327E+04</rscale>
<asrwt>0</asrwt>
<pdfrwt beam="1">  1        1 0.31848166E+00 0.10617422E+04</pdfrwt>
<pdfrwt beam="2">  1       -1 0.12454283E+00 0.10617422E+04</pdfrwt>
<totfact> 0.15123837E+00</totfact>
</mgrwt>
</event>
<event>
 4    1  0.1065596E-007  0.9338117E+03  0.7818608E-02  0.9473798E-01
          1   -1    0    0  501    0  0.00000000000E+00  0.00000000000E+00  0.34549337656E+03  0.34549337660E+03  0.50400000000E-02 0. -1.
         -1   -1    0    0    0  501 -0.00000000000E+00 -0.00000000000E+00 -0.20875669439E+04  0.20875669439E+04  0.50400000000E-02 0.  1.
    8880023    1    1    2    0    0  0.41099038901E+03 -0.51892294258E+03 -0.61855992890E+03  0.11200985278E+04  0.65864270000E+03 0. -1.
    8880022    1    1    2    0    0 -0.41099038901E+03  0.51892294258E+03 -0.11235136384E+04  0.13129617926E+04  0.15294330000E+03 0.  0.
<mgrwt>
<rscale>  0 0.86243434E+03</rscale>
<asrwt>0</asrwt>
<pdfrwt beam="1">  1        1 0.53152829E-01 0.93381172E+03</pdfrwt>
<pdfrwt beam="2">  1       -1 0.32116414E+00 0.93381172E+03</pdfrwt>
<totfact> 0.17979172E+00</totfact>
</mgrwt>
</event>
<event>
 4    1  0.1065596E-007  0.1552277E+04  0.7818608E-02  0.8873577E-01
          1   -1    0    0  501    0  0.00000000000E+00  0.00000000000E+00  0.12183180929E+04  0.12183180929E+04  0.50400000000E-02 0. -1.
         -1   -1    0    0    0  501 -0.00000000000E+00 -0.00000000000E+00 -0.18952727276E+04  0.18952727276E+04  0.50400000000E-02 0.  1.
    8880023    1    1    2    0    0 -0.73824959799E+03 -0.11961356949E+04 -0.14886783599E+02  0.15523481865E+04  0.65864270000E+03 0.  0.
    8880022    1    1    2    0    0  0.73824959799E+03  0.11961356949E+04 -0.66206785110E+03  0.15612426339E+04  0.15294330000E+03 0.  0.
<mgrwt>
<rscale>  0 0.15164650E+04</rscale>
<asrwt>0</asrwt>
<pdfrwt beam="1">  1        1 0.18743355E+00 0.15522768E+04</pdfrwt>
<pdfrwt beam="2">  1       -1 0.29158042E+00 0.15522768E+04</pdfrwt>
<totfact> 0.36593609E-01</totfact>
</mgrwt>
</event>
<event>
 4    1  0.1065596E-007  0.9642443E+03  0.7818608E-02  0.9429909E-01
          1   -1    0    0  501    0  0.00000000000E+00  0.00000000000E+00  0.21687078693E+04  0.21687078693E+04  0.50400000000E-02 0. -1.
         -1   -1    0    0    0  501 -0.00000000000E+00 -0.00000000000E+00 -0.46395828273E+03  0.46395828276E+03  0.50400000000E-02 0.  1.
    8880023    1    1    2    0    0 -0.60738324441E+03 -0.35643020625E+03  0.16485257371E+04  0.19098178472E+04  0.65864270000E+03 0.  0.
    8880022    1    1    2    0    0  0.60738324441E+03  0.35643020625E+03  0.56223849477E+02  0.72284830482E+03  0.15294330000E+03 0.  0.
<mgrwt>
<rscale>  0 0.89654622E+03</rscale>
<asrwt>0</asrwt>
<pdfrwt beam="1">  1        1 0.33364737E+00 0.96424432E+03</pdfrwt>
<pdfrwt beam="2">  1       -1 0.71378196E-01 0.96424432E+03</pdfrwt>
<totfact> 0.46194725E+00</totfact>
</mgrwt>
</event>
<event>
 4    1  0.1065596E-007  0.1102232E+04  0.7818608E-02  0.9258575E-01
         -1   -1    0    0    0  501 -0.00000000000E+00  0.00000000000E+00  0.82587872724E+03  0.82587872726E+03  0.50400000000E-02 0.  1.
          1   -1    0    0  501    0  0.00000000000E+00 -0.00000000000E+00 -0.19783545417E+04  0.19783545417E+04  0.50400000000E-02 0. -1.
    8880023    1    1    2    0    0  0.24823481322E+03 -0.84822499166E+03 -0.14835021733E+04  0.18481599128E+04  0.65864270000E+03 0.  0.
    8880022    1    1    2    0    0 -0.24823481322E+03  0.84822499166E+03  0.33102635886E+03  0.95607335610E+03  0.15294330000E+03 0.  0.
<mgrwt>
<rscale>  0 0.10468766E+04</rscale>
<asrwt>0</asrwt>
<pdfrwt beam="1">  1        1 0.30436224E+00 0.11022324E+04</pdfrwt>
<pdfrwt beam="2">  1       -1 0.12705827E+00 0.11022324E+04</pdfrwt>
<totfact> 0.16499559E+00</totfact>
</mgrwt>
</event>
<event>
 4    1  0.1065596E-007  0.1004173E+04  0.7818608E-02  0.9376119E-01
         -1   -1    0    0    0  501 -0.00000000000E+00  0.00000000000E+00  0.13609997637E+04  0.13609997637E+04  0.50400000000E-02 0.  1.
          1   -1    0    0  501    0  0.00000000000E+00 -0.00000000000E+00 -0.14121990897E+04  0.14121990897E+04  0.50400000000E-02 0. -1.
    8880023    1    1    2    0    0  0.38018658248E+03  0.65575210806E+03 -0.10874896726E+04  0.14802015603E+04  0.65864270000E+03 0.  0.
    8880022    1    1    2    0    0 -0.38018658248E+03 -0.65575210806E+03  0.10362903466E+04  0.12929972932E+04  0.15294330000E+03 0.  0.
<mgrwt>
<rscale>  0 0.94067350E+03</rscale>
<asrwt>0</asrwt>
<pdfrwt beam="1">  1        1 0.21726140E+00 0.10041727E+04</pdfrwt>
<pdfrwt beam="2">  1       -1 0.20938458E+00 0.10041727E+04</pdfrwt>
<totfact> 0.98405866E-01</totfact>
</mgrwt>
</event>
<event>
 4    1  0.1065596E-007  0.9803535E+03  0.7818608E-02  0.9407725E-01
         -1   -1    0    0    0  501 -0.00000000000E+00  0.00000000000E+00  0.72099536261E+03  0.72099536263E+03  0.50400000000E-02 0.  1.
          1   -1    0    0  501    0  0.00000000000E+00 -0.00000000000E+00 -0.23330791994E+04  0.23330791994E+04  0.50400000000E-02 0. -1.
    8880023    1    1    2    0    0  0.34684243537E+03 -0.63795232189E+03 -0.19921707240E+04  0.22203236791E+04  0.65864270000E+03 0. -1.
    8880022    1    1    2    0    0 -0.34684243537E+03  0.63795232189E+03  0.38008688722E+03  0.83375088296E+03  0.15294330000E+03 0.  0.
<mgrwt>
<rscale>  0 0.91442672E+03</rscale>
<asrwt>0</asrwt>
<pdfrwt beam="1">  1        1 0.35893526E+00 0.98035353E+03</pdfrwt>
<pdfrwt beam="2">  1       -1 0.11092236E+00 0.98035353E+03</pdfrwt>
<totfact> 0.13467173E+00</totfact>
</mgrwt>
</event>
<event>
 4    1  0.1065596E-007  0.1561420E+04  0.7818608E-02  0.8867440E-01
         -1   -1    0    0    0  501 -0.00000000000E+00  0.00000000000E+00  0.18108871047E+04  0.18108871047E+04  0.50400000000E-02 0.  1.
          1   -1    0    0  501    0  0.00000000000E+00 -0.00000000000E+00 -0.14270049059E+04  0.14270049060E+04  0.50400000000E-02 0. -1.
    8880023    1    1    2    0    0  0.13239311146E+04 -0.50142661242E+03 -0.40082295358E+03  0.16120457470E+04  0.65864270000E+03 0. -1.
    8880022    1    1    2    0    0 -0.13239311146E+04  0.50142661242E+03  0.78470515229E+03  0.16258462636E+04  0.15294330000E+03 0.  0.
<mgrwt>
<rscale>  0 0.15258539E+04</rscale>
<asrwt>0</asrwt>
<pdfrwt beam="1">  1        1 0.21953922E+00 0.15614200E+04</pdfrwt>
<pdfrwt beam="2">  1       -1 0.27859801E+00 0.15614200E+04</pdfrwt>
<totfact> 0.31413749E-01</totfact>
</mgrwt>
</event>
<event>
 4    1  0.1065596E-007  0.1116334E+04  0.7818608E-02  0.9243084E-01
         -1   -1    0    0    0  501 -0.00000000000E+00  0.00000000000E+00  0.82801008692E+03  0.82801008693E+03  0.50400000000E-02 0.  1.
          1   -1    0    0  501    0  0.00000000000E+00 -0.00000000000E+00 -0.15767120175E+04  0.15767120175E+04  0.50400000000E-02 0. -1.
    8880023    1    1    2    0    0 -0.69460811183E+03 -0.57437935928E+03 -0.95319558575E+03  0.14679182908E+04  0.65864270000E+03 0. -1.
    8880022    1    1    2    0    0  0.69460811183E+03  0.57437935928E+03  0.20449365514E+03  0.93680381371E+03  0.15294330000E+03 0.  0.
<mgrwt>
<rscale>  0 0.10619582E+04</rscale>
<asrwt>0</asrwt>
<pdfrwt beam="1">  1        1 0.24257108E+00 0.11163343E+04</pdfrwt>
<pdfrwt beam="2">  1       -1 0.12738617E+00 0.11163343E+04</pdfrwt>
<totfact> 0.30648890E+00</totfact>
</mgrwt>
</event>
<event>
 4    1  0.1065596E-007  0.9865215E+03  0.7818608E-02  0.9399408E-01
          1   -1    0    0  501    0  0.00000000000E+00  0.00000000000E+00  0.10992892118E+04  0.10992892118E+04  0.50400000000E-02 0. -1.
         -1   -1    0    0    0  501 -0.00000000000E+00 -0.00000000000E+00 -0.16206661122E+04  0.16206661122E+04  0.50400000000E-02 0.  1.
    8880023    1    1    2    0    0  0.91280751995E+02  0.72875389161E+03  0.75306548516E+03  0.12411012213E+04  0.65864270000E+03 0.  0.
    8880022    1    1    2    0    0 -0.91280751995E+02 -0.72875389161E+03 -0.12744423856E+04  0.14788541028E+04  0.15294330000E+03 0.  0.
<mgrwt>
<rscale>  0 0.92124417E+03</rscale>
<asrwt>0</asrwt>
<pdfrwt beam="1">  1        1 0.16912142E+00 0.98652147E+03</pdfrwt>
<pdfrwt beam="2">  1       -1 0.24933325E+00 0.98652147E+03</pdfrwt>
<totfact> 0.90342784E-01</totfact>
</mgrwt>
</event>
<event>
 4    1  0.1065596E-007  0.1711525E+04  0.7818608E-02  0.8773124E-01
          1   -1    0    0  501    0  0.00000000000E+00  0.00000000000E+00  0.23254279361E+04  0.23254279361E+04  0.50400000000E-02 0. -1.
         -1   -1    0    0    0  501 -0.00000000000E+00 -0.00000000000E+00 -0.24429104490E+04  0.24429104490E+04  0.50400000000E-02 0.  1.
    8880023    1    1    2    0    0 -0.25186479320E+03 -0.15595105018E+04  0.16607653135E+04  0.23848397246E+04  0.65864270000E+03 0.  0.
    8880022    1    1    2    0    0  0.25186479320E+03  0.15595105018E+04 -0.17782478264E+04  0.23834986605E+04  0.15294330000E+03 0.  0.
<mgrwt>
<rscale>  0 0.16795343E+04</rscale>
<asrwt>0</asrwt>
<pdfrwt beam="1">  1        1 0.35775814E+00 0.17115254E+04</pdfrwt>
<pdfrwt beam="2">  1       -1 0.37583238E+00 0.17115254E+04</pdfrwt>
<totfact> 0.17110002E-02</totfact>
</mgrwt>
</event>
<event>
 4    1  0.1065596E-007  0.1303805E+04  0.7818608E-02  0.9062281E-01
          1   -1    0    0  501    0  0.00000000000E+00  0.00000000000E+00  0.15698439464E+04  0.15698439465E+04  0.50400000000E-02 0. -1.
         -1   -1    0    0    0  501 -0.00000000000E+00 -0.00000000000E+00 -0.10714190695E+04  0.10714190695E+04  0.50400000000E-02 0.  1.
    8880023    1    1    2    0    0  0.10121081662E+04 -0.49166418167E+03 -0.18354496458E+03  0.13166607642E+04  0.65864270000E+03 0.  0.
    8880022    1    1    2    0    0 -0.10121081662E+04  0.49166418167E+03  0.68196984153E+03  0.13246022518E+04  0.15294330000E+03 0.  0.
<mgrwt>
<rscale>  0 0.12595389E+04</rscale>
<asrwt>0</asrwt>
<pdfrwt beam="1">  1        1 0.24151445E+00 0.13038047E+04</pdfrwt>
<pdfrwt beam="2">  1       -1 0.16483370E+00 0.13038047E+04</pdfrwt>
<totfact> 0.15244296E+00</totfact>
</mgrwt>
</event>
<event>
 4    1  0.1212669E-007  0.8597498E+03  0.7818608E-02  0.9594009E-01
         -1   -1    0    0    0  501 -0.00000000000E+00  0.00000000000E+00  0.11889928172E+04  0.11889928172E+04  0.50400000000E-02 0.  1.
          1   -1    0    0  501    0  0.00000000000E+00 -0.00000000000E+00 -0.23772839131E+04  0.23772839131E+04  0.50400000000E-02 0. -1.
    8880023    1    1    2    0    0  0.53715814542E+03  0.12969472969E+03 -0.22229235462E+04  0.23833923082E+04  0.65864270000E+03 0. -1.
    8880022    1    1    2    0    0 -0.53715814542E+03 -0.12969472969E+03  0.10346324502E+04  0.11828844221E+04  0.15294330000E+03 0.  0.
<mgrwt>
<rscale>  0 0.77694005E+03</rscale>
<asrwt>0</asrwt>
<pdfrwt beam="1">  1        1 0.36573599E+00 0.85974985E+03</pdfrwt>
<pdfrwt beam="2">  1       -1 0.18292197E+00 0.85974985E+03</pdfrwt>
<totfact> 0.34154317E-01</totfact>
</mgrwt>
</event>
<event>
 4    1  0.1065596E-007  0.7409967E+03  0.7818608E-02  0.9857053E-01
         -1   -1    0    0    0  501 -0.00000000000E+00  0.00000000000E+00  0.71207784031E+03  0.71207784033E+03  0.50400000000E-02 0.  1.
          1   -1    0    0  501    0  0.00000000000E+00 -0.00000000000E+00 -0.12351574077E+04  0.12351574077E+04  0.50400000000E-02 0. -1.
    8880023    1    1    2    0    0 -0.33943496597E+03  0.70555613538E+01 -0.10603095890E+04  0.12935735417E+04  0.65864270000E+03 0.  0.
    8880022    1    1    2    0    0  0.33943496597E+03 -0.70555613538E+01  0.53723002166E+03  0.65366170627E+03  0.15294330000E+03 0.  0.
<mgrwt>
<rscale>  0 0.62388584E+03</rscale>
<asrwt>0</asrwt>
<pdfrwt beam="1">  1        1 0.19002422E+00 0.74099668E+03</pdfrwt>
<pdfrwt beam="2">  1       -1 0.10955044E+00 0.74099668E+03</pdfrwt>
<totfact> 0.80539238E+00</totfact>
</mgrwt>
</event>
<event>
 4    1  0.1065596E-007  0.8664343E+03  0.7818608E-02  0.9582219E-01
          1   -1    0    0  501    0  0.00000000000E+00  0.00000000000E+00  0.11447124818E+04  0.11447124818E+04  0.50400000000E-02 0. -1.
         -1   -1    0    0    0  501 -0.00000000000E+00 -0.00000000000E+00 -0.90919580927E+03  0.90919580928E+03  0.50400000000E-02 0.  1.
    8880023    1    1    2    0    0  0.55907952706E+03  0.65789923521E+02  0.84499153995E+03  0.12102558161E+04  0.65864270000E+03 0.  0.
    8880022    1    1    2    0    0 -0.55907952706E+03 -0.65789923521E+02 -0.60947486738E+03  0.84365247501E+03  0.15294330000E+03 0.  0.
<mgrwt>
<rscale>  0 0.78484314E+03</rscale>
<asrwt>0</asrwt>
<pdfrwt beam="1">  1        1 0.17610961E+00 0.86643432E+03</pdfrwt>
<pdfrwt beam="2">  1       -1 0.13987628E+00 0.86643432E+03</pdfrwt>
<totfact> 0.50301468E+00</totfact>
</mgrwt>
</event>
<event>
 4    1  0.1065596E-007  0.7909599E+03  0.7818608E-02  0.9730695E-01
         -1   -1    0    0    0  501 -0.00000000000E+00  0.00000000000E+00  0.56530518992E+03  0.56530518994E+03  0.50400000000E-02 0.  1.
          1   -1    0    0  501    0  0.00000000000E+00 -0.00000000000E+00 -0.26200915625E+04  0.26200915626E+04  0.50400000000E-02 0. -1.
    8880023    1    1    2    0    0 -0.10162111808E+03 -0.42600525234E+03 -0.24509144353E+04  0.25753832922E+04  0.65864270000E+03 0. -1.
    8880022    1    1    2    0    0  0.10162111808E+03  0.42600525234E+03  0.39612806264E+03  0.61001346025E+03  0.15294330000E+03 0.  0.
<mgrwt>
<rscale>  0 0.69218290E+03</rscale>
<asrwt>0</asrwt>
<pdfrwt beam="1">  1        1 0.40309100E+00 0.79095988E+03</pdfrwt>
<pdfrwt beam="2">  1       -1 0.86970031E-01 0.79095988E+03</pdfrwt>
<totfact> 0.15406543E+00</totfact>
</mgrwt>
</event>
<event>
 4    1  0.1065596E-007  0.1360723E+04  0.7818608E-02  0.9014819E-01
         -1   -1    0    0    0  501 -0.00000000000E+00  0.00000000000E+00  0.14054782937E+04  0.14054782937E+04  0.50400000000E-02 0.  1.
          1   -1    0    0  501    0  0.00000000000E+00 -0.00000000000E+00 -0.19846584042E+04  0.19846584042E+04  0.50400000000E-02 0. -1.
    8880023    1    1    2    0    0  0.10463318075E+04  0.56828434183E+03  0.78662880231E+03  0.15717354814E+04  0.65864270000E+03 0.  0.
    8880022    1    1    2    0    0 -0.10463318075E+04 -0.56828434183E+03 -0.13658089128E+04  0.18184012164E+04  0.15294330000E+03 0.  0.
<mgrwt>
<rscale>  0 0.13187605E+04</rscale>
<asrwt>0</asrwt>
<pdfrwt beam="1">  1        1 0.30533206E+00 0.13607232E+04</pdfrwt>
<pdfrwt beam="2">  1       -1 0.21622743E+00 0.13607232E+04</pdfrwt>
<totfact> 0.34207661E-01</totfact>
</mgrwt>
</event>
<event>
 4    1  0.1065596E-007  0.9957059E+03  0.7818608E-02  0.9387197E-01
          1   -1    0    0  501    0  0.00000000000E+00  0.00000000000E+00  0.15643424774E+04  0.15643424774E+04  0.50400000000E-02 0. -1.
         -1   -1    0    0    0  501 -0.00000000000E+00 -0.00000000000E+00 -0.61015787129E+03  0.61015787131E+03  0.50400000000E-02 0.  1.
    8880023    1    1    2    0    0  0.60998807594E+03  0.43073723743E+03  0.57142295681E+02  0.99734420774E+03  0.65864270000E+03 0.  0.
    8880022    1    1    2    0    0 -0.60998807594E+03 -0.43073723743E+03  0.89704231039E+03  0.11771561409E+04  0.15294330000E+03 0.  0.
<mgrwt>
<rscale>  0 0.93136822E+03</rscale>
<asrwt>0</asrwt>
<pdfrwt beam="1">  1        1 0.24066807E+00 0.99570589E+03</pdfrwt>
<pdfrwt beam="2">  1       -1 0.93870442E-01 0.99570589E+03</pdfrwt>
<totfact> 0.65385819E+00</totfact>
</mgrwt>
</event>
<event>
 4    1  0.1065596E-007  0.8190450E+03  0.7818608E-02  0.9671036E-01
         -1   -1    0    0    0  501 -0.00000000000E+00  0.00000000000E+00  0.39561304022E+04  0.39561304022E+04  0.50400000000E-02 0.  1.
          1   -1    0    0  501    0  0.00000000000E+00 -0.00000000000E+00 -0.42970275835E+03  0.42970275838E+03  0.50400000000E-02 0. -1.
    8880023    1    1    2    0    0  0.10784566468E+03 -0.47475651899E+03 -0.36578665063E+01  0.81905312768E+03  0.65864270000E+03 0. -1.
    8880022    1    1    2    0    0 -0.10784566468E+03  0.47475651899E+03  0.35300855104E+04  0.35667800329E+04  0.15294330000E+03 0.  0.
<mgrwt>
<rscale>  0 0.72767807E+03</rscale>
<asrwt>0</asrwt>
<pdfrwt beam="1">  1        1 0.66108118E-01 0.81904496E+03</pdfrwt>
<pdfrwt beam="2">  1       -1 0.60863544E+00 0.81904496E+03</pdfrwt>
<totfact> 0.22575838E-02</totfact>
</mgrwt>
</event>
<event>
 4    1  0.1065596E-007  0.6880302E+03  0.7818608E-02  0.1005103E+00
         -1   -1    0    0    0  501 -0.00000000000E+00  0.00000000000E+00  0.27668603175E+03  0.27668603180E+03  0.50400000000E-02 0.  1.
          1   -1    0    0  501    0  0.00000000000E+00 -0.00000000000E+00 -0.22778115581E+04  0.22778115581E+04  0.50400000000E-02 0. -1.
    8880023    1    1    2    0    0  0.18864543064E+03  0.63152994760E+02 -0.21536251300E+04  0.22608597493E+04  0.65864270000E+03 0. -1.
    8880022    1    1    2    0    0 -0.18864543064E+03 -0.63152994760E+02  0.15249960370E+03  0.29363784054E+03  0.15294330000E+03 0.  0.
<mgrwt>
<rscale>  0 0.53468108E+03</rscale>
<asrwt>0</asrwt>
<pdfrwt beam="1">  1        1 0.35043254E+00 0.68803024E+03</pdfrwt>
<pdfrwt beam="2">  1       -1 0.42567083E-01 0.68803024E+03</pdfrwt>
<totfact> 0.11099244E+01</totfact>
</mgrwt>
</event>
<event>
 4    1  0.1065596E-007  0.1117744E+04  0.7818608E-02  0.9241553E-01
         -1   -1    0    0    0  501 -0.00000000000E+00  0.00000000000E+00  0.49376415465E+03  0.49376415468E+03  0.50400000000E-02 0.  1.
          1   -1    0    0  501    0  0.00000000000E+00 -0.00000000000E+00 -0.31577473134E+04  0.31577473134E+04  0.50400000000E-02 0. -1.
    8880023    1    1    2    0    0  0.22151144313E+03 -0.87548459766E+03 -0.24758386262E+04  0.27164549894E+04  0.65864270000E+03 0. -1.
    8880022    1    1    2    0    0 -0.22151144313E+03  0.87548459766E+03 -0.18814453254E+03  0.93505647867E+03  0.15294330000E+03 0.  0.
<mgrwt>
<rscale>  0 0.10634633E+04</rscale>
<asrwt>0</asrwt>
<pdfrwt beam="1">  1        1 0.48580727E+00 0.11177436E+04</pdfrwt>
<pdfrwt beam="2">  1       -1 0.75963718E-01 0.11177436E+04</pdfrwt>
<totfact> 0.80579032E-01</totfact>
</mgrwt>
</event>
<event>
 4    1  0.1065596E-007  0.7122099E+03  0.7818608E-02  0.9949884E-01
          1   -1    0    0  501    0  0.00000000000E+00  0.00000000000E+00  0.15157311044E+04  0.15157311044E+04  0.50400000000E-02 0. -1.
         -1   -1    0    0    0  501 -0.00000000000E+00 -0.00000000000E+00 -0.24849386060E+03  0.24849386065E+03  0.50400000000E-02 0.  1.
    8880023    1    1    2    0    0 -0.15085292694E+03 -0.22511358720E+03  0.12665443851E+04  0.14530580231E+04  0.65864270000E+03 0. -1.
    8880022    1    1    2    0    0  0.15085292694E+03  0.22511358720E+03  0.69285868061E+00  0.31116694197E+03  0.15294330000E+03 0.  0.
<mgrwt>
<rscale>  0 0.57903404E+03</rscale>
<asrwt>0</asrwt>
<pdfrwt beam="1">  1        1 0.23318940E+00 0.71220990E+03</pdfrwt>
<pdfrwt beam="2">  1       -1 0.38229825E-01 0.71220990E+03</pdfrwt>
<totfact> 0.43628282E+01</totfact>
</mgrwt>
</event>
<event>
 4    1  0.1065596E-007  0.9115901E+03  0.7818608E-02  0.9507676E-01
          1   -1    0    0  501    0  0.00000000000E+00  0.00000000000E+00  0.12335263559E+04  0.12335263560E+04  0.50400000000E-02 0. -1.
         -1   -1    0    0    0  501 -0.00000000000E+00 -0.00000000000E+00 -0.94690314300E+03  0.94690314302E+03  0.50400000000E-02 0.  1.
    8880023    1    1    2    0    0  0.28872995478E+02 -0.62956539855E+03  0.90486606366E+03  0.12844372466E+04  0.65864270000E+03 0. -1.
    8880022    1    1    2    0    0 -0.28872995478E+02  0.62956539855E+03 -0.61824285071E+03  0.89599225242E+03  0.15294330000E+03 0.  0.
<mgrwt>
<rscale>  0 0.83720245E+03</rscale>
<asrwt>0</asrwt>
<pdfrwt beam="1">  1        1 0.18977329E+00 0.91159007E+03</pdfrwt>
<pdfrwt beam="2">  1       -1 0.14567741E+00 0.91159007E+03</pdfrwt>
<totfact> 0.38691473E+00</totfact>
</mgrwt>
</event>
<event>
 4    1  0.1065596E-007  0.7945812E+03  0.7818608E-02  0.9722637E-01
          1   -1    0    0  501    0  0.00000000000E+00  0.00000000000E+00  0.24177289915E+04  0.24177289915E+04  0.50400000000E-02 0. -1.
         -1   -1    0    0    0  501 -0.00000000000E+00 -0.00000000000E+00 -0.34409388123E+03  0.34409388126E+03  0.50400000000E-02 0.  1.
    8880023    1    1    2    0    0 -0.11626554293E+03  0.42898876400E+03  0.21440360669E+04  0.22865366602E+04  0.65864270000E+03 0. -1.
    8880022    1    1    2    0    0  0.11626554293E+03 -0.42898876400E+03 -0.70400956647E+02  0.47528621253E+03  0.15294330000E+03 0.  0.
<mgrwt>
<rscale>  0 0.69684817E+03</rscale>
<asrwt>0</asrwt>
<pdfrwt beam="1">  1        1 0.37195828E+00 0.79458117E+03</pdfrwt>
<pdfrwt beam="2">  1       -1 0.52937523E-01 0.79458117E+03</pdfrwt>
<totfact> 0.58248736E+00</totfact>
</mgrwt>
</event>
<event>
 4    1  0.1065596E-007  0.8023014E+03  0.7818608E-02  0.9705842E-01
         -1   -1    0    0    0  501 -0.00000000000E+00  0.00000000000E+00  0.87340015881E+03  0.87340015882E+03  0.50400000000E-02 0.  1.
          1   -1    0    0  501    0  0.00000000000E+00 -0.00000000000E+00 -0.12162196760E+04  0.12162196761E+04  0.50400000000E-02 0. -1.
    8880023    1    1    2    0    0  0.15552794216E+03 -0.43091572223E+03 -0.99494015422E+03  0.12781210495E+04  0.65864270000E+03 0.  0.
    8880022    1    1    2    0    0 -0.15552794216E+03  0.43091572223E+03  0.65212063698E+03  0.81149878537E+03  0.15294330000E+03 0.  0.
<mgrwt>
<rscale>  0 0.70670030E+03</rscale>
<asrwt>0</asrwt>
<pdfrwt beam="1">  1        1 0.18711072E+00 0.80230138E+03</pdfrwt>
<pdfrwt beam="2">  1       -1 0.13436926E+00 0.80230138E+03</pdfrwt>
<totfact> 0.49932538E+00</totfact>
</mgrwt>
</event>
<event>
 4    1  0.1065596E-007  0.7535227E+03  0.7818608E-02  0.9822175E-01
          1   -1    0    0  501    0  0.00000000000E+00  0.00000000000E+00  0.77146468468E+03  0.77146468469E+03  0.50400000000E-02 0. -1.
         -1   -1    0    0    0  501 -0.00000000000E+00 -0.00000000000E+00 -0.74294292289E+03  0.74294292290E+03  0.50400000000E-02 0.  1.
    8880023    1    1    2    0    0  0.32966954996E+03  0.15907295595E+03  0.49537034514E+03  0.90176948417E+03  0.65864270000E+03 0. -1.
    8880022    1    1    2    0    0 -0.32966954996E+03 -0.15907295595E+03 -0.46684858335E+03  0.61263812342E+03  0.15294330000E+03 0.  0.
<mgrwt>
<rscale>  0 0.64185984E+03</rscale>
<asrwt>0</asrwt>
<pdfrwt beam="1">  1        1 0.11868687E+00 0.75352268E+03</pdfrwt>
<pdfrwt beam="2">  1       -1 0.11429891E+00 0.75352268E+03</pdfrwt>
<totfact> 0.16773283E+01</totfact>
</mgrwt>
</event>
<event>
 4    1  0.1065596E-007  0.7458605E+03  0.7818608E-02  0.9843193E-01
         -1   -1    0    0    0  501 -0.00000000000E+00  0.00000000000E+00  0.42917813709E+03  0.42917813712E+03  0.50400000000E-02 0.  1.
          1   -1    0    0  501    0  0.00000000000E+00 -0.00000000000E+00 -0.17162645763E+04  0.17162645763E+04  0.50400000000E-02 0. -1.
    8880023    1    1    2    0    0 -0.32124773010E+03  0.13891585765E+03 -0.15234749136E+04  0.16962557998E+04  0.65864270000E+03 0. -1.
    8880022    1    1    2    0    0  0.32124773010E+03 -0.13891585765E+03  0.23638847436E+03  0.44918691369E+03  0.15294330000E+03 0.  0.
<mgrwt>
<rscale>  0 0.63095179E+03</rscale>
<asrwt>0</asrwt>
<pdfrwt beam="1">  1        1 0.26404070E+00 0.74586053E+03</pdfrwt>
<pdfrwt beam="2">  1       -1 0.66027406E-01 0.74586053E+03</pdfrwt>
<totfact> 0.11248713E+01</totfact>
</mgrwt>
</event>
<event>
 4    1  0.1065596E-007  0.1343771E+04  0.7818608E-02  0.9028653E-01
          1   -1    0    0  501    0  0.00000000000E+00  0.00000000000E+00  0.21861344707E+04  0.21861344707E+04  0.50400000000E-02 0. -1.
         -1   -1    0    0    0  501 -0.00000000000E+00 -0.00000000000E+00 -0.20056210094E+04  0.20056210094E+04  0.50400000000E-02 0.  1.
    8880023    1    1    2    0    0 -0.16920123614E+03 -0.11590006517E+04  0.17631838976E+04  0.22168760074E+04  0.65864270000E+03 0. -1.
    8880022    1    1    2    0    0  0.16920123614E+03  0.11590006517E+04 -0.15826704363E+04  0.19748794727E+04  0.15294330000E+03 0.  0.
<mgrwt>
<rscale>  0 0.13011508E+04</rscale>
<asrwt>0</asrwt>
<pdfrwt beam="1">  1        1 0.33632838E+00 0.13437715E+04</pdfrwt>
<pdfrwt beam="2">  1       -1 0.30855708E+00 0.13437715E+04</pdfrwt>
<totfact> 0.62425896E-02</totfact>
</mgrwt>
</event>
<event>
 4    1  0.1065596E-007  0.9208449E+03  0.7818608E-02  0.9493365E-01
          1   -1    0    0  501    0  0.00000000000E+00  0.00000000000E+00  0.11551650274E+04  0.11551650274E+04  0.50400000000E-02 0. -1.
         -1   -1    0    0    0  501 -0.00000000000E+00 -0.00000000000E+00 -0.57205611344E+03  0.57205611346E+03  0.50400000000E-02 0.  1.
    8880023    1    1    2    0    0 -0.50115972116E+03  0.40371284407E+03  0.53272835863E+03  0.10638396669E+04  0.65864270000E+03 0.  0.
    8880022    1    1    2    0    0  0.50115972116E+03 -0.40371284407E+03  0.50380555331E+02  0.66338147393E+03  0.15294330000E+03 0.  0.
<mgrwt>
<rscale>  0 0.84774783E+03</rscale>
<asrwt>0</asrwt>
<pdfrwt beam="1">  1        1 0.17771769E+00 0.92084490E+03</pdfrwt>
<pdfrwt beam="2">  1       -1 0.88008634E-01 0.92084490E+03</pdfrwt>
<totfact> 0.14799856E+01</totfact>
</mgrwt>
</event>
<event>
 4    1  0.1065596E-007  0.9254745E+03  0.7818608E-02  0.9486315E-01
         -1   -1    0    0    0  501 -0.00000000000E+00  0.00000000000E+00  0.33914041484E+03  0.33914041488E+03  0.50400000000E-02 0.  1.
          1   -1    0    0  501    0  0.00000000000E+00 -0.00000000000E+00 -0.29385798171E+04  0.29385798171E+04  0.50400000000E-02 0. -1.
    8880023    1    1    2    0    0 -0.49153892296E+03  0.42553777410E+03 -0.24128508108E+04  0.25842507911E+04  0.65864270000E+03 0.  0.
    8880022    1    1    2    0    0  0.49153892296E+03 -0.42553777410E+03 -0.18658859152E+03  0.69346944091E+03  0.15294330000E+03 0.  0.
<mgrwt>
<rscale>  0 0.85300289E+03</rscale>
<asrwt>0</asrwt>
<pdfrwt beam="1">  1        1 0.45208919E+00 0.92547454E+03</pdfrwt>
<pdfrwt beam="2">  1       -1 0.52175450E-01 0.92547454E+03</pdfrwt>
<totfact> 0.25453493E+00</totfact>
</mgrwt>
</event>
<event>
 4    1  0.1065596E-007  0.7000990E+03  0.7818608E-02  0.9996791E-01
         -1   -1    0    0    0  501 -0.00000000000E+00  0.00000000000E+00  0.33356046218E+03  0.33356046222E+03  0.50400000000E-02 0.  1.
          1   -1    0    0  501    0  0.00000000000E+00 -0.00000000000E+00 -0.11369554664E+04  0.11369554664E+04  0.50400000000E-02 0. -1.
    8880023    1    1    2    0    0  0.23145055037E+03 -0.52526936314E+02 -0.92752684526E+03  0.11620863528E+04  0.65864270000E+03 0. -1.
    8880022    1    1    2    0    0 -0.23145055037E+03  0.52526936314E+02  0.12413184104E+03  0.30842957588E+03  0.15294330000E+03 0.  0.
<mgrwt>
<rscale>  0 0.55791184E+03</rscale>
<asrwt>0</asrwt>
<pdfrwt beam="1">  1        1 0.17491622E+00 0.70009902E+03</pdfrwt>
<pdfrwt beam="2">  1       -1 0.51316995E-01 0.70009902E+03</pdfrwt>
<totfact> 0.46838645E+01</totfact>
</mgrwt>
</event>
<event>
 4    1  0.1065596E-007  0.9942959E+03  0.7818608E-02  0.9389059E-01
         -1   -1    0    0    0  501 -0.00000000000E+00  0.00000000000E+00  0.90035080205E+03  0.90035080206E+03  0.50400000000E-02 0.  1.
          1   -1    0    0  501    0  0.00000000000E+00 -0.00000000000E+00 -0.14641228381E+04  0.14641228381E+04  0.50400000000E-02 0. -1.
    8880023    1    1    2    0    0 -0.69590698963E+03 -0.26557020426E+03 -0.10624531477E+04  0.14551395016E+04  0.65864270000E+03 0.  0.
    8880022    1    1    2    0    0  0.69590698963E+03  0.26557020426E+03  0.49868111164E+03  0.90933413866E+03  0.15294330000E+03 0.  0.
<mgrwt>
<rscale>  0 0.92981602E+03</rscale>
<asrwt>0</asrwt>
<pdfrwt beam="1">  1        1 0.22524967E+00 0.99429587E+03</pdfrwt>
<pdfrwt beam="2">  1       -1 0.13851551E+00 0.99429587E+03</pdfrwt>
<totfact> 0.30037479E+00</totfact>
</mgrwt>
</event>
<event>
 4    1  0.1065596E-007  0.8278121E+03  0.7818608E-02  0.9653604E-01
         -1   -1    0    0    0  501 -0.00000000000E+00  0.00000000000E+00  0.90911889102E+03  0.90911889104E+03  0.50400000000E-02 0.  1.
          1   -1    0    0  501    0  0.00000000000E+00 -0.00000000000E+00 -0.60749902720E+03  0.60749902722E+03  0.50400000000E-02 0. -1.
    8880023    1    1    2    0    0  0.28703890268E+03  0.41118284719E+03 -0.12946858374E+03  0.83787528065E+03  0.65864270000E+03 0. -1.
    8880022    1    1    2    0    0 -0.28703890268E+03 -0.41118284719E+03  0.43108844757E+03  0.67874263762E+03  0.15294330000E+03 0.  0.
<mgrwt>
<rscale>  0 0.73847645E+03</rscale>
<asrwt>0</asrwt>
<pdfrwt beam="1">  1        1 0.93461389E-01 0.82781210E+03</pdfrwt>
<pdfrwt beam="2">  1       -1 0.13986445E+00 0.82781210E+03</pdfrwt>
<totfact> 0.14407407E+01</totfact>
</mgrwt>
</event>
<event>
 4    1  0.1065596E-007  0.6998583E+03  0.7818608E-02  0.9997789E-01
          1   -1    0    0  501    0  0.00000000000E+00  0.00000000000E+00  0.12520561518E+04  0.12520561518E+04  0.50400000000E-02 0. -1.
         -1   -1    0    0    0  501 -0.00000000000E+00 -0.00000000000E+00 -0.44325757022E+03  0.44325757024E+03  0.50400000000E-02 0.  1.
    8880023    1    1    2    0    0 -0.22056603701E+03 -0.85686147987E+02  0.10912320527E+04  0.12963753669E+04  0.65864270000E+03 0. -1.
    8880022    1    1    2    0    0  0.22056603701E+03  0.85686147987E+02 -0.28243347112E+03  0.39893835522E+03  0.15294330000E+03 0.  0.
<mgrwt>
<rscale>  0 0.55747275E+03</rscale>
<asrwt>0</asrwt>
<pdfrwt beam="1">  1        1 0.19262402E+00 0.69985834E+03</pdfrwt>
<pdfrwt beam="2">  1       -1 0.68193474E-01 0.69985834E+03</pdfrwt>
<totfact> 0.22125669E+01</totfact>
</mgrwt>
</event>
<event>
 4    1  0.1065596E-007  0.1091042E+04  0.7818608E-02  0.9271096E-01
         -1   -1    0    0    0  501 -0.00000000000E+00  0.00000000000E+00  0.12273637731E+04  0.12273637731E+04  0.50400000000E-02 0.  1.
          1   -1    0    0  501    0  0.00000000000E+00 -0.00000000000E+00 -0.10567348536E+04  0.10567348536E+04  0.50400000000E-02 0. -1.
    8880023    1    1    2    0    0  0.23939894438E+03 -0.83621158220E+03 -0.47516471226E+03  0.11900224262E+04  0.65864270000E+03 0.  0.
    8880022    1    1    2    0    0 -0.23939894438E+03  0.83621158220E+03  0.64579363169E+03  0.10940762005E+04  0.15294330000E+03 0.  0.
<mgrwt>
<rscale>  0 0.10348790E+04</rscale>
<asrwt>0</asrwt>
<pdfrwt beam="1">  1        1 0.16257459E+00 0.10910416E+04</pdfrwt>
<pdfrwt beam="2">  1       -1 0.18882520E+00 0.10910416E+04</pdfrwt>
<totfact> 0.24450712E+00</totfact>
</mgrwt>
</event>
<event>
 4    1  0.1065596E-007  0.1043573E+04  0.7818608E-02  0.9326647E-01
          1   -1    0    0  501    0  0.00000000000E+00  0.00000000000E+00  0.26894592832E+04  0.26894592832E+04  0.50400000000E-02 0. -1.
         -1   -1    0    0    0  501 -0.00000000000E+00 -0.00000000000E+00 -0.64354592405E+03  0.64354592407E+03  0.50400000000E-02 0.  1.
    8880023    1    1    2    0    0  0.23567827998E+03 -0.77439679763E+03  0.22535509417E+04  0.24834525776E+04  0.65864270000E+03 0. -1.
    8880022    1    1    2    0    0 -0.23567827998E+03  0.77439679763E+03 -0.20763758261E+03  0.84955262966E+03  0.15294330000E+03 0.  0.
<mgrwt>
<rscale>  0 0.98366224E+03</rscale>
<asrwt>0</asrwt>
<pdfrwt beam="1">  1        1 0.41376297E+00 0.10435731E+04</pdfrwt>
<pdfrwt beam="2">  1       -1 0.99007064E-01 0.10435731E+04</pdfrwt>
<totfact> 0.98790952E-01</totfact>
</mgrwt>
</event>
<event>
 4    1  0.1065596E-007  0.8826975E+03  0.7818608E-02  0.9554399E-01
          1   -1    0    0  501    0  0.00000000000E+00  0.00000000000E+00  0.44190804292E+03  0.44190804295E+03  0.50400000000E-02 0. -1.
         -1   -1    0    0    0  501 -0.00000000000E+00 -0.00000000000E+00 -0.17602251856E+04  0.17602251856E+04  0.50400000000E-02 0.  1.
    8880023    1    1    2    0    0 -0.12595565623E+03  0.57400328250E+03 -0.16394968165E+03  0.89779413010E+03  0.65864270000E+03 0. -1.
    8880022    1    1    2    0    0  0.12595565623E+03 -0.57400328250E+03 -0.11543674610E+04  0.13043390984E+04  0.15294330000E+03 0.  0.
<mgrwt>
<rscale>  0 0.80389326E+03</rscale>
<asrwt>0</asrwt>
<pdfrwt beam="1">  1        1 0.67985853E-01 0.88269746E+03</pdfrwt>
<pdfrwt beam="2">  1       -1 0.27080387E+00 0.88269746E+03</pdfrwt>
<totfact> 0.27482725E+00</totfact>
</mgrwt>
</event>
<event>
 4    1  0.1065596E-007  0.9105751E+03  0.7818608E-02  0.9509264E-01
         -1   -1    0    0    0  501 -0.00000000000E+00  0.00000000000E+00  0.47983836646E+03  0.47983836648E+03  0.50400000000E-02 0.  1.
          1   -1    0    0  501    0  0.00000000000E+00 -0.00000000000E+00 -0.18852405361E+04  0.18852405361E+04  0.50400000000E-02 0. -1.
    8880023    1    1    2    0    0 -0.69575227692E+02  0.62489682793E+03 -0.14546178609E+04  0.17161177365E+04  0.65864270000E+03 0. -1.
    8880022    1    1    2    0    0  0.69575227692E+02 -0.62489682793E+03  0.49215691269E+02  0.64896116613E+03  0.15294330000E+03 0.  0.
<mgrwt>
<rscale>  0 0.83604253E+03</rscale>
<asrwt>0</asrwt>
<pdfrwt beam="1">  1        1 0.29003700E+00 0.91057507E+03</pdfrwt>
<pdfrwt beam="2">  1       -1 0.73821288E-01 0.91057507E+03</pdfrwt>
<totfact> 0.67312991E+00</totfact>
</mgrwt>
</event>
<event>
 4    1  0.1065596E-007  0.7288130E+03  0.7818608E-02  0.9893821E-01
          1   -1    0    0  501    0  0.00000000000E+00  0.00000000000E+00  0.15917486604E+04  0.15917486604E+04  0.50400000000E-02 0. -1.
         -1   -1    0    0    0  501 -0.00000000000E+00 -0.00000000000E+00 -0.69055070700E+03  0.69055070702E+03  0.50400000000E-02 0.  1.
    8880023    1    1    2    0    0  0.30132917486E+03  0.80987266734E+02  0.14556766643E+04  0.16279321136E+04  0.65864270000E+03 0.  0.
    8880022    1    1    2    0    0 -0.30132917486E+03 -0.80987266734E+02 -0.55447871095E+03  0.65436725385E+03  0.15294330000E+03 0.  0.
<mgrwt>
<rscale>  0 0.60561681E+03</rscale>
<asrwt>0</asrwt>
<pdfrwt beam="1">  1        1 0.24488441E+00 0.72881302E+03</pdfrwt>
<pdfrwt beam="2">  1       -1 0.10623857E+00 0.72881302E+03</pdfrwt>
<totfact> 0.49038217E+00</totfact>
</mgrwt>
</event>
<event>
 4    1  0.1065596E-007  0.9550535E+03  0.7818608E-02  0.9442880E-01
          1   -1    0    0  501    0  0.00000000000E+00  0.00000000000E+00  0.23969739360E+04  0.23969739360E+04  0.50400000000E-02 0. -1.
         -1   -1    0    0    0  501 -0.00000000000E+00 -0.00000000000E+00 -0.39106103861E+03  0.39106103864E+03  0.50400000000E-02 0.  1.
    8880023    1    1    2    0    0  0.61648186391E+03 -0.31347572402E+03  0.18205750832E+04  0.20558746941E+04  0.65864270000E+03 0.  0.
    8880022    1    1    2    0    0 -0.61648186391E+03  0.31347572402E+03  0.18533781427E+03  0.73216028060E+03  0.15294330000E+03 0.  0.
<mgrwt>
<rscale>  0 0.88629277E+03</rscale>
<asrwt>0</asrwt>
<pdfrwt beam="1">  1        1 0.36876522E+00 0.95505347E+03</pdfrwt>
<pdfrwt beam="2">  1       -1 0.60163237E-01 0.95505347E+03</pdfrwt>
<totfact> 0.45765722E+00</totfact>
</mgrwt>
</event>
<event>
 4    1  0.1065596E-007  0.7213491E+03  0.7818608E-02  0.9918047E-01
         -1   -1    0    0    0  501 -0.00000000000E+00  0.00000000000E+00  0.50033062842E+03  0.50033062845E+03  0.50400000000E-02 0.  1.
          1   -1    0    0  501    0  0.00000000000E+00 -0.00000000000E+00 -0.79299150632E+03  0.79299150634E+03  0.50400000000E-02 0. -1.
    8880023    1    1    2    0    0 -0.96856797616E+02  0.27776448456E+03 -0.52180276578E+03  0.89029359246E+03  0.65864270000E+03 0.  0.
    8880022    1    1    2    0    0  0.96856797616E+02 -0.27776448456E+03  0.22914188789E+03  0.40302854232E+03  0.15294330000E+03 0.  0.
<mgrwt>
<rscale>  0 0.59394562E+03</rscale>
<asrwt>0</asrwt>
<pdfrwt beam="1">  1        1 0.12199869E+00 0.72134912E+03</pdfrwt>
<pdfrwt beam="2">  1       -1 0.76973942E-01 0.72134912E+03</pdfrwt>
<totfact> 0.38990239E+01</totfact>
</mgrwt>
</event>
<event>
 4    1  0.1065596E-007  0.7144397E+03  0.7818608E-02  0.9941870E-01
         -1   -1    0    0    0  501 -0.00000000000E+00  0.00000000000E+00  0.26964482872E+03  0.26964482876E+03  0.50400000000E-02 0.  1.
          1   -1    0    0  501    0  0.00000000000E+00 -0.00000000000E+00 -0.15449958627E+04  0.15449958627E+04  0.50400000000E-02 0. -1.
    8880023    1    1    2    0    0 -0.21932883639E+03  0.16884529314E+03 -0.13143839123E+04  0.14960043940E+04  0.65864270000E+03 0. -1.
    8880022    1    1    2    0    0  0.21932883639E+03 -0.16884529314E+03  0.39032878343E+02  0.31863629752E+03  0.15294330000E+03 0.  0.
<mgrwt>
<rscale>  0 0.58274316E+03</rscale>
<asrwt>0</asrwt>
<pdfrwt beam="1">  1        1 0.23769167E+00 0.71443969E+03</pdfrwt>
<pdfrwt beam="2">  1       -1 0.41483821E-01 0.71443969E+03</pdfrwt>
<totfact> 0.35914619E+01</totfact>
</mgrwt>
</event>
<event>
 4    1  0.1065596E-007  0.7181271E+03  0.7818608E-02  0.9928975E-01
         -1   -1    0    0    0  501 -0.00000000000E+00  0.00000000000E+00  0.56138689065E+03  0.56138689068E+03  0.50400000000E-02 0.  1.
          1   -1    0    0  501    0  0.00000000000E+00 -0.00000000000E+00 -0.69995404267E+03  0.69995404269E+03  0.50400000000E-02 0. -1.
    8880023    1    1    2    0    0 -0.16361332568E+03  0.23479136330E+03 -0.41990150622E+03  0.83187967027E+03  0.65864270000E+03 0.  0.
    8880022    1    1    2    0    0  0.16361332568E+03 -0.23479136330E+03  0.28133435421E+03  0.42946126309E+03  0.15294330000E+03 0.  0.
<mgrwt>
<rscale>  0 0.58877359E+03</rscale>
<asrwt>0</asrwt>
<pdfrwt beam="1">  1        1 0.10768524E+00 0.71812709E+03</pdfrwt>
<pdfrwt beam="2">  1       -1 0.86367215E-01 0.71812709E+03</pdfrwt>
<totfact> 0.37007095E+01</totfact>
</mgrwt>
</event>
<event>
 4    1  0.1065596E-007  0.1104633E+04  0.7818608E-02  0.9255915E-01
         -1   -1    0    0    0  501 -0.00000000000E+00  0.00000000000E+00  0.71651223262E+03  0.71651223264E+03  0.50400000000E-02 0.  1.
          1   -1    0    0  501    0  0.00000000000E+00 -0.00000000000E+00 -0.20295759671E+04  0.20295759671E+04  0.50400000000E-02 0. -1.
    8880023    1    1    2    0    0 -0.88570330496E+03 -0.43977336597E+02 -0.14636300753E+04  0.18336923281E+04  0.65864270000E+03 0.  0.
    8880022    1    1    2    0    0  0.88570330496E+03  0.43977336597E+02  0.15056634084E+03  0.91239587163E+03  0.15294330000E+03 0.  0.
<mgrwt>
<rscale>  0 0.10494470E+04</rscale>
<asrwt>0</asrwt>
<pdfrwt beam="1">  1        1 0.31224245E+00 0.11046332E+04</pdfrwt>
<pdfrwt beam="2">  1       -1 0.11023265E+00 0.11046332E+04</pdfrwt>
<totfact> 0.21546010E+00</totfact>
</mgrwt>
</event>
<event>
 4    1  0.1875409E-007  0.1391989E+04  0.7818608E-02  0.8989933E-01
          1   -1    0    0  501    0  0.00000000000E+00  0.00000000000E+00  0.20182351070E+04  0.20182351070E+04  0.50400000000E-02 0. -1.
         -1   -1    0    0    0  501 -0.00000000000E+00 -0.00000000000E+00 -0.27440138008E+04  0.27440138009E+04  0.50400000000E-02 0.  1.
    8880023    1    1    2    0    0  0.40622122788E+03 -0.11570681057E+04  0.16047433480E+04  0.21243431235E+04  0.65864270000E+03 0.  0.
    8880022    1    1    2    0    0 -0.40622122788E+03  0.11570681057E+04 -0.23305220418E+04  0.26379057844E+04  0.15294330000E+03 0.  0.
<mgrwt>
<rscale>  0 0.13511833E+04</rscale>
<asrwt>0</asrwt>
<pdfrwt beam="1">  1        1 0.31049771E+00 0.13919887E+04</pdfrwt>
<pdfrwt beam="2">  1       -1 0.42215597E+00 0.13919887E+04</pdfrwt>
<totfact> 0.14011922E-02</totfact>
</mgrwt>
</event>
<event>
 4    1  0.1065596E-007  0.9582493E+03  0.7818608E-02  0.9438343E-01
          1   -1    0    0  501    0  0.00000000000E+00  0.00000000000E+00  0.17866894918E+04  0.17866894918E+04  0.50400000000E-02 0. -1.
         -1   -1    0    0    0  501 -0.00000000000E+00 -0.00000000000E+00 -0.57144962617E+03  0.57144962619E+03  0.50400000000E-02 0.  1.
    8880023    1    1    2    0    0 -0.63220822437E+03 -0.29110874822E+03  0.13269940401E+04  0.16368124300E+04  0.65864270000E+03 0. -1.
    8880022    1    1    2    0    0  0.63220822437E+03  0.29110874822E+03 -0.11175417451E+03  0.72132668798E+03  0.15294330000E+03 0.  0.
<mgrwt>
<rscale>  0 0.88986260E+03</rscale>
<asrwt>0</asrwt>
<pdfrwt beam="1">  1        1 0.27487530E+00 0.95824931E+03</pdfrwt>
<pdfrwt beam="2">  1       -1 0.87915328E-01 0.95824931E+03</pdfrwt>
<totfact> 0.53654203E+00</totfact>
</mgrwt>
</event>
<event>
 4    1  0.1065596E-007  0.1303975E+04  0.7818608E-02  0.9062135E-01
          1   -1    0    0  501    0  0.00000000000E+00  0.00000000000E+00  0.17408378497E+04  0.17408378497E+04  0.50400000000E-02 0. -1.
         -1   -1    0    0    0  501 -0.00000000000E+00 -0.00000000000E+00 -0.15019875130E+04  0.15019875130E+04  0.50400000000E-02 0.  1.
    8880023    1    1    2    0    0 -0.76392118311E+03 -0.82641692448E+03  0.11869993496E+04  0.17633258829E+04  0.65864270000E+03 0. -1.
    8880022    1    1    2    0    0  0.76392118311E+03  0.82641692448E+03 -0.94814901293E+03  0.14794994798E+04  0.15294330000E+03 0.  0.
<mgrwt>
<rscale>  0 0.12597164E+04</rscale>
<asrwt>0</asrwt>
<pdfrwt beam="1">  1        1 0.26782121E+00 0.13039750E+04</pdfrwt>
<pdfrwt beam="2">  1       -1 0.23107500E+00 0.13039750E+04</pdfrwt>
<totfact> 0.40144318E-01</totfact>
</mgrwt>
</event>
<event>
 4    1  0.1065596E-007  0.8532370E+03  0.7818608E-02  0.9605709E-01
         -1   -1    0    0    0  501 -0.00000000000E+00  0.00000000000E+00  0.86727261301E+03  0.86727261303E+03  0.50400000000E-02 0.  1.
          1   -1    0    0  501    0  0.00000000000E+00 -0.00000000000E+00 -0.11488976351E+04  0.11488976351E+04  0.50400000000E-02 0. -1.
    8880023    1    1    2    0    0 -0.46941774002E+03 -0.27175394625E+03 -0.85802434400E+03  0.12100492565E+04  0.65864270000E+03 0. -1.
    8880022    1    1    2    0    0  0.46941774002E+03  0.27175394625E+03  0.57639932189E+03  0.80612099168E+03  0.15294330000E+03 0.  0.
<mgrwt>
<rscale>  0 0.76919501E+03</rscale>
<asrwt>0</asrwt>
<pdfrwt beam="1">  1        1 0.17675348E+00 0.85323703E+03</pdfrwt>
<pdfrwt beam="2">  1       -1 0.13342656E+00 0.85323703E+03</pdfrwt>
<totfact> 0.56511969E+00</totfact>
</mgrwt>
</event>
<event>
 4    1  0.1338870E-007  0.6664417E+03  0.7818608E-02  0.1018353E+00
         -1   -1    0    0    0  501 -0.00000000000E+00  0.00000000000E+00  0.14058439899E+04  0.14058439899E+04  0.50400000000E-02 0.  1.
          1   -1    0    0  501    0  0.00000000000E+00 -0.00000000000E+00 -0.18281986902E+04  0.18281986902E+04  0.50400000000E-02 0. -1.
    8880023    1    1    2    0    0  0.96752389536E+02 -0.31196854026E+02 -0.17609852176E+04  0.18828737110E+04  0.65864270000E+03 0. -1.
    8880022    1    1    2    0    0 -0.96752389536E+02  0.31196854026E+02  0.13386305173E+04  0.13511689692E+04  0.15294330000E+03 0.  0.
<mgrwt>
<rscale>  0 0.48285538E+03</rscale>
<asrwt>0</asrwt>
<pdfrwt beam="1">  1        1 0.28126134E+00 0.66644165E+03</pdfrwt>
<pdfrwt beam="2">  1       -1 0.21628369E+00 0.66644165E+03</pdfrwt>
<totfact> 0.49315336E-01</totfact>
</mgrwt>
</event>
<event>
 4    1  0.1065596E-007  0.9635183E+03  0.7818608E-02  0.9430925E-01
         -1   -1    0    0    0  501 -0.00000000000E+00  0.00000000000E+00  0.10403386909E+04  0.10403386909E+04  0.50400000000E-02 0.  1.
          1   -1    0    0  501    0  0.00000000000E+00 -0.00000000000E+00 -0.15755388428E+04  0.15755388428E+04  0.50400000000E-02 0. -1.
    8880023    1    1    2    0    0  0.66248395719E+02  0.70012031526E+03 -0.12655013813E+04  0.15905537583E+04  0.65864270000E+03 0. -1.
    8880022    1    1    2    0    0 -0.66248395719E+02 -0.70012031526E+03  0.73030122941E+03  0.10253237754E+04  0.15294330000E+03 0.  0.
<mgrwt>
<rscale>  0 0.89573768E+03</rscale>
<asrwt>0</asrwt>
<pdfrwt beam="1">  1        1 0.24239059E+00 0.96351830E+03</pdfrwt>
<pdfrwt beam="2">  1       -1 0.16005211E+00 0.96351830E+03</pdfrwt>
<totfact> 0.17135768E+00</totfact>
</mgrwt>
</event>
<event>
 4    1  0.1251551E-007  0.1319322E+04  0.7818608E-02  0.9049051E-01
         -1   -1    0    0    0  501 -0.00000000000E+00  0.00000000000E+00  0.15811616679E+04  0.15811616679E+04  0.50400000000E-02 0.  1.
          1   -1    0    0  501    0  0.00000000000E+00 -0.00000000000E+00 -0.35541851455E+04  0.35541851455E+04  0.50400000000E-02 0. -1.
    8880023    1    1    2    0    0 -0.52380607025E+03 -0.10160848149E+04 -0.31940089938E+04  0.34557639979E+04  0.65864270000E+03 0. -1.
    8880022    1    1    2    0    0  0.52380607025E+03  0.10160848149E+04  0.12209855163E+04  0.16795828155E+04  0.15294330000E+03 0.  0.
<mgrwt>
<rscale>  0 0.12757116E+04</rscale>
<asrwt>0</asrwt>
<pdfrwt beam="1">  1        1 0.54679771E+00 0.13193223E+04</pdfrwt>
<pdfrwt beam="2">  1       -1 0.24325564E+00 0.13193223E+04</pdfrwt>
<totfact> 0.17109899E-02</totfact>
</mgrwt>
</event>
<event>
 4    1  0.1065596E-007  0.8038892E+03  0.7818608E-02  0.9702449E-01
          1   -1    0    0  501    0  0.00000000000E+00  0.00000000000E+00  0.79371613475E+03  0.79371613477E+03  0.50400000000E-02 0. -1.
         -1   -1    0    0    0  501 -0.00000000000E+00 -0.00000000000E+00 -0.95540427553E+03  0.95540427554E+03  0.50400000000E-02 0.  1.
    8880023    1    1    2    0    0  0.24696560807E+03  0.38914739264E+03  0.48616920792E+03  0.93946708817E+03  0.65864270000E+03 0. -1.
    8880022    1    1    2    0    0 -0.24696560807E+03 -0.38914739264E+03 -0.64785734870E+03  0.80965332213E+03  0.15294330000E+03 0.  0.
<mgrwt>
<rscale>  0 0.70871169E+03</rscale>
<asrwt>0</asrwt>
<pdfrwt beam="1">  1        1 0.12211017E+00 0.80388924E+03</pdfrwt>
<pdfrwt beam="2">  1       -1 0.14698527E+00 0.80388924E+03</pdfrwt>
<totfact> 0.84551603E+00</totfact>
</mgrwt>
</event>
<event>
 4    1  0.1065596E-007  0.1220975E+04  0.7818608E-02  0.9136998E-01
          1   -1    0    0  501    0  0.00000000000E+00  0.00000000000E+00  0.17694823544E+04  0.17694823544E+04  0.50400000000E-02 0. -1.
         -1   -1    0    0    0  501 -0.00000000000E+00 -0.00000000000E+00 -0.10922192443E+04  0.10922192443E+04  0.50400000000E-02 0.  1.
    8880023    1    1    2    0    0 -0.56331569482E+03  0.86002683613E+03 -0.47480836624E+03  0.13100472975E+04  0.65864270000E+03 0.  0.
    8880022    1    1    2    0    0  0.56331569482E+03 -0.86002683613E+03  0.11520714763E+04  0.15516543012E+04  0.15294330000E+03 0.  0.
<mgrwt>
<rscale>  0 0.11728065E+04</rscale>
<asrwt>0</asrwt>
<pdfrwt beam="1">  1        1 0.27222805E+00 0.12209754E+04</pdfrwt>
<pdfrwt beam="2">  1       -1 0.16803373E+00 0.12209754E+04</pdfrwt>
<totfact> 0.10638601E+00</totfact>
</mgrwt>
</event>
<event>
 4    1  0.1065596E-007  0.1168426E+04  0.7818608E-02  0.9188443E-01
          1   -1    0    0  501    0  0.00000000000E+00  0.00000000000E+00  0.32966939966E+04  0.32966939966E+04  0.50400000000E-02 0. -1.
         -1   -1    0    0    0  501 -0.00000000000E+00 -0.00000000000E+00 -0.58590927838E+03  0.58590927840E+03  0.50400000000E-02 0.  1.
    8880023    1    1    2    0    0  0.45473123874E+03 -0.85125072510E+03  0.26586524188E+04  0.29040749279E+04  0.65864270000E+03 0.  0.
    8880022    1    1    2    0    0 -0.45473123874E+03  0.85125072510E+03  0.52132299411E+02  0.97852834713E+03  0.15294330000E+03 0.  0.
<mgrwt>
<rscale>  0 0.11173516E+04</rscale>
<asrwt>0</asrwt>
<pdfrwt beam="1">  1        1 0.50718368E+00 0.11684257E+04</pdfrwt>
<pdfrwt beam="2">  1       -1 0.90139891E-01 0.11684257E+04</pdfrwt>
<totfact> 0.43514762E-01</totfact>
</mgrwt>
</event>
<event>
 4    1  0.1065596E-007  0.7932275E+03  0.7818608E-02  0.9725635E-01
          1   -1    0    0  501    0  0.00000000000E+00  0.00000000000E+00  0.16736645191E+04  0.16736645191E+04  0.50400000000E-02 0. -1.
         -1   -1    0    0    0  501 -0.00000000000E+00 -0.00000000000E+00 -0.73046649019E+03  0.73046649021E+03  0.50400000000E-02 0.  1.
    8880023    1    1    2    0    0  0.34417284347E+02  0.44069848787E+03  0.14879103995E+04  0.16861456847E+04  0.65864270000E+03 0. -1.
    8880022    1    1    2    0    0 -0.34417284347E+02 -0.44069848787E+03 -0.54471237062E+03  0.71798532464E+03  0.15294330000E+03 0.  0.
<mgrwt>
<rscale>  0 0.69510771E+03</rscale>
<asrwt>0</asrwt>
<pdfrwt beam="1">  1        1 0.25748685E+00 0.79322753E+03</pdfrwt>
<pdfrwt beam="2">  1       -1 0.11237946E+00 0.79322753E+03</pdfrwt>
<totfact> 0.37410010E+00</totfact>
</mgrwt>
</event>
<event>
 4    1  0.1065596E-007  0.7457779E+03  0.7818608E-02  0.9843425E-01
         -1   -1    0    0    0  501 -0.00000000000E+00  0.00000000000E+00  0.46693942099E+03  0.46693942102E+03  0.50400000000E-02 0.  1.
          1   -1    0    0  501    0  0.00000000000E+00 -0.00000000000E+00 -0.11885542383E+04  0.11885542383E+04  0.50400000000E-02 0. -1.
    8880023    1    1    2    0    0 -0.34979421020E+03  0.43020155023E+01 -0.95218478908E+03  0.12094794647E+04  0.65864270000E+03 0. -1.
    8880022    1    1    2    0    0  0.34979421020E+03 -0.43020155023E+01  0.23056997180E+03  0.44601419455E+03  0.15294330000E+03 0.  0.
<mgrwt>
<rscale>  0 0.63083274E+03</rscale>
<asrwt>0</asrwt>
<pdfrwt beam="1">  1        1 0.18285450E+00 0.74577792E+03</pdfrwt>
<pdfrwt beam="2">  1       -1 0.71836835E-01 0.74577792E+03</pdfrwt>
<totfact> 0.21968483E+01</totfact>
</mgrwt>
</event>
<event>
 4    1  0.1065596E-007  0.7004535E+03  0.7818608E-02  0.9995325E-01
         -1   -1    0    0    0  501 -0.00000000000E+00  0.00000000000E+00  0.24300628460E+03  0.24300628465E+03  0.50400000000E-02 0.  1.
          1   -1    0    0  501    0  0.00000000000E+00 -0.00000000000E+00 -0.99815636268E+03  0.99815636270E+03  0.50400000000E-02 0. -1.
    8880023    1    1    2    0    0 -0.96873382564E+02  0.21780819767E+03 -0.56644633905E+03  0.90083101884E+03  0.65864270000E+03 0. -1.
    8880022    1    1    2    0    0  0.96873382564E+02 -0.21780819767E+03 -0.18870373904E+03  0.34033162851E+03  0.15294330000E+03 0.  1.
<mgrwt>
<rscale>  0 0.55855693E+03</rscale>
<asrwt>0</asrwt>
<pdfrwt beam="1">  1        1 0.15356252E+00 0.70045347E+03</pdfrwt>
<pdfrwt beam="2">  1       -1 0.37385583E-01 0.70045347E+03</pdfrwt>
<totfact> 0.10697411E+02</totfact>
</mgrwt>
</event>
<event>
 4    1  0.1065596E-007  0.9132232E+03  0.7818608E-02  0.9505129E-01
          1   -1    0    0  501    0  0.00000000000E+00  0.00000000000E+00  0.15415905823E+04  0.15415905823E+04  0.50400000000E-02 0. -1.
         -1   -1    0    0    0  501 -0.00000000000E+00 -0.00000000000E+00 -0.63477220440E+03  0.63477220442E+03  0.50400000000E-02 0.  1.
    8880023    1    1    2    0    0  0.30834428365E+03  0.55234973011E+03  0.11614773015E+04  0.14774999661E+04  0.65864270000E+03 0. -1.
    8880022    1    1    2    0    0 -0.30834428365E+03 -0.55234973011E+03 -0.25465892366E+03  0.69886282060E+03  0.15294330000E+03 0.  0.
<mgrwt>
<rscale>  0 0.83906736E+03</rscale>
<asrwt>0</asrwt>
<pdfrwt beam="1">  1        1 0.23716778E+00 0.91322321E+03</pdfrwt>
<pdfrwt beam="2">  1       -1 0.97657261E-01 0.91322321E+03</pdfrwt>
<totfact> 0.62634140E+00</totfact>
</mgrwt>
</event>
<event>
 4    1  0.1065596E-007  0.1039685E+04  0.7818608E-02  0.9331385E-01
         -1   -1    0    0    0  501 -0.00000000000E+00  0.00000000000E+00  0.88175731126E+03  0.88175731127E+03  0.50400000000E-02 0.  1.
          1   -1    0    0  501    0  0.00000000000E+00 -0.00000000000E+00 -0.13491074924E+04  0.13491074924E+04  0.50400000000E-02 0. -1.
    8880023    1    1    2    0    0  0.76497721937E+03  0.24888727469E+03 -0.83478780053E+03  0.13333476290E+04  0.65864270000E+03 0.  0.
    8880022    1    1    2    0    0 -0.76497721937E+03 -0.24888727469E+03  0.36743761938E+03  0.89751717466E+03  0.15294330000E+03 0.  0.
<mgrwt>
<rscale>  0 0.97944125E+03</rscale>
<asrwt>0</asrwt>
<pdfrwt beam="1">  1        1 0.20755500E+00 0.10396852E+04</pdfrwt>
<pdfrwt beam="2">  1       -1 0.13565497E+00 0.10396852E+04</pdfrwt>
<totfact> 0.37942548E+00</totfact>
</mgrwt>
</event>
<event>
 4    1  0.1065596E-007  0.7192809E+03  0.7818608E-02  0.9925027E-01
         -1   -1    0    0    0  501 -0.00000000000E+00  0.00000000000E+00  0.17864742469E+04  0.17864742469E+04  0.50400000000E-02 0.  1.
          1   -1    0    0  501    0  0.00000000000E+00 -0.00000000000E+00 -0.40612307679E+03  0.40612307682E+03  0.50400000000E-02 0. -1.
    8880023    1    1    2    0    0  0.19700150208E+03  0.21153076360E+03 -0.54126559257E+02  0.72131459603E+03  0.65864270000E+03 0. -1.
    8880022    1    1    2    0    0 -0.19700150208E+03 -0.21153076360E+03  0.14344777294E+04  0.14712827277E+04  0.15294330000E+03 0.  0.
<mgrwt>
<rscale>  0 0.59063576E+03</rscale>
<asrwt>0</asrwt>
<pdfrwt beam="1">  1        1 0.62480473E-01 0.71928093E+03</pdfrwt>
<pdfrwt beam="2">  1       -1 0.27484219E+00 0.71928093E+03</pdfrwt>
<totfact> 0.29697403E+00</totfact>
</mgrwt>
</event>
<event>
 4    1  0.1065596E-007  0.7599791E+03  0.7818608E-02  0.9805161E-01
          1   -1    0    0  501    0  0.00000000000E+00  0.00000000000E+00  0.29841759564E+04  0.29841759564E+04  0.50400000000E-02 0. -1.
         -1   -1    0    0    0  501 -0.00000000000E+00 -0.00000000000E+00 -0.19135808564E+03  0.19135808571E+03  0.50400000000E-02 0.  1.
    8880023    1    1    2    0    0  0.16391527572E+03 -0.34189161849E+03  0.26263615910E+04  0.27341074429E+04  0.65864270000E+03 0. -1.
    8880022    1    1    2    0    0 -0.16391527572E+03  0.34189161849E+03  0.16645627978E+03  0.44142659923E+03  0.15294330000E+03 0.  0.
<mgrwt>
<rscale>  0 0.65086283E+03</rscale>
<asrwt>0</asrwt>
<pdfrwt beam="1">  1        1 0.45910396E+00 0.75997915E+03</pdfrwt>
<pdfrwt beam="2">  1       -1 0.29439708E-01 0.75997915E+03</pdfrwt>
<totfact> 0.68810358E+00</totfact>
</mgrwt>
</event>
<event>
 4    1  0.1065596E-007  0.7717417E+03  0.7818608E-02  0.9775606E-01
         -1   -1    0    0    0  501 -0.00000000000E+00  0.00000000000E+00  0.17879447663E+03  0.17879447670E+03  0.50400000000E-02 0.  1.
          1   -1    0    0  501    0  0.00000000000E+00 -0.00000000000E+00 -0.31593036720E+04  0.31593036720E+04  0.50400000000E-02 0. -1.
    8880023    1    1    2    0    0  0.17493707364E+03 -0.36217674256E+03 -0.27368806175E+04  0.28436069864E+04  0.65864270000E+03 0. -1.
    8880022    1    1    2    0    0 -0.17493707364E+03  0.36217674256E+03 -0.24362857784E+03  0.49449116224E+03  0.15294330000E+03 0.  0.
<mgrwt>
<rscale>  0 0.66688246E+03</rscale>
<asrwt>0</asrwt>
<pdfrwt beam="1">  1        1 0.48604667E+00 0.77174165E+03</pdfrwt>
<pdfrwt beam="2">  1       -1 0.27506845E-01 0.77174165E+03</pdfrwt>
<totfact> 0.57683368E+00</totfact>
</mgrwt>
</event>
<event>
 4    1  0.1065596E-007  0.1021960E+04  0.7818608E-02  0.9353374E-01
         -1   -1    0    0    0  501 -0.00000000000E+00  0.00000000000E+00  0.56523509426E+03  0.56523509428E+03  0.50400000000E-02 0.  1.
          1   -1    0    0  501    0  0.00000000000E+00 -0.00000000000E+00 -0.29811959282E+04  0.29811959282E+04  0.50400000000E-02 0. -1.
    8880023    1    1    2    0    0  0.50479106849E+02 -0.77977217005E+03 -0.25425045671E+04  0.27402066450E+04  0.65864270000E+03 0. -1.
    8880022    1    1    2    0    0 -0.50479106849E+02  0.77977217005E+03  0.12654373316E+03  0.80622437747E+03  0.15294330000E+03 0.  0.
<mgrwt>
<rscale>  0 0.96014177E+03</rscale>
<asrwt>0</asrwt>
<pdfrwt beam="1">  1        1 0.45864552E+00 0.10219604E+04</pdfrwt>
<pdfrwt beam="2">  1       -1 0.86959247E-01 0.10219604E+04</pdfrwt>
<totfact> 0.82297212E-01</totfact>
</mgrwt>
</event>
<event>
 4    1  0.1065596E-007  0.1482267E+04  0.7818608E-02  0.8922260E-01
         -1   -1    0    0    0  501 -0.00000000000E+00  0.00000000000E+00  0.14163113963E+04  0.14163113963E+04  0.50400000000E-02 0.  1.
          1   -1    0    0  501    0  0.00000000000E+00 -0.00000000000E+00 -0.21854751766E+04  0.21854751766E+04  0.50400000000E-02 0. -1.
    8880023    1    1    2    0    0  0.55179363950E+03 -0.12078200195E+04  0.67956110734E+03  0.16306191845E+04  0.65864270000E+03 0.  0.
    8880022    1    1    2    0    0 -0.55179363950E+03  0.12078200195E+04 -0.14487248876E+04  0.19711673884E+04  0.15294330000E+03 0.  0.
<mgrwt>
<rscale>  0 0.14444457E+04</rscale>
<asrwt>0</asrwt>
<pdfrwt beam="1">  1        1 0.33622695E+00 0.14822671E+04</pdfrwt>
<pdfrwt beam="2">  1       -1 0.21789406E+00 0.14822671E+04</pdfrwt>
<totfact> 0.23978815E-01</totfact>
</mgrwt>
</event>
<event>
 4    1  0.1065596E-007  0.8134070E+03  0.7818608E-02  0.9682524E-01
          1   -1    0    0  501    0  0.00000000000E+00  0.00000000000E+00  0.19617751287E+04  0.19617751287E+04  0.50400000000E-02 0. -1.
         -1   -1    0    0    0  501 -0.00000000000E+00 -0.00000000000E+00 -0.23018317523E+03  0.23018317528E+03  0.50400000000E-02 0.  1.
    8880023    1    1    2    0    0 -0.70058852665E+02 -0.47213605006E+03  0.12841126575E+04  0.15200579647E+04  0.65864270000E+03 0.  0.
    8880022    1    1    2    0    0  0.70058852665E+02  0.47213605006E+03  0.44747929594E+03  0.67190033927E+03  0.15294330000E+03 0.  0.
<mgrwt>
<rscale>  0 0.72066933E+03</rscale>
<asrwt>0</asrwt>
<pdfrwt beam="1">  1        1 0.30181156E+00 0.81340697E+03</pdfrwt>
<pdfrwt beam="2">  1       -1 0.35412796E-01 0.81340697E+03</pdfrwt>
<totfact> 0.24760883E+01</totfact>
</mgrwt>
</event>
<event>
 4    1  0.1065596E-007  0.7752520E+03  0.7818608E-02  0.9767111E-01
          1   -1    0    0  501    0  0.00000000000E+00  0.00000000000E+00  0.26201905811E+04  0.26201905811E+04  0.50400000000E-02 0. -1.
         -1   -1    0    0    0  501 -0.00000000000E+00 -0.00000000000E+00 -0.35148813006E+03  0.35148813010E+03  0.50400000000E-02 0.  1.
    8880023    1    1    2    0    0  0.25915945374E+03  0.31629392171E+03  0.23948820626E+04  0.25172357393E+04  0.65864270000E+03 0. -1.
    8880022    1    1    2    0    0 -0.25915945374E+03 -0.31629392171E+03 -0.12617961149E+03  0.45444297194E+03  0.15294330000E+03 0.  0.
<mgrwt>
<rscale>  0 0.67157839E+03</rscale>
<asrwt>0</asrwt>
<pdfrwt beam="1">  1        1 0.40310622E+00 0.77525201E+03</pdfrwt>
<pdfrwt beam="2">  1       -1 0.54075100E-01 0.77525201E+03</pdfrwt>
<totfact> 0.40776273E+00</totfact>
</mgrwt>
</event>
<event>
 4    1  0.1092048E-007  0.7001810E+03  0.7818608E-02  0.9996451E-01
         -1   -1    0    0    0  501 -0.00000000000E+00  0.00000000000E+00  0.17474496856E+04  0.17474496856E+04  0.50400000000E-02 0.  1.
          1   -1    0    0  501    0  0.00000000000E+00 -0.00000000000E+00 -0.27059943119E+04  0.27059943119E+04  0.50400000000E-02 0. -1.
    8880023    1    1    2    0    0  0.23211899795E+03  0.50636170694E+02 -0.26487769770E+04  0.27397578234E+04  0.65864270000E+03 0. -1.
    8880022    1    1    2    0    0 -0.23211899795E+03 -0.50636170694E+02  0.16902323507E+04  0.17136861741E+04  0.15294330000E+03 0.  0.
<mgrwt>
<rscale>  0 0.55806123E+03</rscale>
<asrwt>0</asrwt>
<pdfrwt beam="1">  1        1 0.41630682E+00 0.70018102E+03</pdfrwt>
<pdfrwt beam="2">  1       -1 0.26883841E+00 0.70018102E+03</pdfrwt>
<totfact> 0.56955204E-02</totfact>
</mgrwt>
</event>
<event>
 4    1  0.1065596E-007  0.1283193E+04  0.7818608E-02  0.9080212E-01
         -1   -1    0    0    0  501 -0.00000000000E+00  0.00000000000E+00  0.91669539896E+03  0.91669539897E+03  0.50400000000E-02 0.  1.
          1   -1    0    0  501    0  0.00000000000E+00 -0.00000000000E+00 -0.26853072646E+04  0.26853072646E+04  0.50400000000E-02 0. -1.
    8880023    1    1    2    0    0 -0.25183814894E+03 -0.10720775890E+04 -0.20830501471E+04  0.24465651292E+04  0.65864270000E+03 0.  0.
    8880022    1    1    2    0    0  0.25183814894E+03  0.10720775890E+04  0.31443828141E+03  0.11554375344E+04  0.15294330000E+03 0.  1.
<mgrwt>
<rscale>  0 0.12380221E+04</rscale>
<asrwt>0</asrwt>
<pdfrwt beam="1">  1        1 0.41312419E+00 0.12831925E+04</pdfrwt>
<pdfrwt beam="2">  1       -1 0.14103006E+00 0.12831925E+04</pdfrwt>
<totfact> 0.40404264E-01</totfact>
</mgrwt>
</event>
<event>
 4    1  0.1065596E-007  0.1073277E+04  0.7818608E-02  0.9291409E-01
          1   -1    0    0  501    0  0.00000000000E+00  0.00000000000E+00  0.31194039793E+04  0.31194039793E+04  0.50400000000E-02 0. -1.
         -1   -1    0    0    0  501 -0.00000000000E+00 -0.00000000000E+00 -0.34962863026E+03  0.34962863029E+03  0.50400000000E-02 0.  1.
    8880023    1    1    2    0    0  0.10830233352E+03 -0.84046644825E+03  0.21660456740E+04  0.24173699167E+04  0.65864270000E+03 0. -1.
    8880022    1    1    2    0    0 -0.10830233352E+03  0.84046644825E+03  0.60372967503E+03  0.10516626929E+04  0.15294330000E+03 0.  0.
<mgrwt>
<rscale>  0 0.10157764E+04</rscale>
<asrwt>0</asrwt>
<pdfrwt beam="1">  1        1 0.47990832E+00 0.10732770E+04</pdfrwt>
<pdfrwt beam="2">  1       -1 0.53789019E-01 0.10732770E+04</pdfrwt>
<totfact> 0.17360445E+00</totfact>
</mgrwt>
</event>
<event>
 4    1  0.1065596E-007  0.8521776E+03  0.7818608E-02  0.9607632E-01
          1   -1    0    0  501    0  0.00000000000E+00  0.00000000000E+00  0.17858956813E+04  0.17858956813E+04  0.50400000000E-02 0. -1.
         -1   -1    0    0    0  501 -0.00000000000E+00 -0.00000000000E+00 -0.48745963151E+03  0.48745963153E+03  0.50400000000E-02 0.  1.
    8880023    1    1    2    0    0 -0.37198942172E+03 -0.39245414064E+03  0.14583628781E+04  0.16890911381E+04  0.65864270000E+03 0.  0.
    8880022    1    1    2    0    0  0.37198942172E+03  0.39245414064E+03 -0.15992682835E+03  0.58426417468E+03  0.15294330000E+03 0.  0.
<mgrwt>
<rscale>  0 0.76793070E+03</rscale>
<asrwt>0</asrwt>
<pdfrwt beam="1">  1        1 0.27475318E+00 0.85217756E+03</pdfrwt>
<pdfrwt beam="2">  1       -1 0.74993791E-01 0.85217756E+03</pdfrwt>
<totfact> 0.76573014E+00</totfact>
</mgrwt>
</event>
<event>
 4    1  0.1065596E-007  0.9433212E+03  0.7818608E-02  0.9459789E-01
          1   -1    0    0  501    0  0.00000000000E+00  0.00000000000E+00  0.19861429998E+04  0.19861429998E+04  0.50400000000E-02 0. -1.
         -1   -1    0    0    0  501 -0.00000000000E+00 -0.00000000000E+00 -0.53318007194E+03  0.53318007196E+03  0.50400000000E-02 0.  1.
    8880023    1    1    2    0    0  0.64971996304E+03  0.18414307298E+03  0.15556730493E+04  0.18193332691E+04  0.65864270000E+03 0. -1.
    8880022    1    1    2    0    0 -0.64971996304E+03 -0.18414307298E+03 -0.10271012144E+03  0.69998980261E+03  0.15294330000E+03 0.  0.
<mgrwt>
<rscale>  0 0.87314439E+03</rscale>
<asrwt>0</asrwt>
<pdfrwt beam="1">  1        1 0.30556047E+00 0.94332121E+03</pdfrwt>
<pdfrwt beam="2">  1       -1 0.82027702E-01 0.94332121E+03</pdfrwt>
<totfact> 0.45874212E+00</totfact>
</mgrwt>
</event>
<event>
 4    1  0.1065596E-007  0.7475487E+03  0.7818608E-02  0.9838480E-01
          1   -1    0    0  501    0  0.00000000000E+00  0.00000000000E+00  0.92792649864E+03  0.92792649866E+03  0.50400000000E-02 0. -1.
         -1   -1    0    0    0  501 -0.00000000000E+00 -0.00000000000E+00 -0.11973822726E+04  0.11973822726E+04  0.50400000000E-02 0.  1.
    8880023    1    1    2    0    0 -0.33813031873E+03 -0.10337665482E+03  0.73570503127E+03  0.10488522034E+04  0.65864270000E+03 0. -1.
    8880022    1    1    2    0    0  0.33813031873E+03  0.10337665482E+03 -0.10051608052E+04  0.10764565679E+04  0.15294330000E+03 0.  0.
<mgrwt>
<rscale>  0 0.63337759E+03</rscale>
<asrwt>0</asrwt>
<pdfrwt beam="1">  1        1 0.14275792E+00 0.74754870E+03</pdfrwt>
<pdfrwt beam="2">  1       -1 0.18421266E+00 0.74754870E+03</pdfrwt>
<totfact> 0.34847513E+00</totfact>
</mgrwt>
</event>
<event>
 4    1  0.1065596E-007  0.6959469E+03  0.7818608E-02  0.1001445E+00
         -1   -1    0    0    0  501 -0.00000000000E+00  0.00000000000E+00  0.41129684282E+03  0.41129684285E+03  0.50400000000E-02 0.  1.
          1   -1    0    0  501    0  0.00000000000E+00 -0.00000000000E+00 -0.98062834033E+03  0.98062834035E+03  0.50400000000E-02 0. -1.
    8880023    1    1    2    0    0  0.22472976874E+03  0.53276531602E+01 -0.78193091358E+03  0.10467846067E+04  0.65864270000E+03 0. -1.
    8880022    1    1    2    0    0 -0.22472976874E+03 -0.53276531602E+01  0.21259941607E+03  0.34514057654E+03  0.15294330000E+03 0.  0.
<mgrwt>
<rscale>  0 0.55021179E+03</rscale>
<asrwt>0</asrwt>
<pdfrwt beam="1">  1        1 0.15086590E+00 0.69594688E+03</pdfrwt>
<pdfrwt beam="2">  1       -1 0.63276437E-01 0.69594688E+03</pdfrwt>
<totfact> 0.40931421E+01</totfact>
</mgrwt>
</event>
<event>
 4    1  0.1065596E-007  0.1044182E+04  0.7818608E-02  0.9325908E-01
         -1   -1    0    0    0  501 -0.00000000000E+00  0.00000000000E+00  0.12032464787E+04  0.12032464787E+04  0.50400000000E-02 0.  1.
          1   -1    0    0  501    0  0.00000000000E+00 -0.00000000000E+00 -0.13725162899E+04  0.13725162899E+04  0.50400000000E-02 0. -1.
    8880023    1    1    2    0    0  0.80988629785E+03 -0.24309427551E+02 -0.97085522722E+03  0.14257899011E+04  0.65864270000E+03 0.  0.
    8880022    1    1    2    0    0 -0.80988629785E+03  0.24309427551E+02  0.80158541604E+03  0.11499728675E+04  0.15294330000E+03 0.  0.
<mgrwt>
<rscale>  0 0.98432336E+03</rscale>
<asrwt>0</asrwt>
<pdfrwt beam="1">  1        1 0.21115635E+00 0.10441824E+04</pdfrwt>
<pdfrwt beam="2">  1       -1 0.18511484E+00 0.10441824E+04</pdfrwt>
<totfact> 0.15357428E+00</totfact>
</mgrwt>
</event>
<event>
 4    1  0.1065596E-007  0.7073816E+03  0.7818608E-02  0.9967856E-01
          1   -1    0    0  501    0  0.00000000000E+00  0.00000000000E+00  0.17081600266E+04  0.17081600266E+04  0.50400000000E-02 0. -1.
         -1   -1    0    0    0  501 -0.00000000000E+00 -0.00000000000E+00 -0.52879451915E+03  0.52879451917E+03  0.50400000000E-02 0.  1.
    8880023    1    1    2    0    0 -0.94888200130E+02 -0.23994745872E+03  0.15831222558E+04  0.17339737128E+04  0.65864270000E+03 0. -1.
    8880022    1    1    2    0    0  0.94888200130E+02  0.23994745872E+03 -0.40375674839E+03  0.50298083299E+03  0.15294330000E+03 0.  0.
<mgrwt>
<rscale>  0 0.57082458E+03</rscale>
<asrwt>0</asrwt>
<pdfrwt beam="1">  1        1 0.26279385E+00 0.70738162E+03</pdfrwt>
<pdfrwt beam="2">  1       -1 0.81353003E-01 0.70738162E+03</pdfrwt>
<totfact> 0.74382338E+00</totfact>
</mgrwt>
</event>
<event>
 4    1  0.1065596E-007  0.1111884E+04  0.7818608E-02  0.9247939E-01
         -1   -1    0    0    0  501 -0.00000000000E+00  0.00000000000E+00  0.76903882349E+03  0.76903882351E+03  0.50400000000E-02 0.  1.
          1   -1    0    0  501    0  0.00000000000E+00 -0.00000000000E+00 -0.18683361846E+04  0.18683361846E+04  0.50400000000E-02 0. -1.
    8880023    1    1    2    0    0 -0.12887937175E+03  0.88649041772E+03 -0.12959561541E+04  0.17075677769E+04  0.65864270000E+03 0.  0.
    8880022    1    1    2    0    0  0.12887937175E+03 -0.88649041772E+03  0.19665879306E+03  0.92980723113E+03  0.15294330000E+03 0.  0.
<mgrwt>
<rscale>  0 0.10572027E+04</rscale>
<asrwt>0</asrwt>
<pdfrwt beam="1">  1        1 0.28743634E+00 0.11118837E+04</pdfrwt>
<pdfrwt beam="2">  1       -1 0.11831367E+00 0.11118837E+04</pdfrwt>
<totfact> 0.23333541E+00</totfact>
</mgrwt>
</event>
<event>
 4    1  0.1065596E-007  0.1211750E+04  0.7818608E-02  0.9145784E-01
          1   -1    0    0  501    0  0.00000000000E+00  0.00000000000E+00  0.18299318815E+04  0.18299318815E+04  0.50400000000E-02 0. -1.
         -1   -1    0    0    0  501 -0.00000000000E+00 -0.00000000000E+00 -0.11334310303E+04  0.11334310303E+04  0.50400000000E-02 0.  1.
    8880023    1    1    2    0    0  0.75872403235E+03 -0.67739704116E+03  0.12948672525E+04  0.17734205132E+04  0.65864270000E+03 0.  0.
    8880022    1    1    2    0    0 -0.75872403235E+03  0.67739704116E+03 -0.59836640136E+03  0.11899423986E+04  0.15294330000E+03 0.  0.
<mgrwt>
<rscale>  0 0.11630986E+04</rscale>
<asrwt>0</asrwt>
<pdfrwt beam="1">  1        1 0.28152798E+00 0.12117504E+04</pdfrwt>
<pdfrwt beam="2">  1       -1 0.17437401E+00 0.12117504E+04</pdfrwt>
<totfact> 0.87048713E-01</totfact>
</mgrwt>
</event>
<event>
 4    1  0.1065596E-007  0.8128061E+03  0.7818608E-02  0.9683761E-01
         -1   -1    0    0    0  501 -0.00000000000E+00  0.00000000000E+00  0.21556481150E+04  0.21556481150E+04  0.50400000000E-02 0.  1.
          1   -1    0    0  501    0  0.00000000000E+00 -0.00000000000E+00 -0.10085958407E+04  0.10085958407E+04  0.50400000000E-02 0. -1.
    8880023    1    1    2    0    0  0.42311966351E+03  0.21866244332E+03 -0.80807236278E+03  0.11461390245E+04  0.65864270000E+03 0. -1.
    8880022    1    1    2    0    0 -0.42311966351E+03 -0.21866244332E+03  0.19551246371E+04  0.20181049312E+04  0.15294330000E+03 0.  0.
<mgrwt>
<rscale>  0 0.71991919E+03</rscale>
<asrwt>0</asrwt>
<pdfrwt beam="1">  1        1 0.15516859E+00 0.81280608E+03</pdfrwt>
<pdfrwt beam="2">  1       -1 0.33163817E+00 0.81280608E+03</pdfrwt>
<totfact> 0.32274938E-01</totfact>
</mgrwt>
</event>
<event>
 4    1  0.1065596E-007  0.8738729E+03  0.7818608E-02  0.9569347E-01
         -1   -1    0    0    0  501 -0.00000000000E+00  0.00000000000E+00  0.65813857866E+03  0.65813857868E+03  0.50400000000E-02 0.  1.
          1   -1    0    0  501    0  0.00000000000E+00 -0.00000000000E+00 -0.91130587141E+03  0.91130587142E+03  0.50400000000E-02 0. -1.
    8880023    1    1    2    0    0  0.26437888930E+03  0.50985033795E+03  0.97620807467E+02  0.87930858777E+03  0.65864270000E+03 0.  0.
    8880022    1    1    2    0    0 -0.26437888930E+03 -0.50985033795E+03 -0.35078810021E+03  0.69013586233E+03  0.15294330000E+03 0.  0.
<mgrwt>
<rscale>  0 0.79358635E+03</rscale>
<asrwt>0</asrwt>
<pdfrwt beam="1">  1        1 0.14020090E+00 0.87387286E+03</pdfrwt>
<pdfrwt beam="2">  1       -1 0.10125209E+00 0.87387286E+03</pdfrwt>
<totfact> 0.16743784E+01</totfact>
</mgrwt>
</event>
<event>
 4    1  0.1065596E-007  0.1043228E+04  0.7818608E-02  0.9327066E-01
          1   -1    0    0  501    0  0.00000000000E+00  0.00000000000E+00  0.24425576786E+04  0.24425576786E+04  0.50400000000E-02 0. -1.
         -1   -1    0    0    0  501 -0.00000000000E+00 -0.00000000000E+00 -0.48154617125E+03  0.48154617127E+03  0.50400000000E-02 0.  1.
    8880023    1    1    2    0    0  0.66128406141E+03  0.46606696578E+03  0.32515035447E+03  0.10927250275E+04  0.65864270000E+03 0.  0.
    8880022    1    1    2    0    0 -0.66128406141E+03 -0.46606696578E+03  0.16358611528E+04  0.18313788223E+04  0.15294330000E+03 0.  0.
<mgrwt>
<rscale>  0 0.98328803E+03</rscale>
<asrwt>0</asrwt>
<pdfrwt beam="1">  1        1 0.37577810E+00 0.10432283E+04</pdfrwt>
<pdfrwt beam="2">  1       -1 0.74084027E-01 0.10432283E+04</pdfrwt>
<totfact> 0.27557079E+00</totfact>
</mgrwt>
</event>
<event>
 4    1  0.1065596E-007  0.6694031E+03  0.7818608E-02  0.1016094E+00
          1   -1    0    0  501    0  0.00000000000E+00  0.00000000000E+00  0.80975168867E+03  0.80975168868E+03  0.50400000000E-02 0. -1.
         -1   -1    0    0    0  501 -0.00000000000E+00 -0.00000000000E+00 -0.70130195461E+03  0.70130195463E+03  0.50400000000E-02 0.  1.
    8880023    1    1    2    0    0 -0.64820150498E+02 -0.10044211877E+03  0.65165011234E+03  0.93421001189E+03  0.65864270000E+03 0. -1.
    8880022    1    1    2    0    0  0.64820150498E+02  0.10044211877E+03 -0.54320037828E+03  0.57684363142E+03  0.15294330000E+03 0.  0.
<mgrwt>
<rscale>  0 0.49122721E+03</rscale>
<asrwt>0</asrwt>
<pdfrwt beam="1">  1        1 0.12457718E+00 0.66940308E+03</pdfrwt>
<pdfrwt beam="2">  1       -1 0.10789261E+00 0.66940308E+03</pdfrwt>
<totfact> 0.17989945E+01</totfact>
</mgrwt>
</event>
<event>
 4    1  0.1065596E-007  0.1394200E+04  0.7818608E-02  0.8988202E-01
          1   -1    0    0  501    0  0.00000000000E+00  0.00000000000E+00  0.19933422292E+04  0.19933422292E+04  0.50400000000E-02 0. -1.
         -1   -1    0    0    0  501 -0.00000000000E+00 -0.00000000000E+00 -0.90452771663E+03  0.90452771664E+03  0.50400000000E-02 0.  1.
    8880023    1    1    2    0    0  0.12249032232E+04  0.97961221152E+02  0.28930972973E+03  0.14239012020E+04  0.65864270000E+03 0.  1.
    8880022    1    1    2    0    0 -0.12249032232E+04 -0.97961221152E+02  0.79950478286E+03  0.14739687439E+04  0.15294330000E+03 0.  0.
<mgrwt>
<rscale>  0 0.13534741E+04</rscale>
<asrwt>0</asrwt>
<pdfrwt beam="1">  1        1 0.30666804E+00 0.13942003E+04</pdfrwt>
<pdfrwt beam="2">  1       -1 0.13915811E+00 0.13942003E+04</pdfrwt>
<totfact> 0.12329851E+00</totfact>
</mgrwt>
</event>
<event>
 4    1  0.1065596E-007  0.6775195E+03  0.7818608E-02  0.1010763E+00
         -1   -1    0    0    0  501 -0.00000000000E+00  0.00000000000E+00  0.49451190272E+03  0.49451190274E+03  0.50400000000E-02 0.  1.
          1   -1    0    0  501    0  0.00000000000E+00 -0.00000000000E+00 -0.90246258574E+03  0.90246258575E+03  0.50400000000E-02 0. -1.
    8880023    1    1    2    0    0  0.67570144430E+02 -0.14372456241E+03 -0.73686206996E+03  0.10009986966E+04  0.65864270000E+03 0. -1.
    8880022    1    1    2    0    0 -0.67570144430E+02  0.14372456241E+03  0.32891138695E+03  0.39597579186E+03  0.15294330000E+03 0.  0.
<mgrwt>
<rscale>  0 0.51172503E+03</rscale>
<asrwt>0</asrwt>
<pdfrwt beam="1">  1        1 0.13884040E+00 0.67751951E+03</pdfrwt>
<pdfrwt beam="2">  1       -1 0.76078755E-01 0.67751951E+03</pdfrwt>
<totfact> 0.32503017E+01</totfact>
</mgrwt>
</event>
<event>
 4    1  0.1065596E-007  0.1301636E+04  0.7818608E-02  0.9064149E-01
          1   -1    0    0  501    0  0.00000000000E+00  0.00000000000E+00  0.17449140450E+04  0.17449140450E+04  0.50400000000E-02 0. -1.
         -1   -1    0    0    0  501 -0.00000000000E+00 -0.00000000000E+00 -0.13821263539E+04  0.13821263539E+04  0.50400000000E-02 0.  1.
    8880023    1    1    2    0    0  0.26242528497E+02  0.11223886639E+04  0.11584711095E+04  0.17425012198E+04  0.65864270000E+03 0.  0.
    8880022    1    1    2    0    0 -0.26242528497E+02 -0.11223886639E+04 -0.79568341842E+03  0.13845391791E+04  0.15294330000E+03 0.  0.
<mgrwt>
<rscale>  0 0.12572764E+04</rscale>
<asrwt>0</asrwt>
<pdfrwt beam="1">  1        1 0.26844831E+00 0.13016356E+04</pdfrwt>
<pdfrwt beam="2">  1       -1 0.21263482E+00 0.13016356E+04</pdfrwt>
<totfact> 0.53017964E-01</totfact>
</mgrwt>
</event>
<event>
 4    1  0.1065596E-007  0.1342727E+04  0.7818608E-02  0.9029514E-01
         -1   -1    0    0    0  501 -0.00000000000E+00  0.00000000000E+00  0.99484037321E+03  0.99484037322E+03  0.50400000000E-02 0.  1.
          1   -1    0    0  501    0  0.00000000000E+00 -0.00000000000E+00 -0.18599064237E+04  0.18599064237E+04  0.50400000000E-02 0. -1.
    8880023    1    1    2    0    0 -0.17985941132E+03  0.11561818210E+04  0.76781926724E+02  0.13449206228E+04  0.65864270000E+03 0.  1.
    8880022    1    1    2    0    0  0.17985941132E+03 -0.11561818210E+04 -0.94184797719E+03  0.15098261741E+04  0.15294330000E+03 0.  0.
<mgrwt>
<rscale>  0 0.13000651E+04</rscale>
<asrwt>0</asrwt>
<pdfrwt beam="1">  1        1 0.28613945E+00 0.13427271E+04</pdfrwt>
<pdfrwt beam="2">  1       -1 0.15305237E+00 0.13427271E+04</pdfrwt>
<totfact> 0.11833227E+00</totfact>
</mgrwt>
</event>
<event>
 4    1  0.1065596E-007  0.6590601E+03  0.7818608E-02  0.1025141E+00
         -1   -1    0    0    0  501 -0.00000000000E+00  0.00000000000E+00  0.12550904871E+04  0.12550904871E+04  0.50400000000E-02 0.  1.
          1   -1    0    0  501    0  0.00000000000E+00 -0.00000000000E+00 -0.12206563293E+04  0.12206563294E+04  0.50400000000E-02 0. -1.
    8880023    1    1    2    0    0  0.13364584356E+02 -0.19273248166E+02 -0.11261857799E+04  0.13048581100E+04  0.65864270000E+03 0. -1.
    8880022    1    1    2    0    0 -0.13364584356E+02  0.19273248166E+02  0.11606199377E+04  0.11708887065E+04  0.15294330000E+03 0.  0.
<mgrwt>
<rscale>  0 0.45876282E+03</rscale>
<asrwt>0</asrwt>
<pdfrwt beam="1">  1        1 0.18779328E+00 0.65906015E+03</pdfrwt>
<pdfrwt beam="2">  1       -1 0.19309084E+00 0.65906015E+03</pdfrwt>
<totfact> 0.18477139E+00</totfact>
</mgrwt>
</event>
<event>
 4    1  0.1065596E-007  0.8365439E+03  0.7818608E-02  0.9636732E-01
         -1   -1    0    0    0  501 -0.00000000000E+00  0.00000000000E+00  0.55774393671E+03  0.55774393673E+03  0.50400000000E-02 0.  1.
          1   -1    0    0  501    0  0.00000000000E+00 -0.00000000000E+00 -0.10809432576E+04  0.10809432577E+04  0.50400000000E-02 0. -1.
    8880023    1    1    2    0    0  0.49761773139E+03  0.13554385967E+03 -0.68032625853E+03  0.10782622913E+04  0.65864270000E+03 0.  1.
    8880022    1    1    2    0    0 -0.49761773139E+03 -0.13554385967E+03  0.15712693759E+03  0.56042490311E+03  0.15294330000E+03 0.  0.
<mgrwt>
<rscale>  0 0.74912015E+03</rscale>
<asrwt>0</asrwt>
<pdfrwt beam="1">  1        1 0.16629896E+00 0.83654393E+03</pdfrwt>
<pdfrwt beam="2">  1       -1 0.85806760E-01 0.83654393E+03</pdfrwt>
<totfact> 0.17929514E+01</totfact>
</mgrwt>
</event>
<event>
 4    1  0.1065596E-007  0.7175977E+03  0.7818608E-02  0.9930800E-01
         -1   -1    0    0    0  501 -0.00000000000E+00  0.00000000000E+00  0.16281679005E+04  0.16281679005E+04  0.50400000000E-02 0.  1.
          1   -1    0    0  501    0  0.00000000000E+00 -0.00000000000E+00 -0.84911646632E+03  0.84911646633E+03  0.50400000000E-02 0. -1.
    8880023    1    1    2    0    0 -0.69635078645E+01  0.28475903361E+03 -0.67653275134E+03  0.98622663093E+03  0.65864270000E+03 0. -1.
    8880022    1    1    2    0    0  0.69635078645E+01 -0.28475903361E+03  0.14555841856E+04  0.14910577359E+04  0.15294330000E+03 0.  0.
<mgrwt>
<rscale>  0 0.58791530E+03</rscale>
<asrwt>0</asrwt>
<pdfrwt beam="1">  1        1 0.13063330E+00 0.71759766E+03</pdfrwt>
<pdfrwt beam="2">  1       -1 0.25048737E+00 0.71759766E+03</pdfrwt>
<totfact> 0.14651580E+00</totfact>
</mgrwt>
</event>
<event>
 4    1  0.1065596E-007  0.6715757E+03  0.7818608E-02  0.1014558E+00
         -1   -1    0    0    0  501 -0.00000000000E+00  0.00000000000E+00  0.68951562928E+03  0.68951562930E+03  0.50400000000E-02 0.  1.
          1   -1    0    0  501    0  0.00000000000E+00 -0.00000000000E+00 -0.26648359438E+04  0.26648359438E+04  0.50400000000E-02 0. -1.
    8880023    1    1    2    0    0  0.13035431317E+03  0.14543309395E+02 -0.26065866421E+04  0.26917109585E+04  0.65864270000E+03 0. -1.
    8880022    1    1    2    0    0 -0.13035431317E+03 -0.14543309395E+02  0.63126632759E+03  0.66264061464E+03  0.15294330000E+03 0.  0.
<mgrwt>
<rscale>  0 0.49702800E+03</rscale>
<asrwt>0</asrwt>
<pdfrwt beam="1">  1        1 0.40997476E+00 0.67157573E+03</pdfrwt>
<pdfrwt beam="2">  1       -1 0.10607933E+00 0.67157573E+03</pdfrwt>
<totfact> 0.94294771E-01</totfact>
</mgrwt>
</event>
<event>
 4    1  0.1065596E-007  0.7177304E+03  0.7818608E-02  0.9930342E-01
         -1   -1    0    0    0  501 -0.00000000000E+00  0.00000000000E+00  0.15432306573E+03  0.15432306581E+03  0.50400000000E-02 0.  1.
          1   -1    0    0  501    0  0.00000000000E+00 -0.00000000000E+00 -0.21750346213E+04  0.21750346213E+04  0.50400000000E-02 0. -1.
    8880023    1    1    2    0    0  0.17872257373E+03  0.22222734481E+03 -0.17995511000E+04  0.19374006088E+04  0.65864270000E+03 0. -1.
    8880022    1    1    2    0    0 -0.17872257373E+03 -0.22222734481E+03 -0.22116045560E+03  0.39195707836E+03  0.15294330000E+03 0. -1.
<mgrwt>
<rscale>  0 0.58813076E+03</rscale>
<asrwt>0</asrwt>
<pdfrwt beam="1">  1        1 0.33462069E+00 0.71773042E+03</pdfrwt>
<pdfrwt beam="2">  1       -1 0.23742012E-01 0.71773042E+03</pdfrwt>
<totfact> 0.36146940E+01</totfact>
</mgrwt>
</event>
<event>
 4    1  0.1065596E-007  0.1047998E+04  0.7818608E-02  0.9321292E-01
          1   -1    0    0  501    0  0.00000000000E+00  0.00000000000E+00  0.24807684718E+04  0.24807684718E+04  0.50400000000E-02 0. -1.
         -1   -1    0    0    0  501 -0.00000000000E+00 -0.00000000000E+00 -0.94651708150E+03  0.94651708152E+03  0.50400000000E-02 0.  1.
    8880023    1    1    2    0    0 -0.64579745545E+03  0.49742928687E+03  0.21516685647E+04  0.23933194663E+04  0.65864270000E+03 0. -1.
    8880022    1    1    2    0    0  0.64579745545E+03 -0.49742928687E+03 -0.61741717443E+03  0.10339660871E+04  0.15294330000E+03 0.  0.
<mgrwt>
<rscale>  0 0.98846130E+03</rscale>
<asrwt>0</asrwt>
<pdfrwt beam="1">  1        1 0.38165668E+00 0.10479983E+04</pdfrwt>
<pdfrwt beam="2">  1       -1 0.14561801E+00 0.10479983E+04</pdfrwt>
<totfact> 0.53297736E-01</totfact>
</mgrwt>
</event>
<event>
 4    1  0.1065596E-007  0.9068903E+03  0.7818608E-02  0.9515060E-01
         -1   -1    0    0    0  501 -0.00000000000E+00  0.00000000000E+00  0.31391933149E+03  0.31391933153E+03  0.50400000000E-02 0.  1.
          1   -1    0    0  501    0  0.00000000000E+00 -0.00000000000E+00 -0.32330264044E+04  0.32330264044E+04  0.50400000000E-02 0. -1.
    8880023    1    1    2    0    0 -0.21038824072E+03  0.58683613609E+03 -0.27316201679E+04  0.28782284153E+04  0.65864270000E+03 0. -1.
    8880022    1    1    2    0    0  0.21038824072E+03 -0.58683613609E+03 -0.18748690505E+03  0.66871732072E+03  0.15294330000E+03 0.  0.
<mgrwt>
<rscale>  0 0.83182579E+03</rscale>
<asrwt>0</asrwt>
<pdfrwt beam="1">  1        1 0.49738866E+00 0.90689033E+03</pdfrwt>
<pdfrwt beam="2">  1       -1 0.48295284E-01 0.90689033E+03</pdfrwt>
<totfact> 0.18048205E+00</totfact>
</mgrwt>
</event>
<event>
 4    1  0.1065596E-007  0.9060921E+03  0.7818608E-02  0.9516322E-01
          1   -1    0    0  501    0  0.00000000000E+00  0.00000000000E+00  0.13249115177E+04  0.13249115177E+04  0.50400000000E-02 0. -1.
         -1   -1    0    0    0  501 -0.00000000000E+00 -0.00000000000E+00 -0.78073310084E+03  0.78073310085E+03  0.50400000000E-02 0.  1.
    8880023    1    1    2    0    0 -0.25848820038E+03 -0.56601811786E+03  0.97692393285E+03  0.13324350777E+04  0.65864270000E+03 0.  0.
    8880022    1    1    2    0    0  0.25848820038E+03  0.56601811786E+03 -0.43274551597E+03  0.77320954087E+03  0.15294330000E+03 0.  0.
<mgrwt>
<rscale>  0 0.83091107E+03</rscale>
<asrwt>0</asrwt>
<pdfrwt beam="1">  1        1 0.20383254E+00 0.90609208E+03</pdfrwt>
<pdfrwt beam="2">  1       -1 0.12011279E+00 0.90609208E+03</pdfrwt>
<totfact> 0.54479876E+00</totfact>
</mgrwt>
</event>
<event>
 4    1  0.1065596E-007  0.6869333E+03  0.7818608E-02  0.1005646E+00
          1   -1    0    0  501    0  0.00000000000E+00  0.00000000000E+00  0.62384411338E+03  0.62384411340E+03  0.50400000000E-02 0. -1.
         -1   -1    0    0    0  501 -0.00000000000E+00 -0.00000000000E+00 -0.85206620780E+03  0.85206620782E+03  0.50400000000E-02 0.  1.
    8880023    1    1    2    0    0  0.92033006873E+02  0.17203781638E+03  0.40392537963E+03  0.79688958030E+03  0.65864270000E+03 0.  0.
    8880022    1    1    2    0    0 -0.92033006873E+02 -0.17203781638E+03 -0.63214747406E+03  0.67902074091E+03  0.15294330000E+03 0.  0.
<mgrwt>
<rscale>  0 0.53242551E+03</rscale>
<asrwt>0</asrwt>
<pdfrwt beam="1">  1        1 0.95976018E-01 0.68693325E+03</pdfrwt>
<pdfrwt beam="2">  1       -1 0.13108711E+00 0.68693325E+03</pdfrwt>
<totfact> 0.16636250E+01</totfact>
</mgrwt>
</event>
<event>
 4    1  0.1065596E-007  0.7326791E+03  0.7818608E-02  0.9881809E-01
          1   -1    0    0  501    0  0.00000000000E+00  0.00000000000E+00  0.20457703154E+04  0.20457703154E+04  0.50400000000E-02 0. -1.
         -1   -1    0    0    0  501 -0.00000000000E+00 -0.00000000000E+00 -0.63331228287E+03  0.63331228289E+03  0.50400000000E-02 0.  1.
    8880023    1    1    2    0    0  0.54481941813E+02  0.31629131620E+03  0.19224850649E+04  0.20573690747E+04  0.65864270000E+03 0. -1.
    8880022    1    1    2    0    0 -0.54481941813E+02 -0.31629131620E+03 -0.51002703233E+03  0.62171352358E+03  0.15294330000E+03 0.  0.
<mgrwt>
<rscale>  0 0.61151033E+03</rscale>
<asrwt>0</asrwt>
<pdfrwt beam="1">  1        1 0.31473389E+00 0.73267911E+03</pdfrwt>
<pdfrwt beam="2">  1       -1 0.97432659E-01 0.73267911E+03</pdfrwt>
<totfact> 0.29649921E+00</totfact>
</mgrwt>
</event>
<event>
 4    1  0.1065596E-007  0.6750288E+03  0.7818608E-02  0.1012288E+00
         -1   -1    0    0    0  501 -0.00000000000E+00  0.00000000000E+00  0.90082231168E+03  0.90082231169E+03  0.50400000000E-02 0.  1.
          1   -1    0    0  501    0  0.00000000000E+00 -0.00000000000E+00 -0.11268947774E+04  0.11268947774E+04  0.50400000000E-02 0. -1.
    8880023    1    1    2    0    0 -0.12781912564E+02 -0.14727607664E+03 -0.10103527550E+04  0.12151035001E+04  0.65864270000E+03 0. -1.
    8880022    1    1    2    0    0  0.12781912564E+02  0.14727607664E+03  0.78428028925E+03  0.81261358908E+03  0.15294330000E+03 0.  0.
<mgrwt>
<rscale>  0 0.50575287E+03</rscale>
<asrwt>0</asrwt>
<pdfrwt beam="1">  1        1 0.17336843E+00 0.67502876E+03</pdfrwt>
<pdfrwt beam="2">  1       -1 0.13858805E+00 0.67502876E+03</pdfrwt>
<totfact> 0.54699270E+00</totfact>
</mgrwt>
</event>
<event>
 4    1  0.1065596E-007  0.6670394E+03  0.7818608E-02  0.1017880E+00
          1   -1    0    0  501    0  0.00000000000E+00  0.00000000000E+00  0.18034529079E+04  0.18034529079E+04  0.50400000000E-02 0. -1.
         -1   -1    0    0    0  501 -0.00000000000E+00 -0.00000000000E+00 -0.12965125332E+03  0.12965125342E+03  0.50400000000E-02 0.  1.
    8880023    1    1    2    0    0  0.10474199102E+03  0.12670165485E+02  0.15994626878E+04  0.17329808174E+04  0.65864270000E+03 0. -1.
    8880022    1    1    2    0    0 -0.10474199102E+03 -0.12670165485E+02  0.74338966838E+02  0.20012334392E+03  0.15294330000E+03 0.  0.
<mgrwt>
<rscale>  0 0.48459320E+03</rscale>
<asrwt>0</asrwt>
<pdfrwt beam="1">  1        1 0.27745429E+00 0.66703945E+03</pdfrwt>
<pdfrwt beam="2">  1       -1 0.19946347E-01 0.66703945E+03</pdfrwt>
<totfact> 0.86271667E+01</totfact>
</mgrwt>
</event>
<event>
 4    1  0.1065596E-007  0.1129521E+04  0.7818608E-02  0.9228879E-01
          1   -1    0    0  501    0  0.00000000000E+00  0.00000000000E+00  0.80071325757E+03  0.80071325759E+03  0.50400000000E-02 0. -1.
         -1   -1    0    0    0  501 -0.00000000000E+00 -0.00000000000E+00 -0.23579831773E+04  0.23579831773E+04  0.50400000000E-02 0.  1.
    8880023    1    1    2    0    0  0.77414486049E+03 -0.49265259139E+03  0.22179727027E+03  0.11510912545E+04  0.65864270000E+03 0. -1.
    8880022    1    1    2    0    0 -0.77414486049E+03  0.49265259139E+03 -0.17790671900E+04  0.20076051804E+04  0.15294330000E+03 0.  0.
<mgrwt>
<rscale>  0 0.10760258E+04</rscale>
<asrwt>0</asrwt>
<pdfrwt beam="1">  1        1 0.12318666E+00 0.11295207E+04</pdfrwt>
<pdfrwt beam="2">  1       -1 0.36276664E+00 0.11295207E+04</pdfrwt>
<totfact> 0.28250068E-01</totfact>
</mgrwt>
</event>
<event>
 4    1  0.1065596E-007  0.9766850E+03  0.7818608E-02  0.9412717E-01
          1   -1    0    0  501    0  0.00000000000E+00  0.00000000000E+00  0.14597994369E+04  0.14597994369E+04  0.50400000000E-02 0. -1.
         -1   -1    0    0    0  501 -0.00000000000E+00 -0.00000000000E+00 -0.84652649630E+03  0.84652649631E+03  0.50400000000E-02 0.  1.
    8880023    1    1    2    0    0 -0.39258663230E+03 -0.60496204912E+03  0.10623572214E+04  0.14430926571E+04  0.65864270000E+03 0.  0.
    8880022    1    1    2    0    0  0.39258663230E+03  0.60496204912E+03 -0.44908428083E+03  0.86323327614E+03  0.15294330000E+03 0.  0.
<mgrwt>
<rscale>  0 0.91036452E+03</rscale>
<asrwt>0</asrwt>
<pdfrwt beam="1">  1        1 0.22458453E+00 0.97668498E+03</pdfrwt>
<pdfrwt beam="2">  1       -1 0.13023485E+00 0.97668498E+03</pdfrwt>
<totfact> 0.35507075E+00</totfact>
</mgrwt>
</event>
<event>
 4    1  0.1065596E-007  0.8129426E+03  0.7818608E-02  0.9683480E-01
         -1   -1    0    0    0  501 -0.00000000000E+00  0.00000000000E+00  0.15464217932E+04  0.15464217932E+04  0.50400000000E-02 0.  1.
          1   -1    0    0  501    0  0.00000000000E+00 -0.00000000000E+00 -0.92881036556E+03  0.92881036557E+03  0.50400000000E-02 0. -1.
    8880023    1    1    2    0    0 -0.14081272893E+03  0.45523313637E+03 -0.69558041840E+03  0.10699101634E+04  0.65864270000E+03 0. -1.
    8880022    1    1    2    0    0  0.14081272893E+03 -0.45523313637E+03  0.13131918460E+04  0.14053219953E+04  0.15294330000E+03 0.  0.
<mgrwt>
<rscale>  0 0.72008965E+03</rscale>
<asrwt>0</asrwt>
<pdfrwt beam="1">  1        1 0.14289390E+00 0.81294258E+03</pdfrwt>
<pdfrwt beam="2">  1       -1 0.23791104E+00 0.81294258E+03</pdfrwt>
<totfact> 0.14946461E+00</totfact>
</mgrwt>
</event>
<event>
 4    1  0.1065596E-007  0.6966858E+03  0.7818608E-02  0.1001124E+00
         -1   -1    0    0    0  501 -0.00000000000E+00  0.00000000000E+00  0.20877345772E+03  0.20877345778E+03  0.50400000000E-02 0.  1.
          1   -1    0    0  501    0  0.00000000000E+00 -0.00000000000E+00 -0.18408493625E+04  0.18408493625E+04  0.50400000000E-02 0. -1.
    8880023    1    1    2    0    0 -0.44501957727E+02 -0.22266685227E+03 -0.16334786526E+04  0.17758444938E+04  0.65864270000E+03 0.  0.
    8880022    1    1    2    0    0  0.44501957727E+02  0.22266685227E+03  0.14027478210E+01  0.27377832649E+03  0.15294330000E+03 0.  1.
<mgrwt>
<rscale>  0 0.55160231E+03</rscale>
<asrwt>0</asrwt>
<pdfrwt beam="1">  1        1 0.28320758E+00 0.69668584E+03</pdfrwt>
<pdfrwt beam="2">  1       -1 0.32118995E-01 0.69668584E+03</pdfrwt>
<totfact> 0.35994131E+01</totfact>
</mgrwt>
</event>
<event>
 4    1  0.1065596E-007  0.7270707E+03  0.7818608E-02  0.9899349E-01
         -1   -1    0    0    0  501 -0.00000000000E+00  0.00000000000E+00  0.18497694125E+04  0.18497694125E+04  0.50400000000E-02 0.  1.
          1   -1    0    0  501    0  0.00000000000E+00 -0.00000000000E+00 -0.33144475029E+03  0.33144475033E+03  0.50400000000E-02 0. -1.
    8880023    1    1    2    0    0  0.26811244259E+03  0.15145063464E+03  0.11466259430E+03  0.73605658301E+03  0.65864270000E+03 0. -1.
    8880022    1    1    2    0    0 -0.26811244259E+03 -0.15145063464E+03  0.14036620679E+04  0.14451575798E+04  0.15294330000E+03 0.  0.
<mgrwt>
<rscale>  0 0.60292839E+03</rscale>
<asrwt>0</asrwt>
<pdfrwt beam="1">  1        1 0.50991498E-01 0.72707069E+03</pdfrwt>
<pdfrwt beam="2">  1       -1 0.28457992E+00 0.72707069E+03</pdfrwt>
<totfact> 0.33573254E+00</totfact>
</mgrwt>
</event>
<event>
 4    1  0.1065596E-007  0.8158286E+03  0.7818608E-02  0.9677562E-01
          1   -1    0    0  501    0  0.00000000000E+00  0.00000000000E+00  0.13588002238E+04  0.13588002238E+04  0.50400000000E-02 0. -1.
         -1   -1    0    0    0  501 -0.00000000000E+00 -0.00000000000E+00 -0.76934188060E+03  0.76934188061E+03  0.50400000000E-02 0.  1.
    8880023    1    1    2    0    0  0.42642560082E+03 -0.22344426045E+03  0.11264855554E+04  0.13908795934E+04  0.65864270000E+03 0. -1.
    8880022    1    1    2    0    0 -0.42642560082E+03  0.22344426045E+03 -0.53702721217E+03  0.73726251104E+03  0.15294330000E+03 0.  0.
<mgrwt>
<rscale>  0 0.72368622E+03</rscale>
<asrwt>0</asrwt>
<pdfrwt beam="1">  1        1 0.20904619E+00 0.81582862E+03</pdfrwt>
<pdfrwt beam="2">  1       -1 0.11836029E+00 0.81582862E+03</pdfrwt>
<totfact> 0.54127337E+00</totfact>
</mgrwt>
</event>
<event>
 4    1  0.1065596E-007  0.7286016E+03  0.7818608E-02  0.9894488E-01
          1   -1    0    0  501    0  0.00000000000E+00  0.00000000000E+00  0.13128939098E+04  0.13128939098E+04  0.50400000000E-02 0. -1.
         -1   -1    0    0    0  501 -0.00000000000E+00 -0.00000000000E+00 -0.51517415281E+03  0.51517415284E+03  0.50400000000E-02 0.  1.
    8880023    1    1    2    0    0 -0.80685307943E+02 -0.30089859217E+03  0.11320007644E+04  0.13462117287E+04  0.65864270000E+03 0.  0.
    8880022    1    1    2    0    0  0.80685307943E+02  0.30089859217E+03 -0.33428100736E+03  0.48185633397E+03  0.15294330000E+03 0.  0.
<mgrwt>
<rscale>  0 0.60529169E+03</rscale>
<asrwt>0</asrwt>
<pdfrwt beam="1">  1        1 0.20198368E+00 0.72860160E+03</pdfrwt>
<pdfrwt beam="2">  1       -1 0.79257563E-01 0.72860160E+03</pdfrwt>
<totfact> 0.14614101E+01</totfact>
</mgrwt>
</event>
<event>
 4    1  0.1065596E-007  0.1149276E+04  0.7818608E-02  0.9208080E-01
          1   -1    0    0  501    0  0.00000000000E+00  0.00000000000E+00  0.50103265489E+03  0.50103265492E+03  0.50400000000E-02 0. -1.
         -1   -1    0    0    0  501 -0.00000000000E+00 -0.00000000000E+00 -0.26312434065E+04  0.26312434066E+04  0.50400000000E-02 0.  1.
    8880023    1    1    2    0    0  0.44655915227E+03  0.82922190900E+03 -0.52189463812E+03  0.12622235422E+04  0.65864270000E+03 0. -1.
    8880022    1    1    2    0    0 -0.44655915227E+03 -0.82922190900E+03 -0.16083161135E+04  0.18700525193E+04  0.15294330000E+03 0.  0.
<mgrwt>
<rscale>  0 0.10970416E+04</rscale>
<asrwt>0</asrwt>
<pdfrwt beam="1">  1        1 0.77081948E-01 0.11492755E+04</pdfrwt>
<pdfrwt beam="2">  1       -1 0.40480667E+00 0.11492755E+04</pdfrwt>
<totfact> 0.29437573E-01</totfact>
</mgrwt>
</event>
<event>
 4    1  0.1065596E-007  0.1097908E+04  0.7818608E-02  0.9263389E-01
          1   -1    0    0  501    0  0.00000000000E+00  0.00000000000E+00  0.41491288395E+04  0.41491288395E+04  0.50400000000E-02 0. -1.
         -1   -1    0    0    0  501 -0.00000000000E+00 -0.00000000000E+00 -0.31324576103E+03  0.31324576107E+03  0.50400000000E-02 0.  1.
    8880023    1    1    2    0    0 -0.20883554734E+03  0.85321750000E+03  0.31548060538E+04  0.33403897724E+04  0.65864270000E+03 0. -1.
    8880022    1    1    2    0    0  0.20883554734E+03 -0.85321750000E+03  0.68107702468E+03  0.11219848282E+04  0.15294330000E+03 0.  0.
<mgrwt>
<rscale>  0 0.10422439E+04</rscale>
<asrwt>0</asrwt>
<pdfrwt beam="1">  1        1 0.63832757E+00 0.10979083E+04</pdfrwt>
<pdfrwt beam="2">  1       -1 0.48191651E-01 0.10979083E+04</pdfrwt>
<totfact> 0.31575249E-01</totfact>
</mgrwt>
</event>
<event>
 4    1  0.1065596E-007  0.6947982E+03  0.7818608E-02  0.1001950E+00
          1   -1    0    0  501    0  0.00000000000E+00  0.00000000000E+00  0.46068960226E+03  0.46068960229E+03  0.50400000000E-02 0. -1.
         -1   -1    0    0    0  501 -0.00000000000E+00 -0.00000000000E+00 -0.18080922420E+04  0.18080922420E+04  0.50400000000E-02 0.  1.
    8880023    1    1    2    0    0  0.14186152185E+03  0.16973414646E+03  0.18011979765E+03  0.71776578326E+03  0.65864270000E+03 0. -1.
    8880022    1    1    2    0    0 -0.14186152185E+03 -0.16973414646E+03 -0.15275224374E+04  0.15510160610E+04  0.15294330000E+03 0.  0.
<mgrwt>
<rscale>  0 0.54803192E+03</rscale>
<asrwt>0</asrwt>
<pdfrwt beam="1">  1        1 0.70875324E-01 0.69479823E+03</pdfrwt>
<pdfrwt beam="2">  1       -1 0.27816803E+00 0.69479823E+03</pdfrwt>
<totfact> 0.23991107E+00</totfact>
</mgrwt>
</event>
<event>
 4    1  0.1065596E-007  0.1060576E+04  0.7818608E-02  0.9306275E-01
         -1   -1    0    0    0  501 -0.00000000000E+00  0.00000000000E+00  0.91853827651E+03  0.91853827652E+03  0.50400000000E-02 0.  1.
          1   -1    0    0  501    0  0.00000000000E+00 -0.00000000000E+00 -0.17604607691E+04  0.17604607692E+04  0.50400000000E-02 0. -1.
    8880023    1    1    2    0    0  0.82830678795E+03 -0.70132353828E+02 -0.13314668560E+04  0.17022411336E+04  0.65864270000E+03 0.  0.
    8880022    1    1    2    0    0 -0.82830678795E+03  0.70132353828E+02  0.48954436340E+03  0.97675791206E+03  0.15294330000E+03 0.  0.
<mgrwt>
<rscale>  0 0.10020725E+04</rscale>
<asrwt>0</asrwt>
<pdfrwt beam="1">  1        1 0.27084012E+00 0.10605757E+04</pdfrwt>
<pdfrwt beam="2">  1       -1 0.14131358E+00 0.10605757E+04</pdfrwt>
<totfact> 0.17719851E+00</totfact>
</mgrwt>
</event>
<event>
 4    1  0.1065596E-007  0.1043554E+04  0.7818608E-02  0.9326670E-01
          1   -1    0    0  501    0  0.00000000000E+00  0.00000000000E+00  0.14413572650E+04  0.14413572651E+04  0.50400000000E-02 0. -1.
         -1   -1    0    0    0  501 -0.00000000000E+00 -0.00000000000E+00 -0.74849050442E+03  0.74849050443E+03  0.50400000000E-02 0.  1.
    8880023    1    1    2    0    0 -0.73155026146E+03  0.34645312063E+03  0.85644275431E+03  0.13499999806E+04  0.65864270000E+03 0. -1.
    8880022    1    1    2    0    0  0.73155026146E+03 -0.34645312063E+03 -0.16357599368E+03  0.83984778893E+03  0.15294330000E+03 0.  0.
<mgrwt>
<rscale>  0 0.98364191E+03</rscale>
<asrwt>0</asrwt>
<pdfrwt beam="1">  1        1 0.22174727E+00 0.10435544E+04</pdfrwt>
<pdfrwt beam="2">  1       -1 0.11515239E+00 0.10435544E+04</pdfrwt>
<totfact> 0.49161372E+00</totfact>
</mgrwt>
</event>
<event>
 4    1  0.1065596E-007  0.9416506E+03  0.7818608E-02  0.9462230E-01
         -1   -1    0    0    0  501 -0.00000000000E+00  0.00000000000E+00  0.90661103872E+03  0.90661103873E+03  0.50400000000E-02 0.  1.
          1   -1    0    0  501    0  0.00000000000E+00 -0.00000000000E+00 -0.14313953712E+04  0.14313953712E+04  0.50400000000E-02 0. -1.
    8880023    1    1    2    0    0 -0.12004752587E+03  0.66218146213E+03 -0.10939763718E+04  0.14434300141E+04  0.65864270000E+03 0.  0.
    8880022    1    1    2    0    0  0.12004752587E+03 -0.66218146213E+03  0.56919203936E+03  0.89457639581E+03  0.15294330000E+03 0.  1.
<mgrwt>
<rscale>  0 0.87126643E+03</rscale>
<asrwt>0</asrwt>
<pdfrwt beam="1">  1        1 0.22021467E+00 0.94165063E+03</pdfrwt>
<pdfrwt beam="2">  1       -1 0.13947862E+00 0.94165063E+03</pdfrwt>
<totfact> 0.31305690E+00</totfact>
</mgrwt>
</event>
<event>
 4    1  0.1065596E-007  0.7815700E+03  0.7818608E-02  0.9752162E-01
         -1   -1    0    0    0  501 -0.00000000000E+00  0.00000000000E+00  0.52193663267E+03  0.52193663269E+03  0.50400000000E-02 0.  1.
          1   -1    0    0  501    0  0.00000000000E+00 -0.00000000000E+00 -0.12334900881E+04  0.12334900882E+04  0.50400000000E-02 0. -1.
    8880023    1    1    2    0    0 -0.40183577525E+03 -0.12477740004E+03 -0.96434115541E+03  0.12412918513E+04  0.65864270000E+03 0. -1.
    8880022    1    1    2    0    0  0.40183577525E+03  0.12477740004E+03  0.25278769993E+03  0.51413486954E+03  0.15294330000E+03 0.  0.
<mgrwt>
<rscale>  0 0.67994230E+03</rscale>
<asrwt>0</asrwt>
<pdfrwt beam="1">  1        1 0.18976770E+00 0.78156996E+03</pdfrwt>
<pdfrwt beam="2">  1       -1 0.80297944E-01 0.78156996E+03</pdfrwt>
<totfact> 0.16077235E+01</totfact>
</mgrwt>
</event>
<event>
 4    1  0.1065596E-007  0.7080461E+03  0.7818608E-02  0.9965329E-01
          1   -1    0    0  501    0  0.00000000000E+00  0.00000000000E+00  0.68604417632E+03  0.68604417634E+03  0.50400000000E-02 0. -1.
         -1   -1    0    0    0  501 -0.00000000000E+00 -0.00000000000E+00 -0.72938251372E+03  0.72938251373E+03  0.50400000000E-02 0.  1.
    8880023    1    1    2    0    0 -0.25058204756E+03  0.68758270398E+02  0.44877611343E+03  0.83828948971E+03  0.65864270000E+03 0. -1.
    8880022    1    1    2    0    0  0.25058204756E+03 -0.68758270398E+02 -0.49211445083E+03  0.57713720036E+03  0.15294330000E+03 0.  0.
<mgrwt>
<rscale>  0 0.57196971E+03</rscale>
<asrwt>0</asrwt>
<pdfrwt beam="1">  1        1 0.10554526E+00 0.70804609E+03</pdfrwt>
<pdfrwt beam="2">  1       -1 0.11221269E+00 0.70804609E+03</pdfrwt>
<totfact> 0.21091638E+01</totfact>
</mgrwt>
</event>
<event>
 4    1  0.1065596E-007  0.7398676E+03  0.7818608E-02  0.9860333E-01
         -1   -1    0    0    0  501 -0.00000000000E+00  0.00000000000E+00  0.41342714053E+03  0.41342714057E+03  0.50400000000E-02 0.  1.
          1   -1    0    0  501    0  0.00000000000E+00 -0.00000000000E+00 -0.31948142038E+04  0.31948142038E+04  0.50400000000E-02 0. -1.
    8880023    1    1    2    0    0  0.24170422473E+03  0.23488913802E+03 -0.30579680042E+04  0.31461996695E+04  0.65864270000E+03 0. -1.
    8880022    1    1    2    0    0 -0.24170422473E+03 -0.23488913802E+03  0.27658094093E+03  0.46204167487E+03  0.15294330000E+03 0.  1.
<mgrwt>
<rscale>  0 0.62222839E+03</rscale>
<asrwt>0</asrwt>
<pdfrwt beam="1">  1        1 0.49150986E+00 0.73986759E+03</pdfrwt>
<pdfrwt beam="2">  1       -1 0.63604178E-01 0.73986759E+03</pdfrwt>
<totfact> 0.11667134E+00</totfact>
</mgrwt>
</event>
<event>
 4    1  0.1065596E-007  0.1210582E+04  0.7818608E-02  0.9146904E-01
          1   -1    0    0  501    0  0.00000000000E+00  0.00000000000E+00  0.19397607753E+04  0.19397607754E+04  0.50400000000E-02 0. -1.
         -1   -1    0    0    0  501 -0.00000000000E+00 -0.00000000000E+00 -0.10441545082E+04  0.10441545082E+04  0.50400000000E-02 0.  1.
    8880023    1    1    2    0    0  0.66489327228E+03  0.76786382141E+03  0.13905828769E+04  0.18436997737E+04  0.65864270000E+03 0. -1.
    8880022    1    1    2    0    0 -0.66489327228E+03 -0.76786382141E+03 -0.49497660968E+03  0.11402155099E+04  0.15294330000E+03 0.  0.
<mgrwt>
<rscale>  0 0.11618679E+04</rscale>
<asrwt>0</asrwt>
<pdfrwt beam="1">  1        1 0.29842473E+00 0.12105817E+04</pdfrwt>
<pdfrwt beam="2">  1       -1 0.16063916E+00 0.12105817E+04</pdfrwt>
<totfact> 0.92800961E-01</totfact>
</mgrwt>
</event>
<event>
 4    1  0.1065596E-007  0.6726905E+03  0.7818608E-02  0.1013803E+00
          1   -1    0    0  501    0  0.00000000000E+00  0.00000000000E+00  0.83737930863E+03  0.83737930864E+03  0.50400000000E-02 0. -1.
         -1   -1    0    0    0  501 -0.00000000000E+00 -0.00000000000E+00 -0.42614484997E+03  0.42614485000E+03  0.50400000000E-02 0.  1.
    8880023    1    1    2    0    0  0.15303789059E+01 -0.13674765327E+03  0.65909615218E+03  0.94176441152E+03  0.65864270000E+03 0.  0.
    8880022    1    1    2    0    0 -0.15303789059E+01  0.13674765327E+03 -0.24786169353E+03  0.32175974712E+03  0.15294330000E+03 0.  0.
<mgrwt>
<rscale>  0 0.49990660E+03</rscale>
<asrwt>0</asrwt>
<pdfrwt beam="1">  1        1 0.12882758E+00 0.67269047E+03</pdfrwt>
<pdfrwt beam="2">  1       -1 0.65560747E-01 0.67269047E+03</pdfrwt>
<totfact> 0.49912910E+01</totfact>
</mgrwt>
</event>
<event>
 4    1  0.1065596E-007  0.8157622E+03  0.7818608E-02  0.9677697E-01
         -1   -1    0    0    0  501 -0.00000000000E+00  0.00000000000E+00  0.49951995944E+03  0.49951995947E+03  0.50400000000E-02 0.  1.
          1   -1    0    0  501    0  0.00000000000E+00 -0.00000000000E+00 -0.13015888608E+04  0.13015888608E+04  0.50400000000E-02 0. -1.
    8880023    1    1    2    0    0 -0.47192269794E+03  0.94587403807E+02 -0.97135868402E+03  0.12684658880E+04  0.65864270000E+03 0.  0.
    8880022    1    1    2    0    0  0.47192269794E+03 -0.94587403807E+02  0.16928978264E+03  0.53264293228E+03  0.15294330000E+03 0.  0.
<mgrwt>
<rscale>  0 0.72360365E+03</rscale>
<asrwt>0</asrwt>
<pdfrwt beam="1">  1        1 0.20024444E+00 0.81576223E+03</pdfrwt>
<pdfrwt beam="2">  1       -1 0.76849225E-01 0.81576223E+03</pdfrwt>
<totfact> 0.15706460E+01</totfact>
</mgrwt>
</event>
<event>
 4    1  0.1065596E-007  0.1000137E+04  0.7818608E-02  0.9381379E-01
          1   -1    0    0  501    0  0.00000000000E+00  0.00000000000E+00  0.13184473720E+04  0.13184473720E+04  0.50400000000E-02 0. -1.
         -1   -1    0    0    0  501 -0.00000000000E+00 -0.00000000000E+00 -0.99444910672E+03  0.99444910673E+03  0.50400000000E-02 0.  1.
    8880023    1    1    2    0    0  0.69876881744E+03  0.27961622451E+03  0.90582959746E+03  0.13493704307E+04  0.65864270000E+03 0.  0.
    8880022    1    1    2    0    0 -0.69876881744E+03 -0.27961622451E+03 -0.58183133217E+03  0.96352604809E+03  0.15294330000E+03 0.  0.
<mgrwt>
<rscale>  0 0.93624096E+03</rscale>
<asrwt>0</asrwt>
<pdfrwt beam="1">  1        1 0.20283806E+00 0.10001366E+04</pdfrwt>
<pdfrwt beam="2">  1       -1 0.15299217E+00 0.10001366E+04</pdfrwt>
<totfact> 0.29140629E+00</totfact>
</mgrwt>
</event>
<event>
 4    1  0.1065596E-007  0.7321016E+03  0.7818608E-02  0.9883582E-01
         -1   -1    0    0    0  501 -0.00000000000E+00  0.00000000000E+00  0.28692544299E+03  0.28692544303E+03  0.50400000000E-02 0.  1.
          1   -1    0    0  501    0  0.00000000000E+00 -0.00000000000E+00 -0.18542927068E+04  0.18542927068E+04  0.50400000000E-02 0. -1.
    8880023    1    1    2    0    0 -0.98286766591E+02  0.30414188938E+03 -0.16249292879E+04  0.17822367896E+04  0.65864270000E+03 0. -1.
    8880022    1    1    2    0    0  0.98286766591E+02 -0.30414188938E+03  0.57562024069E+02  0.35898136023E+03  0.15294330000E+03 0.  0.
<mgrwt>
<rscale>  0 0.61063606E+03</rscale>
<asrwt>0</asrwt>
<pdfrwt beam="1">  1        1 0.28527579E+00 0.73210162E+03</pdfrwt>
<pdfrwt beam="2">  1       -1 0.44142377E-01 0.73210162E+03</pdfrwt>
<totfact> 0.19789337E+01</totfact>
</mgrwt>
</event>
<event>
 4    1  0.1065596E-007  0.7023723E+03  0.7818608E-02  0.9987499E-01
          1   -1    0    0  501    0  0.00000000000E+00  0.00000000000E+00  0.33892211592E+03  0.33892211596E+03  0.50400000000E-02 0. -1.
         -1   -1    0    0    0  501 -0.00000000000E+00 -0.00000000000E+00 -0.10334824258E+04  0.10334824258E+04  0.50400000000E-02 0.  1.
    8880023    1    1    2    0    0  0.18043329338E+03  0.16419623592E+03 -0.96933144554E+02  0.70902949024E+03  0.65864270000E+03 0.  1.
    8880022    1    1    2    0    0 -0.18043329338E+03 -0.16419623592E+03 -0.59762716529E+03  0.66337505150E+03  0.15294330000E+03 0.  0.
<mgrwt>
<rscale>  0 0.56201799E+03</rscale>
<asrwt>0</asrwt>
<pdfrwt beam="1">  1        1 0.52141865E-01 0.70237225E+03</pdfrwt>
<pdfrwt beam="2">  1       -1 0.15899729E+00 0.70237225E+03</pdfrwt>
<totfact> 0.22886430E+01</totfact>
</mgrwt>
</event>
<event>
 4    1  0.1065596E-007  0.7206006E+03  0.7818608E-02  0.9920559E-01
          1   -1    0    0  501    0  0.00000000000E+00  0.00000000000E+00  0.16012915496E+04  0.16012915496E+04  0.50400000000E-02 0. -1.
         -1   -1    0    0    0  501 -0.00000000000E+00 -0.00000000000E+00 -0.22874340427E+03  0.22874340433E+03  0.50400000000E-02 0.  1.
    8880023    1    1    2    0    0  0.28333829215E+03  0.71933285070E+02  0.13087285481E+04  0.14939998675E+04  0.65864270000E+03 0. -1.
    8880022    1    1    2    0    0 -0.28333829215E+03 -0.71933285070E+02  0.63819597252E+02  0.33603508643E+03  0.15294330000E+03 0.  0.
<mgrwt>
<rscale>  0 0.59275173E+03</rscale>
<asrwt>0</asrwt>
<pdfrwt beam="1">  1        1 0.24635255E+00 0.72060058E+03</pdfrwt>
<pdfrwt beam="2">  1       -1 0.35191292E-01 0.72060058E+03</pdfrwt>
<totfact> 0.44221907E+01</totfact>
</mgrwt>
</event>
<event>
 4    1  0.1065596E-007  0.1060776E+04  0.7818608E-02  0.9306038E-01
         -1   -1    0    0    0  501 -0.00000000000E+00  0.00000000000E+00  0.15284731516E+04  0.15284731516E+04  0.50400000000E-02 0.  1.
          1   -1    0    0  501    0  0.00000000000E+00 -0.00000000000E+00 -0.78858574615E+03  0.78858574616E+03  0.50400000000E-02 0. -1.
    8880023    1    1    2    0    0  0.75835419126E+03 -0.34107935532E+03 -0.17076612975E+03  0.10744335640E+04  0.65864270000E+03 0.  0.
    8880022    1    1    2    0    0 -0.75835419126E+03  0.34107935532E+03  0.91065353520E+03  0.12426253338E+04  0.15294330000E+03 0.  0.
<mgrwt>
<rscale>  0 0.10022892E+04</rscale>
<asrwt>0</asrwt>
<pdfrwt beam="1">  1        1 0.12132089E+00 0.10607763E+04</pdfrwt>
<pdfrwt beam="2">  1       -1 0.23514971E+00 0.10607763E+04</pdfrwt>
<totfact> 0.19723236E+00</totfact>
</mgrwt>
</event>
<event>
 4    1  0.1065596E-007  0.1038061E+04  0.7818608E-02  0.9333374E-01
         -1   -1    0    0    0  501 -0.00000000000E+00  0.00000000000E+00  0.78403636072E+03  0.78403636074E+03  0.50400000000E-02 0.  1.
          1   -1    0    0  501    0  0.00000000000E+00 -0.00000000000E+00 -0.14275870335E+04  0.14275870335E+04  0.50400000000E-02 0. -1.
    8880023    1    1    2    0    0 -0.10846551951E+03  0.79498099473E+03 -0.88045769180E+03  0.13611669641E+04  0.65864270000E+03 0.  0.
    8880022    1    1    2    0    0  0.10846551951E+03 -0.79498099473E+03  0.23690701900E+03  0.85045643014E+03  0.15294330000E+03 0.  0.
<mgrwt>
<rscale>  0 0.97767623E+03</rscale>
<asrwt>0</asrwt>
<pdfrwt beam="1">  1        1 0.21962877E+00 0.10380606E+04</pdfrwt>
<pdfrwt beam="2">  1       -1 0.12062098E+00 0.10380606E+04</pdfrwt>
<totfact> 0.44925611E+00</totfact>
</mgrwt>
</event>
<event>
 4    1  0.1065596E-007  0.1252041E+04  0.7818608E-02  0.9108123E-01
          1   -1    0    0  501    0  0.00000000000E+00  0.00000000000E+00  0.13154345375E+04  0.13154345375E+04  0.50400000000E-02 0. -1.
         -1   -1    0    0    0  501 -0.00000000000E+00 -0.00000000000E+00 -0.14289056366E+04  0.14289056366E+04  0.50400000000E-02 0.  1.
    8880023    1    1    2    0    0 -0.33132085632E+03 -0.10119405568E+04  0.66385932035E+03  0.14171508755E+04  0.65864270000E+03 0.  0.
    8880022    1    1    2    0    0  0.33132085632E+03  0.10119405568E+04 -0.77733041942E+03  0.13271892986E+04  0.15294330000E+03 0.  0.
<mgrwt>
<rscale>  0 0.12054231E+04</rscale>
<asrwt>0</asrwt>
<pdfrwt beam="1">  1        1 0.20237454E+00 0.12520413E+04</pdfrwt>
<pdfrwt beam="2">  1       -1 0.21983164E+00 0.12520413E+04</pdfrwt>
<totfact> 0.94764574E-01</totfact>
</mgrwt>
</event>
<event>
 4    1  0.1065596E-007  0.7521145E+03  0.7818608E-02  0.9825967E-01
          1   -1    0    0  501    0  0.00000000000E+00  0.00000000000E+00  0.18345422027E+04  0.18345422027E+04  0.50400000000E-02 0. -1.
         -1   -1    0    0    0  501 -0.00000000000E+00 -0.00000000000E+00 -0.56034056355E+03  0.56034056357E+03  0.50400000000E-02 0.  1.
    8880023    1    1    2    0    0 -0.28456912949E+03  0.22558003713E+03  0.16729840678E+04  0.18342714739E+04  0.65864270000E+03 0. -1.
    8880022    1    1    2    0    0  0.28456912949E+03 -0.22558003713E+03 -0.39878242871E+03  0.56061129232E+03  0.15294330000E+03 0.  0.
<mgrwt>
<rscale>  0 0.63987414E+03</rscale>
<asrwt>0</asrwt>
<pdfrwt beam="1">  1        1 0.28223727E+00 0.75211445E+03</pdfrwt>
<pdfrwt beam="2">  1       -1 0.86206240E-01 0.75211445E+03</pdfrwt>
<totfact> 0.53620527E+00</totfact>
</mgrwt>
</event>
<event>
 4    1  0.1065596E-007  0.9267609E+03  0.7818608E-02  0.9484369E-01
          1   -1    0    0  501    0  0.00000000000E+00  0.00000000000E+00  0.22779751950E+04  0.22779751950E+04  0.50400000000E-02 0. -1.
         -1   -1    0    0    0  501 -0.00000000000E+00 -0.00000000000E+00 -0.30068463373E+03  0.30068463377E+03  0.50400000000E-02 0.  1.
    8880023    1    1    2    0    0 -0.34283499959E+03  0.55456267392E+03  0.14732071813E+04  0.17404669493E+04  0.65864270000E+03 0. -1.
    8880022    1    1    2    0    0  0.34283499959E+03 -0.55456267392E+03  0.50408337994E+03  0.83819287947E+03  0.15294330000E+03 0.  0.
<mgrwt>
<rscale>  0 0.85446076E+03</rscale>
<asrwt>0</asrwt>
<pdfrwt beam="1">  1        1 0.35045773E+00 0.92676092E+03</pdfrwt>
<pdfrwt beam="2">  1       -1 0.46259174E-01 0.92676092E+03</pdfrwt>
<totfact> 0.91763226E+00</totfact>
</mgrwt>
</event>
<event>
 4    1  0.1065596E-007  0.6741638E+03  0.7818608E-02  0.1012839E+00
         -1   -1    0    0    0  501 -0.00000000000E+00  0.00000000000E+00  0.14942011542E+04  0.14942011542E+04  0.50400000000E-02 0.  1.
          1   -1    0    0  501    0  0.00000000000E+00 -0.00000000000E+00 -0.13389744097E+03  0.13389744107E+03  0.50400000000E-02 0. -1.
    8880023    1    1    2    0    0 -0.61685001370E+02 -0.12992931562E+03  0.11351209026E+04  0.13202258657E+04  0.65864270000E+03 0. -1.
    8880022    1    1    2    0    0  0.61685001370E+02  0.12992931562E+03  0.22518281059E+03  0.30787272963E+03  0.15294330000E+03 0.  1.
<mgrwt>
<rscale>  0 0.50361913E+03</rscale>
<asrwt>0</asrwt>
<pdfrwt beam="1">  1        1 0.20599606E-01 0.67416383E+03</pdfrwt>
<pdfrwt beam="2">  1       -1 0.22987711E+00 0.67416383E+03</pdfrwt>
<totfact> 0.24709864E+01</totfact>
</mgrwt>
</event>
<event>
 4    1  0.1065596E-007  0.1387959E+04  0.7818608E-02  0.8993096E-01
         -1   -1    0    0    0  501 -0.00000000000E+00  0.00000000000E+00  0.11967612207E+04  0.11967612207E+04  0.50400000000E-02 0.  1.
          1   -1    0    0  501    0  0.00000000000E+00 -0.00000000000E+00 -0.22202448029E+04  0.22202448029E+04  0.50400000000E-02 0. -1.
    8880023    1    1    2    0    0 -0.10400407590E+04 -0.64104238705E+03 -0.15476097967E+04  0.20788281342E+04  0.65864270000E+03 0. -1.
    8880022    1    1    2    0    0  0.10400407590E+04  0.64104238705E+03  0.52412621446E+03  0.13381778895E+04  0.15294330000E+03 0.  0.
<mgrwt>
<rscale>  0 0.13470084E+04</rscale>
<asrwt>0</asrwt>
<pdfrwt beam="1">  1        1 0.34157612E+00 0.13879591E+04</pdfrwt>
<pdfrwt beam="2">  1       -1 0.18411711E+00 0.13879591E+04</pdfrwt>
<totfact> 0.39357159E-01</totfact>
</mgrwt>
</event>
<event>
 4    1  0.1065596E-007  0.8195715E+03  0.7818608E-02  0.9669974E-01
         -1   -1    0    0    0  501 -0.00000000000E+00  0.00000000000E+00  0.10734727630E+04  0.10734727630E+04  0.50400000000E-02 0.  1.
          1   -1    0    0  501    0  0.00000000000E+00 -0.00000000000E+00 -0.11455917777E+04  0.11455917777E+04  0.50400000000E-02 0. -1.
    8880023    1    1    2    0    0 -0.16616519009E+03  0.45855900554E+03 -0.91807339742E+03  0.12306730684E+04  0.65864270000E+03 0.  0.
    8880022    1    1    2    0    0  0.16616519009E+03 -0.45855900554E+03  0.84595438273E+03  0.98839147236E+03  0.15294330000E+03 0.  0.
<mgrwt>
<rscale>  0 0.72832996E+03</rscale>
<asrwt>0</asrwt>
<pdfrwt beam="1">  1        1 0.17624489E+00 0.81957150E+03</pdfrwt>
<pdfrwt beam="2">  1       -1 0.16514966E+00 0.81957150E+03</pdfrwt>
<totfact> 0.32233851E+00</totfact>
</mgrwt>
</event>
<event>
 4    1  0.1065596E-007  0.1431618E+04  0.7818608E-02  0.8959497E-01
         -1   -1    0    0    0  501 -0.00000000000E+00  0.00000000000E+00  0.10356911147E+04  0.10356911147E+04  0.50400000000E-02 0.  1.
          1   -1    0    0  501    0  0.00000000000E+00 -0.00000000000E+00 -0.20510496176E+04  0.20510496176E+04  0.50400000000E-02 0. -1.
    8880023    1    1    2    0    0  0.12425354709E+04  0.26800015806E+03  0.33003912043E+02  0.14319978860E+04  0.65864270000E+03 0.  1.
    8880022    1    1    2    0    0 -0.12425354709E+04 -0.26800015806E+03 -0.10483624150E+04  0.16547428463E+04  0.15294330000E+03 0. -1.
<mgrwt>
<rscale>  0 0.13921828E+04</rscale>
<asrwt>0</asrwt>
<pdfrwt beam="1">  1        1 0.31554609E+00 0.14316175E+04</pdfrwt>
<pdfrwt beam="2">  1       -1 0.15933709E+00 0.14316175E+04</pdfrwt>
<totfact> 0.77745516E-01</totfact>
</mgrwt>
</event>
<event>
 4    1  0.1065596E-007  0.1635627E+04  0.7818608E-02  0.8819364E-01
          1   -1    0    0  501    0  0.00000000000E+00  0.00000000000E+00  0.39197960670E+04  0.39197960670E+04  0.50400000000E-02 0. -1.
         -1   -1    0    0    0  501 -0.00000000000E+00 -0.00000000000E+00 -0.10054886793E+04  0.10054886793E+04  0.50400000000E-02 0.  1.
    8880023    1    1    2    0    0  0.13933443066E+04  0.54777417200E+03  0.30010615824E+04  0.34178422620E+04  0.65864270000E+03 0.  0.
    8880022    1    1    2    0    0 -0.13933443066E+04 -0.54777417200E+03 -0.86754194649E+02  0.15074424844E+04  0.15294330000E+03 0.  0.
<mgrwt>
<rscale>  0 0.16019290E+04</rscale>
<asrwt>0</asrwt>
<pdfrwt beam="1">  1        1 0.60304553E+00 0.16356268E+04</pdfrwt>
<pdfrwt beam="2">  1       -1 0.15469057E+00 0.16356268E+04</pdfrwt>
<totfact> 0.34097547E-02</totfact>
</mgrwt>
</event>
<event>
 4    1  0.1065596E-007  0.8281015E+03  0.7818608E-02  0.9653038E-01
          1   -1    0    0  501    0  0.00000000000E+00  0.00000000000E+00  0.31657771571E+04  0.31657771571E+04  0.50400000000E-02 0. -1.
         -1   -1    0    0    0  501 -0.00000000000E+00 -0.00000000000E+00 -0.53822245543E+03  0.53822245546E+03  0.50400000000E-02 0.  1.
    8880023    1    1    2    0    0 -0.34872379422E+03  0.36101740178E+03  0.29661088496E+04  0.30795379139E+04  0.65864270000E+03 0. -1.
    8880022    1    1    2    0    0  0.34872379422E+03 -0.36101740178E+03 -0.33855414792E+03  0.62446169870E+03  0.15294330000E+03 0.  0.
<mgrwt>
<rscale>  0 0.73883090E+03</rscale>
<asrwt>0</asrwt>
<pdfrwt beam="1">  1        1 0.48704263E+00 0.82810148E+03</pdfrwt>
<pdfrwt beam="2">  1       -1 0.82803456E-01 0.82810148E+03</pdfrwt>
<totfact> 0.69647868E-01</totfact>
</mgrwt>
</event>
<event>
 4    1  0.1065596E-007  0.9092598E+03  0.7818608E-02  0.9511327E-01
         -1   -1    0    0    0  501 -0.00000000000E+00  0.00000000000E+00  0.10682522932E+04  0.10682522932E+04  0.50400000000E-02 0.  1.
          1   -1    0    0  501    0  0.00000000000E+00 -0.00000000000E+00 -0.16143176599E+04  0.16143176599E+04  0.50400000000E-02 0. -1.
    8880023    1    1    2    0    0  0.58419179623E+02  0.62412371133E+03 -0.13649178099E+04  0.16400469633E+04  0.65864270000E+03 0. -1.
    8880022    1    1    2    0    0 -0.58419179623E+02 -0.62412371133E+03  0.81885244326E+03  0.10425229899E+04  0.15294330000E+03 0.  0.
<mgrwt>
<rscale>  0 0.83453844E+03</rscale>
<asrwt>0</asrwt>
<pdfrwt beam="1">  1        1 0.24835656E+00 0.90925982E+03</pdfrwt>
<pdfrwt beam="2">  1       -1 0.16434651E+00 0.90925982E+03</pdfrwt>
<totfact> 0.15094442E+00</totfact>
</mgrwt>
</event>
<event>
 4    1  0.1065596E-007  0.1706804E+04  0.7818608E-02  0.8775920E-01
          1   -1    0    0  501    0  0.00000000000E+00  0.00000000000E+00  0.41480508328E+04  0.41480508328E+04  0.50400000000E-02 0. -1.
         -1   -1    0    0    0  501 -0.00000000000E+00 -0.00000000000E+00 -0.68656262884E+03  0.68656262886E+03  0.50400000000E-02 0.  1.
    8880023    1    1    2    0    0 -0.13067487101E+04 -0.87850877960E+03  0.23359511257E+04  0.28930689129E+04  0.65864270000E+03 0.  1.
    8880022    1    1    2    0    0  0.13067487101E+04  0.87850877960E+03  0.11255370782E+04  0.19415445487E+04  0.15294330000E+03 0. -1.
<mgrwt>
<rscale>  0 0.16747122E+04</rscale>
<asrwt>0</asrwt>
<pdfrwt beam="1">  1        1 0.63816167E+00 0.17068041E+04</pdfrwt>
<pdfrwt beam="2">  1       -1 0.10562502E+00 0.17068041E+04</pdfrwt>
<totfact> 0.56047854E-02</totfact>
</mgrwt>
</event>
<event>
 4    1  0.1065596E-007  0.1801367E+04  0.7818608E-02  0.8721781E-01
          1   -1    0    0  501    0  0.00000000000E+00  0.00000000000E+00  0.37521103871E+04  0.37521103871E+04  0.50400000000E-02 0. -1.
         -1   -1    0    0    0  501 -0.00000000000E+00 -0.00000000000E+00 -0.15121965878E+04  0.15121965878E+04  0.50400000000E-02 0.  1.
    8880023    1    1    2    0    0  0.11007156926E+04  0.12647276945E+04  0.29343148648E+04  0.34431272281E+04  0.65864270000E+03 0.  0.
    8880022    1    1    2    0    0 -0.11007156926E+04 -0.12647276945E+04 -0.69440106545E+03  0.18211797467E+04  0.15294330000E+03 0.  0.
<mgrwt>
<rscale>  0 0.17711738E+04</rscale>
<asrwt>0</asrwt>
<pdfrwt beam="1">  1        1 0.57724775E+00 0.18013665E+04</pdfrwt>
<pdfrwt beam="2">  1       -1 0.23264563E+00 0.18013665E+04</pdfrwt>
<totfact> 0.12931809E-02</totfact>
</mgrwt>
</event>
<event>
 4    1  0.1065596E-007  0.9570478E+03  0.7818608E-02  0.9440045E-01
         -1   -1    0    0    0  501 -0.00000000000E+00  0.00000000000E+00  0.12964613764E+04  0.12964613764E+04  0.50400000000E-02 0.  1.
          1   -1    0    0  501    0  0.00000000000E+00 -0.00000000000E+00 -0.63252850223E+03  0.63252850225E+03  0.50400000000E-02 0. -1.
    8880023    1    1    2    0    0 -0.29641136746E+03 -0.62790972921E+03  0.12506019900E+01  0.95704863882E+03  0.65864270000E+03 0. -1.
    8880022    1    1    2    0    0  0.29641136746E+03  0.62790972921E+03  0.66268227214E+03  0.97194123980E+03  0.15294330000E+03 0.  0.
<mgrwt>
<rscale>  0 0.88852108E+03</rscale>
<asrwt>0</asrwt>
<pdfrwt beam="1">  1        1 0.97312078E-01 0.95704782E+03</pdfrwt>
<pdfrwt beam="2">  1       -1 0.19945559E+00 0.95704782E+03</pdfrwt>
<totfact> 0.48570056E+00</totfact>
</mgrwt>
</event>
<event>
 4    1  0.1065596E-007  0.1129438E+04  0.7818608E-02  0.9228967E-01
          1   -1    0    0  501    0  0.00000000000E+00  0.00000000000E+00  0.19478004131E+04  0.19478004131E+04  0.50400000000E-02 0. -1.
         -1   -1    0    0    0  501 -0.00000000000E+00 -0.00000000000E+00 -0.91876637843E+03  0.91876637845E+03  0.50400000000E-02 0.  1.
    8880023    1    1    2    0    0  0.90047066520E+03 -0.17599229793E+03  0.14563146241E+04  0.18429550180E+04  0.65864270000E+03 0.  0.
    8880022    1    1    2    0    0 -0.90047066520E+03  0.17599229793E+03 -0.42728058943E+03  0.10236117735E+04  0.15294330000E+03 0.  0.
<mgrwt>
<rscale>  0 0.10759380E+04</rscale>
<asrwt>0</asrwt>
<pdfrwt beam="1">  1        1 0.29966160E+00 0.11294383E+04</pdfrwt>
<pdfrwt beam="2">  1       -1 0.14134867E+00 0.11294383E+04</pdfrwt>
<totfact> 0.13109773E+00</totfact>
</mgrwt>
</event>
<event>
 4    1  0.1065596E-007  0.1018721E+04  0.7818608E-02  0.9357465E-01
         -1   -1    0    0    0  501 -0.00000000000E+00  0.00000000000E+00  0.15366601111E+04  0.15366601111E+04  0.50400000000E-02 0.  1.
          1   -1    0    0  501    0  0.00000000000E+00 -0.00000000000E+00 -0.13819649405E+04  0.13819649405E+04  0.50400000000E-02 0. -1.
    8880023    1    1    2    0    0  0.45080252179E+03  0.63305550763E+03 -0.10589309784E+04  0.14693968874E+04  0.65864270000E+03 0. -1.
    8880022    1    1    2    0    0 -0.45080252179E+03 -0.63305550763E+03  0.12136261490E+04  0.14492281642E+04  0.15294330000E+03 0.  0.
<mgrwt>
<rscale>  0 0.95660409E+03</rscale>
<asrwt>0</asrwt>
<pdfrwt beam="1">  1        1 0.21260999E+00 0.10187210E+04</pdfrwt>
<pdfrwt beam="2">  1       -1 0.23640925E+00 0.10187210E+04</pdfrwt>
<totfact> 0.68129713E-01</totfact>
</mgrwt>
</event>
<event>
 4    1  0.1065596E-007  0.1211540E+04  0.7818608E-02  0.9145986E-01
         -1   -1    0    0    0  501 -0.00000000000E+00  0.00000000000E+00  0.13704268871E+04  0.13704268871E+04  0.50400000000E-02 0.  1.
          1   -1    0    0  501    0  0.00000000000E+00 -0.00000000000E+00 -0.17213640932E+04  0.17213640932E+04  0.50400000000E-02 0. -1.
    8880023    1    1    2    0    0  0.71298127839E+03  0.72503487581E+03 -0.12391383044E+04  0.17330008131E+04  0.65864270000E+03 0. -1.
    8880022    1    1    2    0    0 -0.71298127839E+03 -0.72503487581E+03  0.88820109833E+03  0.13587901672E+04  0.15294330000E+03 0.  0.
<mgrwt>
<rscale>  0 0.11628765E+04</rscale>
<asrwt>0</asrwt>
<pdfrwt beam="1">  1        1 0.26482524E+00 0.12115395E+04</pdfrwt>
<pdfrwt beam="2">  1       -1 0.21083491E+00 0.12115395E+04</pdfrwt>
<totfact> 0.57245498E-01</totfact>
</mgrwt>
</event>
<event>
 4    1  0.1065596E-007  0.7333277E+03  0.7818608E-02  0.9879827E-01
         -1   -1    0    0    0  501 -0.00000000000E+00  0.00000000000E+00  0.88982355180E+03  0.88982355182E+03  0.50400000000E-02 0.  1.
          1   -1    0    0  501    0  0.00000000000E+00 -0.00000000000E+00 -0.43322902084E+03  0.43322902087E+03  0.50400000000E-02 0. -1.
    8880023    1    1    2    0    0 -0.17073247766E+03 -0.27351379541E+03 -0.12759746360E+02  0.73343874495E+03  0.65864270000E+03 0. -1.
    8880022    1    1    2    0    0  0.17073247766E+03  0.27351379541E+03  0.46935427732E+03  0.58961382774E+03  0.15294330000E+03 0.  0.
<mgrwt>
<rscale>  0 0.61248985E+03</rscale>
<asrwt>0</asrwt>
<pdfrwt beam="1">  1        1 0.66650619E-01 0.73332774E+03</pdfrwt>
<pdfrwt beam="2">  1       -1 0.13689593E+00 0.73332774E+03</pdfrwt>
<totfact> 0.24586271E+01</totfact>
</mgrwt>
</event>
<event>
 4    1  0.1065596E-007  0.1250541E+04  0.7818608E-02  0.9109493E-01
          1   -1    0    0  501    0  0.00000000000E+00  0.00000000000E+00  0.19998155470E+04  0.19998155470E+04  0.50400000000E-02 0. -1.
         -1   -1    0    0    0  501 -0.00000000000E+00 -0.00000000000E+00 -0.17125682719E+04  0.17125682719E+04  0.50400000000E-02 0.  1.
    8880023    1    1    2    0    0 -0.99695457769E+03  0.36895067914E+03  0.15907410061E+04  0.20234401865E+04  0.65864270000E+03 0. -1.
    8880022    1    1    2    0    0  0.99695457769E+03 -0.36895067914E+03 -0.13034937310E+04  0.16889436324E+04  0.15294330000E+03 0.  0.
<mgrwt>
<rscale>  0 0.12038507E+04</rscale>
<asrwt>0</asrwt>
<pdfrwt beam="1">  1        1 0.30766393E+00 0.12505412E+04</pdfrwt>
<pdfrwt beam="2">  1       -1 0.26347204E+00 0.12505412E+04</pdfrwt>
<totfact> 0.16569870E-01</totfact>
</mgrwt>
</event>
<event>
 4    1  0.1065596E-007  0.8969040E+03  0.7818608E-02  0.9531020E-01
          1   -1    0    0  501    0  0.00000000000E+00  0.00000000000E+00  0.26588737434E+04  0.26588737434E+04  0.50400000000E-02 0. -1.
         -1   -1    0    0    0  501 -0.00000000000E+00 -0.00000000000E+00 -0.52132676818E+03  0.52132676820E+03  0.50400000000E-02 0.  1.
    8880023    1    1    2    0    0  0.56554805759E+03  0.22534873776E+03  0.23517298313E+04  0.25169565084E+04  0.65864270000E+03 0.  0.
    8880022    1    1    2    0    0 -0.56554805759E+03 -0.22534873776E+03 -0.21418285609E+03  0.66324400329E+03  0.15294330000E+03 0.  1.
<mgrwt>
<rscale>  0 0.82034973E+03</rscale>
<asrwt>0</asrwt>
<pdfrwt beam="1">  1        1 0.40905750E+00 0.89690404E+03</pdfrwt>
<pdfrwt beam="2">  1       -1 0.80204118E-01 0.89690404E+03</pdfrwt>
<totfact> 0.16908362E+00</totfact>
</mgrwt>
</event>
<event>
 4    1  0.1065596E-007  0.8125438E+03  0.7818608E-02  0.9684302E-01
         -1   -1    0    0    0  501 -0.00000000000E+00  0.00000000000E+00  0.29686487372E+03  0.29686487377E+03  0.50400000000E-02 0.  1.
          1   -1    0    0  501    0  0.00000000000E+00 -0.00000000000E+00 -0.19165501515E+04  0.19165501515E+04  0.50400000000E-02 0. -1.
    8880023    1    1    2    0    0 -0.38761383770E+03 -0.27599410730E+03 -0.14898448149E+04  0.16970165036E+04  0.65864270000E+03 0.  0.
    8880022    1    1    2    0    0  0.38761383770E+03  0.27599410730E+03 -0.12984046284E+03  0.51639852173E+03  0.15294330000E+03 0.  0.
<mgrwt>
<rscale>  0 0.71959158E+03</rscale>
<asrwt>0</asrwt>
<pdfrwt beam="1">  1        1 0.29485386E+00 0.81254381E+03</pdfrwt>
<pdfrwt beam="2">  1       -1 0.45671520E-01 0.81254381E+03</pdfrwt>
<totfact> 0.16693269E+01</totfact>
</mgrwt>
</event>
<event>
 4    1  0.1065596E-007  0.7975683E+03  0.7818608E-02  0.9716079E-01
         -1   -1    0    0    0  501 -0.00000000000E+00  0.00000000000E+00  0.11483997413E+04  0.11483997413E+04  0.50400000000E-02 0.  1.
          1   -1    0    0  501    0  0.00000000000E+00 -0.00000000000E+00 -0.24559903205E+04  0.24559903205E+04  0.50400000000E-02 0. -1.
    8880023    1    1    2    0    0  0.43986881503E+03 -0.93917226274E+02 -0.23376982804E+04  0.24700098130E+04  0.65864270000E+03 0. -1.
    8880022    1    1    2    0    0 -0.43986881503E+03  0.93917226274E+02  0.10301077012E+04  0.11343802488E+04  0.15294330000E+03 0.  0.
<mgrwt>
<rscale>  0 0.70067491E+03</rscale>
<asrwt>0</asrwt>
<pdfrwt beam="1">  1        1 0.37784466E+00 0.79756832E+03</pdfrwt>
<pdfrwt beam="2">  1       -1 0.17667688E+00 0.79756832E+03</pdfrwt>
<totfact> 0.33931212E-01</totfact>
</mgrwt>
</event>
<event>
 4    1  0.1065596E-007  0.9241948E+03  0.7818608E-02  0.9488257E-01
          1   -1    0    0  501    0  0.00000000000E+00  0.00000000000E+00  0.75011230526E+03  0.75011230528E+03  0.50400000000E-02 0. -1.
         -1   -1    0    0    0  501 -0.00000000000E+00 -0.00000000000E+00 -0.98649084143E+03  0.98649084144E+03  0.50400000000E-02 0.  1.
    8880023    1    1    2    0    0  0.63559293517E+03  0.12785717377E+03  0.19293849565E+03  0.94411932799E+03  0.65864270000E+03 0.  0.
    8880022    1    1    2    0    0 -0.63559293517E+03 -0.12785717377E+03 -0.42931703182E+03  0.79248381873E+03  0.15294330000E+03 0.  0.
<mgrwt>
<rscale>  0 0.85155158E+03</rscale>
<asrwt>0</asrwt>
<pdfrwt beam="1">  1        1 0.11540189E+00 0.92419481E+03</pdfrwt>
<pdfrwt beam="2">  1       -1 0.15176782E+00 0.92419481E+03</pdfrwt>
<totfact> 0.83625049E+00</totfact>
</mgrwt>
</event>
<event>
 4    1  0.1065596E-007  0.1118638E+04  0.7818608E-02  0.9240583E-01
         -1   -1    0    0    0  501 -0.00000000000E+00  0.00000000000E+00  0.42078861795E+03  0.42078861798E+03  0.50400000000E-02 0.  1.
          1   -1    0    0  501    0  0.00000000000E+00 -0.00000000000E+00 -0.36523356774E+04  0.36523356775E+04  0.50400000000E-02 0. -1.
    8880023    1    1    2    0    0  0.81463172920E+03 -0.39232175186E+03 -0.28824428761E+04  0.30918972090E+04  0.65864270000E+03 0.  0.
    8880022    1    1    2    0    0 -0.81463172920E+03  0.39232175186E+03 -0.34910418344E+03  0.98122708641E+03  0.15294330000E+03 0.  0.
<mgrwt>
<rscale>  0 0.10644185E+04</rscale>
<asrwt>0</asrwt>
<pdfrwt beam="1">  1        1 0.56189777E+00 0.11186382E+04</pdfrwt>
<pdfrwt beam="2">  1       -1 0.64736713E-01 0.11186382E+04</pdfrwt>
<totfact> 0.46718422E-01</totfact>
</mgrwt>
</event>
<event>
 4    1  0.1065596E-007  0.9437721E+03  0.7818608E-02  0.9459132E-01
          1   -1    0    0  501    0  0.00000000000E+00  0.00000000000E+00  0.86332720117E+03  0.86332720118E+03  0.50400000000E-02 0. -1.
         -1   -1    0    0    0  501 -0.00000000000E+00 -0.00000000000E+00 -0.92329704442E+03  0.92329704443E+03  0.50400000000E-02 0.  1.
    8880023    1    1    2    0    0 -0.29241465246E+03 -0.60941714927E+03 -0.38734018265E+03  0.10201657778E+04  0.65864270000E+03 0.  0.
    8880022    1    1    2    0    0  0.29241465246E+03  0.60941714927E+03  0.32737033939E+03  0.76645846784E+03  0.15294330000E+03 0.  0.
<mgrwt>
<rscale>  0 0.87365102E+03</rscale>
<asrwt>0</asrwt>
<pdfrwt beam="1">  1        1 0.13281957E+00 0.94377211E+03</pdfrwt>
<pdfrwt beam="2">  1       -1 0.14204570E+00 0.94377211E+03</pdfrwt>
<totfact> 0.79402913E+00</totfact>
</mgrwt>
</event>
<event>
 4    1  0.1065596E-007  0.1134947E+04  0.7818608E-02  0.9223109E-01
         -1   -1    0    0    0  501 -0.00000000000E+00  0.00000000000E+00  0.18779563022E+04  0.18779563022E+04  0.50400000000E-02 0.  1.
          1   -1    0    0  501    0  0.00000000000E+00 -0.00000000000E+00 -0.73760345801E+03  0.73760345803E+03  0.50400000000E-02 0. -1.
    8880023    1    1    2    0    0  0.77660038277E+02 -0.92101229013E+03 -0.61540514094E+01  0.11349637874E+04  0.65864270000E+03 0. -1.
    8880022    1    1    2    0    0 -0.77660038277E+02  0.92101229013E+03  0.11465068956E+04  0.14805959728E+04  0.15294330000E+03 0.  0.
<mgrwt>
<rscale>  0 0.10818054E+04</rscale>
<asrwt>0</asrwt>
<pdfrwt beam="1">  1        1 0.11347745E+00 0.11349471E+04</pdfrwt>
<pdfrwt beam="2">  1       -1 0.28891636E+00 0.11349471E+04</pdfrwt>
<totfact> 0.97415384E-01</totfact>
</mgrwt>
</event>
<event>
 4    1  0.1065596E-007  0.7698403E+03  0.7818608E-02  0.9780267E-01
         -1   -1    0    0    0  501 -0.00000000000E+00  0.00000000000E+00  0.42333372965E+03  0.42333372968E+03  0.50400000000E-02 0.  1.
          1   -1    0    0  501    0  0.00000000000E+00 -0.00000000000E+00 -0.89988953722E+03  0.89988953724E+03  0.50400000000E-02 0. -1.
    8880023    1    1    2    0    0  0.33743301976E+03 -0.21209151937E+03 -0.14658559713E+03  0.78367174184E+03  0.65864270000E+03 0.  1.
    8880022    1    1    2    0    0 -0.33743301976E+03  0.21209151937E+03 -0.32997021044E+03  0.53955152508E+03  0.15294330000E+03 0.  0.
<mgrwt>
<rscale>  0 0.66432348E+03</rscale>
<asrwt>0</asrwt>
<pdfrwt beam="1">  1        1 0.13844454E+00 0.76984028E+03</pdfrwt>
<pdfrwt beam="2">  1       -1 0.65128266E-01 0.76984028E+03</pdfrwt>
<totfact> 0.44465249E+01</totfact>
</mgrwt>
</event>
<event>
 4    1  0.1065596E-007  0.1211840E+04  0.7818608E-02  0.9145698E-01
          1   -1    0    0  501    0  0.00000000000E+00  0.00000000000E+00  0.12037448822E+04  0.12037448822E+04  0.50400000000E-02 0. -1.
         -1   -1    0    0    0  501 -0.00000000000E+00 -0.00000000000E+00 -0.15299614569E+04  0.15299614569E+04  0.50400000000E-02 0.  1.
    8880023    1    1    2    0    0  0.67268705522E+03  0.76304532699E+03  0.59753806218E+03  0.13511506161E+04  0.65864270000E+03 0. -1.
    8880022    1    1    2    0    0 -0.67268705522E+03 -0.76304532699E+03 -0.92375463689E+03  0.13825557231E+04  0.15294330000E+03 0.  0.
<mgrwt>
<rscale>  0 0.11631929E+04</rscale>
<asrwt>0</asrwt>
<pdfrwt beam="1">  1        1 0.18519152E+00 0.12118400E+04</pdfrwt>
<pdfrwt beam="2">  1       -1 0.23537869E+00 0.12118400E+04</pdfrwt>
<totfact> 0.90429857E-01</totfact>
</mgrwt>
</event>
<event>
 4    1  0.1065596E-007  0.9364223E+03  0.7818608E-02  0.9469925E-01
         -1   -1    0    0    0  501 -0.00000000000E+00  0.00000000000E+00  0.44946858053E+04  0.44946858053E+04  0.50400000000E-02 0.  1.
          1   -1    0    0  501    0  0.00000000000E+00 -0.00000000000E+00 -0.14754650729E+03  0.14754650737E+03  0.50400000000E-02 0. -1.
    8880023    1    1    2    0    0  0.52440548713E+03 -0.40996989871E+03  0.22651261032E+04  0.24510575069E+04  0.65864270000E+03 0. -1.
    8880022    1    1    2    0    0 -0.52440548713E+03  0.40996989871E+03  0.20820131948E+04  0.21911748057E+04  0.15294330000E+03 0.  1.
<mgrwt>
<rscale>  0 0.86537937E+03</rscale>
<asrwt>0</asrwt>
<pdfrwt beam="1">  1        1 0.22699465E-01 0.93642225E+03</pdfrwt>
<pdfrwt beam="2">  1       -1 0.69149005E+00 0.93642225E+03</pdfrwt>
<totfact> 0.48298211E-02</totfact>
</mgrwt>
</event>
