<event>
 4    2  0.3884658E-007  0.8175591E+03  0.7818608E-02  0.9674042E-01
         -1   -1    0    0    0  501 -0.00000000000E+00  0.00000000000E+00  0.36584031575E+03  0.36584031578E+03  0.50400000000E-02 0.  1.
          1   -1    0    0  501    0  0.00000000000E+00 -0.00000000000E+00 -0.16868830547E+04  0.16868830547E+04  0.50400000000E-02 0. -1.
    8880023    1    1    2    0    0 -0.55672162388E+02 -0.48113742874E+03 -0.13106023306E+04  0.15446945621E+04  0.65864270000E+03 0.  0.
    8880022    1    1    2    0    0  0.55672162388E+02  0.48113742874E+03 -0.10440408358E+02  0.50802880838E+03  0.15294330000E+03 0.  0.
<mgrwt>
<rscale>  0 0.72583600E+03</rscale>
<asrwt>0</asrwt>
<pdfrwt beam="1">  1        1 0.25952047E+00 0.81755906E+03</pdfrwt>
<pdfrwt beam="2">  1       -1 0.56283126E-01 0.81755906E+03</pdfrwt>
<totfact> 0.15991038E+01</totfact>
</mgrwt>
</event>
<event>
 4    2  0.3884658E-007  0.8125936E+03  0.7818608E-02  0.9684200E-01
          1   -1    0    0  501    0  0.00000000000E+00  0.00000000000E+00  0.12869357621E+04  0.12869357622E+04  0.50400000000E-02 0. -1.
         -1   -1    0    0    0  501 -0.00000000000E+00 -0.00000000000E+00 -0.59328198414E+03  0.59328198416E+03  0.50400000000E-02 0.  1.
    8880023    1    1    2    0    0 -0.16793119801E+03  0.44530589419E+03  0.10041454722E+04  0.12917494193E+04  0.65864270000E+03 0. -1.
    8880022    1    1    2    0    0  0.16793119801E+03 -0.44530589419E+03 -0.31049169423E+03  0.58846832699E+03  0.15294330000E+03 0.  0.
<mgrwt>
<rscale>  0 0.71965384E+03</rscale>
<asrwt>0</asrwt>
<pdfrwt beam="1">  1        1 0.19799012E+00 0.81259365E+03</pdfrwt>
<pdfrwt beam="2">  1       -1 0.91274152E-01 0.81259365E+03</pdfrwt>
<totfact> 0.11107338E+01</totfact>
</mgrwt>
</event>
<event>
 4    2  0.3884658E-007  0.7029550E+03  0.7818608E-02  0.9985157E-01
          1   -1    0    0  501    0  0.00000000000E+00  0.00000000000E+00  0.34678844720E+04  0.34678844720E+04  0.50400000000E-02 0. -1.
         -1   -1    0    0    0  501 -0.00000000000E+00 -0.00000000000E+00 -0.14263640205E+03  0.14263640214E+03  0.50400000000E-02 0.  1.
    8880023    1    1    2    0    0 -0.37118018363E+02  0.24281215325E+03  0.32304252339E+04  0.33060237275E+04  0.65864270000E+03 0.  0.
    8880022    1    1    2    0    0  0.37118018363E+02 -0.24281215325E+03  0.94822836106E+02  0.30449714664E+03  0.15294330000E+03 0.  0.
<mgrwt>
<rscale>  0 0.56305901E+03</rscale>
<asrwt>0</asrwt>
<pdfrwt beam="1">  1        1 0.53352065E+00 0.70295497E+03</pdfrwt>
<pdfrwt beam="2">  1       -1 0.21944063E-01 0.70295497E+03</pdfrwt>
<totfact> 0.50385304E+00</totfact>
</mgrwt>
</event>
<event>
 4    2  0.3884658E-007  0.9325303E+03  0.7818608E-02  0.9475708E-01
         -1   -1    0    0    0  501 -0.00000000000E+00  0.00000000000E+00  0.13409181024E+04  0.13409181024E+04  0.50400000000E-02 0.  1.
          1   -1    0    0  501    0  0.00000000000E+00 -0.00000000000E+00 -0.10302462566E+04  0.10302462567E+04  0.50400000000E-02 0. -1.
    8880023    1    1    2    0    0  0.63643998105E+03  0.17534752249E+03 -0.69181824313E+03  0.11611310395E+04  0.65864270000E+03 0.  0.
    8880022    1    1    2    0    0 -0.63643998105E+03 -0.17534752249E+03  0.10024900889E+04  0.12100333196E+04  0.15294330000E+03 0.  0.
<mgrwt>
<rscale>  0 0.86098737E+03</rscale>
<asrwt>0</asrwt>
<pdfrwt beam="1">  1        1 0.15849942E+00 0.93253033E+03</pdfrwt>
<pdfrwt beam="2">  1       -1 0.20629509E+00 0.93253033E+03</pdfrwt>
<totfact> 0.19803876E+00</totfact>
</mgrwt>
</event>
<event>
 4    2  0.3884658E-007  0.6620482E+03  0.7818608E-02  0.1022150E+00
          1   -1    0    0  501    0  0.00000000000E+00  0.00000000000E+00  0.72245447405E+03  0.72245447406E+03  0.50400000000E-02 0. -1.
         -1   -1    0    0    0  501 -0.00000000000E+00 -0.00000000000E+00 -0.26772665007E+03  0.26772665012E+03  0.50400000000E-02 0.  1.
    8880023    1    1    2    0    0 -0.31383639073E+02 -0.59267975656E+02  0.21125112320E+03  0.69493515457E+03  0.65864270000E+03 0.  0.
    8880022    1    1    2    0    0  0.31383639073E+02  0.59267975656E+02  0.24347670077E+03  0.29524596961E+03  0.15294330000E+03 0. -1.
<mgrwt>
<rscale>  0 0.46918797E+03</rscale>
<asrwt>0</asrwt>
<pdfrwt beam="1">  1        1 0.11114684E+00 0.66204821E+03</pdfrwt>
<pdfrwt beam="2">  1       -1 0.41188715E-01 0.66204821E+03</pdfrwt>
<totfact> 0.15301081E+02</totfact>
</mgrwt>
</event>
<event>
 4    2  0.3884658E-007  0.7223257E+03  0.7818608E-02  0.9914794E-01
         -1   -1    0    0    0  501 -0.00000000000E+00  0.00000000000E+00  0.82882720503E+03  0.82882720505E+03  0.50400000000E-02 0.  1.
          1   -1    0    0  501    0  0.00000000000E+00 -0.00000000000E+00 -0.98106913785E+03  0.98106913786E+03  0.50400000000E-02 0. -1.
    8880023    1    1    2    0    0 -0.27010342654E+03  0.12242701654E+03 -0.80208478368E+03  0.10793954057E+04  0.65864270000E+03 0. -1.
    8880022    1    1    2    0    0  0.27010342654E+03 -0.12242701654E+03  0.64984285086E+03  0.73050093719E+03  0.15294330000E+03 0.  0.
<mgrwt>
<rscale>  0 0.59549649E+03</rscale>
<asrwt>0</asrwt>
<pdfrwt beam="1">  1        1 0.15093371E+00 0.72232572E+03</pdfrwt>
<pdfrwt beam="2">  1       -1 0.12751188E+00 0.72232572E+03</pdfrwt>
<totfact> 0.86486183E+00</totfact>
</mgrwt>
</event>
<event>
 4    2  0.3884658E-007  0.1306291E+04  0.7818608E-02  0.9060147E-01
         -1   -1    0    0    0  501 -0.00000000000E+00  0.00000000000E+00  0.13031226068E+04  0.13031226068E+04  0.50400000000E-02 0.  1.
          1   -1    0    0  501    0  0.00000000000E+00 -0.00000000000E+00 -0.18717977863E+04  0.18717977863E+04  0.50400000000E-02 0. -1.
    8880023    1    1    2    0    0  0.41313631076E+03  0.10497157896E+04 -0.12829825023E+04  0.18309667277E+04  0.65864270000E+03 0.  0.
    8880022    1    1    2    0    0 -0.41313631076E+03 -0.10497157896E+04  0.71430732281E+03  0.13439536654E+04  0.15294330000E+03 0.  0.
<mgrwt>
<rscale>  0 0.12621311E+04</rscale>
<asrwt>0</asrwt>
<pdfrwt beam="1">  1        1 0.28796889E+00 0.13062906E+04</pdfrwt>
<pdfrwt beam="2">  1       -1 0.20048040E+00 0.13062906E+04</pdfrwt>
<totfact> 0.52609094E-01</totfact>
</mgrwt>
</event>
<event>
 4    2  0.3884658E-007  0.6701351E+03  0.7818608E-02  0.1015566E+00
          1   -1    0    0  501    0  0.00000000000E+00  0.00000000000E+00  0.78521195083E+03  0.78521195085E+03  0.50400000000E-02 0. -1.
         -1   -1    0    0    0  501 -0.00000000000E+00 -0.00000000000E+00 -0.43353199267E+03  0.43353199270E+03  0.50400000000E-02 0.  1.
    8880023    1    1    2    0    0  0.12162387008E+03 -0.21873661095E+02  0.60172992541E+03  0.90064417625E+03  0.65864270000E+03 0. -1.
    8880022    1    1    2    0    0 -0.12162387008E+03  0.21873661095E+02 -0.25004996725E+03  0.31809976730E+03  0.15294330000E+03 0.  0.
<mgrwt>
<rscale>  0 0.49321125E+03</rscale>
<asrwt>0</asrwt>
<pdfrwt beam="1">  1        1 0.12080184E+00 0.67013508E+03</pdfrwt>
<pdfrwt beam="2">  1       -1 0.66697230E-01 0.67013508E+03</pdfrwt>
<totfact> 0.53457255E+01</totfact>
</mgrwt>
</event>
<event>
 4    2  0.3884658E-007  0.6955276E+03  0.7818608E-02  0.1001629E+00
          1   -1    0    0  501    0  0.00000000000E+00  0.00000000000E+00  0.58593126391E+03  0.58593126393E+03  0.50400000000E-02 0. -1.
         -1   -1    0    0    0  501 -0.00000000000E+00 -0.00000000000E+00 -0.60301663580E+03  0.60301663582E+03  0.50400000000E-02 0.  1.
    8880023    1    1    2    0    0 -0.18984495966E+03 -0.11792933409E+03  0.31238733555E+03  0.76245950071E+03  0.65864270000E+03 0. -1.
    8880022    1    1    2    0    0  0.18984495966E+03  0.11792933409E+03 -0.32947270745E+03  0.42648839904E+03  0.15294330000E+03 0.  0.
<mgrwt>
<rscale>  0 0.54941872E+03</rscale>
<asrwt>0</asrwt>
<pdfrwt beam="1">  1        1 0.90143271E-01 0.69552760E+03</pdfrwt>
<pdfrwt beam="2">  1       -1 0.92771791E-01 0.69552760E+03</pdfrwt>
<totfact> 0.41145262E+01</totfact>
</mgrwt>
</event>
<event>
 4    2  0.3884658E-007  0.7117262E+03  0.7818608E-02  0.9951646E-01
          1   -1    0    0  501    0  0.00000000000E+00  0.00000000000E+00  0.65686642502E+03  0.65686642504E+03  0.50400000000E-02 0. -1.
         -1   -1    0    0    0  501 -0.00000000000E+00 -0.00000000000E+00 -0.51716829329E+03  0.51716829332E+03  0.50400000000E-02 0.  1.
    8880023    1    1    2    0    0  0.26118867728E+03  0.67263616341E+02  0.35618542137E+03  0.79587824438E+03  0.65864270000E+03 0. -1.
    8880022    1    1    2    0    0 -0.26118867728E+03 -0.67263616341E+02 -0.21648728964E+03  0.37815647398E+03  0.15294330000E+03 0.  0.
<mgrwt>
<rscale>  0 0.57822280E+03</rscale>
<asrwt>0</asrwt>
<pdfrwt beam="1">  1        1 0.10105637E+00 0.71172616E+03</pdfrwt>
<pdfrwt beam="2">  1       -1 0.79564353E-01 0.71172616E+03</pdfrwt>
<totfact> 0.48543960E+01</totfact>
</mgrwt>
</event>
<event>
 4    2  0.3884658E-007  0.6599578E+03  0.7818608E-02  0.1024200E+00
          1   -1    0    0  501    0  0.00000000000E+00  0.00000000000E+00  0.11848674091E+04  0.11848674091E+04  0.50400000000E-02 0. -1.
         -1   -1    0    0    0  501 -0.00000000000E+00 -0.00000000000E+00 -0.18755094982E+03  0.18755094989E+03  0.50400000000E-02 0.  1.
    8880023    1    1    2    0    0 -0.26077880174E+02  0.32465074892E+02  0.10173356228E+04  0.12126483467E+04  0.65864270000E+03 0. -1.
    8880022    1    1    2    0    0  0.26077880174E+02 -0.32465074892E+02 -0.20019163534E+02  0.15977001235E+03  0.15294330000E+03 0.  0.
<mgrwt>
<rscale>  0 0.46201051E+03</rscale>
<asrwt>0</asrwt>
<pdfrwt beam="1">  1        1 0.18228729E+00 0.65995776E+03</pdfrwt>
<pdfrwt beam="2">  1       -1 0.28853992E-01 0.65995776E+03</pdfrwt>
<totfact> 0.12290278E+02</totfact>
</mgrwt>
</event>
<event>
 4    2  0.3884658E-007  0.7459068E+03  0.7818608E-02  0.9843063E-01
         -1   -1    0    0    0  501 -0.00000000000E+00  0.00000000000E+00  0.30461618872E+03  0.30461618876E+03  0.50400000000E-02 0.  1.
          1   -1    0    0  501    0  0.00000000000E+00 -0.00000000000E+00 -0.16557909251E+04  0.16557909251E+04  0.50400000000E-02 0. -1.
    8880023    1    1    2    0    0 -0.25366952486E+03  0.24128511242E+03 -0.13888821186E+04  0.15765057815E+04  0.65864270000E+03 0. -1.
    8880022    1    1    2    0    0  0.25366952486E+03 -0.24128511242E+03  0.37707382246E+02  0.38390133239E+03  0.15294330000E+03 0.  0.
<mgrwt>
<rscale>  0 0.63101844E+03</rscale>
<asrwt>0</asrwt>
<pdfrwt beam="1">  1        1 0.25473706E+00 0.74590679E+03</pdfrwt>
<pdfrwt beam="2">  1       -1 0.46864030E-01 0.74590679E+03</pdfrwt>
<totfact> 0.24017297E+01</totfact>
</mgrwt>
</event>
<event>
 4    2  0.1124577E-006  0.8290854E+03  0.7818608E-02  0.9651115E-01
         -1   -1    0    0    0  501 -0.00000000000E+00  0.00000000000E+00  0.10084870132E+04  0.10084870132E+04  0.50400000000E-02 0.  1.
          1   -1    0    0  501    0  0.00000000000E+00 -0.00000000000E+00 -0.31737381054E+04  0.31737381054E+04  0.50400000000E-02 0. -1.
    8880023    1    1    2    0    0 -0.34873908951E+03  0.36325394272E+03 -0.30456731564E+04  0.31565024254E+04  0.65864270000E+03 0. -1.
    8880022    1    1    2    0    0  0.34873908951E+03 -0.36325394272E+03  0.88042206416E+03  0.10257226933E+04  0.15294330000E+03 0.  0.
<mgrwt>
<rscale>  0 0.74003518E+03</rscale>
<asrwt>0</asrwt>
<pdfrwt beam="1">  1        1 0.48826740E+00 0.82908539E+03</pdfrwt>
<pdfrwt beam="2">  1       -1 0.15515185E+00 0.82908539E+03</pdfrwt>
<totfact> 0.15167001E-01</totfact>
</mgrwt>
</event>
<event>
 4    2  0.3884658E-007  0.7002863E+03  0.7818608E-02  0.9996016E-01
         -1   -1    0    0    0  501 -0.00000000000E+00  0.00000000000E+00  0.50240367858E+03  0.50240367861E+03  0.50400000000E-02 0.  1.
          1   -1    0    0  501    0  0.00000000000E+00 -0.00000000000E+00 -0.10750918433E+04  0.10750918433E+04  0.50400000000E-02 0. -1.
    8880023    1    1    2    0    0 -0.11811377932E+03 -0.20649399522E+03 -0.90295639899E+03  0.11426859147E+04  0.65864270000E+03 0.  0.
    8880022    1    1    2    0    0  0.11811377932E+03  0.20649399522E+03  0.33026823428E+03  0.43480960720E+03  0.15294330000E+03 0.  1.
<mgrwt>
<rscale>  0 0.55825283E+03</rscale>
<asrwt>0</asrwt>
<pdfrwt beam="1">  1        1 0.16539874E+00 0.70028626E+03</pdfrwt>
<pdfrwt beam="2">  1       -1 0.77292874E-01 0.70028626E+03</pdfrwt>
<totfact> 0.23010161E+01</totfact>
</mgrwt>
</event>
<event>
 4    2  0.3884658E-007  0.8009919E+03  0.7818608E-02  0.9708655E-01
          1   -1    0    0  501    0  0.00000000000E+00  0.00000000000E+00  0.12821780369E+04  0.12821780369E+04  0.50400000000E-02 0. -1.
         -1   -1    0    0    0  501 -0.00000000000E+00 -0.00000000000E+00 -0.54847760046E+03  0.54847760048E+03  0.50400000000E-02 0.  1.
    8880023    1    1    2    0    0  0.28757134170E+03  0.35366731424E+03  0.99983267095E+03  0.12811141330E+04  0.65864270000E+03 0.  0.
    8880022    1    1    2    0    0 -0.28757134170E+03 -0.35366731424E+03 -0.26613223451E+03  0.54954150434E+03  0.15294330000E+03 0.  0.
<mgrwt>
<rscale>  0 0.70503782E+03</rscale>
<asrwt>0</asrwt>
<pdfrwt beam="1">  1        1 0.19725816E+00 0.80099192E+03</pdfrwt>
<pdfrwt beam="2">  1       -1 0.84381169E-01 0.80099192E+03</pdfrwt>
<totfact> 0.13310098E+01</totfact>
</mgrwt>
</event>
<event>
 4    2  0.3884658E-007  0.1368788E+04  0.7818608E-02  0.9008323E-01
          1   -1    0    0  501    0  0.00000000000E+00  0.00000000000E+00  0.95421579954E+03  0.95421579955E+03  0.50400000000E-02 0. -1.
         -1   -1    0    0    0  501 -0.00000000000E+00 -0.00000000000E+00 -0.19059595261E+04  0.19059595261E+04  0.50400000000E-02 0.  1.
    8880023    1    1    2    0    0 -0.11979789582E+04  0.67950581774E+02 -0.92170804967E+03  0.16501899287E+04  0.65864270000E+03 0.  0.
    8880022    1    1    2    0    0  0.11979789582E+04 -0.67950581774E+02 -0.30035676879E+02  0.12099853969E+04  0.15294330000E+03 0.  0.
<mgrwt>
<rscale>  0 0.13271309E+04</rscale>
<asrwt>0</asrwt>
<pdfrwt beam="1">  1        1 0.14680243E+00 0.13687882E+04</pdfrwt>
<pdfrwt beam="2">  1       -1 0.29322454E+00 0.13687882E+04</pdfrwt>
<totfact> 0.58027974E-01</totfact>
</mgrwt>
</event>
<event>
 4    2  0.3884658E-007  0.9827851E+03  0.7818608E-02  0.9404435E-01
          1   -1    0    0  501    0  0.00000000000E+00  0.00000000000E+00  0.62312223204E+03  0.62312223206E+03  0.50400000000E-02 0. -1.
         -1   -1    0    0    0  501 -0.00000000000E+00 -0.00000000000E+00 -0.16731495155E+04  0.16731495156E+04  0.50400000000E-02 0.  1.
    8880023    1    1    2    0    0  0.43686557451E+03 -0.58412733219E+03  0.30953469483E+02  0.98327239051E+03  0.65864270000E+03 0. -1.
    8880022    1    1    2    0    0 -0.43686557451E+03  0.58412733219E+03 -0.10809807530E+04  0.13129993571E+04  0.15294330000E+03 0.  0.
<mgrwt>
<rscale>  0 0.91711612E+03</rscale>
<asrwt>0</asrwt>
<pdfrwt beam="1">  1        1 0.95864959E-01 0.98278506E+03</pdfrwt>
<pdfrwt beam="2">  1       -1 0.25740762E+00 0.98278506E+03</pdfrwt>
<totfact> 0.20444829E+00</totfact>
</mgrwt>
</event>
<event>
 4    2  0.3884658E-007  0.8243571E+03  0.7818608E-02  0.9660413E-01
         -1   -1    0    0    0  501 -0.00000000000E+00  0.00000000000E+00  0.21871172250E+03  0.21871172256E+03  0.50400000000E-02 0.  1.
          1   -1    0    0  501    0  0.00000000000E+00 -0.00000000000E+00 -0.43212351896E+04  0.43212351896E+04  0.50400000000E-02 0. -1.
    8880023    1    1    2    0    0  0.36624696656E+03  0.33409215225E+03 -0.38948477808E+04  0.39811309761E+04  0.65864270000E+03 0. -1.
    8880022    1    1    2    0    0 -0.36624696656E+03 -0.33409215225E+03 -0.20767568625E+03  0.55881593605E+03  0.15294330000E+03 0.  0.
<mgrwt>
<rscale>  0 0.73423492E+03</rscale>
<asrwt>0</asrwt>
<pdfrwt beam="1">  1        1 0.66480535E+00 0.82435709E+03</pdfrwt>
<pdfrwt beam="2">  1       -1 0.33647961E-01 0.82435709E+03</pdfrwt>
<totfact> 0.44582935E-01</totfact>
</mgrwt>
</event>
<event>
 4    2  0.3884658E-007  0.6872220E+03  0.7818608E-02  0.1005502E+00
          1   -1    0    0  501    0  0.00000000000E+00  0.00000000000E+00  0.45370661407E+03  0.45370661410E+03  0.50400000000E-02 0. -1.
         -1   -1    0    0    0  501 -0.00000000000E+00 -0.00000000000E+00 -0.87553726437E+03  0.87553726439E+03  0.50400000000E-02 0.  1.
    8880023    1    1    2    0    0 -0.16289396707E+03 -0.10922187159E+03  0.15200292440E+03  0.70383162548E+03  0.65864270000E+03 0. -1.
    8880022    1    1    2    0    0  0.16289396707E+03  0.10922187159E+03 -0.57383357470E+03  0.62541225300E+03  0.15294330000E+03 0.  0.
<mgrwt>
<rscale>  0 0.53302195E+03</rscale>
<asrwt>0</asrwt>
<pdfrwt beam="1">  1        1 0.69801018E-01 0.68722199E+03</pdfrwt>
<pdfrwt beam="2">  1       -1 0.13469804E+00 0.68722199E+03</pdfrwt>
<totfact> 0.24202586E+01</totfact>
</mgrwt>
</event>
<event>
 4    2  0.3884658E-007  0.7860073E+03  0.7818608E-02  0.9741910E-01
          1   -1    0    0  501    0  0.00000000000E+00  0.00000000000E+00  0.65276920171E+03  0.65276920173E+03  0.50400000000E-02 0. -1.
         -1   -1    0    0    0  501 -0.00000000000E+00 -0.00000000000E+00 -0.99289153697E+03  0.99289153698E+03  0.50400000000E-02 0.  1.
    8880023    1    1    2    0    0 -0.23658596273E+03 -0.35780487246E+03  0.31586039602E+03  0.84709812923E+03  0.65864270000E+03 0. -1.
    8880022    1    1    2    0    0  0.23658596273E+03  0.35780487246E+03 -0.65598273127E+03  0.79856260948E+03  0.15294330000E+03 0.  0.
<mgrwt>
<rscale>  0 0.68575363E+03</rscale>
<asrwt>0</asrwt>
<pdfrwt beam="1">  1        1 0.10042603E+00 0.78600728E+03</pdfrwt>
<pdfrwt beam="2">  1       -1 0.15275254E+00 0.78600728E+03</pdfrwt>
<totfact> 0.10310729E+01</totfact>
</mgrwt>
</event>
<event>
 4    2  0.3884658E-007  0.7887340E+03  0.7818608E-02  0.9735707E-01
         -1   -1    0    0    0  501 -0.00000000000E+00  0.00000000000E+00  0.76126176007E+03  0.76126176008E+03  0.50400000000E-02 0.  1.
          1   -1    0    0  501    0  0.00000000000E+00 -0.00000000000E+00 -0.92498848582E+03  0.92498848583E+03  0.50400000000E-02 0. -1.
    8880023    1    1    2    0    0  0.38348025181E+03 -0.20306166544E+03 -0.64614440648E+03  0.10196097017E+04  0.65864270000E+03 0. -1.
    8880022    1    1    2    0    0 -0.38348025181E+03  0.20306166544E+03  0.48241768073E+03  0.66664054422E+03  0.15294330000E+03 0.  0.
<mgrwt>
<rscale>  0 0.68930055E+03</rscale>
<asrwt>0</asrwt>
<pdfrwt beam="1">  1        1 0.14230592E+00 0.78873402E+03</pdfrwt>
<pdfrwt beam="2">  1       -1 0.11711719E+00 0.78873402E+03</pdfrwt>
<totfact> 0.11701292E+01</totfact>
</mgrwt>
</event>
<event>
 4    2  0.3884658E-007  0.1170676E+04  0.7818608E-02  0.9186168E-01
          1   -1    0    0  501    0  0.00000000000E+00  0.00000000000E+00  0.12901821817E+04  0.12901821818E+04  0.50400000000E-02 0. -1.
         -1   -1    0    0    0  501 -0.00000000000E+00 -0.00000000000E+00 -0.11425823404E+04  0.11425823404E+04  0.50400000000E-02 0.  1.
    8880023    1    1    2    0    0 -0.93149994889E+03  0.26264229795E+03  0.64211905206E+03  0.13352154189E+04  0.65864270000E+03 0.  0.
    8880022    1    1    2    0    0  0.93149994889E+03 -0.26264229795E+03 -0.49451921075E+03  0.10975491034E+04  0.15294330000E+03 0.  0.
<mgrwt>
<rscale>  0 0.11197349E+04</rscale>
<asrwt>0</asrwt>
<pdfrwt beam="1">  1        1 0.19848957E+00 0.11706764E+04</pdfrwt>
<pdfrwt beam="2">  1       -1 0.17578190E+00 0.11706764E+04</pdfrwt>
<totfact> 0.20184730E+00</totfact>
</mgrwt>
</event>
<event>
 4    2  0.3884658E-007  0.8426049E+03  0.7818608E-02  0.9625288E-01
         -1   -1    0    0    0  501 -0.00000000000E+00  0.00000000000E+00  0.10763442903E+04  0.10763442903E+04  0.50400000000E-02 0.  1.
          1   -1    0    0  501    0  0.00000000000E+00 -0.00000000000E+00 -0.10770040766E+04  0.10770040766E+04  0.50400000000E-02 0. -1.
    8880023    1    1    2    0    0 -0.20412884447E+03  0.48425635025E+03 -0.81493578447E+03  0.11722215392E+04  0.65864270000E+03 0. -1.
    8880022    1    1    2    0    0  0.20412884447E+03 -0.48425635025E+03  0.81427599818E+03  0.98112682775E+03  0.15294330000E+03 0.  0.
<mgrwt>
<rscale>  0 0.75644833E+03</rscale>
<asrwt>0</asrwt>
<pdfrwt beam="1">  1        1 0.16569294E+00 0.84260489E+03</pdfrwt>
<pdfrwt beam="2">  1       -1 0.16559143E+00 0.84260489E+03</pdfrwt>
<totfact> 0.35864884E+00</totfact>
</mgrwt>
</event>
<event>
 4    2  0.3884658E-007  0.9465010E+03  0.7818608E-02  0.9455166E-01
         -1   -1    0    0    0  501 -0.00000000000E+00  0.00000000000E+00  0.57211715502E+03  0.57211715504E+03  0.50400000000E-02 0.  1.
          1   -1    0    0  501    0  0.00000000000E+00 -0.00000000000E+00 -0.17332363536E+04  0.17332363536E+04  0.50400000000E-02 0. -1.
    8880023    1    1    2    0    0 -0.58870542129E+03 -0.33982335097E+03 -0.12867589308E+04  0.15973768295E+04  0.65864270000E+03 0.  0.
    8880022    1    1    2    0    0  0.58870542129E+03  0.33982335097E+03  0.12563973228E+03  0.70797667918E+03  0.15294330000E+03 0.  0.
<mgrwt>
<rscale>  0 0.87671491E+03</rscale>
<asrwt>0</asrwt>
<pdfrwt beam="1">  1        1 0.26665174E+00 0.94650102E+03</pdfrwt>
<pdfrwt beam="2">  1       -1 0.88018025E-01 0.94650102E+03</pdfrwt>
<totfact> 0.58244044E+00</totfact>
</mgrwt>
</event>
<event>
 4    2  0.3884658E-007  0.7963225E+03  0.7818608E-02  0.9718805E-01
         -1   -1    0    0    0  501 -0.00000000000E+00  0.00000000000E+00  0.22358572299E+04  0.22358572299E+04  0.50400000000E-02 0.  1.
          1   -1    0    0  501    0  0.00000000000E+00 -0.00000000000E+00 -0.36714405306E+03  0.36714405309E+03  0.50400000000E-02 0. -1.
    8880023    1    1    2    0    0 -0.21014399720E+03 -0.39516933936E+03  0.13720621176E+03  0.80805634528E+03  0.65864270000E+03 0. -1.
    8880022    1    1    2    0    0  0.21014399720E+03  0.39516933936E+03  0.17315069650E+04  0.17949449377E+04  0.15294330000E+03 0.  0.
<mgrwt>
<rscale>  0 0.69908123E+03</rscale>
<asrwt>0</asrwt>
<pdfrwt beam="1">  1        1 0.56483700E-01 0.79632249E+03</pdfrwt>
<pdfrwt beam="2">  1       -1 0.34397804E+00 0.79632249E+03</pdfrwt>
<totfact> 0.12044226E+00</totfact>
</mgrwt>
</event>
<event>
 4    2  0.3884658E-007  0.9120652E+03  0.7818608E-02  0.9506934E-01
         -1   -1    0    0    0  501 -0.00000000000E+00  0.00000000000E+00  0.37713237994E+03  0.37713237997E+03  0.50400000000E-02 0.  1.
          1   -1    0    0  501    0  0.00000000000E+00 -0.00000000000E+00 -0.24970840481E+04  0.24970840481E+04  0.50400000000E-02 0. -1.
    8880023    1    1    2    0    0  0.18331103325E+03  0.60369683664E+03 -0.20213375410E+04  0.22175816708E+04  0.65864270000E+03 0.  0.
    8880022    1    1    2    0    0 -0.18331103325E+03 -0.60369683664E+03 -0.98614127189E+02  0.65663475736E+03  0.15294330000E+03 0.  0.
<mgrwt>
<rscale>  0 0.83774525E+03</rscale>
<asrwt>0</asrwt>
<pdfrwt beam="1">  1        1 0.38416677E+00 0.91206525E+03</pdfrwt>
<pdfrwt beam="2">  1       -1 0.58020368E-01 0.91206525E+03</pdfrwt>
<totfact> 0.42252440E+00</totfact>
</mgrwt>
</event>
<event>
 4    2  0.3884658E-007  0.7114074E+03  0.7818608E-02  0.9952811E-01
          1   -1    0    0  501    0  0.00000000000E+00  0.00000000000E+00  0.95117373146E+03  0.95117373148E+03  0.50400000000E-02 0. -1.
         -1   -1    0    0    0  501 -0.00000000000E+00 -0.00000000000E+00 -0.55900416865E+03  0.55900416867E+03  0.50400000000E-02 0.  1.
    8880023    1    1    2    0    0 -0.24042201589E+02 -0.26779153467E+03  0.75232617492E+03  0.10354203075E+04  0.65864270000E+03 0. -1.
    8880022    1    1    2    0    0  0.24042201589E+02  0.26779153467E+03 -0.36015661211E+03  0.47475759263E+03  0.15294330000E+03 0.  0.
<mgrwt>
<rscale>  0 0.57768697E+03</rscale>
<asrwt>0</asrwt>
<pdfrwt beam="1">  1        1 0.14633442E+00 0.71140744E+03</pdfrwt>
<pdfrwt beam="2">  1       -1 0.86000641E-01 0.71140744E+03</pdfrwt>
<totfact> 0.22798450E+01</totfact>
</mgrwt>
</event>
<event>
 4    2  0.3884658E-007  0.7722838E+03  0.7818608E-02  0.9774285E-01
          1   -1    0    0  501    0  0.00000000000E+00  0.00000000000E+00  0.18202215584E+03  0.18202215591E+03  0.50400000000E-02 0. -1.
         -1   -1    0    0    0  501 -0.00000000000E+00 -0.00000000000E+00 -0.20416297784E+04  0.20416297784E+04  0.50400000000E-02 0.  1.
    8880023    1    1    2    0    0 -0.33116780044E+03  0.23008673062E+03 -0.10160348245E+04  0.12762245048E+04  0.65864270000E+03 0.  0.
    8880022    1    1    2    0    0  0.33116780044E+03 -0.23008673062E+03 -0.84357279798E+03  0.94742742950E+03  0.15294330000E+03 0. -1.
<mgrwt>
<rscale>  0 0.66761006E+03</rscale>
<asrwt>0</asrwt>
<pdfrwt beam="1">  1        1 0.28003410E-01 0.77228377E+03</pdfrwt>
<pdfrwt beam="2">  1       -1 0.31409687E+00 0.77228377E+03</pdfrwt>
<totfact> 0.46983477E+00</totfact>
</mgrwt>
</event>
<event>
 4    2  0.3884658E-007  0.7708871E+03  0.7818608E-02  0.9777696E-01
         -1   -1    0    0    0  501 -0.00000000000E+00  0.00000000000E+00  0.15594804148E+04  0.15594804148E+04  0.50400000000E-02 0.  1.
          1   -1    0    0  501    0  0.00000000000E+00 -0.00000000000E+00 -0.96157144086E+03  0.96157144087E+03  0.50400000000E-02 0. -1.
    8880023    1    1    2    0    0 -0.36257327122E+03  0.17028612939E+03 -0.76876230023E+03  0.10886975812E+04  0.65864270000E+03 0. -1.
    8880022    1    1    2    0    0  0.36257327122E+03 -0.17028612939E+03  0.13666712742E+04  0.14323542745E+04  0.15294330000E+03 0.  0.
<mgrwt>
<rscale>  0 0.66573375E+03</rscale>
<asrwt>0</asrwt>
<pdfrwt beam="1">  1        1 0.14793407E+00 0.77088712E+03</pdfrwt>
<pdfrwt beam="2">  1       -1 0.23992006E+00 0.77088712E+03</pdfrwt>
<totfact> 0.13759393E+00</totfact>
</mgrwt>
</event>
<event>
 4    2  0.3884658E-007  0.1147111E+04  0.7818608E-02  0.9210331E-01
         -1   -1    0    0    0  501 -0.00000000000E+00  0.00000000000E+00  0.10162049558E+04  0.10162049558E+04  0.50400000000E-02 0.  1.
          1   -1    0    0  501    0  0.00000000000E+00 -0.00000000000E+00 -0.15805672347E+04  0.15805672347E+04  0.50400000000E-02 0. -1.
    8880023    1    1    2    0    0 -0.91294143867E+03 -0.22043572274E+03 -0.10261344636E+04  0.15390958781E+04  0.65864270000E+03 0. -1.
    8880022    1    1    2    0    0  0.91294143867E+03  0.22043572274E+03  0.46177218476E+03  0.10576763125E+04  0.15294330000E+03 0.  0.
<mgrwt>
<rscale>  0 0.10947424E+04</rscale>
<asrwt>0</asrwt>
<pdfrwt beam="1">  1        1 0.24316419E+00 0.11471112E+04</pdfrwt>
<pdfrwt beam="2">  1       -1 0.15633922E+00 0.11471112E+04</pdfrwt>
<totfact> 0.17702894E+00</totfact>
</mgrwt>
</event>
<event>
 4    2  0.3884658E-007  0.6923158E+03  0.7818608E-02  0.1003071E+00
          1   -1    0    0  501    0  0.00000000000E+00  0.00000000000E+00  0.12924256156E+04  0.12924256156E+04  0.50400000000E-02 0. -1.
         -1   -1    0    0    0  501 -0.00000000000E+00 -0.00000000000E+00 -0.29914276471E+03  0.29914276475E+03  0.50400000000E-02 0.  1.
    8880023    1    1    2    0    0  0.20679482046E+03  0.52219574143E+02  0.11069001784E+04  0.13055761919E+04  0.65864270000E+03 0. -1.
    8880022    1    1    2    0    0 -0.20679482046E+03 -0.52219574143E+02 -0.11361732756E+03  0.28599218841E+03  0.15294330000E+03 0.  0.
<mgrwt>
<rscale>  0 0.54324021E+03</rscale>
<asrwt>0</asrwt>
<pdfrwt beam="1">  1        1 0.19883471E+00 0.69231582E+03</pdfrwt>
<pdfrwt beam="2">  1       -1 0.46021964E-01 0.69231582E+03</pdfrwt>
<totfact> 0.44462773E+01</totfact>
</mgrwt>
</event>
<event>
 4    2  0.3884658E-007  0.7985714E+03  0.7818608E-02  0.9713893E-01
         -1   -1    0    0    0  501 -0.00000000000E+00  0.00000000000E+00  0.70464271730E+03  0.70464271732E+03  0.50400000000E-02 0.  1.
          1   -1    0    0  501    0  0.00000000000E+00 -0.00000000000E+00 -0.12092531918E+04  0.12092531918E+04  0.50400000000E-02 0. -1.
    8880023    1    1    2    0    0  0.43670993212E+03  0.11485015793E+03 -0.96401530663E+03  0.12518154182E+04  0.65864270000E+03 0. -1.
    8880022    1    1    2    0    0 -0.43670993212E+03 -0.11485015793E+03  0.45940483216E+03  0.66208049089E+03  0.15294330000E+03 0.  0.
<mgrwt>
<rscale>  0 0.70195573E+03</rscale>
<asrwt>0</asrwt>
<pdfrwt beam="1">  1        1 0.18603895E+00 0.79857143E+03</pdfrwt>
<pdfrwt beam="2">  1       -1 0.10840657E+00 0.79857143E+03</pdfrwt>
<totfact> 0.85466602E+00</totfact>
</mgrwt>
</event>
<event>
 4    2  0.3884658E-007  0.7699992E+03  0.7818608E-02  0.9779876E-01
          1   -1    0    0  501    0  0.00000000000E+00  0.00000000000E+00  0.15141510127E+04  0.15141510127E+04  0.50400000000E-02 0. -1.
         -1   -1    0    0    0  501 -0.00000000000E+00 -0.00000000000E+00 -0.51025695725E+03  0.51025695728E+03  0.50400000000E-02 0.  1.
    8880023    1    1    2    0    0 -0.32689132783E+03  0.22854030340E+03  0.12955939304E+04  0.15071371700E+04  0.65864270000E+03 0. -1.
    8880022    1    1    2    0    0  0.32689132783E+03 -0.22854030340E+03 -0.29169987492E+03  0.51727080000E+03  0.15294330000E+03 0.  0.
<mgrwt>
<rscale>  0 0.66453783E+03</rscale>
<asrwt>0</asrwt>
<pdfrwt beam="1">  1        1 0.23294630E+00 0.76999923E+03</pdfrwt>
<pdfrwt beam="2">  1       -1 0.78501072E-01 0.76999923E+03</pdfrwt>
<totfact> 0.10752100E+01</totfact>
</mgrwt>
</event>
<event>
 4    2  0.3884658E-007  0.8904787E+03  0.7818608E-02  0.9541493E-01
         -1   -1    0    0    0  501 -0.00000000000E+00  0.00000000000E+00  0.58673226711E+03  0.58673226713E+03  0.50400000000E-02 0.  1.
          1   -1    0    0  501    0  0.00000000000E+00 -0.00000000000E+00 -0.97212961349E+03  0.97212961350E+03  0.50400000000E-02 0. -1.
    8880023    1    1    2    0    0 -0.56806997951E+03  0.19088885888E+03 -0.19322451672E+03  0.91120139277E+03  0.65864270000E+03 0.  0.
    8880022    1    1    2    0    0  0.56806997951E+03 -0.19088885888E+03 -0.19217282967E+03  0.64766048786E+03  0.15294330000E+03 0.  1.
<mgrwt>
<rscale>  0 0.81292664E+03</rscale>
<asrwt>0</asrwt>
<pdfrwt beam="1">  1        1 0.14955840E+00 0.89047867E+03</pdfrwt>
<pdfrwt beam="2">  1       -1 0.90266503E-01 0.89047867E+03</pdfrwt>
<totfact> 0.19351529E+01</totfact>
</mgrwt>
</event>
<event>
 4    2  0.3884658E-007  0.7564913E+03  0.7818608E-02  0.9814277E-01
          1   -1    0    0  501    0  0.00000000000E+00  0.00000000000E+00  0.45986454102E+03  0.45986454105E+03  0.50400000000E-02 0. -1.
         -1   -1    0    0    0  501 -0.00000000000E+00 -0.00000000000E+00 -0.13014854053E+04  0.13014854053E+04  0.50400000000E-02 0.  1.
    8880023    1    1    2    0    0 -0.34585833372E+03 -0.13729869323E+03  0.75121475209E+02  0.76021204967E+03  0.65864270000E+03 0. -1.
    8880022    1    1    2    0    0  0.34585833372E+03  0.13729869323E+03 -0.91674233951E+03  0.10011378967E+04  0.15294330000E+03 0.  0.
<mgrwt>
<rscale>  0 0.64601946E+03</rscale>
<asrwt>0</asrwt>
<pdfrwt beam="1">  1        1 0.70748392E-01 0.75649132E+03</pdfrwt>
<pdfrwt beam="2">  1       -1 0.20022852E+00 0.75649132E+03</pdfrwt>
<totfact> 0.76965230E+00</totfact>
</mgrwt>
</event>
<event>
 4    2  0.3884658E-007  0.8140034E+03  0.7818608E-02  0.9681297E-01
          1   -1    0    0  501    0  0.00000000000E+00  0.00000000000E+00  0.35215038150E+03  0.35215038154E+03  0.50400000000E-02 0. -1.
         -1   -1    0    0    0  501 -0.00000000000E+00 -0.00000000000E+00 -0.13528035458E+04  0.13528035458E+04  0.50400000000E-02 0.  1.
    8880023    1    1    2    0    0  0.47561001620E+03  0.50857629900E+02 -0.85847009553E+03  0.11830352899E+04  0.65864270000E+03 0.  1.
    8880022    1    1    2    0    0 -0.47561001620E+03 -0.50857629900E+02 -0.14218306877E+03  0.52191863742E+03  0.15294330000E+03 0.  0.
<mgrwt>
<rscale>  0 0.72141333E+03</rscale>
<asrwt>0</asrwt>
<pdfrwt beam="1">  1        1 0.54176982E-01 0.81400344E+03</pdfrwt>
<pdfrwt beam="2">  1       -1 0.20812362E+00 0.81400344E+03</pdfrwt>
<totfact> 0.96338827E+00</totfact>
</mgrwt>
</event>
<event>
 4    2  0.3884658E-007  0.8442968E+03  0.7818608E-02  0.9622131E-01
         -1   -1    0    0    0  501 -0.00000000000E+00  0.00000000000E+00  0.11527138296E+04  0.11527138297E+04  0.50400000000E-02 0.  1.
          1   -1    0    0  501    0  0.00000000000E+00 -0.00000000000E+00 -0.49150012810E+03  0.49150012813E+03  0.50400000000E-02 0. -1.
    8880023    1    1    2    0    0  0.38136468564E+03 -0.36549676392E+03  0.86396586584E+02  0.84870577017E+03  0.65864270000E+03 0.  0.
    8880022    1    1    2    0    0 -0.38136468564E+03  0.36549676392E+03  0.57481711496E+03  0.79550818761E+03  0.15294330000E+03 0.  0.
<mgrwt>
<rscale>  0 0.75848574E+03</rscale>
<asrwt>0</asrwt>
<pdfrwt beam="1">  1        1 0.75615405E-01 0.84429682E+03</pdfrwt>
<pdfrwt beam="2">  1       -1 0.17734059E+00 0.84429682E+03</pdfrwt>
<totfact> 0.10062386E+01</totfact>
</mgrwt>
</event>
<event>
 4    2  0.3884658E-007  0.7119129E+03  0.7818608E-02  0.9950965E-01
          1   -1    0    0  501    0  0.00000000000E+00  0.00000000000E+00  0.17560798086E+04  0.17560798086E+04  0.50400000000E-02 0. -1.
         -1   -1    0    0    0  501 -0.00000000000E+00 -0.00000000000E+00 -0.23706935283E+03  0.23706935289E+03  0.50400000000E-02 0.  1.
    8880023    1    1    2    0    0 -0.21221229638E+03  0.16725926224E+03  0.15245877546E+04  0.16826133683E+04  0.65864270000E+03 0. -1.
    8880022    1    1    2    0    0  0.21221229638E+03 -0.16725926224E+03 -0.55772988622E+01  0.31053579313E+03  0.15294330000E+03 0.  1.
<mgrwt>
<rscale>  0 0.57853619E+03</rscale>
<asrwt>0</asrwt>
<pdfrwt beam="1">  1        1 0.27016612E+00 0.71191286E+03</pdfrwt>
<pdfrwt beam="2">  1       -1 0.36472208E-01 0.71191286E+03</pdfrwt>
<totfact> 0.32671614E+01</totfact>
</mgrwt>
</event>
<event>
 4    2  0.3884658E-007  0.6737369E+03  0.7818608E-02  0.1013115E+00
         -1   -1    0    0    0  501 -0.00000000000E+00  0.00000000000E+00  0.17039216275E+03  0.17039216283E+03  0.50400000000E-02 0.  1.
          1   -1    0    0  501    0  0.00000000000E+00 -0.00000000000E+00 -0.15993842377E+04  0.15993842377E+04  0.50400000000E-02 0. -1.
    8880023    1    1    2    0    0 -0.94939826838E+02 -0.10534527166E+03 -0.14070706132E+04  0.15600542022E+04  0.65864270000E+03 0. -1.
    8880022    1    1    2    0    0  0.94939826838E+02  0.10534527166E+03 -0.21921461759E+02  0.20972219835E+03  0.15294330000E+03 0.  0.
<mgrwt>
<rscale>  0 0.50255368E+03</rscale>
<asrwt>0</asrwt>
<pdfrwt beam="1">  1        1 0.24605910E+00 0.67373689E+03</pdfrwt>
<pdfrwt beam="2">  1       -1 0.26214180E-01 0.67373689E+03</pdfrwt>
<totfact> 0.74551865E+01</totfact>
</mgrwt>
</event>
<event>
 4    2  0.3884658E-007  0.8363883E+03  0.7818608E-02  0.9637028E-01
          1   -1    0    0  501    0  0.00000000000E+00  0.00000000000E+00  0.87089453257E+03  0.87089453259E+03  0.50400000000E-02 0. -1.
         -1   -1    0    0    0  501 -0.00000000000E+00 -0.00000000000E+00 -0.57716815489E+03  0.57716815491E+03  0.50400000000E-02 0.  1.
    8880023    1    1    2    0    0  0.47165631281E+03  0.20802770450E+03  0.21525516794E+01  0.83639108257E+03  0.65864270000E+03 0.  1.
    8880022    1    1    2    0    0 -0.47165631281E+03 -0.20802770450E+03  0.29157382601E+03  0.61167160493E+03  0.15294330000E+03 0. -1.
<mgrwt>
<rscale>  0 0.74893137E+03</rscale>
<asrwt>0</asrwt>
<pdfrwt beam="1">  1        1 0.13398378E+00 0.83638831E+03</pdfrwt>
<pdfrwt beam="2">  1       -1 0.88795100E-01 0.83638831E+03</pdfrwt>
<totfact> 0.24358422E+01</totfact>
</mgrwt>
</event>
<event>
 4    2  0.3884658E-007  0.6840766E+03  0.7818608E-02  0.1007106E+00
         -1   -1    0    0    0  501 -0.00000000000E+00  0.00000000000E+00  0.23679515368E+03  0.23679515374E+03  0.50400000000E-02 0.  1.
          1   -1    0    0  501    0  0.00000000000E+00 -0.00000000000E+00 -0.15882374072E+04  0.15882374072E+04  0.50400000000E-02 0. -1.
    8880023    1    1    2    0    0  0.68746669829E+02  0.17153558628E+03 -0.14194575679E+04  0.15756968475E+04  0.65864270000E+03 0. -1.
    8880022    1    1    2    0    0 -0.68746669829E+02 -0.17153558628E+03  0.68015314394E+02  0.24933571341E+03  0.15294330000E+03 0.  0.
<mgrwt>
<rscale>  0 0.52641331E+03</rscale>
<asrwt>0</asrwt>
<pdfrwt beam="1">  1        1 0.24434421E+00 0.68407658E+03</pdfrwt>
<pdfrwt beam="2">  1       -1 0.36430025E-01 0.68407658E+03</pdfrwt>
<totfact> 0.42620036E+01</totfact>
</mgrwt>
</event>
<event>
 4    2  0.3884658E-007  0.8796440E+03  0.7818608E-02  0.9559533E-01
          1   -1    0    0  501    0  0.00000000000E+00  0.00000000000E+00  0.89102836399E+03  0.89102836400E+03  0.50400000000E-02 0. -1.
         -1   -1    0    0    0  501 -0.00000000000E+00 -0.00000000000E+00 -0.14502165537E+04  0.14502165537E+04  0.50400000000E-02 0.  1.
    8880023    1    1    2    0    0 -0.74023068367E+02 -0.57834593420E+03  0.57913429696E+03  0.10531714839E+04  0.65864270000E+03 0. -1.
    8880022    1    1    2    0    0  0.74023068367E+02  0.57834593420E+03 -0.11383224866E+04  0.12880734338E+04  0.15294330000E+03 0.  0.
<mgrwt>
<rscale>  0 0.80033467E+03</rscale>
<asrwt>0</asrwt>
<pdfrwt beam="1">  1        1 0.13708129E+00 0.87964404E+03</pdfrwt>
<pdfrwt beam="2">  1       -1 0.22311024E+00 0.87964404E+03</pdfrwt>
<totfact> 0.19855032E+00</totfact>
</mgrwt>
</event>
<event>
 4    2  0.3884658E-007  0.9087315E+03  0.7818608E-02  0.9512158E-01
         -1   -1    0    0    0  501 -0.00000000000E+00  0.00000000000E+00  0.16503707288E+04  0.16503707288E+04  0.50400000000E-02 0.  1.
          1   -1    0    0  501    0  0.00000000000E+00 -0.00000000000E+00 -0.23166734329E+04  0.23166734329E+04  0.50400000000E-02 0. -1.
    8880023    1    1    2    0    0  0.62333532783E+03 -0.58615130297E+02 -0.21582952037E+04  0.23418008150E+04  0.65864270000E+03 0. -1.
    8880022    1    1    2    0    0 -0.62333532783E+03  0.58615130297E+02  0.14919924996E+04  0.16252433468E+04  0.15294330000E+03 0.  0.
<mgrwt>
<rscale>  0 0.83393390E+03</rscale>
<asrwt>0</asrwt>
<pdfrwt beam="1">  1        1 0.35641130E+00 0.90873146E+03</pdfrwt>
<pdfrwt beam="2">  1       -1 0.25390319E+00 0.90873146E+03</pdfrwt>
<totfact> 0.12413598E-01</totfact>
</mgrwt>
</event>
<event>
 4    2  0.3884658E-007  0.8093311E+03  0.7818608E-02  0.9690972E-01
         -1   -1    0    0    0  501 -0.00000000000E+00  0.00000000000E+00  0.11974456129E+04  0.11974456129E+04  0.50400000000E-02 0.  1.
          1   -1    0    0  501    0  0.00000000000E+00 -0.00000000000E+00 -0.80237286174E+03  0.80237286176E+03  0.50400000000E-02 0. -1.
    8880023    1    1    2    0    0 -0.46673332340E+03 -0.58022236558E+02 -0.51835244605E+03  0.96109626973E+03  0.65864270000E+03 0. -1.
    8880022    1    1    2    0    0  0.46673332340E+03  0.58022236558E+02  0.91342519717E+03  0.10387222049E+04  0.15294330000E+03 0.  0.
<mgrwt>
<rscale>  0 0.71556868E+03</rscale>
<asrwt>0</asrwt>
<pdfrwt beam="1">  1        1 0.12344198E+00 0.80933107E+03</pdfrwt>
<pdfrwt beam="2">  1       -1 0.18422240E+00 0.80933107E+03</pdfrwt>
<totfact> 0.43904780E+00</totfact>
</mgrwt>
</event>
<event>
 4    2  0.3884658E-007  0.7063642E+03  0.7818608E-02  0.9971758E-01
          1   -1    0    0  501    0  0.00000000000E+00  0.00000000000E+00  0.14012841112E+04  0.14012841112E+04  0.50400000000E-02 0. -1.
         -1   -1    0    0    0  501 -0.00000000000E+00 -0.00000000000E+00 -0.38591786631E+03  0.38591786634E+03  0.50400000000E-02 0.  1.
    8880023    1    1    2    0    0 -0.17469593996E+03  0.18606858891E+03  0.12313256363E+04  0.14195468362E+04  0.65864270000E+03 0. -1.
    8880022    1    1    2    0    0  0.17469593996E+03 -0.18606858891E+03 -0.21595939142E+03  0.36765514137E+03  0.15294330000E+03 0.  0.
<mgrwt>
<rscale>  0 0.56906117E+03</rscale>
<asrwt>0</asrwt>
<pdfrwt beam="1">  1        1 0.21558217E+00 0.70636421E+03</pdfrwt>
<pdfrwt beam="2">  1       -1 0.59371979E-01 0.70636421E+03</pdfrwt>
<totfact> 0.22897960E+01</totfact>
</mgrwt>
</event>
<event>
 4    2  0.3884658E-007  0.8606307E+03  0.7818608E-02  0.9592442E-01
          1   -1    0    0  501    0  0.00000000000E+00  0.00000000000E+00  0.81782131652E+03  0.81782131654E+03  0.50400000000E-02 0. -1.
         -1   -1    0    0    0  501 -0.00000000000E+00 -0.00000000000E+00 -0.10413695717E+04  0.10413695718E+04  0.50400000000E-02 0.  1.
    8880023    1    1    2    0    0  0.55354210738E+03 -0.21591955409E+02  0.45213240608E+03  0.97216716468E+03  0.65864270000E+03 0.  0.
    8880022    1    1    2    0    0 -0.55354210738E+03  0.21591955409E+02 -0.67568066130E+03  0.88702372362E+03  0.15294330000E+03 0.  0.
<mgrwt>
<rscale>  0 0.77798415E+03</rscale>
<asrwt>0</asrwt>
<pdfrwt beam="1">  1        1 0.12581866E+00 0.86063075E+03</pdfrwt>
<pdfrwt beam="2">  1       -1 0.16021070E+00 0.86063075E+03</pdfrwt>
<totfact> 0.63287798E+00</totfact>
</mgrwt>
</event>
<event>
 4    2  0.3884658E-007  0.7825441E+03  0.7818608E-02  0.9749894E-01
          1   -1    0    0  501    0  0.00000000000E+00  0.00000000000E+00  0.92124126648E+03  0.92124126649E+03  0.50400000000E-02 0. -1.
         -1   -1    0    0    0  501 -0.00000000000E+00 -0.00000000000E+00 -0.63228283805E+03  0.63228283807E+03  0.50400000000E-02 0.  1.
    8880023    1    1    2    0    0 -0.14435174366E+03  0.39714937068E+03  0.61750420455E+03  0.99683835070E+03  0.65864270000E+03 0. -1.
    8880022    1    1    2    0    0  0.14435174366E+03 -0.39714937068E+03 -0.32854577612E+03  0.55668575386E+03  0.15294330000E+03 0.  0.
<mgrwt>
<rscale>  0 0.68122236E+03</rscale>
<asrwt>0</asrwt>
<pdfrwt beam="1">  1        1 0.14172943E+00 0.78254409E+03</pdfrwt>
<pdfrwt beam="2">  1       -1 0.97274283E-01 0.78254409E+03</pdfrwt>
<totfact> 0.18190111E+01</totfact>
</mgrwt>
</event>
<event>
 4    2  0.3884658E-007  0.1131316E+04  0.7818608E-02  0.9226965E-01
          1   -1    0    0  501    0  0.00000000000E+00  0.00000000000E+00  0.19305629462E+04  0.19305629462E+04  0.50400000000E-02 0. -1.
         -1   -1    0    0    0  501 -0.00000000000E+00 -0.00000000000E+00 -0.75036807709E+03  0.75036807711E+03  0.50400000000E-02 0.  1.
    8880023    1    1    2    0    0  0.91553821426E+03  0.88635869226E+02  0.13195497043E+04  0.17381277765E+04  0.65864270000E+03 0.  0.
    8880022    1    1    2    0    0 -0.91553821426E+03 -0.88635869226E+02 -0.13935483520E+03  0.94280324680E+03  0.15294330000E+03 0.  0.
<mgrwt>
<rscale>  0 0.10779389E+04</rscale>
<asrwt>0</asrwt>
<pdfrwt beam="1">  1        1 0.29700968E+00 0.11313164E+04</pdfrwt>
<pdfrwt beam="2">  1       -1 0.11544124E+00 0.11313164E+04</pdfrwt>
<totfact> 0.22426439E+00</totfact>
</mgrwt>
</event>
<event>
 4    2  0.3884658E-007  0.7094592E+03  0.7818608E-02  0.9960015E-01
          1   -1    0    0  501    0  0.00000000000E+00  0.00000000000E+00  0.85916384690E+03  0.85916384691E+03  0.50400000000E-02 0. -1.
         -1   -1    0    0    0  501 -0.00000000000E+00 -0.00000000000E+00 -0.38364767813E+03  0.38364767816E+03  0.50400000000E-02 0.  1.
    8880023    1    1    2    0    0 -0.48462006587E+02  0.25917862330E+03  0.58436923060E+03  0.91914075571E+03  0.65864270000E+03 0. -1.
    8880022    1    1    2    0    0  0.48462006587E+02 -0.25917862330E+03 -0.10885306184E+03  0.32367076937E+03  0.15294330000E+03 0.  0.
<mgrwt>
<rscale>  0 0.57438829E+03</rscale>
<asrwt>0</asrwt>
<pdfrwt beam="1">  1        1 0.13217905E+00 0.70945918E+03</pdfrwt>
<pdfrwt beam="2">  1       -1 0.59022720E-01 0.70945918E+03</pdfrwt>
<totfact> 0.58740128E+01</totfact>
</mgrwt>
</event>
<event>
 4    2  0.3884658E-007  0.8632652E+03  0.7818608E-02  0.9587781E-01
         -1   -1    0    0    0  501 -0.00000000000E+00  0.00000000000E+00  0.76101863792E+03  0.76101863794E+03  0.50400000000E-02 0.  1.
          1   -1    0    0  501    0  0.00000000000E+00 -0.00000000000E+00 -0.15301416114E+04  0.15301416114E+04  0.50400000000E-02 0. -1.
    8880023    1    1    2    0    0  0.40221946670E+03  0.38682836201E+03 -0.12633977287E+04  0.15301636214E+04  0.65864270000E+03 0. -1.
    8880022    1    1    2    0    0 -0.40221946670E+03 -0.38682836201E+03  0.49427475524E+03  0.76099662794E+03  0.15294330000E+03 0.  0.
<mgrwt>
<rscale>  0 0.78110196E+03</rscale>
<asrwt>0</asrwt>
<pdfrwt beam="1">  1        1 0.23540640E+00 0.86326525E+03</pdfrwt>
<pdfrwt beam="2">  1       -1 0.11707979E+00 0.86326525E+03</pdfrwt>
<totfact> 0.41991227E+00</totfact>
</mgrwt>
</event>
<event>
 4    2  0.3884658E-007  0.7176369E+03  0.7818608E-02  0.9930664E-01
          1   -1    0    0  501    0  0.00000000000E+00  0.00000000000E+00  0.13863559420E+04  0.13863559420E+04  0.50400000000E-02 0. -1.
         -1   -1    0    0    0  501 -0.00000000000E+00 -0.00000000000E+00 -0.39121332177E+03  0.39121332180E+03  0.50400000000E-02 0.  1.
    8880023    1    1    2    0    0 -0.24805799723E+03  0.14021333879E+03  0.11975091033E+04  0.13960769352E+04  0.65864270000E+03 0. -1.
    8880022    1    1    2    0    0  0.24805799723E+03 -0.14021333879E+03 -0.20236648299E+03  0.38149232865E+03  0.15294330000E+03 0.  0.
<mgrwt>
<rscale>  0 0.58797904E+03</rscale>
<asrwt>0</asrwt>
<pdfrwt beam="1">  1        1 0.21328553E+00 0.71763693E+03</pdfrwt>
<pdfrwt beam="2">  1       -1 0.60186665E-01 0.71763693E+03</pdfrwt>
<totfact> 0.22795659E+01</totfact>
</mgrwt>
</event>
<event>
 4    2  0.3884658E-007  0.7760943E+03  0.7818608E-02  0.9765093E-01
          1   -1    0    0  501    0  0.00000000000E+00  0.00000000000E+00  0.70705964246E+03  0.70705964248E+03  0.50400000000E-02 0. -1.
         -1   -1    0    0    0  501 -0.00000000000E+00 -0.00000000000E+00 -0.63996302706E+03  0.63996302708E+03  0.50400000000E-02 0.  1.
    8880023    1    1    2    0    0 -0.36104799014E+03  0.19533690400E+03 -0.23963019366E+03  0.81224687948E+03  0.65864270000E+03 0.  1.
    8880022    1    1    2    0    0  0.36104799014E+03 -0.19533690400E+03  0.30672680906E+03  0.53477579008E+03  0.15294330000E+03 0. -1.
<mgrwt>
<rscale>  0 0.67269983E+03</rscale>
<asrwt>0</asrwt>
<pdfrwt beam="1">  1        1 0.10877841E+00 0.77609430E+03</pdfrwt>
<pdfrwt beam="2">  1       -1 0.98455850E-01 0.77609430E+03</pdfrwt>
<totfact> 0.27097988E+01</totfact>
</mgrwt>
</event>
<event>
 4    2  0.3884658E-007  0.8327348E+03  0.7818608E-02  0.9644035E-01
          1   -1    0    0  501    0  0.00000000000E+00  0.00000000000E+00  0.13161928265E+04  0.13161928265E+04  0.50400000000E-02 0. -1.
         -1   -1    0    0    0  501 -0.00000000000E+00 -0.00000000000E+00 -0.44107898022E+03  0.44107898025E+03  0.50400000000E-02 0.  1.
    8880023    1    1    2    0    0  0.80907909084E+02 -0.50308137858E+03  0.89811762430E+03  0.12247703607E+04  0.65864270000E+03 0.  0.
    8880022    1    1    2    0    0 -0.80907909084E+02  0.50308137858E+03 -0.23003777985E+02  0.53250144605E+03  0.15294330000E+03 0.  0.
<mgrwt>
<rscale>  0 0.74448990E+03</rscale>
<asrwt>0</asrwt>
<pdfrwt beam="1">  1        1 0.20249120E+00 0.83273475E+03</pdfrwt>
<pdfrwt beam="2">  1       -1 0.67858306E-01 0.83273475E+03</pdfrwt>
<totfact> 0.19795690E+01</totfact>
</mgrwt>
</event>
<event>
 4    2  0.3884658E-007  0.6863157E+03  0.7818608E-02  0.1005955E+00
         -1   -1    0    0    0  501 -0.00000000000E+00  0.00000000000E+00  0.27248585656E+03  0.27248585661E+03  0.50400000000E-02 0.  1.
          1   -1    0    0  501    0  0.00000000000E+00 -0.00000000000E+00 -0.21117615360E+04  0.21117615360E+04  0.50400000000E-02 0. -1.
    8880023    1    1    2    0    0 -0.15875584476E+03  0.10961589266E+03 -0.19835272999E+04  0.20989068150E+04  0.65864270000E+03 0. -1.
    8880022    1    1    2    0    0  0.15875584476E+03 -0.10961589266E+03  0.14425162054E+03  0.28534057758E+03  0.15294330000E+03 0.  0.
<mgrwt>
<rscale>  0 0.53114321E+03</rscale>
<asrwt>0</asrwt>
<pdfrwt beam="1">  1        1 0.32488638E+00 0.68631572E+03</pdfrwt>
<pdfrwt beam="2">  1       -1 0.41920902E-01 0.68631572E+03</pdfrwt>
<totfact> 0.14751565E+01</totfact>
</mgrwt>
</event>
<event>
 4    2  0.3884658E-007  0.1061163E+04  0.7818608E-02  0.9305581E-01
          1   -1    0    0  501    0  0.00000000000E+00  0.00000000000E+00  0.28161636404E+04  0.28161636404E+04  0.50400000000E-02 0. -1.
         -1   -1    0    0    0  501 -0.00000000000E+00 -0.00000000000E+00 -0.35287383421E+03  0.35287383424E+03  0.50400000000E-02 0.  1.
    8880023    1    1    2    0    0 -0.82447533808E+03  0.11179082537E+03  0.89954294106E+03  0.13911306484E+04  0.65864270000E+03 0.  0.
    8880022    1    1    2    0    0  0.82447533808E+03 -0.11179082537E+03  0.15637468651E+04  0.17779068263E+04  0.15294330000E+03 0.  0.
<mgrwt>
<rscale>  0 0.10027070E+04</rscale>
<asrwt>0</asrwt>
<pdfrwt beam="1">  1        1 0.43325595E+00 0.10611630E+04</pdfrwt>
<pdfrwt beam="2">  1       -1 0.54288281E-01 0.10611630E+04</pdfrwt>
<totfact> 0.28239961E+00</totfact>
</mgrwt>
</event>
<event>
 4    2  0.3884658E-007  0.9503285E+03  0.7818608E-02  0.9449642E-01
         -1   -1    0    0    0  501 -0.00000000000E+00  0.00000000000E+00  0.11825305414E+04  0.11825305414E+04  0.50400000000E-02 0.  1.
          1   -1    0    0  501    0  0.00000000000E+00 -0.00000000000E+00 -0.12029020949E+04  0.12029020949E+04  0.50400000000E-02 0. -1.
    8880023    1    1    2    0    0  0.21401954832E+03  0.65077615545E+03 -0.86649513219E+03  0.12860552056E+04  0.65864270000E+03 0. -1.
    8880022    1    1    2    0    0 -0.21401954832E+03 -0.65077615545E+03  0.84612357876E+03  0.10993774307E+04  0.15294330000E+03 0.  0.
<mgrwt>
<rscale>  0 0.88100575E+03</rscale>
<asrwt>0</asrwt>
<pdfrwt beam="1">  1        1 0.18506186E+00 0.95032846E+03</pdfrwt>
<pdfrwt beam="2">  1       -1 0.18192778E+00 0.95032846E+03</pdfrwt>
<totfact> 0.21674479E+00</totfact>
</mgrwt>
</event>
<event>
 4    2  0.3884658E-007  0.6831160E+03  0.7818608E-02  0.1007613E+00
         -1   -1    0    0    0  501 -0.00000000000E+00  0.00000000000E+00  0.15263135593E+04  0.15263135593E+04  0.50400000000E-02 0.  1.
          1   -1    0    0  501    0  0.00000000000E+00 -0.00000000000E+00 -0.55215066902E+03  0.55215066904E+03  0.50400000000E-02 0. -1.
    8880023    1    1    2    0    0 -0.80219595408E+02 -0.16248711167E+03 -0.32595571915E+03  0.75689799977E+03  0.65864270000E+03 0. -1.
    8880022    1    1    2    0    0  0.80219595408E+02  0.16248711167E+03  0.13001186095E+04  0.13215662286E+04  0.15294330000E+03 0.  0.
<mgrwt>
<rscale>  0 0.52434337E+03</rscale>
<asrwt>0</asrwt>
<pdfrwt beam="1">  1        1 0.84946258E-01 0.68311599E+03</pdfrwt>
<pdfrwt beam="2">  1       -1 0.23481747E+00 0.68311599E+03</pdfrwt>
<totfact> 0.35596756E+00</totfact>
</mgrwt>
</event>
<event>
 4    2  0.3884658E-007  0.6869361E+03  0.7818608E-02  0.1005644E+00
         -1   -1    0    0    0  501 -0.00000000000E+00  0.00000000000E+00  0.23791681903E+03  0.23791681908E+03  0.50400000000E-02 0.  1.
          1   -1    0    0  501    0  0.00000000000E+00 -0.00000000000E+00 -0.11511016629E+04  0.11511016629E+04  0.50400000000E-02 0. -1.
    8880023    1    1    2    0    0 -0.85176610649E+02  0.17554475862E+03 -0.91116040373E+03  0.11410935566E+04  0.65864270000E+03 0. -1.
    8880022    1    1    2    0    0  0.85176610649E+02 -0.17554475862E+03 -0.20244401636E+01  0.24792492544E+03  0.15294330000E+03 0.  0.
<mgrwt>
<rscale>  0 0.53243144E+03</rscale>
<asrwt>0</asrwt>
<pdfrwt beam="1">  1        1 0.17709256E+00 0.68693611E+03</pdfrwt>
<pdfrwt beam="2">  1       -1 0.36602588E-01 0.68693611E+03</pdfrwt>
<totfact> 0.85368116E+01</totfact>
</mgrwt>
</event>
<event>
 4    2  0.3884658E-007  0.1035153E+04  0.7818608E-02  0.9336947E-01
         -1   -1    0    0    0  501 -0.00000000000E+00  0.00000000000E+00  0.14034509300E+04  0.14034509300E+04  0.50400000000E-02 0.  1.
          1   -1    0    0  501    0  0.00000000000E+00 -0.00000000000E+00 -0.66994512192E+03  0.66994512194E+03  0.50400000000E-02 0. -1.
    8880023    1    1    2    0    0 -0.15855699533E+02  0.79842291454E+03  0.71866444647E+03  0.12601663964E+04  0.65864270000E+03 0.  0.
    8880022    1    1    2    0    0  0.15855699533E+02 -0.79842291454E+03  0.14841361608E+02  0.81322965557E+03  0.15294330000E+03 0.  0.
<mgrwt>
<rscale>  0 0.97451489E+03</rscale>
<asrwt>0</asrwt>
<pdfrwt beam="1">  1        1 0.10306848E+00 0.10351525E+04</pdfrwt>
<pdfrwt beam="2">  1       -1 0.21591552E+00 0.10351525E+04</pdfrwt>
<totfact> 0.34168863E+00</totfact>
</mgrwt>
</event>
<event>
 4    2  0.3884658E-007  0.6750384E+03  0.7818608E-02  0.1012282E+00
         -1   -1    0    0    0  501 -0.00000000000E+00  0.00000000000E+00  0.98630065742E+02  0.98630065871E+02  0.50400000000E-02 0.  1.
          1   -1    0    0  501    0  0.00000000000E+00 -0.00000000000E+00 -0.26874073557E+04  0.26874073557E+04  0.50400000000E-02 0. -1.
    8880023    1    1    2    0    0 -0.64453990512E+02  0.13308739390E+03 -0.24260062792E+04  0.25181706146E+04  0.65864270000E+03 0. -1.
    8880022    1    1    2    0    0  0.64453990512E+02 -0.13308739390E+03 -0.16277101071E+03  0.26786680692E+03  0.15294330000E+03 0.  0.
<mgrwt>
<rscale>  0 0.50577636E+03</rscale>
<asrwt>0</asrwt>
<pdfrwt beam="1">  1        1 0.41344723E+00 0.67503835E+03</pdfrwt>
<pdfrwt beam="2">  1       -1 0.15173858E-01 0.67503835E+03</pdfrwt>
<totfact> 0.34277437E+01</totfact>
</mgrwt>
</event>
<event>
 4    2  0.3884658E-007  0.6770632E+03  0.7818608E-02  0.1011036E+00
          1   -1    0    0  501    0  0.00000000000E+00  0.00000000000E+00  0.12269214696E+03  0.12269214707E+03  0.50400000000E-02 0. -1.
         -1   -1    0    0    0  501 -0.00000000000E+00 -0.00000000000E+00 -0.17863789778E+04  0.17863789778E+04  0.50400000000E-02 0.  1.
    8880023    1    1    2    0    0  0.91514529820E+02 -0.12739511958E+03 -0.97999323257E+03  0.11911344877E+04  0.65864270000E+03 0. -1.
    8880022    1    1    2    0    0 -0.91514529820E+02  0.12739511958E+03 -0.68369359825E+03  0.71793663715E+03  0.15294330000E+03 0.  0.
<mgrwt>
<rscale>  0 0.51064919E+03</rscale>
<asrwt>0</asrwt>
<pdfrwt beam="1">  1        1 0.18875716E-01 0.67706324E+03</pdfrwt>
<pdfrwt beam="2">  1       -1 0.27482752E+00 0.67706324E+03</pdfrwt>
<totfact> 0.14240216E+01</totfact>
</mgrwt>
</event>
<event>
 4    2  0.3884658E-007  0.6770255E+03  0.7818608E-02  0.1011059E+00
          1   -1    0    0  501    0  0.00000000000E+00  0.00000000000E+00  0.35436801390E+03  0.35436801394E+03  0.50400000000E-02 0. -1.
         -1   -1    0    0    0  501 -0.00000000000E+00 -0.00000000000E+00 -0.10538537290E+04  0.10538537290E+04  0.50400000000E-02 0.  1.
    8880023    1    1    2    0    0  0.14682541281E+03 -0.54732729977E+02 -0.18474301156E+01  0.67702805912E+03  0.65864270000E+03 0.  0.
    8880022    1    1    2    0    0 -0.14682541281E+03  0.54732729977E+02 -0.69763828494E+03  0.73119368378E+03  0.15294330000E+03 0.  0.
<mgrwt>
<rscale>  0 0.51055994E+03</rscale>
<asrwt>0</asrwt>
<pdfrwt beam="1">  1        1 0.54518156E-01 0.67702554E+03</pdfrwt>
<pdfrwt beam="2">  1       -1 0.16213134E+00 0.67702554E+03</pdfrwt>
<totfact> 0.20511031E+01</totfact>
</mgrwt>
</event>
<event>
 4    2  0.3884658E-007  0.6655617E+03  0.7818608E-02  0.1019067E+00
         -1   -1    0    0    0  501 -0.00000000000E+00  0.00000000000E+00  0.63895487181E+03  0.63895487183E+03  0.50400000000E-02 0.  1.
          1   -1    0    0  501    0  0.00000000000E+00 -0.00000000000E+00 -0.39276076355E+03  0.39276076359E+03  0.50400000000E-02 0. -1.
    8880023    1    1    2    0    0 -0.95644444033E+02  0.37829789807E+01 -0.68386636135E+02  0.66906584793E+03  0.65864270000E+03 0. -1.
    8880022    1    1    2    0    0  0.95644444033E+02 -0.37829789807E+01  0.31458074439E+03  0.36264978748E+03  0.15294330000E+03 0.  0.
<mgrwt>
<rscale>  0 0.48024903E+03</rscale>
<asrwt>0</asrwt>
<pdfrwt beam="1">  1        1 0.60424733E-01 0.66556170E+03</pdfrwt>
<pdfrwt beam="2">  1       -1 0.98300749E-01 0.66556170E+03</pdfrwt>
<totfact> 0.62550370E+01</totfact>
</mgrwt>
</event>
<event>
 4    2  0.3884658E-007  0.1018985E+04  0.7818608E-02  0.9357130E-01
         -1   -1    0    0    0  501 -0.00000000000E+00  0.00000000000E+00  0.12914168547E+04  0.12914168547E+04  0.50400000000E-02 0.  1.
          1   -1    0    0  501    0  0.00000000000E+00 -0.00000000000E+00 -0.10744820741E+04  0.10744820741E+04  0.50400000000E-02 0. -1.
    8880023    1    1    2    0    0 -0.16602822055E+03  0.75957534350E+03 -0.63639717132E+03  0.12013873807E+04  0.65864270000E+03 0.  0.
    8880022    1    1    2    0    0  0.16602822055E+03 -0.75957534350E+03  0.85333195191E+03  0.11645115481E+04  0.15294330000E+03 0.  0.
<mgrwt>
<rscale>  0 0.95689248E+03</rscale>
<asrwt>0</asrwt>
<pdfrwt beam="1">  1        1 0.16530493E+00 0.10189849E+04</pdfrwt>
<pdfrwt beam="2">  1       -1 0.19867952E+00 0.10189849E+04</pdfrwt>
<totfact> 0.20413856E+00</totfact>
</mgrwt>
</event>
<event>
 4    2  0.3884658E-007  0.9327555E+03  0.7818608E-02  0.9475372E-01
         -1   -1    0    0    0  501 -0.00000000000E+00  0.00000000000E+00  0.12710538534E+04  0.12710538534E+04  0.50400000000E-02 0.  1.
          1   -1    0    0  501    0  0.00000000000E+00 -0.00000000000E+00 -0.61960360229E+03  0.61960360232E+03  0.50400000000E-02 0. -1.
    8880023    1    1    2    0    0  0.41439272165E+03 -0.51429695904E+03 -0.24811354919E+02  0.93308547273E+03  0.65864270000E+03 0.  0.
    8880022    1    1    2    0    0 -0.41439272165E+03  0.51429695904E+03  0.67626160605E+03  0.95757198302E+03  0.15294330000E+03 0.  0.
<mgrwt>
<rscale>  0 0.86124175E+03</rscale>
<asrwt>0</asrwt>
<pdfrwt beam="1">  1        1 0.95323632E-01 0.93275554E+03</pdfrwt>
<pdfrwt beam="2">  1       -1 0.19554674E+00 0.93275554E+03</pdfrwt>
<totfact> 0.53420375E+00</totfact>
</mgrwt>
</event>
<event>
 4    2  0.3884658E-007  0.7105068E+03  0.7818608E-02  0.9956124E-01
         -1   -1    0    0    0  501 -0.00000000000E+00  0.00000000000E+00  0.12863273435E+04  0.12863273435E+04  0.50400000000E-02 0.  1.
          1   -1    0    0  501    0  0.00000000000E+00 -0.00000000000E+00 -0.22722180048E+03  0.22722180054E+03  0.50400000000E-02 0. -1.
    8880023    1    1    2    0    0  0.15334540868E+03 -0.21793316690E+03  0.47835074219E+03  0.85652747674E+03  0.65864270000E+03 0.  0.
    8880022    1    1    2    0    0 -0.15334540868E+03  0.21793316690E+03  0.58075480078E+03  0.65702166726E+03  0.15294330000E+03 0. -1.
<mgrwt>
<rscale>  0 0.57616707E+03</rscale>
<asrwt>0</asrwt>
<pdfrwt beam="1">  1        1 0.34957199E-01 0.71050678E+03</pdfrwt>
<pdfrwt beam="2">  1       -1 0.19789652E+00 0.71050678E+03</pdfrwt>
<totfact> 0.20199383E+01</totfact>
</mgrwt>
</event>
<event>
 4    2  0.3884658E-007  0.7014721E+03  0.7818608E-02  0.9991148E-01
          1   -1    0    0  501    0  0.00000000000E+00  0.00000000000E+00  0.14518252263E+04  0.14518252263E+04  0.50400000000E-02 0. -1.
         -1   -1    0    0    0  501 -0.00000000000E+00 -0.00000000000E+00 -0.16799839498E+03  0.16799839505E+03  0.50400000000E-02 0.  1.
    8880023    1    1    2    0    0 -0.23306567919E+03  0.62716246935E+02  0.93592582580E+03  0.11696239978E+04  0.65864270000E+03 0. -1.
    8880022    1    1    2    0    0  0.23306567919E+03 -0.62716246935E+02  0.34790100553E+03  0.45019962362E+03  0.15294330000E+03 0. -1.
<mgrwt>
<rscale>  0 0.56040079E+03</rscale>
<asrwt>0</asrwt>
<pdfrwt beam="1">  1        1 0.22335772E+00 0.70147213E+03</pdfrwt>
<pdfrwt beam="2">  1       -1 0.25845907E-01 0.70147213E+03</pdfrwt>
<totfact> 0.95991169E+01</totfact>
</mgrwt>
</event>
<event>
 4    2  0.3884658E-007  0.7184534E+03  0.7818608E-02  0.9927854E-01
          1   -1    0    0  501    0  0.00000000000E+00  0.00000000000E+00  0.15733858935E+04  0.15733858935E+04  0.50400000000E-02 0. -1.
         -1   -1    0    0    0  501 -0.00000000000E+00 -0.00000000000E+00 -0.58423160633E+03  0.58423160636E+03  0.50400000000E-02 0.  1.
    8880023    1    1    2    0    0 -0.54192583711E+02 -0.28183025381E+03  0.14355669026E+04  0.16053123267E+04  0.65864270000E+03 0.  0.
    8880022    1    1    2    0    0  0.54192583711E+02  0.28183025381E+03 -0.44641261544E+03  0.55230517318E+03  0.15294330000E+03 0.  0.
<mgrwt>
<rscale>  0 0.58930143E+03</rscale>
<asrwt>0</asrwt>
<pdfrwt beam="1">  1        1 0.24205937E+00 0.71845343E+03</pdfrwt>
<pdfrwt beam="2">  1       -1 0.89881786E-01 0.71845343E+03</pdfrwt>
<totfact> 0.73780304E+00</totfact>
</mgrwt>
</event>
<event>
 4    2  0.3884658E-007  0.6684930E+03  0.7818608E-02  0.1016767E+00
         -1   -1    0    0    0  501 -0.00000000000E+00  0.00000000000E+00  0.65831746713E+03  0.65831746715E+03  0.50400000000E-02 0.  1.
          1   -1    0    0  501    0  0.00000000000E+00 -0.00000000000E+00 -0.74986074619E+03  0.74986074621E+03  0.50400000000E-02 0. -1.
    8880023    1    1    2    0    0  0.10203469140E+03 -0.51590204929E+02 -0.57917381270E+03  0.88449145789E+03  0.65864270000E+03 0. -1.
    8880022    1    1    2    0    0 -0.10203469140E+03  0.51590204929E+02  0.48763053364E+03  0.52368675546E+03  0.15294330000E+03 0.  0.
<mgrwt>
<rscale>  0 0.48871547E+03</rscale>
<asrwt>0</asrwt>
<pdfrwt beam="1">  1        1 0.11536319E+00 0.66849296E+03</pdfrwt>
<pdfrwt beam="2">  1       -1 0.10127961E+00 0.66849296E+03</pdfrwt>
<totfact> 0.23501282E+01</totfact>
</mgrwt>
</event>
<event>
 4    2  0.3884658E-007  0.7585628E+03  0.7818608E-02  0.9808842E-01
          1   -1    0    0  501    0  0.00000000000E+00  0.00000000000E+00  0.72652534217E+03  0.72652534219E+03  0.50400000000E-02 0. -1.
         -1   -1    0    0    0  501 -0.00000000000E+00 -0.00000000000E+00 -0.90472003014E+03  0.90472003015E+03  0.50400000000E-02 0.  1.
    8880023    1    1    2    0    0 -0.35885675917E+03 -0.11326592713E+03  0.45086372220E+03  0.88243733268E+03  0.65864270000E+03 0. -1.
    8880022    1    1    2    0    0  0.35885675917E+03  0.11326592713E+03 -0.62905841016E+03  0.74880803966E+03  0.15294330000E+03 0.  0.
<mgrwt>
<rscale>  0 0.64890157E+03</rscale>
<asrwt>0</asrwt>
<pdfrwt beam="1">  1        1 0.11177313E+00 0.75856282E+03</pdfrwt>
<pdfrwt beam="2">  1       -1 0.13918770E+00 0.75856282E+03</pdfrwt>
<totfact> 0.11269395E+01</totfact>
</mgrwt>
</event>
<event>
 4    2  0.3884658E-007  0.7462253E+03  0.7818608E-02  0.9842171E-01
         -1   -1    0    0    0  501 -0.00000000000E+00  0.00000000000E+00  0.13649854724E+04  0.13649854724E+04  0.50400000000E-02 0.  1.
          1   -1    0    0  501    0  0.00000000000E+00 -0.00000000000E+00 -0.47126619499E+03  0.47126619501E+03  0.50400000000E-02 0. -1.
    8880023    1    1    2    0    0 -0.31749140517E+03 -0.14913475253E+03 -0.11716088418E+03  0.75536669626E+03  0.65864270000E+03 0.  0.
    8880022    1    1    2    0    0  0.31749140517E+03  0.14913475253E+03  0.10108801616E+04  0.10808849712E+04  0.15294330000E+03 0.  0.
<mgrwt>
<rscale>  0 0.63147705E+03</rscale>
<asrwt>0</asrwt>
<pdfrwt beam="1">  1        1 0.72502493E-01 0.74622528E+03</pdfrwt>
<pdfrwt beam="2">  1       -1 0.20999776E+00 0.74622528E+03</pdfrwt>
<totfact> 0.64009361E+00</totfact>
</mgrwt>
</event>
<event>
 4    2  0.3884658E-007  0.7808754E+03  0.7818608E-02  0.9753785E-01
          1   -1    0    0  501    0  0.00000000000E+00  0.00000000000E+00  0.42875825427E+03  0.42875825430E+03  0.50400000000E-02 0. -1.
         -1   -1    0    0    0  501 -0.00000000000E+00 -0.00000000000E+00 -0.14708439278E+04  0.14708439278E+04  0.50400000000E-02 0.  1.
    8880023    1    1    2    0    0 -0.40643065312E+03 -0.10378010191E+03 -0.16507070227E+02  0.78104985435E+03  0.65864270000E+03 0. -1.
    8880022    1    1    2    0    0  0.40643065312E+03  0.10378010191E+03 -0.10255786033E+04  0.11185523278E+04  0.15294330000E+03 0.  0.
<mgrwt>
<rscale>  0 0.67902810E+03</rscale>
<asrwt>0</asrwt>
<pdfrwt beam="1">  1        1 0.65962809E-01 0.78087540E+03</pdfrwt>
<pdfrwt beam="2">  1       -1 0.22628368E+00 0.78087540E+03</pdfrwt>
<totfact> 0.56392257E+00</totfact>
</mgrwt>
</event>
<event>
 4    2  0.3884658E-007  0.6782771E+03  0.7818608E-02  0.1010316E+00
          1   -1    0    0  501    0  0.00000000000E+00  0.00000000000E+00  0.11593666185E+04  0.11593666185E+04  0.50400000000E-02 0. -1.
         -1   -1    0    0    0  501 -0.00000000000E+00 -0.00000000000E+00 -0.21926739898E+03  0.21926739904E+03  0.50400000000E-02 0.  1.
    8880023    1    1    2    0    0  0.55864022932E+02  0.15208148150E+03  0.93583712425E+03  0.11557901607E+04  0.65864270000E+03 0.  1.
    8880022    1    1    2    0    0 -0.55864022932E+02 -0.15208148150E+03  0.42620952411E+01  0.22284385687E+03  0.15294330000E+03 0.  0.
<mgrwt>
<rscale>  0 0.51349433E+03</rscale>
<asrwt>0</asrwt>
<pdfrwt beam="1">  1        1 0.17836410E+00 0.67827706E+03</pdfrwt>
<pdfrwt beam="2">  1       -1 0.33733446E-01 0.67827706E+03</pdfrwt>
<totfact> 0.97427156E+01</totfact>
</mgrwt>
</event>
<event>
 4    2  0.3884658E-007  0.9762755E+03  0.7818608E-02  0.9413277E-01
          1   -1    0    0  501    0  0.00000000000E+00  0.00000000000E+00  0.10071451423E+04  0.10071451423E+04  0.50400000000E-02 0. -1.
         -1   -1    0    0    0  501 -0.00000000000E+00 -0.00000000000E+00 -0.85694750516E+03  0.85694750517E+03  0.50400000000E-02 0.  1.
    8880023    1    1    2    0    0  0.38482773181E+03  0.60927109484E+03  0.44207175978E+03  0.10717001900E+04  0.65864270000E+03 0. -1.
    8880022    1    1    2    0    0 -0.38482773181E+03 -0.60927109484E+03 -0.29187412266E+03  0.79239245748E+03  0.15294330000E+03 0.  1.
<mgrwt>
<rscale>  0 0.90991076E+03</rscale>
<asrwt>0</asrwt>
<pdfrwt beam="1">  1        1 0.15494541E+00 0.97627550E+03</pdfrwt>
<pdfrwt beam="2">  1       -1 0.13183808E+00 0.97627550E+03</pdfrwt>
<totfact> 0.73477983E+00</totfact>
</mgrwt>
</event>
<event>
 4    2  0.3884658E-007  0.8822587E+03  0.7818608E-02  0.9555134E-01
          1   -1    0    0  501    0  0.00000000000E+00  0.00000000000E+00  0.77855649716E+03  0.77855649717E+03  0.50400000000E-02 0. -1.
         -1   -1    0    0    0  501 -0.00000000000E+00 -0.00000000000E+00 -0.77904964178E+03  0.77904964179E+03  0.50400000000E-02 0.  1.
    8880023    1    1    2    0    0  0.55958842687E+03 -0.17728813445E+03  0.22492296763E+03  0.91047835654E+03  0.65864270000E+03 0.  0.
    8880022    1    1    2    0    0 -0.55958842687E+03  0.17728813445E+03 -0.22541611225E+03  0.64712778242E+03  0.15294330000E+03 0.  0.
<mgrwt>
<rscale>  0 0.80338245E+03</rscale>
<asrwt>0</asrwt>
<pdfrwt beam="1">  1        1 0.11977792E+00 0.88225875E+03</pdfrwt>
<pdfrwt beam="2">  1       -1 0.11985379E+00 0.88225875E+03</pdfrwt>
<totfact> 0.14535021E+01</totfact>
</mgrwt>
</event>
<event>
 4    2  0.3884658E-007  0.6719013E+03  0.7818608E-02  0.1014335E+00
          1   -1    0    0  501    0  0.00000000000E+00  0.00000000000E+00  0.29110490792E+03  0.29110490797E+03  0.50400000000E-02 0. -1.
         -1   -1    0    0    0  501 -0.00000000000E+00 -0.00000000000E+00 -0.16429132824E+04  0.16429132824E+04  0.50400000000E-02 0.  1.
    8880023    1    1    2    0    0  0.74513799537E+02 -0.10994912265E+03 -0.11615045832E+03  0.68186674001E+03  0.65864270000E+03 0. -1.
    8880022    1    1    2    0    0 -0.74513799537E+02  0.10994912265E+03 -0.12356579162E+04  0.12521514504E+04  0.15294330000E+03 0.  0.
<mgrwt>
<rscale>  0 0.49787515E+03</rscale>
<asrwt>0</asrwt>
<pdfrwt beam="1">  1        1 0.44785371E-01 0.67190127E+03</pdfrwt>
<pdfrwt beam="2">  1       -1 0.25275588E+00 0.67190127E+03</pdfrwt>
<totfact> 0.64020819E+00</totfact>
</mgrwt>
</event>
<event>
 4    2  0.3884658E-007  0.7939216E+03  0.7818608E-02  0.9724096E-01
         -1   -1    0    0    0  501 -0.00000000000E+00  0.00000000000E+00  0.11457842488E+04  0.11457842489E+04  0.50400000000E-02 0.  1.
          1   -1    0    0  501    0  0.00000000000E+00 -0.00000000000E+00 -0.12901916021E+04  0.12901916021E+04  0.50400000000E-02 0. -1.
    8880023    1    1    2    0    0 -0.40828457657E+03  0.17264105010E+03 -0.11087383156E+04  0.13636759462E+04  0.65864270000E+03 0. -1.
    8880022    1    1    2    0    0  0.40828457657E+03 -0.17264105010E+03  0.96433096236E+03  0.10722999047E+04  0.15294330000E+03 0.  0.
<mgrwt>
<rscale>  0 0.69600056E+03</rscale>
<asrwt>0</asrwt>
<pdfrwt beam="1">  1        1 0.19849101E+00 0.79392155E+03</pdfrwt>
<pdfrwt beam="2">  1       -1 0.17627450E+00 0.79392155E+03</pdfrwt>
<totfact> 0.21102431E+00</totfact>
</mgrwt>
</event>
<event>
 4    2  0.3884658E-007  0.7096136E+03  0.7818608E-02  0.9959439E-01
         -1   -1    0    0    0  501 -0.00000000000E+00  0.00000000000E+00  0.66344091531E+03  0.66344091533E+03  0.50400000000E-02 0.  1.
          1   -1    0    0  501    0  0.00000000000E+00 -0.00000000000E+00 -0.90378825338E+03  0.90378825339E+03  0.50400000000E-02 0. -1.
    8880023    1    1    2    0    0 -0.24449773957E+03 -0.99810288449E+02 -0.71214338172E+03  0.10053355861E+04  0.65864270000E+03 0. -1.
    8880022    1    1    2    0    0  0.24449773957E+03  0.99810288449E+02  0.47179604366E+03  0.56189358259E+03  0.15294330000E+03 0.  0.
<mgrwt>
<rscale>  0 0.57465121E+03</rscale>
<asrwt>0</asrwt>
<pdfrwt beam="1">  1        1 0.13904435E+00 0.70961359E+03</pdfrwt>
<pdfrwt beam="2">  1       -1 0.10206783E+00 0.70961359E+03</pdfrwt>
<totfact> 0.16991715E+01</totfact>
</mgrwt>
</event>
<event>
 4    2  0.3884658E-007  0.6886679E+03  0.7818608E-02  0.1004792E+00
         -1   -1    0    0    0  501 -0.00000000000E+00  0.00000000000E+00  0.45311218207E+03  0.45311218210E+03  0.50400000000E-02 0.  1.
          1   -1    0    0  501    0  0.00000000000E+00 -0.00000000000E+00 -0.61608367874E+03  0.61608367876E+03  0.50400000000E-02 0. -1.
    8880023    1    1    2    0    0 -0.10133339607E+03  0.17373760009E+03 -0.33268479485E+03  0.76481539592E+03  0.65864270000E+03 0.  0.
    8880022    1    1    2    0    0  0.10133339607E+03 -0.17373760009E+03  0.16971329818E+03  0.30438046494E+03  0.15294330000E+03 0.  0.
<mgrwt>
<rscale>  0 0.53597941E+03</rscale>
<asrwt>0</asrwt>
<pdfrwt beam="1">  1        1 0.94782104E-01 0.68866786E+03</pdfrwt>
<pdfrwt beam="2">  1       -1 0.69709567E-01 0.68866786E+03</pdfrwt>
<totfact> 0.70316644E+01</totfact>
</mgrwt>
</event>
<event>
 4    2  0.3884658E-007  0.7077682E+03  0.7818608E-02  0.9966384E-01
         -1   -1    0    0    0  501 -0.00000000000E+00  0.00000000000E+00  0.42690991046E+03  0.42690991049E+03  0.50400000000E-02 0.  1.
          1   -1    0    0  501    0  0.00000000000E+00 -0.00000000000E+00 -0.85449226796E+03  0.85449226797E+03  0.50400000000E-02 0. -1.
    8880023    1    1    2    0    0  0.23973377310E+03 -0.98251501855E+02 -0.60587841203E+03  0.93167832218E+03  0.65864270000E+03 0. -1.
    8880022    1    1    2    0    0 -0.23973377310E+03  0.98251501855E+02  0.17829605454E+03  0.34972385629E+03  0.15294330000E+03 0.  0.
<mgrwt>
<rscale>  0 0.57149145E+03</rscale>
<asrwt>0</asrwt>
<pdfrwt beam="1">  1        1 0.13146035E+00 0.70776821E+03</pdfrwt>
<pdfrwt beam="2">  1       -1 0.65678448E-01 0.70776821E+03</pdfrwt>
<totfact> 0.47943760E+01</totfact>
</mgrwt>
</event>
<event>
 4    2  0.3884658E-007  0.8729064E+03  0.7818608E-02  0.9571005E-01
          1   -1    0    0  501    0  0.00000000000E+00  0.00000000000E+00  0.16749258688E+04  0.16749258688E+04  0.50400000000E-02 0. -1.
         -1   -1    0    0    0  501 -0.00000000000E+00 -0.00000000000E+00 -0.35083028439E+03  0.35083028443E+03  0.50400000000E-02 0.  1.
    8880023    1    1    2    0    0  0.47087953942E+03 -0.32623282321E+03  0.48583487274E+03  0.99900006277E+03  0.65864270000E+03 0.  1.
    8880022    1    1    2    0    0 -0.47087953942E+03  0.32623282321E+03  0.83826071170E+03  0.10267560905E+04  0.15294330000E+03 0.  0.
<mgrwt>
<rscale>  0 0.79245333E+03</rscale>
<asrwt>0</asrwt>
<pdfrwt beam="1">  1        1 0.25768090E+00 0.87290641E+03</pdfrwt>
<pdfrwt beam="2">  1       -1 0.53973891E-01 0.87290641E+03</pdfrwt>
<totfact> 0.17547859E+01</totfact>
</mgrwt>
</event>
<event>
 4    2  0.3884658E-007  0.6890282E+03  0.7818608E-02  0.1004618E+00
         -1   -1    0    0    0  501 -0.00000000000E+00  0.00000000000E+00  0.66394360649E+03  0.66394360651E+03  0.50400000000E-02 0.  1.
          1   -1    0    0  501    0  0.00000000000E+00 -0.00000000000E+00 -0.38938823657E+03  0.38938823661E+03  0.50400000000E-02 0. -1.
    8880023    1    1    2    0    0  0.19939460133E+03 -0.34516444342E+02  0.13244815053E+02  0.68915544209E+03  0.65864270000E+03 0. -1.
    8880022    1    1    2    0    0 -0.19939460133E+03  0.34516444342E+02  0.26131055487E+03  0.36417640103E+03  0.15294330000E+03 0.  0.
<mgrwt>
<rscale>  0 0.53670904E+03</rscale>
<asrwt>0</asrwt>
<pdfrwt beam="1">  1        1 0.59905883E-01 0.68902815E+03</pdfrwt>
<pdfrwt beam="2">  1       -1 0.10214517E+00 0.68902815E+03</pdfrwt>
<totfact> 0.57855969E+01</totfact>
</mgrwt>
</event>
<event>
 4    2  0.3884658E-007  0.7183341E+03  0.7818608E-02  0.9928264E-01
         -1   -1    0    0    0  501 -0.00000000000E+00  0.00000000000E+00  0.66213436872E+03  0.66213436874E+03  0.50400000000E-02 0.  1.
          1   -1    0    0  501    0  0.00000000000E+00 -0.00000000000E+00 -0.13276653352E+04  0.13276653352E+04  0.50400000000E-02 0. -1.
    8880023    1    1    2    0    0  0.28229255996E+03  0.50045507634E+02 -0.11799157677E+04  0.13813779596E+04  0.65864270000E+03 0. -1.
    8880022    1    1    2    0    0 -0.28229255996E+03 -0.50045507634E+02  0.51438480121E+03  0.60842174433E+03  0.15294330000E+03 0.  0.
<mgrwt>
<rscale>  0 0.58910849E+03</rscale>
<asrwt>0</asrwt>
<pdfrwt beam="1">  1        1 0.20425620E+00 0.71833408E+03</pdfrwt>
<pdfrwt beam="2">  1       -1 0.10186683E+00 0.71833408E+03</pdfrwt>
<totfact> 0.82280188E+00</totfact>
</mgrwt>
</event>
<event>
 4    2  0.3884658E-007  0.8582823E+03  0.7818608E-02  0.9596626E-01
          1   -1    0    0  501    0  0.00000000000E+00  0.00000000000E+00  0.19494418211E+04  0.19494418211E+04  0.50400000000E-02 0. -1.
         -1   -1    0    0    0  501 -0.00000000000E+00 -0.00000000000E+00 -0.63753625113E+03  0.63753625115E+03  0.50400000000E-02 0.  1.
    8880023    1    1    2    0    0  0.51719161199E+03  0.18801894605E+03  0.16945309457E+04  0.18994956224E+04  0.65864270000E+03 0. -1.
    8880022    1    1    2    0    0 -0.51719161199E+03 -0.18801894605E+03 -0.38262537573E+03  0.68748244978E+03  0.15294330000E+03 0.  0.
<mgrwt>
<rscale>  0 0.77519880E+03</rscale>
<asrwt>0</asrwt>
<pdfrwt beam="1">  1        1 0.29991412E+00 0.85828229E+03</pdfrwt>
<pdfrwt beam="2">  1       -1 0.98082503E-01 0.85828229E+03</pdfrwt>
<totfact> 0.33144383E+00</totfact>
</mgrwt>
</event>
<event>
 4    2  0.3884658E-007  0.6782666E+03  0.7818608E-02  0.1010322E+00
          1   -1    0    0  501    0  0.00000000000E+00  0.00000000000E+00  0.84461296341E+03  0.84461296342E+03  0.50400000000E-02 0. -1.
         -1   -1    0    0    0  501 -0.00000000000E+00 -0.00000000000E+00 -0.24211980478E+03  0.24211980483E+03  0.50400000000E-02 0.  1.
    8880023    1    1    2    0    0  0.13338462401E+03  0.91890760340E+02  0.49300114811E+03  0.83850802504E+03  0.65864270000E+03 0.  0.
    8880022    1    1    2    0    0 -0.13338462401E+03 -0.91890760340E+02  0.10949201052E+03  0.24822474321E+03  0.15294330000E+03 0. -1.
<mgrwt>
<rscale>  0 0.51347003E+03</rscale>
<asrwt>0</asrwt>
<pdfrwt beam="1">  1        1 0.12994046E+00 0.67826660E+03</pdfrwt>
<pdfrwt beam="2">  1       -1 0.37249200E-01 0.67826660E+03</pdfrwt>
<totfact> 0.14333078E+02</totfact>
</mgrwt>
</event>
<event>
 4    2  0.3884658E-007  0.1039811E+04  0.7818608E-02  0.9331232E-01
         -1   -1    0    0    0  501 -0.00000000000E+00  0.00000000000E+00  0.17631749123E+04  0.17631749123E+04  0.50400000000E-02 0.  1.
          1   -1    0    0  501    0  0.00000000000E+00 -0.00000000000E+00 -0.11091656094E+04  0.11091656094E+04  0.50400000000E-02 0. -1.
    8880023    1    1    2    0    0 -0.72885143743E+02 -0.80130136400E+03 -0.72558991849E+03  0.12679459989E+04  0.65864270000E+03 0. -1.
    8880022    1    1    2    0    0  0.72885143743E+02  0.80130136400E+03  0.13795992214E+04  0.16043945228E+04  0.15294330000E+03 0.  0.
<mgrwt>
<rscale>  0 0.97957763E+03</rscale>
<asrwt>0</asrwt>
<pdfrwt beam="1">  1        1 0.17064086E+00 0.10398107E+04</pdfrwt>
<pdfrwt beam="2">  1       -1 0.27125768E+00 0.10398107E+04</pdfrwt>
<totfact> 0.63577675E-01</totfact>
</mgrwt>
</event>
<event>
 4    2  0.3884658E-007  0.9418871E+03  0.7818608E-02  0.9461884E-01
          1   -1    0    0  501    0  0.00000000000E+00  0.00000000000E+00  0.16384209542E+04  0.16384209542E+04  0.50400000000E-02 0. -1.
         -1   -1    0    0    0  501 -0.00000000000E+00 -0.00000000000E+00 -0.60488533422E+03  0.60488533424E+03  0.50400000000E-02 0.  1.
    8880023    1    1    2    0    0 -0.46220847923E+03  0.48959624948E+03  0.12073667597E+04  0.15313020160E+04  0.65864270000E+03 0.  0.
    8880022    1    1    2    0    0  0.46220847923E+03 -0.48959624948E+03 -0.17383113967E+03  0.71200427240E+03  0.15294330000E+03 0.  0.
<mgrwt>
<rscale>  0 0.87153238E+03</rscale>
<asrwt>0</asrwt>
<pdfrwt beam="1">  1        1 0.25206476E+00 0.94188713E+03</pdfrwt>
<pdfrwt beam="2">  1       -1 0.93059283E-01 0.94188713E+03</pdfrwt>
<totfact> 0.59737693E+00</totfact>
</mgrwt>
</event>
<event>
 4    2  0.3884658E-007  0.1024370E+04  0.7818608E-02  0.9350347E-01
          1   -1    0    0  501    0  0.00000000000E+00  0.00000000000E+00  0.62566990024E+03  0.62566990026E+03  0.50400000000E-02 0. -1.
         -1   -1    0    0    0  501 -0.00000000000E+00 -0.00000000000E+00 -0.20248263328E+04  0.20248263328E+04  0.50400000000E-02 0.  1.
    8880023    1    1    2    0    0  0.47316468132E+03 -0.62580984926E+03 -0.15292723245E+04  0.18406539142E+04  0.65864270000E+03 0.  0.
    8880022    1    1    2    0    0 -0.47316468132E+03  0.62580984926E+03  0.13011589196E+03  0.80984231887E+03  0.15294330000E+03 0.  0.
<mgrwt>
<rscale>  0 0.96277063E+03</rscale>
<asrwt>0</asrwt>
<pdfrwt beam="1">  1        1 0.96256909E-01 0.10243696E+04</pdfrwt>
<pdfrwt beam="2">  1       -1 0.31151174E+00 0.10243696E+04</pdfrwt>
<totfact> 0.90653031E-01</totfact>
</mgrwt>
</event>
<event>
 4    2  0.3884658E-007  0.1338291E+04  0.7818608E-02  0.9033179E-01
         -1   -1    0    0    0  501 -0.00000000000E+00  0.00000000000E+00  0.10471119336E+04  0.10471119337E+04  0.50400000000E-02 0.  1.
          1   -1    0    0  501    0  0.00000000000E+00 -0.00000000000E+00 -0.19501679564E+04  0.19501679564E+04  0.50400000000E-02 0. -1.
    8880023    1    1    2    0    0 -0.64495967082E+03  0.97017551228E+03  0.23813963614E+03  0.13593138689E+04  0.65864270000E+03 0.  0.
    8880022    1    1    2    0    0  0.64495967082E+03 -0.97017551228E+03 -0.11411956589E+04  0.16379660212E+04  0.15294330000E+03 0.  0.
<mgrwt>
<rscale>  0 0.12954531E+04</rscale>
<asrwt>0</asrwt>
<pdfrwt beam="1">  1        1 0.30002584E+00 0.13382913E+04</pdfrwt>
<pdfrwt beam="2">  1       -1 0.16109414E+00 0.13382913E+04</pdfrwt>
<totfact> 0.89188650E-01</totfact>
</mgrwt>
</event>
<event>
 4    2  0.3884658E-007  0.8268810E+03  0.7818608E-02  0.9655432E-01
          1   -1    0    0  501    0  0.00000000000E+00  0.00000000000E+00  0.15467694861E+04  0.15467694861E+04  0.50400000000E-02 0. -1.
         -1   -1    0    0    0  501 -0.00000000000E+00 -0.00000000000E+00 -0.84105314771E+03  0.84105314773E+03  0.50400000000E-02 0.  1.
    8880023    1    1    2    0    0 -0.37351196562E+03 -0.33228113239E+03  0.13346117737E+04  0.15700066026E+04  0.65864270000E+03 0.  0.
    8880022    1    1    2    0    0  0.37351196562E+03  0.33228113239E+03 -0.62889543530E+03  0.81781603125E+03  0.15294330000E+03 0.  0.
<mgrwt>
<rscale>  0 0.73733509E+03</rscale>
<asrwt>0</asrwt>
<pdfrwt beam="1">  1        1 0.23796454E+00 0.82688097E+03</pdfrwt>
<pdfrwt beam="2">  1       -1 0.12939279E+00 0.82688097E+03</pdfrwt>
<totfact> 0.32136636E+00</totfact>
</mgrwt>
</event>
<event>
 4    2  0.3884658E-007  0.6630843E+03  0.7818608E-02  0.1021198E+00
          1   -1    0    0  501    0  0.00000000000E+00  0.00000000000E+00  0.20648626359E+04  0.20648626359E+04  0.50400000000E-02 0. -1.
         -1   -1    0    0    0  501 -0.00000000000E+00 -0.00000000000E+00 -0.10210375941E+03  0.10210375953E+03  0.50400000000E-02 0.  1.
    8880023    1    1    2    0    0  0.67084797814E+02  0.37016206364E+02  0.10763576169E+04  0.12642098304E+04  0.65864270000E+03 0.  1.
    8880022    1    1    2    0    0 -0.67084797814E+02 -0.37016206364E+02  0.88640125964E+03  0.90275656505E+03  0.15294330000E+03 0.  0.
<mgrwt>
<rscale>  0 0.47256872E+03</rscale>
<asrwt>0</asrwt>
<pdfrwt beam="1">  1        1 0.31767115E+00 0.66308429E+03</pdfrwt>
<pdfrwt beam="2">  1       -1 0.15708272E-01 0.66308429E+03</pdfrwt>
<totfact> 0.85594845E+01</totfact>
</mgrwt>
</event>
<event>
 4    2  0.3884658E-007  0.7153149E+03  0.7818608E-02  0.9938770E-01
          1   -1    0    0  501    0  0.00000000000E+00  0.00000000000E+00  0.63678766786E+03  0.63678766788E+03  0.50400000000E-02 0. -1.
         -1   -1    0    0    0  501 -0.00000000000E+00 -0.00000000000E+00 -0.10932224376E+04  0.10932224376E+04  0.50400000000E-02 0.  1.
    8880023    1    1    2    0    0 -0.10656182238E+03 -0.25789491760E+03  0.39776194168E+03  0.81846806842E+03  0.65864270000E+03 0. -1.
    8880022    1    1    2    0    0  0.10656182238E+03  0.25789491760E+03 -0.85419671140E+03  0.91154203704E+03  0.15294330000E+03 0.  0.
<mgrwt>
<rscale>  0 0.58418583E+03</rscale>
<asrwt>0</asrwt>
<pdfrwt beam="1">  1        1 0.97967333E-01 0.71531491E+03</pdfrwt>
<pdfrwt beam="2">  1       -1 0.16818807E+00 0.71531491E+03</pdfrwt>
<totfact> 0.82606964E+00</totfact>
</mgrwt>
</event>
<event>
 4    2  0.3884658E-007  0.7522553E+03  0.7818608E-02  0.9825587E-01
         -1   -1    0    0    0  501 -0.00000000000E+00  0.00000000000E+00  0.79171562013E+03  0.79171562015E+03  0.50400000000E-02 0.  1.
          1   -1    0    0  501    0  0.00000000000E+00 -0.00000000000E+00 -0.10537704168E+04  0.10537704168E+04  0.50400000000E-02 0. -1.
    8880023    1    1    2    0    0  0.87300243884E+02  0.35278400393E+03 -0.85157930116E+03  0.11362549883E+04  0.65864270000E+03 0. -1.
    8880022    1    1    2    0    0 -0.87300243884E+02 -0.35278400393E+03  0.58952450447E+03  0.70923104867E+03  0.15294330000E+03 0.  0.
<mgrwt>
<rscale>  0 0.64007317E+03</rscale>
<asrwt>0</asrwt>
<pdfrwt beam="1">  1        1 0.16211853E+00 0.75225534E+03</pdfrwt>
<pdfrwt beam="2">  1       -1 0.12180240E+00 0.75225534E+03</pdfrwt>
<totfact> 0.84798362E+00</totfact>
</mgrwt>
</event>
<event>
 4    2  0.3884658E-007  0.8454791E+03  0.7818608E-02  0.9619934E-01
         -1   -1    0    0    0  501 -0.00000000000E+00  0.00000000000E+00  0.84710357198E+03  0.84710357200E+03  0.50400000000E-02 0.  1.
          1   -1    0    0  501    0  0.00000000000E+00 -0.00000000000E+00 -0.58822633745E+03  0.58822633747E+03  0.50400000000E-02 0. -1.
    8880023    1    1    2    0    0  0.42192868610E+03 -0.32093742763E+03  0.25669003634E+03  0.88358623214E+03  0.65864270000E+03 0. -1.
    8880022    1    1    2    0    0 -0.42192868610E+03  0.32093742763E+03  0.21871981888E+01  0.55174367732E+03  0.15294330000E+03 0.  1.
<mgrwt>
<rscale>  0 0.75990733E+03</rscale>
<asrwt>0</asrwt>
<pdfrwt beam="1">  1        1 0.90496360E-01 0.84547907E+03</pdfrwt>
<pdfrwt beam="2">  1       -1 0.13032363E+00 0.84547907E+03</pdfrwt>
<totfact> 0.18056149E+01</totfact>
</mgrwt>
</event>
<event>
 4    2  0.3884658E-007  0.7270236E+03  0.7818608E-02  0.9899500E-01
          1   -1    0    0  501    0  0.00000000000E+00  0.00000000000E+00  0.14204594945E+04  0.14204594945E+04  0.50400000000E-02 0. -1.
         -1   -1    0    0    0  501 -0.00000000000E+00 -0.00000000000E+00 -0.47928100960E+03  0.47928100962E+03  0.50400000000E-02 0.  1.
    8880023    1    1    2    0    0 -0.14383688075E+03  0.27214708143E+03  0.12445140906E+04  0.14413114203E+04  0.65864270000E+03 0. -1.
    8880022    1    1    2    0    0  0.14383688075E+03 -0.27214708143E+03 -0.30333560573E+03  0.45842908385E+03  0.15294330000E+03 0.  0.
<mgrwt>
<rscale>  0 0.60285542E+03</rscale>
<asrwt>0</asrwt>
<pdfrwt beam="1">  1        1 0.21853222E+00 0.72702358E+03</pdfrwt>
<pdfrwt beam="2">  1       -1 0.73735542E-01 0.72702358E+03</pdfrwt>
<totfact> 0.14305293E+01</totfact>
</mgrwt>
</event>
<event>
 4    2  0.3884658E-007  0.6927009E+03  0.7818608E-02  0.1002894E+00
          1   -1    0    0  501    0  0.00000000000E+00  0.00000000000E+00  0.81248843353E+03  0.81248843355E+03  0.50400000000E-02 0. -1.
         -1   -1    0    0    0  501 -0.00000000000E+00 -0.00000000000E+00 -0.47284938998E+03  0.47284939001E+03  0.50400000000E-02 0.  1.
    8880023    1    1    2    0    0  0.13027275426E+03 -0.17045048181E+03  0.59889612721E+03  0.91570253615E+03  0.65864270000E+03 0.  0.
    8880022    1    1    2    0    0 -0.13027275426E+03  0.17045048181E+03 -0.25925708366E+03  0.36963528741E+03  0.15294330000E+03 0.  1.
<mgrwt>
<rscale>  0 0.54399108E+03</rscale>
<asrwt>0</asrwt>
<pdfrwt beam="1">  1        1 0.12499822E+00 0.69270092E+03</pdfrwt>
<pdfrwt beam="2">  1       -1 0.72746061E-01 0.69270092E+03</pdfrwt>
<totfact> 0.42313488E+01</totfact>
</mgrwt>
</event>
<event>
 4    2  0.3884658E-007  0.6890997E+03  0.7818608E-02  0.1004583E+00
         -1   -1    0    0    0  501 -0.00000000000E+00  0.00000000000E+00  0.70422842543E+03  0.70422842545E+03  0.50400000000E-02 0.  1.
          1   -1    0    0  501    0  0.00000000000E+00 -0.00000000000E+00 -0.45070044449E+03  0.45070044451E+03  0.50400000000E-02 0. -1.
    8880023    1    1    2    0    0  0.13141324468E+03 -0.15420346494E+03 -0.12382621342E+03  0.70013662015E+03  0.65864270000E+03 0. -1.
    8880022    1    1    2    0    0 -0.13141324468E+03  0.15420346494E+03  0.37735419436E+03  0.45479224982E+03  0.15294330000E+03 0.  0.
<mgrwt>
<rscale>  0 0.53685352E+03</rscale>
<asrwt>0</asrwt>
<pdfrwt beam="1">  1        1 0.69338530E-01 0.68909967E+03</pdfrwt>
<pdfrwt beam="2">  1       -1 0.10834283E+00 0.68909967E+03</pdfrwt>
<totfact> 0.41539790E+01</totfact>
</mgrwt>
</event>
<event>
 4    2  0.3884658E-007  0.1167918E+04  0.7818608E-02  0.9188957E-01
         -1   -1    0    0    0  501 -0.00000000000E+00  0.00000000000E+00  0.47266232568E+03  0.47266232571E+03  0.50400000000E-02 0.  1.
          1   -1    0    0  501    0  0.00000000000E+00 -0.00000000000E+00 -0.39937517306E+04  0.39937517306E+04  0.50400000000E-02 0. -1.
    8880023    1    1    2    0    0  0.47084306625E+03 -0.84174142819E+03 -0.32492157603E+04  0.34527431252E+04  0.65864270000E+03 0.  0.
    8880022    1    1    2    0    0 -0.47084306625E+03  0.84174142819E+03 -0.27187364455E+03  0.10136709311E+04  0.15294330000E+03 0.  0.
<mgrwt>
<rscale>  0 0.11168138E+04</rscale>
<asrwt>0</asrwt>
<pdfrwt beam="1">  1        1 0.61442332E+00 0.11679178E+04</pdfrwt>
<pdfrwt beam="2">  1       -1 0.72717283E-01 0.11679178E+04</pdfrwt>
<totfact> 0.18954268E-01</totfact>
</mgrwt>
</event>
<event>
 4    2  0.3884658E-007  0.6871422E+03  0.7818608E-02  0.1005542E+00
         -1   -1    0    0    0  501 -0.00000000000E+00  0.00000000000E+00  0.81655105655E+03  0.81655105657E+03  0.50400000000E-02 0.  1.
          1   -1    0    0  501    0  0.00000000000E+00 -0.00000000000E+00 -0.10293425705E+04  0.10293425705E+04  0.50400000000E-02 0. -1.
    8880023    1    1    2    0    0 -0.29460085831E+02 -0.19361373233E+03 -0.89008128436E+03  0.11244594582E+04  0.65864270000E+03 0. -1.
    8880022    1    1    2    0    0  0.29460085831E+02  0.19361373233E+03  0.67728977040E+03  0.72143416894E+03  0.15294330000E+03 0.  0.
<mgrwt>
<rscale>  0 0.53285729E+03</rscale>
<asrwt>0</asrwt>
<pdfrwt beam="1">  1        1 0.15836040E+00 0.68714218E+03</pdfrwt>
<pdfrwt beam="2">  1       -1 0.12562324E+00 0.68714218E+03</pdfrwt>
<totfact> 0.82818833E+00</totfact>
</mgrwt>
</event>
<event>
 4    2  0.3884658E-007  0.7293256E+03  0.7818608E-02  0.9892209E-01
          1   -1    0    0  501    0  0.00000000000E+00  0.00000000000E+00  0.68205551526E+03  0.68205551528E+03  0.50400000000E-02 0. -1.
         -1   -1    0    0    0  501 -0.00000000000E+00 -0.00000000000E+00 -0.80481235843E+03  0.80481235844E+03  0.50400000000E-02 0.  1.
    8880023    1    1    2    0    0  0.66892341617E+02 -0.30599178873E+03  0.42015557250E+03  0.84169262294E+03  0.65864270000E+03 0.  0.
    8880022    1    1    2    0    0 -0.66892341617E+02  0.30599178873E+03 -0.54291241566E+03  0.64517525079E+03  0.15294330000E+03 0.  0.
<mgrwt>
<rscale>  0 0.60640373E+03</rscale>
<asrwt>0</asrwt>
<pdfrwt beam="1">  1        1 0.10493162E+00 0.72932556E+03</pdfrwt>
<pdfrwt beam="2">  1       -1 0.12381729E+00 0.72932556E+03</pdfrwt>
<totfact> 0.16729760E+01</totfact>
</mgrwt>
</event>
<event>
 4    2  0.3884658E-007  0.6991607E+03  0.7818608E-02  0.1000070E+00
          1   -1    0    0  501    0  0.00000000000E+00  0.00000000000E+00  0.62269847998E+03  0.62269848000E+03  0.50400000000E-02 0. -1.
         -1   -1    0    0    0  501 -0.00000000000E+00 -0.00000000000E+00 -0.51718806881E+03  0.51718806884E+03  0.50400000000E-02 0.  1.
    8880023    1    1    2    0    0 -0.63751627479E+02  0.22572380350E+03  0.33740585894E+03  0.77631721956E+03  0.65864270000E+03 0. -1.
    8880022    1    1    2    0    0  0.63751627479E+02 -0.22572380350E+03 -0.23189544778E+03  0.36356932927E+03  0.15294330000E+03 0.  0.
<mgrwt>
<rscale>  0 0.55619519E+03</rscale>
<asrwt>0</asrwt>
<pdfrwt beam="1">  1        1 0.95799766E-01 0.69916072E+03</pdfrwt>
<pdfrwt beam="2">  1       -1 0.79567395E-01 0.69916072E+03</pdfrwt>
<totfact> 0.52550433E+01</totfact>
</mgrwt>
</event>
<event>
 4    2  0.3884658E-007  0.1045424E+04  0.7818608E-02  0.9324402E-01
          1   -1    0    0  501    0  0.00000000000E+00  0.00000000000E+00  0.17639228350E+04  0.17639228350E+04  0.50400000000E-02 0. -1.
         -1   -1    0    0    0  501 -0.00000000000E+00 -0.00000000000E+00 -0.10302845184E+04  0.10302845184E+04  0.50400000000E-02 0.  1.
    8880023    1    1    2    0    0  0.53143785343E+03 -0.61373904665E+03  0.13898725795E+04  0.17391543356E+04  0.65864270000E+03 0.  0.
    8880022    1    1    2    0    0 -0.53143785343E+03  0.61373904665E+03 -0.65623426290E+03  0.10550530178E+04  0.15294330000E+03 0.  0.
<mgrwt>
<rscale>  0 0.98567051E+03</rscale>
<asrwt>0</asrwt>
<pdfrwt beam="1">  1        1 0.27137274E+00 0.10454243E+04</pdfrwt>
<pdfrwt beam="2">  1       -1 0.15850531E+00 0.10454243E+04</pdfrwt>
<totfact> 0.12952693E+00</totfact>
</mgrwt>
</event>
<event>
 4    2  0.3884658E-007  0.6726253E+03  0.7818608E-02  0.1013847E+00
          1   -1    0    0  501    0  0.00000000000E+00  0.00000000000E+00  0.13839388157E+04  0.13839388157E+04  0.50400000000E-02 0. -1.
         -1   -1    0    0    0  501 -0.00000000000E+00 -0.00000000000E+00 -0.50393285066E+03  0.50393285068E+03  0.50400000000E-02 0.  1.
    8880023    1    1    2    0    0  0.37924876514E+02 -0.13105846629E+03  0.12757479805E+04  0.14422058569E+04  0.65864270000E+03 0. -1.
    8880022    1    1    2    0    0 -0.37924876514E+02  0.13105846629E+03 -0.39574201548E+03  0.44566580940E+03  0.15294330000E+03 0.  0.
<mgrwt>
<rscale>  0 0.49974007E+03</rscale>
<asrwt>0</asrwt>
<pdfrwt beam="1">  1        1 0.21291366E+00 0.67262532E+03</pdfrwt>
<pdfrwt beam="2">  1       -1 0.77528132E-01 0.67262532E+03</pdfrwt>
<totfact> 0.13768920E+01</totfact>
</mgrwt>
</event>
<event>
 4    2  0.3884658E-007  0.6824333E+03  0.7818608E-02  0.1007979E+00
         -1   -1    0    0    0  501 -0.00000000000E+00  0.00000000000E+00  0.53071512527E+03  0.53071512529E+03  0.50400000000E-02 0.  1.
          1   -1    0    0  501    0  0.00000000000E+00 -0.00000000000E+00 -0.12685921098E+04  0.12685921098E+04  0.50400000000E-02 0. -1.
    8880023    1    1    2    0    0 -0.16620539777E+03 -0.65427455302E+02 -0.11428006208E+04  0.13310553900E+04  0.65864270000E+03 0. -1.
    8880022    1    1    2    0    0  0.16620539777E+03  0.65427455302E+02  0.40492363629E+03  0.46825184505E+03  0.15294330000E+03 0.  0.
<mgrwt>
<rscale>  0 0.52285648E+03</rscale>
<asrwt>0</asrwt>
<pdfrwt beam="1">  1        1 0.19516802E+00 0.68243329E+03</pdfrwt>
<pdfrwt beam="2">  1       -1 0.81648481E-01 0.68243329E+03</pdfrwt>
<totfact> 0.14845899E+01</totfact>
</mgrwt>
</event>
<event>
 4    2  0.3884658E-007  0.7144783E+03  0.7818608E-02  0.9941732E-01
          1   -1    0    0  501    0  0.00000000000E+00  0.00000000000E+00  0.88685626692E+03  0.88685626693E+03  0.50400000000E-02 0. -1.
         -1   -1    0    0    0  501 -0.00000000000E+00 -0.00000000000E+00 -0.84624900907E+03  0.84624900909E+03  0.50400000000E-02 0.  1.
    8880023    1    1    2    0    0 -0.25194783974E+03 -0.11485353270E+03  0.70095191399E+03  0.10009060095E+04  0.65864270000E+03 0. -1.
    8880022    1    1    2    0    0  0.25194783974E+03  0.11485353270E+03 -0.66034465615E+03  0.73219926649E+03  0.15294330000E+03 0.  0.
<mgrwt>
<rscale>  0 0.58280696E+03</rscale>
<asrwt>0</asrwt>
<pdfrwt beam="1">  1        1 0.13643943E+00 0.71447831E+03</pdfrwt>
<pdfrwt beam="2">  1       -1 0.13019216E+00 0.71447831E+03</pdfrwt>
<totfact> 0.97743731E+00</totfact>
</mgrwt>
</event>
<event>
 4    2  0.3884658E-007  0.7225681E+03  0.7818608E-02  0.9913990E-01
         -1   -1    0    0    0  501 -0.00000000000E+00  0.00000000000E+00  0.15697528136E+03  0.15697528144E+03  0.50400000000E-02 0.  1.
          1   -1    0    0  501    0  0.00000000000E+00 -0.00000000000E+00 -0.25034511082E+04  0.25034511082E+04  0.50400000000E-02 0. -1.
    8880023    1    1    2    0    0 -0.19285124989E+03  0.22605925772E+03 -0.21601584712E+04  0.22778035955E+04  0.65864270000E+03 0.  0.
    8880022    1    1    2    0    0  0.19285124989E+03 -0.22605925772E+03 -0.18631735562E+03  0.38262279415E+03  0.15294330000E+03 0.  0.
<mgrwt>
<rscale>  0 0.59588017E+03</rscale>
<asrwt>0</asrwt>
<pdfrwt beam="1">  1        1 0.38514629E+00 0.72256806E+03</pdfrwt>
<pdfrwt beam="2">  1       -1 0.24150045E-01 0.72256806E+03</pdfrwt>
<totfact> 0.21057278E+01</totfact>
</mgrwt>
</event>
<event>
 4    2  0.3884658E-007  0.7442283E+03  0.7818608E-02  0.9847797E-01
          1   -1    0    0  501    0  0.00000000000E+00  0.00000000000E+00  0.13001972717E+04  0.13001972717E+04  0.50400000000E-02 0. -1.
         -1   -1    0    0    0  501 -0.00000000000E+00 -0.00000000000E+00 -0.33317006640E+03  0.33317006644E+03  0.50400000000E-02 0.  1.
    8880023    1    1    2    0    0 -0.72437282535E+02  0.33884862168E+03  0.10073720104E+04  0.12524672139E+04  0.65864270000E+03 0. -1.
    8880022    1    1    2    0    0  0.72437282535E+02 -0.33884862168E+03 -0.40344805116E+02  0.38090012422E+03  0.15294330000E+03 0.  1.
<mgrwt>
<rscale>  0 0.62859356E+03</rscale>
<asrwt>0</asrwt>
<pdfrwt beam="1">  1        1 0.20003035E+00 0.74422829E+03</pdfrwt>
<pdfrwt beam="2">  1       -1 0.51256934E-01 0.74422829E+03</pdfrwt>
<totfact> 0.35631116E+01</totfact>
</mgrwt>
</event>
<event>
 4    2  0.3884658E-007  0.6729386E+03  0.7818608E-02  0.1013638E+00
          1   -1    0    0  501    0  0.00000000000E+00  0.00000000000E+00  0.13793802502E+04  0.13793802502E+04  0.50400000000E-02 0. -1.
         -1   -1    0    0    0  501 -0.00000000000E+00 -0.00000000000E+00 -0.30985913498E+03  0.30985913502E+03  0.50400000000E-02 0.  1.
    8880023    1    1    2    0    0 -0.87461026761E+01  0.13769419109E+03  0.12472327351E+04  0.14171929601E+04  0.65864270000E+03 0. -1.
    8880022    1    1    2    0    0  0.87461026761E+01 -0.13769419109E+03 -0.17771161984E+03  0.27204642511E+03  0.15294330000E+03 0.  0.
<mgrwt>
<rscale>  0 0.50053904E+03</rscale>
<asrwt>0</asrwt>
<pdfrwt beam="1">  1        1 0.21221235E+00 0.67293862E+03</pdfrwt>
<pdfrwt beam="2">  1       -1 0.47670635E-01 0.67293862E+03</pdfrwt>
<totfact> 0.36273490E+01</totfact>
</mgrwt>
</event>
<event>
 4    2  0.3884658E-007  0.1677632E+04  0.7818608E-02  0.8793428E-01
         -1   -1    0    0    0  501 -0.00000000000E+00  0.00000000000E+00  0.11599460736E+04  0.11599460736E+04  0.50400000000E-02 0.  1.
          1   -1    0    0  501    0  0.00000000000E+00 -0.00000000000E+00 -0.24082154575E+04  0.24082154575E+04  0.50400000000E-02 0. -1.
    8880023    1    1    2    0    0 -0.53772881037E+03  0.14461977067E+04 -0.18431296447E+03  0.16877267420E+04  0.65864270000E+03 0.  0.
    8880022    1    1    2    0    0  0.53772881037E+03 -0.14461977067E+04 -0.10639564195E+04  0.18804347891E+04  0.15294330000E+03 0.  0.
<mgrwt>
<rscale>  0 0.16449023E+04</rscale>
<asrwt>0</asrwt>
<pdfrwt beam="1">  1        1 0.37049468E+00 0.16776323E+04</pdfrwt>
<pdfrwt beam="2">  1       -1 0.17845324E+00 0.16776323E+04</pdfrwt>
<totfact> 0.31096417E-01</totfact>
</mgrwt>
</event>
<event>
 4    2  0.3884658E-007  0.1400928E+04  0.7818608E-02  0.8982962E-01
          1   -1    0    0  501    0  0.00000000000E+00  0.00000000000E+00  0.30875298416E+04  0.30875298416E+04  0.50400000000E-02 0. -1.
         -1   -1    0    0    0  501 -0.00000000000E+00 -0.00000000000E+00 -0.75584955627E+03  0.75584955629E+03  0.50400000000E-02 0.  1.
    8880023    1    1    2    0    0  0.12364326269E+04  0.49499775792E+01  0.25839546527E+03  0.14245590777E+04  0.65864270000E+03 0.  0.
    8880022    1    1    2    0    0 -0.12364326269E+04 -0.49499775792E+01  0.20732848200E+04  0.24188203202E+04  0.15294330000E+03 0.  0.
<mgrwt>
<rscale>  0 0.13604412E+04</rscale>
<asrwt>0</asrwt>
<pdfrwt beam="1">  1        1 0.47500458E+00 0.14009284E+04</pdfrwt>
<pdfrwt beam="2">  1       -1 0.11628455E+00 0.14009284E+04</pdfrwt>
<totfact> 0.33375325E-01</totfact>
</mgrwt>
</event>
<event>
 4    2  0.3884658E-007  0.8609068E+03  0.7818608E-02  0.9591953E-01
         -1   -1    0    0    0  501 -0.00000000000E+00  0.00000000000E+00  0.63172597225E+03  0.63172597227E+03  0.50400000000E-02 0.  1.
          1   -1    0    0  501    0  0.00000000000E+00 -0.00000000000E+00 -0.93581773482E+03  0.93581773483E+03  0.50400000000E-02 0. -1.
    8880023    1    1    2    0    0 -0.28893500284E+03 -0.47314564970E+03 -0.45392209440E+03  0.97324494129E+03  0.65864270000E+03 0.  0.
    8880022    1    1    2    0    0  0.28893500284E+03  0.47314564970E+03  0.14983033183E+03  0.59429876581E+03  0.15294330000E+03 0.  0.
<mgrwt>
<rscale>  0 0.77831113E+03</rscale>
<asrwt>0</asrwt>
<pdfrwt beam="1">  1        1 0.14397196E+00 0.86090676E+03</pdfrwt>
<pdfrwt beam="2">  1       -1 0.97188612E-01 0.86090676E+03</pdfrwt>
<totfact> 0.17587599E+01</totfact>
</mgrwt>
</event>
<event>
 4    2  0.3884658E-007  0.9039328E+03  0.7818608E-02  0.9519747E-01
         -1   -1    0    0    0  501 -0.00000000000E+00  0.00000000000E+00  0.61873076993E+03  0.61873076995E+03  0.50400000000E-02 0.  1.
          1   -1    0    0  501    0  0.00000000000E+00 -0.00000000000E+00 -0.11955601985E+04  0.11955601985E+04  0.50400000000E-02 0. -1.
    8880023    1    1    2    0    0 -0.59850379313E+03 -0.15835874445E+03 -0.72597834460E+03  0.11593701072E+04  0.65864270000E+03 0. -1.
    8880022    1    1    2    0    0  0.59850379313E+03  0.15835874445E+03  0.14914891605E+03  0.65492086125E+03  0.15294330000E+03 0.  1.
<mgrwt>
<rscale>  0 0.82843448E+03</rscale>
<asrwt>0</asrwt>
<pdfrwt beam="1">  1        1 0.18393234E+00 0.90393279E+03</pdfrwt>
<pdfrwt beam="2">  1       -1 0.95189350E-01 0.90393279E+03</pdfrwt>
<totfact> 0.11636735E+01</totfact>
</mgrwt>
</event>
<event>
 4    2  0.3884658E-007  0.7905055E+03  0.7818608E-02  0.9731714E-01
          1   -1    0    0  501    0  0.00000000000E+00  0.00000000000E+00  0.87016127397E+03  0.87016127398E+03  0.50400000000E-02 0. -1.
         -1   -1    0    0    0  501 -0.00000000000E+00 -0.00000000000E+00 -0.71142358831E+03  0.71142358833E+03  0.50400000000E-02 0.  1.
    8880023    1    1    2    0    0  0.38881698379E+03  0.19977520727E+03  0.56004004127E+03  0.96878472037E+03  0.65864270000E+03 0. -1.
    8880022    1    1    2    0    0 -0.38881698379E+03 -0.19977520727E+03 -0.40130235562E+03  0.61280014194E+03  0.15294330000E+03 0.  0.
<mgrwt>
<rscale>  0 0.69159547E+03</rscale>
<asrwt>0</asrwt>
<pdfrwt beam="1">  1        1 0.13387096E+00 0.79050553E+03</pdfrwt>
<pdfrwt beam="2">  1       -1 0.10944978E+00 0.79050553E+03</pdfrwt>
<totfact> 0.15238348E+01</totfact>
</mgrwt>
</event>
<event>
 4    2  0.3884658E-007  0.1030105E+04  0.7818608E-02  0.9343189E-01
         -1   -1    0    0    0  501 -0.00000000000E+00  0.00000000000E+00  0.82762395119E+03  0.82762395120E+03  0.50400000000E-02 0.  1.
          1   -1    0    0  501    0  0.00000000000E+00 -0.00000000000E+00 -0.17356676982E+04  0.17356676982E+04  0.50400000000E-02 0. -1.
    8880023    1    1    2    0    0  0.75109775121E+03  0.25131346282E+03 -0.13063699896E+04  0.16636463099E+04  0.65864270000E+03 0. -1.
    8880022    1    1    2    0    0 -0.75109775121E+03 -0.25131346282E+03  0.39832624254E+03  0.89964533955E+03  0.15294330000E+03 0.  1.
<mgrwt>
<rscale>  0 0.96902187E+03</rscale>
<asrwt>0</asrwt>
<pdfrwt beam="1">  1        1 0.26702580E+00 0.10301051E+04</pdfrwt>
<pdfrwt beam="2">  1       -1 0.12732676E+00 0.10301051E+04</pdfrwt>
<totfact> 0.24168545E+00</totfact>
</mgrwt>
</event>
<event>
 4    2  0.3884658E-007  0.7603481E+03  0.7818608E-02  0.9804207E-01
         -1   -1    0    0    0  501 -0.00000000000E+00  0.00000000000E+00  0.75874787245E+03  0.75874787246E+03  0.50400000000E-02 0.  1.
          1   -1    0    0  501    0  0.00000000000E+00 -0.00000000000E+00 -0.54071867014E+03  0.54071867016E+03  0.50400000000E-02 0. -1.
    8880023    1    1    2    0    0 -0.30919111791E+03 -0.22072596936E+03 -0.11834860495E+03  0.76950354093E+03  0.65864270000E+03 0.  0.
    8880022    1    1    2    0    0  0.30919111791E+03  0.22072596936E+03  0.33637780726E+03  0.52996300170E+03  0.15294330000E+03 0.  0.
<mgrwt>
<rscale>  0 0.65137260E+03</rscale>
<asrwt>0</asrwt>
<pdfrwt beam="1">  1        1 0.83187488E-01 0.76034815E+03</pdfrwt>
<pdfrwt beam="2">  1       -1 0.11673044E+00 0.76034815E+03</pdfrwt>
<totfact> 0.26929050E+01</totfact>
</mgrwt>
</event>
<event>
 4    2  0.4101661E-007  0.7372732E+03  0.7818608E-02  0.9867962E-01
         -1   -1    0    0    0  501 -0.00000000000E+00  0.00000000000E+00  0.59218015234E+03  0.59218015236E+03  0.50400000000E-02 0.  1.
          1   -1    0    0  501    0  0.00000000000E+00 -0.00000000000E+00 -0.17934673312E+04  0.17934673312E+04  0.50400000000E-02 0. -1.
    8880023    1    1    2    0    0  0.22453879071E+03  0.24360617356E+03 -0.16500373655E+04  0.18072617824E+04  0.65864270000E+03 0. -1.
    8880022    1    1    2    0    0 -0.22453879071E+03 -0.24360617356E+03  0.44875018662E+03  0.57838570119E+03  0.15294330000E+03 0.  0.
<mgrwt>
<rscale>  0 0.61839411E+03</rscale>
<asrwt>0</asrwt>
<pdfrwt beam="1">  1        1 0.27591805E+00 0.73727325E+03</pdfrwt>
<pdfrwt beam="2">  1       -1 0.91104640E-01 0.73727325E+03</pdfrwt>
<totfact> 0.50745751E+00</totfact>
</mgrwt>
</event>
<event>
 4    2  0.3884658E-007  0.6602872E+03  0.7818608E-02  0.1023864E+00
          1   -1    0    0  501    0  0.00000000000E+00  0.00000000000E+00  0.18819252156E+03  0.18819252163E+03  0.50400000000E-02 0. -1.
         -1   -1    0    0    0  501 -0.00000000000E+00 -0.00000000000E+00 -0.91402211501E+03  0.91402211502E+03  0.50400000000E-02 0.  1.
    8880023    1    1    2    0    0 -0.39359658239E+02 -0.24897040352E+02 -0.51368134555E+03  0.83656905056E+03  0.65864270000E+03 0. -1.
    8880022    1    1    2    0    0  0.39359658239E+02  0.24897040352E+02 -0.21214824789E+03  0.26564558610E+03  0.15294330000E+03 0.  0.
<mgrwt>
<rscale>  0 0.46317624E+03</rscale>
<asrwt>0</asrwt>
<pdfrwt beam="1">  1        1 0.28952696E-01 0.66028725E+03</pdfrwt>
<pdfrwt beam="2">  1       -1 0.14061878E+00 0.66028725E+03</pdfrwt>
<totfact> 0.68358631E+01</totfact>
</mgrwt>
</event>
<event>
 4    2  0.3884658E-007  0.7501111E+03  0.7818608E-02  0.9831416E-01
         -1   -1    0    0    0  501 -0.00000000000E+00  0.00000000000E+00  0.41994012267E+03  0.41994012270E+03  0.50400000000E-02 0.  1.
          1   -1    0    0  501    0  0.00000000000E+00 -0.00000000000E+00 -0.19559783664E+04  0.19559783664E+04  0.50400000000E-02 0. -1.
    8880023    1    1    2    0    0  0.14154554160E+03 -0.32988086830E+03 -0.17690066141E+04  0.19214710860E+04  0.65864270000E+03 0.  0.
    8880022    1    1    2    0    0 -0.14154554160E+03  0.32988086830E+03  0.23296837030E+03  0.45444740311E+03  0.15294330000E+03 0.  1.
<mgrwt>
<rscale>  0 0.63703490E+03</rscale>
<asrwt>0</asrwt>
<pdfrwt beam="1">  1        1 0.30091974E+00 0.75011115E+03</pdfrwt>
<pdfrwt beam="2">  1       -1 0.64606174E-01 0.75011115E+03</pdfrwt>
<totfact> 0.81150885E+00</totfact>
</mgrwt>
</event>
<event>
 4    2  0.3884658E-007  0.9196768E+03  0.7818608E-02  0.9495155E-01
          1   -1    0    0  501    0  0.00000000000E+00  0.00000000000E+00  0.48438683157E+03  0.48438683160E+03  0.50400000000E-02 0. -1.
         -1   -1    0    0    0  501 -0.00000000000E+00 -0.00000000000E+00 -0.13356823269E+04  0.13356823269E+04  0.50400000000E-02 0.  1.
    8880023    1    1    2    0    0  0.63695122059E+03 -0.79299267235E+02 -0.32283051358E+03  0.97469224782E+03  0.65864270000E+03 0.  0.
    8880022    1    1    2    0    0 -0.63695122059E+03  0.79299267235E+02 -0.52846498177E+03  0.84537691071E+03  0.15294330000E+03 0.  0.
<mgrwt>
<rscale>  0 0.84641986E+03</rscale>
<asrwt>0</asrwt>
<pdfrwt beam="1">  1        1 0.74521051E-01 0.91967681E+03</pdfrwt>
<pdfrwt beam="2">  1       -1 0.20548959E+00 0.91967681E+03</pdfrwt>
<totfact> 0.64750146E+00</totfact>
</mgrwt>
</event>
<event>
 4    2  0.3884658E-007  0.6858534E+03  0.7818608E-02  0.1006189E+00
         -1   -1    0    0    0  501 -0.00000000000E+00  0.00000000000E+00  0.10227094732E+03  0.10227094745E+03  0.50400000000E-02 0.  1.
          1   -1    0    0  501    0  0.00000000000E+00 -0.00000000000E+00 -0.35443413298E+04  0.35443413298E+04  0.50400000000E-02 0. -1.
    8880023    1    1    2    0    0 -0.42242091172E+02 -0.18654830801E+03 -0.32846266646E+04  0.33554682531E+04  0.65864270000E+03 0. -1.
    8880022    1    1    2    0    0  0.42242091172E+02  0.18654830801E+03 -0.15744371789E+03  0.29114402416E+03  0.15294330000E+03 0.  0.
<mgrwt>
<rscale>  0 0.53017707E+03</rscale>
<asrwt>0</asrwt>
<pdfrwt beam="1">  1        1 0.54528319E+00 0.68585339E+03</pdfrwt>
<pdfrwt beam="2">  1       -1 0.15733995E-01 0.68585339E+03</pdfrwt>
<totfact> 0.76489709E+00</totfact>
</mgrwt>
</event>
<event>
 4    2  0.3884658E-007  0.9346902E+03  0.7818608E-02  0.9472492E-01
         -1   -1    0    0    0  501 -0.00000000000E+00  0.00000000000E+00  0.60746628052E+03  0.60746628054E+03  0.50400000000E-02 0.  1.
          1   -1    0    0  501    0  0.00000000000E+00 -0.00000000000E+00 -0.16122254561E+04  0.16122254561E+04  0.50400000000E-02 0. -1.
    8880023    1    1    2    0    0  0.13328259415E+03 -0.64967011518E+03 -0.11910811383E+04  0.15140409482E+04  0.65864270000E+03 0. -1.
    8880022    1    1    2    0    0 -0.13328259415E+03  0.64967011518E+03  0.18632196273E+03  0.70565078847E+03  0.15294330000E+03 0.  0.
<mgrwt>
<rscale>  0 0.86342577E+03</rscale>
<asrwt>0</asrwt>
<pdfrwt beam="1">  1        1 0.24803468E+00 0.93469017E+03</pdfrwt>
<pdfrwt beam="2">  1       -1 0.93456351E-01 0.93469017E+03</pdfrwt>
<totfact> 0.61708557E+00</totfact>
</mgrwt>
</event>
<event>
 4    2  0.3884658E-007  0.1010978E+04  0.7818608E-02  0.9367334E-01
          1   -1    0    0  501    0  0.00000000000E+00  0.00000000000E+00  0.19141322718E+04  0.19141322718E+04  0.50400000000E-02 0. -1.
         -1   -1    0    0    0  501 -0.00000000000E+00 -0.00000000000E+00 -0.55890833178E+03  0.55890833180E+03  0.50400000000E-02 0.  1.
    8880023    1    1    2    0    0 -0.67496827060E+03  0.36425853707E+03  0.13554525410E+04  0.16909548324E+04  0.65864270000E+03 0. -1.
    8880022    1    1    2    0    0  0.67496827060E+03 -0.36425853707E+03 -0.22860101850E+00  0.78208577114E+03  0.15294330000E+03 0.  0.
<mgrwt>
<rscale>  0 0.94813437E+03</rscale>
<asrwt>0</asrwt>
<pdfrwt beam="1">  1        1 0.29448189E+00 0.10109781E+04</pdfrwt>
<pdfrwt beam="2">  1       -1 0.85985898E-01 0.10109781E+04</pdfrwt>
<totfact> 0.45902167E+00</totfact>
</mgrwt>
</event>
<event>
 4    2  0.3884658E-007  0.7123506E+03  0.7818608E-02  0.9949374E-01
          1   -1    0    0  501    0  0.00000000000E+00  0.00000000000E+00  0.58912825040E+03  0.58912825043E+03  0.50400000000E-02 0. -1.
         -1   -1    0    0    0  501 -0.00000000000E+00 -0.00000000000E+00 -0.47696806707E+03  0.47696806710E+03  0.50400000000E-02 0.  1.
    8880023    1    1    2    0    0 -0.13629721463E+03  0.23464059880E+03  0.20465400080E+03  0.74116570862E+03  0.65864270000E+03 0. -1.
    8880022    1    1    2    0    0  0.13629721463E+03 -0.23464059880E+03 -0.92493817464E+02  0.32493060891E+03  0.15294330000E+03 0.  1.
<mgrwt>
<rscale>  0 0.57926952E+03</rscale>
<asrwt>0</asrwt>
<pdfrwt beam="1">  1        1 0.90635115E-01 0.71235058E+03</pdfrwt>
<pdfrwt beam="2">  1       -1 0.73379703E-01 0.71235058E+03</pdfrwt>
<totfact> 0.67346057E+01</totfact>
</mgrwt>
</event>
<event>
 4    2  0.3884658E-007  0.6993585E+03  0.7818608E-02  0.9999873E-01
          1   -1    0    0  501    0  0.00000000000E+00  0.00000000000E+00  0.24542140803E+04  0.24542140803E+04  0.50400000000E-02 0. -1.
         -1   -1    0    0    0  501 -0.00000000000E+00 -0.00000000000E+00 -0.15603312133E+03  0.15603312141E+03  0.50400000000E-02 0.  1.
    8880023    1    1    2    0    0  0.23510734831E+03  0.40731226981E+01  0.22072120526E+04  0.23153590018E+04  0.65864270000E+03 0. -1.
    8880022    1    1    2    0    0 -0.23510734831E+03 -0.40731226981E+01  0.90968906397E+02  0.29488820000E+03  0.15294330000E+03 0.  0.
<mgrwt>
<rscale>  0 0.55655806E+03</rscale>
<asrwt>0</asrwt>
<pdfrwt beam="1">  1        1 0.37757141E+00 0.69935846E+03</pdfrwt>
<pdfrwt beam="2">  1       -1 0.24005095E-01 0.69935846E+03</pdfrwt>
<totfact> 0.23062348E+01</totfact>
</mgrwt>
</event>
<event>
 4    2  0.3884658E-007  0.7569542E+03  0.7818608E-02  0.9813057E-01
          1   -1    0    0  501    0  0.00000000000E+00  0.00000000000E+00  0.97534404904E+03  0.97534404906E+03  0.50400000000E-02 0. -1.
         -1   -1    0    0    0  501 -0.00000000000E+00 -0.00000000000E+00 -0.26319901210E+04  0.26319901210E+04  0.50400000000E-02 0.  1.
    8880023    1    1    2    0    0  0.97609854688E+02 -0.36005807078E+03  0.80960102076E+03  0.11083472006E+04  0.65864270000E+03 0.  0.
    8880022    1    1    2    0    0 -0.97609854688E+02  0.36005807078E+03 -0.24662470927E+04  0.24989869695E+04  0.15294330000E+03 0.  0.
<mgrwt>
<rscale>  0 0.64666493E+03</rscale>
<asrwt>0</asrwt>
<pdfrwt beam="1">  1        1 0.15005293E+00 0.75695423E+03</pdfrwt>
<pdfrwt beam="2">  1       -1 0.40492156E+00 0.75695423E+03</pdfrwt>
<totfact> 0.11320179E-01</totfact>
</mgrwt>
</event>
<event>
 4    2  0.3884658E-007  0.8883827E+03  0.7818608E-02  0.9544944E-01
         -1   -1    0    0    0  501 -0.00000000000E+00  0.00000000000E+00  0.44095399354E+03  0.44095399357E+03  0.50400000000E-02 0.  1.
          1   -1    0    0  501    0  0.00000000000E+00 -0.00000000000E+00 -0.30534658964E+04  0.30534658964E+04  0.50400000000E-02 0. -1.
    8880023    1    1    2    0    0 -0.18513351885E+03  0.56669141181E+03 -0.27272938599E+04  0.28683367272E+04  0.65864270000E+03 0. -1.
    8880022    1    1    2    0    0  0.18513351885E+03 -0.56669141181E+03  0.11478195706E+03  0.62608316277E+03  0.15294330000E+03 0.  0.
<mgrwt>
<rscale>  0 0.81049820E+03</rscale>
<asrwt>0</asrwt>
<pdfrwt beam="1">  1        1 0.46976397E+00 0.88838268E+03</pdfrwt>
<pdfrwt beam="2">  1       -1 0.67839078E-01 0.88838268E+03</pdfrwt>
<totfact> 0.12607491E+00</totfact>
</mgrwt>
</event>
<event>
 4    2  0.3884658E-007  0.9920499E+03  0.7818608E-02  0.9392034E-01
         -1   -1    0    0    0  501 -0.00000000000E+00  0.00000000000E+00  0.38459500208E+03  0.38459500211E+03  0.50400000000E-02 0.  1.
          1   -1    0    0  501    0  0.00000000000E+00 -0.00000000000E+00 -0.22645626753E+04  0.22645626753E+04  0.50400000000E-02 0. -1.
    8880023    1    1    2    0    0  0.72642262942E+03 -0.15054209482E+03 -0.15086050191E+04  0.18055614276E+04  0.65864270000E+03 0.  0.
    8880022    1    1    2    0    0 -0.72642262942E+03  0.15054209482E+03 -0.37136265412E+03  0.84359624984E+03  0.15294330000E+03 0.  0.
<mgrwt>
<rscale>  0 0.92734202E+03</rscale>
<asrwt>0</asrwt>
<pdfrwt beam="1">  1        1 0.34839425E+00 0.99204988E+03</pdfrwt>
<pdfrwt beam="2">  1       -1 0.59168463E-01 0.99204988E+03</pdfrwt>
<totfact> 0.57901151E+00</totfact>
</mgrwt>
</event>
<event>
 4    2  0.3884658E-007  0.6666039E+03  0.7818608E-02  0.1018224E+00
         -1   -1    0    0    0  501 -0.00000000000E+00  0.00000000000E+00  0.18715532560E+03  0.18715532566E+03  0.50400000000E-02 0.  1.
          1   -1    0    0  501    0  0.00000000000E+00 -0.00000000000E+00 -0.24672939080E+04  0.24672939080E+04  0.50400000000E-02 0. -1.
    8880023    1    1    2    0    0  0.10115426755E+03 -0.17842521957E+02 -0.23609638913E+04  0.24532654247E+04  0.65864270000E+03 0. -1.
    8880022    1    1    2    0    0 -0.10115426755E+03  0.17842521957E+02  0.80825308914E+02  0.20118380902E+03  0.15294330000E+03 0.  0.
<mgrwt>
<rscale>  0 0.48332958E+03</rscale>
<asrwt>0</asrwt>
<pdfrwt beam="1">  1        1 0.37958365E+00 0.66660389E+03</pdfrwt>
<pdfrwt beam="2">  1       -1 0.28793129E-01 0.66660389E+03</pdfrwt>
<totfact> 0.16637134E+01</totfact>
</mgrwt>
</event>
<event>
 4    2  0.3884658E-007  0.7058814E+03  0.7818608E-02  0.9973625E-01
          1   -1    0    0  501    0  0.00000000000E+00  0.00000000000E+00  0.29822689777E+04  0.29822689777E+04  0.50400000000E-02 0. -1.
         -1   -1    0    0    0  501 -0.00000000000E+00 -0.00000000000E+00 -0.31546482343E+03  0.31546482347E+03  0.50400000000E-02 0.  1.
    8880023    1    1    2    0    0 -0.22813628354E+02  0.25285932963E+03  0.28587539391E+04  0.29446124691E+04  0.65864270000E+03 0. -1.
    8880022    1    1    2    0    0  0.22813628354E+02 -0.25285932963E+03 -0.19194978490E+03  0.35312133206E+03  0.15294330000E+03 0.  0.
<mgrwt>
<rscale>  0 0.56821996E+03</rscale>
<asrwt>0</asrwt>
<pdfrwt beam="1">  1        1 0.45881061E+00 0.70588137E+03</pdfrwt>
<pdfrwt beam="2">  1       -1 0.48533050E-01 0.70588137E+03</pdfrwt>
<totfact> 0.28295294E+00</totfact>
</mgrwt>
</event>
<event>
 4    2  0.3884658E-007  0.1052301E+04  0.7818608E-02  0.9316120E-01
          1   -1    0    0  501    0  0.00000000000E+00  0.00000000000E+00  0.23372803625E+04  0.23372803625E+04  0.50400000000E-02 0. -1.
         -1   -1    0    0    0  501 -0.00000000000E+00 -0.00000000000E+00 -0.50306924095E+03  0.50306924097E+03  0.50400000000E-02 0.  1.
    8880023    1    1    2    0    0 -0.21488777970E+03 -0.79205444539E+03  0.30084659923E+03  0.10944614588E+04  0.65864270000E+03 0.  1.
    8880022    1    1    2    0    0  0.21488777970E+03  0.79205444539E+03  0.15333645223E+04  0.17458881446E+04  0.15294330000E+03 0.  0.
<mgrwt>
<rscale>  0 0.99312227E+03</rscale>
<asrwt>0</asrwt>
<pdfrwt beam="1">  1        1 0.35958160E+00 0.10523009E+04</pdfrwt>
<pdfrwt beam="2">  1       -1 0.77395267E-01 0.10523009E+04</pdfrwt>
<totfact> 0.29626427E+00</totfact>
</mgrwt>
</event>
<event>
 4    2  0.3884658E-007  0.6639022E+03  0.7818608E-02  0.1020473E+00
          1   -1    0    0  501    0  0.00000000000E+00  0.00000000000E+00  0.95930916307E+03  0.95930916309E+03  0.50400000000E-02 0. -1.
         -1   -1    0    0    0  501 -0.00000000000E+00 -0.00000000000E+00 -0.91459317000E+03  0.91459317001E+03  0.50400000000E-02 0.  1.
    8880023    1    1    2    0    0 -0.26232510300E+02 -0.79169101205E+02  0.83379423433E+03  0.10658231198E+04  0.65864270000E+03 0. -1.
    8880022    1    1    2    0    0  0.26232510300E+02  0.79169101205E+02 -0.78907824125E+03  0.80807921333E+03  0.15294330000E+03 0.  0.
<mgrwt>
<rscale>  0 0.47516398E+03</rscale>
<asrwt>0</asrwt>
<pdfrwt beam="1">  1        1 0.14758603E+00 0.66390217E+03</pdfrwt>
<pdfrwt beam="2">  1       -1 0.14070664E+00 0.66390217E+03</pdfrwt>
<totfact> 0.70649264E+00</totfact>
</mgrwt>
</event>
<event>
 4    2  0.3884658E-007  0.9006805E+03  0.7818608E-02  0.9524940E-01
         -1   -1    0    0    0  501 -0.00000000000E+00  0.00000000000E+00  0.98845100003E+03  0.98845100004E+03  0.50400000000E-02 0.  1.
          1   -1    0    0  501    0  0.00000000000E+00 -0.00000000000E+00 -0.12385240404E+04  0.12385240404E+04  0.50400000000E-02 0. -1.
    8880023    1    1    2    0    0 -0.43725732284E+03 -0.43153344409E+03 -0.93226485007E+03  0.12962804622E+04  0.65864270000E+03 0. -1.
    8880022    1    1    2    0    0  0.43725732284E+03  0.43153344409E+03  0.68219180970E+03  0.93069457825E+03  0.15294330000E+03 0.  0.
<mgrwt>
<rscale>  0 0.82469798E+03</rscale>
<asrwt>0</asrwt>
<pdfrwt beam="1">  1        1 0.19054216E+00 0.90068046E+03</pdfrwt>
<pdfrwt beam="2">  1       -1 0.15206938E+00 0.90068046E+03</pdfrwt>
<totfact> 0.34245461E+00</totfact>
</mgrwt>
</event>
<event>
 4    2  0.3884658E-007  0.8882755E+03  0.7818608E-02  0.9545121E-01
          1   -1    0    0  501    0  0.00000000000E+00  0.00000000000E+00  0.71320235317E+03  0.71320235319E+03  0.50400000000E-02 0. -1.
         -1   -1    0    0    0  501 -0.00000000000E+00 -0.00000000000E+00 -0.79255473474E+03  0.79255473476E+03  0.50400000000E-02 0.  1.
    8880023    1    1    2    0    0 -0.30209398736E+03 -0.51377271426E+03 -0.54141421809E+02  0.88992397368E+03  0.65864270000E+03 0. -1.
    8880022    1    1    2    0    0  0.30209398736E+03  0.51377271426E+03 -0.25210959761E+02  0.61583311427E+03  0.15294330000E+03 0.  1.
<mgrwt>
<rscale>  0 0.81037395E+03</rscale>
<asrwt>0</asrwt>
<pdfrwt beam="1">  1        1 0.10972344E+00 0.88827551E+03</pdfrwt>
<pdfrwt beam="2">  1       -1 0.12193150E+00 0.88827551E+03</pdfrwt>
<totfact> 0.15961073E+01</totfact>
</mgrwt>
</event>
<event>
 4    2  0.3884658E-007  0.8866052E+03  0.7818608E-02  0.9547886E-01
         -1   -1    0    0    0  501 -0.00000000000E+00  0.00000000000E+00  0.55121498991E+03  0.55121498994E+03  0.50400000000E-02 0.  1.
          1   -1    0    0  501    0  0.00000000000E+00 -0.00000000000E+00 -0.10199740950E+04  0.10199740950E+04  0.50400000000E-02 0. -1.
    8880023    1    1    2    0    0  0.54268250528E+03  0.24032107909E+03 -0.26717819781E+03  0.92598753676E+03  0.65864270000E+03 0.  0.
    8880022    1    1    2    0    0 -0.54268250528E+03 -0.24032107909E+03 -0.20158090727E+03  0.64520154818E+03  0.15294330000E+03 0.  1.
<mgrwt>
<rscale>  0 0.80843600E+03</rscale>
<asrwt>0</asrwt>
<pdfrwt beam="1">  1        1 0.15691909E+00 0.88660517E+03</pdfrwt>
<pdfrwt beam="2">  1       -1 0.84802306E-01 0.88660517E+03</pdfrwt>
<totfact> 0.20363768E+01</totfact>
</mgrwt>
</event>
<event>
 4    2  0.3884658E-007  0.1158101E+04  0.7818608E-02  0.9198968E-01
         -1   -1    0    0    0  501 -0.00000000000E+00  0.00000000000E+00  0.92850847745E+03  0.92850847746E+03  0.50400000000E-02 0.  1.
          1   -1    0    0  501    0  0.00000000000E+00 -0.00000000000E+00 -0.13434899890E+04  0.13434899890E+04  0.50400000000E-02 0. -1.
    8880023    1    1    2    0    0 -0.34079504616E+03 -0.88952048954E+03  0.12762189937E+03  0.11651118059E+04  0.65864270000E+03 0.  0.
    8880022    1    1    2    0    0  0.34079504616E+03  0.88952048954E+03 -0.54260341093E+03  0.11068866606E+04  0.15294330000E+03 0.  0.
<mgrwt>
<rscale>  0 0.11064090E+04</rscale>
<asrwt>0</asrwt>
<pdfrwt beam="1">  1        1 0.20669077E+00 0.11581011E+04</pdfrwt>
<pdfrwt beam="2">  1       -1 0.14284746E+00 0.11581011E+04</pdfrwt>
<totfact> 0.33007032E+00</totfact>
</mgrwt>
</event>
<event>
 4    2  0.3884658E-007  0.7159242E+03  0.7818608E-02  0.9936626E-01
         -1   -1    0    0    0  501 -0.00000000000E+00  0.00000000000E+00  0.22804453519E+03  0.22804453525E+03  0.50400000000E-02 0.  1.
          1   -1    0    0  501    0  0.00000000000E+00 -0.00000000000E+00 -0.12428482698E+04  0.12428482698E+04  0.50400000000E-02 0. -1.
    8880023    1    1    2    0    0  0.29820440408E+02 -0.27901263636E+03 -0.84999271419E+03  0.11113213443E+04  0.65864270000E+03 0. -1.
    8880022    1    1    2    0    0 -0.29820440408E+02  0.27901263636E+03 -0.16481102043E+03  0.35957146075E+03  0.15294330000E+03 0.  0.
<mgrwt>
<rscale>  0 0.58518598E+03</rscale>
<asrwt>0</asrwt>
<pdfrwt beam="1">  1        1 0.19120742E+00 0.71592424E+03</pdfrwt>
<pdfrwt beam="2">  1       -1 0.35083775E-01 0.71592424E+03</pdfrwt>
<totfact> 0.78805511E+01</totfact>
</mgrwt>
</event>
<event>
 4    2  0.3884658E-007  0.1750142E+04  0.7818608E-02  0.8750629E-01
          1   -1    0    0  501    0  0.00000000000E+00  0.00000000000E+00  0.19377112473E+04  0.19377112473E+04  0.50400000000E-02 0. -1.
         -1   -1    0    0    0  501 -0.00000000000E+00 -0.00000000000E+00 -0.19797610232E+04  0.19797610232E+04  0.50400000000E-02 0.  1.
    8880023    1    1    2    0    0 -0.16165739815E+04 -0.12599846452E+03 -0.10121802744E+04  0.20217581866E+04  0.65864270000E+03 0.  0.
    8880022    1    1    2    0    0  0.16165739815E+04  0.12599846452E+03  0.97013049861E+03  0.18957140840E+04  0.15294330000E+03 0.  0.
<mgrwt>
<rscale>  0 0.17189511E+04</rscale>
<asrwt>0</asrwt>
<pdfrwt beam="1">  1        1 0.29810942E+00 0.17501421E+04</pdfrwt>
<pdfrwt beam="2">  1       -1 0.30457862E+00 0.17501421E+04</pdfrwt>
<totfact> 0.92775410E-02</totfact>
</mgrwt>
</event>
<event>
 4    2  0.3884658E-007  0.7286630E+03  0.7818608E-02  0.9894294E-01
         -1   -1    0    0    0  501 -0.00000000000E+00  0.00000000000E+00  0.19728713514E+04  0.19728713514E+04  0.50400000000E-02 0.  1.
          1   -1    0    0  501    0  0.00000000000E+00 -0.00000000000E+00 -0.11402073312E+04  0.11402073312E+04  0.50400000000E-02 0. -1.
    8880023    1    1    2    0    0  0.29508148950E+03 -0.10033152143E+03 -0.10058633902E+04  0.12420591233E+04  0.65864270000E+03 0. -1.
    8880022    1    1    2    0    0 -0.29508148950E+03  0.10033152143E+03  0.18385274104E+04  0.18710195593E+04  0.15294330000E+03 0.  0.
<mgrwt>
<rscale>  0 0.60538608E+03</rscale>
<asrwt>0</asrwt>
<pdfrwt beam="1">  1        1 0.17541651E+00 0.72866296E+03</pdfrwt>
<pdfrwt beam="2">  1       -1 0.30351867E+00 0.72866296E+03</pdfrwt>
<totfact> 0.39689128E-01</totfact>
</mgrwt>
</event>
<event>
 4    2  0.3884658E-007  0.7481010E+03  0.7818608E-02  0.9836948E-01
         -1   -1    0    0    0  501 -0.00000000000E+00  0.00000000000E+00  0.89254810772E+03  0.89254810774E+03  0.50400000000E-02 0.  1.
          1   -1    0    0  501    0  0.00000000000E+00 -0.00000000000E+00 -0.42061445858E+03  0.42061445861E+03  0.50400000000E-02 0. -1.
    8880023    1    1    2    0    0 -0.31534055061E+03 -0.16249704657E+03  0.63213508904E+02  0.75076701244E+03  0.65864270000E+03 0. -1.
    8880022    1    1    2    0    0  0.31534055061E+03  0.16249704657E+03  0.40872014024E+03  0.56239555391E+03  0.15294330000E+03 0.  0.
<mgrwt>
<rscale>  0 0.63416842E+03</rscale>
<asrwt>0</asrwt>
<pdfrwt beam="1">  1        1 0.64709918E-01 0.74810104E+03</pdfrwt>
<pdfrwt beam="2">  1       -1 0.13731509E+00 0.74810104E+03</pdfrwt>
<totfact> 0.25338655E+01</totfact>
</mgrwt>
</event>
<event>
 4    2  0.3884658E-007  0.8894309E+03  0.7818608E-02  0.9543216E-01
         -1   -1    0    0    0  501 -0.00000000000E+00  0.00000000000E+00  0.14419515192E+04  0.14419515192E+04  0.50400000000E-02 0.  1.
          1   -1    0    0  501    0  0.00000000000E+00 -0.00000000000E+00 -0.64178410080E+03  0.64178410082E+03  0.50400000000E-02 0. -1.
    8880023    1    1    2    0    0  0.56425407331E+03  0.19721660681E+03 -0.19713155394E+03  0.91101487642E+03  0.65864270000E+03 0. -1.
    8880022    1    1    2    0    0 -0.56425407331E+03 -0.19721660681E+03  0.99729897235E+03  0.11727207436E+04  0.15294330000E+03 0.  0.
<mgrwt>
<rscale>  0 0.81171308E+03</rscale>
<asrwt>0</asrwt>
<pdfrwt beam="1">  1        1 0.98736016E-01 0.88943086E+03</pdfrwt>
<pdfrwt beam="2">  1       -1 0.22183870E+00 0.88943086E+03</pdfrwt>
<totfact> 0.33844852E+00</totfact>
</mgrwt>
</event>
<event>
 4    2  0.3884658E-007  0.8175481E+03  0.7818608E-02  0.9674064E-01
          1   -1    0    0  501    0  0.00000000000E+00  0.00000000000E+00  0.10713003080E+04  0.10713003080E+04  0.50400000000E-02 0. -1.
         -1   -1    0    0    0  501 -0.00000000000E+00 -0.00000000000E+00 -0.47149620693E+03  0.47149620696E+03  0.50400000000E-02 0.  1.
    8880023    1    1    2    0    0 -0.38298883716E+03  0.29646970399E+03  0.63277643870E+03  0.10338234677E+04  0.65864270000E+03 0. -1.
    8880022    1    1    2    0    0  0.38298883716E+03 -0.29646970399E+03 -0.32972337625E+02  0.50897304726E+03  0.15294330000E+03 0.  1.
<mgrwt>
<rscale>  0 0.72582243E+03</rscale>
<asrwt>0</asrwt>
<pdfrwt beam="1">  1        1 0.16481543E+00 0.81754813E+03</pdfrwt>
<pdfrwt beam="2">  1       -1 0.72537878E-01 0.81754813E+03</pdfrwt>
<totfact> 0.26080825E+01</totfact>
</mgrwt>
</event>
<event>
 4    2  0.3884658E-007  0.9018354E+03  0.7818608E-02  0.9523092E-01
         -1   -1    0    0    0  501 -0.00000000000E+00  0.00000000000E+00  0.48503501935E+03  0.48503501937E+03  0.50400000000E-02 0.  1.
          1   -1    0    0  501    0  0.00000000000E+00 -0.00000000000E+00 -0.15696232873E+04  0.15696232873E+04  0.50400000000E-02 0. -1.
    8880023    1    1    2    0    0  0.51119190795E+03 -0.34377264072E+03 -0.10966093794E+04  0.14198095409E+04  0.65864270000E+03 0.  0.
    8880022    1    1    2    0    0 -0.51119190795E+03  0.34377264072E+03  0.12021111415E+02  0.63484876577E+03  0.15294330000E+03 0.  0.
<mgrwt>
<rscale>  0 0.82602567E+03</rscale>
<asrwt>0</asrwt>
<pdfrwt beam="1">  1        1 0.24148050E+00 0.90183535E+03</pdfrwt>
<pdfrwt beam="2">  1       -1 0.74620773E-01 0.90183535E+03</pdfrwt>
<totfact> 0.10770516E+01</totfact>
</mgrwt>
</event>
<event>
 4    2  0.3884658E-007  0.6988441E+03  0.7818608E-02  0.1000203E+00
          1   -1    0    0  501    0  0.00000000000E+00  0.00000000000E+00  0.20742976858E+04  0.20742976858E+04  0.50400000000E-02 0. -1.
         -1   -1    0    0    0  501 -0.00000000000E+00 -0.00000000000E+00 -0.39462214765E+03  0.39462214768E+03  0.50400000000E-02 0.  1.
    8880023    1    1    2    0    0  0.17978304403E+03 -0.14916760178E+03  0.19553861246E+04  0.20765158364E+04  0.65864270000E+03 0.  0.
    8880022    1    1    2    0    0 -0.17978304403E+03  0.14916760178E+03 -0.27571058651E+03  0.39240399701E+03  0.15294330000E+03 0.  0.
<mgrwt>
<rscale>  0 0.55561301E+03</rscale>
<asrwt>0</asrwt>
<pdfrwt beam="1">  1        1 0.31912272E+00 0.69884413E+03</pdfrwt>
<pdfrwt beam="2">  1       -1 0.60711101E-01 0.69884413E+03</pdfrwt>
<totfact> 0.77227271E+00</totfact>
</mgrwt>
</event>
<event>
 4    2  0.3884658E-007  0.7321150E+03  0.7818608E-02  0.9883541E-01
         -1   -1    0    0    0  501 -0.00000000000E+00  0.00000000000E+00  0.50866692094E+03  0.50866692096E+03  0.50400000000E-02 0.  1.
          1   -1    0    0  501    0  0.00000000000E+00 -0.00000000000E+00 -0.83076745255E+03  0.83076745257E+03  0.50400000000E-02 0. -1.
    8880023    1    1    2    0    0  0.25557221761E+03  0.19200253348E+03 -0.55211564299E+03  0.91696456899E+03  0.65864270000E+03 0. -1.
    8880022    1    1    2    0    0 -0.25557221761E+03 -0.19200253348E+03  0.23001511138E+03  0.42246980455E+03  0.15294330000E+03 0.  1.
<mgrwt>
<rscale>  0 0.61065630E+03</rscale>
<asrwt>0</asrwt>
<pdfrwt beam="1">  1        1 0.12781038E+00 0.73211498E+03</pdfrwt>
<pdfrwt beam="2">  1       -1 0.78256449E-01 0.73211498E+03</pdfrwt>
<totfact> 0.34909996E+01</totfact>
</mgrwt>
</event>
<event>
 4    2  0.3884658E-007  0.8730604E+03  0.7818608E-02  0.9570741E-01
          1   -1    0    0  501    0  0.00000000000E+00  0.00000000000E+00  0.39273319462E+04  0.39273319462E+04  0.50400000000E-02 0. -1.
         -1   -1    0    0    0  501 -0.00000000000E+00 -0.00000000000E+00 -0.21008684199E+03  0.21008684205E+03  0.50400000000E-02 0.  1.
    8880023    1    1    2    0    0  0.46134985385E+03 -0.33997152639E+03  0.32966282401E+04  0.34102774500E+04  0.65864270000E+03 0.  0.
    8880022    1    1    2    0    0 -0.46134985385E+03  0.33997152639E+03  0.42061686415E+03  0.72714133827E+03  0.15294330000E+03 0.  0.
<mgrwt>
<rscale>  0 0.79263396E+03</rscale>
<asrwt>0</asrwt>
<pdfrwt beam="1">  1        1 0.60420488E+00 0.87306044E+03</pdfrwt>
<pdfrwt beam="2">  1       -1 0.32321054E-01 0.87306044E+03</pdfrwt>
<totfact> 0.10668321E+00</totfact>
</mgrwt>
</event>
<event>
 4    2  0.3884658E-007  0.7026083E+03  0.7818608E-02  0.9986548E-01
         -1   -1    0    0    0  501 -0.00000000000E+00  0.00000000000E+00  0.37499124299E+03  0.37499124302E+03  0.50400000000E-02 0.  1.
          1   -1    0    0  501    0  0.00000000000E+00 -0.00000000000E+00 -0.17842053160E+04  0.17842053160E+04  0.50400000000E-02 0. -1.
    8880023    1    1    2    0    0  0.24256822714E+03  0.31763378430E+02 -0.16435979479E+04  0.17874766230E+04  0.65864270000E+03 0. -1.
    8880022    1    1    2    0    0 -0.24256822714E+03 -0.31763378430E+02  0.23438387490E+03  0.37171993605E+03  0.15294330000E+03 0.  0.
<mgrwt>
<rscale>  0 0.56244029E+03</rscale>
<asrwt>0</asrwt>
<pdfrwt beam="1">  1        1 0.27449312E+00 0.70260833E+03</pdfrwt>
<pdfrwt beam="2">  1       -1 0.57690962E-01 0.70260833E+03</pdfrwt>
<totfact> 0.13324934E+01</totfact>
</mgrwt>
</event>
<event>
 4    2  0.3884658E-007  0.6679570E+03  0.7818608E-02  0.1017172E+00
          1   -1    0    0  501    0  0.00000000000E+00  0.00000000000E+00  0.11272751925E+04  0.11272751925E+04  0.50400000000E-02 0. -1.
         -1   -1    0    0    0  501 -0.00000000000E+00 -0.00000000000E+00 -0.22413802612E+03  0.22413802618E+03  0.50400000000E-02 0.  1.
    8880023    1    1    2    0    0  0.74895997366E+02 -0.82139336988E+02  0.94551109183E+03  0.11576518095E+04  0.65864270000E+03 0. -1.
    8880022    1    1    2    0    0 -0.74895997366E+02  0.82139336988E+02 -0.42373925446E+02  0.19376140915E+03  0.15294330000E+03 0.  0.
<mgrwt>
<rscale>  0 0.48721172E+03</rscale>
<asrwt>0</asrwt>
<pdfrwt beam="1">  1        1 0.17342695E+00 0.66795695E+03</pdfrwt>
<pdfrwt beam="2">  1       -1 0.34482773E-01 0.66795695E+03</pdfrwt>
<totfact> 0.99025987E+01</totfact>
</mgrwt>
</event>
<event>
 4    2  0.3884658E-007  0.7801737E+03  0.7818608E-02  0.9755429E-01
         -1   -1    0    0    0  501 -0.00000000000E+00  0.00000000000E+00  0.13729887894E+04  0.13729887894E+04  0.50400000000E-02 0.  1.
          1   -1    0    0  501    0  0.00000000000E+00 -0.00000000000E+00 -0.79440382256E+03  0.79440382257E+03  0.50400000000E-02 0. -1.
    8880023    1    1    2    0    0  0.41758805125E+03  0.21930638487E+02 -0.54973296172E+03  0.95439890450E+03  0.65864270000E+03 0. -1.
    8880022    1    1    2    0    0 -0.41758805125E+03 -0.21930638487E+02  0.11283179285E+04  0.12129937075E+04  0.15294330000E+03 0.  0.
<mgrwt>
<rscale>  0 0.67810316E+03</rscale>
<asrwt>0</asrwt>
<pdfrwt beam="1">  1        1 0.12221597E+00 0.78017366E+03</pdfrwt>
<pdfrwt beam="2">  1       -1 0.21122904E+00 0.78017366E+03</pdfrwt>
<totfact> 0.29206269E+00</totfact>
</mgrwt>
</event>
<event>
 4    2  0.3884658E-007  0.7150920E+03  0.7818608E-02  0.9939557E-01
         -1   -1    0    0    0  501 -0.00000000000E+00  0.00000000000E+00  0.18859741228E+03  0.18859741234E+03  0.50400000000E-02 0.  1.
          1   -1    0    0  501    0  0.00000000000E+00 -0.00000000000E+00 -0.27589765109E+04  0.27589765109E+04  0.50400000000E-02 0. -1.
    8880023    1    1    2    0    0  0.14616868722E+03 -0.23702560437E+03 -0.25278310808E+04  0.26270299963E+04  0.65864270000E+03 0. -1.
    8880022    1    1    2    0    0 -0.14616868722E+03  0.23702560437E+03 -0.42548017820E+02  0.32054392692E+03  0.15294330000E+03 0.  0.
<mgrwt>
<rscale>  0 0.58381915E+03</rscale>
<asrwt>0</asrwt>
<pdfrwt beam="1">  1        1 0.42445790E+00 0.71509204E+03</pdfrwt>
<pdfrwt beam="2">  1       -1 0.29014988E-01 0.71509204E+03</pdfrwt>
<totfact> 0.10257433E+01</totfact>
</mgrwt>
</event>
<event>
 4    2  0.3884658E-007  0.6889765E+03  0.7818608E-02  0.1004643E+00
         -1   -1    0    0    0  501 -0.00000000000E+00  0.00000000000E+00  0.36818849024E+03  0.36818849027E+03  0.50400000000E-02 0.  1.
          1   -1    0    0  501    0  0.00000000000E+00 -0.00000000000E+00 -0.10655646475E+04  0.10655646476E+04  0.50400000000E-02 0. -1.
    8880023    1    1    2    0    0 -0.20053176917E+03 -0.25795873396E+02 -0.88267778840E+03  0.11197359965E+04  0.65864270000E+03 0. -1.
    8880022    1    1    2    0    0  0.20053176917E+03  0.25795873396E+02  0.18530163109E+03  0.31401714130E+03  0.15294330000E+03 0.  0.
<mgrwt>
<rscale>  0 0.53660462E+03</rscale>
<asrwt>0</asrwt>
<pdfrwt beam="1">  1        1 0.16393302E+00 0.68897650E+03</pdfrwt>
<pdfrwt beam="2">  1       -1 0.56644384E-01 0.68897650E+03</pdfrwt>
<totfact> 0.43842209E+01</totfact>
</mgrwt>
</event>
<event>
 4    2  0.3884658E-007  0.6634346E+03  0.7818608E-02  0.1020884E+00
         -1   -1    0    0    0  501 -0.00000000000E+00  0.00000000000E+00  0.20482789446E+03  0.20482789452E+03  0.50400000000E-02 0.  1.
          1   -1    0    0  501    0  0.00000000000E+00 -0.00000000000E+00 -0.11562364106E+04  0.11562364106E+04  0.50400000000E-02 0. -1.
    8880023    1    1    2    0    0 -0.37094787335E+02  0.70422065783E+02 -0.98284832711E+03  0.11858061945E+04  0.65864270000E+03 0.  0.
    8880022    1    1    2    0    0  0.37094787335E+02 -0.70422065783E+02  0.31439810997E+02  0.17525811059E+03  0.15294330000E+03 0.  0.
<mgrwt>
<rscale>  0 0.47368800E+03</rscale>
<asrwt>0</asrwt>
<pdfrwt beam="1">  1        1 0.17788252E+00 0.66343462E+03</pdfrwt>
<pdfrwt beam="2">  1       -1 0.31511984E-01 0.66343462E+03</pdfrwt>
<totfact> 0.11056704E+02</totfact>
</mgrwt>
</event>
<event>
 4    2  0.3884658E-007  0.8150475E+03  0.7818608E-02  0.9679158E-01
         -1   -1    0    0    0  501 -0.00000000000E+00  0.00000000000E+00  0.41617920972E+03  0.41617920975E+03  0.50400000000E-02 0.  1.
          1   -1    0    0  501    0  0.00000000000E+00 -0.00000000000E+00 -0.20866147740E+04  0.20866147740E+04  0.50400000000E-02 0. -1.
    8880023    1    1    2    0    0  0.21435412873E+03 -0.42958638563E+03 -0.18056661271E+04  0.19810937696E+04  0.65864270000E+03 0. -1.
    8880022    1    1    2    0    0 -0.21435412873E+03  0.42958638563E+03  0.13523056287E+03  0.52170021408E+03  0.15294330000E+03 0.  1.
<mgrwt>
<rscale>  0 0.72271414E+03</rscale>
<asrwt>0</asrwt>
<pdfrwt beam="1">  1        1 0.32101765E+00 0.81504746E+03</pdfrwt>
<pdfrwt beam="2">  1       -1 0.64027572E-01 0.81504746E+03</pdfrwt>
<totfact> 0.66871460E+00</totfact>
</mgrwt>
</event>
<event>
 4    2  0.3884658E-007  0.6758229E+03  0.7818608E-02  0.1011792E+00
          1   -1    0    0  501    0  0.00000000000E+00  0.00000000000E+00  0.91853685802E+03  0.91853685803E+03  0.50400000000E-02 0. -1.
         -1   -1    0    0    0  501 -0.00000000000E+00 -0.00000000000E+00 -0.40960383533E+03  0.40960383536E+03  0.50400000000E-02 0.  1.
    8880023    1    1    2    0    0  0.15140988643E+03 -0.12201303865E+01  0.74691107300E+03  0.10072799013E+04  0.65864270000E+03 0. -1.
    8880022    1    1    2    0    0 -0.15140988643E+03  0.12201303865E+01 -0.23797805031E+03  0.32086079205E+03  0.15294330000E+03 0.  0.
<mgrwt>
<rscale>  0 0.50768407E+03</rscale>
<asrwt>0</asrwt>
<pdfrwt beam="1">  1        1 0.14131336E+00 0.67582294E+03</pdfrwt>
<pdfrwt beam="2">  1       -1 0.63015976E-01 0.67582294E+03</pdfrwt>
<totfact> 0.46316503E+01</totfact>
</mgrwt>
</event>
<event>
 4    2  0.3884658E-007  0.7507405E+03  0.7818608E-02  0.9829697E-01
         -1   -1    0    0    0  501 -0.00000000000E+00  0.00000000000E+00  0.92271902277E+03  0.92271902279E+03  0.50400000000E-02 0.  1.
          1   -1    0    0  501    0  0.00000000000E+00 -0.00000000000E+00 -0.80139262063E+03  0.80139262064E+03  0.50400000000E-02 0. -1.
    8880023    1    1    2    0    0 -0.35977743819E+03  0.19008208956E+02 -0.56120698652E+03  0.93731777163E+03  0.65864270000E+03 0. -1.
    8880022    1    1    2    0    0  0.35977743819E+03 -0.19008208956E+02  0.68253338867E+03  0.78679387180E+03  0.15294330000E+03 0.  0.
<mgrwt>
<rscale>  0 0.63792875E+03</rscale>
<asrwt>0</asrwt>
<pdfrwt beam="1">  1        1 0.12329117E+00 0.75074052E+03</pdfrwt>
<pdfrwt beam="2">  1       -1 0.14195677E+00 0.75074052E+03</pdfrwt>
<totfact> 0.91917860E+00</totfact>
</mgrwt>
</event>
<event>
 4    2  0.3884658E-007  0.9107093E+03  0.7818608E-02  0.9509054E-01
         -1   -1    0    0    0  501 -0.00000000000E+00  0.00000000000E+00  0.49898327433E+03  0.49898327435E+03  0.50400000000E-02 0.  1.
          1   -1    0    0  501    0  0.00000000000E+00 -0.00000000000E+00 -0.13913052670E+04  0.13913052670E+04  0.50400000000E-02 0. -1.
    8880023    1    1    2    0    0  0.21095500911E+03 -0.59251934687E+03 -0.18095820745E+03  0.92851347399E+03  0.65864270000E+03 0.  1.
    8880022    1    1    2    0    0 -0.21095500911E+03  0.59251934687E+03 -0.71136378525E+03  0.96177506739E+03  0.15294330000E+03 0. -1.
<mgrwt>
<rscale>  0 0.83619594E+03</rscale>
<asrwt>0</asrwt>
<pdfrwt beam="1">  1        1 0.21404696E+00 0.91070928E+03</pdfrwt>
<pdfrwt beam="2">  1       -1 0.76766658E-01 0.91070928E+03</pdfrwt>
<totfact> 0.13460931E+01</totfact>
</mgrwt>
</event>
<event>
 4    2  0.3884658E-007  0.6772919E+03  0.7818608E-02  0.1010899E+00
          1   -1    0    0  501    0  0.00000000000E+00  0.00000000000E+00  0.56850596394E+03  0.56850596396E+03  0.50400000000E-02 0. -1.
         -1   -1    0    0    0  501 -0.00000000000E+00 -0.00000000000E+00 -0.52778838070E+03  0.52778838073E+03  0.50400000000E-02 0.  1.
    8880023    1    1    2    0    0  0.62430250928E+02  0.14497106044E+03  0.31321387311E+03  0.74620860433E+03  0.65864270000E+03 0. -1.
    8880022    1    1    2    0    0 -0.62430250928E+02 -0.14497106044E+03 -0.27249628988E+03  0.35008574036E+03  0.15294330000E+03 0.  0.
<mgrwt>
<rscale>  0 0.51118939E+03</rscale>
<asrwt>0</asrwt>
<pdfrwt beam="1">  1        1 0.87462456E-01 0.67729192E+03</pdfrwt>
<pdfrwt beam="2">  1       -1 0.81198212E-01 0.67729192E+03</pdfrwt>
<totfact> 0.57461357E+01</totfact>
</mgrwt>
</event>
<event>
 4    2  0.3884658E-007  0.6922800E+03  0.7818608E-02  0.1003087E+00
          1   -1    0    0  501    0  0.00000000000E+00  0.00000000000E+00  0.10747789131E+04  0.10747789131E+04  0.50400000000E-02 0. -1.
         -1   -1    0    0    0  501 -0.00000000000E+00 -0.00000000000E+00 -0.32292324105E+03  0.32292324109E+03  0.50400000000E-02 0.  1.
    8880023    1    1    2    0    0  0.16451212991E+03  0.13556239019E+03  0.86844117755E+03  0.11106041994E+04  0.65864270000E+03 0. -1.
    8880022    1    1    2    0    0 -0.16451212991E+03 -0.13556239019E+03 -0.11658550555E+03  0.28709795478E+03  0.15294330000E+03 0.  0.
<mgrwt>
<rscale>  0 0.54317025E+03</rscale>
<asrwt>0</asrwt>
<pdfrwt beam="1">  1        1 0.16535060E+00 0.69228001E+03</pdfrwt>
<pdfrwt beam="2">  1       -1 0.49680498E-01 0.69228001E+03</pdfrwt>
<totfact> 0.55444938E+01</totfact>
</mgrwt>
</event>
<event>
 4    2  0.3884658E-007  0.7338815E+03  0.7818608E-02  0.9878142E-01
         -1   -1    0    0    0  501 -0.00000000000E+00  0.00000000000E+00  0.74875272037E+03  0.74875272039E+03  0.50400000000E-02 0.  1.
          1   -1    0    0  501    0  0.00000000000E+00 -0.00000000000E+00 -0.17451684241E+04  0.17451684241E+04  0.50400000000E-02 0. -1.
    8880023    1    1    2    0    0  0.31971044204E+03 -0.50567193867E+02 -0.16179760755E+04  0.17766340634E+04  0.65864270000E+03 0. -1.
    8880022    1    1    2    0    0 -0.31971044204E+03  0.50567193867E+02  0.62156037184E+03  0.71728708109E+03  0.15294330000E+03 0.  0.
<mgrwt>
<rscale>  0 0.61332402E+03</rscale>
<asrwt>0</asrwt>
<pdfrwt beam="1">  1        1 0.26848745E+00 0.73388147E+03</pdfrwt>
<pdfrwt beam="2">  1       -1 0.11519273E+00 0.73388147E+03</pdfrwt>
<totfact> 0.31899254E+00</totfact>
</mgrwt>
</event>
<event>
 4    2  0.3884658E-007  0.1171700E+04  0.7818608E-02  0.9185135E-01
         -1   -1    0    0    0  501 -0.00000000000E+00  0.00000000000E+00  0.51212441328E+03  0.51212441330E+03  0.50400000000E-02 0.  1.
          1   -1    0    0  501    0  0.00000000000E+00 -0.00000000000E+00 -0.26210888071E+04  0.26210888072E+04  0.50400000000E-02 0. -1.
    8880023    1    1    2    0    0  0.76856774575E+03  0.59023172574E+03 -0.17127252849E+04  0.20751645664E+04  0.65864270000E+03 0.  0.
    8880022    1    1    2    0    0 -0.76856774575E+03 -0.59023172574E+03 -0.39623910900E+03  0.10580486541E+04  0.15294330000E+03 0.  0.
<mgrwt>
<rscale>  0 0.11208181E+04</rscale>
<asrwt>0</asrwt>
<pdfrwt beam="1">  1        1 0.40324442E+00 0.11716997E+04</pdfrwt>
<pdfrwt beam="2">  1       -1 0.78788373E-01 0.11716997E+04</pdfrwt>
<totfact> 0.17916054E+00</totfact>
</mgrwt>
</event>
<event>
 4    2  0.3884658E-007  0.7262042E+03  0.7818608E-02  0.9902126E-01
         -1   -1    0    0    0  501 -0.00000000000E+00  0.00000000000E+00  0.13829380392E+04  0.13829380392E+04  0.50400000000E-02 0.  1.
          1   -1    0    0  501    0  0.00000000000E+00 -0.00000000000E+00 -0.51081356052E+03  0.51081356054E+03  0.50400000000E-02 0. -1.
    8880023    1    1    2    0    0 -0.30562191551E+03 -0.12554207839E+02 -0.21236513486E+03  0.75661847727E+03  0.65864270000E+03 0. -1.
    8880022    1    1    2    0    0  0.30562191551E+03  0.12554207839E+02  0.10844896136E+04  0.11371331225E+04  0.15294330000E+03 0.  0.
<mgrwt>
<rscale>  0 0.60158357E+03</rscale>
<asrwt>0</asrwt>
<pdfrwt beam="1">  1        1 0.78586701E-01 0.72620422E+03</pdfrwt>
<pdfrwt beam="2">  1       -1 0.21275970E+00 0.72620422E+03</pdfrwt>
<totfact> 0.55081513E+00</totfact>
</mgrwt>
</event>
<event>
 4    2  0.3884658E-007  0.6782748E+03  0.7818608E-02  0.1010317E+00
         -1   -1    0    0    0  501 -0.00000000000E+00  0.00000000000E+00  0.63705349914E+03  0.63705349916E+03  0.50400000000E-02 0.  1.
          1   -1    0    0  501    0  0.00000000000E+00 -0.00000000000E+00 -0.16520870124E+04  0.16520870124E+04  0.50400000000E-02 0. -1.
    8880023    1    1    2    0    0 -0.12398182689E+03 -0.10428361058E+03 -0.15596283711E+04  0.17007343788E+04  0.65864270000E+03 0. -1.
    8880022    1    1    2    0    0  0.12398182689E+03  0.10428361058E+03  0.54459485789E+03  0.58840613277E+03  0.15294330000E+03 0.  0.
<mgrwt>
<rscale>  0 0.51348919E+03</rscale>
<asrwt>0</asrwt>
<pdfrwt beam="1">  1        1 0.25416723E+00 0.67827485E+03</pdfrwt>
<pdfrwt beam="2">  1       -1 0.98008232E-01 0.67827485E+03</pdfrwt>
<totfact> 0.54216193E+00</totfact>
</mgrwt>
</event>
<event>
 4    2  0.3884658E-007  0.6898390E+03  0.7818608E-02  0.1004229E+00
         -1   -1    0    0    0  501 -0.00000000000E+00  0.00000000000E+00  0.12463436988E+03  0.12463436998E+03  0.50400000000E-02 0.  1.
          1   -1    0    0  501    0  0.00000000000E+00 -0.00000000000E+00 -0.22723019163E+04  0.22723019163E+04  0.50400000000E-02 0. -1.
    8880023    1    1    2    0    0  0.96145305266E+02 -0.18117319582E+03 -0.19649941545E+04  0.20825656965E+04  0.65864270000E+03 0.  0.
    8880022    1    1    2    0    0 -0.96145305266E+02  0.18117319582E+03 -0.18267339190E+03  0.31437058980E+03  0.15294330000E+03 0. -1.
<mgrwt>
<rscale>  0 0.53834072E+03</rscale>
<asrwt>0</asrwt>
<pdfrwt beam="1">  1        1 0.34958488E+00 0.68983901E+03</pdfrwt>
<pdfrwt beam="2">  1       -1 0.19174520E-01 0.68983901E+03</pdfrwt>
<totfact> 0.44660600E+01</totfact>
</mgrwt>
</event>
<event>
 4    2  0.3884658E-007  0.9199692E+03  0.7818608E-02  0.9494706E-01
          1   -1    0    0  501    0  0.00000000000E+00  0.00000000000E+00  0.18219474507E+04  0.18219474507E+04  0.50400000000E-02 0. -1.
         -1   -1    0    0    0  501 -0.00000000000E+00 -0.00000000000E+00 -0.34288436378E+03  0.34288436382E+03  0.50400000000E-02 0.  1.
    8880023    1    1    2    0    0 -0.15281153395E+03  0.62384437691E+03  0.88956104529E+03  0.12797117766E+04  0.65864270000E+03 0. -1.
    8880022    1    1    2    0    0  0.15281153395E+03 -0.62384437691E+03  0.58950204160E+03  0.88512003795E+03  0.15294330000E+03 0.  1.
<mgrwt>
<rscale>  0 0.84675238E+03</rscale>
<asrwt>0</asrwt>
<pdfrwt beam="1">  1        1 0.28029962E+00 0.91996923E+03</pdfrwt>
<pdfrwt beam="2">  1       -1 0.52751439E-01 0.91996923E+03</pdfrwt>
<totfact> 0.14514598E+01</totfact>
</mgrwt>
</event>
<event>
 4    2  0.3884658E-007  0.9468912E+03  0.7818608E-02  0.9454601E-01
          1   -1    0    0  501    0  0.00000000000E+00  0.00000000000E+00  0.34240765010E+04  0.34240765011E+04  0.50400000000E-02 0. -1.
         -1   -1    0    0    0  501 -0.00000000000E+00 -0.00000000000E+00 -0.44315680243E+03  0.44315680246E+03  0.50400000000E-02 0.  1.
    8880023    1    1    2    0    0 -0.68028824801E+03 -0.82523382551E+00  0.30238548216E+04  0.31686433958E+04  0.65864270000E+03 0. -1.
    8880022    1    1    2    0    0  0.68028824801E+03  0.82523382551E+00 -0.42935122954E+02  0.69858990773E+03  0.15294330000E+03 0.  0.
<mgrwt>
<rscale>  0 0.87715269E+03</rscale>
<asrwt>0</asrwt>
<pdfrwt beam="1">  1        1 0.52678099E+00 0.94689122E+03</pdfrwt>
<pdfrwt beam="2">  1       -1 0.68177971E-01 0.94689122E+03</pdfrwt>
<totfact> 0.65406856E-01</totfact>
</mgrwt>
</event>
<event>
 4    2  0.3884658E-007  0.6817453E+03  0.7818608E-02  0.1008353E+00
          1   -1    0    0  501    0  0.00000000000E+00  0.00000000000E+00  0.30950770600E+03  0.30950770604E+03  0.50400000000E-02 0. -1.
         -1   -1    0    0    0  501 -0.00000000000E+00 -0.00000000000E+00 -0.78589471065E+03  0.78589471067E+03  0.50400000000E-02 0.  1.
    8880023    1    1    2    0    0  0.33969562604E+02  0.17266310184E+03 -0.15634741446E+03  0.69944349178E+03  0.65864270000E+03 0.  0.
    8880022    1    1    2    0    0 -0.33969562604E+02 -0.17266310184E+03 -0.32003959020E+03  0.39595892493E+03  0.15294330000E+03 0.  0.
<mgrwt>
<rscale>  0 0.52134437E+03</rscale>
<asrwt>0</asrwt>
<pdfrwt beam="1">  1        1 0.47616570E-01 0.68174532E+03</pdfrwt>
<pdfrwt beam="2">  1       -1 0.12090688E+00 0.68174532E+03</pdfrwt>
<totfact> 0.52457993E+01</totfact>
</mgrwt>
</event>
<event>
 4    2  0.3884658E-007  0.7037076E+03  0.7818608E-02  0.9982155E-01
         -1   -1    0    0    0  501 -0.00000000000E+00  0.00000000000E+00  0.27317068531E+03  0.27317068535E+03  0.50400000000E-02 0.  1.
          1   -1    0    0  501    0  0.00000000000E+00 -0.00000000000E+00 -0.17207794780E+04  0.17207794780E+04  0.50400000000E-02 0. -1.
    8880023    1    1    2    0    0 -0.22996844511E+03  0.92242795135E+02 -0.15361023868E+04  0.16896197702E+04  0.65864270000E+03 0. -1.
    8880022    1    1    2    0    0  0.22996844511E+03 -0.92242795135E+02  0.88493594050E+02  0.30433039317E+03  0.15294330000E+03 0.  0.
<mgrwt>
<rscale>  0 0.56439691E+03</rscale>
<asrwt>0</asrwt>
<pdfrwt beam="1">  1        1 0.26473530E+00 0.70370763E+03</pdfrwt>
<pdfrwt beam="2">  1       -1 0.42026260E-01 0.70370763E+03</pdfrwt>
<totfact> 0.26720933E+01</totfact>
</mgrwt>
</event>
<event>
 4    2  0.3884658E-007  0.7963121E+03  0.7818608E-02  0.9718827E-01
         -1   -1    0    0    0  501 -0.00000000000E+00  0.00000000000E+00  0.16738628287E+04  0.16738628287E+04  0.50400000000E-02 0.  1.
          1   -1    0    0  501    0  0.00000000000E+00 -0.00000000000E+00 -0.35184423877E+03  0.35184423880E+03  0.50400000000E-02 0. -1.
    8880023    1    1    2    0    0  0.42859678063E+03 -0.12887054351E+03  0.21948070284E+03  0.82600532839E+03  0.65864270000E+03 0. -1.
    8880022    1    1    2    0    0 -0.42859678063E+03  0.12887054351E+03  0.11025378871E+04  0.11997017391E+04  0.15294330000E+03 0.  0.
<mgrwt>
<rscale>  0 0.69906798E+03</rscale>
<asrwt>0</asrwt>
<pdfrwt beam="1">  1        1 0.54129882E-01 0.79631214E+03</pdfrwt>
<pdfrwt beam="2">  1       -1 0.25751736E+00 0.79631214E+03</pdfrwt>
<totfact> 0.45811028E+00</totfact>
</mgrwt>
</event>
<event>
 4    2  0.3884658E-007  0.8657844E+03  0.7818608E-02  0.9583356E-01
          1   -1    0    0  501    0  0.00000000000E+00  0.00000000000E+00  0.14421874260E+04  0.14421874260E+04  0.50400000000E-02 0. -1.
         -1   -1    0    0    0  501 -0.00000000000E+00 -0.00000000000E+00 -0.64908894278E+03  0.64908894280E+03  0.50400000000E-02 0.  1.
    8880023    1    1    2    0    0  0.53495882575E+03  0.17202171856E+03  0.11260718306E+04  0.14204296501E+04  0.65864270000E+03 0.  0.
    8880022    1    1    2    0    0 -0.53495882575E+03 -0.17202171856E+03 -0.33297334739E+03  0.67084671870E+03  0.15294330000E+03 0. -1.
<mgrwt>
<rscale>  0 0.78407670E+03</rscale>
<asrwt>0</asrwt>
<pdfrwt beam="1">  1        1 0.22187498E+00 0.86578440E+03</pdfrwt>
<pdfrwt beam="2">  1       -1 0.99859839E-01 0.86578440E+03</pdfrwt>
<totfact> 0.70137759E+00</totfact>
</mgrwt>
</event>
<event>
 4    2  0.3884658E-007  0.7006626E+03  0.7818608E-02  0.9994464E-01
          1   -1    0    0  501    0  0.00000000000E+00  0.00000000000E+00  0.94810220386E+03  0.94810220388E+03  0.50400000000E-02 0. -1.
         -1   -1    0    0    0  501 -0.00000000000E+00 -0.00000000000E+00 -0.41127525999E+03  0.41127526002E+03  0.50400000000E-02 0.  1.
    8880023    1    1    2    0    0  0.15662935082E+03  0.18051339724E+03  0.73331962640E+03  0.10142414510E+04  0.65864270000E+03 0. -1.
    8880022    1    1    2    0    0 -0.15662935082E+03 -0.18051339724E+03 -0.19649268253E+03  0.34513601293E+03  0.15294330000E+03 0.  0.
<mgrwt>
<rscale>  0 0.55893664E+03</rscale>
<asrwt>0</asrwt>
<pdfrwt beam="1">  1        1 0.14586188E+00 0.70066258E+03</pdfrwt>
<pdfrwt beam="2">  1       -1 0.63273118E-01 0.70066258E+03</pdfrwt>
<totfact> 0.43396174E+01</totfact>
</mgrwt>
</event>
<event>
 4    2  0.3884658E-007  0.1841941E+04  0.7818608E-02  0.8699684E-01
         -1   -1    0    0    0  501 -0.00000000000E+00  0.00000000000E+00  0.19126832722E+04  0.19126832722E+04  0.50400000000E-02 0.  1.
          1   -1    0    0  501    0  0.00000000000E+00 -0.00000000000E+00 -0.20778797537E+04  0.20778797537E+04  0.50400000000E-02 0. -1.
    8880023    1    1    2    0    0 -0.54199800506E+03 -0.16325365058E+04 -0.97399538813E+03  0.20836061295E+04  0.65864270000E+03 0.  0.
    8880022    1    1    2    0    0  0.54199800506E+03  0.16325365058E+04  0.80879890661E+03  0.19069568964E+04  0.15294330000E+03 0.  0.
<mgrwt>
<rscale>  0 0.18124927E+04</rscale>
<asrwt>0</asrwt>
<pdfrwt beam="1">  1        1 0.31967381E+00 0.18419412E+04</pdfrwt>
<pdfrwt beam="2">  1       -1 0.29425897E+00 0.18419412E+04</pdfrwt>
<totfact> 0.86000498E-02</totfact>
</mgrwt>
</event>
<event>
 4    2  0.3884658E-007  0.7238894E+03  0.7818608E-02  0.9909639E-01
          1   -1    0    0  501    0  0.00000000000E+00  0.00000000000E+00  0.20033747287E+04  0.20033747287E+04  0.50400000000E-02 0. -1.
         -1   -1    0    0    0  501 -0.00000000000E+00 -0.00000000000E+00 -0.15793126124E+03  0.15793126132E+03  0.50400000000E-02 0.  1.
    8880023    1    1    2    0    0  0.29999142613E+03  0.14520569289E+02  0.15594647908E+04  0.17192865796E+04  0.65864270000E+03 0. -1.
    8880022    1    1    2    0    0 -0.29999142613E+03 -0.14520569289E+02  0.28597867661E+03  0.44201941041E+03  0.15294330000E+03 0.  1.
<mgrwt>
<rscale>  0 0.59796423E+03</rscale>
<asrwt>0</asrwt>
<pdfrwt beam="1">  1        1 0.30821150E+00 0.72388943E+03</pdfrwt>
<pdfrwt beam="2">  1       -1 0.24297117E-01 0.72388943E+03</pdfrwt>
<totfact> 0.45236510E+01</totfact>
</mgrwt>
</event>
<event>
 4    2  0.3884658E-007  0.9459136E+03  0.7818608E-02  0.9456018E-01
          1   -1    0    0  501    0  0.00000000000E+00  0.00000000000E+00  0.25918610527E+03  0.25918610532E+03  0.50400000000E-02 0. -1.
         -1   -1    0    0    0  501 -0.00000000000E+00 -0.00000000000E+00 -0.35679850646E+04  0.35679850646E+04  0.50400000000E-02 0.  1.
    8880023    1    1    2    0    0  0.34408825407E+03  0.58527388152E+03 -0.84977144535E+03  0.12715596559E+04  0.65864270000E+03 0.  0.
    8880022    1    1    2    0    0 -0.34408825407E+03 -0.58527388152E+03 -0.24590275140E+04  0.25556115140E+04  0.15294330000E+03 0.  0.
<mgrwt>
<rscale>  0 0.87605565E+03</rscale>
<asrwt>0</asrwt>
<pdfrwt beam="1">  1        1 0.39874788E-01 0.94591355E+03</pdfrwt>
<pdfrwt beam="2">  1       -1 0.54892074E+00 0.94591355E+03</pdfrwt>
<totfact> 0.81532848E-02</totfact>
</mgrwt>
</event>
<event>
 4    2  0.3884658E-007  0.6872566E+03  0.7818608E-02  0.1005485E+00
         -1   -1    0    0    0  501 -0.00000000000E+00  0.00000000000E+00  0.12339767366E+04  0.12339767366E+04  0.50400000000E-02 0.  1.
          1   -1    0    0  501    0  0.00000000000E+00 -0.00000000000E+00 -0.28761569879E+03  0.28761569884E+03  0.50400000000E-02 0. -1.
    8880023    1    1    2    0    0  0.39886513064E+02 -0.19214708872E+03  0.17229685103E+03  0.70852512218E+03  0.65864270000E+03 0. -1.
    8880022    1    1    2    0    0 -0.39886513064E+02  0.19214708872E+03  0.77406418675E+03  0.81306731323E+03  0.15294330000E+03 0.  0.
<mgrwt>
<rscale>  0 0.53309331E+03</rscale>
<asrwt>0</asrwt>
<pdfrwt beam="1">  1        1 0.44248570E-01 0.68725661E+03</pdfrwt>
<pdfrwt beam="2">  1       -1 0.18984257E+00 0.68725661E+03</pdfrwt>
<totfact> 0.16976160E+01</totfact>
</mgrwt>
</event>
<event>
 4    2  0.3884658E-007  0.6666092E+03  0.7818608E-02  0.1018220E+00
          1   -1    0    0  501    0  0.00000000000E+00  0.00000000000E+00  0.71819890938E+03  0.71819890940E+03  0.50400000000E-02 0. -1.
         -1   -1    0    0    0  501 -0.00000000000E+00 -0.00000000000E+00 -0.35116074095E+03  0.35116074099E+03  0.50400000000E-02 0.  1.
    8880023    1    1    2    0    0 -0.94180206803E+02  0.41082326108E+02  0.50738741361E+03  0.83774092811E+03  0.65864270000E+03 0. -1.
    8880022    1    1    2    0    0  0.94180206803E+02 -0.41082326108E+02 -0.14034924518E+03  0.23161872228E+03  0.15294330000E+03 0.  0.
<mgrwt>
<rscale>  0 0.48334517E+03</rscale>
<asrwt>0</asrwt>
<pdfrwt beam="1">  1        1 0.11049214E+00 0.66660924E+03</pdfrwt>
<pdfrwt beam="2">  1       -1 0.54024730E-01 0.66660924E+03</pdfrwt>
<totfact> 0.92931940E+01</totfact>
</mgrwt>
</event>
<event>
 4    2  0.3884658E-007  0.7728740E+03  0.7818608E-02  0.9772850E-01
          1   -1    0    0  501    0  0.00000000000E+00  0.00000000000E+00  0.87725459029E+03  0.87725459031E+03  0.50400000000E-02 0. -1.
         -1   -1    0    0    0  501 -0.00000000000E+00 -0.00000000000E+00 -0.68425064596E+03  0.68425064598E+03  0.50400000000E-02 0.  1.
    8880023    1    1    2    0    0  0.38899885884E+03  0.11047161537E+03  0.59172140618E+03  0.97337994574E+03  0.65864270000E+03 0. -1.
    8880022    1    1    2    0    0 -0.38899885884E+03 -0.11047161537E+03 -0.39871746185E+03  0.58812529054E+03  0.15294330000E+03 0.  0.
<mgrwt>
<rscale>  0 0.66840129E+03</rscale>
<asrwt>0</asrwt>
<pdfrwt beam="1">  1        1 0.13496224E+00 0.77287405E+03</pdfrwt>
<pdfrwt beam="2">  1       -1 0.10526933E+00 0.77287405E+03</pdfrwt>
<totfact> 0.16502451E+01</totfact>
</mgrwt>
</event>
<event>
 4    2  0.3884658E-007  0.8014861E+03  0.7818608E-02  0.9707592E-01
         -1   -1    0    0    0  501 -0.00000000000E+00  0.00000000000E+00  0.52307793190E+03  0.52307793193E+03  0.50400000000E-02 0.  1.
          1   -1    0    0  501    0  0.00000000000E+00 -0.00000000000E+00 -0.99328731781E+03  0.99328731782E+03  0.50400000000E-02 0. -1.
    8880023    1    1    2    0    0 -0.43321842865E+03 -0.14453912875E+03 -0.61854947947E+03  0.10124146539E+04  0.65864270000E+03 0.  0.
    8880022    1    1    2    0    0  0.43321842865E+03  0.14453912875E+03  0.14834009357E+03  0.50395059583E+03  0.15294330000E+03 0.  0.
<mgrwt>
<rscale>  0 0.70566563E+03</rscale>
<asrwt>0</asrwt>
<pdfrwt beam="1">  1        1 0.15281343E+00 0.80148610E+03</pdfrwt>
<pdfrwt beam="2">  1       -1 0.80473528E-01 0.80148610E+03</pdfrwt>
<totfact> 0.24115531E+01</totfact>
</mgrwt>
</event>
<event>
 4    2  0.3884658E-007  0.7178691E+03  0.7818608E-02  0.9929863E-01
         -1   -1    0    0    0  501 -0.00000000000E+00  0.00000000000E+00  0.10290052761E+04  0.10290052761E+04  0.50400000000E-02 0.  1.
          1   -1    0    0  501    0  0.00000000000E+00 -0.00000000000E+00 -0.45693160498E+03  0.45693160501E+03  0.50400000000E-02 0. -1.
    8880023    1    1    2    0    0 -0.21097735120E+03 -0.19239113438E+03 -0.11435777173E+03  0.72692069549E+03  0.65864270000E+03 0. -1.
    8880022    1    1    2    0    0  0.21097735120E+03  0.19239113438E+03  0.68643144285E+03  0.75901618564E+03  0.15294330000E+03 0.  0.
<mgrwt>
<rscale>  0 0.58835560E+03</rscale>
<asrwt>0</asrwt>
<pdfrwt beam="1">  1        1 0.70297170E-01 0.71786907E+03</pdfrwt>
<pdfrwt beam="2">  1       -1 0.15830850E+00 0.71786907E+03</pdfrwt>
<totfact> 0.15569891E+01</totfact>
</mgrwt>
</event>
<event>
 4    2  0.4104195E-007  0.8112538E+03  0.7818608E-02  0.9686971E-01
         -1   -1    0    0    0  501 -0.00000000000E+00  0.00000000000E+00  0.98064324345E+03  0.98064324346E+03  0.50400000000E-02 0.  1.
          1   -1    0    0  501    0  0.00000000000E+00 -0.00000000000E+00 -0.23177122489E+04  0.23177122489E+04  0.50400000000E-02 0. -1.
    8880023    1    1    2    0    0  0.18469086400E+03  0.43613270247E+03 -0.21763284329E+04  0.23226144974E+04  0.65864270000E+03 0.  0.
    8880022    1    1    2    0    0 -0.18469086400E+03 -0.43613270247E+03  0.83925942753E+03  0.97574099489E+03  0.15294330000E+03 0.  1.
<mgrwt>
<rscale>  0 0.71797840E+03</rscale>
<asrwt>0</asrwt>
<pdfrwt beam="1">  1        1 0.35657111E+00 0.81125376E+03</pdfrwt>
<pdfrwt beam="2">  1       -1 0.15086819E+00 0.81125376E+03</pdfrwt>
<totfact> 0.65419869E-01</totfact>
</mgrwt>
</event>
<event>
 4    2  0.3884658E-007  0.7057834E+03  0.7818608E-02  0.9974005E-01
         -1   -1    0    0    0  501 -0.00000000000E+00  0.00000000000E+00  0.96111500810E+03  0.96111500812E+03  0.50400000000E-02 0.  1.
          1   -1    0    0  501    0  0.00000000000E+00 -0.00000000000E+00 -0.29582401844E+03  0.29582401848E+03  0.50400000000E-02 0. -1.
    8880023    1    1    2    0    0 -0.78280284681E+02 -0.24123060538E+03  0.25396573770E+03  0.75008586851E+03  0.65864270000E+03 0. -1.
    8880022    1    1    2    0    0  0.78280284681E+02  0.24123060538E+03  0.41132525197E+03  0.50685315809E+03  0.15294330000E+03 0.  0.
<mgrwt>
<rscale>  0 0.56804893E+03</rscale>
<asrwt>0</asrwt>
<pdfrwt beam="1">  1        1 0.45511388E-01 0.70578340E+03</pdfrwt>
<pdfrwt beam="2">  1       -1 0.14786384E+00 0.70578340E+03</pdfrwt>
<totfact> 0.33238149E+01</totfact>
</mgrwt>
</event>
<event>
 4    2  0.3884658E-007  0.6766843E+03  0.7818608E-02  0.1011265E+00
         -1   -1    0    0    0  501 -0.00000000000E+00  0.00000000000E+00  0.70280627431E+03  0.70280627433E+03  0.50400000000E-02 0.  1.
          1   -1    0    0  501    0  0.00000000000E+00 -0.00000000000E+00 -0.45798603946E+03  0.45798603949E+03  0.50400000000E-02 0. -1.
    8880023    1    1    2    0    0  0.11628641257E+03 -0.10280540158E+03 -0.16511730271E+03  0.69653816138E+03  0.65864270000E+03 0.  0.
    8880022    1    1    2    0    0 -0.11628641257E+03  0.10280540158E+03  0.40993753756E+03  0.46425415244E+03  0.15294330000E+03 0.  1.
<mgrwt>
<rscale>  0 0.50974974E+03</rscale>
<asrwt>0</asrwt>
<pdfrwt beam="1">  1        1 0.70459391E-01 0.67668433E+03</pdfrwt>
<pdfrwt beam="2">  1       -1 0.10812404E+00 0.67668433E+03</pdfrwt>
<totfact> 0.40893800E+01</totfact>
</mgrwt>
</event>
<event>
 4    2  0.4194175E-007  0.9725791E+03  0.7818608E-02  0.9418346E-01
         -1   -1    0    0    0  501 -0.00000000000E+00  0.00000000000E+00  0.10905373217E+04  0.10905373217E+04  0.50400000000E-02 0.  1.
          1   -1    0    0  501    0  0.00000000000E+00 -0.00000000000E+00 -0.18791191661E+04  0.18791191662E+04  0.50400000000E-02 0. -1.
    8880023    1    1    2    0    0  0.39640378905E+03 -0.59578852840E+03 -0.16028760520E+04  0.18748658029E+04  0.65864270000E+03 0.  0.
    8880022    1    1    2    0    0 -0.39640378905E+03  0.59578852840E+03  0.81429420751E+03  0.10947906850E+04  0.15294330000E+03 0.  0.
<mgrwt>
<rscale>  0 0.90581141E+03</rscale>
<asrwt>0</asrwt>
<pdfrwt beam="1">  1        1 0.28909525E+00 0.97257912E+03</pdfrwt>
<pdfrwt beam="2">  1       -1 0.16777497E+00 0.97257912E+03</pdfrwt>
<totfact> 0.93310089E-01</totfact>
</mgrwt>
</event>
<event>
 4    2  0.3884658E-007  0.7325413E+03  0.7818608E-02  0.9882232E-01
         -1   -1    0    0    0  501 -0.00000000000E+00  0.00000000000E+00  0.20822342247E+03  0.20822342253E+03  0.50400000000E-02 0.  1.
          1   -1    0    0  501    0  0.00000000000E+00 -0.00000000000E+00 -0.29692072120E+04  0.29692072120E+04  0.50400000000E-02 0. -1.
    8880023    1    1    2    0    0  0.23289021249E+03 -0.22038311704E+03 -0.27234055824E+04  0.28202047340E+04  0.65864270000E+03 0. -1.
    8880022    1    1    2    0    0 -0.23289021249E+03  0.22038311704E+03 -0.37578207171E+02  0.35722590055E+03  0.15294330000E+03 0.  0.
<mgrwt>
<rscale>  0 0.61130190E+03</rscale>
<asrwt>0</asrwt>
<pdfrwt beam="1">  1        1 0.45680108E+00 0.73254131E+03</pdfrwt>
<pdfrwt beam="2">  1       -1 0.32034375E-01 0.73254131E+03</pdfrwt>
<totfact> 0.61137345E+00</totfact>
</mgrwt>
</event>
<event>
 4    2  0.3884658E-007  0.2496124E+04  0.7818608E-02  0.8411963E-01
          1   -1    0    0  501    0  0.00000000000E+00  0.00000000000E+00  0.18997598711E+04  0.18997598711E+04  0.50400000000E-02 0. -1.
         -1   -1    0    0    0  501 -0.00000000000E+00 -0.00000000000E+00 -0.57752294459E+04  0.57752294459E+04  0.50400000000E-02 0.  1.
    8880023    1    1    2    0    0 -0.59306653167E+03 -0.23334731497E+04  0.62098937402E+03  0.25722097233E+04  0.65864270000E+03 0.  0.
    8880022    1    1    2    0    0  0.59306653167E+03  0.23334731497E+04 -0.44964589488E+04  0.51027795938E+04  0.15294330000E+03 0.  0.
<mgrwt>
<rscale>  0 0.24749533E+04</rscale>
<asrwt>0</asrwt>
<pdfrwt beam="1">  1        1 0.29227075E+00 0.24961240E+04</pdfrwt>
<pdfrwt beam="2">  1       -1 0.88849683E+00 0.24961240E+04</pdfrwt>
<totfact> 0.33943020E-05</totfact>
</mgrwt>
</event>
<event>
 4    2  0.3884658E-007  0.7626253E+03  0.7818608E-02  0.9798358E-01
         -1   -1    0    0    0  501 -0.00000000000E+00  0.00000000000E+00  0.40470974658E+03  0.40470974661E+03  0.50400000000E-02 0.  1.
          1   -1    0    0  501    0  0.00000000000E+00 -0.00000000000E+00 -0.15763530457E+04  0.15763530457E+04  0.50400000000E-02 0. -1.
    8880023    1    1    2    0    0  0.32477817694E+03  0.20568503252E+03 -0.13340042150E+04  0.15366081637E+04  0.65864270000E+03 0. -1.
    8880022    1    1    2    0    0 -0.32477817694E+03 -0.20568503252E+03  0.16236091594E+03  0.44445462857E+03  0.15294330000E+03 0.  0.
<mgrwt>
<rscale>  0 0.65450759E+03</rscale>
<asrwt>0</asrwt>
<pdfrwt beam="1">  1        1 0.24251585E+00 0.76262534E+03</pdfrwt>
<pdfrwt beam="2">  1       -1 0.62263039E-01 0.76262534E+03</pdfrwt>
<totfact> 0.15690691E+01</totfact>
</mgrwt>
</event>
<event>
 4    2  0.3884658E-007  0.8275672E+03  0.7818608E-02  0.9654085E-01
          1   -1    0    0  501    0  0.00000000000E+00  0.00000000000E+00  0.19304008886E+04  0.19304008886E+04  0.50400000000E-02 0. -1.
         -1   -1    0    0    0  501 -0.00000000000E+00 -0.00000000000E+00 -0.29622423506E+03  0.29622423511E+03  0.50400000000E-02 0.  1.
    8880023    1    1    2    0    0 -0.30249913079E+03  0.39943899036E+03  0.47411380337E+03  0.95375643429E+03  0.65864270000E+03 0.  0.
    8880022    1    1    2    0    0  0.30249913079E+03 -0.39943899036E+03  0.11600628502E+04  0.12728686894E+04  0.15294330000E+03 0.  0.
<mgrwt>
<rscale>  0 0.73817635E+03</rscale>
<asrwt>0</asrwt>
<pdfrwt beam="1">  1        1 0.29698475E+00 0.82756718E+03</pdfrwt>
<pdfrwt beam="2">  1       -1 0.45572960E-01 0.82756718E+03</pdfrwt>
<totfact> 0.16373984E+01</totfact>
</mgrwt>
</event>
<event>
 4    2  0.3884658E-007  0.8256874E+03  0.7818608E-02  0.9657782E-01
         -1   -1    0    0    0  501 -0.00000000000E+00  0.00000000000E+00  0.90623961884E+03  0.90623961885E+03  0.50400000000E-02 0.  1.
          1   -1    0    0  501    0  0.00000000000E+00 -0.00000000000E+00 -0.53810176085E+03  0.53810176088E+03  0.50400000000E-02 0. -1.
    8880023    1    1    2    0    0  0.49478956303E+03  0.55971468190E+02  0.40977012367E+03  0.92177615366E+03  0.65864270000E+03 0.  1.
    8880022    1    1    2    0    0 -0.49478956303E+03 -0.55971468190E+02 -0.41632265685E+02  0.52256522607E+03  0.15294330000E+03 0. -1.
<mgrwt>
<rscale>  0 0.73587020E+03</rscale>
<asrwt>0</asrwt>
<pdfrwt beam="1">  1        1 0.82784887E-01 0.82568742E+03</pdfrwt>
<pdfrwt beam="2">  1       -1 0.13942148E+00 0.82568742E+03</pdfrwt>
<totfact> 0.17269573E+01</totfact>
</mgrwt>
</event>
<event>
 4    2  0.3884658E-007  0.7634477E+03  0.7818608E-02  0.9796262E-01
          1   -1    0    0  501    0  0.00000000000E+00  0.00000000000E+00  0.72071174048E+03  0.72071174050E+03  0.50400000000E-02 0. -1.
         -1   -1    0    0    0  501 -0.00000000000E+00 -0.00000000000E+00 -0.96161092430E+03  0.96161092431E+03  0.50400000000E-02 0.  1.
    8880023    1    1    2    0    0  0.16331126695E+03 -0.34981664131E+03  0.44267594513E+03  0.88250464651E+03  0.65864270000E+03 0.  0.
    8880022    1    1    2    0    0 -0.16331126695E+03  0.34981664131E+03 -0.68357512895E+03  0.79981801830E+03  0.15294330000E+03 0.  0.
<mgrwt>
<rscale>  0 0.65563529E+03</rscale>
<asrwt>0</asrwt>
<pdfrwt beam="1">  1        1 0.11087873E+00 0.76344774E+03</pdfrwt>
<pdfrwt beam="2">  1       -1 0.14794014E+00 0.76344774E+03</pdfrwt>
<totfact> 0.97105071E+00</totfact>
</mgrwt>
</event>
<event>
 4    2  0.3884658E-007  0.8993823E+03  0.7818608E-02  0.9527024E-01
         -1   -1    0    0    0  501 -0.00000000000E+00  0.00000000000E+00  0.51416897994E+03  0.51416897997E+03  0.50400000000E-02 0.  1.
          1   -1    0    0  501    0  0.00000000000E+00 -0.00000000000E+00 -0.14648938080E+04  0.14648938080E+04  0.50400000000E-02 0. -1.
    8880023    1    1    2    0    0  0.59671577486E+03  0.13787187460E+03 -0.10011531349E+04  0.13458068864E+04  0.65864270000E+03 0.  0.
    8880022    1    1    2    0    0 -0.59671577486E+03 -0.13787187460E+03  0.50428306779E+02  0.63325590161E+03  0.15294330000E+03 0.  0.
<mgrwt>
<rscale>  0 0.82320447E+03</rscale>
<asrwt>0</asrwt>
<pdfrwt beam="1">  1        1 0.22536828E+00 0.89938233E+03</pdfrwt>
<pdfrwt beam="2">  1       -1 0.79102921E-01 0.89938233E+03</pdfrwt>
<totfact> 0.11245375E+01</totfact>
</mgrwt>
</event>
<event>
 4    2  0.3884658E-007  0.7052975E+03  0.7818608E-02  0.9975896E-01
         -1   -1    0    0    0  501 -0.00000000000E+00  0.00000000000E+00  0.22137111462E+03  0.22137111468E+03  0.50400000000E-02 0.  1.
          1   -1    0    0  501    0  0.00000000000E+00 -0.00000000000E+00 -0.11300323324E+04  0.11300323324E+04  0.50400000000E-02 0. -1.
    8880023    1    1    2    0    0  0.25148656724E+03 -0.19718327561E+02 -0.64392788330E+03  0.95503279058E+03  0.65864270000E+03 0. -1.
    8880022    1    1    2    0    0 -0.25148656724E+03  0.19718327561E+02 -0.26473333451E+03  0.39637065653E+03  0.15294330000E+03 0.  1.
<mgrwt>
<rscale>  0 0.56719885E+03</rscale>
<asrwt>0</asrwt>
<pdfrwt beam="1">  1        1 0.17385112E+00 0.70529746E+03</pdfrwt>
<pdfrwt beam="2">  1       -1 0.34057095E-01 0.70529746E+03</pdfrwt>
<totfact> 0.10041298E+02</totfact>
</mgrwt>
</event>
<event>
 4    2  0.3884658E-007  0.7230788E+03  0.7818608E-02  0.9912303E-01
          1   -1    0    0  501    0  0.00000000000E+00  0.00000000000E+00  0.17372732074E+04  0.17372732074E+04  0.50400000000E-02 0. -1.
         -1   -1    0    0    0  501 -0.00000000000E+00 -0.00000000000E+00 -0.54342911179E+03  0.54342911181E+03  0.50400000000E-02 0.  1.
    8880023    1    1    2    0    0 -0.71308512678E+02 -0.28973762539E+03  0.15989441983E+04  0.17548406056E+04  0.65864270000E+03 0. -1.
    8880022    1    1    2    0    0  0.71308512678E+02  0.28973762539E+03 -0.40510010273E+03  0.52586171357E+03  0.15294330000E+03 0.  0.
<mgrwt>
<rscale>  0 0.59668735E+03</rscale>
<asrwt>0</asrwt>
<pdfrwt beam="1">  1        1 0.26727280E+00 0.72307884E+03</pdfrwt>
<pdfrwt beam="2">  1       -1 0.83604479E-01 0.72307884E+03</pdfrwt>
<totfact> 0.66893867E+00</totfact>
</mgrwt>
</event>
<event>
 4    2  0.3884658E-007  0.6810009E+03  0.7818608E-02  0.1008763E+00
          1   -1    0    0  501    0  0.00000000000E+00  0.00000000000E+00  0.70898893327E+03  0.70898893329E+03  0.50400000000E-02 0. -1.
         -1   -1    0    0    0  501 -0.00000000000E+00 -0.00000000000E+00 -0.34563646750E+03  0.34563646753E+03  0.50400000000E-02 0.  1.
    8880023    1    1    2    0    0 -0.16619281641E+03 -0.48290672398E+02  0.44057977294E+03  0.81109357281E+03  0.65864270000E+03 0. -1.
    8880022    1    1    2    0    0  0.16619281641E+03  0.48290672398E+02 -0.77227307168E+02  0.24353182801E+03  0.15294330000E+03 0.  0.
<mgrwt>
<rscale>  0 0.51969215E+03</rscale>
<asrwt>0</asrwt>
<pdfrwt beam="1">  1        1 0.10907522E+00 0.68100092E+03</pdfrwt>
<pdfrwt beam="2">  1       -1 0.53174841E-01 0.68100092E+03</pdfrwt>
<totfact> 0.97579799E+01</totfact>
</mgrwt>
</event>
<event>
 4    2  0.3884658E-007  0.7242943E+03  0.7818608E-02  0.9908315E-01
          1   -1    0    0  501    0  0.00000000000E+00  0.00000000000E+00  0.16002614829E+04  0.16002614829E+04  0.50400000000E-02 0. -1.
         -1   -1    0    0    0  501 -0.00000000000E+00 -0.00000000000E+00 -0.21028184371E+03  0.21028184377E+03  0.50400000000E-02 0.  1.
    8880023    1    1    2    0    0 -0.29430689883E+03  0.64617538614E+02  0.12502195964E+04  0.14448706595E+04  0.65864270000E+03 0. -1.
    8880022    1    1    2    0    0  0.29430689883E+03 -0.64617538614E+02  0.13976004277E+03  0.36567266724E+03  0.15294330000E+03 0.  0.
<mgrwt>
<rscale>  0 0.59860007E+03</rscale>
<asrwt>0</asrwt>
<pdfrwt beam="1">  1        1 0.24619408E+00 0.72429427E+03</pdfrwt>
<pdfrwt beam="2">  1       -1 0.32351052E-01 0.72429427E+03</pdfrwt>
<totfact> 0.51387679E+01</totfact>
</mgrwt>
</event>
<event>
 4    2  0.3884658E-007  0.7677717E+03  0.7818608E-02  0.9785388E-01
          1   -1    0    0  501    0  0.00000000000E+00  0.00000000000E+00  0.16554931101E+04  0.16554931101E+04  0.50400000000E-02 0. -1.
         -1   -1    0    0    0  501 -0.00000000000E+00 -0.00000000000E+00 -0.55858965656E+03  0.55858965658E+03  0.50400000000E-02 0.  1.
    8880023    1    1    2    0    0 -0.15088291903E+03  0.36455110968E+03  0.14645074654E+04  0.16535584324E+04  0.65864270000E+03 0. -1.
    8880022    1    1    2    0    0  0.15088291903E+03 -0.36455110968E+03 -0.36760401185E+03  0.56052433432E+03  0.15294330000E+03 0.  1.
<mgrwt>
<rscale>  0 0.66152662E+03</rscale>
<asrwt>0</asrwt>
<pdfrwt beam="1">  1        1 0.25469125E+00 0.76777169E+03</pdfrwt>
<pdfrwt beam="2">  1       -1 0.85936871E-01 0.76777169E+03</pdfrwt>
<totfact> 0.71038203E+00</totfact>
</mgrwt>
</event>
<event>
 4    2  0.3884658E-007  0.7829042E+03  0.7818608E-02  0.9749059E-01
         -1   -1    0    0    0  501 -0.00000000000E+00  0.00000000000E+00  0.18553411576E+03  0.18553411583E+03  0.50400000000E-02 0.  1.
          1   -1    0    0  501    0  0.00000000000E+00 -0.00000000000E+00 -0.32080277668E+04  0.32080277668E+04  0.50400000000E-02 0. -1.
    8880023    1    1    2    0    0  0.18211713350E+03  0.38204984334E+03 -0.27679460756E+04  0.28765368791E+04  0.65864270000E+03 0.  0.
    8880022    1    1    2    0    0 -0.18211713350E+03 -0.38204984334E+03 -0.25454757544E+03  0.51702500354E+03  0.15294330000E+03 0.  0.
<mgrwt>
<rscale>  0 0.68169490E+03</rscale>
<asrwt>0</asrwt>
<pdfrwt beam="1">  1        1 0.49354269E+00 0.78290417E+03</pdfrwt>
<pdfrwt beam="2">  1       -1 0.28543712E-01 0.78290417E+03</pdfrwt>
<totfact> 0.49722849E+00</totfact>
</mgrwt>
</event>
<event>
 4    2  0.3884658E-007  0.7454149E+03  0.7818608E-02  0.9844446E-01
          1   -1    0    0  501    0  0.00000000000E+00  0.00000000000E+00  0.32865978837E+04  0.32865978837E+04  0.50400000000E-02 0. -1.
         -1   -1    0    0    0  501 -0.00000000000E+00 -0.00000000000E+00 -0.24042964458E+03  0.24042964463E+03  0.50400000000E-02 0.  1.
    8880023    1    1    2    0    0 -0.19538935114E+03 -0.28923364425E+03  0.30562207845E+04  0.31458113086E+04  0.65864270000E+03 0. -1.
    8880022    1    1    2    0    0  0.19538935114E+03  0.28923364425E+03 -0.10052545369E+02  0.38121621973E+03  0.15294330000E+03 0.  0.
<mgrwt>
<rscale>  0 0.63030915E+03</rscale>
<asrwt>0</asrwt>
<pdfrwt beam="1">  1        1 0.50563042E+00 0.74541485E+03</pdfrwt>
<pdfrwt beam="2">  1       -1 0.36989178E-01 0.74541485E+03</pdfrwt>
<totfact> 0.27719438E+00</totfact>
</mgrwt>
</event>
<event>
 4    2  0.3884658E-007  0.7108764E+03  0.7818608E-02  0.9954761E-01
          1   -1    0    0  501    0  0.00000000000E+00  0.00000000000E+00  0.39940784267E+04  0.39940784267E+04  0.50400000000E-02 0. -1.
         -1   -1    0    0    0  501 -0.00000000000E+00 -0.00000000000E+00 -0.17984156899E+03  0.17984156906E+03  0.50400000000E-02 0.  1.
    8880023    1    1    2    0    0  0.26716479801E+03 -0.12568301891E+02  0.37995390794E+04  0.38654679424E+04  0.65864270000E+03 0. -1.
    8880022    1    1    2    0    0 -0.26716479801E+03  0.12568301891E+02  0.14697778289E+02  0.30845205334E+03  0.15294330000E+03 0.  0.
<mgrwt>
<rscale>  0 0.57679179E+03</rscale>
<asrwt>0</asrwt>
<pdfrwt beam="1">  1        1 0.61447368E+00 0.71087636E+03</pdfrwt>
<pdfrwt beam="2">  1       -1 0.27667930E-01 0.71087636E+03</pdfrwt>
<totfact> 0.12704555E+00</totfact>
</mgrwt>
</event>
<event>
 4    2  0.3884658E-007  0.7033711E+03  0.7818608E-02  0.9983494E-01
          1   -1    0    0  501    0  0.00000000000E+00  0.00000000000E+00  0.84624159726E+03  0.84624159728E+03  0.50400000000E-02 0. -1.
         -1   -1    0    0    0  501 -0.00000000000E+00 -0.00000000000E+00 -0.70132730605E+03  0.70132730607E+03  0.50400000000E-02 0.  1.
    8880023    1    1    2    0    0 -0.23351084978E+03 -0.79958393323E+02  0.65468118179E+03  0.96090494726E+03  0.65864270000E+03 0. -1.
    8880022    1    1    2    0    0  0.23351084978E+03  0.79958393323E+02 -0.50976689058E+03  0.58666395609E+03  0.15294330000E+03 0.  0.
<mgrwt>
<rscale>  0 0.56379959E+03</rscale>
<asrwt>0</asrwt>
<pdfrwt beam="1">  1        1 0.13019102E+00 0.70337107E+03</pdfrwt>
<pdfrwt beam="2">  1       -1 0.10789651E+00 0.70337107E+03</pdfrwt>
<totfact> 0.16676618E+01</totfact>
</mgrwt>
</event>
<event>
 4    2  0.3884658E-007  0.7664816E+03  0.7818608E-02  0.9788607E-01
          1   -1    0    0  501    0  0.00000000000E+00  0.00000000000E+00  0.25669675186E+04  0.25669675186E+04  0.50400000000E-02 0. -1.
         -1   -1    0    0    0  501 -0.00000000000E+00 -0.00000000000E+00 -0.39828847635E+03  0.39828847638E+03  0.50400000000E-02 0.  1.
    8880023    1    1    2    0    0 -0.32416429074E+03  0.22045707021E+03  0.23756996830E+04  0.24962858404E+04  0.65864270000E+03 0. -1.
    8880022    1    1    2    0    0  0.32416429074E+03 -0.22045707021E+03 -0.20702064070E+03  0.46897015458E+03  0.15294330000E+03 0.  0.
<mgrwt>
<rscale>  0 0.65977536E+03</rscale>
<asrwt>0</asrwt>
<pdfrwt beam="1">  1        1 0.39491808E+00 0.76648158E+03</pdfrwt>
<pdfrwt beam="2">  1       -1 0.61275150E-01 0.76648158E+03</pdfrwt>
<totfact> 0.34809419E+00</totfact>
</mgrwt>
</event>
<event>
 4    2  0.3884658E-007  0.6665563E+03  0.7818608E-02  0.1018262E+00
          1   -1    0    0  501    0  0.00000000000E+00  0.00000000000E+00  0.38549729261E+03  0.38549729264E+03  0.50400000000E-02 0. -1.
         -1   -1    0    0    0  501 -0.00000000000E+00 -0.00000000000E+00 -0.61920853029E+03  0.61920853031E+03  0.50400000000E-02 0.  1.
    8880023    1    1    2    0    0 -0.38574775563E+02  0.94863824486E+02  0.47903021193E+02  0.66827544038E+03  0.65864270000E+03 0. -1.
    8880022    1    1    2    0    0  0.38574775563E+02 -0.94863824486E+02 -0.28161425887E+03  0.33643038258E+03  0.15294330000E+03 0.  0.
<mgrwt>
<rscale>  0 0.48319082E+03</rscale>
<asrwt>0</asrwt>
<pdfrwt beam="1">  1        1 0.59307276E-01 0.66655635E+03</pdfrwt>
<pdfrwt beam="2">  1       -1 0.95262851E-01 0.66655635E+03</pdfrwt>
<totfact> 0.68788638E+01</totfact>
</mgrwt>
</event>
<event>
 4    2  0.4506602E-007  0.7533042E+03  0.7818608E-02  0.9822761E-01
          1   -1    0    0  501    0  0.00000000000E+00  0.00000000000E+00  0.12107089880E+04  0.12107089880E+04  0.50400000000E-02 0. -1.
         -1   -1    0    0    0  501 -0.00000000000E+00 -0.00000000000E+00 -0.18307879560E+04  0.18307879561E+04  0.50400000000E-02 0.  1.
    8880023    1    1    2    0    0  0.32873767161E+03  0.15996436140E+03  0.10683267732E+04  0.13072066991E+04  0.65864270000E+03 0.  0.
    8880022    1    1    2    0    0 -0.32873767161E+03 -0.15996436140E+03 -0.16884057412E+04  0.17342902449E+04  0.15294330000E+03 0.  1.
<mgrwt>
<rscale>  0 0.64155235E+03</rscale>
<asrwt>0</asrwt>
<pdfrwt beam="1">  1        1 0.18626292E+00 0.75330423E+03</pdfrwt>
<pdfrwt beam="2">  1       -1 0.28165969E+00 0.75330423E+03</pdfrwt>
<totfact> 0.48362127E-01</totfact>
</mgrwt>
</event>
<event>
 4    2  0.3884658E-007  0.9769346E+03  0.7818608E-02  0.9412376E-01
         -1   -1    0    0    0  501 -0.00000000000E+00  0.00000000000E+00  0.26125310464E+03  0.26125310469E+03  0.50400000000E-02 0.  1.
          1   -1    0    0  501    0  0.00000000000E+00 -0.00000000000E+00 -0.34784720372E+04  0.34784720373E+04  0.50400000000E-02 0. -1.
    8880023    1    1    2    0    0  0.28258613279E+03  0.66387963636E+03 -0.26017125352E+04  0.27790842765E+04  0.65864270000E+03 0. -1.
    8880022    1    1    2    0    0 -0.28258613279E+03 -0.66387963636E+03 -0.61550639739E+03  0.96064086540E+03  0.15294330000E+03 0. -1.
<mgrwt>
<rscale>  0 0.91064116E+03</rscale>
<asrwt>0</asrwt>
<pdfrwt beam="1">  1        1 0.53514951E+00 0.97693464E+03</pdfrwt>
<pdfrwt beam="2">  1       -1 0.40192788E-01 0.97693464E+03</pdfrwt>
<totfact> 0.16346950E+00</totfact>
</mgrwt>
</event>
<event>
 4    2  0.3884658E-007  0.8494468E+03  0.7818608E-02  0.9612618E-01
         -1   -1    0    0    0  501 -0.00000000000E+00  0.00000000000E+00  0.12212431008E+04  0.12212431009E+04  0.50400000000E-02 0.  1.
          1   -1    0    0  501    0  0.00000000000E+00 -0.00000000000E+00 -0.53811629760E+03  0.53811629763E+03  0.50400000000E-02 0. -1.
    8880023    1    1    2    0    0  0.10360245096E+03 -0.52632331687E+03 -0.34855911655E+02  0.85016165672E+03  0.65864270000E+03 0.  0.
    8880022    1    1    2    0    0 -0.10360245096E+03  0.52632331687E+03  0.71798271490E+03  0.90919774176E+03  0.15294330000E+03 0. -1.
<mgrwt>
<rscale>  0 0.76466615E+03</rscale>
<asrwt>0</asrwt>
<pdfrwt beam="1">  1        1 0.82787124E-01 0.84944682E+03</pdfrwt>
<pdfrwt beam="2">  1       -1 0.18788355E+00 0.84944682E+03</pdfrwt>
<totfact> 0.74630820E+00</totfact>
</mgrwt>
</event>
<event>
 4    2  0.3884658E-007  0.6620891E+03  0.7818608E-02  0.1022111E+00
         -1   -1    0    0    0  501 -0.00000000000E+00  0.00000000000E+00  0.11888024497E+04  0.11888024497E+04  0.50400000000E-02 0.  1.
          1   -1    0    0  501    0  0.00000000000E+00 -0.00000000000E+00 -0.23111015666E+03  0.23111015671E+03  0.50400000000E-02 0. -1.
    8880023    1    1    2    0    0  0.53368641889E+02 -0.41274710137E+02  0.27478959699E+03  0.71684820047E+03  0.65864270000E+03 0. -1.
    8880022    1    1    2    0    0 -0.53368641889E+02  0.41274710137E+02  0.68290269604E+03  0.70306440594E+03  0.15294330000E+03 0.  0.
<mgrwt>
<rscale>  0 0.46932359E+03</rscale>
<asrwt>0</asrwt>
<pdfrwt beam="1">  1        1 0.35555409E-01 0.66208913E+03</pdfrwt>
<pdfrwt beam="2">  1       -1 0.18289268E+00 0.66208913E+03</pdfrwt>
<totfact> 0.25260249E+01</totfact>
</mgrwt>
</event>
<event>
 4    2  0.3884658E-007  0.1358290E+04  0.7818608E-02  0.9016789E-01
         -1   -1    0    0    0  501 -0.00000000000E+00  0.00000000000E+00  0.12936801915E+04  0.12936801915E+04  0.50400000000E-02 0.  1.
          1   -1    0    0  501    0  0.00000000000E+00 -0.00000000000E+00 -0.18182794308E+04  0.18182794308E+04  0.50400000000E-02 0. -1.
    8880023    1    1    2    0    0  0.10260568919E+04  0.59862333859E+03  0.58531406818E+03  0.14790352976E+04  0.65864270000E+03 0.  1.
    8880022    1    1    2    0    0 -0.10260568919E+04 -0.59862333859E+03 -0.11099133075E+04  0.16329243247E+04  0.15294330000E+03 0.  0.
<mgrwt>
<rscale>  0 0.13162347E+04</rscale>
<asrwt>0</asrwt>
<pdfrwt beam="1">  1        1 0.27973530E+00 0.13582904E+04</pdfrwt>
<pdfrwt beam="2">  1       -1 0.19902772E+00 0.13582904E+04</pdfrwt>
<totfact> 0.58172590E-01</totfact>
</mgrwt>
</event>
<event>
 4    2  0.3884658E-007  0.7086062E+03  0.7818608E-02  0.9963213E-01
          1   -1    0    0  501    0  0.00000000000E+00  0.00000000000E+00  0.24886795740E+04  0.24886795740E+04  0.50400000000E-02 0. -1.
         -1   -1    0    0    0  501 -0.00000000000E+00 -0.00000000000E+00 -0.34399884234E+03  0.34399884237E+03  0.50400000000E-02 0.  1.
    8880023    1    1    2    0    0 -0.82117886259E+02 -0.24813145183E+03  0.23580583528E+04  0.24622270338E+04  0.65864270000E+03 0. -1.
    8880022    1    1    2    0    0  0.82117886259E+02  0.24813145183E+03 -0.21337762112E+03  0.37045138257E+03  0.15294330000E+03 0.  0.
<mgrwt>
<rscale>  0 0.57293108E+03</rscale>
<asrwt>0</asrwt>
<pdfrwt beam="1">  1        1 0.38287379E+00 0.70860622E+03</pdfrwt>
<pdfrwt beam="2">  1       -1 0.52922898E-01 0.70860622E+03</pdfrwt>
<totfact> 0.52946010E+00</totfact>
</mgrwt>
</event>
<event>
 4    2  0.3884658E-007  0.7080548E+03  0.7818608E-02  0.9965296E-01
         -1   -1    0    0    0  501 -0.00000000000E+00  0.00000000000E+00  0.40345684414E+03  0.40345684417E+03  0.50400000000E-02 0.  1.
          1   -1    0    0  501    0  0.00000000000E+00 -0.00000000000E+00 -0.15132367009E+04  0.15132367009E+04  0.50400000000E-02 0. -1.
    8880023    1    1    2    0    0 -0.11817318607E+03 -0.23144427453E+03 -0.13544656841E+04  0.15283713062E+04  0.65864270000E+03 0. -1.
    8880022    1    1    2    0    0  0.11817318607E+03  0.23144427453E+03  0.24468582729E+03  0.38832223888E+03  0.15294330000E+03 0.  0.
<mgrwt>
<rscale>  0 0.57198464E+03</rscale>
<asrwt>0</asrwt>
<pdfrwt beam="1">  1        1 0.23280564E+00 0.70805477E+03</pdfrwt>
<pdfrwt beam="2">  1       -1 0.62070284E-01 0.70805477E+03</pdfrwt>
<totfact> 0.17563721E+01</totfact>
</mgrwt>
</event>
<event>
 4    2  0.3884658E-007  0.7921103E+03  0.7818608E-02  0.9728122E-01
         -1   -1    0    0    0  501 -0.00000000000E+00  0.00000000000E+00  0.29228663377E+03  0.29228663381E+03  0.50400000000E-02 0.  1.
          1   -1    0    0  501    0  0.00000000000E+00 -0.00000000000E+00 -0.26259276926E+04  0.26259276926E+04  0.50400000000E-02 0. -1.
    8880023    1    1    2    0    0 -0.40237044064E+03  0.17811929237E+03 -0.23207225929E+04  0.24521810727E+04  0.65864270000E+03 0.  0.
    8880022    1    1    2    0    0  0.40237044064E+03 -0.17811929237E+03 -0.12918465953E+02  0.46603325375E+03  0.15294330000E+03 0.  0.
<mgrwt>
<rscale>  0 0.69366810E+03</rscale>
<asrwt>0</asrwt>
<pdfrwt beam="1">  1        1 0.40398886E+00 0.79211026E+03</pdfrwt>
<pdfrwt beam="2">  1       -1 0.44967176E-01 0.79211026E+03</pdfrwt>
<totfact> 0.57103787E+00</totfact>
</mgrwt>
</event>
<event>
 4    2  0.3884658E-007  0.6726164E+03  0.7818608E-02  0.1013853E+00
         -1   -1    0    0    0  501 -0.00000000000E+00  0.00000000000E+00  0.39840177923E+03  0.39840177926E+03  0.50400000000E-02 0.  1.
          1   -1    0    0  501    0  0.00000000000E+00 -0.00000000000E+00 -0.10548126845E+04  0.10548126846E+04  0.50400000000E-02 0. -1.
    8880023    1    1    2    0    0  0.10998205687E+03 -0.80663093276E+02 -0.90720071170E+03  0.11293475661E+04  0.65864270000E+03 0. -1.
    8880022    1    1    2    0    0 -0.10998205687E+03  0.80663093276E+02  0.25078980638E+03  0.32386689774E+03  0.15294330000E+03 0.  0.
<mgrwt>
<rscale>  0 0.49971720E+03</rscale>
<asrwt>0</asrwt>
<pdfrwt beam="1">  1        1 0.16227887E+00 0.67261638E+03</pdfrwt>
<pdfrwt beam="2">  1       -1 0.61292582E-01 0.67261638E+03</pdfrwt>
<totfact> 0.38346603E+01</totfact>
</mgrwt>
</event>
<event>
 4    2  0.3884658E-007  0.8958159E+03  0.7818608E-02  0.9532782E-01
          1   -1    0    0  501    0  0.00000000000E+00  0.00000000000E+00  0.59034895408E+03  0.59034895410E+03  0.50400000000E-02 0. -1.
         -1   -1    0    0    0  501 -0.00000000000E+00 -0.00000000000E+00 -0.12271507771E+04  0.12271507771E+04  0.50400000000E-02 0.  1.
    8880023    1    1    2    0    0 -0.85568712726E+02 -0.60112725822E+03  0.38414070655E+02  0.89663918733E+03  0.65864270000E+03 0. -1.
    8880022    1    1    2    0    0  0.85568712726E+02  0.60112725822E+03 -0.67521589366E+03  0.92086054386E+03  0.15294330000E+03 0.  0.
<mgrwt>
<rscale>  0 0.81909488E+03</rscale>
<asrwt>0</asrwt>
<pdfrwt beam="1">  1        1 0.90822916E-01 0.89581594E+03</pdfrwt>
<pdfrwt beam="2">  1       -1 0.18879243E+00 0.89581594E+03</pdfrwt>
<totfact> 0.64130818E+00</totfact>
</mgrwt>
</event>
<event>
 4    2  0.3884658E-007  0.7427766E+03  0.7818608E-02  0.9851931E-01
          1   -1    0    0  501    0  0.00000000000E+00  0.00000000000E+00  0.57539469526E+03  0.57539469528E+03  0.50400000000E-02 0. -1.
         -1   -1    0    0    0  501 -0.00000000000E+00 -0.00000000000E+00 -0.71533450435E+03  0.71533450437E+03  0.50400000000E-02 0.  1.
    8880023    1    1    2    0    0  0.34195811160E+03 -0.31170389940E+02  0.21548685380E+03  0.77340269829E+03  0.65864270000E+03 0. -1.
    8880022    1    1    2    0    0 -0.34195811160E+03  0.31170389940E+02 -0.35542666289E+03  0.51732650136E+03  0.15294330000E+03 0.  0.
<mgrwt>
<rscale>  0 0.62648534E+03</rscale>
<asrwt>0</asrwt>
<pdfrwt beam="1">  1        1 0.88522261E-01 0.74277665E+03</pdfrwt>
<pdfrwt beam="2">  1       -1 0.11005146E+00 0.74277665E+03</pdfrwt>
<totfact> 0.28431816E+01</totfact>
</mgrwt>
</event>
<event>
 4    2  0.3884658E-007  0.7495979E+03  0.7818608E-02  0.9832822E-01
          1   -1    0    0  501    0  0.00000000000E+00  0.00000000000E+00  0.10553851746E+04  0.10553851746E+04  0.50400000000E-02 0. -1.
         -1   -1    0    0    0  501 -0.00000000000E+00 -0.00000000000E+00 -0.51711821288E+03  0.51711821290E+03  0.50400000000E-02 0.  1.
    8880023    1    1    2    0    0  0.19774515201E+03  0.29830124424E+03  0.80554511153E+03  0.11003635356E+04  0.65864270000E+03 0. -1.
    8880022    1    1    2    0    0 -0.19774515201E+03 -0.29830124424E+03 -0.26727814977E+03  0.47213985197E+03  0.15294330000E+03 0.  0.
<mgrwt>
<rscale>  0 0.63630467E+03</rscale>
<asrwt>0</asrwt>
<pdfrwt beam="1">  1        1 0.16236695E+00 0.74959788E+03</pdfrwt>
<pdfrwt beam="2">  1       -1 0.79556649E-01 0.74959788E+03</pdfrwt>
<totfact> 0.22269254E+01</totfact>
</mgrwt>
</event>
<event>
 4    2  0.3884658E-007  0.1060881E+04  0.7818608E-02  0.9305915E-01
         -1   -1    0    0    0  501 -0.00000000000E+00  0.00000000000E+00  0.50750739841E+03  0.50750739843E+03  0.50400000000E-02 0.  1.
          1   -1    0    0  501    0  0.00000000000E+00 -0.00000000000E+00 -0.26900438361E+04  0.26900438361E+04  0.50400000000E-02 0. -1.
    8880023    1    1    2    0    0  0.32555789687E+03  0.76529033022E+03 -0.20938981023E+04  0.23473126556E+04  0.65864270000E+03 0.  0.
    8880022    1    1    2    0    0 -0.32555789687E+03 -0.76529033022E+03 -0.88638335405E+02  0.85023857902E+03  0.15294330000E+03 0.  0.
<mgrwt>
<rscale>  0 0.10024018E+04</rscale>
<asrwt>0</asrwt>
<pdfrwt beam="1">  1        1 0.41385289E+00 0.10608805E+04</pdfrwt>
<pdfrwt beam="2">  1       -1 0.78078063E-01 0.10608805E+04</pdfrwt>
<totfact> 0.16595423E+00</totfact>
</mgrwt>
</event>
<event>
 4    2  0.3884658E-007  0.6591866E+03  0.7818608E-02  0.1025006E+00
          1   -1    0    0  501    0  0.00000000000E+00  0.00000000000E+00  0.29887357122E+04  0.29887357122E+04  0.50400000000E-02 0. -1.
         -1   -1    0    0    0  501 -0.00000000000E+00 -0.00000000000E+00 -0.58631121664E+02  0.58631121881E+02  0.50400000000E-02 0.  1.
    8880023    1    1    2    0    0  0.17898793882E+02 -0.19910108362E+02  0.26046820834E+04  0.26868002793E+04  0.65864270000E+03 0. -1.
    8880022    1    1    2    0    0 -0.17898793882E+02  0.19910108362E+02  0.32542250723E+03  0.36056655483E+03  0.15294330000E+03 0.  0.
<mgrwt>
<rscale>  0 0.45922699E+03</rscale>
<asrwt>0</asrwt>
<pdfrwt beam="1">  1        1 0.45980551E+00 0.65918661E+03</pdfrwt>
<pdfrwt beam="2">  1       -1 0.90201723E-02 0.65918661E+03</pdfrwt>
<totfact> 0.48424701E+01</totfact>
</mgrwt>
</event>
<event>
 4    2  0.3884658E-007  0.8880416E+03  0.7818608E-02  0.9545508E-01
         -1   -1    0    0    0  501 -0.00000000000E+00  0.00000000000E+00  0.15466562422E+04  0.15466562423E+04  0.50400000000E-02 0.  1.
          1   -1    0    0  501    0  0.00000000000E+00 -0.00000000000E+00 -0.11084952823E+04  0.11084952823E+04  0.50400000000E-02 0. -1.
    8880023    1    1    2    0    0  0.50194439269E+03  0.32071721672E+03 -0.84902461412E+03  0.12286011184E+04  0.65864270000E+03 0.  0.
    8880022    1    1    2    0    0 -0.50194439269E+03 -0.32071721672E+03  0.12871855740E+04  0.14265504062E+04  0.15294330000E+03 0.  0.
<mgrwt>
<rscale>  0 0.81010271E+03</rscale>
<asrwt>0</asrwt>
<pdfrwt beam="1">  1        1 0.17053774E+00 0.88804162E+03</pdfrwt>
<pdfrwt beam="2">  1       -1 0.23794711E+00 0.88804162E+03</pdfrwt>
<totfact> 0.10711424E+00</totfact>
</mgrwt>
</event>
<event>
 4    2  0.3884658E-007  0.9769604E+03  0.7818608E-02  0.9412341E-01
          1   -1    0    0  501    0  0.00000000000E+00  0.00000000000E+00  0.16053556766E+04  0.16053556766E+04  0.50400000000E-02 0. -1.
         -1   -1    0    0    0  501 -0.00000000000E+00 -0.00000000000E+00 -0.52952289709E+03  0.52952289711E+03  0.50400000000E-02 0.  1.
    8880023    1    1    2    0    0  0.43869441819E+03 -0.57287747233E+03  0.99239657579E+03  0.13925884391E+04  0.65864270000E+03 0.  0.
    8880022    1    1    2    0    0 -0.43869441819E+03  0.57287747233E+03  0.83436203742E+02  0.74229013462E+03  0.15294330000E+03 0.  0.
<mgrwt>
<rscale>  0 0.91066968E+03</rscale>
<asrwt>0</asrwt>
<pdfrwt beam="1">  1        1 0.24697780E+00 0.97696039E+03</pdfrwt>
<pdfrwt beam="2">  1       -1 0.81465060E-01 0.97696039E+03</pdfrwt>
<totfact> 0.83813117E+00</totfact>
</mgrwt>
</event>
<event>
 4    2  0.3884658E-007  0.9947236E+03  0.7818608E-02  0.9388494E-01
         -1   -1    0    0    0  501 -0.00000000000E+00  0.00000000000E+00  0.12985648606E+04  0.12985648606E+04  0.50400000000E-02 0.  1.
          1   -1    0    0  501    0  0.00000000000E+00 -0.00000000000E+00 -0.89255489647E+03  0.89255489648E+03  0.50400000000E-02 0. -1.
    8880023    1    1    2    0    0  0.72650789159E+03  0.16688643803E+03 -0.40950493136E+03  0.10757180369E+04  0.65864270000E+03 0. -1.
    8880022    1    1    2    0    0 -0.72650789159E+03 -0.16688643803E+03  0.81551489549E+03  0.11154017202E+04  0.15294330000E+03 0.  0.
<mgrwt>
<rscale>  0 0.93028694E+03</rscale>
<asrwt>0</asrwt>
<pdfrwt beam="1">  1        1 0.13731614E+00 0.99472358E+03</pdfrwt>
<pdfrwt beam="2">  1       -1 0.19977921E+00 0.99472358E+03</pdfrwt>
<totfact> 0.28005252E+00</totfact>
</mgrwt>
</event>
<event>
 4    2  0.3884658E-007  0.7701002E+03  0.7818608E-02  0.9779628E-01
         -1   -1    0    0    0  501 -0.00000000000E+00  0.00000000000E+00  0.13252700811E+04  0.13252700811E+04  0.50400000000E-02 0.  1.
          1   -1    0    0  501    0  0.00000000000E+00 -0.00000000000E+00 -0.52558536054E+03  0.52558536056E+03  0.50400000000E-02 0. -1.
    8880023    1    1    2    0    0  0.16258454955E+03 -0.36443162003E+03 -0.17223769105E+03  0.78912620658E+03  0.65864270000E+03 0. -1.
    8880022    1    1    2    0    0 -0.16258454955E+03  0.36443162003E+03  0.97192241160E+03  0.10617292351E+04  0.15294330000E+03 0.  0.
<mgrwt>
<rscale>  0 0.66467397E+03</rscale>
<asrwt>0</asrwt>
<pdfrwt beam="1">  1        1 0.80859287E-01 0.77010022E+03</pdfrwt>
<pdfrwt beam="2">  1       -1 0.20388770E+00 0.77010022E+03</pdfrwt>
<totfact> 0.60398500E+00</totfact>
</mgrwt>
</event>
<event>
 4    2  0.3884658E-007  0.8067610E+03  0.7818608E-02  0.9696364E-01
          1   -1    0    0  501    0  0.00000000000E+00  0.00000000000E+00  0.10902570577E+04  0.10902570577E+04  0.50400000000E-02 0. -1.
         -1   -1    0    0    0  501 -0.00000000000E+00 -0.00000000000E+00 -0.55841248725E+03  0.55841248728E+03  0.50400000000E-02 0.  1.
    8880023    1    1    2    0    0 -0.17628127325E+03 -0.43125165859E+03  0.75952719282E+03  0.11080364810E+04  0.65864270000E+03 0. -1.
    8880022    1    1    2    0    0  0.17628127325E+03  0.43125165859E+03 -0.22768262237E+03  0.54063306399E+03  0.15294330000E+03 0.  0.
<mgrwt>
<rscale>  0 0.71233712E+03</rscale>
<asrwt>0</asrwt>
<pdfrwt beam="1">  1        1 0.16773185E+00 0.80676098E+03</pdfrwt>
<pdfrwt beam="2">  1       -1 0.85909614E-01 0.80676098E+03</pdfrwt>
<totfact> 0.17657013E+01</totfact>
</mgrwt>
</event>
<event>
 4    2  0.3884658E-007  0.7470448E+03  0.7818608E-02  0.9839882E-01
          1   -1    0    0  501    0  0.00000000000E+00  0.00000000000E+00  0.26088751136E+04  0.26088751136E+04  0.50400000000E-02 0. -1.
         -1   -1    0    0    0  501 -0.00000000000E+00 -0.00000000000E+00 -0.22189262154E+03  0.22189262159E+03  0.50400000000E-02 0.  1.
    8880023    1    1    2    0    0 -0.30351553948E+03 -0.17928746459E+03  0.23243305639E+04  0.24414316403E+04  0.65864270000E+03 0.  0.
    8880022    1    1    2    0    0  0.30351553948E+03  0.17928746459E+03  0.62651928131E+02  0.38933609488E+03  0.15294330000E+03 0.  0.
<mgrwt>
<rscale>  0 0.63265486E+03</rscale>
<asrwt>0</asrwt>
<pdfrwt beam="1">  1        1 0.40136537E+00 0.74704477E+03</pdfrwt>
<pdfrwt beam="2">  1       -1 0.34137329E-01 0.74704477E+03</pdfrwt>
<totfact> 0.97461770E+00</totfact>
</mgrwt>
</event>
<event>
 4    2  0.3884658E-007  0.8839394E+03  0.7818608E-02  0.9552322E-01
          1   -1    0    0  501    0  0.00000000000E+00  0.00000000000E+00  0.14409039680E+04  0.14409039680E+04  0.50400000000E-02 0. -1.
         -1   -1    0    0    0  501 -0.00000000000E+00 -0.00000000000E+00 -0.68242926694E+03  0.68242926696E+03  0.50400000000E-02 0.  1.
    8880023    1    1    2    0    0  0.58951932487E+03 -0.23843965804E+01  0.11109085845E+04  0.14196713737E+04  0.65864270000E+03 0.  0.
    8880022    1    1    2    0    0 -0.58951932487E+03  0.23843965804E+01 -0.35243388351E+03  0.70366186127E+03  0.15294330000E+03 0.  0.
<mgrwt>
<rscale>  0 0.80533845E+03</rscale>
<asrwt>0</asrwt>
<pdfrwt beam="1">  1        1 0.22167753E+00 0.88393944E+03</pdfrwt>
<pdfrwt beam="2">  1       -1 0.10498912E+00 0.88393944E+03</pdfrwt>
<totfact> 0.62455087E+00</totfact>
</mgrwt>
</event>
<event>
 4    2  0.3884658E-007  0.8008884E+03  0.7818608E-02  0.9708879E-01
          1   -1    0    0  501    0  0.00000000000E+00  0.00000000000E+00  0.13696637426E+04  0.13696637426E+04  0.50400000000E-02 0. -1.
         -1   -1    0    0    0  501 -0.00000000000E+00 -0.00000000000E+00 -0.59661744955E+03  0.59661744957E+03  0.50400000000E-02 0.  1.
    8880023    1    1    2    0    0 -0.15680096786E+03  0.42781471780E+03  0.11175799969E+04  0.13749208094E+04  0.65864270000E+03 0.  0.
    8880022    1    1    2    0    0  0.15680096786E+03 -0.42781471780E+03 -0.34453370383E+03  0.59136038283E+03  0.15294330000E+03 0.  0.
<mgrwt>
<rscale>  0 0.70490622E+03</rscale>
<asrwt>0</asrwt>
<pdfrwt beam="1">  1        1 0.21071750E+00 0.80088837E+03</pdfrwt>
<pdfrwt beam="2">  1       -1 0.91787301E-01 0.80088837E+03</pdfrwt>
<totfact> 0.96072790E+00</totfact>
</mgrwt>
</event>
<event>
 4    2  0.3884658E-007  0.6975903E+03  0.7818608E-02  0.1000735E+00
          1   -1    0    0  501    0  0.00000000000E+00  0.00000000000E+00  0.25346075256E+04  0.25346075256E+04  0.50400000000E-02 0. -1.
         -1   -1    0    0    0  501 -0.00000000000E+00 -0.00000000000E+00 -0.12924735562E+03  0.12924735572E+03  0.50400000000E-02 0.  1.
    8880023    1    1    2    0    0 -0.57196218222E+02  0.22259974332E+03  0.22305629875E+04  0.23371015170E+04  0.65864270000E+03 0.  0.
    8880022    1    1    2    0    0  0.57196218222E+02 -0.22259974332E+03  0.17479718246E+03  0.32675336435E+03  0.15294330000E+03 0.  0.
<mgrwt>
<rscale>  0 0.55329210E+03</rscale>
<asrwt>0</asrwt>
<pdfrwt beam="1">  1        1 0.38993962E+00 0.69759032E+03</pdfrwt>
<pdfrwt beam="2">  1       -1 0.19884209E-01 0.69759032E+03</pdfrwt>
<totfact> 0.27899309E+01</totfact>
</mgrwt>
</event>
<event>
 4    2  0.3884658E-007  0.7331720E+03  0.7818608E-02  0.9880302E-01
          1   -1    0    0  501    0  0.00000000000E+00  0.00000000000E+00  0.15258465454E+04  0.15258465454E+04  0.50400000000E-02 0. -1.
         -1   -1    0    0    0  501 -0.00000000000E+00 -0.00000000000E+00 -0.30830583543E+03  0.30830583547E+03  0.50400000000E-02 0.  1.
    8880023    1    1    2    0    0  0.15771888970E+03  0.28081252405E+03  0.12771756201E+04  0.14726570180E+04  0.65864270000E+03 0. -1.
    8880022    1    1    2    0    0 -0.15771888970E+03 -0.28081252405E+03 -0.59634910173E+02  0.36149536284E+03  0.15294330000E+03 0.  0.
<mgrwt>
<rscale>  0 0.61225483E+03</rscale>
<asrwt>0</asrwt>
<pdfrwt beam="1">  1        1 0.23474562E+00 0.73317196E+03</pdfrwt>
<pdfrwt beam="2">  1       -1 0.47431667E-01 0.73317196E+03</pdfrwt>
<totfact> 0.28812324E+01</totfact>
</mgrwt>
</event>
<event>
 4    2  0.3884658E-007  0.1658100E+04  0.7818608E-02  0.8805379E-01
         -1   -1    0    0    0  501 -0.00000000000E+00  0.00000000000E+00  0.12976075744E+04  0.12976075744E+04  0.50400000000E-02 0.  1.
          1   -1    0    0  501    0  0.00000000000E+00 -0.00000000000E+00 -0.23087457521E+04  0.23087457521E+04  0.50400000000E-02 0. -1.
    8880023    1    1    2    0    0 -0.90435983501E+03 -0.12237717504E+04  0.18005123780E+03  0.16678467144E+04  0.65864270000E+03 0.  1.
    8880022    1    1    2    0    0  0.90435983501E+03  0.12237717504E+04 -0.11911894155E+04  0.19385066120E+04  0.15294330000E+03 0.  0.
<mgrwt>
<rscale>  0 0.16249270E+04</rscale>
<asrwt>0</asrwt>
<pdfrwt beam="1">  1        1 0.35519165E+00 0.16580996E+04</pdfrwt>
<pdfrwt beam="2">  1       -1 0.19963193E+00 0.16580996E+04</pdfrwt>
<totfact> 0.25808455E-01</totfact>
</mgrwt>
</event>
<event>
 4    2  0.3884658E-007  0.6689758E+03  0.7818608E-02  0.1016408E+00
          1   -1    0    0  501    0  0.00000000000E+00  0.00000000000E+00  0.12472484914E+04  0.12472484914E+04  0.50400000000E-02 0. -1.
         -1   -1    0    0    0  501 -0.00000000000E+00 -0.00000000000E+00 -0.58201267342E+03  0.58201267344E+03  0.50400000000E-02 0.  1.
    8880023    1    1    2    0    0  0.67462530818E+00 -0.11712357501E+03  0.11372674100E+04  0.13194338767E+04  0.65864270000E+03 0. -1.
    8880022    1    1    2    0    0 -0.67462530818E+00  0.11712357501E+03 -0.47203159196E+03  0.50982728817E+03  0.15294330000E+03 0.  0.
<mgrwt>
<rscale>  0 0.49005432E+03</rscale>
<asrwt>0</asrwt>
<pdfrwt beam="1">  1        1 0.19188438E+00 0.66897578E+03</pdfrwt>
<pdfrwt beam="2">  1       -1 0.89540413E-01 0.66897578E+03</pdfrwt>
<totfact> 0.12620942E+01</totfact>
</mgrwt>
</event>
<event>
 4    2  0.3884658E-007  0.8472597E+03  0.7818608E-02  0.9616640E-01
          1   -1    0    0  501    0  0.00000000000E+00  0.00000000000E+00  0.86668375198E+03  0.86668375199E+03  0.50400000000E-02 0. -1.
         -1   -1    0    0    0  501 -0.00000000000E+00 -0.00000000000E+00 -0.56919148183E+03  0.56919148185E+03  0.50400000000E-02 0.  1.
    8880023    1    1    2    0    0 -0.45592889403E+03 -0.27598490361E+03  0.22551465098E+03  0.87675873962E+03  0.65864270000E+03 0. -1.
    8880022    1    1    2    0    0  0.45592889403E+03  0.27598490361E+03  0.71977619167E+02  0.55911649422E+03  0.15294330000E+03 0.  1.
<mgrwt>
<rscale>  0 0.76204529E+03</rscale>
<asrwt>0</asrwt>
<pdfrwt beam="1">  1        1 0.13333596E+00 0.84725972E+03</pdfrwt>
<pdfrwt beam="2">  1       -1 0.87567921E-01 0.84725972E+03</pdfrwt>
<totfact> 0.25288194E+01</totfact>
</mgrwt>
</event>
<event>
 4    2  0.3884658E-007  0.6653402E+03  0.7818608E-02  0.1019250E+00
          1   -1    0    0  501    0  0.00000000000E+00  0.00000000000E+00  0.62517665059E+03  0.62517665061E+03  0.50400000000E-02 0. -1.
         -1   -1    0    0    0  501 -0.00000000000E+00 -0.00000000000E+00 -0.19253363445E+04  0.19253363446E+04  0.50400000000E-02 0.  1.
    8880023    1    1    2    0    0 -0.70530718711E+02 -0.62392326543E+02  0.44222243562E+03  0.79889816217E+03  0.65864270000E+03 0. -1.
    8880022    1    1    2    0    0  0.70530718711E+02  0.62392326543E+02 -0.17423821296E+04  0.17516148330E+04  0.15294330000E+03 0.  0.
<mgrwt>
<rscale>  0 0.47958352E+03</rscale>
<asrwt>0</asrwt>
<pdfrwt beam="1">  1        1 0.96181024E-01 0.66534021E+03</pdfrwt>
<pdfrwt beam="2">  1       -1 0.29620559E+00 0.66534021E+03</pdfrwt>
<totfact> 0.12092253E+00</totfact>
</mgrwt>
</event>
<event>
 4    2  0.3884658E-007  0.7230252E+03  0.7818608E-02  0.9912480E-01
         -1   -1    0    0    0  501 -0.00000000000E+00  0.00000000000E+00  0.79776919879E+03  0.79776919880E+03  0.50400000000E-02 0.  1.
          1   -1    0    0  501    0  0.00000000000E+00 -0.00000000000E+00 -0.77922686581E+03  0.77922686583E+03  0.50400000000E-02 0. -1.
    8880023    1    1    2    0    0  0.29820191843E+03 -0.55556839009E+01 -0.55582606788E+03  0.91198030339E+03  0.65864270000E+03 0. -1.
    8880022    1    1    2    0    0 -0.29820191843E+03  0.55556839009E+01  0.57436840086E+03  0.66501576124E+03  0.15294330000E+03 0.  0.
<mgrwt>
<rscale>  0 0.59660271E+03</rscale>
<asrwt>0</asrwt>
<pdfrwt beam="1">  1        1 0.11988106E+00 0.72302521E+03</pdfrwt>
<pdfrwt beam="2">  1       -1 0.12273372E+00 0.72302521E+03</pdfrwt>
<totfact> 0.13946871E+01</totfact>
</mgrwt>
</event>
<event>
 4    2  0.3884658E-007  0.8878114E+03  0.7818608E-02  0.9545888E-01
         -1   -1    0    0    0  501 -0.00000000000E+00  0.00000000000E+00  0.10027642542E+04  0.10027642542E+04  0.50400000000E-02 0.  1.
          1   -1    0    0  501    0  0.00000000000E+00 -0.00000000000E+00 -0.77067922616E+03  0.77067922618E+03  0.50400000000E-02 0. -1.
    8880023    1    1    2    0    0 -0.24422622890E+03  0.54291112647E+03 -0.32349804507E+03  0.94491276505E+03  0.65864270000E+03 0.  0.
    8880022    1    1    2    0    0  0.24422622890E+03 -0.54291112647E+03  0.55558307313E+03  0.82853071536E+03  0.15294330000E+03 0.  0.
<mgrwt>
<rscale>  0 0.80983575E+03</rscale>
<asrwt>0</asrwt>
<pdfrwt beam="1">  1        1 0.11856604E+00 0.88781144E+03</pdfrwt>
<pdfrwt beam="2">  1       -1 0.15427142E+00 0.88781144E+03</pdfrwt>
<totfact> 0.76976783E+00</totfact>
</mgrwt>
</event>
<event>
 4    2  0.3884658E-007  0.6590230E+03  0.7818608E-02  0.1025180E+00
          1   -1    0    0  501    0  0.00000000000E+00  0.00000000000E+00  0.13039798989E+04  0.13039798989E+04  0.50400000000E-02 0. -1.
         -1   -1    0    0    0  501 -0.00000000000E+00 -0.00000000000E+00 -0.50223881305E+03  0.50223881307E+03  0.50400000000E-02 0.  1.
    8880023    1    1    2    0    0 -0.25802078024E+01  0.22236190084E+02  0.12055026938E+04  0.13738806559E+04  0.65864270000E+03 0. -1.
    8880022    1    1    2    0    0  0.25802078024E+01 -0.22236190084E+02 -0.40376160798E+03  0.43233805606E+03  0.15294330000E+03 0.  0.
<mgrwt>
<rscale>  0 0.45862605E+03</rscale>
<asrwt>0</asrwt>
<pdfrwt beam="1">  1        1 0.20061229E+00 0.65902300E+03</pdfrwt>
<pdfrwt beam="2">  1       -1 0.77267509E-01 0.65902300E+03</pdfrwt>
<totfact> 0.15803609E+01</totfact>
</mgrwt>
</event>
<event>
 4    2  0.3884658E-007  0.9009797E+03  0.7818608E-02  0.9524461E-01
          1   -1    0    0  501    0  0.00000000000E+00  0.00000000000E+00  0.12917699613E+04  0.12917699613E+04  0.50400000000E-02 0. -1.
         -1   -1    0    0    0  501 -0.00000000000E+00 -0.00000000000E+00 -0.66278428323E+03  0.66278428325E+03  0.50400000000E-02 0.  1.
    8880023    1    1    2    0    0 -0.58368854732E+03  0.19303330953E+03  0.89270241752E+03  0.12683382795E+04  0.65864270000E+03 0.  0.
    8880022    1    1    2    0    0  0.58368854732E+03 -0.19303330953E+03 -0.26371673950E+03  0.68621596496E+03  0.15294330000E+03 0.  0.
<mgrwt>
<rscale>  0 0.82504207E+03</rscale>
<asrwt>0</asrwt>
<pdfrwt beam="1">  1        1 0.19873384E+00 0.90097968E+03</pdfrwt>
<pdfrwt beam="2">  1       -1 0.10196681E+00 0.90097968E+03</pdfrwt>
<totfact> 0.84863738E+00</totfact>
</mgrwt>
</event>
<event>
 4    2  0.3884658E-007  0.6646936E+03  0.7818608E-02  0.1019792E+00
         -1   -1    0    0    0  501 -0.00000000000E+00  0.00000000000E+00  0.24909439961E+03  0.24909439967E+03  0.50400000000E-02 0.  1.
          1   -1    0    0  501    0  0.00000000000E+00 -0.00000000000E+00 -0.99101991289E+03  0.99101991290E+03  0.50400000000E-02 0. -1.
    8880023    1    1    2    0    0  0.77646056985E+02  0.44480420557E+02 -0.81217626983E+03  0.10494988888E+04  0.65864270000E+03 0. -1.
    8880022    1    1    2    0    0 -0.77646056985E+02 -0.44480420557E+02  0.70250756559E+02  0.19061542380E+03  0.15294330000E+03 0.  0.
<mgrwt>
<rscale>  0 0.47761806E+03</rscale>
<asrwt>0</asrwt>
<pdfrwt beam="1">  1        1 0.15246460E+00 0.66469363E+03</pdfrwt>
<pdfrwt beam="2">  1       -1 0.38322216E-01 0.66469363E+03</pdfrwt>
<totfact> 0.10395079E+02</totfact>
</mgrwt>
</event>
<event>
 4    2  0.3884658E-007  0.6654640E+03  0.7818608E-02  0.1019147E+00
          1   -1    0    0  501    0  0.00000000000E+00  0.00000000000E+00  0.73765606351E+03  0.73765606352E+03  0.50400000000E-02 0. -1.
         -1   -1    0    0    0  501 -0.00000000000E+00 -0.00000000000E+00 -0.61143578464E+03  0.61143578466E+03  0.50400000000E-02 0.  1.
    8880023    1    1    2    0    0  0.59156037278E+02 -0.74381933604E+02  0.56616774034E+03  0.87372090811E+03  0.65864270000E+03 0. -1.
    8880022    1    1    2    0    0 -0.59156037278E+02  0.74381933604E+02 -0.43994746147E+03  0.47537094007E+03  0.15294330000E+03 0.  0.
<mgrwt>
<rscale>  0 0.47995591E+03</rscale>
<asrwt>0</asrwt>
<pdfrwt beam="1">  1        1 0.11348555E+00 0.66546398E+03</pdfrwt>
<pdfrwt beam="2">  1       -1 0.94067044E-01 0.66546398E+03</pdfrwt>
<totfact> 0.28483705E+01</totfact>
</mgrwt>
</event>
<event>
 4    2  0.3884658E-007  0.7138164E+03  0.7818608E-02  0.9944093E-01
         -1   -1    0    0    0  501 -0.00000000000E+00  0.00000000000E+00  0.10213304304E+04  0.10213304305E+04  0.50400000000E-02 0.  1.
          1   -1    0    0  501    0  0.00000000000E+00 -0.00000000000E+00 -0.80178568525E+03  0.80178568526E+03  0.50400000000E-02 0. -1.
    8880023    1    1    2    0    0 -0.15937488597E+03 -0.22432838081E+03 -0.60803389326E+03  0.93767744898E+03  0.65864270000E+03 0. -1.
    8880022    1    1    2    0    0  0.15937488597E+03  0.22432838081E+03  0.82757863845E+03  0.88543866673E+03  0.15294330000E+03 0.  0.
<mgrwt>
<rscale>  0 0.58171119E+03</rscale>
<asrwt>0</asrwt>
<pdfrwt beam="1">  1        1 0.12335164E+00 0.71381635E+03</pdfrwt>
<pdfrwt beam="2">  1       -1 0.15712776E+00 0.71381635E+03</pdfrwt>
<totfact> 0.70337284E+00</totfact>
</mgrwt>
</event>
<event>
 4    2  0.3884658E-007  0.7325381E+03  0.7818608E-02  0.9882242E-01
         -1   -1    0    0    0  501 -0.00000000000E+00  0.00000000000E+00  0.11683847530E+03  0.11683847540E+03  0.50400000000E-02 0.  1.
          1   -1    0    0  501    0  0.00000000000E+00 -0.00000000000E+00 -0.30572272744E+04  0.30572272744E+04  0.50400000000E-02 0. -1.
    8880023    1    1    2    0    0  0.18115796880E+03 -0.26454420866E+03 -0.25167830212E+04  0.26212227739E+04  0.65864270000E+03 0. -1.
    8880022    1    1    2    0    0 -0.18115796880E+03  0.26454420866E+03 -0.42360577789E+03  0.55284297596E+03  0.15294330000E+03 0.  0.
<mgrwt>
<rscale>  0 0.61129703E+03</rscale>
<asrwt>0</asrwt>
<pdfrwt beam="1">  1        1 0.47034260E+00 0.73253809E+03</pdfrwt>
<pdfrwt beam="2">  1       -1 0.17975152E-01 0.73253809E+03</pdfrwt>
<totfact> 0.14110777E+01</totfact>
</mgrwt>
</event>
<event>
 4    2  0.3884658E-007  0.7988200E+03  0.7818608E-02  0.9713353E-01
          1   -1    0    0  501    0  0.00000000000E+00  0.00000000000E+00  0.28183259341E+03  0.28183259346E+03  0.50400000000E-02 0. -1.
         -1   -1    0    0    0  501 -0.00000000000E+00 -0.00000000000E+00 -0.47061749447E+04  0.47061749447E+04  0.50400000000E-02 0.  1.
    8880023    1    1    2    0    0 -0.28434383159E+03  0.35135708431E+03 -0.32730166346E+03  0.86327272656E+03  0.65864270000E+03 0. -1.
    8880022    1    1    2    0    0  0.28434383159E+03 -0.35135708431E+03 -0.40970406879E+04  0.41247348116E+04  0.15294330000E+03 0.  0.
<mgrwt>
<rscale>  0 0.70227282E+03</rscale>
<asrwt>0</asrwt>
<pdfrwt beam="1">  1        1 0.43358864E-01 0.79882002E+03</pdfrwt>
<pdfrwt beam="2">  1       -1 0.72402686E+00 0.79882002E+03</pdfrwt>
<totfact> 0.16551572E-02</totfact>
</mgrwt>
</event>
<event>
 4    2  0.3884658E-007  0.1326098E+04  0.7818608E-02  0.9043344E-01
          1   -1    0    0  501    0  0.00000000000E+00  0.00000000000E+00  0.99009493858E+03  0.99009493859E+03  0.50400000000E-02 0. -1.
         -1   -1    0    0    0  501 -0.00000000000E+00 -0.00000000000E+00 -0.17131832540E+04  0.17131832540E+04  0.50400000000E-02 0.  1.
    8880023    1    1    2    0    0  0.67932802296E+03 -0.92910692655E+03 -0.78414216221E+03  0.15405892965E+04  0.65864270000E+03 0.  0.
    8880022    1    1    2    0    0 -0.67932802296E+03  0.92910692655E+03  0.61053846823E+02  0.11626888960E+04  0.15294330000E+03 0.  0.
<mgrwt>
<rscale>  0 0.12827669E+04</rscale>
<asrwt>0</asrwt>
<pdfrwt beam="1">  1        1 0.15232230E+00 0.13260982E+04</pdfrwt>
<pdfrwt beam="2">  1       -1 0.26356665E+00 0.13260982E+04</pdfrwt>
<totfact> 0.84890331E-01</totfact>
</mgrwt>
</event>
<event>
 4    2  0.4549072E-007  0.8111674E+03  0.7818608E-02  0.9687150E-01
          1   -1    0    0  501    0  0.00000000000E+00  0.00000000000E+00  0.19164152245E+04  0.19164152245E+04  0.50400000000E-02 0. -1.
         -1   -1    0    0    0  501 -0.00000000000E+00 -0.00000000000E+00 -0.64802591225E+03  0.64802591227E+03  0.50400000000E-02 0.  1.
    8880023    1    1    2    0    0  0.21227191923E+03  0.42322924549E+03  0.17141561844E+04  0.18963976357E+04  0.65864270000E+03 0. -1.
    8880022    1    1    2    0    0 -0.21227191923E+03 -0.42322924549E+03 -0.44576687219E+03  0.66804350104E+03  0.15294330000E+03 0.  0.
<mgrwt>
<rscale>  0 0.71787033E+03</rscale>
<asrwt>0</asrwt>
<pdfrwt beam="1">  1        1 0.29483311E+00 0.81116741E+03</pdfrwt>
<pdfrwt beam="2">  1       -1 0.99696293E-01 0.81116741E+03</pdfrwt>
<totfact> 0.33869428E+00</totfact>
</mgrwt>
</event>
<event>
 4    2  0.3884658E-007  0.8600319E+03  0.7818608E-02  0.9593507E-01
          1   -1    0    0  501    0  0.00000000000E+00  0.00000000000E+00  0.39304882244E+03  0.39304882247E+03  0.50400000000E-02 0. -1.
         -1   -1    0    0    0  501 -0.00000000000E+00 -0.00000000000E+00 -0.17354236949E+04  0.17354236949E+04  0.50400000000E-02 0.  1.
    8880023    1    1    2    0    0 -0.42902766622E+03  0.34896980258E+03 -0.25175589699E+03  0.89612270333E+03  0.65864270000E+03 0.  0.
    8880022    1    1    2    0    0  0.42902766622E+03 -0.34896980258E+03 -0.10906189754E+04  0.12323498140E+04  0.15294330000E+03 0.  0.
<mgrwt>
<rscale>  0 0.77727444E+03</rscale>
<asrwt>0</asrwt>
<pdfrwt beam="1">  1        1 0.60469051E-01 0.86003190E+03</pdfrwt>
<pdfrwt beam="2">  1       -1 0.26698826E+00 0.86003190E+03</pdfrwt>
<totfact> 0.34116455E+00</totfact>
</mgrwt>
</event>
<event>
 4    2  0.3884658E-007  0.7067044E+03  0.7818608E-02  0.9970449E-01
         -1   -1    0    0    0  501 -0.00000000000E+00  0.00000000000E+00  0.39548631763E+03  0.39548631766E+03  0.50400000000E-02 0.  1.
          1   -1    0    0  501    0  0.00000000000E+00 -0.00000000000E+00 -0.75045877862E+03  0.75045877864E+03  0.50400000000E-02 0. -1.
    8880023    1    1    2    0    0 -0.93039203994E+02 -0.23867258126E+03 -0.44398745418E+03  0.83459928125E+03  0.65864270000E+03 0. -1.
    8880022    1    1    2    0    0  0.93039203994E+02  0.23867258126E+03  0.89014993194E+02  0.31134581505E+03  0.15294330000E+03 0.  0.
<mgrwt>
<rscale>  0 0.56965216E+03</rscale>
<asrwt>0</asrwt>
<pdfrwt beam="1">  1        1 0.11545520E+00 0.70670439E+03</pdfrwt>
<pdfrwt beam="2">  1       -1 0.60844049E-01 0.70670439E+03</pdfrwt>
<totfact> 0.68682669E+01</totfact>
</mgrwt>
</event>
<event>
 4    2  0.3884658E-007  0.8074694E+03  0.7818608E-02  0.9694872E-01
         -1   -1    0    0    0  501 -0.00000000000E+00  0.00000000000E+00  0.62410462406E+03  0.62410462408E+03  0.50400000000E-02 0.  1.
          1   -1    0    0  501    0  0.00000000000E+00 -0.00000000000E+00 -0.67651660511E+03  0.67651660513E+03  0.50400000000E-02 0. -1.
    8880023    1    1    2    0    0  0.12346864257E+03 -0.45050215532E+03 -0.51401097568E+02  0.80910381085E+03  0.65864270000E+03 0. -1.
    8880022    1    1    2    0    0 -0.12346864257E+03  0.45050215532E+03 -0.10108834838E+01  0.49151741835E+03  0.15294330000E+03 0.  1.
<mgrwt>
<rscale>  0 0.71322913E+03</rscale>
<asrwt>0</asrwt>
<pdfrwt beam="1">  1        1 0.10407948E+00 0.80746944E+03</pdfrwt>
<pdfrwt beam="2">  1       -1 0.96016097E-01 0.80746944E+03</pdfrwt>
<totfact> 0.30559039E+01</totfact>
</mgrwt>
</event>
<event>
 4    2  0.3884658E-007  0.7207760E+03  0.7818608E-02  0.9919969E-01
         -1   -1    0    0    0  501 -0.00000000000E+00  0.00000000000E+00  0.41218396275E+03  0.41218396278E+03  0.50400000000E-02 0.  1.
          1   -1    0    0  501    0  0.00000000000E+00 -0.00000000000E+00 -0.99264647940E+03  0.99264647941E+03  0.50400000000E-02 0. -1.
    8880023    1    1    2    0    0 -0.27566504353E+03 -0.98572920597E+02 -0.74432435187E+03  0.10361162020E+04  0.65864270000E+03 0. -1.
    8880022    1    1    2    0    0  0.27566504353E+03  0.98572920597E+02  0.16386183522E+03  0.36871424024E+03  0.15294330000E+03 0.  0.
<mgrwt>
<rscale>  0 0.59303193E+03</rscale>
<asrwt>0</asrwt>
<pdfrwt beam="1">  1        1 0.15271484E+00 0.72077600E+03</pdfrwt>
<pdfrwt beam="2">  1       -1 0.63412917E-01 0.72077600E+03</pdfrwt>
<totfact> 0.39778671E+01</totfact>
</mgrwt>
</event>
<event>
 4    2  0.3884658E-007  0.7596962E+03  0.7818608E-02  0.9805895E-01
         -1   -1    0    0    0  501 -0.00000000000E+00  0.00000000000E+00  0.38407572599E+03  0.38407572602E+03  0.50400000000E-02 0.  1.
          1   -1    0    0  501    0  0.00000000000E+00 -0.00000000000E+00 -0.10030922006E+04  0.10030922006E+04  0.50400000000E-02 0. -1.
    8880023    1    1    2    0    0 -0.32097619622E+03 -0.20075459873E+03 -0.61726054794E+03  0.97885081486E+03  0.65864270000E+03 0. -1.
    8880022    1    1    2    0    0  0.32097619622E+03  0.20075459873E+03 -0.17559266490E+01  0.40831711175E+03  0.15294330000E+03 0.  0.
<mgrwt>
<rscale>  0 0.65047163E+03</rscale>
<asrwt>0</asrwt>
<pdfrwt beam="1">  1        1 0.15432188E+00 0.75969621E+03</pdfrwt>
<pdfrwt beam="2">  1       -1 0.59088574E-01 0.75969621E+03</pdfrwt>
<totfact> 0.44723363E+01</totfact>
</mgrwt>
</event>
<event>
 4    2  0.3884658E-007  0.8243375E+03  0.7818608E-02  0.9660452E-01
          1   -1    0    0  501    0  0.00000000000E+00  0.00000000000E+00  0.10473419162E+04  0.10473419162E+04  0.50400000000E-02 0. -1.
         -1   -1    0    0    0  501 -0.00000000000E+00 -0.00000000000E+00 -0.92571060594E+03  0.92571060595E+03  0.50400000000E-02 0.  1.
    8880023    1    1    2    0    0 -0.16600639140E+03  0.46708033419E+03  0.77999391866E+03  0.11348668997E+04  0.65864270000E+03 0. -1.
    8880022    1    1    2    0    0  0.16600639140E+03 -0.46708033419E+03 -0.65836260840E+03  0.83818562248E+03  0.15294330000E+03 0.  0.
<mgrwt>
<rscale>  0 0.73421086E+03</rscale>
<asrwt>0</asrwt>
<pdfrwt beam="1">  1        1 0.16112953E+00 0.82433753E+03</pdfrwt>
<pdfrwt beam="2">  1       -1 0.14241702E+00 0.82433753E+03</pdfrwt>
<totfact> 0.57104615E+00</totfact>
</mgrwt>
</event>
<event>
 4    2  0.3884658E-007  0.8069741E+03  0.7818608E-02  0.9695915E-01
          1   -1    0    0  501    0  0.00000000000E+00  0.00000000000E+00  0.38391370203E+03  0.38391370206E+03  0.50400000000E-02 0. -1.
         -1   -1    0    0    0  501 -0.00000000000E+00 -0.00000000000E+00 -0.15870122563E+04  0.15870122563E+04  0.50400000000E-02 0.  1.
    8880023    1    1    2    0    0  0.31684465869E+03 -0.34206194441E+03 -0.16638885427E+03  0.82394925126E+03  0.65864270000E+03 0.  0.
    8880022    1    1    2    0    0 -0.31684465869E+03  0.34206194441E+03 -0.10367097000E+04  0.11469767071E+04  0.15294330000E+03 0.  0.
<mgrwt>
<rscale>  0 0.71260548E+03</rscale>
<asrwt>0</asrwt>
<pdfrwt beam="1">  1        1 0.59063648E-01 0.80697405E+03</pdfrwt>
<pdfrwt beam="2">  1       -1 0.24415573E+00 0.80697405E+03</pdfrwt>
<totfact> 0.49748009E+00</totfact>
</mgrwt>
</event>
<event>
 4    2  0.3884658E-007  0.7502865E+03  0.7818608E-02  0.9830936E-01
         -1   -1    0    0    0  501 -0.00000000000E+00  0.00000000000E+00  0.30043425769E+03  0.30043425773E+03  0.50400000000E-02 0.  1.
          1   -1    0    0  501    0  0.00000000000E+00 -0.00000000000E+00 -0.13328000071E+04  0.13328000071E+04  0.50400000000E-02 0. -1.
    8880023    1    1    2    0    0  0.34697971387E+03 -0.93406395880E+02 -0.98741570805E+03  0.12401288898E+04  0.65864270000E+03 0.  0.
    8880022    1    1    2    0    0 -0.34697971387E+03  0.93406395880E+02 -0.44950041362E+02  0.39310537501E+03  0.15294330000E+03 0.  0.
<mgrwt>
<rscale>  0 0.63728416E+03</rscale>
<asrwt>0</asrwt>
<pdfrwt beam="1">  1        1 0.20504615E+00 0.75028653E+03</pdfrwt>
<pdfrwt beam="2">  1       -1 0.46220656E-01 0.75028653E+03</pdfrwt>
<totfact> 0.41039457E+01</totfact>
</mgrwt>
</event>
<event>
 4    2  0.3884658E-007  0.7593602E+03  0.7818608E-02  0.9806767E-01
          1   -1    0    0  501    0  0.00000000000E+00  0.00000000000E+00  0.18155519340E+04  0.18155519340E+04  0.50400000000E-02 0. -1.
         -1   -1    0    0    0  501 -0.00000000000E+00 -0.00000000000E+00 -0.46261758566E+03  0.46261758569E+03  0.50400000000E-02 0.  1.
    8880023    1    1    2    0    0  0.37788224902E+03  0.47684924153E+01  0.16211371839E+04  0.17901714186E+04  0.65864270000E+03 0.  0.
    8880022    1    1    2    0    0 -0.37788224902E+03 -0.47684924153E+01 -0.26820283558E+03  0.48799810109E+03  0.15294330000E+03 0.  0.
<mgrwt>
<rscale>  0 0.65000669E+03</rscale>
<asrwt>0</asrwt>
<pdfrwt beam="1">  1        1 0.27931568E+00 0.75936022E+03</pdfrwt>
<pdfrwt beam="2">  1       -1 0.71171936E-01 0.75936022E+03</pdfrwt>
<totfact> 0.82650182E+00</totfact>
</mgrwt>
</event>
<event>
 4    2  0.3884658E-007  0.8985630E+03  0.7818608E-02  0.9528342E-01
         -1   -1    0    0    0  501 -0.00000000000E+00  0.00000000000E+00  0.23154039936E+03  0.23154039942E+03  0.50400000000E-02 0.  1.
          1   -1    0    0  501    0  0.00000000000E+00 -0.00000000000E+00 -0.42363461530E+04  0.42363461530E+04  0.50400000000E-02 0. -1.
    8880023    1    1    2    0    0 -0.78135967002E+02  0.60621774007E+03 -0.36194250668E+04  0.37292966090E+04  0.65864270000E+03 0. -1.
    8880022    1    1    2    0    0  0.78135967002E+02 -0.60621774007E+03 -0.38538068690E+03  0.73858994345E+03  0.15294330000E+03 0.  0.
<mgrwt>
<rscale>  0 0.82226113E+03</rscale>
<asrwt>0</asrwt>
<pdfrwt beam="1">  1        1 0.65174551E+00 0.89856295E+03</pdfrwt>
<pdfrwt beam="2">  1       -1 0.35621603E-01 0.89856295E+03</pdfrwt>
<totfact> 0.47580740E-01</totfact>
</mgrwt>
</event>
<event>
 4    2  0.3884658E-007  0.7342155E+03  0.7818608E-02  0.9877129E-01
         -1   -1    0    0    0  501 -0.00000000000E+00  0.00000000000E+00  0.31221722995E+03  0.31221722999E+03  0.50400000000E-02 0.  1.
          1   -1    0    0  501    0  0.00000000000E+00 -0.00000000000E+00 -0.14837742718E+04  0.14837742718E+04  0.50400000000E-02 0. -1.
    8880023    1    1    2    0    0 -0.15239170086E+03  0.28642432727E+03 -0.12301052466E+04  0.14325610807E+04  0.65864270000E+03 0.  0.
    8880022    1    1    2    0    0  0.15239170086E+03 -0.28642432727E+03  0.58548204745E+02  0.36343042118E+03  0.15294330000E+03 0.  0.
<mgrwt>
<rscale>  0 0.61382625E+03</rscale>
<asrwt>0</asrwt>
<pdfrwt beam="1">  1        1 0.22827296E+00 0.73421545E+03</pdfrwt>
<pdfrwt beam="2">  1       -1 0.48033421E-01 0.73421545E+03</pdfrwt>
<totfact> 0.30062438E+01</totfact>
</mgrwt>
</event>
<event>
 4    2  0.3884658E-007  0.9700788E+03  0.7818608E-02  0.9421795E-01
         -1   -1    0    0    0  501 -0.00000000000E+00  0.00000000000E+00  0.11000216935E+04  0.11000216935E+04  0.50400000000E-02 0.  1.
          1   -1    0    0  501    0  0.00000000000E+00 -0.00000000000E+00 -0.65580453933E+03  0.65580453934E+03  0.50400000000E-02 0. -1.
    8880023    1    1    2    0    0 -0.35861542736E+00 -0.71220957131E+03  0.26632245311E+03  0.10059723939E+04  0.65864270000E+03 0.  0.
    8880022    1    1    2    0    0  0.35861542736E+00  0.71220957131E+03  0.17789470108E+03  0.74985383893E+03  0.15294330000E+03 0. -1.
<mgrwt>
<rscale>  0 0.90303516E+03</rscale>
<asrwt>0</asrwt>
<pdfrwt beam="1">  1        1 0.10089301E+00 0.97007876E+03</pdfrwt>
<pdfrwt beam="2">  1       -1 0.16923411E+00 0.97007876E+03</pdfrwt>
<totfact> 0.75371829E+00</totfact>
</mgrwt>
</event>
<event>
 4    2  0.3884658E-007  0.7214210E+03  0.7818608E-02  0.9917807E-01
          1   -1    0    0  501    0  0.00000000000E+00  0.00000000000E+00  0.81517890766E+03  0.81517890767E+03  0.50400000000E-02 0. -1.
         -1   -1    0    0    0  501 -0.00000000000E+00 -0.00000000000E+00 -0.58568954728E+03  0.58568954730E+03  0.50400000000E-02 0.  1.
    8880023    1    1    2    0    0  0.29269520119E+03 -0.31105566785E+02  0.57452935559E+03  0.92224303944E+03  0.65864270000E+03 0. -1.
    8880022    1    1    2    0    0 -0.29269520119E+03  0.31105566785E+02 -0.34503999522E+03  0.47862541554E+03  0.15294330000E+03 0.  0.
<mgrwt>
<rscale>  0 0.59406001E+03</rscale>
<asrwt>0</asrwt>
<pdfrwt beam="1">  1        1 0.12541214E+00 0.72142099E+03</pdfrwt>
<pdfrwt beam="2">  1       -1 0.90106085E-01 0.72142099E+03</pdfrwt>
<totfact> 0.26602879E+01</totfact>
</mgrwt>
</event>
<event>
 4    2  0.3884658E-007  0.1049428E+04  0.7818608E-02  0.9319570E-01
         -1   -1    0    0    0  501 -0.00000000000E+00  0.00000000000E+00  0.11376818472E+04  0.11376818472E+04  0.50400000000E-02 0.  1.
          1   -1    0    0  501    0  0.00000000000E+00 -0.00000000000E+00 -0.16213593770E+04  0.16213593770E+04  0.50400000000E-02 0. -1.
    8880023    1    1    2    0    0  0.40778819920E+03  0.70795262207E+03 -0.12474926878E+04  0.16301951855E+04  0.65864270000E+03 0. -1.
    8880022    1    1    2    0    0 -0.40778819920E+03 -0.70795262207E+03  0.76381515796E+03  0.11288460387E+04  0.15294330000E+03 0.  0.
<mgrwt>
<rscale>  0 0.99001022E+03</rscale>
<asrwt>0</asrwt>
<pdfrwt beam="1">  1        1 0.24943990E+00 0.10494276E+04</pdfrwt>
<pdfrwt beam="2">  1       -1 0.17502798E+00 0.10494276E+04</pdfrwt>
<totfact> 0.12196188E+00</totfact>
</mgrwt>
</event>
<event>
 4    2  0.3884658E-007  0.7923237E+03  0.7818608E-02  0.9727646E-01
          1   -1    0    0  501    0  0.00000000000E+00  0.00000000000E+00  0.15882900502E+04  0.15882900502E+04  0.50400000000E-02 0. -1.
         -1   -1    0    0    0  501 -0.00000000000E+00 -0.00000000000E+00 -0.85955570967E+03  0.85955570968E+03  0.50400000000E-02 0.  1.
    8880023    1    1    2    0    0  0.27280337738E+03 -0.34575275779E+03  0.14129212394E+04  0.16199145926E+04  0.65864270000E+03 0. -1.
    8880022    1    1    2    0    0 -0.27280337738E+03  0.34575275779E+03 -0.68418689887E+03  0.82793116732E+03  0.15294330000E+03 0.  0.
<mgrwt>
<rscale>  0 0.69394335E+03</rscale>
<asrwt>0</asrwt>
<pdfrwt beam="1">  1        1 0.24435231E+00 0.79232371E+03</pdfrwt>
<pdfrwt beam="2">  1       -1 0.13223934E+00 0.79232371E+03</pdfrwt>
<totfact> 0.28664081E+00</totfact>
</mgrwt>
</event>
<event>
 4    2  0.3884658E-007  0.7011561E+03  0.7818608E-02  0.9992439E-01
          1   -1    0    0  501    0  0.00000000000E+00  0.00000000000E+00  0.96423818126E+03  0.96423818128E+03  0.50400000000E-02 0. -1.
         -1   -1    0    0    0  501 -0.00000000000E+00 -0.00000000000E+00 -0.49936401481E+03  0.49936401483E+03  0.50400000000E-02 0.  1.
    8880023    1    1    2    0    0 -0.55603038321E+02 -0.23391870920E+03  0.77319355528E+03  0.10437663247E+04  0.65864270000E+03 0. -1.
    8880022    1    1    2    0    0  0.55603038321E+02  0.23391870920E+03 -0.30831938882E+03  0.41983587141E+03  0.15294330000E+03 0.  0.
<mgrwt>
<rscale>  0 0.55983032E+03</rscale>
<asrwt>0</asrwt>
<pdfrwt beam="1">  1        1 0.14834434E+00 0.70115609E+03</pdfrwt>
<pdfrwt beam="2">  1       -1 0.76825233E-01 0.70115609E+03</pdfrwt>
<totfact> 0.28348182E+01</totfact>
</mgrwt>
</event>
<event>
 4    2  0.3884658E-007  0.7200410E+03  0.7818608E-02  0.9922447E-01
         -1   -1    0    0    0  501 -0.00000000000E+00  0.00000000000E+00  0.46777898547E+03  0.46777898549E+03  0.50400000000E-02 0.  1.
          1   -1    0    0  501    0  0.00000000000E+00 -0.00000000000E+00 -0.91649946531E+03  0.91649946532E+03  0.50400000000E-02 0. -1.
    8880023    1    1    2    0    0 -0.27925557934E+03  0.81640032451E+02 -0.67361461204E+03  0.98600995193E+03  0.65864270000E+03 0.  0.
    8880022    1    1    2    0    0  0.27925557934E+03 -0.81640032451E+02  0.22489413220E+03  0.39826849888E+03  0.15294330000E+03 0.  0.
<mgrwt>
<rscale>  0 0.59185618E+03</rscale>
<asrwt>0</asrwt>
<pdfrwt beam="1">  1        1 0.14099992E+00 0.72004096E+03</pdfrwt>
<pdfrwt beam="2">  1       -1 0.71965998E-01 0.72004096E+03</pdfrwt>
<totfact> 0.35361729E+01</totfact>
</mgrwt>
</event>
<event>
 4    2  0.3884658E-007  0.7863607E+03  0.7818608E-02  0.9741102E-01
          1   -1    0    0  501    0  0.00000000000E+00  0.00000000000E+00  0.33653071183E+04  0.33653071183E+04  0.50400000000E-02 0. -1.
         -1   -1    0    0    0  501 -0.00000000000E+00 -0.00000000000E+00 -0.21245954657E+03  0.21245954663E+03  0.50400000000E-02 0.  1.
    8880023    1    1    2    0    0  0.26630165480E+03  0.33709984507E+03  0.29929604082E+04  0.30945395599E+04  0.65864270000E+03 0. -1.
    8880022    1    1    2    0    0 -0.26630165480E+03 -0.33709984507E+03  0.15988716352E+03  0.48322710496E+03  0.15294330000E+03 0.  0.
<mgrwt>
<rscale>  0 0.68621431E+03</rscale>
<asrwt>0</asrwt>
<pdfrwt beam="1">  1        1 0.51773953E+00 0.78636066E+03</pdfrwt>
<pdfrwt beam="2">  1       -1 0.32686086E-01 0.78636066E+03</pdfrwt>
<totfact> 0.29909433E+00</totfact>
</mgrwt>
</event>
<event>
 4    2  0.3884658E-007  0.7419125E+03  0.7818608E-02  0.9854411E-01
          1   -1    0    0  501    0  0.00000000000E+00  0.00000000000E+00  0.33039406366E+03  0.33039406370E+03  0.50400000000E-02 0. -1.
         -1   -1    0    0    0  501 -0.00000000000E+00 -0.00000000000E+00 -0.15383775825E+04  0.15383775825E+04  0.50400000000E-02 0.  1.
    8880023    1    1    2    0    0  0.20958866515E+03 -0.26962299695E+03 -0.12877466187E+04  0.14861781620E+04  0.65864270000E+03 0.  0.
    8880022    1    1    2    0    0 -0.20958866515E+03  0.26962299695E+03  0.79763099839E+02  0.38259348420E+03  0.15294330000E+03 0.  0.
<mgrwt>
<rscale>  0 0.62522536E+03</rscale>
<asrwt>0</asrwt>
<pdfrwt beam="1">  1        1 0.50829856E-01 0.74191251E+03</pdfrwt>
<pdfrwt beam="2">  1       -1 0.23667347E+00 0.74191251E+03</pdfrwt>
<totfact> 0.68342623E+00</totfact>
</mgrwt>
</event>
<event>
 4    2  0.3884658E-007  0.1091270E+04  0.7818608E-02  0.9270839E-01
          1   -1    0    0  501    0  0.00000000000E+00  0.00000000000E+00  0.17249398825E+04  0.17249398826E+04  0.50400000000E-02 0. -1.
         -1   -1    0    0    0  501 -0.00000000000E+00 -0.00000000000E+00 -0.66843187916E+03  0.66843187918E+03  0.50400000000E-02 0.  1.
    8880023    1    1    2    0    0 -0.27361765641E+03 -0.82595004259E+03  0.10434348555E+04  0.15098432365E+04  0.65864270000E+03 0.  0.
    8880022    1    1    2    0    0  0.27361765641E+03  0.82595004259E+03  0.13073147888E+02  0.88352852527E+03  0.15294330000E+03 0.  0.
<mgrwt>
<rscale>  0 0.10351241E+04</rscale>
<asrwt>0</asrwt>
<pdfrwt beam="1">  1        1 0.26537536E+00 0.10912700E+04</pdfrwt>
<pdfrwt beam="2">  1       -1 0.10283568E+00 0.10912700E+04</pdfrwt>
<totfact> 0.40813249E+00</totfact>
</mgrwt>
</event>
<event>
 4    2  0.3884658E-007  0.1048178E+04  0.7818608E-02  0.9321075E-01
          1   -1    0    0  501    0  0.00000000000E+00  0.00000000000E+00  0.19189862980E+04  0.19189862980E+04  0.50400000000E-02 0. -1.
         -1   -1    0    0    0  501 -0.00000000000E+00 -0.00000000000E+00 -0.65822618267E+03  0.65822618269E+03  0.50400000000E-02 0.  1.
    8880023    1    1    2    0    0  0.60808362194E+03  0.54323158774E+03  0.13865056239E+04  0.17381237874E+04  0.65864270000E+03 0.  0.
    8880022    1    1    2    0    0 -0.60808362194E+03 -0.54323158774E+03 -0.12574550856E+03  0.83908869324E+03  0.15294330000E+03 0.  0.
<mgrwt>
<rscale>  0 0.98865572E+03</rscale>
<asrwt>0</asrwt>
<pdfrwt beam="1">  1        1 0.29522866E+00 0.10481777E+04</pdfrwt>
<pdfrwt beam="2">  1       -1 0.10126557E+00 0.10481777E+04</pdfrwt>
<totfact> 0.31431520E+00</totfact>
</mgrwt>
</event>
<event>
 4    2  0.3884658E-007  0.9052549E+03  0.7818608E-02  0.9517648E-01
          1   -1    0    0  501    0  0.00000000000E+00  0.00000000000E+00  0.16472531494E+04  0.16472531494E+04  0.50400000000E-02 0. -1.
         -1   -1    0    0    0  501 -0.00000000000E+00 -0.00000000000E+00 -0.69659078818E+03  0.69659078820E+03  0.50400000000E-02 0.  1.
    8880023    1    1    2    0    0 -0.32879444525E+03 -0.52684948292E+03  0.13235342596E+04  0.16035053188E+04  0.65864270000E+03 0. -1.
    8880022    1    1    2    0    0  0.32879444525E+03  0.52684948292E+03 -0.37287189836E+03  0.74033861880E+03  0.15294330000E+03 0.  0.
<mgrwt>
<rscale>  0 0.82995121E+03</rscale>
<asrwt>0</asrwt>
<pdfrwt beam="1">  1        1 0.25342356E+00 0.90525487E+03</pdfrwt>
<pdfrwt beam="2">  1       -1 0.10716781E+00 0.90525487E+03</pdfrwt>
<totfact> 0.42862614E+00</totfact>
</mgrwt>
</event>
<event>
 4    2  0.3884658E-007  0.6802558E+03  0.7818608E-02  0.1009179E+00
         -1   -1    0    0    0  501 -0.00000000000E+00  0.00000000000E+00  0.18065959064E+03  0.18065959071E+03  0.50400000000E-02 0.  1.
          1   -1    0    0  501    0  0.00000000000E+00 -0.00000000000E+00 -0.17466266339E+04  0.17466266339E+04  0.50400000000E-02 0. -1.
    8880023    1    1    2    0    0 -0.66038675753E+02 -0.15676949866E+03 -0.15561290834E+04  0.16983184957E+04  0.65864270000E+03 0. -1.
    8880022    1    1    2    0    0  0.66038675753E+02  0.15676949866E+03 -0.98379598457E+01  0.22896772889E+03  0.15294330000E+03 0.  0.
<mgrwt>
<rscale>  0 0.51802111E+03</rscale>
<asrwt>0</asrwt>
<pdfrwt beam="1">  1        1 0.26871178E+00 0.68025583E+03</pdfrwt>
<pdfrwt beam="2">  1       -1 0.27793784E-01 0.68025583E+03</pdfrwt>
<totfact> 0.53638094E+01</totfact>
</mgrwt>
</event>
<event>
 4    2  0.3884658E-007  0.7237881E+03  0.7818608E-02  0.9909971E-01
          1   -1    0    0  501    0  0.00000000000E+00  0.00000000000E+00  0.31660038761E+03  0.31660038765E+03  0.50400000000E-02 0. -1.
         -1   -1    0    0    0  501 -0.00000000000E+00 -0.00000000000E+00 -0.14979156041E+04  0.14979156041E+04  0.50400000000E-02 0.  1.
    8880023    1    1    2    0    0  0.61367971798E+02  0.29375678345E+03 -0.16296443175E+03  0.74190746597E+03  0.65864270000E+03 0.  0.
    8880022    1    1    2    0    0 -0.61367971798E+02 -0.29375678345E+03 -0.10183507848E+04  0.10726085258E+04  0.15294330000E+03 0.  0.
<mgrwt>
<rscale>  0 0.59780496E+03</rscale>
<asrwt>0</asrwt>
<pdfrwt beam="1">  1        1 0.48707753E-01 0.72378815E+03</pdfrwt>
<pdfrwt beam="2">  1       -1 0.23044855E+00 0.72378815E+03</pdfrwt>
<totfact> 0.79526219E+00</totfact>
</mgrwt>
</event>
<event>
 4    2  0.3884658E-007  0.8891094E+03  0.7818608E-02  0.9543746E-01
          1   -1    0    0  501    0  0.00000000000E+00  0.00000000000E+00  0.30685513196E+04  0.30685513196E+04  0.50400000000E-02 0. -1.
         -1   -1    0    0    0  501 -0.00000000000E+00 -0.00000000000E+00 -0.76575637066E+03  0.76575637067E+03  0.50400000000E-02 0.  1.
    8880023    1    1    2    0    0  0.57947434424E+03 -0.14461949708E+03  0.28650912854E+04  0.29998772632E+04  0.65864270000E+03 0.  0.
    8880022    1    1    2    0    0 -0.57947434424E+03  0.14461949708E+03 -0.56229633645E+03  0.83443042704E+03  0.15294330000E+03 0.  0.
<mgrwt>
<rscale>  0 0.81134059E+03</rscale>
<asrwt>0</asrwt>
<pdfrwt beam="1">  1        1 0.47208481E+00 0.88910940E+03</pdfrwt>
<pdfrwt beam="2">  1       -1 0.11780868E+00 0.88910940E+03</pdfrwt>
<totfact> 0.36258744E-01</totfact>
</mgrwt>
</event>
<event>
 4    2  0.3884658E-007  0.1077196E+04  0.7818608E-02  0.9286881E-01
          1   -1    0    0  501    0  0.00000000000E+00  0.00000000000E+00  0.10727531853E+04  0.10727531853E+04  0.50400000000E-02 0. -1.
         -1   -1    0    0    0  501 -0.00000000000E+00 -0.00000000000E+00 -0.12817011530E+04  0.12817011530E+04  0.50400000000E-02 0.  1.
    8880023    1    1    2    0    0  0.80272901564E+03 -0.28664671502E+03  0.54412747226E+03  0.12068243966E+04  0.65864270000E+03 0.  0.
    8880022    1    1    2    0    0 -0.80272901564E+03  0.28664671502E+03 -0.75307544002E+03  0.11476299417E+04  0.15294330000E+03 0.  0.
<mgrwt>
<rscale>  0 0.10199965E+04</rscale>
<asrwt>0</asrwt>
<pdfrwt beam="1">  1        1 0.16503895E+00 0.10771956E+04</pdfrwt>
<pdfrwt beam="2">  1       -1 0.19718479E+00 0.10771956E+04</pdfrwt>
<totfact> 0.20816070E+00</totfact>
</mgrwt>
</event>
<event>
 4    2  0.3884658E-007  0.7725261E+03  0.7818608E-02  0.9773695E-01
          1   -1    0    0  501    0  0.00000000000E+00  0.00000000000E+00  0.98938336167E+03  0.98938336168E+03  0.50400000000E-02 0. -1.
         -1   -1    0    0    0  501 -0.00000000000E+00 -0.00000000000E+00 -0.63792170214E+03  0.63792170216E+03  0.50400000000E-02 0.  1.
    8880023    1    1    2    0    0 -0.13493562240E+03 -0.38049801568E+03  0.72273866961E+03  0.10578977989E+04  0.65864270000E+03 0. -1.
    8880022    1    1    2    0    0  0.13493562240E+03  0.38049801568E+03 -0.37127701008E+03  0.56940726493E+03  0.15294330000E+03 0.  0.
<mgrwt>
<rscale>  0 0.66793500E+03</rscale>
<asrwt>0</asrwt>
<pdfrwt beam="1">  1        1 0.15221282E+00 0.77252610E+03</pdfrwt>
<pdfrwt beam="2">  1       -1 0.98141800E-01 0.77252610E+03</pdfrwt>
<totfact> 0.15763181E+01</totfact>
</mgrwt>
</event>
<event>
 4    2  0.3884658E-007  0.9791301E+03  0.7818608E-02  0.9409386E-01
          1   -1    0    0  501    0  0.00000000000E+00  0.00000000000E+00  0.14652317484E+04  0.14652317484E+04  0.50400000000E-02 0. -1.
         -1   -1    0    0    0  501 -0.00000000000E+00 -0.00000000000E+00 -0.60660994176E+03  0.60660994178E+03  0.50400000000E-02 0.  1.
    8880023    1    1    2    0    0  0.26981635691E+03 -0.67237239613E+03  0.57322610434E+02  0.98080660350E+03  0.65864270000E+03 0.  0.
    8880022    1    1    2    0    0 -0.26981635691E+03  0.67237239613E+03  0.80129919620E+03  0.10910350867E+04  0.15294330000E+03 0.  0.
<mgrwt>
<rscale>  0 0.91307261E+03</rscale>
<asrwt>0</asrwt>
<pdfrwt beam="1">  1        1 0.22542027E+00 0.97913008E+03</pdfrwt>
<pdfrwt beam="2">  1       -1 0.93324606E-01 0.97913008E+03</pdfrwt>
<totfact> 0.77674046E+00</totfact>
</mgrwt>
</event>
<event>
 4    2  0.3884658E-007  0.8635137E+03  0.7818608E-02  0.9587344E-01
          1   -1    0    0  501    0  0.00000000000E+00  0.00000000000E+00  0.26694354219E+04  0.26694354220E+04  0.50400000000E-02 0. -1.
         -1   -1    0    0    0  501 -0.00000000000E+00 -0.00000000000E+00 -0.43303606144E+03  0.43303606147E+03  0.50400000000E-02 0.  1.
    8880023    1    1    2    0    0 -0.13848148053E+03  0.54098850756E+03  0.23577413467E+04  0.25108962842E+04  0.65864270000E+03 0. -1.
    8880022    1    1    2    0    0  0.13848148053E+03 -0.54098850756E+03 -0.12134198617E+03  0.59157519926E+03  0.15294330000E+03 0.  0.
<mgrwt>
<rscale>  0 0.78139561E+03</rscale>
<asrwt>0</asrwt>
<pdfrwt beam="1">  1        1 0.41068238E+00 0.86351369E+03</pdfrwt>
<pdfrwt beam="2">  1       -1 0.66620932E-01 0.86351369E+03</pdfrwt>
<totfact> 0.24581536E+00</totfact>
</mgrwt>
</event>
<event>
 4    2  0.3884658E-007  0.6936542E+03  0.7818608E-02  0.1002462E+00
          1   -1    0    0  501    0  0.00000000000E+00  0.00000000000E+00  0.47922153652E+03  0.47922153655E+03  0.50400000000E-02 0. -1.
         -1   -1    0    0    0  501 -0.00000000000E+00 -0.00000000000E+00 -0.87778972402E+03  0.87778972404E+03  0.50400000000E-02 0.  1.
    8880023    1    1    2    0    0 -0.10348312274E+03 -0.19140826349E+03  0.18310689247E+03  0.71741495688E+03  0.65864270000E+03 0. -1.
    8880022    1    1    2    0    0  0.10348312274E+03  0.19140826349E+03 -0.58167507998E+03  0.63959630370E+03  0.15294330000E+03 0.  0.
<mgrwt>
<rscale>  0 0.54583764E+03</rscale>
<asrwt>0</asrwt>
<pdfrwt beam="1">  1        1 0.73726390E-01 0.69365415E+03</pdfrwt>
<pdfrwt beam="2">  1       -1 0.13504457E+00 0.69365415E+03</pdfrwt>
<totfact> 0.22312230E+01</totfact>
</mgrwt>
</event>
<event>
 4    2  0.3884658E-007  0.7712148E+03  0.7818608E-02  0.9776894E-01
          1   -1    0    0  501    0  0.00000000000E+00  0.00000000000E+00  0.14974679048E+04  0.14974679048E+04  0.50400000000E-02 0. -1.
         -1   -1    0    0    0  501 -0.00000000000E+00 -0.00000000000E+00 -0.14842398709E+04  0.14842398709E+04  0.50400000000E-02 0.  1.
    8880023    1    1    2    0    0  0.11517518126E+03 -0.38431329241E+03  0.13625783919E+04  0.15656922141E+04  0.65864270000E+03 0. -1.
    8880022    1    1    2    0    0 -0.11517518126E+03  0.38431329241E+03 -0.13493503580E+04  0.14160155616E+04  0.15294330000E+03 0.  0.
<mgrwt>
<rscale>  0 0.66617447E+03</rscale>
<asrwt>0</asrwt>
<pdfrwt beam="1">  1        1 0.23037968E+00 0.77121478E+03</pdfrwt>
<pdfrwt beam="2">  1       -1 0.22834460E+00 0.77121478E+03</pdfrwt>
<totfact> 0.66934311E-01</totfact>
</mgrwt>
</event>
<event>
 4    2  0.3884658E-007  0.7719077E+03  0.7818608E-02  0.9775201E-01
         -1   -1    0    0    0  501 -0.00000000000E+00  0.00000000000E+00  0.11673086799E+04  0.11673086799E+04  0.50400000000E-02 0.  1.
          1   -1    0    0  501    0  0.00000000000E+00 -0.00000000000E+00 -0.57957868882E+03  0.57957868884E+03  0.50400000000E-02 0. -1.
    8880023    1    1    2    0    0  0.11921316363E+03 -0.38447302638E+03 -0.24462624282E+03  0.80974285507E+03  0.65864270000E+03 0. -1.
    8880022    1    1    2    0    0 -0.11921316363E+03  0.38447302638E+03  0.83235623392E+03  0.93714451370E+03  0.15294330000E+03 0.  0.
<mgrwt>
<rscale>  0 0.66710541E+03</rscale>
<asrwt>0</asrwt>
<pdfrwt beam="1">  1        1 0.89165953E-01 0.77190770E+03</pdfrwt>
<pdfrwt beam="2">  1       -1 0.17958595E+00 0.77190770E+03</pdfrwt>
<totfact> 0.77665190E+00</totfact>
</mgrwt>
</event>
<event>
 4    2  0.3884658E-007  0.7465233E+03  0.7818608E-02  0.9841337E-01
         -1   -1    0    0    0  501 -0.00000000000E+00  0.00000000000E+00  0.26386808754E+04  0.26386808754E+04  0.50400000000E-02 0.  1.
          1   -1    0    0  501    0  0.00000000000E+00 -0.00000000000E+00 -0.46056661242E+03  0.46056661245E+03  0.50400000000E-02 0. -1.
    8880023    1    1    2    0    0 -0.15625865257E+03 -0.31475400434E+03 -0.13153039419E+03  0.75802196578E+03  0.65864270000E+03 0. -1.
    8880022    1    1    2    0    0  0.15625865257E+03  0.31475400434E+03  0.23096446572E+04  0.23412255221E+04  0.15294330000E+03 0.  0.
<mgrwt>
<rscale>  0 0.63190575E+03</rscale>
<asrwt>0</asrwt>
<pdfrwt beam="1">  1        1 0.70856402E-01 0.74652331E+03</pdfrwt>
<pdfrwt beam="2">  1       -1 0.40595090E+00 0.74652331E+03</pdfrwt>
<totfact> 0.34712664E-01</totfact>
</mgrwt>
</event>
<event>
 4    2  0.3884658E-007  0.8789099E+03  0.7818608E-02  0.9560773E-01
          1   -1    0    0  501    0  0.00000000000E+00  0.00000000000E+00  0.13086464051E+04  0.13086464051E+04  0.50400000000E-02 0. -1.
         -1   -1    0    0    0  501 -0.00000000000E+00 -0.00000000000E+00 -0.69736923695E+03  0.69736923697E+03  0.50400000000E-02 0.  1.
    8880023    1    1    2    0    0  0.40212138731E+03  0.42067895288E+03  0.96721899595E+03  0.13069028977E+04  0.65864270000E+03 0. -1.
    8880022    1    1    2    0    0 -0.40212138731E+03 -0.42067895288E+03 -0.35594182784E+03  0.69911274438E+03  0.15294330000E+03 0.  0.
<mgrwt>
<rscale>  0 0.79947786E+03</rscale>
<asrwt>0</asrwt>
<pdfrwt beam="1">  1        1 0.20133021E+00 0.87890989E+03</pdfrwt>
<pdfrwt beam="2">  1       -1 0.10728758E+00 0.87890989E+03</pdfrwt>
<totfact> 0.73543528E+00</totfact>
</mgrwt>
</event>
<event>
 4    2  0.3884658E-007  0.7066957E+03  0.7818608E-02  0.9970482E-01
          1   -1    0    0  501    0  0.00000000000E+00  0.00000000000E+00  0.60589077278E+03  0.60589077281E+03  0.50400000000E-02 0. -1.
         -1   -1    0    0    0  501 -0.00000000000E+00 -0.00000000000E+00 -0.20779695636E+04  0.20779695636E+04  0.50400000000E-02 0.  1.
    8880023    1    1    2    0    0  0.15730274959E+03  0.20214966441E+03  0.38377726397E+03  0.80417898285E+03  0.65864270000E+03 0. -1.
    8880022    1    1    2    0    0 -0.15730274959E+03 -0.20214966441E+03 -0.18558560548E+04  0.18796813536E+04  0.15294330000E+03 0.  0.
<mgrwt>
<rscale>  0 0.56963712E+03</rscale>
<asrwt>0</asrwt>
<pdfrwt beam="1">  1        1 0.93213966E-01 0.70669573E+03</pdfrwt>
<pdfrwt beam="2">  1       -1 0.31968762E+00 0.70669573E+03</pdfrwt>
<totfact> 0.88751382E-01</totfact>
</mgrwt>
</event>
<event>
 4    2  0.3884658E-007  0.7577849E+03  0.7818608E-02  0.9810876E-01
          1   -1    0    0  501    0  0.00000000000E+00  0.00000000000E+00  0.81981163165E+03  0.81981163166E+03  0.50400000000E-02 0. -1.
         -1   -1    0    0    0  501 -0.00000000000E+00 -0.00000000000E+00 -0.41314169178E+03  0.41314169181E+03  0.50400000000E-02 0.  1.
    8880023    1    1    2    0    0 -0.18645958102E+02  0.37427263138E+03  0.23587282832E+03  0.79364593602E+03  0.65864270000E+03 0.  1.
    8880022    1    1    2    0    0  0.18645958102E+02 -0.37427263138E+03  0.17079711154E+03  0.43930738746E+03  0.15294330000E+03 0. -1.
<mgrwt>
<rscale>  0 0.64782109E+03</rscale>
<asrwt>0</asrwt>
<pdfrwt beam="1">  1        1 0.12612487E+00 0.75778485E+03</pdfrwt>
<pdfrwt beam="2">  1       -1 0.63560260E-01 0.75778485E+03</pdfrwt>
<totfact> 0.54511835E+01</totfact>
</mgrwt>
</event>
<event>
 4    2  0.3884658E-007  0.9460578E+03  0.7818608E-02  0.9455809E-01
         -1   -1    0    0    0  501 -0.00000000000E+00  0.00000000000E+00  0.59111825774E+03  0.59111825776E+03  0.50400000000E-02 0.  1.
          1   -1    0    0  501    0  0.00000000000E+00 -0.00000000000E+00 -0.18849033361E+04  0.18849033361E+04  0.50400000000E-02 0. -1.
    8880023    1    1    2    0    0  0.49529346432E+03 -0.46464997220E+03 -0.14789737123E+04  0.17556732783E+04  0.65864270000E+03 0.  0.
    8880022    1    1    2    0    0 -0.49529346432E+03  0.46464997220E+03  0.18518863394E+03  0.72034831548E+03  0.15294330000E+03 0.  0.
<mgrwt>
<rscale>  0 0.87621757E+03</rscale>
<asrwt>0</asrwt>
<pdfrwt beam="1">  1        1 0.28998513E+00 0.94605783E+03</pdfrwt>
<pdfrwt beam="2">  1       -1 0.90941271E-01 0.94605783E+03</pdfrwt>
<totfact> 0.42830462E+00</totfact>
</mgrwt>
</event>
<event>
 4    2  0.3884658E-007  0.8078909E+03  0.7818608E-02  0.9693987E-01
         -1   -1    0    0    0  501 -0.00000000000E+00  0.00000000000E+00  0.59983578121E+03  0.59983578123E+03  0.50400000000E-02 0.  1.
          1   -1    0    0  501    0  0.00000000000E+00 -0.00000000000E+00 -0.20845524364E+04  0.20845524364E+04  0.50400000000E-02 0. -1.
    8880023    1    1    2    0    0  0.28278750696E+03  0.37270453853E+03 -0.18844389050E+04  0.20503164732E+04  0.65864270000E+03 0.  0.
    8880022    1    1    2    0    0 -0.28278750696E+03 -0.37270453853E+03  0.39972224982E+03  0.63407174448E+03  0.15294330000E+03 0.  0.
<mgrwt>
<rscale>  0 0.71375930E+03</rscale>
<asrwt>0</asrwt>
<pdfrwt beam="1">  1        1 0.32070037E+00 0.80789087E+03</pdfrwt>
<pdfrwt beam="2">  1       -1 0.92282429E-01 0.80789087E+03</pdfrwt>
<totfact> 0.31110621E+00</totfact>
</mgrwt>
</event>
<event>
 4    2  0.3884658E-007  0.9512931E+03  0.7818608E-02  0.9448256E-01
          1   -1    0    0  501    0  0.00000000000E+00  0.00000000000E+00  0.33297699663E+04  0.33297699663E+04  0.50400000000E-02 0. -1.
         -1   -1    0    0    0  501 -0.00000000000E+00 -0.00000000000E+00 -0.26708132014E+03  0.26708132019E+03  0.50400000000E-02 0.  1.
    8880023    1    1    2    0    0 -0.67898854774E+03 -0.10061271773E+03  0.25638806883E+04  0.27346741592E+04  0.65864270000E+03 0.  0.
    8880022    1    1    2    0    0  0.67898854774E+03  0.10061271773E+03  0.49880795779E+03  0.86217712722E+03  0.15294330000E+03 0.  0.
<mgrwt>
<rscale>  0 0.88208603E+03</rscale>
<asrwt>0</asrwt>
<pdfrwt beam="1">  1        1 0.51227232E+00 0.95129311E+03</pdfrwt>
<pdfrwt beam="2">  1       -1 0.41089433E-01 0.95129311E+03</pdfrwt>
<totfact> 0.20482908E+00</totfact>
</mgrwt>
</event>
<event>
 4    2  0.3884658E-007  0.7167597E+03  0.7818608E-02  0.9933707E-01
          1   -1    0    0  501    0  0.00000000000E+00  0.00000000000E+00  0.33243053560E+03  0.33243053564E+03  0.50400000000E-02 0. -1.
         -1   -1    0    0    0  501 -0.00000000000E+00 -0.00000000000E+00 -0.88277356806E+03  0.88277356807E+03  0.50400000000E-02 0.  1.
    8880023    1    1    2    0    0 -0.22190037146E+03  0.17519835881E+03 -0.20961960791E+03  0.74678298459E+03  0.65864270000E+03 0. -1.
    8880022    1    1    2    0    0  0.22190037146E+03 -0.17519835881E+03 -0.34072342455E+03  0.46842111912E+03  0.15294330000E+03 0.  0.
<mgrwt>
<rscale>  0 0.58655173E+03</rscale>
<asrwt>0</asrwt>
<pdfrwt beam="1">  1        1 0.51143159E-01 0.71675969E+03</pdfrwt>
<pdfrwt beam="2">  1       -1 0.13581132E+00 0.71675969E+03</pdfrwt>
<totfact> 0.35639189E+01</totfact>
</mgrwt>
</event>
<event>
 4    2  0.3884658E-007  0.6657740E+03  0.7818608E-02  0.1018893E+00
          1   -1    0    0  501    0  0.00000000000E+00  0.00000000000E+00  0.16067985505E+04  0.16067985505E+04  0.50400000000E-02 0. -1.
         -1   -1    0    0    0  501 -0.00000000000E+00 -0.00000000000E+00 -0.11784122572E+03  0.11784122583E+03  0.50400000000E-02 0.  1.
    8880023    1    1    2    0    0  0.82372861469E+02 -0.51570489862E+02  0.13125315951E+04  0.14717317005E+04  0.65864270000E+03 0. -1.
    8880022    1    1    2    0    0 -0.82372861469E+02  0.51570489862E+02  0.17642572965E+03  0.25290807585E+03  0.15294330000E+03 0.  0.
<mgrwt>
<rscale>  0 0.48088326E+03</rscale>
<asrwt>0</asrwt>
<pdfrwt beam="1">  1        1 0.24719977E+00 0.66577399E+03</pdfrwt>
<pdfrwt beam="2">  1       -1 0.18129420E-01 0.66577399E+03</pdfrwt>
<totfact> 0.13694320E+02</totfact>
</mgrwt>
</event>
<event>
 4    2  0.3884658E-007  0.8380476E+03  0.7818608E-02  0.9633873E-01
         -1   -1    0    0    0  501 -0.00000000000E+00  0.00000000000E+00  0.11427487677E+04  0.11427487677E+04  0.50400000000E-02 0.  1.
          1   -1    0    0  501    0  0.00000000000E+00 -0.00000000000E+00 -0.58502130238E+03  0.58502130240E+03  0.50400000000E-02 0. -1.
    8880023    1    1    2    0    0 -0.26138374368E+03 -0.44742841320E+03  0.77875899255E+03  0.11440233482E+04  0.65864270000E+03 0.  0.
    8880022    1    1    2    0    0  0.26138374368E+03  0.44742841320E+03 -0.22103152720E+03  0.58374672199E+03  0.15294330000E+03 0.  0.
<mgrwt>
<rscale>  0 0.75094266E+03</rscale>
<asrwt>0</asrwt>
<pdfrwt beam="1">  1        1 0.90003278E-01 0.83804764E+03</pdfrwt>
<pdfrwt beam="2">  1       -1 0.17580750E+00 0.83804764E+03</pdfrwt>
<totfact> 0.80914279E+00</totfact>
</mgrwt>
</event>
<event>
 4    2  0.3884658E-007  0.6976001E+03  0.7818608E-02  0.1000731E+00
          1   -1    0    0  501    0  0.00000000000E+00  0.00000000000E+00  0.68578447379E+03  0.68578447381E+03  0.50400000000E-02 0. -1.
         -1   -1    0    0    0  501 -0.00000000000E+00 -0.00000000000E+00 -0.84527641653E+03  0.84527641654E+03  0.50400000000E-02 0.  1.
    8880023    1    1    2    0    0  0.21406583179E+03  0.83734363349E+02  0.47171221853E+03  0.84211534086E+03  0.65864270000E+03 0.  0.
    8880022    1    1    2    0    0 -0.21406583179E+03 -0.83734363349E+02 -0.63120416126E+03  0.68894554949E+03  0.15294330000E+03 0.  0.
<mgrwt>
<rscale>  0 0.55331020E+03</rscale>
<asrwt>0</asrwt>
<pdfrwt beam="1">  1        1 0.10550530E+00 0.69760005E+03</pdfrwt>
<pdfrwt beam="2">  1       -1 0.13004253E+00 0.69760005E+03</pdfrwt>
<totfact> 0.14743273E+01</totfact>
</mgrwt>
</event>
<event>
 4    2  0.3884658E-007  0.1138947E+04  0.7818608E-02  0.9218884E-01
          1   -1    0    0  501    0  0.00000000000E+00  0.00000000000E+00  0.18665776739E+04  0.18665776739E+04  0.50400000000E-02 0. -1.
         -1   -1    0    0    0  501 -0.00000000000E+00 -0.00000000000E+00 -0.74967196429E+03  0.74967196431E+03  0.50400000000E-02 0.  1.
    8880023    1    1    2    0    0 -0.79401297554E+03  0.48263099501E+03  0.12199061330E+04  0.16689429176E+04  0.65864270000E+03 0.  0.
    8880022    1    1    2    0    0  0.79401297554E+03 -0.48263099501E+03 -0.10300042339E+03  0.94730672061E+03  0.15294330000E+03 0.  0.
<mgrwt>
<rscale>  0 0.10860619E+04</rscale>
<asrwt>0</asrwt>
<pdfrwt beam="1">  1        1 0.28716579E+00 0.11389467E+04</pdfrwt>
<pdfrwt beam="2">  1       -1 0.11533415E+00 0.11389467E+04</pdfrwt>
<totfact> 0.24806201E+00</totfact>
</mgrwt>
</event>
<event>
 4    2  0.3884658E-007  0.8356217E+03  0.7818608E-02  0.9638492E-01
         -1   -1    0    0    0  501 -0.00000000000E+00  0.00000000000E+00  0.38045431793E+03  0.38045431796E+03  0.50400000000E-02 0.  1.
          1   -1    0    0  501    0  0.00000000000E+00 -0.00000000000E+00 -0.17618883370E+04  0.17618883370E+04  0.50400000000E-02 0. -1.
    8880023    1    1    2    0    0  0.44381363919E+03  0.25977465021E+03 -0.13711723093E+04  0.16057325815E+04  0.65864270000E+03 0. -1.
    8880022    1    1    2    0    0 -0.44381363919E+03 -0.25977465021E+03 -0.10261709743E+02  0.53661007345E+03  0.15294330000E+03 0.  0.
<mgrwt>
<rscale>  0 0.74800092E+03</rscale>
<asrwt>0</asrwt>
<pdfrwt beam="1">  1        1 0.27105974E+00 0.83562170E+03</pdfrwt>
<pdfrwt beam="2">  1       -1 0.58531435E-01 0.83562170E+03</pdfrwt>
<totfact> 0.13154080E+01</totfact>
</mgrwt>
</event>
<event>
 4    2  0.3884658E-007  0.1395453E+04  0.7818608E-02  0.8987224E-01
         -1   -1    0    0    0  501 -0.00000000000E+00  0.00000000000E+00  0.20088094574E+04  0.20088094574E+04  0.50400000000E-02 0.  1.
          1   -1    0    0  501    0  0.00000000000E+00 -0.00000000000E+00 -0.11883113788E+04  0.11883113788E+04  0.50400000000E-02 0. -1.
    8880023    1    1    2    0    0 -0.11966925876E+04 -0.28531463440E+03  0.12616760262E+04  0.18812533565E+04  0.65864270000E+03 0.  0.
    8880022    1    1    2    0    0  0.11966925876E+04  0.28531463440E+03 -0.44117794764E+03  0.13158674798E+04  0.15294330000E+03 0.  0.
<mgrwt>
<rscale>  0 0.13547711E+04</rscale>
<asrwt>0</asrwt>
<pdfrwt beam="1">  1        1 0.18281714E+00 0.13954525E+04</pdfrwt>
<pdfrwt beam="2">  1       -1 0.30904761E+00 0.13954525E+04</pdfrwt>
<totfact> 0.30195664E-01</totfact>
</mgrwt>
</event>
<event>
 4    2  0.3884658E-007  0.9367987E+03  0.7818608E-02  0.9469368E-01
          1   -1    0    0  501    0  0.00000000000E+00  0.00000000000E+00  0.11018352328E+04  0.11018352328E+04  0.50400000000E-02 0. -1.
         -1   -1    0    0    0  501 -0.00000000000E+00 -0.00000000000E+00 -0.88072917406E+03  0.88072917408E+03  0.50400000000E-02 0.  1.
    8880023    1    1    2    0    0 -0.56644669785E+03 -0.35059913417E+03  0.68150477380E+03  0.11584647502E+04  0.65864270000E+03 0.  0.
    8880022    1    1    2    0    0  0.56644669785E+03  0.35059913417E+03 -0.46039871506E+03  0.82409965674E+03  0.15294330000E+03 0.  0.
<mgrwt>
<rscale>  0 0.86580375E+03</rscale>
<asrwt>0</asrwt>
<pdfrwt beam="1">  1        1 0.16951311E+00 0.93679871E+03</pdfrwt>
<pdfrwt beam="2">  1       -1 0.13549680E+00 0.93679871E+03</pdfrwt>
<totfact> 0.58264553E+00</totfact>
</mgrwt>
</event>
<event>
 4    2  0.3884658E-007  0.6809232E+03  0.7818608E-02  0.1008806E+00
          1   -1    0    0  501    0  0.00000000000E+00  0.00000000000E+00  0.26748834516E+04  0.26748834516E+04  0.50400000000E-02 0. -1.
         -1   -1    0    0    0  501 -0.00000000000E+00 -0.00000000000E+00 -0.83113877896E+02  0.83113878049E+02  0.50400000000E-02 0.  1.
    8880023    1    1    2    0    0  0.12841248180E+03  0.11557002654E+03  0.22038438448E+04  0.23066391341E+04  0.65864270000E+03 0. -1.
    8880022    1    1    2    0    0 -0.12841248180E+03 -0.11557002654E+03  0.38792572890E+03  0.45135819553E+03  0.15294330000E+03 0.  0.
<mgrwt>
<rscale>  0 0.51951867E+03</rscale>
<asrwt>0</asrwt>
<pdfrwt beam="1">  1        1 0.41152057E+00 0.68092320E+03</pdfrwt>
<pdfrwt beam="2">  1       -1 0.12786749E-01 0.68092320E+03</pdfrwt>
<totfact> 0.46063391E+01</totfact>
</mgrwt>
</event>
<event>
 4    2  0.3884658E-007  0.7022679E+03  0.7818608E-02  0.9987920E-01
          1   -1    0    0  501    0  0.00000000000E+00  0.00000000000E+00  0.19726747153E+04  0.19726747153E+04  0.50400000000E-02 0. -1.
         -1   -1    0    0    0  501 -0.00000000000E+00 -0.00000000000E+00 -0.14164930457E+03  0.14164930466E+03  0.50400000000E-02 0.  1.
    8880023    1    1    2    0    0 -0.19459701725E+03  0.14663554854E+03  0.15930342210E+04  0.17409589940E+04  0.65864270000E+03 0. -1.
    8880022    1    1    2    0    0  0.19459701725E+03 -0.14663554854E+03  0.23799118971E+03  0.37336502596E+03  0.15294330000E+03 0.  0.
<mgrwt>
<rscale>  0 0.56183106E+03</rscale>
<asrwt>0</asrwt>
<pdfrwt beam="1">  1        1 0.30348842E+00 0.70226789E+03</pdfrwt>
<pdfrwt beam="2">  1       -1 0.21792200E-01 0.70226789E+03</pdfrwt>
<totfact> 0.57138879E+01</totfact>
</mgrwt>
</event>
<event>
 4    2  0.3884658E-007  0.7199441E+03  0.7818608E-02  0.9922775E-01
         -1   -1    0    0    0  501 -0.00000000000E+00  0.00000000000E+00  0.71982542297E+03  0.71982542299E+03  0.50400000000E-02 0.  1.
          1   -1    0    0  501    0  0.00000000000E+00 -0.00000000000E+00 -0.87982039643E+03  0.87982039644E+03  0.50400000000E-02 0. -1.
    8880023    1    1    2    0    0  0.30245041088E+02  0.28912726243E+03 -0.67625344698E+03  0.98774402920E+03  0.65864270000E+03 0. -1.
    8880022    1    1    2    0    0 -0.30245041088E+02 -0.28912726243E+03  0.51625847353E+03  0.61190179024E+03  0.15294330000E+03 0.  0.
<mgrwt>
<rscale>  0 0.59170096E+03</rscale>
<asrwt>0</asrwt>
<pdfrwt beam="1">  1        1 0.13535698E+00 0.71994412E+03</pdfrwt>
<pdfrwt beam="2">  1       -1 0.11074237E+00 0.71994412E+03</pdfrwt>
<totfact> 0.14679930E+01</totfact>
</mgrwt>
</event>
<event>
 4    2  0.3884658E-007  0.8731317E+03  0.7818608E-02  0.9570618E-01
         -1   -1    0    0    0  501 -0.00000000000E+00  0.00000000000E+00  0.72550992808E+03  0.72550992810E+03  0.50400000000E-02 0.  1.
          1   -1    0    0  501    0  0.00000000000E+00 -0.00000000000E+00 -0.32318313042E+04  0.32318313042E+04  0.50400000000E-02 0. -1.
    8880023    1    1    2    0    0  0.20782396462E+03  0.53418908346E+03 -0.30378328901E+04  0.31608207243E+04  0.65864270000E+03 0.  0.
    8880022    1    1    2    0    0 -0.20782396462E+03 -0.53418908346E+03  0.53151151394E+03  0.79652050797E+03  0.15294330000E+03 0.  0.
<mgrwt>
<rscale>  0 0.79271754E+03</rscale>
<asrwt>0</asrwt>
<pdfrwt beam="1">  1        1 0.49720481E+00 0.87313171E+03</pdfrwt>
<pdfrwt beam="2">  1       -1 0.11161691E+00 0.87313171E+03</pdfrwt>
<totfact> 0.31418813E-01</totfact>
</mgrwt>
</event>
<event>
 4    2  0.3884658E-007  0.1299845E+04  0.7818608E-02  0.9065694E-01
         -1   -1    0    0    0  501 -0.00000000000E+00  0.00000000000E+00  0.19692955893E+04  0.19692955893E+04  0.50400000000E-02 0.  1.
          1   -1    0    0  501    0  0.00000000000E+00 -0.00000000000E+00 -0.89959219176E+03  0.89959219177E+03  0.50400000000E-02 0. -1.
    8880023    1    1    2    0    0 -0.75003954510E+03 -0.83260214230E+03 -0.17652680965E+02  0.12999644110E+04  0.65864270000E+03 0.  0.
    8880022    1    1    2    0    0  0.75003954510E+03  0.83260214230E+03  0.10873560785E+04  0.15689233700E+04  0.15294330000E+03 0.  0.
<mgrwt>
<rscale>  0 0.12554080E+04</rscale>
<asrwt>0</asrwt>
<pdfrwt beam="1">  1        1 0.13839880E+00 0.12998445E+04</pdfrwt>
<pdfrwt beam="2">  1       -1 0.30296855E+00 0.12998445E+04</pdfrwt>
<totfact> 0.56051706E-01</totfact>
</mgrwt>
</event>
<event>
 4    2  0.3884658E-007  0.7613212E+03  0.7818608E-02  0.9801699E-01
          1   -1    0    0  501    0  0.00000000000E+00  0.00000000000E+00  0.67562467368E+03  0.67562467369E+03  0.50400000000E-02 0. -1.
         -1   -1    0    0    0  501 -0.00000000000E+00 -0.00000000000E+00 -0.11034846427E+04  0.11034846427E+04  0.50400000000E-02 0.  1.
    8880023    1    1    2    0    0  0.30889862597E+03  0.22445785851E+03  0.39608994484E+03  0.85819411676E+03  0.65864270000E+03 0.  0.
    8880022    1    1    2    0    0 -0.30889862597E+03 -0.22445785851E+03 -0.82394991389E+03  0.92091519968E+03  0.15294330000E+03 0.  0.
<mgrwt>
<rscale>  0 0.65271439E+03</rscale>
<asrwt>0</asrwt>
<pdfrwt beam="1">  1        1 0.10394226E+00 0.76132115E+03</pdfrwt>
<pdfrwt beam="2">  1       -1 0.16976687E+00 0.76132115E+03</pdfrwt>
<totfact> 0.73232642E+00</totfact>
</mgrwt>
</event>
<event>
 4    2  0.3884658E-007  0.1177375E+04  0.7818608E-02  0.9179436E-01
          1   -1    0    0  501    0  0.00000000000E+00  0.00000000000E+00  0.76778613420E+03  0.76778613422E+03  0.50400000000E-02 0. -1.
         -1   -1    0    0    0  501 -0.00000000000E+00 -0.00000000000E+00 -0.27789056096E+04  0.27789056097E+04  0.50400000000E-02 0.  1.
    8880023    1    1    2    0    0  0.30787893627E+03 -0.92607308154E+03  0.13407741223E+03  0.11849842828E+04  0.65864270000E+03 0.  0.
    8880022    1    1    2    0    0 -0.30787893627E+03  0.92607308154E+03 -0.21451968877E+04  0.23617074611E+04  0.15294330000E+03 0.  0.
<mgrwt>
<rscale>  0 0.11268230E+04</rscale>
<asrwt>0</asrwt>
<pdfrwt beam="1">  1        1 0.11812094E+00 0.11773746E+04</pdfrwt>
<pdfrwt beam="2">  1       -1 0.42752394E+00 0.11773746E+04</pdfrwt>
<totfact> 0.10896501E-01</totfact>
</mgrwt>
</event>
<event>
 4    2  0.3884658E-007  0.8201128E+03  0.7818608E-02  0.9668885E-01
         -1   -1    0    0    0  501 -0.00000000000E+00  0.00000000000E+00  0.18594438157E+04  0.18594438157E+04  0.50400000000E-02 0.  1.
          1   -1    0    0  501    0  0.00000000000E+00 -0.00000000000E+00 -0.10285512292E+04  0.10285512293E+04  0.50400000000E-02 0. -1.
    8880023    1    1    2    0    0  0.60769012118E+02 -0.48485247102E+03  0.16953417885E+04  0.18832866955E+04  0.65864270000E+03 0.  1.
    8880022    1    1    2    0    0 -0.60769012118E+02  0.48485247102E+03 -0.86444920203E+03  0.10047083494E+04  0.15294330000E+03 0.  0.
<mgrwt>
<rscale>  0 0.72899967E+03</rscale>
<asrwt>0</asrwt>
<pdfrwt beam="1">  1        1 0.15823865E+00 0.82011280E+03</pdfrwt>
<pdfrwt beam="2">  1       -1 0.28606828E+00 0.82011280E+03</pdfrwt>
<totfact> 0.61054441E-01</totfact>
</mgrwt>
</event>
<event>
 4    2  0.3884658E-007  0.9628060E+03  0.7818608E-02  0.9431924E-01
          1   -1    0    0  501    0  0.00000000000E+00  0.00000000000E+00  0.10593096427E+04  0.10593096427E+04  0.50400000000E-02 0. -1.
         -1   -1    0    0    0  501 -0.00000000000E+00 -0.00000000000E+00 -0.76370413528E+03  0.76370413530E+03  0.50400000000E-02 0.  1.
    8880023    1    1    2    0    0  0.65121151693E+03 -0.26288558272E+03  0.48737962974E+03  0.10791359410E+04  0.65864270000E+03 0.  1.
    8880022    1    1    2    0    0 -0.65121151693E+03  0.26288558272E+03 -0.19177412233E+03  0.74387783702E+03  0.15294330000E+03 0.  0.
<mgrwt>
<rscale>  0 0.89494425E+03</rscale>
<asrwt>0</asrwt>
<pdfrwt beam="1">  1        1 0.16297071E+00 0.96280604E+03</pdfrwt>
<pdfrwt beam="2">  1       -1 0.11749294E+00 0.96280604E+03</pdfrwt>
<totfact> 0.89330207E+00</totfact>
</mgrwt>
</event>
<event>
 4    2  0.3884658E-007  0.8285726E+03  0.7818608E-02  0.9652116E-01
          1   -1    0    0  501    0  0.00000000000E+00  0.00000000000E+00  0.22829053468E+04  0.22829053468E+04  0.50400000000E-02 0. -1.
         -1   -1    0    0    0  501 -0.00000000000E+00 -0.00000000000E+00 -0.32483109442E+03  0.32483109446E+03  0.50400000000E-02 0.  1.
    8880023    1    1    2    0    0 -0.17257287313E+02  0.50241861791E+03  0.19076923558E+04  0.20798612002E+04  0.65864270000E+03 0. -1.
    8880022    1    1    2    0    0  0.17257287313E+02 -0.50241861791E+03  0.50381896594E+02  0.52787524105E+03  0.15294330000E+03 0.  0.
<mgrwt>
<rscale>  0 0.73940767E+03</rscale>
<asrwt>0</asrwt>
<pdfrwt beam="1">  1        1 0.35121620E+00 0.82857256E+03</pdfrwt>
<pdfrwt beam="2">  1       -1 0.49974015E-01 0.82857256E+03</pdfrwt>
<totfact> 0.79803214E+00</totfact>
</mgrwt>
</event>
<event>
 4    2  0.3884658E-007  0.7786948E+03  0.7818608E-02  0.9758912E-01
         -1   -1    0    0    0  501 -0.00000000000E+00  0.00000000000E+00  0.12173977362E+04  0.12173977363E+04  0.50400000000E-02 0.  1.
          1   -1    0    0  501    0  0.00000000000E+00 -0.00000000000E+00 -0.16922069528E+04  0.16922069528E+04  0.50400000000E-02 0. -1.
    8880023    1    1    2    0    0 -0.72833174203E+02  0.40896301612E+03 -0.15567334895E+04  0.17406276981E+04  0.65864270000E+03 0.  0.
    8880022    1    1    2    0    0  0.72833174203E+02 -0.40896301612E+03  0.10819242730E+04  0.11689769909E+04  0.15294330000E+03 0.  0.
<mgrwt>
<rscale>  0 0.67614963E+03</rscale>
<asrwt>0</asrwt>
<pdfrwt beam="1">  1        1 0.26033953E+00 0.77869482E+03</pdfrwt>
<pdfrwt beam="2">  1       -1 0.18729196E+00 0.77869482E+03</pdfrwt>
<totfact> 0.93447664E-01</totfact>
</mgrwt>
</event>
<event>
 4    2  0.3884658E-007  0.7156277E+03  0.7818608E-02  0.9937668E-01
         -1   -1    0    0    0  501 -0.00000000000E+00  0.00000000000E+00  0.39649347122E+03  0.39649347126E+03  0.50400000000E-02 0.  1.
          1   -1    0    0  501    0  0.00000000000E+00 -0.00000000000E+00 -0.15899449381E+04  0.15899449381E+04  0.50400000000E-02 0. -1.
    8880023    1    1    2    0    0  0.27963494763E+03 -0.10822117730E+02 -0.14234681671E+04  0.15932308845E+04  0.65864270000E+03 0. -1.
    8880022    1    1    2    0    0 -0.27963494763E+03  0.10822117730E+02  0.23001670029E+03  0.39320752485E+03  0.15294330000E+03 0.  0.
<mgrwt>
<rscale>  0 0.58469970E+03</rscale>
<asrwt>0</asrwt>
<pdfrwt beam="1">  1        1 0.24460691E+00 0.71562772E+03</pdfrwt>
<pdfrwt beam="2">  1       -1 0.60998996E-01 0.71562772E+03</pdfrwt>
<totfact> 0.16104572E+01</totfact>
</mgrwt>
</event>
<event>
 4    2  0.3884658E-007  0.1591020E+04  0.7818608E-02  0.8847901E-01
         -1   -1    0    0    0  501 -0.00000000000E+00  0.00000000000E+00  0.16319313019E+04  0.16319313019E+04  0.50400000000E-02 0.  1.
          1   -1    0    0  501    0  0.00000000000E+00 -0.00000000000E+00 -0.14302035979E+04  0.14302035979E+04  0.50400000000E-02 0. -1.
    8880023    1    1    2    0    0  0.17439974200E+03 -0.14377482054E+04 -0.61580280957E+01  0.15910321492E+04  0.65864270000E+03 0.  1.
    8880022    1    1    2    0    0 -0.17439974200E+03  0.14377482054E+04  0.20788573209E+03  0.14711027506E+04  0.15294330000E+03 0. -1.
<mgrwt>
<rscale>  0 0.15562254E+04</rscale>
<asrwt>0</asrwt>
<pdfrwt beam="1">  1        1 0.22003132E+00 0.15910202E+04</pdfrwt>
<pdfrwt beam="2">  1       -1 0.25106635E+00 0.15910202E+04</pdfrwt>
<totfact> 0.47064715E-01</totfact>
</mgrwt>
</event>
<event>
 4    2  0.3884658E-007  0.7556470E+03  0.7818608E-02  0.9816510E-01
          1   -1    0    0  501    0  0.00000000000E+00  0.00000000000E+00  0.84017900454E+03  0.84017900456E+03  0.50400000000E-02 0. -1.
         -1   -1    0    0    0  501 -0.00000000000E+00 -0.00000000000E+00 -0.16831909106E+04  0.16831909106E+04  0.50400000000E-02 0.  1.
    8880023    1    1    2    0    0  0.33824238503E+02  0.36884691218E+03  0.63808637215E+03  0.98901797169E+03  0.65864270000E+03 0. -1.
    8880022    1    1    2    0    0 -0.33824238503E+02 -0.36884691218E+03 -0.14810982782E+04  0.15343519435E+04  0.15294330000E+03 0.  0.
<mgrwt>
<rscale>  0 0.64483992E+03</rscale>
<asrwt>0</asrwt>
<pdfrwt beam="1">  1        1 0.12925831E+00 0.75564696E+03</pdfrwt>
<pdfrwt beam="2">  1       -1 0.25895245E+00 0.75564696E+03</pdfrwt>
<totfact> 0.13056036E+00</totfact>
</mgrwt>
</event>
<event>
 4    2  0.3884658E-007  0.7531773E+03  0.7818608E-02  0.9823102E-01
         -1   -1    0    0    0  501 -0.00000000000E+00  0.00000000000E+00  0.27695373510E+03  0.27695373514E+03  0.50400000000E-02 0.  1.
          1   -1    0    0  501    0  0.00000000000E+00 -0.00000000000E+00 -0.17655128808E+04  0.17655128808E+04  0.50400000000E-02 0. -1.
    8880023    1    1    2    0    0 -0.36504726088E+03  0.14364260666E+02 -0.14631188411E+04  0.16455980020E+04  0.65864270000E+03 0.  0.
    8880022    1    1    2    0    0  0.36504726088E+03 -0.14364260666E+02 -0.25440304618E+02  0.39686861399E+03  0.15294330000E+03 0.  0.
<mgrwt>
<rscale>  0 0.64137359E+03</rscale>
<asrwt>0</asrwt>
<pdfrwt beam="1">  1        1 0.27161736E+00 0.75317730E+03</pdfrwt>
<pdfrwt beam="2">  1       -1 0.42608268E-01 0.75317730E+03</pdfrwt>
<totfact> 0.24153911E+01</totfact>
</mgrwt>
</event>
<event>
 4    2  0.3884658E-007  0.7699353E+03  0.7818608E-02  0.9780033E-01
         -1   -1    0    0    0  501 -0.00000000000E+00  0.00000000000E+00  0.84020228701E+03  0.84020228703E+03  0.50400000000E-02 0.  1.
          1   -1    0    0  501    0  0.00000000000E+00 -0.00000000000E+00 -0.47103999368E+03  0.47103999371E+03  0.50400000000E-02 0. -1.
    8880023    1    1    2    0    0  0.25816025923E+03 -0.30388067867E+03  0.38083412942E+02  0.77087660421E+03  0.65864270000E+03 0.  0.
    8880022    1    1    2    0    0 -0.25816025923E+03  0.30388067867E+03  0.33107888039E+03  0.54036567653E+03  0.15294330000E+03 0.  0.
<mgrwt>
<rscale>  0 0.66445164E+03</rscale>
<asrwt>0</asrwt>
<pdfrwt beam="1">  1        1 0.72467691E-01 0.76993532E+03</pdfrwt>
<pdfrwt beam="2">  1       -1 0.12926189E+00 0.76993532E+03</pdfrwt>
<totfact> 0.25314084E+01</totfact>
</mgrwt>
</event>
<event>
 4    2  0.3884658E-007  0.1301407E+04  0.7818608E-02  0.9064346E-01
         -1   -1    0    0    0  501 -0.00000000000E+00  0.00000000000E+00  0.70476127514E+03  0.70476127516E+03  0.50400000000E-02 0.  1.
          1   -1    0    0  501    0  0.00000000000E+00 -0.00000000000E+00 -0.21915674021E+04  0.21915674021E+04  0.50400000000E-02 0. -1.
    8880023    1    1    2    0    0 -0.90250607882E+03  0.66733252503E+03 -0.50055130585E+03  0.13943499336E+04  0.65864270000E+03 0. -1.
    8880022    1    1    2    0    0  0.90250607882E+03 -0.66733252503E+03 -0.98625482113E+03  0.15019787437E+04  0.15294330000E+03 0.  1.
<mgrwt>
<rscale>  0 0.12570380E+04</rscale>
<asrwt>0</asrwt>
<pdfrwt beam="1">  1        1 0.33716421E+00 0.13014070E+04</pdfrwt>
<pdfrwt beam="2">  1       -1 0.10842481E+00 0.13014070E+04</pdfrwt>
<totfact> 0.16998759E+00</totfact>
</mgrwt>
</event>
<event>
 4    2  0.3884658E-007  0.9860305E+03  0.7818608E-02  0.9400067E-01
          1   -1    0    0  501    0  0.00000000000E+00  0.00000000000E+00  0.93392561804E+03  0.93392561805E+03  0.50400000000E-02 0. -1.
         -1   -1    0    0    0  501 -0.00000000000E+00 -0.00000000000E+00 -0.11251960447E+04  0.11251960447E+04  0.50400000000E-02 0.  1.
    8880023    1    1    2    0    0  0.58846503663E+03 -0.43835473360E+03  0.43943315839E+03  0.10795173360E+04  0.65864270000E+03 0. -1.
    8880022    1    1    2    0    0 -0.58846503663E+03  0.43835473360E+03 -0.63070358509E+03  0.97960432679E+03  0.15294330000E+03 0.  1.
<mgrwt>
<rscale>  0 0.92070207E+03</rscale>
<asrwt>0</asrwt>
<pdfrwt beam="1">  1        1 0.14368086E+00 0.98603052E+03</pdfrwt>
<pdfrwt beam="2">  1       -1 0.17310708E+00 0.98603052E+03</pdfrwt>
<totfact> 0.40054668E+00</totfact>
</mgrwt>
</event>
<event>
 4    2  0.3884658E-007  0.8236261E+03  0.7818608E-02  0.9661864E-01
          1   -1    0    0  501    0  0.00000000000E+00  0.00000000000E+00  0.65890611970E+03  0.65890611972E+03  0.50400000000E-02 0. -1.
         -1   -1    0    0    0  501 -0.00000000000E+00 -0.00000000000E+00 -0.77162049656E+03  0.77162049657E+03  0.50400000000E-02 0.  1.
    8880023    1    1    2    0    0 -0.19987889119E+03 -0.45232537639E+03  0.16961083399E+03  0.84090894783E+03  0.65864270000E+03 0.  0.
    8880022    1    1    2    0    0  0.19987889119E+03  0.45232537639E+03 -0.28232521085E+03  0.58961766846E+03  0.15294330000E+03 0.  0.
<mgrwt>
<rscale>  0 0.73333529E+03</rscale>
<asrwt>0</asrwt>
<pdfrwt beam="1">  1        1 0.10137017E+00 0.82362614E+03</pdfrwt>
<pdfrwt beam="2">  1       -1 0.11871085E+00 0.82362614E+03</pdfrwt>
<totfact> 0.19328377E+01</totfact>
</mgrwt>
</event>
<event>
 4    2  0.3884658E-007  0.8668563E+03  0.7818608E-02  0.9581482E-01
          1   -1    0    0  501    0  0.00000000000E+00  0.00000000000E+00  0.90776953252E+03  0.90776953254E+03  0.50400000000E-02 0. -1.
         -1   -1    0    0    0  501 -0.00000000000E+00 -0.00000000000E+00 -0.11648493143E+04  0.11648493143E+04  0.50400000000E-02 0.  1.
    8880023    1    1    2    0    0  0.50931639642E+03 -0.24130168606E+03 -0.86853108023E+03  0.12271047791E+04  0.65864270000E+03 0.  0.
    8880022    1    1    2    0    0 -0.50931639642E+03  0.24130168606E+03  0.61145129844E+03  0.84551406774E+03  0.15294330000E+03 0.  0.
<mgrwt>
<rscale>  0 0.78534058E+03</rscale>
<asrwt>0</asrwt>
<pdfrwt beam="1">  1        1 0.13965685E+00 0.86685633E+03</pdfrwt>
<pdfrwt beam="2">  1       -1 0.17920759E+00 0.86685633E+03</pdfrwt>
<totfact> 0.38574009E+00</totfact>
</mgrwt>
</event>
<event>
 4    2  0.3884658E-007  0.6821632E+03  0.7818608E-02  0.1008126E+00
         -1   -1    0    0    0  501 -0.00000000000E+00  0.00000000000E+00  0.36477373455E+03  0.36477373458E+03  0.50400000000E-02 0.  1.
          1   -1    0    0  501    0  0.00000000000E+00 -0.00000000000E+00 -0.12736950817E+04  0.12736950817E+04  0.50400000000E-02 0. -1.
    8880023    1    1    2    0    0 -0.67225478527E+02 -0.16436891789E+03 -0.11276240851E+04  0.13179084527E+04  0.65864270000E+03 0. -1.
    8880022    1    1    2    0    0  0.67225478527E+02  0.16436891789E+03  0.21870273792E+03  0.32056036361E+03  0.15294330000E+03 0.  0.
<mgrwt>
<rscale>  0 0.52226448E+03</rscale>
<asrwt>0</asrwt>
<pdfrwt beam="1">  1        1 0.19595309E+00 0.68216319E+03</pdfrwt>
<pdfrwt beam="2">  1       -1 0.56119037E-01 0.68216319E+03</pdfrwt>
<totfact> 0.31499735E+01</totfact>
</mgrwt>
</event>
<event>
 4    2  0.3884658E-007  0.6605238E+03  0.7818608E-02  0.1023626E+00
          1   -1    0    0  501    0  0.00000000000E+00  0.00000000000E+00  0.19197797992E+04  0.19197797992E+04  0.50400000000E-02 0. -1.
         -1   -1    0    0    0  501 -0.00000000000E+00 -0.00000000000E+00 -0.35166449893E+03  0.35166449896E+03  0.50400000000E-02 0.  1.
    8880023    1    1    2    0    0 -0.24978901233E+02  0.43099311139E+02  0.18403195414E+04  0.19552666613E+04  0.65864270000E+03 0. -1.
    8880022    1    1    2    0    0  0.24978901233E+02 -0.43099311139E+02 -0.27220424114E+03  0.31617763684E+03  0.15294330000E+03 0.  0.
<mgrwt>
<rscale>  0 0.46400485E+03</rscale>
<asrwt>0</asrwt>
<pdfrwt beam="1">  1        1 0.29535074E+00 0.66052381E+03</pdfrwt>
<pdfrwt beam="2">  1       -1 0.54102230E-01 0.66052381E+03</pdfrwt>
<totfact> 0.12335900E+01</totfact>
</mgrwt>
</event>
<event>
 4    2  0.3884658E-007  0.1016920E+04  0.7818608E-02  0.9359748E-01
         -1   -1    0    0    0  501 -0.00000000000E+00  0.00000000000E+00  0.18043586555E+04  0.18043586556E+04  0.50400000000E-02 0.  1.
          1   -1    0    0  501    0  0.00000000000E+00 -0.00000000000E+00 -0.10778372023E+04  0.10778372023E+04  0.50400000000E-02 0. -1.
    8880023    1    1    2    0    0  0.70910384771E+03 -0.31223112355E+03 -0.71182414633E+03  0.12412978542E+04  0.65864270000E+03 0. -1.
    8880022    1    1    2    0    0 -0.70910384771E+03  0.31223112355E+03  0.14383455996E+04  0.16408980036E+04  0.15294330000E+03 0.  0.
<mgrwt>
<rscale>  0 0.95463608E+03</rscale>
<asrwt>0</asrwt>
<pdfrwt beam="1">  1        1 0.16582111E+00 0.10169202E+04</pdfrwt>
<pdfrwt beam="2">  1       -1 0.27759364E+00 0.10169202E+04</pdfrwt>
<totfact> 0.61335067E-01</totfact>
</mgrwt>
</event>
<event>
 4    2  0.3884658E-007  0.7168446E+03  0.7818608E-02  0.9933411E-01
         -1   -1    0    0    0  501 -0.00000000000E+00  0.00000000000E+00  0.23914662785E+03  0.23914662790E+03  0.50400000000E-02 0.  1.
          1   -1    0    0  501    0  0.00000000000E+00 -0.00000000000E+00 -0.15736710198E+04  0.15736710198E+04  0.50400000000E-02 0. -1.
    8880023    1    1    2    0    0 -0.26572410463E+03  0.97193863210E+02 -0.13061562233E+04  0.14899363184E+04  0.65864270000E+03 0. -1.
    8880022    1    1    2    0    0  0.26572410463E+03 -0.97193863210E+02 -0.28368168626E+02  0.32288132933E+03  0.15294330000E+03 0.  0.
<mgrwt>
<rscale>  0 0.58669016E+03</rscale>
<asrwt>0</asrwt>
<pdfrwt beam="1">  1        1 0.24210323E+00 0.71684458E+03</pdfrwt>
<pdfrwt beam="2">  1       -1 0.36791790E-01 0.71684458E+03</pdfrwt>
<totfact> 0.42661654E+01</totfact>
</mgrwt>
</event>
<event>
 4    2  0.3884658E-007  0.1252977E+04  0.7818608E-02  0.9107269E-01
          1   -1    0    0  501    0  0.00000000000E+00  0.00000000000E+00  0.24659835478E+04  0.24659835478E+04  0.50400000000E-02 0. -1.
         -1   -1    0    0    0  501 -0.00000000000E+00 -0.00000000000E+00 -0.99382919451E+03  0.99382919452E+03  0.50400000000E-02 0.  1.
    8880023    1    1    2    0    0  0.48654517045E+03  0.94837525583E+03  0.19207417654E+04  0.22932947836E+04  0.65864270000E+03 0.  0.
    8880022    1    1    2    0    0 -0.48654517045E+03 -0.94837525583E+03 -0.44858741212E+03  0.11665179587E+04  0.15294330000E+03 0.  0.
<mgrwt>
<rscale>  0 0.12064041E+04</rscale>
<asrwt>0</asrwt>
<pdfrwt beam="1">  1        1 0.37938208E+00 0.12529773E+04</pdfrwt>
<pdfrwt beam="2">  1       -1 0.15289680E+00 0.12529773E+04</pdfrwt>
<totfact> 0.46389290E-01</totfact>
</mgrwt>
</event>
<event>
 4    2  0.3884658E-007  0.7790956E+03  0.7818608E-02  0.9757966E-01
          1   -1    0    0  501    0  0.00000000000E+00  0.00000000000E+00  0.11503635251E+04  0.11503635251E+04  0.50400000000E-02 0. -1.
         -1   -1    0    0    0  501 -0.00000000000E+00 -0.00000000000E+00 -0.58075931663E+03  0.58075931665E+03  0.50400000000E-02 0.  1.
    8880023    1    1    2    0    0 -0.39538358370E+03  0.12981365482E+03  0.89095376410E+03  0.11835491453E+04  0.65864270000E+03 0.  0.
    8880022    1    1    2    0    0  0.39538358370E+03 -0.12981365482E+03 -0.32134955559E+03  0.54757369653E+03  0.15294330000E+03 0.  0.
<mgrwt>
<rscale>  0 0.67667965E+03</rscale>
<asrwt>0</asrwt>
<pdfrwt beam="1">  1        1 0.17697900E+00 0.77909561E+03</pdfrwt>
<pdfrwt beam="2">  1       -1 0.89347588E-01 0.77909561E+03</pdfrwt>
<totfact> 0.14673621E+01</totfact>
</mgrwt>
</event>
<event>
 4    2  0.3884658E-007  0.8026139E+03  0.7818608E-02  0.9705173E-01
         -1   -1    0    0    0  501 -0.00000000000E+00  0.00000000000E+00  0.72250384017E+03  0.72250384019E+03  0.50400000000E-02 0.  1.
          1   -1    0    0  501    0  0.00000000000E+00 -0.00000000000E+00 -0.81221326196E+03  0.81221326198E+03  0.50400000000E-02 0. -1.
    8880023    1    1    2    0    0  0.45018115978E+03  0.87839201614E+02 -0.46056493439E+03  0.92536969207E+03  0.65864270000E+03 0.  0.
    8880022    1    1    2    0    0 -0.45018115978E+03 -0.87839201614E+02  0.37085551259E+03  0.60934741010E+03  0.15294330000E+03 0.  0.
<mgrwt>
<rscale>  0 0.70709651E+03</rscale>
<asrwt>0</asrwt>
<pdfrwt beam="1">  1        1 0.12495589E+00 0.80261386E+03</pdfrwt>
<pdfrwt beam="2">  1       -1 0.11115444E+00 0.80261386E+03</pdfrwt>
<totfact> 0.16421501E+01</totfact>
</mgrwt>
</event>
<event>
 4    2  0.3884658E-007  0.7270564E+03  0.7818608E-02  0.9899395E-01
          1   -1    0    0  501    0  0.00000000000E+00  0.00000000000E+00  0.11602040488E+04  0.11602040488E+04  0.50400000000E-02 0. -1.
         -1   -1    0    0    0  501 -0.00000000000E+00 -0.00000000000E+00 -0.45500545758E+03  0.45500545760E+03  0.50400000000E-02 0.  1.
    8880023    1    1    2    0    0 -0.30526803175E+03 -0.40152042814E+02  0.94772319009E+03  0.11944832393E+04  0.65864270000E+03 0. -1.
    8880022    1    1    2    0    0  0.30526803175E+03  0.40152042814E+02 -0.24252459886E+03  0.42072626709E+03  0.15294330000E+03 0.  0.
<mgrwt>
<rscale>  0 0.60290622E+03</rscale>
<asrwt>0</asrwt>
<pdfrwt beam="1">  1        1 0.17849293E+00 0.72705637E+03</pdfrwt>
<pdfrwt beam="2">  1       -1 0.70000840E-01 0.72705637E+03</pdfrwt>
<totfact> 0.24352443E+01</totfact>
</mgrwt>
</event>
<event>
 4    2  0.3884658E-007  0.9903786E+03  0.7818608E-02  0.9394255E-01
          1   -1    0    0  501    0  0.00000000000E+00  0.00000000000E+00  0.12936475728E+04  0.12936475728E+04  0.50400000000E-02 0. -1.
         -1   -1    0    0    0  501 -0.00000000000E+00 -0.00000000000E+00 -0.10800280818E+04  0.10800280818E+04  0.50400000000E-02 0.  1.
    8880023    1    1    2    0    0  0.71775838086E+03  0.17850040678E+03  0.91102457958E+03  0.13456654411E+04  0.65864270000E+03 0.  0.
    8880022    1    1    2    0    0 -0.71775838086E+03 -0.17850040678E+03 -0.69740508854E+03  0.10280102135E+04  0.15294330000E+03 0.  0.
<mgrwt>
<rscale>  0 0.92549979E+03</rscale>
<asrwt>0</asrwt>
<pdfrwt beam="1">  1        1 0.19902270E+00 0.99037856E+03</pdfrwt>
<pdfrwt beam="2">  1       -1 0.16615817E+00 0.99037856E+03</pdfrwt>
<totfact> 0.24148117E+00</totfact>
</mgrwt>
</event>
<event>
 4    2  0.3884658E-007  0.1562854E+04  0.7818608E-02  0.8866482E-01
          1   -1    0    0  501    0  0.00000000000E+00  0.00000000000E+00  0.29445987236E+04  0.29445987236E+04  0.50400000000E-02 0. -1.
         -1   -1    0    0    0  501 -0.00000000000E+00 -0.00000000000E+00 -0.96105893091E+03  0.96105893092E+03  0.50400000000E-02 0.  1.
    8880023    1    1    2    0    0  0.11848417180E+04 -0.77772233672E+03  0.13127694781E+03  0.15683576675E+04  0.65864270000E+03 0.  0.
    8880022    1    1    2    0    0 -0.11848417180E+04  0.77772233672E+03  0.18522628448E+04  0.23372999870E+04  0.15294330000E+03 0.  0.
<mgrwt>
<rscale>  0 0.15273260E+04</rscale>
<asrwt>0</asrwt>
<pdfrwt beam="1">  1        1 0.45301518E+00 0.15628538E+04</pdfrwt>
<pdfrwt beam="2">  1       -1 0.14785522E+00 0.15628538E+04</pdfrwt>
<totfact> 0.22476066E-01</totfact>
</mgrwt>
</event>
<event>
 4    2  0.3884658E-007  0.7667295E+03  0.7818608E-02  0.9787987E-01
          1   -1    0    0  501    0  0.00000000000E+00  0.00000000000E+00  0.60919704234E+03  0.60919704236E+03  0.50400000000E-02 0. -1.
         -1   -1    0    0    0  501 -0.00000000000E+00 -0.00000000000E+00 -0.11560462233E+04  0.11560462233E+04  0.50400000000E-02 0.  1.
    8880023    1    1    2    0    0  0.19386306471E+03 -0.34129325856E+03  0.29687877548E+03  0.82219899647E+03  0.65864270000E+03 0. -1.
    8880022    1    1    2    0    0 -0.19386306471E+03  0.34129325856E+03 -0.84372795643E+03  0.94304426920E+03  0.15294330000E+03 0.  0.
<mgrwt>
<rscale>  0 0.66011237E+03</rscale>
<asrwt>0</asrwt>
<pdfrwt beam="1">  1        1 0.93722622E-01 0.76672954E+03</pdfrwt>
<pdfrwt beam="2">  1       -1 0.17785327E+00 0.76672954E+03</pdfrwt>
<totfact> 0.74447839E+00</totfact>
</mgrwt>
</event>
<event>
 4    2  0.3884658E-007  0.7650098E+03  0.7818608E-02  0.9792306E-01
         -1   -1    0    0    0  501 -0.00000000000E+00  0.00000000000E+00  0.48639763204E+03  0.48639763207E+03  0.50400000000E-02 0.  1.
          1   -1    0    0  501    0  0.00000000000E+00 -0.00000000000E+00 -0.31943336141E+04  0.31943336141E+04  0.50400000000E-02 0. -1.
    8880023    1    1    2    0    0  0.23361695980E+03 -0.31121205939E+03 -0.30475285253E+04  0.31420805446E+04  0.65864270000E+03 0. -1.
    8880022    1    1    2    0    0 -0.23361695980E+03  0.31121205939E+03  0.33959254328E+03  0.53865070155E+03  0.15294330000E+03 0.  0.
<mgrwt>
<rscale>  0 0.65777083E+03</rscale>
<asrwt>0</asrwt>
<pdfrwt beam="1">  1        1 0.49143593E+00 0.76500983E+03</pdfrwt>
<pdfrwt beam="2">  1       -1 0.74830407E-01 0.76500983E+03</pdfrwt>
<totfact> 0.83348631E-01</totfact>
</mgrwt>
</event>
<event>
 4    2  0.3884658E-007  0.9169195E+03  0.7818608E-02  0.9499399E-01
          1   -1    0    0  501    0  0.00000000000E+00  0.00000000000E+00  0.12937589802E+04  0.12937589802E+04  0.50400000000E-02 0. -1.
         -1   -1    0    0    0  501 -0.00000000000E+00 -0.00000000000E+00 -0.49095927281E+03  0.49095927284E+03  0.50400000000E-02 0.  1.
    8880023    1    1    2    0    0  0.21043895964E+03  0.60220141538E+03  0.32361845536E+03  0.97235292530E+03  0.65864270000E+03 0.  1.
    8880022    1    1    2    0    0 -0.21043895964E+03 -0.60220141538E+03  0.47918125204E+03  0.81236532776E+03  0.15294330000E+03 0. -1.
<mgrwt>
<rscale>  0 0.84328171E+03</rscale>
<asrwt>0</asrwt>
<pdfrwt beam="1">  1        1 0.19903984E+00 0.91691947E+03</pdfrwt>
<pdfrwt beam="2">  1       -1 0.75532197E-01 0.91691947E+03</pdfrwt>
<totfact> 0.16306835E+01</totfact>
</mgrwt>
</event>
<event>
 4    2  0.3884658E-007  0.7234142E+03  0.7818608E-02  0.9911199E-01
         -1   -1    0    0    0  501 -0.00000000000E+00  0.00000000000E+00  0.95465209081E+03  0.95465209083E+03  0.50400000000E-02 0.  1.
          1   -1    0    0  501    0  0.00000000000E+00 -0.00000000000E+00 -0.48971344238E+03  0.48971344240E+03  0.50400000000E-02 0. -1.
    8880023    1    1    2    0    0 -0.25380223347E+03  0.15843693053E+03 -0.15443450268E+03  0.73971484813E+03  0.65864270000E+03 0.  0.
    8880022    1    1    2    0    0  0.25380223347E+03 -0.15843693053E+03  0.61937315112E+03  0.70465068510E+03  0.15294330000E+03 0.  0.
<mgrwt>
<rscale>  0 0.59721617E+03</rscale>
<asrwt>0</asrwt>
<pdfrwt beam="1">  1        1 0.75340530E-01 0.72341416E+03</pdfrwt>
<pdfrwt beam="2">  1       -1 0.14686955E+00 0.72341416E+03</pdfrwt>
<totfact> 0.17346715E+01</totfact>
</mgrwt>
</event>
<event>
 4    2  0.3884658E-007  0.7172587E+03  0.7818608E-02  0.9931973E-01
          1   -1    0    0  501    0  0.00000000000E+00  0.00000000000E+00  0.14438223174E+04  0.14438223174E+04  0.50400000000E-02 0. -1.
         -1   -1    0    0    0  501 -0.00000000000E+00 -0.00000000000E+00 -0.49136844535E+03  0.49136844537E+03  0.50400000000E-02 0.  1.
    8880023    1    1    2    0    0 -0.17470878784E+03  0.22388977225E+03  0.12851785553E+04  0.14717825641E+04  0.65864270000E+03 0.  0.
    8880022    1    1    2    0    0  0.17470878784E+03 -0.22388977225E+03 -0.33272468331E+03  0.46340819864E+03  0.15294330000E+03 0.  0.
<mgrwt>
<rscale>  0 0.58736444E+03</rscale>
<asrwt>0</asrwt>
<pdfrwt beam="1">  1        1 0.22212651E+00 0.71725867E+03</pdfrwt>
<pdfrwt beam="2">  1       -1 0.75595146E-01 0.71725867E+03</pdfrwt>
<totfact> 0.13106397E+01</totfact>
</mgrwt>
</event>
<event>
 4    2  0.3884658E-007  0.7008038E+03  0.7818608E-02  0.9993883E-01
          1   -1    0    0  501    0  0.00000000000E+00  0.00000000000E+00  0.84968159770E+03  0.84968159772E+03  0.50400000000E-02 0. -1.
         -1   -1    0    0    0  501 -0.00000000000E+00 -0.00000000000E+00 -0.67041971437E+03  0.67041971439E+03  0.50400000000E-02 0.  1.
    8880023    1    1    2    0    0  0.21356184711E+03 -0.10819912604E+03  0.65937261445E+03  0.96223602321E+03  0.65864270000E+03 0. -1.
    8880022    1    1    2    0    0 -0.21356184711E+03  0.10819912604E+03 -0.48011073111E+03  0.55786528890E+03  0.15294330000E+03 0.  0.
<mgrwt>
<rscale>  0 0.55919267E+03</rscale>
<asrwt>0</asrwt>
<pdfrwt beam="1">  1        1 0.13072024E+00 0.70080377E+03</pdfrwt>
<pdfrwt beam="2">  1       -1 0.10314150E+00 0.70080377E+03</pdfrwt>
<totfact> 0.18400257E+01</totfact>
</mgrwt>
</event>
<event>
 4    2  0.3884658E-007  0.7492502E+03  0.7818608E-02  0.9833777E-01
         -1   -1    0    0    0  501 -0.00000000000E+00  0.00000000000E+00  0.84935385051E+03  0.84935385052E+03  0.50400000000E-02 0.  1.
          1   -1    0    0  501    0  0.00000000000E+00 -0.00000000000E+00 -0.80786616933E+03  0.80786616934E+03  0.50400000000E-02 0. -1.
    8880023    1    1    2    0    0 -0.18474548678E+03  0.30567110426E+03 -0.56399522917E+03  0.93779877567E+03  0.65864270000E+03 0. -1.
    8880022    1    1    2    0    0  0.18474548678E+03 -0.30567110426E+03  0.60548291035E+03  0.71942124420E+03  0.15294330000E+03 0.  0.
<mgrwt>
<rscale>  0 0.63580942E+03</rscale>
<asrwt>0</asrwt>
<pdfrwt beam="1">  1        1 0.12428710E+00 0.74925024E+03</pdfrwt>
<pdfrwt beam="2">  1       -1 0.13066982E+00 0.74925024E+03</pdfrwt>
<totfact> 0.11228476E+01</totfact>
</mgrwt>
</event>
<event>
 4    2  0.3884658E-007  0.7298237E+03  0.7818608E-02  0.9890648E-01
          1   -1    0    0  501    0  0.00000000000E+00  0.00000000000E+00  0.86405820648E+03  0.86405820649E+03  0.50400000000E-02 0. -1.
         -1   -1    0    0    0  501 -0.00000000000E+00 -0.00000000000E+00 -0.81563465814E+03  0.81563465816E+03  0.50400000000E-02 0.  1.
    8880023    1    1    2    0    0  0.10398695748E+03  0.29668029908E+03  0.65430419906E+03  0.98018196186E+03  0.65864270000E+03 0. -1.
    8880022    1    1    2    0    0 -0.10398695748E+03 -0.29668029908E+03 -0.60588065072E+03  0.69951090279E+03  0.15294330000E+03 0.  0.
<mgrwt>
<rscale>  0 0.60716694E+03</rscale>
<asrwt>0</asrwt>
<pdfrwt beam="1">  1        1 0.13293203E+00 0.72982374E+03</pdfrwt>
<pdfrwt beam="2">  1       -1 0.12548226E+00 0.72982374E+03</pdfrwt>
<totfact> 0.11167038E+01</totfact>
</mgrwt>
</event>
<event>
 4    2  0.4591769E-007  0.8640710E+03  0.7818608E-02  0.9586363E-01
          1   -1    0    0  501    0  0.00000000000E+00  0.00000000000E+00  0.20036961869E+04  0.20036961869E+04  0.50400000000E-02 0. -1.
         -1   -1    0    0    0  501 -0.00000000000E+00 -0.00000000000E+00 -0.10243805991E+04  0.10243805991E+04  0.50400000000E-02 0.  1.
    8880023    1    1    2    0    0 -0.51581691110E+03  0.21619759752E+03  0.18154374089E+04  0.20105799360E+04  0.65864270000E+03 0. -1.
    8880022    1    1    2    0    0  0.51581691110E+03 -0.21619759752E+03 -0.83612182118E+03  0.10174968500E+04  0.15294330000E+03 0.  0.
<mgrwt>
<rscale>  0 0.78205412E+03</rscale>
<asrwt>0</asrwt>
<pdfrwt beam="1">  1        1 0.30826095E+00 0.86407100E+03</pdfrwt>
<pdfrwt beam="2">  1       -1 0.15759702E+00 0.86407100E+03</pdfrwt>
<totfact> 0.93474549E-01</totfact>
</mgrwt>
</event>
<event>
 4    2  0.3884658E-007  0.1571408E+04  0.7818608E-02  0.8860791E-01
         -1   -1    0    0    0  501 -0.00000000000E+00  0.00000000000E+00  0.92945243720E+03  0.92945243721E+03  0.50400000000E-02 0.  1.
          1   -1    0    0  501    0  0.00000000000E+00 -0.00000000000E+00 -0.25396629270E+04  0.25396629270E+04  0.50400000000E-02 0. -1.
    8880023    1    1    2    0    0  0.61861622132E+03  0.12856236251E+04 -0.11986143590E+04  0.19763604738E+04  0.65864270000E+03 0.  0.
    8880022    1    1    2    0    0 -0.61861622132E+03 -0.12856236251E+04 -0.41159613081E+03  0.14927548904E+04  0.15294330000E+03 0.  0.
<mgrwt>
<rscale>  0 0.15361066E+04</rscale>
<asrwt>0</asrwt>
<pdfrwt beam="1">  1        1 0.39071737E+00 0.15714084E+04</pdfrwt>
<pdfrwt beam="2">  1       -1 0.14299268E+00 0.15714084E+04</pdfrwt>
<totfact> 0.47556382E-01</totfact>
</mgrwt>
</event>
<event>
 4    2  0.3884658E-007  0.8727061E+03  0.7818608E-02  0.9571349E-01
          1   -1    0    0  501    0  0.00000000000E+00  0.00000000000E+00  0.27257036123E+04  0.27257036124E+04  0.50400000000E-02 0. -1.
         -1   -1    0    0    0  501 -0.00000000000E+00 -0.00000000000E+00 -0.42000520353E+03  0.42000520356E+03  0.50400000000E-02 0.  1.
    8880023    1    1    2    0    0  0.80748293000E+02 -0.56682046416E+03  0.23925629016E+04  0.25467573834E+04  0.65864270000E+03 0. -1.
    8880022    1    1    2    0    0 -0.80748293000E+02  0.56682046416E+03 -0.86864492785E+02  0.59895143253E+03  0.15294330000E+03 0.  0.
<mgrwt>
<rscale>  0 0.79221838E+03</rscale>
<asrwt>0</asrwt>
<pdfrwt beam="1">  1        1 0.41933901E+00 0.87270610E+03</pdfrwt>
<pdfrwt beam="2">  1       -1 0.64616187E-01 0.87270610E+03</pdfrwt>
<totfact> 0.23852565E+00</totfact>
</mgrwt>
</event>
<event>
 4    2  0.3884658E-007  0.8528985E+03  0.7818608E-02  0.9606323E-01
          1   -1    0    0  501    0  0.00000000000E+00  0.00000000000E+00  0.15400717607E+04  0.15400717607E+04  0.50400000000E-02 0. -1.
         -1   -1    0    0    0  501 -0.00000000000E+00 -0.00000000000E+00 -0.40670354859E+03  0.40670354862E+03  0.50400000000E-02 0.  1.
    8880023    1    1    2    0    0 -0.13591104852E+03  0.52455114737E+03  0.10872253643E+04  0.13818447519E+04  0.65864270000E+03 0. -1.
    8880022    1    1    2    0    0  0.13591104852E+03 -0.52455114737E+03  0.46142847832E+02  0.56493055745E+03  0.15294330000E+03 0.  0.
<mgrwt>
<rscale>  0 0.76879122E+03</rscale>
<asrwt>0</asrwt>
<pdfrwt beam="1">  1        1 0.23693411E+00 0.85289854E+03</pdfrwt>
<pdfrwt beam="2">  1       -1 0.62569778E-01 0.85289854E+03</pdfrwt>
<totfact> 0.16258931E+01</totfact>
</mgrwt>
</event>
<event>
 4    2  0.3884658E-007  0.6614301E+03  0.7818608E-02  0.1022737E+00
          1   -1    0    0  501    0  0.00000000000E+00  0.00000000000E+00  0.18715636473E+04  0.18715636473E+04  0.50400000000E-02 0. -1.
         -1   -1    0    0    0  501 -0.00000000000E+00 -0.00000000000E+00 -0.26803003746E+03  0.26803003751E+03  0.50400000000E-02 0.  1.
    8880023    1    1    2    0    0  0.36431281138E+02 -0.48500247761E+02  0.17796433419E+04  0.18985837203E+04  0.65864270000E+03 0. -1.
    8880022    1    1    2    0    0 -0.36431281138E+02  0.48500247761E+02 -0.17610973205E+03  0.24100996456E+03  0.15294330000E+03 0.  0.
<mgrwt>
<rscale>  0 0.46711769E+03</rscale>
<asrwt>0</asrwt>
<pdfrwt beam="1">  1        1 0.28793287E+00 0.66143006E+03</pdfrwt>
<pdfrwt beam="2">  1       -1 0.41235391E-01 0.66143006E+03</pdfrwt>
<totfact> 0.22071101E+01</totfact>
</mgrwt>
</event>
<event>
 4    2  0.3884658E-007  0.6632108E+03  0.7818608E-02  0.1021084E+00
          1   -1    0    0  501    0  0.00000000000E+00  0.00000000000E+00  0.55512458308E+03  0.55512458310E+03  0.50400000000E-02 0. -1.
         -1   -1    0    0    0  501 -0.00000000000E+00 -0.00000000000E+00 -0.66412805599E+03  0.66412805601E+03  0.50400000000E-02 0.  1.
    8880023    1    1    2    0    0 -0.30802431104E+02 -0.71341405222E+02  0.33517583321E+03  0.74309584260E+03  0.65864270000E+03 0. -1.
    8880022    1    1    2    0    0  0.30802431104E+02  0.71341405222E+02 -0.44417930612E+03  0.47615679651E+03  0.15294330000E+03 0.  0.
<mgrwt>
<rscale>  0 0.47297431E+03</rscale>
<asrwt>0</asrwt>
<pdfrwt beam="1">  1        1 0.85403782E-01 0.66321082E+03</pdfrwt>
<pdfrwt beam="2">  1       -1 0.10217355E+00 0.66321082E+03</pdfrwt>
<totfact> 0.35845323E+01</totfact>
</mgrwt>
</event>
<event>
 4    2  0.3884658E-007  0.7389543E+03  0.7818608E-02  0.9863004E-01
         -1   -1    0    0    0  501 -0.00000000000E+00  0.00000000000E+00  0.70567696013E+03  0.70567696015E+03  0.50400000000E-02 0.  1.
          1   -1    0    0  501    0  0.00000000000E+00 -0.00000000000E+00 -0.79578783673E+03  0.79578783675E+03  0.50400000000E-02 0. -1.
    8880023    1    1    2    0    0 -0.33500474270E+03 -0.38825172308E+01 -0.54352990615E+03  0.91732121785E+03  0.65864270000E+03 0. -1.
    8880022    1    1    2    0    0  0.33500474270E+03  0.38825172308E+01  0.45341902955E+03  0.58414357905E+03  0.15294330000E+03 0.  0.
<mgrwt>
<rscale>  0 0.62088279E+03</rscale>
<asrwt>0</asrwt>
<pdfrwt beam="1">  1        1 0.12242890E+00 0.73895430E+03</pdfrwt>
<pdfrwt beam="2">  1       -1 0.10856569E+00 0.73895430E+03</pdfrwt>
<totfact> 0.18068938E+01</totfact>
</mgrwt>
</event>
<event>
 4    2  0.3884658E-007  0.6870915E+03  0.7818608E-02  0.1005567E+00
         -1   -1    0    0    0  501 -0.00000000000E+00  0.00000000000E+00  0.12386197905E+04  0.12386197905E+04  0.50400000000E-02 0.  1.
          1   -1    0    0  501    0  0.00000000000E+00 -0.00000000000E+00 -0.33316867802E+03  0.33316867805E+03  0.50400000000E-02 0. -1.
    8880023    1    1    2    0    0  0.15626831642E+03 -0.11774860999E+03  0.58957480654E+02  0.68961635179E+03  0.65864270000E+03 0. -1.
    8880022    1    1    2    0    0 -0.15626831642E+03  0.11774860999E+03  0.84649363182E+03  0.88217211677E+03  0.15294330000E+03 0.  0.
<mgrwt>
<rscale>  0 0.53275264E+03</rscale>
<asrwt>0</asrwt>
<pdfrwt beam="1">  1        1 0.51256720E-01 0.68709150E+03</pdfrwt>
<pdfrwt beam="2">  1       -1 0.19055689E+00 0.68709150E+03</pdfrwt>
<totfact> 0.13869568E+01</totfact>
</mgrwt>
</event>
<event>
 4    2  0.3884658E-007  0.1302204E+04  0.7818608E-02  0.9063659E-01
         -1   -1    0    0    0  501 -0.00000000000E+00  0.00000000000E+00  0.16151459960E+04  0.16151459960E+04  0.50400000000E-02 0.  1.
          1   -1    0    0  501    0  0.00000000000E+00 -0.00000000000E+00 -0.18468406338E+04  0.18468406338E+04  0.50400000000E-02 0. -1.
    8880023    1    1    2    0    0 -0.57871101190E+03  0.96281809170E+03  0.11059944610E+04  0.17084961419E+04  0.65864270000E+03 0.  0.
    8880022    1    1    2    0    0  0.57871101190E+03 -0.96281809170E+03 -0.13376890987E+04  0.17534904878E+04  0.15294330000E+03 0.  0.
<mgrwt>
<rscale>  0 0.12578694E+04</rscale>
<asrwt>0</asrwt>
<pdfrwt beam="1">  1        1 0.28412933E+00 0.13022040E+04</pdfrwt>
<pdfrwt beam="2">  1       -1 0.24848400E+00 0.13022040E+04</pdfrwt>
<totfact> 0.26134808E-01</totfact>
</mgrwt>
</event>
<event>
 4    2  0.3884658E-007  0.7896946E+03  0.7818608E-02  0.9733538E-01
          1   -1    0    0  501    0  0.00000000000E+00  0.00000000000E+00  0.34267706360E+03  0.34267706364E+03  0.50400000000E-02 0. -1.
         -1   -1    0    0    0  501 -0.00000000000E+00 -0.00000000000E+00 -0.18063044271E+04  0.18063044271E+04  0.50400000000E-02 0.  1.
    8880023    1    1    2    0    0  0.21546988340E+03 -0.37865554994E+03 -0.21607268682E+03  0.81872150846E+03  0.65864270000E+03 0. -1.
    8880022    1    1    2    0    0 -0.21546988340E+03  0.37865554994E+03 -0.12475546767E+04  0.13302599823E+04  0.15294330000E+03 0.  0.
<mgrwt>
<rscale>  0 0.69054581E+03</rscale>
<asrwt>0</asrwt>
<pdfrwt beam="1">  1        1 0.52719549E-01 0.78969456E+03</pdfrwt>
<pdfrwt beam="2">  1       -1 0.27789298E+00 0.78969456E+03</pdfrwt>
<totfact> 0.35137167E+00</totfact>
</mgrwt>
</event>
<event>
 4    2  0.3884658E-007  0.7992907E+03  0.7818608E-02  0.9712332E-01
          1   -1    0    0  501    0  0.00000000000E+00  0.00000000000E+00  0.18561718622E+04  0.18561718622E+04  0.50400000000E-02 0. -1.
         -1   -1    0    0    0  501 -0.00000000000E+00 -0.00000000000E+00 -0.34448204344E+03  0.34448204347E+03  0.50400000000E-02 0.  1.
    8880023    1    1    2    0    0  0.40923077123E+03  0.19386995599E+03  0.15258066816E+04  0.17224841421E+04  0.65864270000E+03 0. -1.
    8880022    1    1    2    0    0 -0.40923077123E+03 -0.19386995599E+03 -0.14116862838E+02  0.47816976357E+03  0.15294330000E+03 0.  0.
<mgrwt>
<rscale>  0 0.70287283E+03</rscale>
<asrwt>0</asrwt>
<pdfrwt beam="1">  1        1 0.28556490E+00 0.79929068E+03</pdfrwt>
<pdfrwt beam="2">  1       -1 0.52997237E-01 0.79929068E+03</pdfrwt>
<totfact> 0.13854279E+01</totfact>
</mgrwt>
</event>
<event>
 4    2  0.3884658E-007  0.6603596E+03  0.7818608E-02  0.1023791E+00
          1   -1    0    0  501    0  0.00000000000E+00  0.00000000000E+00  0.30950650034E+03  0.30950650038E+03  0.50400000000E-02 0. -1.
         -1   -1    0    0    0  501 -0.00000000000E+00 -0.00000000000E+00 -0.92830404170E+03  0.92830404171E+03  0.50400000000E-02 0.  1.
    8880023    1    1    2    0    0 -0.25998809398E+02 -0.39858196143E+02 -0.67599108403E+02  0.66381056003E+03  0.65864270000E+03 0. -1.
    8880022    1    1    2    0    0  0.25998809398E+02  0.39858196143E+02 -0.55119843296E+03  0.57399998205E+03  0.15294330000E+03 0.  0.
<mgrwt>
<rscale>  0 0.46343045E+03</rscale>
<asrwt>0</asrwt>
<pdfrwt beam="1">  1        1 0.47616385E-01 0.66035961E+03</pdfrwt>
<pdfrwt beam="2">  1       -1 0.14281601E+00 0.66035961E+03</pdfrwt>
<totfact> 0.34511764E+01</totfact>
</mgrwt>
</event>
<event>
 4    2  0.3884658E-007  0.8451290E+03  0.7818608E-02  0.9620584E-01
         -1   -1    0    0    0  501 -0.00000000000E+00  0.00000000000E+00  0.44688969608E+03  0.44688969611E+03  0.50400000000E-02 0.  1.
          1   -1    0    0  501    0  0.00000000000E+00 -0.00000000000E+00 -0.24461928237E+04  0.24461928237E+04  0.50400000000E-02 0. -1.
    8880023    1    1    2    0    0  0.37834841693E+03 -0.37052035499E+03 -0.21595737044E+04  0.23190518858E+04  0.65864270000E+03 0. -1.
    8880022    1    1    2    0    0 -0.37834841693E+03  0.37052035499E+03  0.16027057673E+03  0.57403063406E+03  0.15294330000E+03 0.  0.
<mgrwt>
<rscale>  0 0.75948659E+03</rscale>
<asrwt>0</asrwt>
<pdfrwt beam="1">  1        1 0.37633735E+00 0.84512902E+03</pdfrwt>
<pdfrwt beam="2">  1       -1 0.68752263E-01 0.84512902E+03</pdfrwt>
<totfact> 0.32940634E+00</totfact>
</mgrwt>
</event>
<event>
 4    2  0.3884658E-007  0.1048197E+04  0.7818608E-02  0.9321052E-01
          1   -1    0    0  501    0  0.00000000000E+00  0.00000000000E+00  0.30224654675E+04  0.30224654675E+04  0.50400000000E-02 0. -1.
         -1   -1    0    0    0  501 -0.00000000000E+00 -0.00000000000E+00 -0.55586761000E+03  0.55586761003E+03  0.50400000000E-02 0.  1.
    8880023    1    1    2    0    0 -0.39213303965E+03  0.71493899271E+03  0.25376967977E+04  0.27456549906E+04  0.65864270000E+03 0.  0.
    8880022    1    1    2    0    0  0.39213303965E+03 -0.71493899271E+03 -0.71098940237E+02  0.83267808690E+03  0.15294330000E+03 0.  0.
<mgrwt>
<rscale>  0 0.98867631E+03</rscale>
<asrwt>0</asrwt>
<pdfrwt beam="1">  1        1 0.46499469E+00 0.10481967E+04</pdfrwt>
<pdfrwt beam="2">  1       -1 0.85518094E-01 0.10481967E+04</pdfrwt>
<totfact> 0.79351281E-01</totfact>
</mgrwt>
</event>
<event>
 4    2  0.3884658E-007  0.7106723E+03  0.7818608E-02  0.9955513E-01
          1   -1    0    0  501    0  0.00000000000E+00  0.00000000000E+00  0.21250887474E+03  0.21250887480E+03  0.50400000000E-02 0. -1.
         -1   -1    0    0    0  501 -0.00000000000E+00 -0.00000000000E+00 -0.21506701105E+04  0.21506701105E+04  0.50400000000E-02 0.  1.
    8880023    1    1    2    0    0  0.14172821793E+03  0.22618152217E+03 -0.44464734397E+03  0.83831165774E+03  0.65864270000E+03 0.  0.
    8880022    1    1    2    0    0 -0.14172821793E+03 -0.22618152217E+03 -0.14935138918E+04  0.15248673276E+04  0.15294330000E+03 0.  0.
<mgrwt>
<rscale>  0 0.57644711E+03</rscale>
<asrwt>0</asrwt>
<pdfrwt beam="1">  1        1 0.32693674E-01 0.71067234E+03</pdfrwt>
<pdfrwt beam="2">  1       -1 0.33087231E+00 0.71067234E+03</pdfrwt>
<totfact> 0.30228738E+00</totfact>
</mgrwt>
</event>
<event>
 4    2  0.3884658E-007  0.1159615E+04  0.7818608E-02  0.9197416E-01
          1   -1    0    0  501    0  0.00000000000E+00  0.00000000000E+00  0.44929921710E+03  0.44929921712E+03  0.50400000000E-02 0. -1.
         -1   -1    0    0    0  501 -0.00000000000E+00 -0.00000000000E+00 -0.35906097699E+04  0.35906097700E+04  0.50400000000E-02 0.  1.
    8880023    1    1    2    0    0  0.84401600626E+03 -0.44557048424E+03 -0.56840207054E+03  0.12914283547E+04  0.65864270000E+03 0.  0.
    8880022    1    1    2    0    0 -0.84401600626E+03  0.44557048424E+03 -0.25729084823E+04  0.27484806324E+04  0.15294330000E+03 0.  0.
<mgrwt>
<rscale>  0 0.11080143E+04</rscale>
<asrwt>0</asrwt>
<pdfrwt beam="1">  1        1 0.69122959E-01 0.11596147E+04</pdfrwt>
<pdfrwt beam="2">  1       -1 0.55240148E+00 0.11596147E+04</pdfrwt>
<totfact> 0.36647689E-02</totfact>
</mgrwt>
</event>
<event>
 4    2  0.3884658E-007  0.7633812E+03  0.7818608E-02  0.9796431E-01
          1   -1    0    0  501    0  0.00000000000E+00  0.00000000000E+00  0.19547317010E+04  0.19547317010E+04  0.50400000000E-02 0. -1.
         -1   -1    0    0    0  501 -0.00000000000E+00 -0.00000000000E+00 -0.37304975471E+03  0.37304975475E+03  0.50400000000E-02 0.  1.
    8880023    1    1    2    0    0 -0.18731306094E+03  0.33742316844E+03  0.17268052632E+04  0.18880167374E+04  0.65864270000E+03 0. -1.
    8880022    1    1    2    0    0  0.18731306094E+03 -0.33742316844E+03 -0.14512331690E+03  0.43976471837E+03  0.15294330000E+03 0.  0.
<mgrwt>
<rscale>  0 0.65554406E+03</rscale>
<asrwt>0</asrwt>
<pdfrwt beam="1">  1        1 0.30072795E+00 0.76338115E+03</pdfrwt>
<pdfrwt beam="2">  1       -1 0.57392271E-01 0.76338115E+03</pdfrwt>
<totfact> 0.10255381E+01</totfact>
</mgrwt>
</event>
<event>
 4    2  0.3884658E-007  0.6757676E+03  0.7818608E-02  0.1011827E+00
          1   -1    0    0  501    0  0.00000000000E+00  0.00000000000E+00  0.10366640808E+04  0.10366640808E+04  0.50400000000E-02 0. -1.
         -1   -1    0    0    0  501 -0.00000000000E+00 -0.00000000000E+00 -0.44901266041E+03  0.44901266044E+03  0.50400000000E-02 0.  1.
    8880023    1    1    2    0    0 -0.13117151711E+03 -0.75137932511E+02  0.88824480756E+03  0.11160827569E+04  0.65864270000E+03 0. -1.
    8880022    1    1    2    0    0  0.13117151711E+03  0.75137932511E+02 -0.30059338721E+03  0.36959398433E+03  0.15294330000E+03 0.  1.
<mgrwt>
<rscale>  0 0.50755040E+03</rscale>
<asrwt>0</asrwt>
<pdfrwt beam="1">  1        1 0.15948678E+00 0.67576762E+03</pdfrwt>
<pdfrwt beam="2">  1       -1 0.69078872E-01 0.67576762E+03</pdfrwt>
<totfact> 0.31129251E+01</totfact>
</mgrwt>
</event>
<event>
 4    2  0.3884658E-007  0.7367197E+03  0.7818608E-02  0.9869607E-01
          1   -1    0    0  501    0  0.00000000000E+00  0.00000000000E+00  0.80883327828E+03  0.80883327830E+03  0.50400000000E-02 0. -1.
         -1   -1    0    0    0  501 -0.00000000000E+00 -0.00000000000E+00 -0.45671612737E+03  0.45671612739E+03  0.50400000000E-02 0.  1.
    8880023    1    1    2    0    0  0.29929016213E+03 -0.13918024380E+03  0.48074119391E+03  0.87969769989E+03  0.65864270000E+03 0. -1.
    8880022    1    1    2    0    0 -0.29929016213E+03  0.13918024380E+03 -0.12862404299E+03  0.38585170580E+03  0.15294330000E+03 0.  0.
<mgrwt>
<rscale>  0 0.61757121E+03</rscale>
<asrwt>0</asrwt>
<pdfrwt beam="1">  1        1 0.12443589E+00 0.73671972E+03</pdfrwt>
<pdfrwt beam="2">  1       -1 0.70264020E-01 0.73671972E+03</pdfrwt>
<totfact> 0.45569998E+01</totfact>
</mgrwt>
</event>
<event>
 4    2  0.3884658E-007  0.8658639E+03  0.7818608E-02  0.9583217E-01
         -1   -1    0    0    0  501 -0.00000000000E+00  0.00000000000E+00  0.49829990744E+03  0.49829990746E+03  0.50400000000E-02 0.  1.
          1   -1    0    0  501    0  0.00000000000E+00 -0.00000000000E+00 -0.17866460079E+04  0.17866460079E+04  0.50400000000E-02 0. -1.
    8880023    1    1    2    0    0 -0.54181650299E+03  0.14948225757E+03 -0.14424821877E+04  0.16824015978E+04  0.65864270000E+03 0.  0.
    8880022    1    1    2    0    0  0.54181650299E+03 -0.14948225757E+03  0.15413608722E+03  0.60254431757E+03  0.15294330000E+03 0.  0.
<mgrwt>
<rscale>  0 0.78417046E+03</rscale>
<asrwt>0</asrwt>
<pdfrwt beam="1">  1        1 0.27486861E+00 0.86586389E+03</pdfrwt>
<pdfrwt beam="2">  1       -1 0.76661525E-01 0.86586389E+03</pdfrwt>
<totfact> 0.72897346E+00</totfact>
</mgrwt>
</event>
<event>
 4    2  0.3884658E-007  0.7594292E+03  0.7818608E-02  0.9806588E-01
         -1   -1    0    0    0  501 -0.00000000000E+00  0.00000000000E+00  0.45993587135E+03  0.45993587138E+03  0.50400000000E-02 0.  1.
          1   -1    0    0  501    0  0.00000000000E+00 -0.00000000000E+00 -0.17288698061E+04  0.17288698061E+04  0.50400000000E-02 0. -1.
    8880023    1    1    2    0    0  0.18908039762E+03 -0.32736989640E+03 -0.15275415087E+04  0.17059061267E+04  0.65864270000E+03 0. -1.
    8880022    1    1    2    0    0 -0.18908039762E+03  0.32736989640E+03  0.25860757399E+03  0.48289955081E+03  0.15294330000E+03 0.  0.
<mgrwt>
<rscale>  0 0.65010213E+03</rscale>
<asrwt>0</asrwt>
<pdfrwt beam="1">  1        1 0.26597997E+00 0.75942916E+03</pdfrwt>
<pdfrwt beam="2">  1       -1 0.70759366E-01 0.75942916E+03</pdfrwt>
<totfact> 0.95629021E+00</totfact>
</mgrwt>
</event>
<event>
 4    2  0.3884658E-007  0.6850832E+03  0.7818608E-02  0.1006583E+00
         -1   -1    0    0    0  501 -0.00000000000E+00  0.00000000000E+00  0.42432437546E+03  0.42432437549E+03  0.50400000000E-02 0.  1.
          1   -1    0    0  501    0  0.00000000000E+00 -0.00000000000E+00 -0.57651871436E+03  0.57651871438E+03  0.50400000000E-02 0. -1.
    8880023    1    1    2    0    0  0.13441848205E+03  0.13213802491E+03 -0.26323495482E+03  0.73391527689E+03  0.65864270000E+03 0. -1.
    8880022    1    1    2    0    0 -0.13441848205E+03 -0.13213802491E+03  0.11104061592E+03  0.26692781298E+03  0.15294330000E+03 0.  0.
<mgrwt>
<rscale>  0 0.52855567E+03</rscale>
<asrwt>0</asrwt>
<pdfrwt beam="1">  1        1 0.88695186E-01 0.68508320E+03</pdfrwt>
<pdfrwt beam="2">  1       -1 0.65280674E-01 0.68508320E+03</pdfrwt>
<totfact> 0.88343721E+01</totfact>
</mgrwt>
</event>
<event>
 4    2  0.3884658E-007  0.8145813E+03  0.7818608E-02  0.9680112E-01
          1   -1    0    0  501    0  0.00000000000E+00  0.00000000000E+00  0.56776325228E+03  0.56776325230E+03  0.50400000000E-02 0. -1.
         -1   -1    0    0    0  501 -0.00000000000E+00 -0.00000000000E+00 -0.86704616287E+03  0.86704616288E+03  0.50400000000E-02 0.  1.
    8880023    1    1    2    0    0 -0.86839132532E+01  0.47922549652E+03  0.59681107137E+02  0.81676467093E+03  0.65864270000E+03 0. -1.
    8880022    1    1    2    0    0  0.86839132532E+01 -0.47922549652E+03 -0.35896401772E+03  0.61804474425E+03  0.15294330000E+03 0.  0.
<mgrwt>
<rscale>  0 0.72213355E+03</rscale>
<asrwt>0</asrwt>
<pdfrwt beam="1">  1        1 0.87348193E-01 0.81458130E+03</pdfrwt>
<pdfrwt beam="2">  1       -1 0.13339172E+00 0.81458130E+03</pdfrwt>
<totfact> 0.17960315E+01</totfact>
</mgrwt>
</event>
<event>
 4    2  0.3884658E-007  0.8625048E+03  0.7818608E-02  0.9589123E-01
          1   -1    0    0  501    0  0.00000000000E+00  0.00000000000E+00  0.15099494641E+04  0.15099494641E+04  0.50400000000E-02 0. -1.
         -1   -1    0    0    0  501 -0.00000000000E+00 -0.00000000000E+00 -0.86213652315E+03  0.86213652316E+03  0.50400000000E-02 0.  1.
    8880023    1    1    2    0    0 -0.32654892636E+03 -0.45107666572E+03  0.12622974183E+04  0.15288261308E+04  0.65864270000E+03 0.  0.
    8880022    1    1    2    0    0  0.32654892636E+03  0.45107666572E+03 -0.61448447734E+03  0.84325985649E+03  0.15294330000E+03 0.  0.
<mgrwt>
<rscale>  0 0.78020275E+03</rscale>
<asrwt>0</asrwt>
<pdfrwt beam="1">  1        1 0.23229991E+00 0.86250482E+03</pdfrwt>
<pdfrwt beam="2">  1       -1 0.13263639E+00 0.86250482E+03</pdfrwt>
<totfact> 0.31810649E+00</totfact>
</mgrwt>
</event>
<event>
 4    2  0.3884658E-007  0.9301077E+03  0.7818608E-02  0.9479332E-01
          1   -1    0    0  501    0  0.00000000000E+00  0.00000000000E+00  0.21935489920E+04  0.21935489920E+04  0.50400000000E-02 0. -1.
         -1   -1    0    0    0  501 -0.00000000000E+00 -0.00000000000E+00 -0.32838620584E+03  0.32838620588E+03  0.50400000000E-02 0.  1.
    8880023    1    1    2    0    0  0.57667549023E+03  0.31422216994E+03  0.14724508227E+04  0.17416118468E+04  0.65864270000E+03 0.  0.
    8880022    1    1    2    0    0 -0.57667549023E+03 -0.31422216994E+03  0.39271196343E+03  0.78032335115E+03  0.15294330000E+03 0.  0.
<mgrwt>
<rscale>  0 0.85824917E+03</rscale>
<asrwt>0</asrwt>
<pdfrwt beam="1">  1        1 0.33746908E+00 0.93010774E+03</pdfrwt>
<pdfrwt beam="2">  1       -1 0.50520954E-01 0.93010774E+03</pdfrwt>
<totfact> 0.88556389E+00</totfact>
</mgrwt>
</event>
<event>
 4    2  0.3884658E-007  0.1034375E+04  0.7818608E-02  0.9337905E-01
         -1   -1    0    0    0  501 -0.00000000000E+00  0.00000000000E+00  0.13448754925E+04  0.13448754925E+04  0.50400000000E-02 0.  1.
          1   -1    0    0  501    0  0.00000000000E+00 -0.00000000000E+00 -0.11123268456E+04  0.11123268457E+04  0.50400000000E-02 0. -1.
    8880023    1    1    2    0    0  0.79050417918E+03 -0.10594380960E+03 -0.67826229518E+03  0.12369199228E+04  0.65864270000E+03 0.  0.
    8880022    1    1    2    0    0 -0.79050417918E+03  0.10594380960E+03  0.91081094204E+03  0.12202824154E+04  0.15294330000E+03 0.  0.
<mgrwt>
<rscale>  0 0.97366896E+03</rscale>
<asrwt>0</asrwt>
<pdfrwt beam="1">  1        1 0.17112721E+00 0.10343748E+04</pdfrwt>
<pdfrwt beam="2">  1       -1 0.20690392E+00 0.10343748E+04</pdfrwt>
<totfact> 0.16755424E+00</totfact>
</mgrwt>
</event>
<event>
 4    2  0.3884658E-007  0.7107028E+03  0.7818608E-02  0.9955401E-01
          1   -1    0    0  501    0  0.00000000000E+00  0.00000000000E+00  0.12350123488E+04  0.12350123488E+04  0.50400000000E-02 0. -1.
         -1   -1    0    0    0  501 -0.00000000000E+00 -0.00000000000E+00 -0.41261342231E+03  0.41261342234E+03  0.50400000000E-02 0.  1.
    8880023    1    1    2    0    0  0.16253665158E+03 -0.21182550965E+03  0.10478778206E+04  0.12661541544E+04  0.65864270000E+03 0. -1.
    8880022    1    1    2    0    0 -0.16253665158E+03  0.21182550965E+03 -0.22547889411E+03  0.38147161670E+03  0.15294330000E+03 0.  0.
<mgrwt>
<rscale>  0 0.57649853E+03</rscale>
<asrwt>0</asrwt>
<pdfrwt beam="1">  1        1 0.19000190E+00 0.71070276E+03</pdfrwt>
<pdfrwt beam="2">  1       -1 0.63478989E-01 0.71070276E+03</pdfrwt>
<totfact> 0.26246941E+01</totfact>
</mgrwt>
</event>
<event>
 4    2  0.3884658E-007  0.7871301E+03  0.7818608E-02  0.9739347E-01
          1   -1    0    0  501    0  0.00000000000E+00  0.00000000000E+00  0.11178281890E+04  0.11178281890E+04  0.50400000000E-02 0. -1.
         -1   -1    0    0    0  501 -0.00000000000E+00 -0.00000000000E+00 -0.73731921823E+03  0.73731921825E+03  0.50400000000E-02 0.  1.
    8880023    1    1    2    0    0 -0.31848212422E+03  0.29040091670E+03  0.87814178937E+03  0.11792823090E+04  0.65864270000E+03 0.  0.
    8880022    1    1    2    0    0  0.31848212422E+03 -0.29040091670E+03 -0.49763281859E+03  0.67586509824E+03  0.15294330000E+03 0.  0.
<mgrwt>
<rscale>  0 0.68721632E+03</rscale>
<asrwt>0</asrwt>
<pdfrwt beam="1">  1        1 0.17197357E+00 0.78713008E+03</pdfrwt>
<pdfrwt beam="2">  1       -1 0.11343373E+00 0.78713008E+03</pdfrwt>
<totfact> 0.89724555E+00</totfact>
</mgrwt>
</event>
<event>
 4    2  0.3884658E-007  0.6612228E+03  0.7818608E-02  0.1022937E+00
         -1   -1    0    0    0  501 -0.00000000000E+00  0.00000000000E+00  0.23241634911E+03  0.23241634917E+03  0.50400000000E-02 0.  1.
          1   -1    0    0  501    0  0.00000000000E+00 -0.00000000000E+00 -0.26808947998E+04  0.26808947998E+04  0.50400000000E-02 0. -1.
    8880023    1    1    2    0    0  0.57088355724E+02 -0.12097888166E+02 -0.26045276717E+04  0.26871509146E+04  0.65864270000E+03 0. -1.
    8880022    1    1    2    0    0 -0.57088355724E+02  0.12097888166E+02  0.15604922092E+03  0.22616023440E+03  0.15294330000E+03 0.  0.
<mgrwt>
<rscale>  0 0.46641429E+03</rscale>
<asrwt>0</asrwt>
<pdfrwt beam="1">  1        1 0.41244533E+00 0.66122284E+03</pdfrwt>
<pdfrwt beam="2">  1       -1 0.35756363E-01 0.66122284E+03</pdfrwt>
<totfact> 0.81299494E+00</totfact>
</mgrwt>
</event>
<event>
 4    2  0.3884658E-007  0.7327685E+03  0.7818608E-02  0.9881536E-01
          1   -1    0    0  501    0  0.00000000000E+00  0.00000000000E+00  0.19266893634E+04  0.19266893634E+04  0.50400000000E-02 0. -1.
         -1   -1    0    0    0  501 -0.00000000000E+00 -0.00000000000E+00 -0.37239108220E+03  0.37239108223E+03  0.50400000000E-02 0.  1.
    8880023    1    1    2    0    0 -0.35445770915E+02 -0.31919130566E+03  0.17470502595E+04  0.18945010709E+04  0.65864270000E+03 0.  0.
    8880022    1    1    2    0    0  0.35445770915E+02  0.31919130566E+03 -0.19275197829E+03  0.40457937470E+03  0.15294330000E+03 0.  0.
<mgrwt>
<rscale>  0 0.61164549E+03</rscale>
<asrwt>0</asrwt>
<pdfrwt beam="1">  1        1 0.29641375E+00 0.73276852E+03</pdfrwt>
<pdfrwt beam="2">  1       -1 0.57290935E-01 0.73276852E+03</pdfrwt>
<totfact> 0.10795583E+01</totfact>
</mgrwt>
</event>
<event>
 4    2  0.3884658E-007  0.6988547E+03  0.7818608E-02  0.1000199E+00
         -1   -1    0    0    0  501 -0.00000000000E+00  0.00000000000E+00  0.17057258819E+03  0.17057258826E+03  0.50400000000E-02 0.  1.
          1   -1    0    0  501    0  0.00000000000E+00 -0.00000000000E+00 -0.19252315895E+04  0.19252315895E+04  0.50400000000E-02 0. -1.
    8880023    1    1    2    0    0 -0.67467616326E+02  0.22368696912E+03 -0.16597310210E+04  0.18008622956E+04  0.65864270000E+03 0. -1.
    8880022    1    1    2    0    0  0.67467616326E+02 -0.22368696912E+03 -0.94927980358E+02  0.29494188220E+03  0.15294330000E+03 0.  0.
<mgrwt>
<rscale>  0 0.55563253E+03</rscale>
<asrwt>0</asrwt>
<pdfrwt beam="1">  1        1 0.29618946E+00 0.69885474E+03</pdfrwt>
<pdfrwt beam="2">  1       -1 0.26241938E-01 0.69885474E+03</pdfrwt>
<totfact> 0.44874195E+01</totfact>
</mgrwt>
</event>
<event>
 4    2  0.3884658E-007  0.1025984E+04  0.7818608E-02  0.9348325E-01
         -1   -1    0    0    0  501 -0.00000000000E+00  0.00000000000E+00  0.10719628998E+04  0.10719628998E+04  0.50400000000E-02 0.  1.
          1   -1    0    0  501    0  0.00000000000E+00 -0.00000000000E+00 -0.13463194358E+04  0.13463194358E+04  0.50400000000E-02 0. -1.
    8880023    1    1    2    0    0 -0.74023338362E+03  0.26624886025E+03 -0.92854956415E+03  0.13837804801E+04  0.65864270000E+03 0.  0.
    8880022    1    1    2    0    0  0.74023338362E+03 -0.26624886025E+03  0.65419302816E+03  0.10345018554E+04  0.15294330000E+03 0.  0.
<mgrwt>
<rscale>  0 0.96453177E+03</rscale>
<asrwt>0</asrwt>
<pdfrwt beam="1">  1        1 0.20712607E+00 0.10259845E+04</pdfrwt>
<pdfrwt beam="2">  1       -1 0.16491737E+00 0.10259845E+04</pdfrwt>
<totfact> 0.22524530E+00</totfact>
</mgrwt>
</event>
<event>
 4    2  0.3884658E-007  0.6604857E+03  0.7818608E-02  0.1023664E+00
          1   -1    0    0  501    0  0.00000000000E+00  0.00000000000E+00  0.23335686174E+04  0.23335686174E+04  0.50400000000E-02 0. -1.
         -1   -1    0    0    0  501 -0.00000000000E+00 -0.00000000000E+00 -0.12168915599E+03  0.12168915610E+03  0.50400000000E-02 0.  1.
    8880023    1    1    2    0    0  0.27188377227E+02 -0.41133198269E+02  0.21967012505E+04  0.22938478018E+04  0.65864270000E+03 0. -1.
    8880022    1    1    2    0    0 -0.27188377227E+02  0.41133198269E+02  0.15178210938E+02  0.16140997168E+03  0.15294330000E+03 0.  0.
<mgrwt>
<rscale>  0 0.46387181E+03</rscale>
<asrwt>0</asrwt>
<pdfrwt beam="1">  1        1 0.35901056E+00 0.66048570E+03</pdfrwt>
<pdfrwt beam="2">  1       -1 0.18721409E-01 0.66048570E+03</pdfrwt>
<totfact> 0.42431043E+01</totfact>
</mgrwt>
</event>
<event>
 4    2  0.3884658E-007  0.7556224E+03  0.7818608E-02  0.9816575E-01
          1   -1    0    0  501    0  0.00000000000E+00  0.00000000000E+00  0.12728842470E+04  0.12728842470E+04  0.50400000000E-02 0. -1.
         -1   -1    0    0    0  501 -0.00000000000E+00 -0.00000000000E+00 -0.91213790338E+03  0.91213790340E+03  0.50400000000E-02 0.  1.
    8880023    1    1    2    0    0 -0.16717560557E+03 -0.33046524321E+03  0.11056519761E+04  0.13391905983E+04  0.65864270000E+03 0. -1.
    8880022    1    1    2    0    0  0.16717560557E+03  0.33046524321E+03 -0.74490563253E+03  0.84583155206E+03  0.15294330000E+03 0.  0.
<mgrwt>
<rscale>  0 0.64480552E+03</rscale>
<asrwt>0</asrwt>
<pdfrwt beam="1">  1        1 0.19582835E+00 0.75562237E+03</pdfrwt>
<pdfrwt beam="2">  1       -1 0.14032891E+00 0.75562237E+03</pdfrwt>
<totfact> 0.40955677E+00</totfact>
</mgrwt>
</event>
<event>
 4    2  0.3884658E-007  0.7211301E+03  0.7818608E-02  0.9918780E-01
         -1   -1    0    0    0  501 -0.00000000000E+00  0.00000000000E+00  0.40894996778E+03  0.40894996781E+03  0.50400000000E-02 0.  1.
          1   -1    0    0  501    0  0.00000000000E+00 -0.00000000000E+00 -0.11437196731E+04  0.11437196731E+04  0.50400000000E-02 0. -1.
    8880023    1    1    2    0    0  0.52936956066E+02  0.28881853240E+03 -0.92340655336E+03  0.11716263632E+04  0.65864270000E+03 0. -1.
    8880022    1    1    2    0    0 -0.52936956066E+02 -0.28881853240E+03  0.18863684808E+03  0.38104327765E+03  0.15294330000E+03 0.  0.
<mgrwt>
<rscale>  0 0.59359682E+03</rscale>
<asrwt>0</asrwt>
<pdfrwt beam="1">  1        1 0.17595687E+00 0.72113014E+03</pdfrwt>
<pdfrwt beam="2">  1       -1 0.62915380E-01 0.72113014E+03</pdfrwt>
<totfact> 0.31078781E+01</totfact>
</mgrwt>
</event>
<event>
 4    2  0.3884658E-007  0.8002927E+03  0.7818608E-02  0.9710164E-01
         -1   -1    0    0    0  501 -0.00000000000E+00  0.00000000000E+00  0.82063269864E+03  0.82063269865E+03  0.50400000000E-02 0.  1.
          1   -1    0    0  501    0  0.00000000000E+00 -0.00000000000E+00 -0.52078849045E+03  0.52078849048E+03  0.50400000000E-02 0. -1.
    8880023    1    1    2    0    0  0.83324936772E+02 -0.44689496338E+03  0.53132615733E+02  0.80205450843E+03  0.65864270000E+03 0. -1.
    8880022    1    1    2    0    0 -0.83324936772E+02  0.44689496338E+03  0.24671159245E+03  0.53936668070E+03  0.15294330000E+03 0.  1.
<mgrwt>
<rscale>  0 0.70414867E+03</rscale>
<asrwt>0</asrwt>
<pdfrwt beam="1">  1        1 0.80121306E-01 0.80029267E+03</pdfrwt>
<pdfrwt beam="2">  1       -1 0.12625118E+00 0.80029267E+03</pdfrwt>
<totfact> 0.23322645E+01</totfact>
</mgrwt>
</event>
<event>
 4    2  0.3884658E-007  0.8611412E+03  0.7818608E-02  0.9591537E-01
          1   -1    0    0  501    0  0.00000000000E+00  0.00000000000E+00  0.31274529219E+04  0.31274529219E+04  0.50400000000E-02 0. -1.
         -1   -1    0    0    0  501 -0.00000000000E+00 -0.00000000000E+00 -0.28451951495E+03  0.28451951500E+03  0.50400000000E-02 0.  1.
    8880023    1    1    2    0    0  0.13351810691E+03 -0.53844865784E+03  0.26784439099E+04  0.28134722367E+04  0.65864270000E+03 0. -1.
    8880022    1    1    2    0    0 -0.13351810691E+03  0.53844865784E+03  0.16448949709E+03  0.59850020023E+03  0.15294330000E+03 0.  0.
<mgrwt>
<rscale>  0 0.77858886E+03</rscale>
<asrwt>0</asrwt>
<pdfrwt beam="1">  1        1 0.48114661E+00 0.86114125E+03</pdfrwt>
<pdfrwt beam="2">  1       -1 0.43772232E-01 0.86114125E+03</pdfrwt>
<totfact> 0.26153720E+00</totfact>
</mgrwt>
</event>
<event>
 4    2  0.3884658E-007  0.7608296E+03  0.7818608E-02  0.9802964E-01
          1   -1    0    0  501    0  0.00000000000E+00  0.00000000000E+00  0.50194241648E+03  0.50194241651E+03  0.50400000000E-02 0. -1.
         -1   -1    0    0    0  501 -0.00000000000E+00 -0.00000000000E+00 -0.96974298738E+03  0.96974298740E+03  0.50400000000E-02 0.  1.
    8880023    1    1    2    0    0  0.80477154651E+02 -0.37225650369E+03  0.10393119418E+03  0.76789542019E+03  0.65864270000E+03 0.  0.
    8880022    1    1    2    0    0 -0.80477154651E+02  0.37225650369E+03 -0.57173176508E+03  0.70378998371E+03  0.15294330000E+03 0.  0.
<mgrwt>
<rscale>  0 0.65203696E+03</rscale>
<asrwt>0</asrwt>
<pdfrwt beam="1">  1        1 0.77221910E-01 0.76082960E+03</pdfrwt>
<pdfrwt beam="2">  1       -1 0.14919123E+00 0.76082960E+03</pdfrwt>
<totfact> 0.16015176E+01</totfact>
</mgrwt>
</event>
<event>
 4    2  0.3884658E-007  0.6738007E+03  0.7818608E-02  0.1013073E+00
         -1   -1    0    0    0  501 -0.00000000000E+00  0.00000000000E+00  0.64966288884E+02  0.64966289079E+02  0.50400000000E-02 0.  1.
          1   -1    0    0  501    0  0.00000000000E+00 -0.00000000000E+00 -0.31840597387E+04  0.31840597387E+04  0.50400000000E-02 0. -1.
    8880023    1    1    2    0    0 -0.43146513241E+02  0.13540901235E+03 -0.26710607890E+04  0.27547364968E+04  0.65864270000E+03 0.  0.
    8880022    1    1    2    0    0  0.43146513241E+02 -0.13540901235E+03 -0.44803266087E+03  0.49428953099E+03  0.15294330000E+03 0.  0.
<mgrwt>
<rscale>  0 0.50271352E+03</rscale>
<asrwt>0</asrwt>
<pdfrwt beam="1">  1        1 0.48985522E+00 0.67380073E+03</pdfrwt>
<pdfrwt beam="2">  1       -1 0.99948162E-02 0.67380073E+03</pdfrwt>
<totfact> 0.29685484E+01</totfact>
</mgrwt>
</event>
<event>
 4    2  0.3884658E-007  0.6779631E+03  0.7818608E-02  0.1010500E+00
         -1   -1    0    0    0  501 -0.00000000000E+00  0.00000000000E+00  0.28078457462E+03  0.28078457467E+03  0.50400000000E-02 0.  1.
          1   -1    0    0  501    0  0.00000000000E+00 -0.00000000000E+00 -0.15346644656E+04  0.15346644657E+04  0.50400000000E-02 0. -1.
    8880023    1    1    2    0    0 -0.51005138105E+02  0.15238840490E+03 -0.13960461518E+04  0.15519596690E+04  0.65864270000E+03 0. -1.
    8880022    1    1    2    0    0  0.51005138105E+02 -0.15238840490E+03  0.14216626079E+03  0.26348937129E+03  0.15294330000E+03 0.  0.
<mgrwt>
<rscale>  0 0.51276358E+03</rscale>
<asrwt>0</asrwt>
<pdfrwt beam="1">  1        1 0.23610222E+00 0.67796309E+03</pdfrwt>
<pdfrwt beam="2">  1       -1 0.43197628E-01 0.67796309E+03</pdfrwt>
<totfact> 0.34048100E+01</totfact>
</mgrwt>
</event>
<event>
 4    2  0.3884658E-007  0.6774223E+03  0.7818608E-02  0.1010821E+00
         -1   -1    0    0    0  501 -0.00000000000E+00  0.00000000000E+00  0.50923361008E+03  0.50923361010E+03  0.50400000000E-02 0.  1.
          1   -1    0    0  501    0  0.00000000000E+00 -0.00000000000E+00 -0.74364812192E+03  0.74364812193E+03  0.50400000000E-02 0. -1.
    8880023    1    1    2    0    0  0.14962743672E+03 -0.51984361345E+02 -0.54688649076E+03  0.87062378998E+03  0.65864270000E+03 0. -1.
    8880022    1    1    2    0    0 -0.14962743672E+03  0.51984361345E+02  0.31247197891E+03  0.38225794206E+03  0.15294330000E+03 0.  0.
<mgrwt>
<rscale>  0 0.51149644E+03</rscale>
<asrwt>0</asrwt>
<pdfrwt beam="1">  1        1 0.11440740E+00 0.67742228E+03</pdfrwt>
<pdfrwt beam="2">  1       -1 0.78343632E-01 0.67742228E+03</pdfrwt>
<totfact> 0.41735610E+01</totfact>
</mgrwt>
</event>
<event>
 4    2  0.3884658E-007  0.8348348E+03  0.7818608E-02  0.9639998E-01
         -1   -1    0    0    0  501 -0.00000000000E+00  0.00000000000E+00  0.96046909579E+03  0.96046909581E+03  0.50400000000E-02 0.  1.
          1   -1    0    0  501    0  0.00000000000E+00 -0.00000000000E+00 -0.10006890623E+04  0.10006890623E+04  0.50400000000E-02 0. -1.
    8880023    1    1    2    0    0  0.34409252710E+03 -0.38044621665E+03 -0.71547147234E+03  0.10994765232E+04  0.65864270000E+03 0.  0.
    8880022    1    1    2    0    0 -0.34409252710E+03  0.38044621665E+03  0.67525150581E+03  0.86168163499E+03  0.15294330000E+03 0.  0.
<mgrwt>
<rscale>  0 0.74704507E+03</rscale>
<asrwt>0</asrwt>
<pdfrwt beam="1">  1        1 0.15395216E+00 0.83483483E+03</pdfrwt>
<pdfrwt beam="2">  1       -1 0.14776448E+00 0.83483483E+03</pdfrwt>
<totfact> 0.56175896E+00</totfact>
</mgrwt>
</event>
<event>
 4    2  0.3884658E-007  0.7947503E+03  0.7818608E-02  0.9722264E-01
         -1   -1    0    0    0  501 -0.00000000000E+00  0.00000000000E+00  0.16929441290E+03  0.16929441297E+03  0.50400000000E-02 0.  1.
          1   -1    0    0  501    0  0.00000000000E+00 -0.00000000000E+00 -0.24392406483E+04  0.24392406483E+04  0.50400000000E-02 0. -1.
    8880023    1    1    2    0    0  0.43272436152E+03  0.10279813737E+03 -0.11944104196E+04  0.14346582474E+04  0.65864270000E+03 0.  0.
    8880022    1    1    2    0    0 -0.43272436152E+03 -0.10279813737E+03 -0.10755358157E+04  0.11738768138E+04  0.15294330000E+03 0.  0.
<mgrwt>
<rscale>  0 0.69706535E+03</rscale>
<asrwt>0</asrwt>
<pdfrwt beam="1">  1        1 0.37526777E+00 0.79475030E+03</pdfrwt>
<pdfrwt beam="2">  1       -1 0.26045296E-01 0.79475030E+03</pdfrwt>
<totfact> 0.20263952E+01</totfact>
</mgrwt>
</event>
<event>
 4    2  0.3884658E-007  0.6769894E+03  0.7818608E-02  0.1011081E+00
          1   -1    0    0  501    0  0.00000000000E+00  0.00000000000E+00  0.10701812275E+04  0.10701812275E+04  0.50400000000E-02 0. -1.
         -1   -1    0    0    0  501 -0.00000000000E+00 -0.00000000000E+00 -0.23904558594E+03  0.23904558600E+03  0.50400000000E-02 0.  1.
    8880023    1    1    2    0    0  0.95811908249E+02 -0.12379222715E+03  0.85332188605E+03  0.10892533611E+04  0.65864270000E+03 0. -1.
    8880022    1    1    2    0    0 -0.95811908249E+02  0.12379222715E+03 -0.22186244542E+02  0.21997345233E+03  0.15294330000E+03 0.  0.
<mgrwt>
<rscale>  0 0.51047433E+03</rscale>
<asrwt>0</asrwt>
<pdfrwt beam="1">  1        1 0.16464326E+00 0.67698940E+03</pdfrwt>
<pdfrwt beam="2">  1       -1 0.36776244E-01 0.67698940E+03</pdfrwt>
<totfact> 0.97283920E+01</totfact>
</mgrwt>
</event>
<event>
 4    2  0.3884658E-007  0.7301569E+03  0.7818608E-02  0.9889607E-01
         -1   -1    0    0    0  501 -0.00000000000E+00  0.00000000000E+00  0.13375773744E+03  0.13375773754E+03  0.50400000000E-02 0.  1.
          1   -1    0    0  501    0  0.00000000000E+00 -0.00000000000E+00 -0.30084180922E+04  0.30084180922E+04  0.50400000000E-02 0. -1.
    8880023    1    1    2    0    0  0.31071061883E+03 -0.52704919111E+02 -0.25895314528E+04  0.26905022298E+04  0.65864270000E+03 0. -1.
    8880022    1    1    2    0    0 -0.31071061883E+03  0.52704919111E+02 -0.28512890196E+03  0.45167359997E+03  0.15294330000E+03 0.  0.
<mgrwt>
<rscale>  0 0.60767642E+03</rscale>
<asrwt>0</asrwt>
<pdfrwt beam="1">  1        1 0.46283350E+00 0.73015690E+03</pdfrwt>
<pdfrwt beam="2">  1       -1 0.20578116E-01 0.73015690E+03</pdfrwt>
<totfact> 0.12227793E+01</totfact>
</mgrwt>
</event>
<event>
 4    2  0.3884658E-007  0.6814280E+03  0.7818608E-02  0.1008527E+00
         -1   -1    0    0    0  501 -0.00000000000E+00  0.00000000000E+00  0.44140410918E+03  0.44140410920E+03  0.50400000000E-02 0.  1.
          1   -1    0    0  501    0  0.00000000000E+00 -0.00000000000E+00 -0.17942749295E+04  0.17942749295E+04  0.50400000000E-02 0. -1.
    8880023    1    1    2    0    0 -0.16976171616E+03  0.41410901052E+02 -0.16923419631E+04  0.18243808345E+04  0.65864270000E+03 0. -1.
    8880022    1    1    2    0    0  0.16976171616E+03 -0.41410901052E+02  0.33947114276E+03  0.41129820421E+03  0.15294330000E+03 0.  0.
<mgrwt>
<rscale>  0 0.52064213E+03</rscale>
<asrwt>0</asrwt>
<pdfrwt beam="1">  1        1 0.27604229E+00 0.68142799E+03</pdfrwt>
<pdfrwt beam="2">  1       -1 0.67908325E-01 0.68142799E+03</pdfrwt>
<totfact> 0.95207970E+00</totfact>
</mgrwt>
</event>
<event>
 4    2  0.3884658E-007  0.6902338E+03  0.7818608E-02  0.1004042E+00
          1   -1    0    0  501    0  0.00000000000E+00  0.00000000000E+00  0.63418513033E+03  0.63418513035E+03  0.50400000000E-02 0. -1.
         -1   -1    0    0    0  501 -0.00000000000E+00 -0.00000000000E+00 -0.45318259318E+03  0.45318259321E+03  0.50400000000E-02 0.  1.
    8880023    1    1    2    0    0 -0.35305051542E+02 -0.20338654346E+03  0.35588625613E+03  0.77658081762E+03  0.65864270000E+03 0. -1.
    8880022    1    1    2    0    0  0.35305051542E+02  0.20338654346E+03 -0.17488371898E+03  0.31078690594E+03  0.15294330000E+03 0. -1.
<mgrwt>
<rscale>  0 0.53913014E+03</rscale>
<asrwt>0</asrwt>
<pdfrwt beam="1">  1        1 0.97566942E-01 0.69023383E+03</pdfrwt>
<pdfrwt beam="2">  1       -1 0.69720400E-01 0.69023383E+03</pdfrwt>
<totfact> 0.67389888E+01</totfact>
</mgrwt>
</event>
<event>
 4    2  0.3884658E-007  0.8040716E+03  0.7818608E-02  0.9702061E-01
         -1   -1    0    0    0  501 -0.00000000000E+00  0.00000000000E+00  0.10252540784E+04  0.10252540784E+04  0.50400000000E-02 0.  1.
          1   -1    0    0  501    0  0.00000000000E+00 -0.00000000000E+00 -0.14046396653E+04  0.14046396653E+04  0.50400000000E-02 0. -1.
    8880023    1    1    2    0    0  0.27757412660E+03  0.36833891007E+03 -0.12187078064E+04  0.14600615987E+04  0.65864270000E+03 0. -1.
    8880022    1    1    2    0    0 -0.27757412660E+03 -0.36833891007E+03  0.83932221950E+03  0.96983214505E+03  0.15294330000E+03 0.  0.
<mgrwt>
<rscale>  0 0.70894239E+03</rscale>
<asrwt>0</asrwt>
<pdfrwt beam="1">  1        1 0.21609841E+00 0.80407161E+03</pdfrwt>
<pdfrwt beam="2">  1       -1 0.15773140E+00 0.80407161E+03</pdfrwt>
<totfact> 0.24000809E+00</totfact>
</mgrwt>
</event>
<event>
 4    2  0.3884658E-007  0.8310429E+03  0.7818608E-02  0.9647307E-01
         -1   -1    0    0    0  501 -0.00000000000E+00  0.00000000000E+00  0.11288417999E+04  0.11288417999E+04  0.50400000000E-02 0.  1.
          1   -1    0    0  501    0  0.00000000000E+00 -0.00000000000E+00 -0.68012027552E+03  0.68012027553E+03  0.50400000000E-02 0. -1.
    8880023    1    1    2    0    0  0.36978392170E+03  0.34652844906E+03 -0.30730193646E+03  0.88603995462E+03  0.65864270000E+03 0. -1.
    8880022    1    1    2    0    0 -0.36978392170E+03 -0.34652844906E+03  0.75602346088E+03  0.92292212086E+03  0.15294330000E+03 0.  0.
<mgrwt>
<rscale>  0 0.74242702E+03</rscale>
<asrwt>0</asrwt>
<pdfrwt beam="1">  1        1 0.10463389E+00 0.83104291E+03</pdfrwt>
<pdfrwt beam="2">  1       -1 0.17366797E+00 0.83104291E+03</pdfrwt>
<totfact> 0.67304143E+00</totfact>
</mgrwt>
</event>
<event>
 4    2  0.3884658E-007  0.7276444E+03  0.7818608E-02  0.9897521E-01
         -1   -1    0    0    0  501 -0.00000000000E+00  0.00000000000E+00  0.48094496804E+03  0.48094496807E+03  0.50400000000E-02 0.  1.
          1   -1    0    0  501    0  0.00000000000E+00 -0.00000000000E+00 -0.66583308977E+03  0.66583308979E+03  0.50400000000E-02 0. -1.
    8880023    1    1    2    0    0 -0.18927809755E+03 -0.24460173435E+03 -0.29416100006E+03  0.78485483172E+03  0.65864270000E+03 0. -1.
    8880022    1    1    2    0    0  0.18927809755E+03  0.24460173435E+03  0.10927287834E+03  0.36192322613E+03  0.15294330000E+03 0.  0.
<mgrwt>
<rscale>  0 0.60381598E+03</rscale>
<asrwt>0</asrwt>
<pdfrwt beam="1">  1        1 0.10243586E+00 0.72764443E+03</pdfrwt>
<pdfrwt beam="2">  1       -1 0.73991534E-01 0.72764443E+03</pdfrwt>
<totfact> 0.55319728E+01</totfact>
</mgrwt>
</event>
<event>
 4    2  0.3884658E-007  0.7684865E+03  0.7818608E-02  0.9783612E-01
          1   -1    0    0  501    0  0.00000000000E+00  0.00000000000E+00  0.56914210067E+03  0.56914210069E+03  0.50400000000E-02 0. -1.
         -1   -1    0    0    0  501 -0.00000000000E+00 -0.00000000000E+00 -0.78885965998E+03  0.78885965999E+03  0.50400000000E-02 0.  1.
    8880023    1    1    2    0    0 -0.37234580603E+03 -0.13461030074E+03 -0.43396276130E+03  0.88255040468E+03  0.65864270000E+03 0.  1.
    8880022    1    1    2    0    0  0.37234580603E+03  0.13461030074E+03  0.21424520199E+03  0.47545135601E+03  0.15294330000E+03 0.  0.
<mgrwt>
<rscale>  0 0.66249465E+03</rscale>
<asrwt>0</asrwt>
<pdfrwt beam="1">  1        1 0.87560323E-01 0.76848652E+03</pdfrwt>
<pdfrwt beam="2">  1       -1 0.12136302E+00 0.76848652E+03</pdfrwt>
<totfact> 0.22773305E+01</totfact>
</mgrwt>
</event>
<event>
 4    2  0.3884658E-007  0.6782613E+03  0.7818608E-02  0.1010325E+00
         -1   -1    0    0    0  501 -0.00000000000E+00  0.00000000000E+00  0.57960315365E+03  0.57960315367E+03  0.50400000000E-02 0.  1.
          1   -1    0    0  501    0  0.00000000000E+00 -0.00000000000E+00 -0.80965484490E+03  0.80965484492E+03  0.50400000000E-02 0. -1.
    8880023    1    1    2    0    0 -0.23477339167E+01  0.16193433016E+03 -0.63369538938E+03  0.92822857741E+03  0.65864270000E+03 0. -1.
    8880022    1    1    2    0    0  0.23477339167E+01 -0.16193433016E+03  0.40364369813E+03  0.46102942118E+03  0.15294330000E+03 0.  0.
<mgrwt>
<rscale>  0 0.51345782E+03</rscale>
<asrwt>0</asrwt>
<pdfrwt beam="1">  1        1 0.12456228E+00 0.67826134E+03</pdfrwt>
<pdfrwt beam="2">  1       -1 0.89169716E-01 0.67826134E+03</pdfrwt>
<totfact> 0.27657235E+01</totfact>
</mgrwt>
</event>
<event>
 4    2  0.3884658E-007  0.8647450E+03  0.7818608E-02  0.9585178E-01
          1   -1    0    0  501    0  0.00000000000E+00  0.00000000000E+00  0.12858494620E+04  0.12858494620E+04  0.50400000000E-02 0. -1.
         -1   -1    0    0    0  501 -0.00000000000E+00 -0.00000000000E+00 -0.54212598142E+03  0.54212598144E+03  0.50400000000E-02 0.  1.
    8880023    1    1    2    0    0  0.18184436044E+03 -0.53000604395E+03  0.87744758281E+03  0.12319489620E+04  0.65864270000E+03 0.  0.
    8880022    1    1    2    0    0 -0.18184436044E+03  0.53000604395E+03 -0.13372410226E+03  0.59602648145E+03  0.15294330000E+03 0.  0.
<mgrwt>
<rscale>  0 0.78285014E+03</rscale>
<asrwt>0</asrwt>
<pdfrwt beam="1">  1        1 0.19782299E+00 0.86474504E+03</pdfrwt>
<pdfrwt beam="2">  1       -1 0.83403998E-01 0.86474504E+03</pdfrwt>
<totfact> 0.13460367E+01</totfact>
</mgrwt>
</event>
<event>
 4    2  0.3884658E-007  0.7045921E+03  0.7818608E-02  0.9978659E-01
          1   -1    0    0  501    0  0.00000000000E+00  0.00000000000E+00  0.48012589857E+03  0.48012589860E+03  0.50400000000E-02 0. -1.
         -1   -1    0    0    0  501 -0.00000000000E+00 -0.00000000000E+00 -0.15725585985E+04  0.15725585985E+04  0.50400000000E-02 0.  1.
    8880023    1    1    2    0    0 -0.21918520716E+03 -0.12082073873E+03  0.19595338671E+03  0.73133285306E+03  0.65864270000E+03 0.  0.
    8880022    1    1    2    0    0  0.21918520716E+03  0.12082073873E+03 -0.12883860866E+04  0.13213516440E+04  0.15294330000E+03 0.  0.
<mgrwt>
<rscale>  0 0.56595967E+03</rscale>
<asrwt>0</asrwt>
<pdfrwt beam="1">  1        1 0.73865524E-01 0.70459209E+03</pdfrwt>
<pdfrwt beam="2">  1       -1 0.24193209E+00 0.70459209E+03</pdfrwt>
<totfact> 0.38679231E+00</totfact>
</mgrwt>
</event>
<event>
 4    2  0.3884658E-007  0.7721262E+03  0.7818608E-02  0.9774669E-01
         -1   -1    0    0    0  501 -0.00000000000E+00  0.00000000000E+00  0.61972659804E+03  0.61972659807E+03  0.50400000000E-02 0.  1.
          1   -1    0    0  501    0  0.00000000000E+00 -0.00000000000E+00 -0.10332798263E+04  0.10332798263E+04  0.50400000000E-02 0. -1.
    8880023    1    1    2    0    0  0.30367121955E+03 -0.26486294859E+03 -0.77242274042E+03  0.10921610171E+04  0.65864270000E+03 0.  0.
    8880022    1    1    2    0    0 -0.30367121955E+03  0.26486294859E+03  0.35886951214E+03  0.56084540729E+03  0.15294330000E+03 0.  0.
<mgrwt>
<rscale>  0 0.66739860E+03</rscale>
<asrwt>0</asrwt>
<pdfrwt beam="1">  1        1 0.15896613E+00 0.77212615E+03</pdfrwt>
<pdfrwt beam="2">  1       -1 0.95342554E-01 0.77212615E+03</pdfrwt>
<totfact> 0.15562508E+01</totfact>
</mgrwt>
</event>
<event>
 4    2  0.3884658E-007  0.1588963E+04  0.7818608E-02  0.8849243E-01
         -1   -1    0    0    0  501 -0.00000000000E+00  0.00000000000E+00  0.18495928085E+04  0.18495928085E+04  0.50400000000E-02 0.  1.
          1   -1    0    0  501    0  0.00000000000E+00 -0.00000000000E+00 -0.13643808286E+04  0.13643808286E+04  0.50400000000E-02 0. -1.
    8880023    1    1    2    0    0  0.12018856157E+04 -0.80402936326E+03  0.71396960121E+03  0.17419974306E+04  0.65864270000E+03 0.  0.
    8880022    1    1    2    0    0 -0.12018856157E+04  0.80402936326E+03 -0.22875762126E+03  0.14719762065E+04  0.15294330000E+03 0.  0.
<mgrwt>
<rscale>  0 0.15541154E+04</rscale>
<asrwt>0</asrwt>
<pdfrwt beam="1">  1        1 0.20990474E+00 0.15889627E+04</pdfrwt>
<pdfrwt beam="2">  1       -1 0.28455274E+00 0.15889627E+04</pdfrwt>
<totfact> 0.31745126E-01</totfact>
</mgrwt>
</event>
<event>
 4    2  0.3884658E-007  0.6621522E+03  0.7818608E-02  0.1022052E+00
         -1   -1    0    0    0  501 -0.00000000000E+00  0.00000000000E+00  0.22920582821E+04  0.22920582821E+04  0.50400000000E-02 0.  1.
          1   -1    0    0  501    0  0.00000000000E+00 -0.00000000000E+00 -0.25059123531E+03  0.25059123536E+03  0.50400000000E-02 0. -1.
    8880023    1    1    2    0    0  0.64211960798E+02  0.22630283421E+02  0.19733161260E+03  0.69093073259E+03  0.65864270000E+03 0. -1.
    8880022    1    1    2    0    0 -0.64211960798E+02 -0.22630283421E+02  0.18441354342E+04  0.18517187849E+04  0.15294330000E+03 0.  0.
<mgrwt>
<rscale>  0 0.46953217E+03</rscale>
<asrwt>0</asrwt>
<pdfrwt beam="1">  1        1 0.38552498E-01 0.66215218E+03</pdfrwt>
<pdfrwt beam="2">  1       -1 0.35262435E+00 0.66215218E+03</pdfrwt>
<totfact> 0.17790686E+00</totfact>
</mgrwt>
</event>
<event>
 4    2  0.3884658E-007  0.7189949E+03  0.7818608E-02  0.9926002E-01
         -1   -1    0    0    0  501 -0.00000000000E+00  0.00000000000E+00  0.20902210191E+03  0.20902210197E+03  0.50400000000E-02 0.  1.
          1   -1    0    0  501    0  0.00000000000E+00 -0.00000000000E+00 -0.18949468665E+04  0.18949468665E+04  0.50400000000E-02 0. -1.
    8880023    1    1    2    0    0  0.14531449444E+03  0.24905244364E+03 -0.16180288250E+04  0.17705849052E+04  0.65864270000E+03 0.  0.
    8880022    1    1    2    0    0 -0.14531449444E+03 -0.24905244364E+03 -0.67895939602E+02  0.33338406322E+03  0.15294330000E+03 0.  0.
<mgrwt>
<rscale>  0 0.59017515E+03</rscale>
<asrwt>0</asrwt>
<pdfrwt beam="1">  1        1 0.29153028E+00 0.71899487E+03</pdfrwt>
<pdfrwt beam="2">  1       -1 0.32157248E-01 0.71899487E+03</pdfrwt>
<totfact> 0.32952981E+01</totfact>
</mgrwt>
</event>
<event>
 4    2  0.3884658E-007  0.9796583E+03  0.7818608E-02  0.9408668E-01
          1   -1    0    0  501    0  0.00000000000E+00  0.00000000000E+00  0.62715163852E+03  0.62715163854E+03  0.50400000000E-02 0. -1.
         -1   -1    0    0    0  501 -0.00000000000E+00 -0.00000000000E+00 -0.12998739940E+04  0.12998739940E+04  0.50400000000E-02 0.  1.
    8880023    1    1    2    0    0 -0.15547441363E+03  0.70834165786E+03 -0.89167288351E+02  0.98370788811E+03  0.65864270000E+03 0. -1.
    8880022    1    1    2    0    0  0.15547441363E+03 -0.70834165786E+03 -0.58355506708E+03  0.94331774439E+03  0.15294330000E+03 0.  0.
<mgrwt>
<rscale>  0 0.91365733E+03</rscale>
<asrwt>0</asrwt>
<pdfrwt beam="1">  1        1 0.96484867E-01 0.97965831E+03</pdfrwt>
<pdfrwt beam="2">  1       -1 0.19998061E+00 0.97965831E+03</pdfrwt>
<totfact> 0.48652427E+00</totfact>
</mgrwt>
</event>
<event>
 4    2  0.3884658E-007  0.7107381E+03  0.7818608E-02  0.9955270E-01
          1   -1    0    0  501    0  0.00000000000E+00  0.00000000000E+00  0.77388315553E+03  0.77388315554E+03  0.50400000000E-02 0. -1.
         -1   -1    0    0    0  501 -0.00000000000E+00 -0.00000000000E+00 -0.86529857560E+03  0.86529857561E+03  0.50400000000E-02 0.  1.
    8880023    1    1    2    0    0  0.12857017156E+03  0.23411138822E+03  0.56908019591E+03  0.91049486915E+03  0.65864270000E+03 0.  1.
    8880022    1    1    2    0    0 -0.12857017156E+03 -0.23411138822E+03 -0.66049561599E+03  0.72868686201E+03  0.15294330000E+03 0.  0.
<mgrwt>
<rscale>  0 0.57655824E+03</rscale>
<asrwt>0</asrwt>
<pdfrwt beam="1">  1        1 0.11905895E+00 0.71073809E+03</pdfrwt>
<pdfrwt beam="2">  1       -1 0.13312286E+00 0.71073809E+03</pdfrwt>
<totfact> 0.11527176E+01</totfact>
</mgrwt>
</event>
<event>
 4    2  0.3884658E-007  0.7511368E+03  0.7818608E-02  0.9828619E-01
          1   -1    0    0  501    0  0.00000000000E+00  0.00000000000E+00  0.56763501955E+03  0.56763501957E+03  0.50400000000E-02 0. -1.
         -1   -1    0    0    0  501 -0.00000000000E+00 -0.00000000000E+00 -0.93696891400E+03  0.93696891402E+03  0.50400000000E-02 0.  1.
    8880023    1    1    2    0    0  0.30447993175E+03  0.19413455733E+03  0.23248350826E+03  0.78629195791E+03  0.65864270000E+03 0.  1.
    8880022    1    1    2    0    0 -0.30447993175E+03 -0.19413455733E+03 -0.60181740271E+03  0.71831197569E+03  0.15294330000E+03 0.  0.
<mgrwt>
<rscale>  0 0.63849065E+03</rscale>
<asrwt>0</asrwt>
<pdfrwt beam="1">  1        1 0.87328465E-01 0.75113678E+03</pdfrwt>
<pdfrwt beam="2">  1       -1 0.14414906E+00 0.75113678E+03</pdfrwt>
<totfact> 0.14795503E+01</totfact>
</mgrwt>
</event>
<event>
 4    2  0.3884658E-007  0.6966696E+03  0.7818608E-02  0.1001131E+00
         -1   -1    0    0    0  501 -0.00000000000E+00  0.00000000000E+00  0.11154292499E+04  0.11154292499E+04  0.50400000000E-02 0.  1.
          1   -1    0    0  501    0  0.00000000000E+00 -0.00000000000E+00 -0.60672728014E+03  0.60672728016E+03  0.50400000000E-02 0. -1.
    8880023    1    1    2    0    0 -0.10808999247E+03  0.19963686254E+03 -0.37908351871E+03  0.79312851656E+03  0.65864270000E+03 0. -1.
    8880022    1    1    2    0    0  0.10808999247E+03 -0.19963686254E+03  0.88778548846E+03  0.92902801352E+03  0.15294330000E+03 0.  0.
<mgrwt>
<rscale>  0 0.55157185E+03</rscale>
<asrwt>0</asrwt>
<pdfrwt beam="1">  1        1 0.93342659E-01 0.69666960E+03</pdfrwt>
<pdfrwt beam="2">  1       -1 0.17160450E+00 0.69666960E+03</pdfrwt>
<totfact> 0.83888171E+00</totfact>
</mgrwt>
</event>
<event>
 4    2  0.3884658E-007  0.7199169E+03  0.7818608E-02  0.9922867E-01
         -1   -1    0    0    0  501 -0.00000000000E+00  0.00000000000E+00  0.14206679961E+04  0.14206679961E+04  0.50400000000E-02 0.  1.
          1   -1    0    0  501    0  0.00000000000E+00 -0.00000000000E+00 -0.75776100970E+03  0.75776100971E+03  0.50400000000E-02 0. -1.
    8880023    1    1    2    0    0 -0.21056186399E+03  0.20033448618E+03 -0.56007239761E+03  0.91211923659E+03  0.65864270000E+03 0. -1.
    8880022    1    1    2    0    0  0.21056186399E+03 -0.20033448618E+03  0.12229793840E+04  0.12663097692E+04  0.15294330000E+03 0.  0.
<mgrwt>
<rscale>  0 0.59165738E+03</rscale>
<asrwt>0</asrwt>
<pdfrwt beam="1">  1        1 0.11657862E+00 0.71991695E+03</pdfrwt>
<pdfrwt beam="2">  1       -1 0.21856431E+00 0.71991695E+03</pdfrwt>
<totfact> 0.28381676E+00</totfact>
</mgrwt>
</event>
<event>
 4    2  0.3884658E-007  0.6909002E+03  0.7818608E-02  0.1003728E+00
          1   -1    0    0  501    0  0.00000000000E+00  0.00000000000E+00  0.38533558380E+03  0.38533558383E+03  0.50400000000E-02 0. -1.
         -1   -1    0    0    0  501 -0.00000000000E+00 -0.00000000000E+00 -0.10686835753E+04  0.10686835753E+04  0.50400000000E-02 0.  1.
    8880023    1    1    2    0    0  0.19226019349E+03  0.81048456094E+02  0.33710146504E+02  0.69172206447E+03  0.65864270000E+03 0. -1.
    8880022    1    1    2    0    0 -0.19226019349E+03 -0.81048456094E+02 -0.71705813798E+03  0.76229709464E+03  0.15294330000E+03 0.  0.
<mgrwt>
<rscale>  0 0.54045508E+03</rscale>
<asrwt>0</asrwt>
<pdfrwt beam="1">  1        1 0.59282398E-01 0.69090017E+03</pdfrwt>
<pdfrwt beam="2">  1       -1 0.16441286E+00 0.69090017E+03</pdfrwt>
<totfact> 0.17642517E+01</totfact>
</mgrwt>
</event>
<event>
 4    2  0.3884658E-007  0.8963615E+03  0.7818608E-02  0.9531898E-01
         -1   -1    0    0    0  501 -0.00000000000E+00  0.00000000000E+00  0.89919296710E+03  0.89919296712E+03  0.50400000000E-02 0.  1.
          1   -1    0    0  501    0  0.00000000000E+00 -0.00000000000E+00 -0.14722437517E+04  0.14722437517E+04  0.50400000000E-02 0. -1.
    8880023    1    1    2    0    0 -0.60292826337E+03  0.78302476927E+02 -0.11913530038E+04  0.14909010546E+04  0.65864270000E+03 0. -1.
    8880022    1    1    2    0    0  0.60292826337E+03 -0.78302476927E+02  0.61830221922E+03  0.88053566422E+03  0.15294330000E+03 0.  0.
<mgrwt>
<rscale>  0 0.81972418E+03</rscale>
<asrwt>0</asrwt>
<pdfrwt beam="1">  1        1 0.22649904E+00 0.89636152E+03</pdfrwt>
<pdfrwt beam="2">  1       -1 0.13833738E+00 0.89636152E+03</pdfrwt>
<totfact> 0.30158151E+00</totfact>
</mgrwt>
</event>
<event>
 4    2  0.3884658E-007  0.7258842E+03  0.7818608E-02  0.9903157E-01
         -1   -1    0    0    0  501 -0.00000000000E+00  0.00000000000E+00  0.68700189799E+03  0.68700189801E+03  0.50400000000E-02 0.  1.
          1   -1    0    0  501    0  0.00000000000E+00 -0.00000000000E+00 -0.43661706286E+03  0.43661706289E+03  0.50400000000E-02 0. -1.
    8880023    1    1    2    0    0 -0.11225444828E+03  0.28371918799E+03  0.49469028002E+02  0.72756788672E+03  0.65864270000E+03 0. -1.
    8880022    1    1    2    0    0  0.11225444828E+03 -0.28371918799E+03  0.20091580713E+03  0.39605107418E+03  0.15294330000E+03 0.  0.
<mgrwt>
<rscale>  0 0.60108550E+03</rscale>
<asrwt>0</asrwt>
<pdfrwt beam="1">  1        1 0.67171856E-01 0.72588418E+03</pdfrwt>
<pdfrwt beam="2">  1       -1 0.10569260E+00 0.72588418E+03</pdfrwt>
<totfact> 0.45774195E+01</totfact>
</mgrwt>
</event>
<event>
 4    2  0.3884658E-007  0.7131146E+03  0.7818608E-02  0.9946612E-01
         -1   -1    0    0    0  501 -0.00000000000E+00  0.00000000000E+00  0.16050372625E+03  0.16050372633E+03  0.50400000000E-02 0.  1.
          1   -1    0    0  501    0  0.00000000000E+00 -0.00000000000E+00 -0.19489646378E+04  0.19489646378E+04  0.50400000000E-02 0. -1.
    8880023    1    1    2    0    0 -0.24709371059E+03 -0.11690574617E+03 -0.15792614706E+04  0.17328009851E+04  0.65864270000E+03 0. -1.
    8880022    1    1    2    0    0  0.24709371059E+03  0.11690574617E+03 -0.20919944097E+03  0.37666737902E+03  0.15294330000E+03 0.  0.
<mgrwt>
<rscale>  0 0.58054492E+03</rscale>
<asrwt>0</asrwt>
<pdfrwt beam="1">  1        1 0.29984070E+00 0.71311462E+03</pdfrwt>
<pdfrwt beam="2">  1       -1 0.24692882E-01 0.71311462E+03</pdfrwt>
<totfact> 0.47914617E+01</totfact>
</mgrwt>
</event>
<event>
 4    2  0.3884658E-007  0.6620636E+03  0.7818608E-02  0.1022135E+00
          1   -1    0    0  501    0  0.00000000000E+00  0.00000000000E+00  0.10733880769E+04  0.10733880769E+04  0.50400000000E-02 0. -1.
         -1   -1    0    0    0  501 -0.00000000000E+00 -0.00000000000E+00 -0.19366589540E+03  0.19366589547E+03  0.50400000000E-02 0.  1.
    8880023    1    1    2    0    0 -0.21809080963E+02 -0.63579422671E+02  0.87843254088E+03  0.10999872336E+04  0.65864270000E+03 0. -1.
    8880022    1    1    2    0    0  0.21809080963E+02  0.63579422671E+02  0.12896405838E+01  0.16706673872E+03  0.15294330000E+03 0.  0.
<mgrwt>
<rscale>  0 0.46923893E+03</rscale>
<asrwt>0</asrwt>
<pdfrwt beam="1">  1        1 0.16513662E+00 0.66206358E+03</pdfrwt>
<pdfrwt beam="2">  1       -1 0.29794754E-01 0.66206358E+03</pdfrwt>
<totfact> 0.14042491E+02</totfact>
</mgrwt>
</event>
<event>
 4    2  0.3884658E-007  0.7095999E+03  0.7818608E-02  0.9959490E-01
          1   -1    0    0  501    0  0.00000000000E+00  0.00000000000E+00  0.12017107361E+04  0.12017107361E+04  0.50400000000E-02 0. -1.
         -1   -1    0    0    0  501 -0.00000000000E+00 -0.00000000000E+00 -0.57533449406E+03  0.57533449408E+03  0.50400000000E-02 0.  1.
    8880023    1    1    2    0    0 -0.20040491629E+03  0.17192909571E+03  0.10424652430E+04  0.12610573871E+04  0.65864270000E+03 0. -1.
    8880022    1    1    2    0    0  0.20040491629E+03 -0.17192909571E+03 -0.41608900100E+03  0.51598784306E+03  0.15294330000E+03 0.  0.
<mgrwt>
<rscale>  0 0.57462783E+03</rscale>
<asrwt>0</asrwt>
<pdfrwt beam="1">  1        1 0.18487857E+00 0.70959985E+03</pdfrwt>
<pdfrwt beam="2">  1       -1 0.88513000E-01 0.70959985E+03</pdfrwt>
<totfact> 0.13870700E+01</totfact>
</mgrwt>
</event>
<event>
 4    2  0.3884658E-007  0.7190332E+03  0.7818608E-02  0.9925871E-01
          1   -1    0    0  501    0  0.00000000000E+00  0.00000000000E+00  0.18197438718E+04  0.18197438718E+04  0.50400000000E-02 0. -1.
         -1   -1    0    0    0  501 -0.00000000000E+00 -0.00000000000E+00 -0.15538597787E+03  0.15538597796E+03  0.50400000000E-02 0.  1.
    8880023    1    1    2    0    0 -0.18642243081E+03  0.22010266262E+03  0.13022697954E+04  0.14875870835E+04  0.65864270000E+03 0.  1.
    8880022    1    1    2    0    0  0.18642243081E+03 -0.22010266262E+03  0.36208809852E+03  0.48754276623E+03  0.15294330000E+03 0.  0.
<mgrwt>
<rscale>  0 0.59023687E+03</rscale>
<asrwt>0</asrwt>
<pdfrwt beam="1">  1        1 0.27996061E+00 0.71903318E+03</pdfrwt>
<pdfrwt beam="2">  1       -1 0.23905534E-01 0.71903318E+03</pdfrwt>
<totfact> 0.61713668E+01</totfact>
</mgrwt>
</event>
<event>
 4    2  0.3884658E-007  0.9099866E+03  0.7818608E-02  0.9510186E-01
          1   -1    0    0  501    0  0.00000000000E+00  0.00000000000E+00  0.70583578758E+03  0.70583578760E+03  0.50400000000E-02 0. -1.
         -1   -1    0    0    0  501 -0.00000000000E+00 -0.00000000000E+00 -0.91546710410E+03  0.91546710411E+03  0.50400000000E-02 0.  1.
    8880023    1    1    2    0    0 -0.35485649897E+03  0.51801762003E+03  0.79211719441E+02  0.91342766122E+03  0.65864270000E+03 0.  1.
    8880022    1    1    2    0    0  0.35485649897E+03 -0.51801762003E+03 -0.28884303596E+03  0.70787523050E+03  0.15294330000E+03 0.  0.
<mgrwt>
<rscale>  0 0.83536970E+03</rscale>
<asrwt>0</asrwt>
<pdfrwt beam="1">  1        1 0.10859012E+00 0.90998659E+03</pdfrwt>
<pdfrwt beam="2">  1       -1 0.14084109E+00 0.90998659E+03</pdfrwt>
<totfact> 0.11225160E+01</totfact>
</mgrwt>
</event>
<event>
 4    2  0.3884658E-007  0.7990367E+03  0.7818608E-02  0.9712883E-01
         -1   -1    0    0    0  501 -0.00000000000E+00  0.00000000000E+00  0.43508371625E+03  0.43508371628E+03  0.50400000000E-02 0.  1.
          1   -1    0    0  501    0  0.00000000000E+00 -0.00000000000E+00 -0.24773981017E+04  0.24773981017E+04  0.50400000000E-02 0. -1.
    8880023    1    1    2    0    0 -0.86766565331E+02 -0.44398305333E+03 -0.22530286609E+04  0.23905224830E+04  0.65864270000E+03 0. -1.
    8880022    1    1    2    0    0  0.86766565331E+02  0.44398305333E+03  0.21071427547E+03  0.52195933501E+03  0.15294330000E+03 0.  0.
<mgrwt>
<rscale>  0 0.70254906E+03</rscale>
<asrwt>0</asrwt>
<pdfrwt beam="1">  1        1 0.38113816E+00 0.79903667E+03</pdfrwt>
<pdfrwt beam="2">  1       -1 0.66935958E-01 0.79903667E+03</pdfrwt>
<totfact> 0.33385940E+00</totfact>
</mgrwt>
</event>
<event>
 4    2  0.3884658E-007  0.7128720E+03  0.7818608E-02  0.9947487E-01
         -1   -1    0    0    0  501 -0.00000000000E+00  0.00000000000E+00  0.20350379891E+03  0.20350379897E+03  0.50400000000E-02 0.  1.
          1   -1    0    0  501    0  0.00000000000E+00 -0.00000000000E+00 -0.19040288438E+04  0.19040288438E+04  0.50400000000E-02 0. -1.
    8880023    1    1    2    0    0  0.14778241725E+03  0.22920863649E+03 -0.16411175272E+04  0.17892605138E+04  0.65864270000E+03 0.  0.
    8880022    1    1    2    0    0 -0.14778241725E+03 -0.22920863649E+03 -0.59407517640E+02  0.31827212893E+03  0.15294330000E+03 0.  0.
<mgrwt>
<rscale>  0 0.58014050E+03</rscale>
<asrwt>0</asrwt>
<pdfrwt beam="1">  1        1 0.29292750E+00 0.71287197E+03</pdfrwt>
<pdfrwt beam="2">  1       -1 0.31308278E-01 0.71287197E+03</pdfrwt>
<totfact> 0.34086353E+01</totfact>
</mgrwt>
</event>
<event>
 4    2  0.3884658E-007  0.6977704E+03  0.7818608E-02  0.1000658E+00
         -1   -1    0    0    0  501 -0.00000000000E+00  0.00000000000E+00  0.16977399658E+04  0.16977399658E+04  0.50400000000E-02 0.  1.
          1   -1    0    0  501    0  0.00000000000E+00 -0.00000000000E+00 -0.32887913834E+03  0.32887913838E+03  0.50400000000E-02 0. -1.
    8880023    1    1    2    0    0 -0.22976485151E+03  0.16775564368E+02  0.72994762404E+02  0.70157804138E+03  0.65864270000E+03 0. -1.
    8880022    1    1    2    0    0  0.22976485151E+03 -0.16775564368E+02  0.12958660650E+04  0.13250410628E+04  0.15294330000E+03 0.  0.
<mgrwt>
<rscale>  0 0.55362693E+03</rscale>
<asrwt>0</asrwt>
<pdfrwt beam="1">  1        1 0.50596791E-01 0.69777039E+03</pdfrwt>
<pdfrwt beam="2">  1       -1 0.26119076E+00 0.69777039E+03</pdfrwt>
<totfact> 0.48060647E+00</totfact>
</mgrwt>
</event>
<event>
 4    2  0.4914197E-007  0.7147781E+03  0.7818608E-02  0.9940668E-01
          1   -1    0    0  501    0  0.00000000000E+00  0.00000000000E+00  0.26995049151E+04  0.26995049151E+04  0.50400000000E-02 0. -1.
         -1   -1    0    0    0  501 -0.00000000000E+00 -0.00000000000E+00 -0.71160761329E+03  0.71160761330E+03  0.50400000000E-02 0.  1.
    8880023    1    1    2    0    0 -0.18669412981E+03 -0.20553064816E+03  0.26136605380E+04  0.27096363519E+04  0.65864270000E+03 0. -1.
    8880022    1    1    2    0    0  0.18669412981E+03  0.20553064816E+03 -0.62576323618E+03  0.70147617651E+03  0.15294330000E+03 0.  0.
<mgrwt>
<rscale>  0 0.58330185E+03</rscale>
<asrwt>0</asrwt>
<pdfrwt beam="1">  1        1 0.41530844E+00 0.71477811E+03</pdfrwt>
<pdfrwt beam="2">  1       -1 0.10947810E+00 0.71477811E+03</pdfrwt>
<totfact> 0.82001378E-01</totfact>
</mgrwt>
</event>
<event>
 4    2  0.3884658E-007  0.7630440E+03  0.7818608E-02  0.9797290E-01
         -1   -1    0    0    0  501 -0.00000000000E+00  0.00000000000E+00  0.27219541213E+03  0.27219541217E+03  0.50400000000E-02 0.  1.
          1   -1    0    0  501    0  0.00000000000E+00 -0.00000000000E+00 -0.19767685098E+04  0.19767685098E+04  0.50400000000E-02 0. -1.
    8880023    1    1    2    0    0  0.35827439907E+03 -0.14165232365E+03 -0.16662892250E+04  0.18326908941E+04  0.65864270000E+03 0. -1.
    8880022    1    1    2    0    0 -0.35827439907E+03  0.14165232365E+03 -0.38283872718E+02  0.41627302789E+03  0.15294330000E+03 0.  0.
<mgrwt>
<rscale>  0 0.65508195E+03</rscale>
<asrwt>0</asrwt>
<pdfrwt beam="1">  1        1 0.30411822E+00 0.76304399E+03</pdfrwt>
<pdfrwt beam="2">  1       -1 0.41876218E-01 0.76304399E+03</pdfrwt>
<totfact> 0.17982083E+01</totfact>
</mgrwt>
</event>
<event>
 4    2  0.5792078E-007  0.6597580E+03  0.7818608E-02  0.1024406E+00
         -1   -1    0    0    0  501 -0.00000000000E+00  0.00000000000E+00  0.64110147343E+03  0.64110147345E+03  0.50400000000E-02 0.  1.
          1   -1    0    0  501    0  0.00000000000E+00 -0.00000000000E+00 -0.18452514773E+04  0.18452514773E+04  0.50400000000E-02 0. -1.
    8880023    1    1    2    0    0  0.30442713588E+02 -0.23315576588E+02 -0.17752514679E+04  0.18938844621E+04  0.65864270000E+03 0.  0.
    8880022    1    1    2    0    0 -0.30442713588E+02  0.23315576588E+02  0.57110146403E+03  0.59246848874E+03  0.15294330000E+03 0.  1.
<mgrwt>
<rscale>  0 0.46129692E+03</rscale>
<asrwt>0</asrwt>
<pdfrwt beam="1">  1        1 0.28388484E+00 0.65975797E+03</pdfrwt>
<pdfrwt beam="2">  1       -1 0.98630997E-01 0.65975797E+03</pdfrwt>
<totfact> 0.39824496E+00</totfact>
</mgrwt>
</event>
<event>
 4    2  0.3884658E-007  0.6702058E+03  0.7818608E-02  0.1015516E+00
          1   -1    0    0  501    0  0.00000000000E+00  0.00000000000E+00  0.14441772735E+04  0.14441772735E+04  0.50400000000E-02 0. -1.
         -1   -1    0    0    0  501 -0.00000000000E+00 -0.00000000000E+00 -0.92115109145E+03  0.92115109147E+03  0.50400000000E-02 0.  1.
    8880023    1    1    2    0    0 -0.12369893253E+03 -0.80091479319E+01  0.13542999856E+04  0.15110606307E+04  0.65864270000E+03 0. -1.
    8880022    1    1    2    0    0  0.12369893253E+03  0.80091479319E+01 -0.83127380355E+03  0.85426773429E+03  0.15294330000E+03 0.  0.
<mgrwt>
<rscale>  0 0.49340121E+03</rscale>
<asrwt>0</asrwt>
<pdfrwt beam="1">  1        1 0.22218112E+00 0.67020577E+03</pdfrwt>
<pdfrwt beam="2">  1       -1 0.14171555E+00 0.67020577E+03</pdfrwt>
<totfact> 0.30779971E+00</totfact>
</mgrwt>
</event>
<event>
 4    2  0.3884658E-007  0.9184218E+03  0.7818608E-02  0.9497083E-01
          1   -1    0    0  501    0  0.00000000000E+00  0.00000000000E+00  0.20376266942E+04  0.20376266942E+04  0.50400000000E-02 0. -1.
         -1   -1    0    0    0  501 -0.00000000000E+00 -0.00000000000E+00 -0.61829373601E+03  0.61829373603E+03  0.50400000000E-02 0.  1.
    8880023    1    1    2    0    0 -0.43420133453E+03 -0.47027391268E+03 -0.17154139415E+03  0.93430455849E+03  0.65864270000E+03 0.  1.
    8880022    1    1    2    0    0  0.43420133453E+03  0.47027391268E+03  0.15908743524E+04  0.17216158718E+04  0.15294330000E+03 0.  0.
<mgrwt>
<rscale>  0 0.84499209E+03</rscale>
<asrwt>0</asrwt>
<pdfrwt beam="1">  1        1 0.31348103E+00 0.91842178E+03</pdfrwt>
<pdfrwt beam="2">  1       -1 0.95122113E-01 0.91842178E+03</pdfrwt>
<totfact> 0.30707971E+00</totfact>
</mgrwt>
</event>
<event>
 4    2  0.3884658E-007  0.6830649E+03  0.7818608E-02  0.1007641E+00
         -1   -1    0    0    0  501 -0.00000000000E+00  0.00000000000E+00  0.14220978888E+04  0.14220978888E+04  0.50400000000E-02 0.  1.
          1   -1    0    0  501    0  0.00000000000E+00 -0.00000000000E+00 -0.25758067348E+03  0.25758067353E+03  0.50400000000E-02 0. -1.
    8880023    1    1    2    0    0  0.12101205612E+03  0.13462347047E+03  0.23800888633E+03  0.72334350952E+03  0.65864270000E+03 0. -1.
    8880022    1    1    2    0    0 -0.12101205612E+03 -0.13462347047E+03  0.92650832898E+03  0.95633505280E+03  0.15294330000E+03 0.  0.
<mgrwt>
<rscale>  0 0.52423248E+03</rscale>
<asrwt>0</asrwt>
<pdfrwt beam="1">  1        1 0.39627796E-01 0.68306486E+03</pdfrwt>
<pdfrwt beam="2">  1       -1 0.21878429E+00 0.68306486E+03</pdfrwt>
<totfact> 0.12461987E+01</totfact>
</mgrwt>
</event>
<event>
 4    2  0.3884658E-007  0.6668237E+03  0.7818608E-02  0.1018050E+00
         -1   -1    0    0    0  501 -0.00000000000E+00  0.00000000000E+00  0.71383152657E+03  0.71383152659E+03  0.50400000000E-02 0.  1.
          1   -1    0    0  501    0  0.00000000000E+00 -0.00000000000E+00 -0.86260405578E+03  0.86260405580E+03  0.50400000000E-02 0. -1.
    8880023    1    1    2    0    0 -0.22291738651E+02 -0.10171893474E+03 -0.71681468529E+03  0.97901846898E+03  0.65864270000E+03 0. -1.
    8880022    1    1    2    0    0  0.22291738651E+02  0.10171893474E+03  0.56804215607E+03  0.59741711340E+03  0.15294330000E+03 0.  0.
<mgrwt>
<rscale>  0 0.48396903E+03</rscale>
<asrwt>0</asrwt>
<pdfrwt beam="1">  1        1 0.13270832E+00 0.66682372E+03</pdfrwt>
<pdfrwt beam="2">  1       -1 0.10982024E+00 0.66682372E+03</pdfrwt>
<totfact> 0.15581928E+01</totfact>
</mgrwt>
</event>
<event>
 4    2  0.3884658E-007  0.6871353E+03  0.7818608E-02  0.1005545E+00
         -1   -1    0    0    0  501 -0.00000000000E+00  0.00000000000E+00  0.16218796768E+04  0.16218796768E+04  0.50400000000E-02 0.  1.
          1   -1    0    0  501    0  0.00000000000E+00 -0.00000000000E+00 -0.27442773236E+03  0.27442773240E+03  0.50400000000E-02 0. -1.
    8880023    1    1    2    0    0 -0.12039227865E+03 -0.15443597523E+03  0.19060961264E+03  0.71308274548E+03  0.65864270000E+03 0. -1.
    8880022    1    1    2    0    0  0.12039227865E+03  0.15443597523E+03  0.11568423318E+04  0.11832246638E+04  0.15294330000E+03 0.  0.
<mgrwt>
<rscale>  0 0.53284316E+03</rscale>
<asrwt>0</asrwt>
<pdfrwt beam="1">  1        1 0.42219651E-01 0.68713534E+03</pdfrwt>
<pdfrwt beam="2">  1       -1 0.24951995E+00 0.68713534E+03</pdfrwt>
<totfact> 0.72326469E+00</totfact>
</mgrwt>
</event>
<event>
 4    2  0.3884658E-007  0.8245565E+03  0.7818608E-02  0.9660018E-01
          1   -1    0    0  501    0  0.00000000000E+00  0.00000000000E+00  0.42233405232E+04  0.42233405232E+04  0.50400000000E-02 0. -1.
         -1   -1    0    0    0  501 -0.00000000000E+00 -0.00000000000E+00 -0.16893342863E+03  0.16893342870E+03  0.50400000000E-02 0.  1.
    8880023    1    1    2    0    0  0.16354798115E+03  0.46833252070E+03  0.36278991741E+04  0.37204228142E+04  0.65864270000E+03 0. -1.
    8880022    1    1    2    0    0 -0.16354798115E+03 -0.46833252070E+03  0.42650792042E+03  0.67185113773E+03  0.15294330000E+03 0.  0.
<mgrwt>
<rscale>  0 0.73448027E+03</rscale>
<asrwt>0</asrwt>
<pdfrwt beam="1">  1        1 0.64974472E+00 0.82455655E+03</pdfrwt>
<pdfrwt beam="2">  1       -1 0.25989757E-01 0.82455655E+03</pdfrwt>
<totfact> 0.86304901E-01</totfact>
</mgrwt>
</event>
<event>
 4    2  0.3884658E-007  0.1023224E+04  0.7818608E-02  0.9351785E-01
         -1   -1    0    0    0  501 -0.00000000000E+00  0.00000000000E+00  0.12732961533E+04  0.12732961533E+04  0.50400000000E-02 0.  1.
          1   -1    0    0  501    0  0.00000000000E+00 -0.00000000000E+00 -0.77846846572E+03  0.77846846573E+03  0.50400000000E-02 0. -1.
    8880023    1    1    2    0    0 -0.77797858505E+03 -0.89034396674E+02 -0.13922294335E+03  0.10326524279E+04  0.65864270000E+03 0.  0.
    8880022    1    1    2    0    0  0.77797858505E+03  0.89034396674E+02  0.63405063093E+03  0.10191121912E+04  0.15294330000E+03 0.  0.
<mgrwt>
<rscale>  0 0.96152120E+03</rscale>
<asrwt>0</asrwt>
<pdfrwt beam="1">  1        1 0.11976438E+00 0.10232243E+04</pdfrwt>
<pdfrwt beam="2">  1       -1 0.19589171E+00 0.10232243E+04</pdfrwt>
<totfact> 0.37157164E+00</totfact>
</mgrwt>
</event>
<event>
 4    2  0.3884658E-007  0.7164966E+03  0.7818608E-02  0.9934623E-01
         -1   -1    0    0    0  501 -0.00000000000E+00  0.00000000000E+00  0.12014969436E+04  0.12014969436E+04  0.50400000000E-02 0.  1.
          1   -1    0    0  501    0  0.00000000000E+00 -0.00000000000E+00 -0.26415146807E+03  0.26415146812E+03  0.50400000000E-02 0. -1.
    8880023    1    1    2    0    0 -0.11194743739E+03  0.25889183463E+03  0.35236913655E+03  0.79845565026E+03  0.65864270000E+03 0.  0.
    8880022    1    1    2    0    0  0.11194743739E+03 -0.25889183463E+03  0.58497633902E+03  0.66719276150E+03  0.15294330000E+03 0.  0.
<mgrwt>
<rscale>  0 0.58612238E+03</rscale>
<asrwt>0</asrwt>
<pdfrwt beam="1">  1        1 0.40638688E-01 0.71649663E+03</pdfrwt>
<pdfrwt beam="2">  1       -1 0.18484568E+00 0.71649663E+03</pdfrwt>
<totfact> 0.20473111E+01</totfact>
</mgrwt>
</event>
<event>
 4    2  0.3884658E-007  0.8061234E+03  0.7818608E-02  0.9697709E-01
         -1   -1    0    0    0  501 -0.00000000000E+00  0.00000000000E+00  0.53212762994E+03  0.53212762997E+03  0.50400000000E-02 0.  1.
          1   -1    0    0  501    0  0.00000000000E+00 -0.00000000000E+00 -0.81095611667E+03  0.81095611668E+03  0.50400000000E-02 0. -1.
    8880023    1    1    2    0    0  0.26212186736E+03  0.38381873309E+03 -0.28124431390E+03  0.85377588604E+03  0.65864270000E+03 0.  0.
    8880022    1    1    2    0    0 -0.26212186736E+03 -0.38381873309E+03  0.24158271727E+01  0.48930786061E+03  0.15294330000E+03 0.  0.
<mgrwt>
<rscale>  0 0.71153352E+03</rscale>
<asrwt>0</asrwt>
<pdfrwt beam="1">  1        1 0.12476248E+00 0.80612338E+03</pdfrwt>
<pdfrwt beam="2">  1       -1 0.81865789E-01 0.80612338E+03</pdfrwt>
<totfact> 0.32739548E+01</totfact>
</mgrwt>
</event>
<event>
 4    2  0.3884658E-007  0.8052470E+03  0.7818608E-02  0.9699564E-01
         -1   -1    0    0    0  501 -0.00000000000E+00  0.00000000000E+00  0.40965307131E+03  0.40965307134E+03  0.50400000000E-02 0.  1.
          1   -1    0    0  501    0  0.00000000000E+00 -0.00000000000E+00 -0.18874848653E+04  0.18874848653E+04  0.50400000000E-02 0. -1.
    8880023    1    1    2    0    0 -0.43484683170E+03 -0.15975235255E+03 -0.16026432368E+04  0.17935685468E+04  0.65864270000E+03 0. -1.
    8880022    1    1    2    0    0  0.43484683170E+03  0.15975235255E+03  0.12481144279E+03  0.50356938991E+03  0.15294330000E+03 0.  0.
<mgrwt>
<rscale>  0 0.71042778E+03</rscale>
<asrwt>0</asrwt>
<pdfrwt beam="1">  1        1 0.29038228E+00 0.80524704E+03</pdfrwt>
<pdfrwt beam="2">  1       -1 0.63023550E-01 0.80524704E+03</pdfrwt>
<totfact> 0.93973143E+00</totfact>
</mgrwt>
</event>
<event>
 4    2  0.3884658E-007  0.6695526E+03  0.7818608E-02  0.1015986E+00
          1   -1    0    0  501    0  0.00000000000E+00  0.00000000000E+00  0.33923708457E+04  0.33923708457E+04  0.50400000000E-02 0. -1.
         -1   -1    0    0    0  501 -0.00000000000E+00 -0.00000000000E+00 -0.18385346354E+03  0.18385346361E+03  0.50400000000E-02 0.  1.
    8880023    1    1    2    0    0 -0.75577478430E+02 -0.93693975513E+02  0.32956507562E+04  0.33629770486E+04  0.65864270000E+03 0. -1.
    8880022    1    1    2    0    0  0.75577478430E+02  0.93693975513E+02 -0.87133374072E+02  0.21324726067E+03  0.15294330000E+03 0.  0.
<mgrwt>
<rscale>  0 0.49163511E+03</rscale>
<asrwt>0</asrwt>
<pdfrwt beam="1">  1        1 0.52190323E+00 0.66955263E+03</pdfrwt>
<pdfrwt beam="2">  1       -1 0.28285147E-01 0.66955263E+03</pdfrwt>
<totfact> 0.37611224E+00</totfact>
</mgrwt>
</event>
<event>
 4    2  0.3884658E-007  0.7870975E+03  0.7818608E-02  0.9739421E-01
          1   -1    0    0  501    0  0.00000000000E+00  0.00000000000E+00  0.13832381605E+04  0.13832381605E+04  0.50400000000E-02 0. -1.
         -1   -1    0    0    0  501 -0.00000000000E+00 -0.00000000000E+00 -0.30386013220E+03  0.30386013224E+03  0.50400000000E-02 0.  1.
    8880023    1    1    2    0    0 -0.33832378999E+03 -0.26692569210E+03  0.44217920104E+03  0.90279840722E+03  0.65864270000E+03 0.  0.
    8880022    1    1    2    0    0  0.33832378999E+03  0.26692569210E+03  0.63719882728E+03  0.78429988555E+03  0.15294330000E+03 0.  0.
<mgrwt>
<rscale>  0 0.68717396E+03</rscale>
<asrwt>0</asrwt>
<pdfrwt beam="1">  1        1 0.21280587E+00 0.78709753E+03</pdfrwt>
<pdfrwt beam="2">  1       -1 0.46747713E-01 0.78709753E+03</pdfrwt>
<totfact> 0.36894049E+01</totfact>
</mgrwt>
</event>
<event>
 4    2  0.3884658E-007  0.7305399E+03  0.7818608E-02  0.9888413E-01
          1   -1    0    0  501    0  0.00000000000E+00  0.00000000000E+00  0.10269486979E+04  0.10269486979E+04  0.50400000000E-02 0. -1.
         -1   -1    0    0    0  501 -0.00000000000E+00 -0.00000000000E+00 -0.62070114713E+03  0.62070114715E+03  0.50400000000E-02 0.  1.
    8880023    1    1    2    0    0 -0.24769628531E+03 -0.19627748827E+03  0.82448919064E+03  0.11015765674E+04  0.65864270000E+03 0. -1.
    8880022    1    1    2    0    0  0.24769628531E+03  0.19627748827E+03 -0.41824163990E+03  0.54607327761E+03  0.15294330000E+03 0.  0.
<mgrwt>
<rscale>  0 0.60826118E+03</rscale>
<asrwt>0</asrwt>
<pdfrwt beam="1">  1        1 0.15799211E+00 0.73053987E+03</pdfrwt>
<pdfrwt beam="2">  1       -1 0.95492484E-01 0.73053987E+03</pdfrwt>
<totfact> 0.15764758E+01</totfact>
</mgrwt>
</event>
<event>
 4    2  0.3884658E-007  0.7117056E+03  0.7818608E-02  0.9951721E-01
          1   -1    0    0  501    0  0.00000000000E+00  0.00000000000E+00  0.66324284930E+03  0.66324284931E+03  0.50400000000E-02 0. -1.
         -1   -1    0    0    0  501 -0.00000000000E+00 -0.00000000000E+00 -0.12316567477E+04  0.12316567477E+04  0.50400000000E-02 0.  1.
    8880023    1    1    2    0    0 -0.20953680006E+03 -0.16973200136E+03  0.44214101329E+03  0.83786246172E+03  0.65864270000E+03 0. -1.
    8880022    1    1    2    0    0  0.20953680006E+03  0.16973200136E+03 -0.10105549117E+04  0.10570371353E+04  0.15294330000E+03 0.  0.
<mgrwt>
<rscale>  0 0.57818823E+03</rscale>
<asrwt>0</asrwt>
<pdfrwt beam="1">  1        1 0.10203736E+00 0.71170558E+03</pdfrwt>
<pdfrwt beam="2">  1       -1 0.18948565E+00 0.71170558E+03</pdfrwt>
<totfact> 0.54826554E+00</totfact>
</mgrwt>
</event>
<event>
 4    2  0.3884658E-007  0.7203361E+03  0.7818608E-02  0.9921450E-01
         -1   -1    0    0    0  501 -0.00000000000E+00  0.00000000000E+00  0.98234940730E+03  0.98234940731E+03  0.50400000000E-02 0.  1.
          1   -1    0    0  501    0  0.00000000000E+00 -0.00000000000E+00 -0.44302585037E+03  0.44302585039E+03  0.50400000000E-02 0. -1.
    8880023    1    1    2    0    0  0.28196462141E+03 -0.74631091581E+02 -0.79157712976E+02  0.72467233792E+03  0.65864270000E+03 0. -1.
    8880022    1    1    2    0    0 -0.28196462141E+03  0.74631091581E+02  0.61848126991E+03  0.70070291979E+03  0.15294330000E+03 0.  0.
<mgrwt>
<rscale>  0 0.59232877E+03</rscale>
<asrwt>0</asrwt>
<pdfrwt beam="1">  1        1 0.68157823E-01 0.72033607E+03</pdfrwt>
<pdfrwt beam="2">  1       -1 0.15113068E+00 0.72033607E+03</pdfrwt>
<totfact> 0.18412954E+01</totfact>
</mgrwt>
</event>
<event>
 4    2  0.3884658E-007  0.1020277E+04  0.7818608E-02  0.9355497E-01
          1   -1    0    0  501    0  0.00000000000E+00  0.00000000000E+00  0.15323388039E+04  0.15323388039E+04  0.50400000000E-02 0. -1.
         -1   -1    0    0    0  501 -0.00000000000E+00 -0.00000000000E+00 -0.60899883781E+03  0.60899883783E+03  0.50400000000E-02 0.  1.
    8880023    1    1    2    0    0 -0.46138888647E+03  0.62791375432E+03  0.87787353620E+03  0.13459671390E+04  0.65864270000E+03 0.  0.
    8880022    1    1    2    0    0  0.46138888647E+03 -0.62791375432E+03  0.45466429917E+02  0.79537050277E+03  0.15294330000E+03 0.  0.
<mgrwt>
<rscale>  0 0.95830406E+03</rscale>
<asrwt>0</asrwt>
<pdfrwt beam="1">  1        1 0.23574443E+00 0.10202772E+04</pdfrwt>
<pdfrwt beam="2">  1       -1 0.93692130E-01 0.10202772E+04</pdfrwt>
<totfact> 0.68874615E+00</totfact>
</mgrwt>
</event>
<event>
 4    2  0.3884658E-007  0.6753079E+03  0.7818608E-02  0.1012113E+00
         -1   -1    0    0    0  501 -0.00000000000E+00  0.00000000000E+00  0.33406262672E+03  0.33406262675E+03  0.50400000000E-02 0.  1.
          1   -1    0    0  501    0  0.00000000000E+00 -0.00000000000E+00 -0.20022244086E+04  0.20022244086E+04  0.50400000000E-02 0. -1.
    8880023    1    1    2    0    0  0.10139684026E+03  0.10931272137E+03 -0.19027458793E+04  0.20190301330E+04  0.65864270000E+03 0. -1.
    8880022    1    1    2    0    0 -0.10139684026E+03 -0.10931272137E+03  0.23458409750E+03  0.31725690234E+03  0.15294330000E+03 0.  0.
<mgrwt>
<rscale>  0 0.50643471E+03</rscale>
<asrwt>0</asrwt>
<pdfrwt beam="1">  1        1 0.30803452E+00 0.67530793E+03</pdfrwt>
<pdfrwt beam="2">  1       -1 0.51394252E-01 0.67530793E+03</pdfrwt>
<totfact> 0.11959939E+01</totfact>
</mgrwt>
</event>
<event>
 4    2  0.3884658E-007  0.7083192E+03  0.7818608E-02  0.9964296E-01
          1   -1    0    0  501    0  0.00000000000E+00  0.00000000000E+00  0.16076105280E+04  0.16076105280E+04  0.50400000000E-02 0. -1.
         -1   -1    0    0    0  501 -0.00000000000E+00 -0.00000000000E+00 -0.64920196944E+03  0.64920196946E+03  0.50400000000E-02 0.  1.
    8880023    1    1    2    0    0  0.14092751802E+03  0.21919227680E+03  0.14874923943E+04  0.16475283454E+04  0.65864270000E+03 0. -1.
    8880022    1    1    2    0    0 -0.14092751802E+03 -0.21919227680E+03 -0.52908383581E+03  0.60928415199E+03  0.15294330000E+03 0.  0.
<mgrwt>
<rscale>  0 0.57243883E+03</rscale>
<asrwt>0</asrwt>
<pdfrwt beam="1">  1        1 0.24732469E+00 0.70831916E+03</pdfrwt>
<pdfrwt beam="2">  1       -1 0.99877227E-01 0.70831916E+03</pdfrwt>
<totfact> 0.55355931E+00</totfact>
</mgrwt>
</event>
<event>
 4    2  0.3884658E-007  0.8661976E+03  0.7818608E-02  0.9582633E-01
          1   -1    0    0  501    0  0.00000000000E+00  0.00000000000E+00  0.16322912024E+04  0.16322912024E+04  0.50400000000E-02 0. -1.
         -1   -1    0    0    0  501 -0.00000000000E+00 -0.00000000000E+00 -0.39356331074E+03  0.39356331077E+03  0.50400000000E-02 0.  1.
    8880023    1    1    2    0    0 -0.56237767394E+03 -0.14814702917E+02  0.11444441188E+04  0.14352876614E+04  0.65864270000E+03 0.  0.
    8880022    1    1    2    0    0  0.56237767394E+03  0.14814702917E+02  0.94283772817E+02  0.59056685176E+03  0.15294330000E+03 0.  0.
<mgrwt>
<rscale>  0 0.78456406E+03</rscale>
<asrwt>0</asrwt>
<pdfrwt beam="1">  1        1 0.25112173E+00 0.86619763E+03</pdfrwt>
<pdfrwt beam="2">  1       -1 0.60548201E-01 0.86619763E+03</pdfrwt>
<totfact> 0.14993796E+01</totfact>
</mgrwt>
</event>
<event>
 4    2  0.3884658E-007  0.8027432E+03  0.7818608E-02  0.9704896E-01
          1   -1    0    0  501    0  0.00000000000E+00  0.00000000000E+00  0.23024240699E+04  0.23024240699E+04  0.50400000000E-02 0. -1.
         -1   -1    0    0    0  501 -0.00000000000E+00 -0.00000000000E+00 -0.23814325672E+03  0.23814325678E+03  0.50400000000E-02 0.  1.
    8880023    1    1    2    0    0  0.18250029141E+03 -0.42104647706E+03  0.18398043177E+04  0.20073058128E+04  0.65864270000E+03 0. -1.
    8880022    1    1    2    0    0 -0.18250029141E+03  0.42104647706E+03  0.22447649548E+03  0.53326151394E+03  0.15294330000E+03 0.  0.
<mgrwt>
<rscale>  0 0.70726050E+03</rscale>
<asrwt>0</asrwt>
<pdfrwt beam="1">  1        1 0.35421910E+00 0.80274323E+03</pdfrwt>
<pdfrwt beam="2">  1       -1 0.36637423E-01 0.80274323E+03</pdfrwt>
<totfact> 0.13776671E+01</totfact>
</mgrwt>
</event>
<event>
 4    2  0.3884658E-007  0.7071976E+03  0.7818608E-02  0.9968558E-01
         -1   -1    0    0    0  501 -0.00000000000E+00  0.00000000000E+00  0.19530746827E+03  0.19530746833E+03  0.50400000000E-02 0.  1.
          1   -1    0    0  501    0  0.00000000000E+00 -0.00000000000E+00 -0.20251526949E+04  0.20251526949E+04  0.50400000000E-02 0. -1.
    8880023    1    1    2    0    0 -0.57908726313E+01 -0.25745816226E+03 -0.17819320697E+04  0.19171359751E+04  0.65864270000E+03 0. -1.
    8880022    1    1    2    0    0  0.57908726313E+01  0.25745816226E+03 -0.47913156930E+02  0.30332418819E+03  0.15294330000E+03 0.  0.
<mgrwt>
<rscale>  0 0.57050654E+03</rscale>
<asrwt>0</asrwt>
<pdfrwt beam="1">  1        1 0.31156194E+00 0.70719760E+03</pdfrwt>
<pdfrwt beam="2">  1       -1 0.30047304E-01 0.70719760E+03</pdfrwt>
<totfact> 0.30427257E+01</totfact>
</mgrwt>
</event>
<event>
 4    2  0.3884658E-007  0.6890482E+03  0.7818608E-02  0.1004608E+00
          1   -1    0    0  501    0  0.00000000000E+00  0.00000000000E+00  0.23002424237E+04  0.23002424237E+04  0.50400000000E-02 0. -1.
         -1   -1    0    0    0  501 -0.00000000000E+00 -0.00000000000E+00 -0.17849394944E+03  0.17849394952E+03  0.50400000000E-02 0.  1.
    8880023    1    1    2    0    0 -0.18647413038E+03  0.78769402412E+02  0.21155658353E+04  0.22249508376E+04  0.65864270000E+03 0. -1.
    8880022    1    1    2    0    0  0.18647413038E+03 -0.78769402412E+02  0.61826389826E+01  0.25378553563E+03  0.15294330000E+03 0.  0.
<mgrwt>
<rscale>  0 0.53674955E+03</rscale>
<asrwt>0</asrwt>
<pdfrwt beam="1">  1        1 0.35388349E+00 0.68904820E+03</pdfrwt>
<pdfrwt beam="2">  1       -1 0.27460604E-01 0.68904820E+03</pdfrwt>
<totfact> 0.23330425E+01</totfact>
</mgrwt>
</event>
<event>
 4    2  0.3884658E-007  0.6958829E+03  0.7818608E-02  0.1001473E+00
          1   -1    0    0  501    0  0.00000000000E+00  0.00000000000E+00  0.63132219355E+03  0.63132219357E+03  0.50400000000E-02 0. -1.
         -1   -1    0    0    0  501 -0.00000000000E+00 -0.00000000000E+00 -0.20011231705E+04  0.20011231705E+04  0.50400000000E-02 0.  1.
    8880023    1    1    2    0    0 -0.22172839541E+03 -0.35767695115E+02  0.42618598335E+03  0.81601930615E+03  0.65864270000E+03 0. -1.
    8880022    1    1    2    0    0  0.22172839541E+03  0.35767695115E+02 -0.17959869603E+04  0.18164260579E+04  0.15294330000E+03 0.  0.
<mgrwt>
<rscale>  0 0.55009097E+03</rscale>
<asrwt>0</asrwt>
<pdfrwt beam="1">  1        1 0.97126492E-01 0.69588290E+03</pdfrwt>
<pdfrwt beam="2">  1       -1 0.30786510E+00 0.69588290E+03</pdfrwt>
<totfact> 0.99789848E-01</totfact>
</mgrwt>
</event>
<event>
 4    2  0.3884658E-007  0.6874953E+03  0.7818608E-02  0.1005366E+00
         -1   -1    0    0    0  501 -0.00000000000E+00  0.00000000000E+00  0.30806908093E+03  0.30806908097E+03  0.50400000000E-02 0.  1.
          1   -1    0    0  501    0  0.00000000000E+00 -0.00000000000E+00 -0.12187416563E+04  0.12187416564E+04  0.50400000000E-02 0. -1.
    8880023    1    1    2    0    0 -0.53882822174E+02 -0.18956861665E+03 -0.10393216066E+04  0.12461296992E+04  0.65864270000E+03 0. -1.
    8880022    1    1    2    0    0  0.53882822174E+02  0.18956861665E+03  0.12864903118E+03  0.28068103816E+03  0.15294330000E+03 0.  0.
<mgrwt>
<rscale>  0 0.53358474E+03</rscale>
<asrwt>0</asrwt>
<pdfrwt beam="1">  1        1 0.18749871E+00 0.68749533E+03</pdfrwt>
<pdfrwt beam="2">  1       -1 0.47395244E-01 0.68749533E+03</pdfrwt>
<totfact> 0.47522491E+01</totfact>
</mgrwt>
</event>
<event>
 4    2  0.6317083E-007  0.6906822E+03  0.7818608E-02  0.1003830E+00
          1   -1    0    0  501    0  0.00000000000E+00  0.00000000000E+00  0.17037349457E+04  0.17037349457E+04  0.50400000000E-02 0. -1.
         -1   -1    0    0    0  501 -0.00000000000E+00 -0.00000000000E+00 -0.79797268896E+03  0.79797268898E+03  0.50400000000E-02 0.  1.
    8880023    1    1    2    0    0  0.19771812736E+03 -0.64336676047E+02  0.16098716700E+04  0.17517787149E+04  0.65864270000E+03 0. -1.
    8880022    1    1    2    0    0 -0.19771812736E+03  0.64336676047E+02 -0.70410941331E+03  0.74992891976E+03  0.15294330000E+03 0.  0.
<mgrwt>
<rscale>  0 0.54002264E+03</rscale>
<asrwt>0</asrwt>
<pdfrwt beam="1">  1        1 0.26211307E+00 0.69068218E+03</pdfrwt>
<pdfrwt beam="2">  1       -1 0.12276503E+00 0.69068218E+03</pdfrwt>
<totfact> 0.29387542E+00</totfact>
</mgrwt>
</event>
<event>
 4    2  0.3884658E-007  0.7378582E+03  0.7818608E-02  0.9866230E-01
          1   -1    0    0  501    0  0.00000000000E+00  0.00000000000E+00  0.18978242112E+04  0.18978242112E+04  0.50400000000E-02 0. -1.
         -1   -1    0    0    0  501 -0.00000000000E+00 -0.00000000000E+00 -0.23543178936E+03  0.23543178942E+03  0.50400000000E-02 0.  1.
    8880023    1    1    2    0    0  0.29185733455E+03  0.15951115180E+03  0.15999383887E+04  0.17618846628E+04  0.65864270000E+03 0. -1.
    8880022    1    1    2    0    0 -0.29185733455E+03 -0.15951115180E+03  0.62454033191E+02  0.37137133782E+03  0.15294330000E+03 0.  0.
<mgrwt>
<rscale>  0 0.61926185E+03</rscale>
<asrwt>0</asrwt>
<pdfrwt beam="1">  1        1 0.29197295E+00 0.73785820E+03</pdfrwt>
<pdfrwt beam="2">  1       -1 0.36220276E-01 0.73785820E+03</pdfrwt>
<totfact> 0.26499482E+01</totfact>
</mgrwt>
</event>
<event>
 4    2  0.3884658E-007  0.1176064E+04  0.7818608E-02  0.9180748E-01
          1   -1    0    0  501    0  0.00000000000E+00  0.00000000000E+00  0.16736964061E+04  0.16736964061E+04  0.50400000000E-02 0. -1.
         -1   -1    0    0    0  501 -0.00000000000E+00 -0.00000000000E+00 -0.76840984541E+03  0.76840984542E+03  0.50400000000E-02 0.  1.
    8880023    1    1    2    0    0  0.33939071349E+02  0.97373724296E+03  0.85602908314E+03  0.14546175017E+04  0.65864270000E+03 0.  0.
    8880022    1    1    2    0    0 -0.33939071349E+02 -0.97373724296E+03  0.49257477567E+02  0.98748874981E+03  0.15294330000E+03 0.  0.
<mgrwt>
<rscale>  0 0.11254365E+04</rscale>
<asrwt>0</asrwt>
<pdfrwt beam="1">  1        1 0.25749176E+00 0.11760639E+04</pdfrwt>
<pdfrwt beam="2">  1       -1 0.11821690E+00 0.11760639E+04</pdfrwt>
<totfact> 0.31448650E+00</totfact>
</mgrwt>
</event>
<event>
 4    2  0.3884658E-007  0.6831104E+03  0.7818608E-02  0.1007616E+00
          1   -1    0    0  501    0  0.00000000000E+00  0.00000000000E+00  0.15153523700E+04  0.15153523700E+04  0.50400000000E-02 0. -1.
         -1   -1    0    0    0  501 -0.00000000000E+00 -0.00000000000E+00 -0.33390712852E+03  0.33390712856E+03  0.50400000000E-02 0.  1.
    8880023    1    1    2    0    0  0.43243522377E+02  0.17595335195E+03  0.13801142567E+04  0.15399205018E+04  0.65864270000E+03 0. -1.
    8880022    1    1    2    0    0 -0.43243522377E+02 -0.17595335195E+03 -0.19866901517E+03  0.30933899673E+03  0.15294330000E+03 0.  0.
<mgrwt>
<rscale>  0 0.52433121E+03</rscale>
<asrwt>0</asrwt>
<pdfrwt beam="1">  1        1 0.23313114E+00 0.68311038E+03</pdfrwt>
<pdfrwt beam="2">  1       -1 0.51370327E-01 0.68311038E+03</pdfrwt>
<totfact> 0.25365091E+01</totfact>
</mgrwt>
</event>
<event>
 4    2  0.3884658E-007  0.7980231E+03  0.7818608E-02  0.9715087E-01
          1   -1    0    0  501    0  0.00000000000E+00  0.00000000000E+00  0.88313788428E+03  0.88313788430E+03  0.50400000000E-02 0. -1.
         -1   -1    0    0    0  501 -0.00000000000E+00 -0.00000000000E+00 -0.68076988418E+03  0.68076988420E+03  0.50400000000E-02 0.  1.
    8880023    1    1    2    0    0  0.13396851198E+02 -0.45039010082E+03  0.55466194189E+03  0.97184916246E+03  0.65864270000E+03 0. -1.
    8880022    1    1    2    0    0 -0.13396851198E+02  0.45039010082E+03 -0.35229394179E+03  0.59205860603E+03  0.15294330000E+03 0.  0.
<mgrwt>
<rscale>  0 0.70125590E+03</rscale>
<asrwt>0</asrwt>
<pdfrwt beam="1">  1        1 0.13586737E+00 0.79802314E+03</pdfrwt>
<pdfrwt beam="2">  1       -1 0.10473383E+00 0.79802314E+03</pdfrwt>
<totfact> 0.16465466E+01</totfact>
</mgrwt>
</event>
<event>
 4    2  0.3884658E-007  0.1026077E+04  0.7818608E-02  0.9348208E-01
          1   -1    0    0  501    0  0.00000000000E+00  0.00000000000E+00  0.24072458338E+04  0.24072458339E+04  0.50400000000E-02 0. -1.
         -1   -1    0    0    0  501 -0.00000000000E+00 -0.00000000000E+00 -0.98852657230E+03  0.98852657231E+03  0.50400000000E-02 0.  1.
    8880023    1    1    2    0    0 -0.70849695068E+03 -0.34213531483E+03  0.21042457931E+04  0.23410863006E+04  0.65864270000E+03 0. -1.
    8880022    1    1    2    0    0  0.70849695068E+03  0.34213531483E+03 -0.68552653157E+03  0.10546861056E+04  0.15294330000E+03 0.  0.
<mgrwt>
<rscale>  0 0.96463303E+03</rscale>
<asrwt>0</asrwt>
<pdfrwt beam="1">  1        1 0.37034551E+00 0.10260773E+04</pdfrwt>
<pdfrwt beam="2">  1       -1 0.15208101E+00 0.10260773E+04</pdfrwt>
<totfact> 0.53448781E-01</totfact>
</mgrwt>
</event>
<event>
 4    2  0.3884658E-007  0.6724887E+03  0.7818608E-02  0.1013938E+00
          1   -1    0    0  501    0  0.00000000000E+00  0.00000000000E+00  0.48284019537E+03  0.48284019540E+03  0.50400000000E-02 0. -1.
         -1   -1    0    0    0  501 -0.00000000000E+00 -0.00000000000E+00 -0.41147331689E+03  0.41147331692E+03  0.50400000000E-02 0.  1.
    8880023    1    1    2    0    0  0.10037050349E+03  0.91414626680E+02  0.12239904975E+03  0.68353683557E+03  0.65864270000E+03 0.  0.
    8880022    1    1    2    0    0 -0.10037050349E+03 -0.91414626680E+02 -0.51032171266E+02  0.21077667675E+03  0.15294330000E+03 0.  0.
<mgrwt>
<rscale>  0 0.49939022E+03</rscale>
<asrwt>0</asrwt>
<pdfrwt beam="1">  1        1 0.74283107E-01 0.67248872E+03</pdfrwt>
<pdfrwt beam="2">  1       -1 0.63303587E-01 0.67248872E+03</pdfrwt>
<totfact> 0.12028274E+02</totfact>
</mgrwt>
</event>
<event>
 4    2  0.3884658E-007  0.8365327E+03  0.7818608E-02  0.9636753E-01
          1   -1    0    0  501    0  0.00000000000E+00  0.00000000000E+00  0.22775544844E+04  0.22775544844E+04  0.50400000000E-02 0. -1.
         -1   -1    0    0    0  501 -0.00000000000E+00 -0.00000000000E+00 -0.34349332242E+03  0.34349332246E+03  0.50400000000E-02 0.  1.
    8880023    1    1    2    0    0 -0.50127111088E+03 -0.12126024605E+03  0.19070308565E+04  0.20824393551E+04  0.65864270000E+03 0. -1.
    8880022    1    1    2    0    0  0.50127111088E+03  0.12126024605E+03  0.27030305494E+02  0.53860845175E+03  0.15294330000E+03 0.  1.
<mgrwt>
<rscale>  0 0.74910654E+03</rscale>
<asrwt>0</asrwt>
<pdfrwt beam="1">  1        1 0.35039299E+00 0.83653271E+03</pdfrwt>
<pdfrwt beam="2">  1       -1 0.52845127E-01 0.83653271E+03</pdfrwt>
<totfact> 0.72245836E+00</totfact>
</mgrwt>
</event>
<event>
 4    2  0.3884658E-007  0.7506166E+03  0.7818608E-02  0.9830035E-01
          1   -1    0    0  501    0  0.00000000000E+00  0.00000000000E+00  0.23711192334E+04  0.23711192334E+04  0.50400000000E-02 0. -1.
         -1   -1    0    0    0  501 -0.00000000000E+00 -0.00000000000E+00 -0.31929467765E+03  0.31929467769E+03  0.50400000000E-02 0.  1.
    8880023    1    1    2    0    0  0.14372436373E+03  0.33008855020E+03  0.21582337352E+04  0.22850379003E+04  0.65864270000E+03 0. -1.
    8880022    1    1    2    0    0 -0.14372436373E+03 -0.33008855020E+03 -0.10640917940E+03  0.40537601086E+03  0.15294330000E+03 0.  0.
<mgrwt>
<rscale>  0 0.63775296E+03</rscale>
<asrwt>0</asrwt>
<pdfrwt beam="1">  1        1 0.36478758E+00 0.75061665E+03</pdfrwt>
<pdfrwt beam="2">  1       -1 0.49122258E-01 0.75061665E+03</pdfrwt>
<totfact> 0.72761963E+00</totfact>
</mgrwt>
</event>
<event>
 4    2  0.3884658E-007  0.7171864E+03  0.7818608E-02  0.9932224E-01
         -1   -1    0    0    0  501 -0.00000000000E+00  0.00000000000E+00  0.42685921596E+03  0.42685921599E+03  0.50400000000E-02 0.  1.
          1   -1    0    0  501    0  0.00000000000E+00 -0.00000000000E+00 -0.63311972801E+03  0.63311972803E+03  0.50400000000E-02 0. -1.
    8880023    1    1    2    0    0 -0.27754695735E+03  0.59277126014E+02 -0.13432276685E+03  0.72965670226E+03  0.65864270000E+03 0.  1.
    8880022    1    1    2    0    0  0.27754695735E+03 -0.59277126014E+02 -0.71937745195E+02  0.33032224176E+03  0.15294330000E+03 0. -1.
<mgrwt>
<rscale>  0 0.58724683E+03</rscale>
<asrwt>0</asrwt>
<pdfrwt beam="1">  1        1 0.97403035E-01 0.71718638E+03</pdfrwt>
<pdfrwt beam="2">  1       -1 0.65670649E-01 0.71718638E+03</pdfrwt>
<totfact> 0.76091909E+01</totfact>
</mgrwt>
</event>
<event>
 4    2  0.3884658E-007  0.7921178E+03  0.7818608E-02  0.9728105E-01
          1   -1    0    0  501    0  0.00000000000E+00  0.00000000000E+00  0.11690620377E+04  0.11690620378E+04  0.50400000000E-02 0. -1.
         -1   -1    0    0    0  501 -0.00000000000E+00 -0.00000000000E+00 -0.82409489958E+03  0.82409489960E+03  0.50400000000E-02 0.  1.
    8880023    1    1    2    0    0 -0.32362682334E+03 -0.29817134272E+03  0.94527562731E+03  0.12332869448E+04  0.65864270000E+03 0. -1.
    8880022    1    1    2    0    0  0.32362682334E+03  0.29817134272E+03 -0.60030848915E+03  0.75986999254E+03  0.15294330000E+03 0.  0.
<mgrwt>
<rscale>  0 0.69367789E+03</rscale>
<asrwt>0</asrwt>
<pdfrwt beam="1">  1        1 0.17985570E+00 0.79211784E+03</pdfrwt>
<pdfrwt beam="2">  1       -1 0.12678383E+00 0.79211784E+03</pdfrwt>
<totfact> 0.62659798E+00</totfact>
</mgrwt>
</event>
<event>
 4    2  0.3884658E-007  0.8938625E+03  0.7818608E-02  0.9535957E-01
         -1   -1    0    0    0  501 -0.00000000000E+00  0.00000000000E+00  0.64691370351E+03  0.64691370353E+03  0.50400000000E-02 0.  1.
          1   -1    0    0  501    0  0.00000000000E+00 -0.00000000000E+00 -0.25376509785E+04  0.25376509785E+04  0.50400000000E-02 0. -1.
    8880023    1    1    2    0    0 -0.43718198300E+03 -0.41719521526E+03 -0.22804755713E+04  0.24493997166E+04  0.65864270000E+03 0. -1.
    8880022    1    1    2    0    0  0.43718198300E+03  0.41719521526E+03  0.38973829629E+03  0.73516496550E+03  0.15294330000E+03 0.  0.
<mgrwt>
<rscale>  0 0.81683984E+03</rscale>
<asrwt>0</asrwt>
<pdfrwt beam="1">  1        1 0.39040784E+00 0.89386248E+03</pdfrwt>
<pdfrwt beam="2">  1       -1 0.99525186E-01 0.89386248E+03</pdfrwt>
<totfact> 0.12750597E+00</totfact>
</mgrwt>
</event>
<event>
 4    2  0.3884658E-007  0.8995532E+03  0.7818608E-02  0.9526749E-01
          1   -1    0    0  501    0  0.00000000000E+00  0.00000000000E+00  0.83824528768E+03  0.83824528770E+03  0.50400000000E-02 0. -1.
         -1   -1    0    0    0  501 -0.00000000000E+00 -0.00000000000E+00 -0.14843010081E+04  0.14843010081E+04  0.50400000000E-02 0.  1.
    8880023    1    1    2    0    0  0.19934231156E+03 -0.57935174809E+03  0.48883534172E+03  0.10237949027E+04  0.65864270000E+03 0.  0.
    8880022    1    1    2    0    0 -0.19934231156E+03  0.57935174809E+03 -0.11348910621E+04  0.12987513931E+04  0.15294330000E+03 0.  0.
<mgrwt>
<rscale>  0 0.82340116E+03</rscale>
<asrwt>0</asrwt>
<pdfrwt beam="1">  1        1 0.12896081E+00 0.89955323E+03</pdfrwt>
<pdfrwt beam="2">  1       -1 0.22835400E+00 0.89955323E+03</pdfrwt>
<totfact> 0.20231364E+00</totfact>
</mgrwt>
</event>
<event>
 4    2  0.3884658E-007  0.8446342E+03  0.7818608E-02  0.9621503E-01
         -1   -1    0    0    0  501 -0.00000000000E+00  0.00000000000E+00  0.12932368354E+04  0.12932368354E+04  0.50400000000E-02 0.  1.
          1   -1    0    0  501    0  0.00000000000E+00 -0.00000000000E+00 -0.67162131157E+03  0.67162131158E+03  0.50400000000E-02 0. -1.
    8880023    1    1    2    0    0  0.49558167725E+03  0.18437871896E+03 -0.29583966327E+03  0.89494582152E+03  0.65864270000E+03 0.  1.
    8880022    1    1    2    0    0 -0.49558167725E+03 -0.18437871896E+03  0.91745518709E+03  0.10699123255E+04  0.15294330000E+03 0.  0.
<mgrwt>
<rscale>  0 0.75889159E+03</rscale>
<asrwt>0</asrwt>
<pdfrwt beam="1">  1        1 0.10332636E+00 0.84463419E+03</pdfrwt>
<pdfrwt beam="2">  1       -1 0.19895951E+00 0.84463419E+03</pdfrwt>
<totfact> 0.45405312E+00</totfact>
</mgrwt>
</event>
<event>
 4    2  0.3884658E-007  0.8266878E+03  0.7818608E-02  0.9655812E-01
          1   -1    0    0  501    0  0.00000000000E+00  0.00000000000E+00  0.11734733478E+04  0.11734733478E+04  0.50400000000E-02 0. -1.
         -1   -1    0    0    0  501 -0.00000000000E+00 -0.00000000000E+00 -0.57852285314E+03  0.57852285316E+03  0.50400000000E-02 0.  1.
    8880023    1    1    2    0    0  0.42678241852E+03 -0.25972912046E+03  0.83676765413E+03  0.11762621995E+04  0.65864270000E+03 0.  0.
    8880022    1    1    2    0    0 -0.42678241852E+03  0.25972912046E+03 -0.24181715948E+03  0.57573400143E+03  0.15294330000E+03 0.  0.
<mgrwt>
<rscale>  0 0.73709810E+03</rscale>
<asrwt>0</asrwt>
<pdfrwt beam="1">  1        1 0.18053436E+00 0.82668776E+03</pdfrwt>
<pdfrwt beam="2">  1       -1 0.89003517E-01 0.82668776E+03</pdfrwt>
<totfact> 0.14148615E+01</totfact>
</mgrwt>
</event>
<event>
 4    2  0.3884658E-007  0.1054921E+04  0.7818608E-02  0.9312989E-01
         -1   -1    0    0    0  501 -0.00000000000E+00  0.00000000000E+00  0.78809393442E+03  0.78809393443E+03  0.50400000000E-02 0.  1.
          1   -1    0    0  501    0  0.00000000000E+00 -0.00000000000E+00 -0.15727642272E+04  0.15727642272E+04  0.50400000000E-02 0. -1.
    8880023    1    1    2    0    0 -0.49472469422E+03 -0.65901131683E+03 -0.10433548474E+04  0.14837277320E+04  0.65864270000E+03 0. -1.
    8880022    1    1    2    0    0  0.49472469422E+03  0.65901131683E+03  0.25868455464E+03  0.87713042964E+03  0.15294330000E+03 0.  0.
<mgrwt>
<rscale>  0 0.99595832E+03</rscale>
<asrwt>0</asrwt>
<pdfrwt beam="1">  1        1 0.24196373E+00 0.10549212E+04</pdfrwt>
<pdfrwt beam="2">  1       -1 0.12124522E+00 0.10549212E+04</pdfrwt>
<totfact> 0.35134570E+00</totfact>
</mgrwt>
</event>
<event>
 4    2  0.3884658E-007  0.7599143E+03  0.7818608E-02  0.9805330E-01
         -1   -1    0    0    0  501 -0.00000000000E+00  0.00000000000E+00  0.11268770698E+04  0.11268770698E+04  0.50400000000E-02 0.  1.
          1   -1    0    0  501    0  0.00000000000E+00 -0.00000000000E+00 -0.35602384826E+03  0.35602384830E+03  0.50400000000E-02 0. -1.
    8880023    1    1    2    0    0  0.15081531710E+03  0.34772721768E+03  0.20903326452E+03  0.78813995567E+03  0.65864270000E+03 0. -1.
    8880022    1    1    2    0    0 -0.15081531710E+03 -0.34772721768E+03  0.56181995699E+03  0.69476096241E+03  0.15294330000E+03 0.  0.
<mgrwt>
<rscale>  0 0.65077315E+03</rscale>
<asrwt>0</asrwt>
<pdfrwt beam="1">  1        1 0.54772900E-01 0.75991426E+03</pdfrwt>
<pdfrwt beam="2">  1       -1 0.17336570E+00 0.75991426E+03</pdfrwt>
<totfact> 0.16703291E+01</totfact>
</mgrwt>
</event>
<event>
 4    2  0.3884658E-007  0.6905711E+03  0.7818608E-02  0.1003882E+00
         -1   -1    0    0    0  501 -0.00000000000E+00  0.00000000000E+00  0.37220579394E+03  0.37220579398E+03  0.50400000000E-02 0.  1.
          1   -1    0    0  501    0  0.00000000000E+00 -0.00000000000E+00 -0.84753849844E+03  0.84753849846E+03  0.50400000000E-02 0. -1.
    8880023    1    1    2    0    0  0.20345642113E+03 -0.41033193218E+02 -0.61657593250E+03  0.92577228574E+03  0.65864270000E+03 0. -1.
    8880022    1    1    2    0    0 -0.20345642113E+03  0.41033193218E+02  0.14124322800E+03  0.29397200669E+03  0.15294330000E+03 0.  0.
<mgrwt>
<rscale>  0 0.53980191E+03</rscale>
<asrwt>0</asrwt>
<pdfrwt beam="1">  1        1 0.13039054E+00 0.69057110E+03</pdfrwt>
<pdfrwt beam="2">  1       -1 0.57262430E-01 0.69057110E+03</pdfrwt>
<totfact> 0.63844378E+01</totfact>
</mgrwt>
</event>
<event>
 4    2  0.3884658E-007  0.7064942E+03  0.7818608E-02  0.9971257E-01
         -1   -1    0    0    0  501 -0.00000000000E+00  0.00000000000E+00  0.19093399519E+03  0.19093399525E+03  0.50400000000E-02 0.  1.
          1   -1    0    0  501    0  0.00000000000E+00 -0.00000000000E+00 -0.16454268032E+04  0.16454268032E+04  0.50400000000E-02 0. -1.
    8880023    1    1    2    0    0 -0.21491536788E+02 -0.25468022679E+03 -0.13445530323E+04  0.15188670011E+04  0.65864270000E+03 0.  1.
    8880022    1    1    2    0    0  0.21491536788E+02  0.25468022679E+03 -0.10993977570E+03  0.31749379736E+03  0.15294330000E+03 0.  0.
<mgrwt>
<rscale>  0 0.56928723E+03</rscale>
<asrwt>0</asrwt>
<pdfrwt beam="1">  1        1 0.25314258E+00 0.70649424E+03</pdfrwt>
<pdfrwt beam="2">  1       -1 0.29374462E-01 0.70649424E+03</pdfrwt>
<totfact> 0.56823247E+01</totfact>
</mgrwt>
</event>
<event>
 4    2  0.3884658E-007  0.6828777E+03  0.7818608E-02  0.1007741E+00
         -1   -1    0    0    0  501 -0.00000000000E+00  0.00000000000E+00  0.57406369439E+03  0.57406369441E+03  0.50400000000E-02 0.  1.
          1   -1    0    0  501    0  0.00000000000E+00 -0.00000000000E+00 -0.73119320186E+03  0.73119320188E+03  0.50400000000E-02 0. -1.
    8880023    1    1    2    0    0  0.16215715293E+02  0.17957950367E+03 -0.52953444792E+03  0.86413464539E+03  0.65864270000E+03 0. -1.
    8880022    1    1    2    0    0 -0.16215715293E+02 -0.17957950367E+03  0.37240494044E+03  0.44112225090E+03  0.15294330000E+03 0.  0.
<mgrwt>
<rscale>  0 0.52382591E+03</rscale>
<asrwt>0</asrwt>
<pdfrwt beam="1">  1        1 0.11249126E+00 0.68287770E+03</pdfrwt>
<pdfrwt beam="2">  1       -1 0.88317491E-01 0.68287770E+03</pdfrwt>
<totfact> 0.33110704E+01</totfact>
</mgrwt>
</event>
<event>
 4    2  0.3884658E-007  0.1225694E+04  0.7818608E-02  0.9132541E-01
         -1   -1    0    0    0  501 -0.00000000000E+00  0.00000000000E+00  0.56331769367E+03  0.56331769369E+03  0.50400000000E-02 0.  1.
          1   -1    0    0  501    0  0.00000000000E+00 -0.00000000000E+00 -0.31116387821E+04  0.31116387821E+04  0.50400000000E-02 0. -1.
    8880023    1    1    2    0    0  0.35458988271E+03 -0.97097000291E+03 -0.22918168920E+04  0.25989904971E+04  0.65864270000E+03 0.  0.
    8880022    1    1    2    0    0 -0.35458988271E+03  0.97097000291E+03 -0.25650419645E+03  0.10759659787E+04  0.15294330000E+03 0.  0.
<mgrwt>
<rscale>  0 0.11777685E+04</rscale>
<asrwt>0</asrwt>
<pdfrwt beam="1">  1        1 0.47871365E+00 0.12256945E+04</pdfrwt>
<pdfrwt beam="2">  1       -1 0.86664262E-01 0.12256945E+04</pdfrwt>
<totfact> 0.64630166E-01</totfact>
</mgrwt>
</event>
<event>
 4    2  0.3884658E-007  0.9723646E+03  0.7818608E-02  0.9418641E-01
         -1   -1    0    0    0  501 -0.00000000000E+00  0.00000000000E+00  0.58351969712E+03  0.58351969714E+03  0.50400000000E-02 0.  1.
          1   -1    0    0  501    0  0.00000000000E+00 -0.00000000000E+00 -0.38527549147E+04  0.38527549147E+04  0.50400000000E-02 0. -1.
    8880023    1    1    2    0    0  0.66010320451E+03 -0.27558396639E+03 -0.35286320456E+04  0.36601553358E+04  0.65864270000E+03 0.  0.
    8880022    1    1    2    0    0 -0.66010320451E+03  0.27558396639E+03  0.25939682803E+03  0.77611927598E+03  0.15294330000E+03 0.  0.
<mgrwt>
<rscale>  0 0.90557336E+03</rscale>
<asrwt>0</asrwt>
<pdfrwt beam="1">  1        1 0.59273151E+00 0.97236463E+03</pdfrwt>
<pdfrwt beam="2">  1       -1 0.89772264E-01 0.97236463E+03</pdfrwt>
<totfact> 0.16496968E-01</totfact>
</mgrwt>
</event>
<event>
 4    2  0.3884658E-007  0.6651922E+03  0.7818608E-02  0.1019373E+00
          1   -1    0    0  501    0  0.00000000000E+00  0.00000000000E+00  0.17006305034E+04  0.17006305034E+04  0.50400000000E-02 0. -1.
         -1   -1    0    0    0  501 -0.00000000000E+00 -0.00000000000E+00 -0.13715940457E+03  0.13715940466E+03  0.50400000000E-02 0.  1.
    8880023    1    1    2    0    0  0.31709396542E+02  0.87550029362E+02  0.15114117932E+04  0.16513165379E+04  0.65864270000E+03 0. -1.
    8880022    1    1    2    0    0 -0.31709396542E+02 -0.87550029362E+02  0.52059305654E+02  0.18647337019E+03  0.15294330000E+03 0.  0.
<mgrwt>
<rscale>  0 0.47913671E+03</rscale>
<asrwt>0</asrwt>
<pdfrwt beam="1">  1        1 0.26163546E+00 0.66519223E+03</pdfrwt>
<pdfrwt beam="2">  1       -1 0.21101447E-01 0.66519223E+03</pdfrwt>
<totfact> 0.92046721E+01</totfact>
</mgrwt>
</event>
<event>
 4    2  0.3884659E-007  0.6671050E+03  0.7818608E-02  0.1017829E+00
          1   -1    0    0  501    0  0.00000000000E+00  0.00000000000E+00  0.23794104508E+04  0.23794104508E+04  0.50400000000E-02 0. -1.
         -1   -1    0    0    0  501 -0.00000000000E+00 -0.00000000000E+00 -0.49718542736E+03  0.49718542739E+03  0.50400000000E-02 0.  1.
    8880023    1    1    2    0    0  0.85200556579E+02 -0.62926967090E+02  0.23130450820E+04  0.24073235544E+04  0.65864270000E+03 0. -1.
    8880022    1    1    2    0    0 -0.85200556579E+02  0.62926967090E+02 -0.43082005854E+03  0.46927232380E+03  0.15294330000E+03 0.  0.
<mgrwt>
<rscale>  0 0.48478235E+03</rscale>
<asrwt>0</asrwt>
<pdfrwt beam="1">  1        1 0.36606314E+00 0.66710505E+03</pdfrwt>
<pdfrwt beam="2">  1       -1 0.76490067E-01 0.66710505E+03</pdfrwt>
<totfact> 0.30347949E+00</totfact>
</mgrwt>
</event>
<event>
 4    2  0.3884658E-007  0.6838375E+03  0.7818608E-02  0.1007231E+00
         -1   -1    0    0    0  501 -0.00000000000E+00  0.00000000000E+00  0.89853093402E+03  0.89853093404E+03  0.50400000000E-02 0.  1.
          1   -1    0    0  501    0  0.00000000000E+00 -0.00000000000E+00 -0.49375900360E+03  0.49375900363E+03  0.50400000000E-02 0. -1.
    8880023    1    1    2    0    0  0.14771999754E+03 -0.10955528451E+03 -0.22397366717E+03  0.71958180069E+03  0.65864270000E+03 0. -1.
    8880022    1    1    2    0    0 -0.14771999754E+03  0.10955528451E+03  0.62874559759E+03  0.67270813697E+03  0.15294330000E+03 0.  0.
<mgrwt>
<rscale>  0 0.52590056E+03</rscale>
<asrwt>0</asrwt>
<pdfrwt beam="1">  1        1 0.75962924E-01 0.68383753E+03</pdfrwt>
<pdfrwt beam="2">  1       -1 0.13823553E+00 0.68383753E+03</pdfrwt>
<totfact> 0.20197124E+01</totfact>
</mgrwt>
</event>
<event>
 4    2  0.3884658E-007  0.6697501E+03  0.7818608E-02  0.1015843E+00
          1   -1    0    0  501    0  0.00000000000E+00  0.00000000000E+00  0.10674276277E+04  0.10674276277E+04  0.50400000000E-02 0. -1.
         -1   -1    0    0    0  501 -0.00000000000E+00 -0.00000000000E+00 -0.18156653266E+03  0.18156653273E+03  0.50400000000E-02 0.  1.
    8880023    1    1    2    0    0 -0.67158800491E+02  0.10121586606E+03  0.77542818411E+03  0.10246238485E+04  0.65864270000E+03 0.  0.
    8880022    1    1    2    0    0  0.67158800491E+02 -0.10121586606E+03  0.11043291091E+03  0.22437031188E+03  0.15294330000E+03 0. -1.
<mgrwt>
<rscale>  0 0.49217162E+03</rscale>
<asrwt>0</asrwt>
<pdfrwt beam="1">  1        1 0.16421963E+00 0.66975007E+03</pdfrwt>
<pdfrwt beam="2">  1       -1 0.27933313E-01 0.66975007E+03</pdfrwt>
<totfact> 0.15854621E+02</totfact>
</mgrwt>
</event>
<event>
 4    2  0.3884658E-007  0.9525855E+03  0.7818608E-02  0.9446404E-01
          1   -1    0    0  501    0  0.00000000000E+00  0.00000000000E+00  0.21706958935E+04  0.21706958935E+04  0.50400000000E-02 0. -1.
         -1   -1    0    0    0  501 -0.00000000000E+00 -0.00000000000E+00 -0.67829548301E+03  0.67829548303E+03  0.50400000000E-02 0.  1.
    8880023    1    1    2    0    0 -0.54854109304E+03 -0.41558583013E+03  0.18332240537E+04  0.20659451954E+04  0.65864270000E+03 0.  0.
    8880022    1    1    2    0    0  0.54854109304E+03  0.41558583013E+03 -0.34082364326E+03  0.78304618113E+03  0.15294330000E+03 0.  0.
<mgrwt>
<rscale>  0 0.88353261E+03</rscale>
<asrwt>0</asrwt>
<pdfrwt beam="1">  1        1 0.33395321E+00 0.95258549E+03</pdfrwt>
<pdfrwt beam="2">  1       -1 0.10435315E+00 0.95258549E+03</pdfrwt>
<totfact> 0.20110459E+00</totfact>
</mgrwt>
</event>
<event>
 4    2  0.3884658E-007  0.7919904E+03  0.7818608E-02  0.9728390E-01
         -1   -1    0    0    0  501 -0.00000000000E+00  0.00000000000E+00  0.45272962038E+03  0.45272962040E+03  0.50400000000E-02 0.  1.
          1   -1    0    0  501    0  0.00000000000E+00 -0.00000000000E+00 -0.16244332942E+04  0.16244332942E+04  0.50400000000E-02 0. -1.
    8880023    1    1    2    0    0 -0.21646714892E+03  0.38285838482E+03 -0.13608724003E+04  0.15745546880E+04  0.65864270000E+03 0. -1.
    8880022    1    1    2    0    0  0.21646714892E+03 -0.38285838482E+03  0.18916872645E+03  0.50260822662E+03  0.15294330000E+03 0.  0.
<mgrwt>
<rscale>  0 0.69351349E+03</rscale>
<asrwt>0</asrwt>
<pdfrwt beam="1">  1        1 0.24991281E+00 0.79199039E+03</pdfrwt>
<pdfrwt beam="2">  1       -1 0.69650712E-01 0.79199039E+03</pdfrwt>
<totfact> 0.11562506E+01</totfact>
</mgrwt>
</event>
<event>
 4    2  0.3884658E-007  0.7530019E+03  0.7818608E-02  0.9823574E-01
          1   -1    0    0  501    0  0.00000000000E+00  0.00000000000E+00  0.16270050124E+04  0.16270050124E+04  0.50400000000E-02 0. -1.
         -1   -1    0    0    0  501 -0.00000000000E+00 -0.00000000000E+00 -0.21915570917E+03  0.21915570923E+03  0.50400000000E-02 0.  1.
    8880023    1    1    2    0    0  0.33759779329E+03 -0.13866994751E+03  0.11474091680E+04  0.13724283695E+04  0.65864270000E+03 0. -1.
    8880022    1    1    2    0    0 -0.33759779329E+03  0.13866994751E+03  0.26044013518E+03  0.47373235207E+03  0.15294330000E+03 0.  0.
<mgrwt>
<rscale>  0 0.64112644E+03</rscale>
<asrwt>0</asrwt>
<pdfrwt beam="1">  1        1 0.25030845E+00 0.75300188E+03</pdfrwt>
<pdfrwt beam="2">  1       -1 0.33716265E-01 0.75300188E+03</pdfrwt>
<totfact> 0.45672381E+01</totfact>
</mgrwt>
</event>
<event>
 4    2  0.3884658E-007  0.9139373E+03  0.7818608E-02  0.9504018E-01
         -1   -1    0    0    0  501 -0.00000000000E+00  0.00000000000E+00  0.99535559240E+03  0.99535559241E+03  0.50400000000E-02 0.  1.
          1   -1    0    0  501    0  0.00000000000E+00 -0.00000000000E+00 -0.10696974973E+04  0.10696974973E+04  0.50400000000E-02 0. -1.
    8880023    1    1    2    0    0 -0.62608287665E+03 -0.97424167175E+02 -0.70792747974E+03  0.11560461754E+04  0.65864270000E+03 0. -1.
    8880022    1    1    2    0    0  0.62608287665E+03  0.97424167175E+02  0.63358557480E+03  0.90900691438E+03  0.15294330000E+03 0. -1.
<mgrwt>
<rscale>  0 0.83988227E+03</rscale>
<asrwt>0</asrwt>
<pdfrwt beam="1">  1        1 0.16456885E+00 0.91393733E+03</pdfrwt>
<pdfrwt beam="2">  1       -1 0.15313163E+00 0.91393733E+03</pdfrwt>
<totfact> 0.44695084E+00</totfact>
</mgrwt>
</event>
<event>
 4    2  0.3884658E-007  0.6614777E+03  0.7818608E-02  0.1022691E+00
         -1   -1    0    0    0  501 -0.00000000000E+00  0.00000000000E+00  0.35751565781E+03  0.35751565785E+03  0.50400000000E-02 0.  1.
          1   -1    0    0  501    0  0.00000000000E+00 -0.00000000000E+00 -0.52190107677E+03  0.52190107679E+03  0.50400000000E-02 0. -1.
    8880023    1    1    2    0    0  0.50765703737E+02 -0.34138440895E+02 -0.23252266753E+03  0.70115589351E+03  0.65864270000E+03 0. -1.
    8880022    1    1    2    0    0 -0.50765703737E+02  0.34138440895E+02  0.68137248578E+02  0.17826084113E+03  0.15294330000E+03 0.  1.
<mgrwt>
<rscale>  0 0.46727886E+03</rscale>
<asrwt>0</asrwt>
<pdfrwt beam="1">  1        1 0.80292474E-01 0.66147774E+03</pdfrwt>
<pdfrwt beam="2">  1       -1 0.55002409E-01 0.66147774E+03</pdfrwt>
<totfact> 0.14248659E+02</totfact>
</mgrwt>
</event>
<event>
 4    2  0.3884658E-007  0.6786544E+03  0.7818608E-02  0.1010095E+00
         -1   -1    0    0    0  501 -0.00000000000E+00  0.00000000000E+00  0.95155133965E+02  0.95155134098E+02  0.50400000000E-02 0.  1.
          1   -1    0    0  501    0  0.00000000000E+00 -0.00000000000E+00 -0.23411085812E+04  0.23411085812E+04  0.50400000000E-02 0. -1.
    8880023    1    1    2    0    0 -0.15917230894E+03  0.37758671811E+02 -0.19527443811E+04  0.20673128369E+04  0.65864270000E+03 0.  0.
    8880022    1    1    2    0    0  0.15917230894E+03 -0.37758671811E+02 -0.29320906612E+03  0.36895087844E+03  0.15294330000E+03 0.  0.
<mgrwt>
<rscale>  0 0.51436784E+03</rscale>
<asrwt>0</asrwt>
<pdfrwt beam="1">  1        1 0.36017051E+00 0.67865437E+03</pdfrwt>
<pdfrwt beam="2">  1       -1 0.14639253E-01 0.67865437E+03</pdfrwt>
<totfact> 0.62558547E+01</totfact>
</mgrwt>
</event>
<event>
 4    2  0.3884658E-007  0.7571686E+03  0.7818608E-02  0.9812494E-01
          1   -1    0    0  501    0  0.00000000000E+00  0.00000000000E+00  0.28744160717E+03  0.28744160722E+03  0.50400000000E-02 0. -1.
         -1   -1    0    0    0  501 -0.00000000000E+00 -0.00000000000E+00 -0.17152545347E+04  0.17152545347E+04  0.50400000000E-02 0.  1.
    8880023    1    1    2    0    0  0.29068651038E+03 -0.23451092040E+03 -0.31702183244E+03  0.82085751968E+03  0.65864270000E+03 0. -1.
    8880022    1    1    2    0    0 -0.29068651038E+03  0.23451092040E+03 -0.11107910951E+04  0.11818386223E+04  0.15294330000E+03 0.  0.
<mgrwt>
<rscale>  0 0.64696351E+03</rscale>
<asrwt>0</asrwt>
<pdfrwt beam="1">  1        1 0.44221787E-01 0.75716856E+03</pdfrwt>
<pdfrwt beam="2">  1       -1 0.26388531E+00 0.75716856E+03</pdfrwt>
<totfact> 0.54546557E+00</totfact>
</mgrwt>
</event>
<event>
 4    2  0.3884658E-007  0.7571098E+03  0.7818608E-02  0.9812648E-01
          1   -1    0    0  501    0  0.00000000000E+00  0.00000000000E+00  0.24843895818E+04  0.24843895818E+04  0.50400000000E-02 0. -1.
         -1   -1    0    0    0  501 -0.00000000000E+00 -0.00000000000E+00 -0.42855061775E+03  0.42855061778E+03  0.50400000000E-02 0.  1.
    8880023    1    1    2    0    0 -0.10490210783E+03 -0.35833023564E+03  0.23134812670E+04  0.24342166685E+04  0.65864270000E+03 0. -1.
    8880022    1    1    2    0    0  0.10490210783E+03  0.35833023564E+03 -0.25764230293E+03  0.47872353115E+03  0.15294330000E+03 0.  0.
<mgrwt>
<rscale>  0 0.64688165E+03</rscale>
<asrwt>0</asrwt>
<pdfrwt beam="1">  1        1 0.38221377E+00 0.75710978E+03</pdfrwt>
<pdfrwt beam="2">  1       -1 0.65930866E-01 0.75710978E+03</pdfrwt>
<totfact> 0.34307793E+00</totfact>
</mgrwt>
</event>
<event>
 4    2  0.3884658E-007  0.9402886E+03  0.7818608E-02  0.9464227E-01
         -1   -1    0    0    0  501 -0.00000000000E+00  0.00000000000E+00  0.28055950840E+03  0.28055950845E+03  0.50400000000E-02 0.  1.
          1   -1    0    0  501    0  0.00000000000E+00 -0.00000000000E+00 -0.35790564701E+04  0.35790564701E+04  0.50400000000E-02 0. -1.
    8880023    1    1    2    0    0  0.65627269524E+03 -0.14013754086E+03 -0.29335709668E+04  0.30805813095E+04  0.65864270000E+03 0. -1.
    8880022    1    1    2    0    0 -0.65627269524E+03  0.14013754086E+03 -0.36492599494E+03  0.77903466911E+03  0.15294330000E+03 0.  0.
<mgrwt>
<rscale>  0 0.86973419E+03</rscale>
<asrwt>0</asrwt>
<pdfrwt beam="1">  1        1 0.55062404E+00 0.94028857E+03</pdfrwt>
<pdfrwt beam="2">  1       -1 0.43163004E-01 0.94028857E+03</pdfrwt>
<totfact> 0.12036675E+00</totfact>
</mgrwt>
</event>
<event>
 4    2  0.3884658E-007  0.8268033E+03  0.7818608E-02  0.9655585E-01
         -1   -1    0    0    0  501 -0.00000000000E+00  0.00000000000E+00  0.26372258456E+03  0.26372258460E+03  0.50400000000E-02 0.  1.
          1   -1    0    0  501    0  0.00000000000E+00 -0.00000000000E+00 -0.18939575143E+04  0.18939575143E+04  0.50400000000E-02 0. -1.
    8880023    1    1    2    0    0  0.26829923342E+03 -0.42167397741E+03 -0.66911681063E+03  0.10636357151E+04  0.65864270000E+03 0.  0.
    8880022    1    1    2    0    0 -0.26829923342E+03  0.42167397741E+03 -0.96111811916E+03  0.10940443839E+04  0.15294330000E+03 0.  0.
<mgrwt>
<rscale>  0 0.73723977E+03</rscale>
<asrwt>0</asrwt>
<pdfrwt beam="1">  1        1 0.29137807E+00 0.82680326E+03</pdfrwt>
<pdfrwt beam="2">  1       -1 0.40572707E-01 0.82680326E+03</pdfrwt>
<totfact> 0.21467419E+01</totfact>
</mgrwt>
</event>
<event>
 4    2  0.4462493E-007  0.6828957E+03  0.7818608E-02  0.1007731E+00
          1   -1    0    0  501    0  0.00000000000E+00  0.00000000000E+00  0.81018796227E+03  0.81018796229E+03  0.50400000000E-02 0. -1.
         -1   -1    0    0    0  501 -0.00000000000E+00 -0.00000000000E+00 -0.16126095321E+04  0.16126095321E+04  0.50400000000E-02 0.  1.
    8880023    1    1    2    0    0  0.14122129941E+03  0.11221804193E+03  0.65504319342E+03  0.94627064619E+03  0.65864270000E+03 0. -1.
    8880022    1    1    2    0    0 -0.14122129941E+03 -0.11221804193E+03 -0.14574647632E+04  0.14765268482E+04  0.15294330000E+03 0.  0.
<mgrwt>
<rscale>  0 0.52386508E+03</rscale>
<asrwt>0</asrwt>
<pdfrwt beam="1">  1        1 0.12464430E+00 0.68289571E+03</pdfrwt>
<pdfrwt beam="2">  1       -1 0.24809377E+00 0.68289571E+03</pdfrwt>
<totfact> 0.16493372E+00</totfact>
</mgrwt>
</event>
<event>
 4    2  0.3884658E-007  0.7400409E+03  0.7818608E-02  0.9859828E-01
         -1   -1    0    0    0  501 -0.00000000000E+00  0.00000000000E+00  0.45623630320E+03  0.45623630323E+03  0.50400000000E-02 0.  1.
          1   -1    0    0  501    0  0.00000000000E+00 -0.00000000000E+00 -0.10628938891E+04  0.10628938891E+04  0.50400000000E-02 0. -1.
    8880023    1    1    2    0    0 -0.33712449921E+03 -0.14050580113E+02 -0.80948370523E+03  0.10967791127E+04  0.65864270000E+03 0.  0.
    8880022    1    1    2    0    0  0.33712449921E+03  0.14050580113E+02  0.20282611934E+03  0.42235107964E+03  0.15294330000E+03 0.  0.
<mgrwt>
<rscale>  0 0.62248326E+03</rscale>
<asrwt>0</asrwt>
<pdfrwt beam="1">  1        1 0.16352214E+00 0.74004091E+03</pdfrwt>
<pdfrwt beam="2">  1       -1 0.70190201E-01 0.74004091E+03</pdfrwt>
<totfact> 0.28562057E+01</totfact>
</mgrwt>
</event>
<event>
 4    2  0.3884658E-007  0.8244623E+03  0.7818608E-02  0.9660205E-01
         -1   -1    0    0    0  501 -0.00000000000E+00  0.00000000000E+00  0.99399980348E+03  0.99399980349E+03  0.50400000000E-02 0.  1.
          1   -1    0    0  501    0  0.00000000000E+00 -0.00000000000E+00 -0.62658853575E+03  0.62658853577E+03  0.50400000000E-02 0. -1.
    8880023    1    1    2    0    0  0.15900256800E+03 -0.46972980685E+03 -0.20334906560E+03  0.84916956894E+03  0.65864270000E+03 0.  0.
    8880022    1    1    2    0    0 -0.15900256800E+03  0.46972980685E+03  0.57076033333E+03  0.77141877032E+03  0.15294330000E+03 0.  0.
<mgrwt>
<rscale>  0 0.73436437E+03</rscale>
<asrwt>0</asrwt>
<pdfrwt beam="1">  1        1 0.96398237E-01 0.82446232E+03</pdfrwt>
<pdfrwt beam="2">  1       -1 0.15292305E+00 0.82446232E+03</pdfrwt>
<totfact> 0.10867431E+01</totfact>
</mgrwt>
</event>
<event>
 4    2  0.3884658E-007  0.7965886E+03  0.7818608E-02  0.9718221E-01
          1   -1    0    0  501    0  0.00000000000E+00  0.00000000000E+00  0.18801183748E+04  0.18801183748E+04  0.50400000000E-02 0. -1.
         -1   -1    0    0    0  501 -0.00000000000E+00 -0.00000000000E+00 -0.42798617083E+03  0.42798617086E+03  0.50400000000E-02 0.  1.
    8880023    1    1    2    0    0  0.24772246509E+02  0.44735843716E+03  0.16204368773E+04  0.18056492226E+04  0.65864270000E+03 0. -1.
    8880022    1    1    2    0    0 -0.24772246509E+02 -0.44735843716E+03 -0.16830467341E+03  0.50245532299E+03  0.15294330000E+03 0.  0.
<mgrwt>
<rscale>  0 0.69942195E+03</rscale>
<asrwt>0</asrwt>
<pdfrwt beam="1">  1        1 0.28924898E+00 0.79658863E+03</pdfrwt>
<pdfrwt beam="2">  1       -1 0.65844026E-01 0.79658863E+03</pdfrwt>
<totfact> 0.87163868E+00</totfact>
</mgrwt>
</event>
<event>
 4    2  0.3884658E-007  0.7772795E+03  0.7818608E-02  0.9762267E-01
          1   -1    0    0  501    0  0.00000000000E+00  0.00000000000E+00  0.20866131947E+04  0.20866131947E+04  0.50400000000E-02 0. -1.
         -1   -1    0    0    0  501 -0.00000000000E+00 -0.00000000000E+00 -0.29685588556E+03  0.29685588560E+03  0.50400000000E-02 0.  1.
    8880023    1    1    2    0    0  0.34521716649E+03 -0.22622640317E+03  0.17809911128E+04  0.19432171334E+04  0.65864270000E+03 0. -1.
    8880022    1    1    2    0    0 -0.34521716649E+03  0.22622640317E+03  0.87661963614E+01  0.44025194689E+03  0.15294330000E+03 0.  0.
<mgrwt>
<rscale>  0 0.67427448E+03</rscale>
<asrwt>0</asrwt>
<pdfrwt beam="1">  1        1 0.32101741E+00 0.77727954E+03</pdfrwt>
<pdfrwt beam="2">  1       -1 0.45670137E-01 0.77727954E+03</pdfrwt>
<totfact> 0.12907212E+01</totfact>
</mgrwt>
</event>
<event>
 4    2  0.3884658E-007  0.9309928E+03  0.7818608E-02  0.9478005E-01
         -1   -1    0    0    0  501 -0.00000000000E+00  0.00000000000E+00  0.11442472572E+04  0.11442472572E+04  0.50400000000E-02 0.  1.
          1   -1    0    0  501    0  0.00000000000E+00 -0.00000000000E+00 -0.12106425907E+04  0.12106425907E+04  0.50400000000E-02 0. -1.
    8880023    1    1    2    0    0 -0.23945942298E+03 -0.61285933539E+03 -0.89117845029E+03  0.12887771789E+04  0.65864270000E+03 0. -1.
    8880022    1    1    2    0    0  0.23945942298E+03  0.61285933539E+03  0.82478311684E+03  0.10661126690E+04  0.15294330000E+03 0.  0.
<mgrwt>
<rscale>  0 0.85924993E+03</rscale>
<asrwt>0</asrwt>
<pdfrwt beam="1">  1        1 0.18625271E+00 0.93099280E+03</pdfrwt>
<pdfrwt beam="2">  1       -1 0.17603804E+00 0.93099280E+03</pdfrwt>
<totfact> 0.23649079E+00</totfact>
</mgrwt>
</event>
<event>
 4    2  0.3884658E-007  0.8006129E+03  0.7818608E-02  0.9709472E-01
         -1   -1    0    0    0  501 -0.00000000000E+00  0.00000000000E+00  0.32020359540E+03  0.32020359544E+03  0.50400000000E-02 0.  1.
          1   -1    0    0  501    0  0.00000000000E+00 -0.00000000000E+00 -0.13863208353E+04  0.13863208354E+04  0.50400000000E-02 0. -1.
    8880023    1    1    2    0    0  0.57617439536E+02 -0.45149865848E+03 -0.88482370113E+03  0.11932702947E+04  0.65864270000E+03 0. -1.
    8880022    1    1    2    0    0 -0.57617439536E+02  0.45149865848E+03 -0.18129353881E+03  0.51325413606E+03  0.15294330000E+03 0.  0.
<mgrwt>
<rscale>  0 0.70455599E+03</rscale>
<asrwt>0</asrwt>
<pdfrwt beam="1">  1        1 0.21328012E+00 0.80061290E+03</pdfrwt>
<pdfrwt beam="2">  1       -1 0.49262092E-01 0.80061290E+03</pdfrwt>
<totfact> 0.33217196E+01</totfact>
</mgrwt>
</event>
<event>
 4    2  0.3884658E-007  0.6619661E+03  0.7818608E-02  0.1022227E+00
         -1   -1    0    0    0  501 -0.00000000000E+00  0.00000000000E+00  0.51119847539E+03  0.51119847542E+03  0.50400000000E-02 0.  1.
          1   -1    0    0  501    0  0.00000000000E+00 -0.00000000000E+00 -0.74521408147E+03  0.74521408149E+03  0.50400000000E-02 0. -1.
    8880023    1    1    2    0    0  0.23395635533E+02 -0.61980146271E+02 -0.57502960972E+03  0.87684556942E+03  0.65864270000E+03 0. -1.
    8880022    1    1    2    0    0 -0.23395635533E+02  0.61980146271E+02  0.34101400364E+03  0.37956698748E+03  0.15294330000E+03 0.  0.
<mgrwt>
<rscale>  0 0.46891530E+03</rscale>
<asrwt>0</asrwt>
<pdfrwt beam="1">  1        1 0.11464832E+00 0.66196609E+03</pdfrwt>
<pdfrwt beam="2">  1       -1 0.78645919E-01 0.66196609E+03</pdfrwt>
<totfact> 0.41333145E+01</totfact>
</mgrwt>
</event>
<event>
 4    2  0.3884658E-007  0.6648766E+03  0.7818608E-02  0.1019637E+00
          1   -1    0    0  501    0  0.00000000000E+00  0.00000000000E+00  0.15162013509E+04  0.15162013509E+04  0.50400000000E-02 0. -1.
         -1   -1    0    0    0  501 -0.00000000000E+00 -0.00000000000E+00 -0.26947486291E+03  0.26947486296E+03  0.50400000000E-02 0.  1.
    8880023    1    1    2    0    0  0.72082090283E+02 -0.55270549588E+02  0.14006482540E+04  0.15504439362E+04  0.65864270000E+03 0. -1.
    8880022    1    1    2    0    0 -0.72082090283E+02  0.55270549588E+02 -0.15392176605E+03  0.23523227770E+03  0.15294330000E+03 0.  0.
<mgrwt>
<rscale>  0 0.47817769E+03</rscale>
<asrwt>0</asrwt>
<pdfrwt beam="1">  1        1 0.23326175E+00 0.66487658E+03</pdfrwt>
<pdfrwt beam="2">  1       -1 0.41457671E-01 0.66487658E+03</pdfrwt>
<totfact> 0.37857000E+01</totfact>
</mgrwt>
</event>
<event>
 4    2  0.3884658E-007  0.7516948E+03  0.7818608E-02  0.9827104E-01
         -1   -1    0    0    0  501 -0.00000000000E+00  0.00000000000E+00  0.14646487026E+03  0.14646487035E+03  0.50400000000E-02 0.  1.
          1   -1    0    0  501    0  0.00000000000E+00 -0.00000000000E+00 -0.26461597239E+04  0.26461597239E+04  0.50400000000E-02 0. -1.
    8880023    1    1    2    0    0  0.15560023760E+03  0.32714433112E+03 -0.21062421981E+04  0.22363589270E+04  0.65864270000E+03 0.  0.
    8880022    1    1    2    0    0 -0.15560023760E+03 -0.32714433112E+03 -0.39345265554E+03  0.55626566719E+03  0.15294330000E+03 0.  0.
<mgrwt>
<rscale>  0 0.63928078E+03</rscale>
<asrwt>0</asrwt>
<pdfrwt beam="1">  1        1 0.40710146E+00 0.75169479E+03</pdfrwt>
<pdfrwt beam="2">  1       -1 0.22533059E-01 0.75169479E+03</pdfrwt>
<totfact> 0.18814992E+01</totfact>
</mgrwt>
</event>
<event>
 4    2  0.3884658E-007  0.8273274E+03  0.7818608E-02  0.9654555E-01
          1   -1    0    0  501    0  0.00000000000E+00  0.00000000000E+00  0.20771410358E+04  0.20771410358E+04  0.50400000000E-02 0. -1.
         -1   -1    0    0    0  501 -0.00000000000E+00 -0.00000000000E+00 -0.81393219737E+03  0.81393219738E+03  0.50400000000E-02 0.  1.
    8880023    1    1    2    0    0  0.49939367813E+03  0.35585805030E+02  0.18966900382E+04  0.20692761301E+04  0.65864270000E+03 0. -1.
    8880022    1    1    2    0    0 -0.49939367813E+03 -0.35585805030E+02 -0.63348119974E+03  0.82179710313E+03  0.15294330000E+03 0.  0.
<mgrwt>
<rscale>  0 0.73788245E+03</rscale>
<asrwt>0</asrwt>
<pdfrwt beam="1">  1        1 0.31956016E+00 0.82732738E+03</pdfrwt>
<pdfrwt beam="2">  1       -1 0.12522034E+00 0.82732738E+03</pdfrwt>
<totfact> 0.15327294E+00</totfact>
</mgrwt>
</event>
<event>
 4    2  0.3884658E-007  0.1311194E+04  0.7818608E-02  0.9055953E-01
         -1   -1    0    0    0  501 -0.00000000000E+00  0.00000000000E+00  0.89141831286E+03  0.89141831287E+03  0.50400000000E-02 0.  1.
          1   -1    0    0  501    0  0.00000000000E+00 -0.00000000000E+00 -0.21774564619E+04  0.21774564619E+04  0.50400000000E-02 0. -1.
    8880023    1    1    2    0    0 -0.66089544299E+03 -0.92121452573E+03 -0.14012635465E+04  0.19190541217E+04  0.65864270000E+03 0.  0.
    8880022    1    1    2    0    0  0.66089544299E+03  0.92121452573E+03  0.11522539747E+03  0.11498206531E+04  0.15294330000E+03 0.  0.
<mgrwt>
<rscale>  0 0.12672426E+04</rscale>
<asrwt>0</asrwt>
<pdfrwt beam="1">  1        1 0.33499330E+00 0.13111938E+04</pdfrwt>
<pdfrwt beam="2">  1       -1 0.13714128E+00 0.13111938E+04</pdfrwt>
<totfact> 0.96959357E-01</totfact>
</mgrwt>
</event>
<event>
 4    2  0.3884658E-007  0.6978898E+03  0.7818608E-02  0.1000607E+00
          1   -1    0    0  501    0  0.00000000000E+00  0.00000000000E+00  0.25300929077E+04  0.25300929077E+04  0.50400000000E-02 0. -1.
         -1   -1    0    0    0  501 -0.00000000000E+00 -0.00000000000E+00 -0.22263741355E+03  0.22263741361E+03  0.50400000000E-02 0.  1.
    8880023    1    1    2    0    0  0.13303598746E+03  0.18852426282E+03  0.23685654330E+04  0.24692412576E+04  0.65864270000E+03 0. -1.
    8880022    1    1    2    0    0 -0.13303598746E+03 -0.18852426282E+03 -0.61109938796E+02  0.28348906375E+03  0.15294330000E+03 0.  0.
<mgrwt>
<rscale>  0 0.55384870E+03</rscale>
<asrwt>0</asrwt>
<pdfrwt beam="1">  1        1 0.38924505E+00 0.69788980E+03</pdfrwt>
<pdfrwt beam="2">  1       -1 0.34251911E-01 0.69788980E+03</pdfrwt>
<totfact> 0.11063638E+01</totfact>
</mgrwt>
</event>
<event>
 4    2  0.3884658E-007  0.1261623E+04  0.7818608E-02  0.9099430E-01
          1   -1    0    0  501    0  0.00000000000E+00  0.00000000000E+00  0.19457040235E+04  0.19457040235E+04  0.50400000000E-02 0. -1.
         -1   -1    0    0    0  501 -0.00000000000E+00 -0.00000000000E+00 -0.11829778214E+04  0.11829778214E+04  0.50400000000E-02 0.  1.
    8880023    1    1    2    0    0 -0.10029842278E+04 -0.38974944487E+03  0.13872694502E+04  0.18751556535E+04  0.65864270000E+03 0.  0.
    8880022    1    1    2    0    0  0.10029842278E+04  0.38974944487E+03 -0.62454324807E+03  0.12535261915E+04  0.15294330000E+03 0.  0.
<mgrwt>
<rscale>  0 0.12154608E+04</rscale>
<asrwt>0</asrwt>
<pdfrwt beam="1">  1        1 0.29933908E+00 0.12616228E+04</pdfrwt>
<pdfrwt beam="2">  1       -1 0.18199659E+00 0.12616228E+04</pdfrwt>
<totfact> 0.63590384E-01</totfact>
</mgrwt>
</event>
<event>
 4    2  0.3884658E-007  0.7323546E+03  0.7818608E-02  0.9882804E-01
          1   -1    0    0  501    0  0.00000000000E+00  0.00000000000E+00  0.12552428954E+04  0.12552428954E+04  0.50400000000E-02 0. -1.
         -1   -1    0    0    0  501 -0.00000000000E+00 -0.00000000000E+00 -0.28000937243E+03  0.28000937248E+03  0.50400000000E-02 0.  1.
    8880023    1    1    2    0    0  0.32010276875E+03  0.82061721755E+01  0.92034902857E+03  0.11761741642E+04  0.65864270000E+03 0.  1.
    8880022    1    1    2    0    0 -0.32010276875E+03 -0.82061721755E+01  0.54884494394E+02  0.35907810371E+03  0.15294330000E+03 0.  0.
<mgrwt>
<rscale>  0 0.61101937E+03</rscale>
<asrwt>0</asrwt>
<pdfrwt beam="1">  1        1 0.19311429E+00 0.73235465E+03</pdfrwt>
<pdfrwt beam="2">  1       -1 0.43078365E-01 0.73235465E+03</pdfrwt>
<totfact> 0.53165009E+01</totfact>
</mgrwt>
</event>
<event>
 4    2  0.3884658E-007  0.1012789E+04  0.7818608E-02  0.9365014E-01
         -1   -1    0    0    0  501 -0.00000000000E+00  0.00000000000E+00  0.46726564286E+03  0.46726564289E+03  0.50400000000E-02 0.  1.
          1   -1    0    0  501    0  0.00000000000E+00 -0.00000000000E+00 -0.36049876796E+04  0.36049876796E+04  0.50400000000E-02 0. -1.
    8880023    1    1    2    0    0  0.12689725162E+03 -0.75883344823E+03 -0.31278854586E+04  0.32877665311E+04  0.65864270000E+03 0. -1.
    8880022    1    1    2    0    0 -0.12689725162E+03  0.75883344823E+03 -0.98365781635E+01  0.78448679142E+03  0.15294330000E+03 0.  0.
<mgrwt>
<rscale>  0 0.95011695E+03</rscale>
<asrwt>0</asrwt>
<pdfrwt beam="1">  1        1 0.55461347E+00 0.10127889E+04</pdfrwt>
<pdfrwt beam="2">  1       -1 0.71887024E-01 0.10127889E+04</pdfrwt>
<totfact> 0.41874340E-01</totfact>
</mgrwt>
</event>
<event>
 4    2  0.3884658E-007  0.8942668E+03  0.7818608E-02  0.9535299E-01
          1   -1    0    0  501    0  0.00000000000E+00  0.00000000000E+00  0.16310371925E+04  0.16310371925E+04  0.50400000000E-02 0. -1.
         -1   -1    0    0    0  501 -0.00000000000E+00 -0.00000000000E+00 -0.65180443884E+03  0.65180443886E+03  0.50400000000E-02 0.  1.
    8880023    1    1    2    0    0 -0.37101955158E+03  0.47775251106E+03  0.13026497361E+04  0.15800662995E+04  0.65864270000E+03 0.  0.
    8880022    1    1    2    0    0  0.37101955158E+03 -0.47775251106E+03 -0.32341698249E+03  0.70277533185E+03  0.15294330000E+03 0.  0.
<mgrwt>
<rscale>  0 0.81730686E+03</rscale>
<asrwt>0</asrwt>
<pdfrwt beam="1">  1        1 0.25092880E+00 0.89426684E+03</pdfrwt>
<pdfrwt beam="2">  1       -1 0.10027761E+00 0.89426684E+03</pdfrwt>
<totfact> 0.51368476E+00</totfact>
</mgrwt>
</event>
<event>
 4    2  0.4822100E-007  0.8256218E+03  0.7818608E-02  0.9657912E-01
          1   -1    0    0  501    0  0.00000000000E+00  0.00000000000E+00  0.20607892674E+04  0.20607892674E+04  0.50400000000E-02 0. -1.
         -1   -1    0    0    0  501 -0.00000000000E+00 -0.00000000000E+00 -0.18443272921E+04  0.18443272921E+04  0.50400000000E-02 0.  1.
    8880023    1    1    2    0    0 -0.29240934162E+03 -0.40291178816E+03  0.19379947962E+04  0.21065315494E+04  0.65864270000E+03 0. -1.
    8880022    1    1    2    0    0  0.29240934162E+03  0.40291178816E+03 -0.17215328209E+04  0.17985850101E+04  0.15294330000E+03 0.  0.
<mgrwt>
<rscale>  0 0.73578958E+03</rscale>
<asrwt>0</asrwt>
<pdfrwt beam="1">  1        1 0.31704450E+00 0.82562179E+03</pdfrwt>
<pdfrwt beam="2">  1       -1 0.28374266E+00 0.82562179E+03</pdfrwt>
<totfact> 0.12108533E-01</totfact>
</mgrwt>
</event>
<event>
 4    2  0.3884658E-007  0.8021693E+03  0.7818608E-02  0.9706125E-01
         -1   -1    0    0    0  501 -0.00000000000E+00  0.00000000000E+00  0.27889173485E+04  0.27889173486E+04  0.50400000000E-02 0.  1.
          1   -1    0    0  501    0  0.00000000000E+00 -0.00000000000E+00 -0.39108146428E+03  0.39108146431E+03  0.50400000000E-02 0. -1.
    8880023    1    1    2    0    0  0.29979782514E+03 -0.34610211137E+03  0.72904912364E+02  0.80547547447E+03  0.65864270000E+03 0. -1.
    8880022    1    1    2    0    0 -0.29979782514E+03  0.34610211137E+03  0.23249309719E+04  0.23745233384E+04  0.15294330000E+03 0.  0.
<mgrwt>
<rscale>  0 0.70653278E+03</rscale>
<asrwt>0</asrwt>
<pdfrwt beam="1">  1        1 0.60166381E-01 0.80216932E+03</pdfrwt>
<pdfrwt beam="2">  1       -1 0.42906420E+00 0.80216932E+03</pdfrwt>
<totfact> 0.29669016E-01</totfact>
</mgrwt>
</event>
<event>
 4    2  0.3884658E-007  0.8806873E+03  0.7818608E-02  0.9557774E-01
         -1   -1    0    0    0  501 -0.00000000000E+00  0.00000000000E+00  0.39677706176E+03  0.39677706179E+03  0.50400000000E-02 0.  1.
          1   -1    0    0  501    0  0.00000000000E+00 -0.00000000000E+00 -0.23844284818E+04  0.23844284818E+04  0.50400000000E-02 0. -1.
    8880023    1    1    2    0    0 -0.46364531544E+03  0.35613604010E+03 -0.19907851223E+04  0.21768866454E+04  0.65864270000E+03 0.  0.
    8880022    1    1    2    0    0  0.46364531544E+03 -0.35613604010E+03  0.31337022638E+01  0.60431889817E+03  0.15294330000E+03 0.  0.
<mgrwt>
<rscale>  0 0.80155139E+03</rscale>
<asrwt>0</asrwt>
<pdfrwt beam="1">  1        1 0.36683514E+00 0.88068727E+03</pdfrwt>
<pdfrwt beam="2">  1       -1 0.61042626E-01 0.88068727E+03</pdfrwt>
<totfact> 0.45843156E+00</totfact>
</mgrwt>
</event>
<event>
 4    2  0.3884658E-007  0.1204922E+04  0.7818608E-02  0.9152353E-01
         -1   -1    0    0    0  501 -0.00000000000E+00  0.00000000000E+00  0.20364890121E+04  0.20364890121E+04  0.50400000000E-02 0.  1.
          1   -1    0    0  501    0  0.00000000000E+00 -0.00000000000E+00 -0.83438156623E+03  0.83438156625E+03  0.50400000000E-02 0. -1.
    8880023    1    1    2    0    0 -0.84827665557E+03  0.54630852632E+03 -0.10851906675E+03  0.12097986958E+04  0.65864270000E+03 0.  0.
    8880022    1    1    2    0    0  0.84827665557E+03 -0.54630852632E+03  0.13106265126E+04  0.16610718825E+04  0.15294330000E+03 0.  0.
<mgrwt>
<rscale>  0 0.11559053E+04</rscale>
<asrwt>0</asrwt>
<pdfrwt beam="1">  1        1 0.12836640E+00 0.12049218E+04</pdfrwt>
<pdfrwt beam="2">  1       -1 0.31330600E+00 0.12049218E+04</pdfrwt>
<totfact> 0.55153366E-01</totfact>
</mgrwt>
</event>
<event>
 4    2  0.3884658E-007  0.7827112E+03  0.7818608E-02  0.9749507E-01
         -1   -1    0    0    0  501 -0.00000000000E+00  0.00000000000E+00  0.75762743357E+03  0.75762743359E+03  0.50400000000E-02 0.  1.
          1   -1    0    0  501    0  0.00000000000E+00 -0.00000000000E+00 -0.10683369814E+04  0.10683369814E+04  0.50400000000E-02 0. -1.
    8880023    1    1    2    0    0  0.73141409253E+02  0.41650555507E+03 -0.82877228884E+03  0.11399562519E+04  0.65864270000E+03 0. -1.
    8880022    1    1    2    0    0 -0.73141409253E+02 -0.41650555507E+03  0.51806274105E+03  0.68600816310E+03  0.15294330000E+03 0.  0.
<mgrwt>
<rscale>  0 0.68144164E+03</rscale>
<asrwt>0</asrwt>
<pdfrwt beam="1">  1        1 0.16435954E+00 0.78271115E+03</pdfrwt>
<pdfrwt beam="2">  1       -1 0.11655807E+00 0.78271115E+03</pdfrwt>
<totfact> 0.91622032E+00</totfact>
</mgrwt>
</event>
<event>
 4    2  0.3884658E-007  0.9185336E+03  0.7818608E-02  0.9496911E-01
          1   -1    0    0  501    0  0.00000000000E+00  0.00000000000E+00  0.18878940093E+04  0.18878940093E+04  0.50400000000E-02 0. -1.
         -1   -1    0    0    0  501 -0.00000000000E+00 -0.00000000000E+00 -0.37267390835E+03  0.37267390838E+03  0.50400000000E-02 0.  1.
    8880023    1    1    2    0    0  0.63264477970E+03  0.98256884002E+02  0.12493201644E+04  0.15506466109E+04  0.65864270000E+03 0. -1.
    8880022    1    1    2    0    0 -0.63264477970E+03 -0.98256884002E+02  0.26589993658E+03  0.70992130678E+03  0.15294330000E+03 0.  0.
<mgrwt>
<rscale>  0 0.84511939E+03</rscale>
<asrwt>0</asrwt>
<pdfrwt beam="1">  1        1 0.29044524E+00 0.91853364E+03</pdfrwt>
<pdfrwt beam="2">  1       -1 0.57334446E-01 0.91853364E+03</pdfrwt>
<totfact> 0.11152383E+01</totfact>
</mgrwt>
</event>
<event>
 4    2  0.3884658E-007  0.1070301E+04  0.7818608E-02  0.9294866E-01
         -1   -1    0    0    0  501 -0.00000000000E+00  0.00000000000E+00  0.73298555696E+03  0.73298555698E+03  0.50400000000E-02 0.  1.
          1   -1    0    0  501    0  0.00000000000E+00 -0.00000000000E+00 -0.17098687017E+04  0.17098687017E+04  0.50400000000E-02 0. -1.
    8880023    1    1    2    0    0 -0.44854273499E+03 -0.71452340963E+03 -0.11469344909E+04  0.15687584966E+04  0.65864270000E+03 0.  0.
    8880022    1    1    2    0    0  0.44854273499E+03  0.71452340963E+03  0.17005134610E+03  0.87409576212E+03  0.15294330000E+03 0.  0.
<mgrwt>
<rscale>  0 0.10125692E+04</rscale>
<asrwt>0</asrwt>
<pdfrwt beam="1">  1        1 0.26305672E+00 0.10703011E+04</pdfrwt>
<pdfrwt beam="2">  1       -1 0.11276701E+00 0.10703011E+04</pdfrwt>
<totfact> 0.33711064E+00</totfact>
</mgrwt>
</event>
<event>
 4    2  0.3884658E-007  0.6874963E+03  0.7818608E-02  0.1005366E+00
         -1   -1    0    0    0  501 -0.00000000000E+00  0.00000000000E+00  0.23436755001E+04  0.23436755001E+04  0.50400000000E-02 0.  1.
          1   -1    0    0  501    0  0.00000000000E+00 -0.00000000000E+00 -0.17273254209E+03  0.17273254217E+03  0.50400000000E-02 0. -1.
    8880023    1    1    2    0    0  0.11167590363E+03  0.16238658133E+03  0.56124656230E+03  0.88749581363E+03  0.65864270000E+03 0.  0.
    8880022    1    1    2    0    0 -0.11167590363E+03 -0.16238658133E+03  0.16096963957E+04  0.16289122286E+04  0.15294330000E+03 0.  0.
<mgrwt>
<rscale>  0 0.53358667E+03</rscale>
<asrwt>0</asrwt>
<pdfrwt beam="1">  1        1 0.26574239E-01 0.68749627E+03</pdfrwt>
<pdfrwt beam="2">  1       -1 0.36056543E+00 0.68749627E+03</pdfrwt>
<totfact> 0.25432347E+00</totfact>
</mgrwt>
</event>
<event>
 4    2  0.3884658E-007  0.9304953E+03  0.7818608E-02  0.9478751E-01
          1   -1    0    0  501    0  0.00000000000E+00  0.00000000000E+00  0.18460787848E+04  0.18460787848E+04  0.50400000000E-02 0. -1.
         -1   -1    0    0    0  501 -0.00000000000E+00 -0.00000000000E+00 -0.67662205122E+03  0.67662205124E+03  0.50400000000E-02 0.  1.
    8880023    1    1    2    0    0  0.58194683186E+03  0.30553087935E+03  0.15047132472E+04  0.17691759087E+04  0.65864270000E+03 0.  0.
    8880022    1    1    2    0    0 -0.58194683186E+03 -0.30553087935E+03 -0.33525651354E+03  0.75352492742E+03  0.15294330000E+03 0.  0.
<mgrwt>
<rscale>  0 0.85868742E+03</rscale>
<asrwt>0</asrwt>
<pdfrwt beam="1">  1        1 0.28401212E+00 0.93049527E+03</pdfrwt>
<pdfrwt beam="2">  1       -1 0.10409570E+00 0.93049527E+03</pdfrwt>
<totfact> 0.33553620E+00</totfact>
</mgrwt>
</event>
<event>
 4    2  0.3884658E-007  0.8159033E+03  0.7818608E-02  0.9677409E-01
         -1   -1    0    0    0  501 -0.00000000000E+00  0.00000000000E+00  0.78240588942E+03  0.78240588943E+03  0.50400000000E-02 0.  1.
          1   -1    0    0  501    0  0.00000000000E+00 -0.00000000000E+00 -0.97105219554E+03  0.97105219556E+03  0.50400000000E-02 0. -1.
    8880023    1    1    2    0    0  0.42261859074E+03  0.23082798983E+03  0.45578083156E+03  0.93457712726E+03  0.65864270000E+03 0.  0.
    8880022    1    1    2    0    0 -0.42261859074E+03 -0.23082798983E+03 -0.64442713768E+03  0.81888095773E+03  0.15294330000E+03 0.  0.
<mgrwt>
<rscale>  0 0.72377914E+03</rscale>
<asrwt>0</asrwt>
<pdfrwt beam="1">  1        1 0.14939265E+00 0.81590333E+03</pdfrwt>
<pdfrwt beam="2">  1       -1 0.12037014E+00 0.81590333E+03</pdfrwt>
<totfact> 0.10027395E+01</totfact>
</mgrwt>
</event>
<event>
 4    2  0.3884658E-007  0.6658998E+03  0.7818608E-02  0.1018790E+00
         -1   -1    0    0    0  501 -0.00000000000E+00  0.00000000000E+00  0.52465400849E+03  0.52465400852E+03  0.50400000000E-02 0.  1.
          1   -1    0    0  501    0  0.00000000000E+00 -0.00000000000E+00 -0.14131886608E+04  0.14131886608E+04  0.50400000000E-02 0. -1.
    8880023    1    1    2    0    0  0.68379593444E+02 -0.70260247221E+02 -0.13151680223E+04  0.14741402254E+04  0.65864270000E+03 0. -1.
    8880022    1    1    2    0    0 -0.68379593444E+02  0.70260247221E+02  0.42663336994E+03  0.46370244393E+03  0.15294330000E+03 0.  0.
<mgrwt>
<rscale>  0 0.48125731E+03</rscale>
<asrwt>0</asrwt>
<pdfrwt beam="1">  1        1 0.21741364E+00 0.66589975E+03</pdfrwt>
<pdfrwt beam="2">  1       -1 0.80716002E-01 0.66589975E+03</pdfrwt>
<totfact> 0.12082938E+01</totfact>
</mgrwt>
</event>
<event>
 4    2  0.3884658E-007  0.7949791E+03  0.7818608E-02  0.9721759E-01
         -1   -1    0    0    0  501 -0.00000000000E+00  0.00000000000E+00  0.63544738707E+03  0.63544738709E+03  0.50400000000E-02 0.  1.
          1   -1    0    0  501    0  0.00000000000E+00 -0.00000000000E+00 -0.10225404907E+04  0.10225404908E+04  0.50400000000E-02 0. -1.
    8880023    1    1    2    0    0 -0.35654623632E+03  0.26656393250E+03 -0.72708055639E+03  0.10773290540E+04  0.65864270000E+03 0.  0.
    8880022    1    1    2    0    0  0.35654623632E+03 -0.26656393250E+03  0.33998745272E+03  0.58065882389E+03  0.15294330000E+03 0.  0.
<mgrwt>
<rscale>  0 0.69735904E+03</rscale>
<asrwt>0</asrwt>
<pdfrwt beam="1">  1        1 0.15731392E+00 0.79497909E+03</pdfrwt>
<pdfrwt beam="2">  1       -1 0.97761137E-01 0.79497909E+03</pdfrwt>
<totfact> 0.14948654E+01</totfact>
</mgrwt>
</event>
<event>
 4    2  0.3884658E-007  0.9564127E+03  0.7818608E-02  0.9440947E-01
         -1   -1    0    0    0  501 -0.00000000000E+00  0.00000000000E+00  0.41812038456E+03  0.41812038460E+03  0.50400000000E-02 0.  1.
          1   -1    0    0  501    0  0.00000000000E+00 -0.00000000000E+00 -0.22466790216E+04  0.22466790217E+04  0.50400000000E-02 0. -1.
    8880023    1    1    2    0    0 -0.11998508809E+03  0.68302175182E+03 -0.33916675467E+03  0.10147706285E+04  0.65864270000E+03 0.  1.
    8880022    1    1    2    0    0  0.11998508809E+03 -0.68302175182E+03 -0.14893918824E+04  0.16500287777E+04  0.15294330000E+03 0.  0.
<mgrwt>
<rscale>  0 0.88781171E+03</rscale>
<asrwt>0</asrwt>
<pdfrwt beam="1">  1        1 0.34564292E+00 0.95641275E+03</pdfrwt>
<pdfrwt beam="2">  1       -1 0.64326215E-01 0.95641275E+03</pdfrwt>
<totfact> 0.50640426E+00</totfact>
</mgrwt>
</event>
<event>
 4    2  0.3884658E-007  0.8414051E+03  0.7818608E-02  0.9627536E-01
         -1   -1    0    0    0  501 -0.00000000000E+00  0.00000000000E+00  0.48882262832E+03  0.48882262835E+03  0.50400000000E-02 0.  1.
          1   -1    0    0  501    0  0.00000000000E+00 -0.00000000000E+00 -0.99542011691E+03  0.99542011693E+03  0.50400000000E-02 0. -1.
    8880023    1    1    2    0    0  0.50998499956E+03  0.11860713680E+03 -0.22805131200E+03  0.87176255932E+03  0.65864270000E+03 0.  0.
    8880022    1    1    2    0    0 -0.50998499956E+03 -0.11860713680E+03 -0.27854617659E+03  0.61248018595E+03  0.15294330000E+03 0.  0.
<mgrwt>
<rscale>  0 0.75500140E+03</rscale>
<asrwt>0</asrwt>
<pdfrwt beam="1">  1        1 0.15314156E+00 0.84140511E+03</pdfrwt>
<pdfrwt beam="2">  1       -1 0.75203481E-01 0.84140511E+03</pdfrwt>
<totfact> 0.27597796E+01</totfact>
</mgrwt>
</event>
<event>
 4    2  0.3884658E-007  0.8459248E+03  0.7818608E-02  0.9619108E-01
          1   -1    0    0  501    0  0.00000000000E+00  0.00000000000E+00  0.19391998444E+04  0.19391998444E+04  0.50400000000E-02 0. -1.
         -1   -1    0    0    0  501 -0.00000000000E+00 -0.00000000000E+00 -0.35678952709E+03  0.35678952712E+03  0.50400000000E-02 0.  1.
    8880023    1    1    2    0    0 -0.29327317619E+03 -0.44245832465E+03  0.15206771235E+04  0.17401286289E+04  0.65864270000E+03 0.  0.
    8880022    1    1    2    0    0  0.29327317619E+03  0.44245832465E+03  0.61733193772E+02  0.55586074259E+03  0.15294330000E+03 0.  0.
<mgrwt>
<rscale>  0 0.76044283E+03</rscale>
<asrwt>0</asrwt>
<pdfrwt beam="1">  1        1 0.29833844E+00 0.84592478E+03</pdfrwt>
<pdfrwt beam="2">  1       -1 0.54890696E-01 0.84592478E+03</pdfrwt>
<totfact> 0.11318425E+01</totfact>
</mgrwt>
</event>
<event>
 4    2  0.3884658E-007  0.9799164E+03  0.7818608E-02  0.9408318E-01
          1   -1    0    0  501    0  0.00000000000E+00  0.00000000000E+00  0.27412440333E+04  0.27412440333E+04  0.50400000000E-02 0. -1.
         -1   -1    0    0    0  501 -0.00000000000E+00 -0.00000000000E+00 -0.36872787951E+03  0.36872787955E+03  0.50400000000E-02 0.  1.
    8880023    1    1    2    0    0  0.57564346039E+03 -0.44165667437E+03  0.21046203257E+04  0.23215647596E+04  0.65864270000E+03 0.  0.
    8880022    1    1    2    0    0 -0.57564346039E+03  0.44165667437E+03  0.26789582807E+03  0.78840715320E+03  0.15294330000E+03 0.  0.
<mgrwt>
<rscale>  0 0.91394301E+03</rscale>
<asrwt>0</asrwt>
<pdfrwt beam="1">  1        1 0.42172985E+00 0.97991643E+03</pdfrwt>
<pdfrwt beam="2">  1       -1 0.56727366E-01 0.97991643E+03</pdfrwt>
<totfact> 0.29613006E+00</totfact>
</mgrwt>
</event>
<event>
 4    2  0.3884658E-007  0.7667078E+03  0.7818608E-02  0.9788041E-01
         -1   -1    0    0    0  501 -0.00000000000E+00  0.00000000000E+00  0.41751850332E+03  0.41751850335E+03  0.50400000000E-02 0.  1.
          1   -1    0    0  501    0  0.00000000000E+00 -0.00000000000E+00 -0.12389983179E+04  0.12389983179E+04  0.50400000000E-02 0. -1.
    8880023    1    1    2    0    0 -0.18197762257E+03  0.34772806825E+03 -0.94561934510E+03  0.12173893447E+04  0.65864270000E+03 0. -1.
    8880022    1    1    2    0    0  0.18197762257E+03 -0.34772806825E+03  0.12413953054E+03  0.43912747651E+03  0.15294330000E+03 0.  0.
<mgrwt>
<rscale>  0 0.66008285E+03</rscale>
<asrwt>0</asrwt>
<pdfrwt beam="1">  1        1 0.19061512E+00 0.76670781E+03</pdfrwt>
<pdfrwt beam="2">  1       -1 0.64233616E-01 0.76670781E+03</pdfrwt>
<totfact> 0.25292983E+01</totfact>
</mgrwt>
</event>
<event>
 4    2  0.3884658E-007  0.8319510E+03  0.7818608E-02  0.9645548E-01
          1   -1    0    0  501    0  0.00000000000E+00  0.00000000000E+00  0.21902082509E+04  0.21902082509E+04  0.50400000000E-02 0. -1.
         -1   -1    0    0    0  501 -0.00000000000E+00 -0.00000000000E+00 -0.29897767471E+03  0.29897767475E+03  0.50400000000E-02 0.  1.
    8880023    1    1    2    0    0  0.92792435224E+02  0.49972173615E+03  0.17534678231E+04  0.19408224707E+04  0.65864270000E+03 0. -1.
    8880022    1    1    2    0    0 -0.92792435224E+02 -0.49972173615E+03  0.13776275304E+03  0.54836345498E+03  0.15294330000E+03 0.  0.
<mgrwt>
<rscale>  0 0.74353475E+03</rscale>
<asrwt>0</asrwt>
<pdfrwt beam="1">  1        1 0.33695510E+00 0.83195099E+03</pdfrwt>
<pdfrwt beam="2">  1       -1 0.45996568E-01 0.83195099E+03</pdfrwt>
<totfact> 0.10767091E+01</totfact>
</mgrwt>
</event>
<event>
 4    2  0.3884658E-007  0.1121853E+04  0.7818608E-02  0.9237107E-01
          1   -1    0    0  501    0  0.00000000000E+00  0.00000000000E+00  0.96426795151E+03  0.96426795152E+03  0.50400000000E-02 0. -1.
         -1   -1    0    0    0  501 -0.00000000000E+00 -0.00000000000E+00 -0.10988036714E+04  0.10988036715E+04  0.50400000000E-02 0.  1.
    8880023    1    1    2    0    0  0.40710597880E+03 -0.81179305312E+03  0.53505084345E+02  0.11231278820E+04  0.65864270000E+03 0.  0.
    8880022    1    1    2    0    0 -0.40710597880E+03  0.81179305312E+03 -0.18804080428E+03  0.93994374095E+03  0.15294330000E+03 0.  0.
<mgrwt>
<rscale>  0 0.10678494E+04</rscale>
<asrwt>0</asrwt>
<pdfrwt beam="1">  1        1 0.14834892E+00 0.11218527E+04</pdfrwt>
<pdfrwt beam="2">  1       -1 0.16904672E+00 0.11218527E+04</pdfrwt>
<totfact> 0.39953521E+00</totfact>
</mgrwt>
</event>
<event>
 4    2  0.3884658E-007  0.7392514E+03  0.7818608E-02  0.9862133E-01
          1   -1    0    0  501    0  0.00000000000E+00  0.00000000000E+00  0.82524943413E+03  0.82524943415E+03  0.50400000000E-02 0. -1.
         -1   -1    0    0    0  501 -0.00000000000E+00 -0.00000000000E+00 -0.78185838925E+03  0.78185838927E+03  0.50400000000E-02 0.  1.
    8880023    1    1    2    0    0 -0.11623634897E+03 -0.31491515865E+03  0.59126808196E+03  0.94662061935E+03  0.65864270000E+03 0. -1.
    8880022    1    1    2    0    0  0.11623634897E+03  0.31491515865E+03 -0.54787703708E+03  0.66048720407E+03  0.15294330000E+03 0.  0.
<mgrwt>
<rscale>  0 0.62132103E+03</rscale>
<asrwt>0</asrwt>
<pdfrwt beam="1">  1        1 0.12696145E+00 0.73925141E+03</pdfrwt>
<pdfrwt beam="2">  1       -1 0.12028591E+00 0.73925141E+03</pdfrwt>
<totfact> 0.13342714E+01</totfact>
</mgrwt>
</event>
<event>
 4    2  0.3884658E-007  0.7413282E+03  0.7818608E-02  0.9856095E-01
         -1   -1    0    0    0  501 -0.00000000000E+00  0.00000000000E+00  0.69986553404E+03  0.69986553406E+03  0.50400000000E-02 0.  1.
          1   -1    0    0  501    0  0.00000000000E+00 -0.00000000000E+00 -0.17210633169E+04  0.17210633169E+04  0.50400000000E-02 0. -1.
    8880023    1    1    2    0    0  0.34002956132E+03  0.11711922571E+02 -0.15821806505E+04  0.17472444274E+04  0.65864270000E+03 0. -1.
    8880022    1    1    2    0    0 -0.34002956132E+03 -0.11711922571E+02  0.56098286771E+03  0.67368442359E+03  0.15294330000E+03 0.  0.
<mgrwt>
<rscale>  0 0.62437121E+03</rscale>
<asrwt>0</asrwt>
<pdfrwt beam="1">  1        1 0.26477897E+00 0.74132819E+03</pdfrwt>
<pdfrwt beam="2">  1       -1 0.10767162E+00 0.74132819E+03</pdfrwt>
<totfact> 0.38792982E+00</totfact>
</mgrwt>
</event>
<event>
 4    2  0.3884658E-007  0.8877870E+03  0.7818608E-02  0.9545929E-01
         -1   -1    0    0    0  501 -0.00000000000E+00  0.00000000000E+00  0.29833794315E+04  0.29833794316E+04  0.50400000000E-02 0.  1.
          1   -1    0    0  501    0  0.00000000000E+00 -0.00000000000E+00 -0.25114103584E+03  0.25114103589E+03  0.50400000000E-02 0. -1.
    8880023    1    1    2    0    0 -0.12364270951E+03 -0.58229547738E+03  0.75975453833E+03  0.11685001957E+04  0.65864270000E+03 0. -1.
    8880022    1    1    2    0    0  0.12364270951E+03  0.58229547738E+03  0.19724838574E+04  0.20660202717E+04  0.15294330000E+03 0.  0.
<mgrwt>
<rscale>  0 0.80980740E+03</rscale>
<asrwt>0</asrwt>
<pdfrwt beam="1">  1        1 0.38637082E-01 0.88778700E+03</pdfrwt>
<pdfrwt beam="2">  1       -1 0.45898146E+00 0.88778700E+03</pdfrwt>
<totfact> 0.32389408E-01</totfact>
</mgrwt>
</event>
<event>
 4    2  0.3884658E-007  0.7670967E+03  0.7818608E-02  0.9787070E-01
         -1   -1    0    0    0  501 -0.00000000000E+00  0.00000000000E+00  0.31791531731E+03  0.31791531735E+03  0.50400000000E-02 0.  1.
          1   -1    0    0  501    0  0.00000000000E+00 -0.00000000000E+00 -0.21160502954E+04  0.21160502954E+04  0.50400000000E-02 0. -1.
    8880023    1    1    2    0    0  0.11079459760E+03 -0.37729515052E+03 -0.18558275859E+04  0.20081168562E+04  0.65864270000E+03 0.  0.
    8880022    1    1    2    0    0 -0.11079459760E+03  0.37729515052E+03  0.57692607763E+02  0.42584875657E+03  0.15294330000E+03 0.  0.
<mgrwt>
<rscale>  0 0.66061097E+03</rscale>
<asrwt>0</asrwt>
<pdfrwt beam="1">  1        1 0.32554619E+00 0.76709666E+03</pdfrwt>
<pdfrwt beam="2">  1       -1 0.48910050E-01 0.76709666E+03</pdfrwt>
<totfact> 0.10863326E+01</totfact>
</mgrwt>
</event>
<event>
 4    2  0.3884658E-007  0.1050167E+04  0.7818608E-02  0.9318681E-01
         -1   -1    0    0    0  501 -0.00000000000E+00  0.00000000000E+00  0.70283484136E+03  0.70283484138E+03  0.50400000000E-02 0.  1.
          1   -1    0    0  501    0  0.00000000000E+00 -0.00000000000E+00 -0.19609764687E+04  0.19609764687E+04  0.50400000000E-02 0. -1.
    8880023    1    1    2    0    0  0.62626409054E+03 -0.52614984265E+03 -0.14686361245E+04  0.18054757380E+04  0.65864270000E+03 0. -1.
    8880022    1    1    2    0    0 -0.62626409054E+03  0.52614984265E+03  0.21049449714E+03  0.85833557211E+03  0.15294330000E+03 0.  0.
<mgrwt>
<rscale>  0 0.99081117E+03</rscale>
<asrwt>0</asrwt>
<pdfrwt beam="1">  1        1 0.30168869E+00 0.10501669E+04</pdfrwt>
<pdfrwt beam="2">  1       -1 0.10812844E+00 0.10501669E+04</pdfrwt>
<totfact> 0.25264103E+00</totfact>
</mgrwt>
</event>
<event>
 4    2  0.3884658E-007  0.7599515E+03  0.7818608E-02  0.9805233E-01
          1   -1    0    0  501    0  0.00000000000E+00  0.00000000000E+00  0.10091442464E+04  0.10091442464E+04  0.50400000000E-02 0. -1.
         -1   -1    0    0    0  501 -0.00000000000E+00 -0.00000000000E+00 -0.58525704776E+03  0.58525704778E+03  0.50400000000E-02 0.  1.
    8880023    1    1    2    0    0  0.24211472758E+03  0.29171306850E+03  0.75282282697E+03  0.10697048522E+04  0.65864270000E+03 0. -1.
    8880022    1    1    2    0    0 -0.24211472758E+03 -0.29171306850E+03 -0.32893562835E+03  0.52469644201E+03  0.15294330000E+03 0.  1.
<mgrwt>
<rscale>  0 0.65082460E+03</rscale>
<asrwt>0</asrwt>
<pdfrwt beam="1">  1        1 0.15525296E+00 0.75995149E+03</pdfrwt>
<pdfrwt beam="2">  1       -1 0.90039546E-01 0.75995149E+03</pdfrwt>
<totfact> 0.18471215E+01</totfact>
</mgrwt>
</event>
<event>
 4    2  0.3884658E-007  0.7593910E+03  0.7818608E-02  0.9806687E-01
         -1   -1    0    0    0  501 -0.00000000000E+00  0.00000000000E+00  0.12573141057E+04  0.12573141057E+04  0.50400000000E-02 0.  1.
          1   -1    0    0  501    0  0.00000000000E+00 -0.00000000000E+00 -0.43762874561E+03  0.43762874564E+03  0.50400000000E-02 0. -1.
    8880023    1    1    2    0    0 -0.37761449718E+03  0.16483400675E+02 -0.21983308078E+02  0.75970907792E+03  0.65864270000E+03 0. -1.
    8880022    1    1    2    0    0  0.37761449718E+03 -0.16483400675E+02  0.84166866820E+03  0.93523377346E+03  0.15294330000E+03 0.  0.
<mgrwt>
<rscale>  0 0.65004923E+03</rscale>
<asrwt>0</asrwt>
<pdfrwt beam="1">  1        1 0.67327500E-01 0.75939095E+03</pdfrwt>
<pdfrwt beam="2">  1       -1 0.19343294E+00 0.75939095E+03</pdfrwt>
<totfact> 0.91609371E+00</totfact>
</mgrwt>
</event>
<event>
 4    2  0.3884658E-007  0.7196710E+03  0.7818608E-02  0.9923701E-01
          1   -1    0    0  501    0  0.00000000000E+00  0.00000000000E+00  0.24600896576E+04  0.24600896576E+04  0.50400000000E-02 0. -1.
         -1   -1    0    0    0  501 -0.00000000000E+00 -0.00000000000E+00 -0.22496889381E+03  0.22496889387E+03  0.50400000000E-02 0.  1.
    8880023    1    1    2    0    0  0.29001674944E+03  0.25416168505E+01  0.22444856403E+04  0.23570409777E+04  0.65864270000E+03 0.  0.
    8880022    1    1    2    0    0 -0.29001674944E+03 -0.25416168505E+01 -0.93648765175E+01  0.32801757377E+03  0.15294330000E+03 0.  0.
<mgrwt>
<rscale>  0 0.59126276E+03</rscale>
<asrwt>0</asrwt>
<pdfrwt beam="1">  1        1 0.37847533E+00 0.71967102E+03</pdfrwt>
<pdfrwt beam="2">  1       -1 0.34610599E-01 0.71967102E+03</pdfrwt>
<totfact> 0.12076759E+01</totfact>
</mgrwt>
</event>
<event>
 4    2  0.3924009E-007  0.7298421E+03  0.7818608E-02  0.9890590E-01
         -1   -1    0    0    0  501 -0.00000000000E+00  0.00000000000E+00  0.73925773298E+03  0.73925773299E+03  0.50400000000E-02 0.  1.
          1   -1    0    0  501    0  0.00000000000E+00 -0.00000000000E+00 -0.17956657811E+04  0.17956657811E+04  0.50400000000E-02 0. -1.
    8880023    1    1    2    0    0  0.31161445902E+03  0.41900944294E+02 -0.16734641579E+04  0.18256921302E+04  0.65864270000E+03 0. -1.
    8880022    1    1    2    0    0 -0.31161445902E+03 -0.41900944294E+02  0.61705610981E+03  0.70923138388E+03  0.15294330000E+03 0.  0.
<mgrwt>
<rscale>  0 0.60719500E+03</rscale>
<asrwt>0</asrwt>
<pdfrwt beam="1">  1        1 0.27625627E+00 0.72984208E+03</pdfrwt>
<pdfrwt beam="2">  1       -1 0.11373196E+00 0.72984208E+03</pdfrwt>
<totfact> 0.30442725E+00</totfact>
</mgrwt>
</event>
<event>
 4    2  0.3884658E-007  0.7074608E+03  0.7818608E-02  0.9967554E-01
         -1   -1    0    0    0  501 -0.00000000000E+00  0.00000000000E+00  0.23484948274E+03  0.23484948279E+03  0.50400000000E-02 0.  1.
          1   -1    0    0  501    0  0.00000000000E+00 -0.00000000000E+00 -0.17732332296E+04  0.17732332296E+04  0.50400000000E-02 0. -1.
    8880023    1    1    2    0    0 -0.89346455928E+02  0.24229693062E+03 -0.15540836800E+04  0.17075353240E+04  0.65864270000E+03 0. -1.
    8880022    1    1    2    0    0  0.89346455928E+02 -0.24229693062E+03  0.15699933171E+02  0.30054738843E+03  0.15294330000E+03 0.  0.
<mgrwt>
<rscale>  0 0.57096132E+03</rscale>
<asrwt>0</asrwt>
<pdfrwt beam="1">  1        1 0.27280510E+00 0.70746081E+03</pdfrwt>
<pdfrwt beam="2">  1       -1 0.36130691E-01 0.70746081E+03</pdfrwt>
<totfact> 0.32377667E+01</totfact>
</mgrwt>
</event>
<event>
 4    2  0.3884658E-007  0.8126956E+03  0.7818608E-02  0.9683989E-01
          1   -1    0    0  501    0  0.00000000000E+00  0.00000000000E+00  0.14274350525E+04  0.14274350525E+04  0.50400000000E-02 0. -1.
         -1   -1    0    0    0  501 -0.00000000000E+00 -0.00000000000E+00 -0.34047750686E+03  0.34047750689E+03  0.50400000000E-02 0.  1.
    8880023    1    1    2    0    0 -0.22454204688E+03 -0.41981519644E+03  0.94848450340E+03  0.12490384259E+04  0.65864270000E+03 0.  1.
    8880022    1    1    2    0    0  0.22454204688E+03  0.41981519644E+03  0.13847304228E+03  0.51887413352E+03  0.15294330000E+03 0.  0.
<mgrwt>
<rscale>  0 0.71978120E+03</rscale>
<asrwt>0</asrwt>
<pdfrwt beam="1">  1        1 0.21960539E+00 0.81269560E+03</pdfrwt>
<pdfrwt beam="2">  1       -1 0.52381155E-01 0.81269560E+03</pdfrwt>
<totfact> 0.27635765E+01</totfact>
</mgrwt>
</event>
<event>
 4    2  0.3884658E-007  0.7376519E+03  0.7818608E-02  0.9866840E-01
         -1   -1    0    0    0  501 -0.00000000000E+00  0.00000000000E+00  0.16514681976E+04  0.16514681976E+04  0.50400000000E-02 0.  1.
          1   -1    0    0  501    0  0.00000000000E+00 -0.00000000000E+00 -0.20233574361E+03  0.20233574368E+03  0.50400000000E-02 0. -1.
    8880023    1    1    2    0    0  0.32712236940E+03  0.57542008292E+02  0.12092378736E+04  0.14164697556E+04  0.65864270000E+03 0. -1.
    8880022    1    1    2    0    0 -0.32712236940E+03 -0.57542008292E+02  0.23989458042E+03  0.43733418573E+03  0.15294330000E+03 0.  0.
<mgrwt>
<rscale>  0 0.61895605E+03</rscale>
<asrwt>0</asrwt>
<pdfrwt beam="1">  1        1 0.31128576E-01 0.73765191E+03</pdfrwt>
<pdfrwt beam="2">  1       -1 0.25407203E+00 0.73765191E+03</pdfrwt>
<totfact> 0.99613555E+00</totfact>
</mgrwt>
</event>
<event>
 4    2  0.3884658E-007  0.7952003E+03  0.7818608E-02  0.9721272E-01
          1   -1    0    0  501    0  0.00000000000E+00  0.00000000000E+00  0.23493496600E+04  0.23493496600E+04  0.50400000000E-02 0. -1.
         -1   -1    0    0    0  501 -0.00000000000E+00 -0.00000000000E+00 -0.32690897020E+03  0.32690897024E+03  0.50400000000E-02 0.  1.
    8880023    1    1    2    0    0 -0.44550181936E+03 -0.78353237674E+01  0.20555544633E+04  0.22040071736E+04  0.65864270000E+03 0. -1.
    8880022    1    1    2    0    0  0.44550181936E+03  0.78353237674E+01 -0.33113773449E+02  0.47225145670E+03  0.15294330000E+03 0.  0.
<mgrwt>
<rscale>  0 0.69764285E+03</rscale>
<asrwt>0</asrwt>
<pdfrwt beam="1">  1        1 0.36143842E+00 0.79520027E+03</pdfrwt>
<pdfrwt beam="2">  1       -1 0.50293687E-01 0.79520027E+03</pdfrwt>
<totfact> 0.71464110E+00</totfact>
</mgrwt>
</event>
<event>
 4    2  0.3884658E-007  0.7241198E+03  0.7818608E-02  0.9908885E-01
         -1   -1    0    0    0  501 -0.00000000000E+00  0.00000000000E+00  0.35459142890E+03  0.35459142894E+03  0.50400000000E-02 0.  1.
          1   -1    0    0  501    0  0.00000000000E+00 -0.00000000000E+00 -0.16007433399E+04  0.16007433399E+04  0.50400000000E-02 0. -1.
    8880023    1    1    2    0    0  0.26574125981E+03  0.14114107145E+03 -0.14062640550E+04  0.15817484054E+04  0.65864270000E+03 0. -1.
    8880022    1    1    2    0    0 -0.26574125981E+03 -0.14114107145E+03  0.16011214409E+03  0.37358636340E+03  0.15294330000E+03 0.  0.
<mgrwt>
<rscale>  0 0.59832614E+03</rscale>
<asrwt>0</asrwt>
<pdfrwt beam="1">  1        1 0.24626820E+00 0.72411976E+03</pdfrwt>
<pdfrwt beam="2">  1       -1 0.54552528E-01 0.72411976E+03</pdfrwt>
<totfact> 0.19668533E+01</totfact>
</mgrwt>
</event>
<event>
 4    2  0.3884658E-007  0.7277115E+03  0.7818608E-02  0.9897307E-01
          1   -1    0    0  501    0  0.00000000000E+00  0.00000000000E+00  0.64244938496E+03  0.64244938498E+03  0.50400000000E-02 0. -1.
         -1   -1    0    0    0  501 -0.00000000000E+00 -0.00000000000E+00 -0.61610508264E+03  0.61610508266E+03  0.50400000000E-02 0.  1.
    8880023    1    1    2    0    0 -0.12703722588E+03  0.28216188468E+03  0.32979916858E+03  0.79895649680E+03  0.65864270000E+03 0.  0.
    8880022    1    1    2    0    0  0.12703722588E+03 -0.28216188468E+03 -0.30345486626E+03  0.45959797084E+03  0.15294330000E+03 0.  0.
<mgrwt>
<rscale>  0 0.60391956E+03</rscale>
<asrwt>0</asrwt>
<pdfrwt beam="1">  1        1 0.98838366E-01 0.72771148E+03</pdfrwt>
<pdfrwt beam="2">  1       -1 0.94785398E-01 0.72771148E+03</pdfrwt>
<totfact> 0.34223900E+01</totfact>
</mgrwt>
</event>
<event>
 4    2  0.3884658E-007  0.6700655E+03  0.7818608E-02  0.1015616E+00
          1   -1    0    0  501    0  0.00000000000E+00  0.00000000000E+00  0.94938966989E+03  0.94938966990E+03  0.50400000000E-02 0. -1.
         -1   -1    0    0    0  501 -0.00000000000E+00 -0.00000000000E+00 -0.19772121224E+03  0.19772121231E+03  0.50400000000E-02 0.  1.
    8880023    1    1    2    0    0  0.10742648181E+03 -0.60308009739E+02  0.57539150211E+03  0.88321180472E+03  0.65864270000E+03 0. -1.
    8880022    1    1    2    0    0 -0.10742648181E+03  0.60308009739E+02  0.17627695554E+03  0.26389907750E+03  0.15294330000E+03 0. -1.
<mgrwt>
<rscale>  0 0.49302386E+03</rscale>
<asrwt>0</asrwt>
<pdfrwt beam="1">  1        1 0.14605995E+00 0.67006545E+03</pdfrwt>
<pdfrwt beam="2">  1       -1 0.30418648E-01 0.67006545E+03</pdfrwt>
<totfact> 0.16862463E+02</totfact>
</mgrwt>
</event>
<event>
 4    2  0.3884658E-007  0.6981727E+03  0.7818608E-02  0.1000487E+00
          1   -1    0    0  501    0  0.00000000000E+00  0.00000000000E+00  0.48803879755E+03  0.48803879758E+03  0.50400000000E-02 0. -1.
         -1   -1    0    0    0  501 -0.00000000000E+00 -0.00000000000E+00 -0.11841194783E+04  0.11841194783E+04  0.50400000000E-02 0.  1.
    8880023    1    1    2    0    0 -0.22012368315E+03 -0.71975584760E+02  0.20633862749E+03  0.72802524417E+03  0.65864270000E+03 0. -1.
    8880022    1    1    2    0    0  0.22012368315E+03  0.71975584760E+02 -0.90241930824E+03  0.94413303172E+03  0.15294330000E+03 0.  0.
<mgrwt>
<rscale>  0 0.55437319E+03</rscale>
<asrwt>0</asrwt>
<pdfrwt beam="1">  1        1 0.75082893E-01 0.69817271E+03</pdfrwt>
<pdfrwt beam="2">  1       -1 0.18217223E+00 0.69817271E+03</pdfrwt>
<totfact> 0.95526053E+00</totfact>
</mgrwt>
</event>
<event>
 4    2  0.3884658E-007  0.7858415E+03  0.7818608E-02  0.9742290E-01
          1   -1    0    0  501    0  0.00000000000E+00  0.00000000000E+00  0.17108312147E+04  0.17108312147E+04  0.50400000000E-02 0. -1.
         -1   -1    0    0    0  501 -0.00000000000E+00 -0.00000000000E+00 -0.35134101560E+03  0.35134101563E+03  0.50400000000E-02 0.  1.
    8880023    1    1    2    0    0  0.49397123621E+02  0.42578944162E+03  0.13997764025E+04  0.16052790747E+04  0.65864270000E+03 0. -1.
    8880022    1    1    2    0    0 -0.49397123621E+02 -0.42578944162E+03 -0.40286203458E+02  0.45689315558E+03  0.15294330000E+03 0.  0.
<mgrwt>
<rscale>  0 0.68553746E+03</rscale>
<asrwt>0</asrwt>
<pdfrwt beam="1">  1        1 0.26320480E+00 0.78584154E+03</pdfrwt>
<pdfrwt beam="2">  1       -1 0.54052464E-01 0.78584154E+03</pdfrwt>
<totfact> 0.16730909E+01</totfact>
</mgrwt>
</event>
<event>
 4    2  0.3884658E-007  0.7064451E+03  0.7818608E-02  0.9971446E-01
          1   -1    0    0  501    0  0.00000000000E+00  0.00000000000E+00  0.22306254924E+03  0.22306254929E+03  0.50400000000E-02 0. -1.
         -1   -1    0    0    0  501 -0.00000000000E+00 -0.00000000000E+00 -0.30216231584E+04  0.30216231584E+04  0.50400000000E-02 0.  1.
    8880023    1    1    2    0    0  0.25512999004E+03 -0.12772379441E+02 -0.36911444162E+03  0.79706343711E+03  0.65864270000E+03 0. -1.
    8880022    1    1    2    0    0 -0.25512999004E+03  0.12772379441E+02 -0.24294461676E+04  0.24476222706E+04  0.15294330000E+03 0.  0.
<mgrwt>
<rscale>  0 0.56920179E+03</rscale>
<asrwt>0</asrwt>
<pdfrwt beam="1">  1        1 0.34317317E-01 0.70644508E+03</pdfrwt>
<pdfrwt beam="2">  1       -1 0.46486507E+00 0.70644508E+03</pdfrwt>
<totfact> 0.35545213E-01</totfact>
</mgrwt>
</event>
<event>
 4    2  0.3884658E-007  0.6768614E+03  0.7818608E-02  0.1011158E+00
          1   -1    0    0  501    0  0.00000000000E+00  0.00000000000E+00  0.11018224590E+04  0.11018224591E+04  0.50400000000E-02 0. -1.
         -1   -1    0    0    0  501 -0.00000000000E+00 -0.00000000000E+00 -0.23015352845E+04  0.23015352845E+04  0.50400000000E-02 0.  1.
    8880023    1    1    2    0    0 -0.67022695210E+02 -0.14085138439E+03  0.99192651291E+03  0.12008578465E+04  0.65864270000E+03 0. -1.
    8880022    1    1    2    0    0  0.67022695210E+02  0.14085138439E+03 -0.21916393383E+04  0.22024998970E+04  0.15294330000E+03 0.  0.
<mgrwt>
<rscale>  0 0.51017076E+03</rscale>
<asrwt>0</asrwt>
<pdfrwt beam="1">  1        1 0.16951115E+00 0.67686140E+03</pdfrwt>
<pdfrwt beam="2">  1       -1 0.35408235E+00 0.67686140E+03</pdfrwt>
<totfact> 0.20234245E-01</totfact>
</mgrwt>
</event>
<event>
 4    2  0.3884658E-007  0.1576385E+04  0.7818608E-02  0.8857500E-01
          1   -1    0    0  501    0  0.00000000000E+00  0.00000000000E+00  0.18843282857E+04  0.18843282857E+04  0.50400000000E-02 0. -1.
         -1   -1    0    0    0  501 -0.00000000000E+00 -0.00000000000E+00 -0.17732301579E+04  0.17732301579E+04  0.50400000000E-02 0.  1.
    8880023    1    1    2    0    0 -0.69011686596E+03 -0.12549578131E+04  0.10895825039E+04  0.19162934641E+04  0.65864270000E+03 0.  0.
    8880022    1    1    2    0    0  0.69011686596E+03  0.12549578131E+04 -0.97848437613E+03  0.17412649795E+04  0.15294330000E+03 0.  0.
<mgrwt>
<rscale>  0 0.15412137E+04</rscale>
<asrwt>0</asrwt>
<pdfrwt beam="1">  1        1 0.28989666E+00 0.15763853E+04</pdfrwt>
<pdfrwt beam="2">  1       -1 0.27280464E+00 0.15763853E+04</pdfrwt>
<totfact> 0.16541081E-01</totfact>
</mgrwt>
</event>
<event>
 4    2  0.3884658E-007  0.1033482E+04  0.7818608E-02  0.9339007E-01
         -1   -1    0    0    0  501 -0.00000000000E+00  0.00000000000E+00  0.12479460326E+04  0.12479460326E+04  0.50400000000E-02 0.  1.
          1   -1    0    0  501    0  0.00000000000E+00 -0.00000000000E+00 -0.11512492226E+04  0.11512492226E+04  0.50400000000E-02 0. -1.
    8880023    1    1    2    0    0 -0.69999522243E+03 -0.37984373710E+03 -0.71114998347E+03  0.12545194623E+04  0.65864270000E+03 0. -1.
    8880022    1    1    2    0    0  0.69999522243E+03  0.37984373710E+03  0.80784679347E+03  0.11446757929E+04  0.15294330000E+03 0.  0.
<mgrwt>
<rscale>  0 0.97269759E+03</rscale>
<asrwt>0</asrwt>
<pdfrwt beam="1">  1        1 0.17711526E+00 0.10334819E+04</pdfrwt>
<pdfrwt beam="2">  1       -1 0.19199170E+00 0.10334819E+04</pdfrwt>
<totfact> 0.19860855E+00</totfact>
</mgrwt>
</event>
<event>
 4    2  0.3884658E-007  0.9056841E+03  0.7818608E-02  0.9516968E-01
          1   -1    0    0  501    0  0.00000000000E+00  0.00000000000E+00  0.18837299009E+04  0.18837299009E+04  0.50400000000E-02 0. -1.
         -1   -1    0    0    0  501 -0.00000000000E+00 -0.00000000000E+00 -0.72345898763E+03  0.72345898765E+03  0.50400000000E-02 0.  1.
    8880023    1    1    2    0    0 -0.44008126260E+02  0.62009414312E+03  0.15944026691E+04  0.18336803262E+04  0.65864270000E+03 0. -1.
    8880022    1    1    2    0    0  0.44008126260E+02 -0.62009414312E+03 -0.43413175582E+03  0.77350856228E+03  0.15294330000E+03 0.  0.
<mgrwt>
<rscale>  0 0.83044337E+03</rscale>
<asrwt>0</asrwt>
<pdfrwt beam="1">  1        1 0.28980459E+00 0.90568409E+03</pdfrwt>
<pdfrwt beam="2">  1       -1 0.11130138E+00 0.90568409E+03</pdfrwt>
<totfact> 0.27147929E+00</totfact>
</mgrwt>
</event>
<event>
 4    2  0.3884658E-007  0.1086740E+04  0.7818608E-02  0.9275965E-01
         -1   -1    0    0    0  501 -0.00000000000E+00  0.00000000000E+00  0.78304950551E+03  0.78304950553E+03  0.50400000000E-02 0.  1.
          1   -1    0    0  501    0  0.00000000000E+00 -0.00000000000E+00 -0.19234587943E+04  0.19234587943E+04  0.50400000000E-02 0. -1.
    8880023    1    1    2    0    0  0.55560596700E+03  0.66218969425E+03 -0.14173544529E+04  0.17860282845E+04  0.65864270000E+03 0.  0.
    8880022    1    1    2    0    0 -0.55560596700E+03 -0.66218969425E+03  0.27694516407E+03  0.92048001534E+03  0.15294330000E+03 0.  0.
<mgrwt>
<rscale>  0 0.10302598E+04</rscale>
<asrwt>0</asrwt>
<pdfrwt beam="1">  1        1 0.29591674E+00 0.10867398E+04</pdfrwt>
<pdfrwt beam="2">  1       -1 0.12046916E+00 0.10867398E+04</pdfrwt>
<totfact> 0.20554747E+00</totfact>
</mgrwt>
</event>
<event>
 4    2  0.3884658E-007  0.7002566E+03  0.7818608E-02  0.9996138E-01
         -1   -1    0    0    0  501 -0.00000000000E+00  0.00000000000E+00  0.19261977507E+04  0.19261977507E+04  0.50400000000E-02 0.  1.
          1   -1    0    0  501    0  0.00000000000E+00 -0.00000000000E+00 -0.44765462400E+03  0.44765462403E+03  0.50400000000E-02 0. -1.
    8880023    1    1    2    0    0 -0.16963075533E+03 -0.16665701615E+03 -0.15401343837E+03  0.71699337490E+03  0.65864270000E+03 0. -1.
    8880022    1    1    2    0    0  0.16963075533E+03  0.16665701615E+03  0.16325565650E+04  0.16568589998E+04  0.15294330000E+03 0.  0.
<mgrwt>
<rscale>  0 0.55819892E+03</rscale>
<asrwt>0</asrwt>
<pdfrwt beam="1">  1        1 0.68869942E-01 0.70025664E+03</pdfrwt>
<pdfrwt beam="2">  1       -1 0.29633812E+00 0.70025664E+03</pdfrwt>
<totfact> 0.19078441E+00</totfact>
</mgrwt>
</event>
<event>
 4    2  0.3884658E-007  0.8804580E+03  0.7818608E-02  0.9558160E-01
         -1   -1    0    0    0  501 -0.00000000000E+00  0.00000000000E+00  0.81896223870E+03  0.81896223871E+03  0.50400000000E-02 0.  1.
          1   -1    0    0  501    0  0.00000000000E+00 -0.00000000000E+00 -0.20403593348E+04  0.20403593348E+04  0.50400000000E-02 0. -1.
    8880023    1    1    2    0    0 -0.58287364993E+03 -0.40674284691E+02 -0.18119930998E+04  0.20145781914E+04  0.65864270000E+03 0. -1.
    8880022    1    1    2    0    0  0.58287364993E+03  0.40674284691E+02  0.59059600364E+03  0.84474338219E+03  0.15294330000E+03 0.  0.
<mgrwt>
<rscale>  0 0.80128408E+03</rscale>
<asrwt>0</asrwt>
<pdfrwt beam="1">  1        1 0.31390143E+00 0.88045800E+03</pdfrwt>
<pdfrwt beam="2">  1       -1 0.12599419E+00 0.88045800E+03</pdfrwt>
<totfact> 0.15825634E+00</totfact>
</mgrwt>
</event>
<event>
 4    2  0.3884658E-007  0.6950301E+03  0.7818608E-02  0.1001848E+00
          1   -1    0    0  501    0  0.00000000000E+00  0.00000000000E+00  0.13424731823E+04  0.13424731823E+04  0.50400000000E-02 0. -1.
         -1   -1    0    0    0  501 -0.00000000000E+00 -0.00000000000E+00 -0.59559089181E+03  0.59559089183E+03  0.50400000000E-02 0.  1.
    8880023    1    1    2    0    0  0.20904513455E+03  0.74543690981E+02  0.12139321734E+04  0.13988202737E+04  0.65864270000E+03 0. -1.
    8880022    1    1    2    0    0 -0.20904513455E+03 -0.74543690981E+02 -0.46704988294E+03  0.53924380044E+03  0.15294330000E+03 0.  0.
<mgrwt>
<rscale>  0 0.54847379E+03</rscale>
<asrwt>0</asrwt>
<pdfrwt beam="1">  1        1 0.20653433E+00 0.69503010E+03</pdfrwt>
<pdfrwt beam="2">  1       -1 0.91629369E-01 0.69503010E+03</pdfrwt>
<totfact> 0.10233630E+01</totfact>
</mgrwt>
</event>
<event>
 4    2  0.3884658E-007  0.6857001E+03  0.7818608E-02  0.1006267E+00
          1   -1    0    0  501    0  0.00000000000E+00  0.00000000000E+00  0.28050906962E+04  0.28050906962E+04  0.50400000000E-02 0. -1.
         -1   -1    0    0    0  501 -0.00000000000E+00 -0.00000000000E+00 -0.58696050030E+03  0.58696050032E+03  0.50400000000E-02 0.  1.
    8880023    1    1    2    0    0 -0.19064244603E+03 -0.54717510736E+01  0.27353385574E+04  0.28199754808E+04  0.65864270000E+03 0. -1.
    8880022    1    1    2    0    0  0.19064244603E+03  0.54717510736E+01 -0.51720836152E+03  0.57207571574E+03  0.15294330000E+03 0.  0.
<mgrwt>
<rscale>  0 0.52985566E+03</rscale>
<asrwt>0</asrwt>
<pdfrwt beam="1">  1        1 0.43155241E+00 0.68570014E+03</pdfrwt>
<pdfrwt beam="2">  1       -1 0.90301617E-01 0.68570014E+03</pdfrwt>
<totfact> 0.10802353E+00</totfact>
</mgrwt>
</event>
<event>
 4    2  0.3884658E-007  0.7443849E+03  0.7818608E-02  0.9847353E-01
         -1   -1    0    0    0  501 -0.00000000000E+00  0.00000000000E+00  0.32435820634E+03  0.32435820638E+03  0.50400000000E-02 0.  1.
          1   -1    0    0  501    0  0.00000000000E+00 -0.00000000000E+00 -0.22896588237E+04  0.22896588237E+04  0.50400000000E-02 0. -1.
    8880023    1    1    2    0    0 -0.34169526916E+03  0.59523711118E+02 -0.20870927565E+04  0.22158666724E+04  0.65864270000E+03 0. -1.
    8880022    1    1    2    0    0  0.34169526916E+03 -0.59523711118E+02  0.12179213918E+03  0.39815035770E+03  0.15294330000E+03 0.  0.
<mgrwt>
<rscale>  0 0.62882043E+03</rscale>
<asrwt>0</asrwt>
<pdfrwt beam="1">  1        1 0.35225519E+00 0.74438494E+03</pdfrwt>
<pdfrwt beam="2">  1       -1 0.49901264E-01 0.74438494E+03</pdfrwt>
<totfact> 0.80251548E+00</totfact>
</mgrwt>
</event>
<event>
 4    2  0.3884658E-007  0.6649425E+03  0.7818608E-02  0.1019582E+00
         -1   -1    0    0    0  501 -0.00000000000E+00  0.00000000000E+00  0.35813876422E+03  0.35813876425E+03  0.50400000000E-02 0.  1.
          1   -1    0    0  501    0  0.00000000000E+00 -0.00000000000E+00 -0.14776871234E+04  0.14776871234E+04  0.50400000000E-02 0. -1.
    8880023    1    1    2    0    0 -0.76042130900E+02  0.50556384577E+02 -0.13732895576E+04  0.15258023361E+04  0.65864270000E+03 0. -1.
    8880022    1    1    2    0    0  0.76042130900E+02 -0.50556384577E+02  0.25374119843E+03  0.31002355151E+03  0.15294330000E+03 0.  0.
<mgrwt>
<rscale>  0 0.47837872E+03</rscale>
<asrwt>0</asrwt>
<pdfrwt beam="1">  1        1 0.22733648E+00 0.66494252E+03</pdfrwt>
<pdfrwt beam="2">  1       -1 0.55098272E-01 0.66494252E+03</pdfrwt>
<totfact> 0.23596206E+01</totfact>
</mgrwt>
</event>
<event>
 4    2  0.3884658E-007  0.1111047E+04  0.7818608E-02  0.9248855E-01
         -1   -1    0    0    0  501 -0.00000000000E+00  0.00000000000E+00  0.86165725842E+03  0.86165725843E+03  0.50400000000E-02 0.  1.
          1   -1    0    0  501    0  0.00000000000E+00 -0.00000000000E+00 -0.15321764654E+04  0.15321764654E+04  0.50400000000E-02 0. -1.
    8880023    1    1    2    0    0 -0.65869012955E+03 -0.60559258915E+03 -0.93089652884E+03  0.14494804671E+04  0.65864270000E+03 0. -1.
    8880022    1    1    2    0    0  0.65869012955E+03  0.60559258915E+03  0.26037732185E+03  0.94435325676E+03  0.15294330000E+03 0.  0.
<mgrwt>
<rscale>  0 0.10563082E+04</rscale>
<asrwt>0</asrwt>
<pdfrwt beam="1">  1        1 0.23571946E+00 0.11110469E+04</pdfrwt>
<pdfrwt beam="2">  1       -1 0.13256266E+00 0.11110469E+04</pdfrwt>
<totfact> 0.29749679E+00</totfact>
</mgrwt>
</event>
<event>
 4    2  0.3884658E-007  0.7049770E+03  0.7818608E-02  0.9977149E-01
         -1   -1    0    0    0  501 -0.00000000000E+00  0.00000000000E+00  0.71387730625E+03  0.71387730627E+03  0.50400000000E-02 0.  1.
          1   -1    0    0  501    0  0.00000000000E+00 -0.00000000000E+00 -0.44041636754E+03  0.44041636757E+03  0.50400000000E-02 0. -1.
    8880023    1    1    2    0    0  0.19326961849E+03 -0.16071490265E+03 -0.62452680297E+02  0.70773792388E+03  0.65864270000E+03 0.  0.
    8880022    1    1    2    0    0 -0.19326961849E+03  0.16071490265E+03  0.33591361901E+03  0.44655574995E+03  0.15294330000E+03 0.  0.
<mgrwt>
<rscale>  0 0.56663672E+03</rscale>
<asrwt>0</asrwt>
<pdfrwt beam="1">  1        1 0.67756365E-01 0.70497704E+03</pdfrwt>
<pdfrwt beam="2">  1       -1 0.10982728E+00 0.70497704E+03</pdfrwt>
<totfact> 0.41439335E+01</totfact>
</mgrwt>
</event>
<event>
 4    2  0.3884658E-007  0.7758060E+03  0.7818608E-02  0.9765783E-01
         -1   -1    0    0    0  501 -0.00000000000E+00  0.00000000000E+00  0.51104871902E+03  0.51104871905E+03  0.50400000000E-02 0.  1.
          1   -1    0    0  501    0  0.00000000000E+00 -0.00000000000E+00 -0.72290865233E+03  0.72290865235E+03  0.50400000000E-02 0. -1.
    8880023    1    1    2    0    0 -0.13972264642E+02 -0.40971879134E+03 -0.17155511590E+03  0.79454771802E+03  0.65864270000E+03 0. -1.
    8880022    1    1    2    0    0  0.13972264642E+02  0.40971879134E+03 -0.40304817413E+02  0.43940965338E+03  0.15294330000E+03 0.  1.
<mgrwt>
<rscale>  0 0.67231619E+03</rscale>
<asrwt>0</asrwt>
<pdfrwt beam="1">  1        1 0.11121672E+00 0.77580598E+03</pdfrwt>
<pdfrwt beam="2">  1       -1 0.78622880E-01 0.77580598E+03</pdfrwt>
<totfact> 0.42847559E+01</totfact>
</mgrwt>
</event>
<event>
 4    2  0.3884658E-007  0.8546739E+03  0.7818608E-02  0.9603109E-01
          1   -1    0    0  501    0  0.00000000000E+00  0.00000000000E+00  0.63850040076E+03  0.63850040078E+03  0.50400000000E-02 0. -1.
         -1   -1    0    0    0  501 -0.00000000000E+00 -0.00000000000E+00 -0.11857436568E+04  0.11857436568E+04  0.50400000000E-02 0.  1.
    8880023    1    1    2    0    0  0.31572537496E+03 -0.44381845706E+03  0.20895606871E+03  0.87984667990E+03  0.65864270000E+03 0.  0.
    8880022    1    1    2    0    0 -0.31572537496E+03  0.44381845706E+03 -0.75619932473E+03  0.94439737768E+03  0.15294330000E+03 0.  0.
<mgrwt>
<rscale>  0 0.77090774E+03</rscale>
<asrwt>0</asrwt>
<pdfrwt beam="1">  1        1 0.98230831E-01 0.85467394E+03</pdfrwt>
<pdfrwt beam="2">  1       -1 0.18242210E+00 0.85467394E+03</pdfrwt>
<totfact> 0.63769593E+00</totfact>
</mgrwt>
</event>
<event>
 4    2  0.3884658E-007  0.7034219E+03  0.7818608E-02  0.9983291E-01
         -1   -1    0    0    0  501 -0.00000000000E+00  0.00000000000E+00  0.36712050558E+03  0.36712050561E+03  0.50400000000E-02 0.  1.
          1   -1    0    0  501    0  0.00000000000E+00 -0.00000000000E+00 -0.69892139668E+03  0.69892139669E+03  0.50400000000E-02 0. -1.
    8880023    1    1    2    0    0 -0.13925707418E+03  0.20395985760E+03 -0.32650450301E+03  0.77550470854E+03  0.65864270000E+03 0.  0.
    8880022    1    1    2    0    0  0.13925707418E+03 -0.20395985760E+03 -0.52963880864E+01  0.29053719377E+03  0.15294330000E+03 0. -1.
<mgrwt>
<rscale>  0 0.56388988E+03</rscale>
<asrwt>0</asrwt>
<pdfrwt beam="1">  1        1 0.10752637E+00 0.70342190E+03</pdfrwt>
<pdfrwt beam="2">  1       -1 0.56480078E-01 0.70342190E+03</pdfrwt>
<totfact> 0.88611697E+01</totfact>
</mgrwt>
</event>
<event>
 4    2  0.3884658E-007  0.1064720E+04  0.7818608E-02  0.9301392E-01
          1   -1    0    0  501    0  0.00000000000E+00  0.00000000000E+00  0.13154638933E+04  0.13154638933E+04  0.50400000000E-02 0. -1.
         -1   -1    0    0    0  501 -0.00000000000E+00 -0.00000000000E+00 -0.16519941977E+04  0.16519941977E+04  0.50400000000E-02 0.  1.
    8880023    1    1    2    0    0 -0.75468538203E+03 -0.36092690513E+03  0.94888763220E+03  0.14261893989E+04  0.65864270000E+03 0.  0.
    8880022    1    1    2    0    0  0.75468538203E+03  0.36092690513E+03 -0.12854179366E+04  0.15412686921E+04  0.15294330000E+03 0.  0.
<mgrwt>
<rscale>  0 0.10065482E+04</rscale>
<asrwt>0</asrwt>
<pdfrwt beam="1">  1        1 0.20237906E+00 0.10647199E+04</pdfrwt>
<pdfrwt beam="2">  1       -1 0.25415295E+00 0.10647199E+04</pdfrwt>
<totfact> 0.57762676E-01</totfact>
</mgrwt>
</event>
<event>
 4    2  0.3884658E-007  0.7094216E+03  0.7818608E-02  0.9960155E-01
          1   -1    0    0  501    0  0.00000000000E+00  0.00000000000E+00  0.61790522133E+03  0.61790522135E+03  0.50400000000E-02 0. -1.
         -1   -1    0    0    0  501 -0.00000000000E+00 -0.00000000000E+00 -0.47764497290E+03  0.47764497293E+03  0.50400000000E-02 0.  1.
    8880023    1    1    2    0    0  0.22700748031E+03 -0.13392681618E+03 -0.87932406506E+02  0.71485040574E+03  0.65864270000E+03 0.  1.
    8880022    1    1    2    0    0 -0.22700748031E+03  0.13392681618E+03  0.22819265494E+03  0.38069978854E+03  0.15294330000E+03 0. -1.
<mgrwt>
<rscale>  0 0.57432424E+03</rscale>
<asrwt>0</asrwt>
<pdfrwt beam="1">  1        1 0.95062342E-01 0.70942159E+03</pdfrwt>
<pdfrwt beam="2">  1       -1 0.73483842E-01 0.70942159E+03</pdfrwt>
<totfact> 0.62711580E+01</totfact>
</mgrwt>
</event>
<event>
 4    2  0.3884658E-007  0.1113261E+04  0.7818608E-02  0.9246433E-01
          1   -1    0    0  501    0  0.00000000000E+00  0.00000000000E+00  0.13648393078E+04  0.13648393078E+04  0.50400000000E-02 0. -1.
         -1   -1    0    0    0  501 -0.00000000000E+00 -0.00000000000E+00 -0.10493512675E+04  0.10493512675E+04  0.50400000000E-02 0.  1.
    8880023    1    1    2    0    0 -0.18043235984E+03 -0.87919513473E+03  0.81126721942E+03  0.13774994116E+04  0.65864270000E+03 0.  0.
    8880022    1    1    2    0    0  0.18043235984E+03  0.87919513473E+03 -0.49577917912E+03  0.10366911637E+04  0.15294330000E+03 0.  0.
<mgrwt>
<rscale>  0 0.10586748E+04</rscale>
<asrwt>0</asrwt>
<pdfrwt beam="1">  1        1 0.20997528E+00 0.11132610E+04</pdfrwt>
<pdfrwt beam="2">  1       -1 0.16143866E+00 0.11132610E+04</pdfrwt>
<totfact> 0.22959957E+00</totfact>
</mgrwt>
</event>
<event>
 4    2  0.3884658E-007  0.6681627E+03  0.7818608E-02  0.1017016E+00
          1   -1    0    0  501    0  0.00000000000E+00  0.00000000000E+00  0.66262268232E+03  0.66262268234E+03  0.50400000000E-02 0. -1.
         -1   -1    0    0    0  501 -0.00000000000E+00 -0.00000000000E+00 -0.43084935858E+03  0.43084935861E+03  0.50400000000E-02 0.  1.
    8880023    1    1    2    0    0 -0.28872729540E+02  0.10861672365E+03  0.44899942111E+03  0.80501050527E+03  0.65864270000E+03 0. -1.
    8880022    1    1    2    0    0  0.28872729540E+02 -0.10861672365E+03 -0.21722609737E+03  0.28846153567E+03  0.15294330000E+03 0.  0.
<mgrwt>
<rscale>  0 0.48779123E+03</rscale>
<asrwt>0</asrwt>
<pdfrwt beam="1">  1        1 0.10194195E+00 0.66816273E+03</pdfrwt>
<pdfrwt beam="2">  1       -1 0.66284517E-01 0.66816273E+03</pdfrwt>
<totfact> 0.70139791E+01</totfact>
</mgrwt>
</event>
<event>
 4    2  0.3884658E-007  0.7954517E+03  0.7818608E-02  0.9720718E-01
          1   -1    0    0  501    0  0.00000000000E+00  0.00000000000E+00  0.16653047322E+04  0.16653047322E+04  0.50400000000E-02 0. -1.
         -1   -1    0    0    0  501 -0.00000000000E+00 -0.00000000000E+00 -0.33080949615E+03  0.33080949619E+03  0.50400000000E-02 0.  1.
    8880023    1    1    2    0    0 -0.13035703170E+03 -0.42654450497E+03  0.12990832287E+04  0.15232729932E+04  0.65864270000E+03 0.  0.
    8880022    1    1    2    0    0  0.13035703170E+03  0.42654450497E+03  0.35412007351E+02  0.47284123521E+03  0.15294330000E+03 0.  0.
<mgrwt>
<rscale>  0 0.69796533E+03</rscale>
<asrwt>0</asrwt>
<pdfrwt beam="1">  1        1 0.25620072E+00 0.79545168E+03</pdfrwt>
<pdfrwt beam="2">  1       -1 0.50893770E-01 0.79545168E+03</pdfrwt>
<totfact> 0.20125662E+01</totfact>
</mgrwt>
</event>
<event>
 4    2  0.3884658E-007  0.7278156E+03  0.7818608E-02  0.9896977E-01
          1   -1    0    0  501    0  0.00000000000E+00  0.00000000000E+00  0.21207466728E+04  0.21207466728E+04  0.50400000000E-02 0. -1.
         -1   -1    0    0    0  501 -0.00000000000E+00 -0.00000000000E+00 -0.16513015698E+03  0.16513015706E+03  0.50400000000E-02 0.  1.
    8880023    1    1    2    0    0 -0.23082553570E+03 -0.20645788701E+03  0.17203403864E+04  0.18679632058E+04  0.65864270000E+03 0. -1.
    8880022    1    1    2    0    0  0.23082553570E+03  0.20645788701E+03  0.23527612940E+03  0.41791362400E+03  0.15294330000E+03 0.  0.
<mgrwt>
<rscale>  0 0.60408029E+03</rscale>
<asrwt>0</asrwt>
<pdfrwt beam="1">  1        1 0.32626868E+00 0.72781556E+03</pdfrwt>
<pdfrwt beam="2">  1       -1 0.25404642E-01 0.72781556E+03</pdfrwt>
<totfact> 0.34982904E+01</totfact>
</mgrwt>
</event>
<event>
 4    2  0.3884658E-007  0.7749761E+03  0.7818608E-02  0.9767773E-01
          1   -1    0    0  501    0  0.00000000000E+00  0.00000000000E+00  0.58759068347E+03  0.58759068349E+03  0.50400000000E-02 0. -1.
         -1   -1    0    0    0  501 -0.00000000000E+00 -0.00000000000E+00 -0.74204796159E+03  0.74204796160E+03  0.50400000000E-02 0.  1.
    8880023    1    1    2    0    0  0.40092235225E+03  0.77710771396E+02  0.16086539483E+03  0.79149578523E+03  0.65864270000E+03 0. -1.
    8880022    1    1    2    0    0 -0.40092235225E+03 -0.77710771396E+02 -0.31532267295E+03  0.53814285986E+03  0.15294330000E+03 0.  0.
<mgrwt>
<rscale>  0 0.67121056E+03</rscale>
<asrwt>0</asrwt>
<pdfrwt beam="1">  1        1 0.90398567E-01 0.77497607E+03</pdfrwt>
<pdfrwt beam="2">  1       -1 0.11416122E+00 0.77497607E+03</pdfrwt>
<totfact> 0.25214006E+01</totfact>
</mgrwt>
</event>
<event>
 4    2  0.3884658E-007  0.8903190E+03  0.7818608E-02  0.9541755E-01
         -1   -1    0    0    0  501 -0.00000000000E+00  0.00000000000E+00  0.93779024681E+03  0.93779024682E+03  0.50400000000E-02 0.  1.
          1   -1    0    0  501    0  0.00000000000E+00 -0.00000000000E+00 -0.77190477631E+03  0.77190477632E+03  0.50400000000E-02 0. -1.
    8880023    1    1    2    0    0  0.34915126742E+03 -0.48677622501E+03  0.48508903901E+03  0.10138931318E+04  0.65864270000E+03 0.  1.
    8880022    1    1    2    0    0 -0.34915126742E+03  0.48677622501E+03 -0.31920356850E+03  0.69580189130E+03  0.15294330000E+03 0.  0.
<mgrwt>
<rscale>  0 0.81274176E+03</rscale>
<asrwt>0</asrwt>
<pdfrwt beam="1">  1        1 0.11875458E+00 0.89031899E+03</pdfrwt>
<pdfrwt beam="2">  1       -1 0.14427542E+00 0.89031899E+03</pdfrwt>
<totfact> 0.91895549E+00</totfact>
</mgrwt>
</event>
<event>
 4    2  0.3884658E-007  0.7196254E+03  0.7818608E-02  0.9923856E-01
          1   -1    0    0  501    0  0.00000000000E+00  0.00000000000E+00  0.74144075743E+03  0.74144075745E+03  0.50400000000E-02 0. -1.
         -1   -1    0    0    0  501 -0.00000000000E+00 -0.00000000000E+00 -0.38385745430E+03  0.38385745434E+03  0.50400000000E-02 0.  1.
    8880023    1    1    2    0    0  0.21982721288E+03 -0.18901437934E+03  0.34300458216E+03  0.79719055988E+03  0.65864270000E+03 0. -1.
    8880022    1    1    2    0    0 -0.21982721288E+03  0.18901437934E+03  0.14578720967E+02  0.32810765190E+03  0.15294330000E+03 0.  1.
<mgrwt>
<rscale>  0 0.59118941E+03</rscale>
<asrwt>0</asrwt>
<pdfrwt beam="1">  1        1 0.11406781E+00 0.71962535E+03</pdfrwt>
<pdfrwt beam="2">  1       -1 0.59054993E-01 0.71962535E+03</pdfrwt>
<totfact> 0.74130365E+01</totfact>
</mgrwt>
</event>
<event>
 4    2  0.3884658E-007  0.8537235E+03  0.7818608E-02  0.9604827E-01
         -1   -1    0    0    0  501 -0.00000000000E+00  0.00000000000E+00  0.18912820572E+04  0.18912820573E+04  0.50400000000E-02 0.  1.
          1   -1    0    0  501    0  0.00000000000E+00 -0.00000000000E+00 -0.27675306733E+03  0.27675306737E+03  0.50400000000E-02 0. -1.
    8880023    1    1    2    0    0  0.54203045171E+03 -0.35166031845E+02  0.11768622072E+04  0.14539080168E+04  0.65864270000E+03 0.  0.
    8880022    1    1    2    0    0 -0.54203045171E+03  0.35166031845E+02  0.43766678269E+03  0.71412710778E+03  0.15294330000E+03 0.  0.
<mgrwt>
<rscale>  0 0.76977515E+03</rscale>
<asrwt>0</asrwt>
<pdfrwt beam="1">  1        1 0.42577396E-01 0.85372353E+03</pdfrwt>
<pdfrwt beam="2">  1       -1 0.29096646E+00 0.85372353E+03</pdfrwt>
<totfact> 0.37950762E+00</totfact>
</mgrwt>
</event>
<event>
 4    2  0.3884658E-007  0.6689226E+03  0.7818608E-02  0.1016447E+00
         -1   -1    0    0    0  501 -0.00000000000E+00  0.00000000000E+00  0.71110776986E+03  0.71110776988E+03  0.50400000000E-02 0.  1.
          1   -1    0    0  501    0  0.00000000000E+00 -0.00000000000E+00 -0.14036496102E+04  0.14036496102E+04  0.50400000000E-02 0. -1.
    8880023    1    1    2    0    0 -0.25807324739E+02 -0.11393525280E+03 -0.13084269757E+04  0.14695028468E+04  0.65864270000E+03 0. -1.
    8880022    1    1    2    0    0  0.25807324739E+02  0.11393525280E+03  0.61588513531E+03  0.64525453331E+03  0.15294330000E+03 0.  0.
<mgrwt>
<rscale>  0 0.48990761E+03</rscale>
<asrwt>0</asrwt>
<pdfrwt beam="1">  1        1 0.21594609E+00 0.66892262E+03</pdfrwt>
<pdfrwt beam="2">  1       -1 0.10940120E+00 0.66892262E+03</pdfrwt>
<totfact> 0.62234005E+00</totfact>
</mgrwt>
</event>
<event>
 4    2  0.3884658E-007  0.8222029E+03  0.7818608E-02  0.9664698E-01
         -1   -1    0    0    0  501 -0.00000000000E+00  0.00000000000E+00  0.68855700104E+03  0.68855700106E+03  0.50400000000E-02 0.  1.
          1   -1    0    0  501    0  0.00000000000E+00 -0.00000000000E+00 -0.98295421290E+03  0.98295421292E+03  0.50400000000E-02 0. -1.
    8880023    1    1    2    0    0 -0.49191194196E+03 -0.15165376476E+02 -0.64769721209E+03  0.10466753232E+04  0.65864270000E+03 0.  0.
    8880022    1    1    2    0    0  0.49191194196E+03  0.15165376476E+02  0.35330000023E+03  0.62483589083E+03  0.15294330000E+03 0.  0.
<mgrwt>
<rscale>  0 0.73158121E+03</rscale>
<asrwt>0</asrwt>
<pdfrwt beam="1">  1        1 0.15122373E+00 0.82220287E+03</pdfrwt>
<pdfrwt beam="2">  1       -1 0.10593185E+00 0.82220287E+03</pdfrwt>
<totfact> 0.13297492E+01</totfact>
</mgrwt>
</event>
<event>
 4    2  0.3884658E-007  0.7029456E+03  0.7818608E-02  0.9985194E-01
         -1   -1    0    0    0  501 -0.00000000000E+00  0.00000000000E+00  0.73957664031E+03  0.73957664032E+03  0.50400000000E-02 0.  1.
          1   -1    0    0  501    0  0.00000000000E+00 -0.00000000000E+00 -0.45655289822E+03  0.45655289825E+03  0.50400000000E-02 0. -1.
    8880023    1    1    2    0    0 -0.20401118098E+03 -0.13675456997E+03 -0.10643443640E+03  0.71095771315E+03  0.65864270000E+03 0. -1.
    8880022    1    1    2    0    0  0.20401118098E+03  0.13675456997E+03  0.38945817849E+03  0.48517182542E+03  0.15294330000E+03 0.  0.
<mgrwt>
<rscale>  0 0.56304238E+03</rscale>
<asrwt>0</asrwt>
<pdfrwt beam="1">  1        1 0.70238907E-01 0.70294565E+03</pdfrwt>
<pdfrwt beam="2">  1       -1 0.11378102E+00 0.70294565E+03</pdfrwt>
<totfact> 0.36318382E+01</totfact>
</mgrwt>
</event>
<event>
 4    2  0.3884658E-007  0.1184208E+04  0.7818608E-02  0.9172628E-01
         -1   -1    0    0    0  501 -0.00000000000E+00  0.00000000000E+00  0.74134395757E+03  0.74134395759E+03  0.50400000000E-02 0.  1.
          1   -1    0    0  501    0  0.00000000000E+00 -0.00000000000E+00 -0.17361671010E+04  0.17361671010E+04  0.50400000000E-02 0. -1.
    8880023    1    1    2    0    0  0.70344721653E+03  0.68825969717E+03 -0.87911790049E+03  0.14748552086E+04  0.65864270000E+03 0.  0.
    8880022    1    1    2    0    0 -0.70344721653E+03 -0.68825969717E+03 -0.11570524293E+03  0.10026558500E+04  0.15294330000E+03 0. -1.
<mgrwt>
<rscale>  0 0.11340476E+04</rscale>
<asrwt>0</asrwt>
<pdfrwt beam="1">  1        1 0.26710263E+00 0.11842084E+04</pdfrwt>
<pdfrwt beam="2">  1       -1 0.11405292E+00 0.11842084E+04</pdfrwt>
<totfact> 0.31070181E+00</totfact>
</mgrwt>
</event>
<event>
 4    2  0.3884658E-007  0.6701729E+03  0.7818608E-02  0.1015539E+00
         -1   -1    0    0    0  501 -0.00000000000E+00  0.00000000000E+00  0.13624583855E+03  0.13624583865E+03  0.50400000000E-02 0.  1.
          1   -1    0    0  501    0  0.00000000000E+00 -0.00000000000E+00 -0.15620487685E+04  0.15620487685E+04  0.50400000000E-02 0. -1.
    8880023    1    1    2    0    0  0.32589947743E+02  0.11941290156E+03 -0.13060579596E+04  0.14679642863E+04  0.65864270000E+03 0. -1.
    8880022    1    1    2    0    0 -0.32589947743E+02 -0.11941290156E+03 -0.11974497028E+03  0.23033032079E+03  0.15294330000E+03 0.  0.
<mgrwt>
<rscale>  0 0.49331298E+03</rscale>
<asrwt>0</asrwt>
<pdfrwt beam="1">  1        1 0.24031518E+00 0.67017293E+03</pdfrwt>
<pdfrwt beam="2">  1       -1 0.20960899E-01 0.67017293E+03</pdfrwt>
<totfact> 0.11535955E+02</totfact>
</mgrwt>
</event>
<event>
 4    2  0.3884658E-007  0.7222153E+03  0.7818608E-02  0.9915160E-01
          1   -1    0    0  501    0  0.00000000000E+00  0.00000000000E+00  0.29710256443E+04  0.29710256443E+04  0.50400000000E-02 0. -1.
         -1   -1    0    0    0  501 -0.00000000000E+00 -0.00000000000E+00 -0.23966530994E+03  0.23966530999E+03  0.50400000000E-02 0.  1.
    8880023    1    1    2    0    0 -0.28230043613E+03  0.89951216170E+02  0.34363991893E+03  0.79980207406E+03  0.65864270000E+03 0.  1.
    8880022    1    1    2    0    0  0.28230043613E+03 -0.89951216170E+02  0.23877204155E+04  0.24108888803E+04  0.15294330000E+03 0.  0.
<mgrwt>
<rscale>  0 0.59532155E+03</rscale>
<asrwt>0</asrwt>
<pdfrwt beam="1">  1        1 0.45708089E+00 0.72221532E+03</pdfrwt>
<pdfrwt beam="2">  1       -1 0.36871584E-01 0.72221532E+03</pdfrwt>
<totfact> 0.47576745E+00</totfact>
</mgrwt>
</event>
<event>
 4    2  0.3884658E-007  0.9051625E+03  0.7818608E-02  0.9517794E-01
          1   -1    0    0  501    0  0.00000000000E+00  0.00000000000E+00  0.21760147165E+04  0.21760147165E+04  0.50400000000E-02 0. -1.
         -1   -1    0    0    0  501 -0.00000000000E+00 -0.00000000000E+00 -0.49035512275E+03  0.49035512278E+03  0.50400000000E-02 0.  1.
    8880023    1    1    2    0    0 -0.20262275861E+03  0.58690117414E+03  0.45885882608E+02  0.90632482643E+03  0.65864270000E+03 0.  1.
    8880022    1    1    2    0    0  0.20262275861E+03 -0.58690117414E+03  0.16397737111E+04  0.17600450128E+04  0.15294330000E+03 0.  0.
<mgrwt>
<rscale>  0 0.82984531E+03</rscale>
<asrwt>0</asrwt>
<pdfrwt beam="1">  1        1 0.33477150E+00 0.90516251E+03</pdfrwt>
<pdfrwt beam="2">  1       -1 0.75439248E-01 0.90516251E+03</pdfrwt>
<totfact> 0.41049057E+00</totfact>
</mgrwt>
</event>
<event>
 4    2  0.3884658E-007  0.6703657E+03  0.7818608E-02  0.1015402E+00
          1   -1    0    0  501    0  0.00000000000E+00  0.00000000000E+00  0.28024537133E+04  0.28024537133E+04  0.50400000000E-02 0. -1.
         -1   -1    0    0    0  501 -0.00000000000E+00 -0.00000000000E+00 -0.37238204188E+03  0.37238204192E+03  0.50400000000E-02 0.  1.
    8880023    1    1    2    0    0  0.94130112637E+02  0.81972194104E+02  0.27325826417E+04  0.28136094289E+04  0.65864270000E+03 0. -1.
    8880022    1    1    2    0    0 -0.94130112637E+02 -0.81972194104E+02 -0.30251097022E+03  0.36122632633E+03  0.15294330000E+03 0.  0.
<mgrwt>
<rscale>  0 0.49382982E+03</rscale>
<asrwt>0</asrwt>
<pdfrwt beam="1">  1        1 0.43114673E+00 0.67036567E+03</pdfrwt>
<pdfrwt beam="2">  1       -1 0.57289544E-01 0.67036567E+03</pdfrwt>
<totfact> 0.27827333E+00</totfact>
</mgrwt>
</event>
<event>
 4    2  0.3884658E-007  0.1042721E+04  0.7818608E-02  0.9327683E-01
         -1   -1    0    0    0  501 -0.00000000000E+00  0.00000000000E+00  0.52873571070E+03  0.52873571073E+03  0.50400000000E-02 0.  1.
          1   -1    0    0  501    0  0.00000000000E+00 -0.00000000000E+00 -0.17369734694E+04  0.17369734695E+04  0.50400000000E-02 0. -1.
    8880023    1    1    2    0    0 -0.78313081741E+03  0.20040767670E+03 -0.93007252939E+03  0.13972480919E+04  0.65864270000E+03 0.  0.
    8880022    1    1    2    0    0  0.78313081741E+03 -0.20040767670E+03 -0.27816522935E+03  0.86846108830E+03  0.15294330000E+03 0. -1.
<mgrwt>
<rscale>  0 0.98273762E+03</rscale>
<asrwt>0</asrwt>
<pdfrwt beam="1">  1        1 0.26722668E+00 0.10427211E+04</pdfrwt>
<pdfrwt beam="2">  1       -1 0.81343956E-01 0.10427211E+04</pdfrwt>
<totfact> 0.67905679E+00</totfact>
</mgrwt>
</event>
<event>
 4    2  0.3884658E-007  0.1014166E+04  0.7818608E-02  0.9363254E-01
          1   -1    0    0  501    0  0.00000000000E+00  0.00000000000E+00  0.19788672674E+04  0.19788672675E+04  0.50400000000E-02 0. -1.
         -1   -1    0    0    0  501 -0.00000000000E+00 -0.00000000000E+00 -0.68046488968E+03  0.68046488970E+03  0.50400000000E-02 0.  1.
    8880023    1    1    2    0    0 -0.73487106857E+03  0.23385224588E+03  0.15336892457E+04  0.18386775870E+04  0.65864270000E+03 0.  0.
    8880022    1    1    2    0    0  0.73487106857E+03 -0.23385224588E+03 -0.23528686791E+03  0.82065457017E+03  0.15294330000E+03 0.  0.
<mgrwt>
<rscale>  0 0.95162390E+03</rscale>
<asrwt>0</asrwt>
<pdfrwt beam="1">  1        1 0.30444112E+00 0.10141659E+04</pdfrwt>
<pdfrwt beam="2">  1       -1 0.10468691E+00 0.10141659E+04</pdfrwt>
<totfact> 0.26639267E+00</totfact>
</mgrwt>
</event>
<event>
 4    2  0.3884658E-007  0.7355823E+03  0.7818608E-02  0.9873007E-01
          1   -1    0    0  501    0  0.00000000000E+00  0.00000000000E+00  0.12494428255E+04  0.12494428255E+04  0.50400000000E-02 0. -1.
         -1   -1    0    0    0  501 -0.00000000000E+00 -0.00000000000E+00 -0.55626240994E+03  0.55626240996E+03  0.50400000000E-02 0.  1.
    8880023    1    1    2    0    0  0.32724095573E+03 -0.13581953420E+02  0.10603164216E+04  0.12904852703E+04  0.65864270000E+03 0. -1.
    8880022    1    1    2    0    0 -0.32724095573E+03  0.13581953420E+02 -0.36713600607E+03  0.51521996520E+03  0.15294330000E+03 0.  0.
<mgrwt>
<rscale>  0 0.61587480E+03</rscale>
<asrwt>0</asrwt>
<pdfrwt beam="1">  1        1 0.19222197E+00 0.73558230E+03</pdfrwt>
<pdfrwt beam="2">  1       -1 0.85578833E-01 0.73558230E+03</pdfrwt>
<totfact> 0.13742393E+01</totfact>
</mgrwt>
</event>
<event>
 4    2  0.3884658E-007  0.1051200E+04  0.7818608E-02  0.9317440E-01
          1   -1    0    0  501    0  0.00000000000E+00  0.00000000000E+00  0.15931077464E+04  0.15931077464E+04  0.50400000000E-02 0. -1.
         -1   -1    0    0    0  501 -0.00000000000E+00 -0.00000000000E+00 -0.81470274580E+03  0.81470274582E+03  0.50400000000E-02 0.  1.
    8880023    1    1    2    0    0 -0.27281404077E+03  0.77251823929E+03  0.10934806772E+04  0.15168131488E+04  0.65864270000E+03 0.  0.
    8880022    1    1    2    0    0  0.27281404077E+03 -0.77251823929E+03 -0.31507567660E+03  0.89099734336E+03  0.15294330000E+03 0.  0.
<mgrwt>
<rscale>  0 0.99193050E+03</rscale>
<asrwt>0</asrwt>
<pdfrwt beam="1">  1        1 0.24509350E+00 0.10512003E+04</pdfrwt>
<pdfrwt beam="2">  1       -1 0.12533888E+00 0.10512003E+04</pdfrwt>
<totfact> 0.31347300E+00</totfact>
</mgrwt>
</event>
<event>
 4    2  0.3884658E-007  0.6661526E+03  0.7818608E-02  0.1018585E+00
         -1   -1    0    0    0  501 -0.00000000000E+00  0.00000000000E+00  0.67516690339E+03  0.67516690341E+03  0.50400000000E-02 0.  1.
          1   -1    0    0  501    0  0.00000000000E+00 -0.00000000000E+00 -0.83730823525E+03  0.83730823526E+03  0.50400000000E-02 0. -1.
    8880023    1    1    2    0    0  0.68972916461E+02  0.72054215071E+02 -0.68689463444E+03  0.95686128472E+03  0.65864270000E+03 0. -1.
    8880022    1    1    2    0    0 -0.68972916461E+02 -0.72054215071E+02  0.52475330259E+03  0.55561385395E+03  0.15294330000E+03 0.  0.
<mgrwt>
<rscale>  0 0.48200570E+03</rscale>
<asrwt>0</asrwt>
<pdfrwt beam="1">  1        1 0.12881665E+00 0.66615259E+03</pdfrwt>
<pdfrwt beam="2">  1       -1 0.10387183E+00 0.66615259E+03</pdfrwt>
<totfact> 0.18625793E+01</totfact>
</mgrwt>
</event>
<event>
 4    2  0.3884658E-007  0.8589892E+03  0.7818608E-02  0.9595364E-01
         -1   -1    0    0    0  501 -0.00000000000E+00  0.00000000000E+00  0.12912181879E+04  0.12912181879E+04  0.50400000000E-02 0.  1.
          1   -1    0    0  501    0  0.00000000000E+00 -0.00000000000E+00 -0.46839559099E+03  0.46839559102E+03  0.50400000000E-02 0. -1.
    8880023    1    1    2    0    0 -0.11706710183E+02  0.55128508707E+03  0.14265558965E+03  0.87075433838E+03  0.65864270000E+03 0. -1.
    8880022    1    1    2    0    0  0.11706710183E+02 -0.55128508707E+03  0.68016700729E+03  0.88885944058E+03  0.15294330000E+03 0.  0.
<mgrwt>
<rscale>  0 0.77603786E+03</rscale>
<asrwt>0</asrwt>
<pdfrwt beam="1">  1        1 0.72060862E-01 0.85898923E+03</pdfrwt>
<pdfrwt beam="2">  1       -1 0.19864895E+00 0.85898923E+03</pdfrwt>
<totfact> 0.76012290E+00</totfact>
</mgrwt>
</event>
<event>
 4    2  0.3884658E-007  0.6685391E+03  0.7818608E-02  0.1016733E+00
          1   -1    0    0  501    0  0.00000000000E+00  0.00000000000E+00  0.18112132304E+04  0.18112132304E+04  0.50400000000E-02 0. -1.
         -1   -1    0    0    0  501 -0.00000000000E+00 -0.00000000000E+00 -0.18843732521E+03  0.18843732528E+03  0.50400000000E-02 0.  1.
    8880023    1    1    2    0    0 -0.40994966462E+01  0.11453167519E+03  0.16733489540E+04  0.18019548381E+04  0.65864270000E+03 0. -1.
    8880022    1    1    2    0    0  0.40994966462E+01 -0.11453167519E+03 -0.50573048753E+02  0.19769571763E+03  0.15294330000E+03 0.  0.
<mgrwt>
<rscale>  0 0.48884403E+03</rscale>
<asrwt>0</asrwt>
<pdfrwt beam="1">  1        1 0.27864819E+00 0.66853909E+03</pdfrwt>
<pdfrwt beam="2">  1       -1 0.28990358E-01 0.66853909E+03</pdfrwt>
<totfact> 0.45217135E+01</totfact>
</mgrwt>
</event>
<event>
 4    2  0.3884658E-007  0.7748705E+03  0.7818608E-02  0.9768027E-01
          1   -1    0    0  501    0  0.00000000000E+00  0.00000000000E+00  0.53753174817E+03  0.53753174819E+03  0.50400000000E-02 0. -1.
         -1   -1    0    0    0  501 -0.00000000000E+00 -0.00000000000E+00 -0.72382210219E+03  0.72382210220E+03  0.50400000000E-02 0.  1.
    8880023    1    1    2    0    0  0.21649084932E+03 -0.34604299725E+03  0.28534337087E+02  0.77539567863E+03  0.65864270000E+03 0.  0.
    8880022    1    1    2    0    0 -0.21649084932E+03  0.34604299725E+03 -0.21482469110E+03  0.48595817177E+03  0.15294330000E+03 0.  0.
<mgrwt>
<rscale>  0 0.67106975E+03</rscale>
<asrwt>0</asrwt>
<pdfrwt beam="1">  1        1 0.82697192E-01 0.77487047E+03</pdfrwt>
<pdfrwt beam="2">  1       -1 0.11135725E+00 0.77487047E+03</pdfrwt>
<totfact> 0.30341081E+01</totfact>
</mgrwt>
</event>
<event>
 4    2  0.3884658E-007  0.8279902E+03  0.7818608E-02  0.9653256E-01
          1   -1    0    0  501    0  0.00000000000E+00  0.00000000000E+00  0.10782239037E+04  0.10782239037E+04  0.50400000000E-02 0. -1.
         -1   -1    0    0    0  501 -0.00000000000E+00 -0.00000000000E+00 -0.59838276745E+03  0.59838276747E+03  0.50400000000E-02 0.  1.
    8880023    1    1    2    0    0 -0.35903366869E+03 -0.35050301998E+03  0.72227206443E+03  0.10987468697E+04  0.65864270000E+03 0. -1.
    8880022    1    1    2    0    0  0.35903366869E+03  0.35050301998E+03 -0.24243092818E+03  0.57785980153E+03  0.15294330000E+03 0.  1.
<mgrwt>
<rscale>  0 0.73869460E+03</rscale>
<asrwt>0</asrwt>
<pdfrwt beam="1">  1        1 0.16588060E+00 0.82799019E+03</pdfrwt>
<pdfrwt beam="2">  1       -1 0.92058888E-01 0.82799019E+03</pdfrwt>
<totfact> 0.15451953E+01</totfact>
</mgrwt>
</event>
<event>
 4    2  0.3884658E-007  0.6650773E+03  0.7818608E-02  0.1019469E+00
          1   -1    0    0  501    0  0.00000000000E+00  0.00000000000E+00  0.68475578000E+03  0.68475578002E+03  0.50400000000E-02 0. -1.
         -1   -1    0    0    0  501 -0.00000000000E+00 -0.00000000000E+00 -0.62217441704E+03  0.62217441706E+03  0.50400000000E-02 0.  1.
    8880023    1    1    2    0    0  0.85912287038E+02  0.33715304801E+02  0.50155831728E+03  0.83299975674E+03  0.65864270000E+03 0.  0.
    8880022    1    1    2    0    0 -0.85912287038E+02 -0.33715304801E+02 -0.43897695432E+03  0.47393044034E+03  0.15294330000E+03 0.  1.
<mgrwt>
<rscale>  0 0.47878855E+03</rscale>
<asrwt>0</asrwt>
<pdfrwt beam="1">  1        1 0.10534704E+00 0.66507733E+03</pdfrwt>
<pdfrwt beam="2">  1       -1 0.95719141E-01 0.66507733E+03</pdfrwt>
<totfact> 0.30669778E+01</totfact>
</mgrwt>
</event>
<event>
 4    2  0.3884658E-007  0.7559371E+03  0.7818608E-02  0.9815742E-01
          1   -1    0    0  501    0  0.00000000000E+00  0.00000000000E+00  0.27255806153E+04  0.27255806153E+04  0.50400000000E-02 0. -1.
         -1   -1    0    0    0  501 -0.00000000000E+00 -0.00000000000E+00 -0.30671084287E+03  0.30671084291E+03  0.50400000000E-02 0.  1.
    8880023    1    1    2    0    0 -0.34531095587E+03  0.13561357661E+03  0.25095208311E+04  0.26209036049E+04  0.65864270000E+03 0. -1.
    8880022    1    1    2    0    0  0.34531095587E+03 -0.13561357661E+03 -0.90651058632E+02  0.41138785331E+03  0.15294330000E+03 0.  0.
<mgrwt>
<rscale>  0 0.64524555E+03</rscale>
<asrwt>0</asrwt>
<pdfrwt beam="1">  1        1 0.41932009E+00 0.75593710E+03</pdfrwt>
<pdfrwt beam="2">  1       -1 0.47186284E-01 0.75593710E+03</pdfrwt>
<totfact> 0.44803149E+00</totfact>
</mgrwt>
</event>
<event>
 4    2  0.3884658E-007  0.6646074E+03  0.7818608E-02  0.1019865E+00
          1   -1    0    0  501    0  0.00000000000E+00  0.00000000000E+00  0.50781426343E+03  0.50781426346E+03  0.50400000000E-02 0. -1.
         -1   -1    0    0    0  501 -0.00000000000E+00 -0.00000000000E+00 -0.13416662683E+04  0.13416662683E+04  0.50400000000E-02 0.  1.
    8880023    1    1    2    0    0  0.11395317360E+02  0.88107458244E+02  0.28035676943E+03  0.72132024919E+03  0.65864270000E+03 0. -1.
    8880022    1    1    2    0    0 -0.11395317360E+02 -0.88107458244E+02 -0.11142087743E+04  0.11281602826E+04  0.15294330000E+03 0.  0.
<mgrwt>
<rscale>  0 0.47735327E+03</rscale>
<asrwt>0</asrwt>
<pdfrwt beam="1">  1        1 0.78125272E-01 0.66460739E+03</pdfrwt>
<pdfrwt beam="2">  1       -1 0.20641019E+00 0.66460739E+03</pdfrwt>
<totfact> 0.61838258E+00</totfact>
</mgrwt>
</event>
<event>
 4    2  0.3884658E-007  0.7414032E+03  0.7818608E-02  0.9855878E-01
          1   -1    0    0  501    0  0.00000000000E+00  0.00000000000E+00  0.83411910128E+03  0.83411910130E+03  0.50400000000E-02 0. -1.
         -1   -1    0    0    0  501 -0.00000000000E+00 -0.00000000000E+00 -0.49151896130E+03  0.49151896133E+03  0.50400000000E-02 0.  1.
    8880023    1    1    2    0    0 -0.57828099288E+02  0.33544660605E+03 -0.98433527756E+02  0.74790900531E+03  0.65864270000E+03 0.  1.
    8880022    1    1    2    0    0  0.57828099288E+02 -0.33544660605E+03  0.44103366773E+03  0.57772905731E+03  0.15294330000E+03 0.  0.
<mgrwt>
<rscale>  0 0.62448097E+03</rscale>
<asrwt>0</asrwt>
<pdfrwt beam="1">  1        1 0.12832601E+00 0.74140321E+03</pdfrwt>
<pdfrwt beam="2">  1       -1 0.75618302E-01 0.74140321E+03</pdfrwt>
<totfact> 0.37234568E+01</totfact>
</mgrwt>
</event>
<event>
 4    2  0.3884658E-007  0.8464710E+03  0.7818608E-02  0.9618097E-01
          1   -1    0    0  501    0  0.00000000000E+00  0.00000000000E+00  0.13171340402E+04  0.13171340402E+04  0.50400000000E-02 0. -1.
         -1   -1    0    0    0  501 -0.00000000000E+00 -0.00000000000E+00 -0.38856641123E+03  0.38856641126E+03  0.50400000000E-02 0.  1.
    8880023    1    1    2    0    0  0.36823915634E+03 -0.38353989088E+03  0.73036852866E+03  0.11180122173E+04  0.65864270000E+03 0.  0.
    8880022    1    1    2    0    0 -0.36823915634E+03  0.38353989088E+03  0.19819910028E+03  0.58768823412E+03  0.15294330000E+03 0.  0.
<mgrwt>
<rscale>  0 0.76109876E+03</rscale>
<asrwt>0</asrwt>
<pdfrwt beam="1">  1        1 0.20263601E+00 0.84647099E+03</pdfrwt>
<pdfrwt beam="2">  1       -1 0.59779447E-01 0.84647099E+03</pdfrwt>
<totfact> 0.25440602E+01</totfact>
</mgrwt>
</event>
<event>
 4    2  0.3884658E-007  0.8219328E+03  0.7818608E-02  0.9665237E-01
          1   -1    0    0  501    0  0.00000000000E+00  0.00000000000E+00  0.92374573682E+03  0.92374573683E+03  0.50400000000E-02 0. -1.
         -1   -1    0    0    0  501 -0.00000000000E+00 -0.00000000000E+00 -0.53194438832E+03  0.53194438834E+03  0.50400000000E-02 0.  1.
    8880023    1    1    2    0    0 -0.12823396153E+03  0.47467825715E+03  0.22898769311E+02  0.82225175986E+03  0.65864270000E+03 0. -1.
    8880022    1    1    2    0    0  0.12823396153E+03 -0.47467825715E+03  0.36890257919E+03  0.63343836531E+03  0.15294330000E+03 0.  0.
<mgrwt>
<rscale>  0 0.73124808E+03</rscale>
<asrwt>0</asrwt>
<pdfrwt beam="1">  1        1 0.14211473E+00 0.82193285E+03</pdfrwt>
<pdfrwt beam="2">  1       -1 0.81837598E-01 0.82193285E+03</pdfrwt>
<totfact> 0.26355196E+01</totfact>
</mgrwt>
</event>
<event>
 4    2  0.3884658E-007  0.7049004E+03  0.7818608E-02  0.9977449E-01
         -1   -1    0    0    0  501 -0.00000000000E+00  0.00000000000E+00  0.64213193350E+03  0.64213193352E+03  0.50400000000E-02 0.  1.
          1   -1    0    0  501    0  0.00000000000E+00 -0.00000000000E+00 -0.56909402325E+03  0.56909402327E+03  0.50400000000E-02 0. -1.
    8880023    1    1    2    0    0  0.37980491307E+02 -0.24825775474E+03 -0.27407199256E+03  0.75630687811E+03  0.65864270000E+03 0. -1.
    8880022    1    1    2    0    0 -0.37980491307E+02  0.24825775474E+03  0.34710990281E+03  0.45491907868E+03  0.15294330000E+03 0.  0.
<mgrwt>
<rscale>  0 0.56650215E+03</rscale>
<asrwt>0</asrwt>
<pdfrwt beam="1">  1        1 0.87552926E-01 0.70490044E+03</pdfrwt>
<pdfrwt beam="2">  1       -1 0.98789529E-01 0.70490044E+03</pdfrwt>
<totfact> 0.37215144E+01</totfact>
</mgrwt>
</event>
<event>
 4    2  0.3884658E-007  0.1209122E+04  0.7818608E-02  0.9148306E-01
          1   -1    0    0  501    0  0.00000000000E+00  0.00000000000E+00  0.96252927412E+03  0.96252927413E+03  0.50400000000E-02 0. -1.
         -1   -1    0    0    0  501 -0.00000000000E+00 -0.00000000000E+00 -0.20815467186E+04  0.20815467186E+04  0.50400000000E-02 0.  1.
    8880023    1    1    2    0    0 -0.42550070940E+03 -0.92038852222E+03  0.34433011246E+03  0.12571950199E+04  0.65864270000E+03 0. -1.
    8880022    1    1    2    0    0  0.42550070940E+03  0.92038852222E+03 -0.14633475569E+04  0.17868809728E+04  0.15294330000E+03 0.  0.
<mgrwt>
<rscale>  0 0.11603306E+04</rscale>
<asrwt>0</asrwt>
<pdfrwt beam="1">  1        1 0.14808143E+00 0.12091220E+04</pdfrwt>
<pdfrwt beam="2">  1       -1 0.32023796E+00 0.12091220E+04</pdfrwt>
<totfact> 0.38944612E-01</totfact>
</mgrwt>
</event>
<event>
 4    2  0.3884658E-007  0.1012193E+04  0.7818608E-02  0.9365777E-01
          1   -1    0    0  501    0  0.00000000000E+00  0.00000000000E+00  0.14691777837E+04  0.14691777837E+04  0.50400000000E-02 0. -1.
         -1   -1    0    0    0  501 -0.00000000000E+00 -0.00000000000E+00 -0.10072231859E+04  0.10072231859E+04  0.50400000000E-02 0.  1.
    8880023    1    1    2    0    0 -0.76824037000E+03  0.23036682360E+02 -0.58466080326E+03  0.11689150593E+04  0.65864270000E+03 0.  0.
    8880022    1    1    2    0    0  0.76824037000E+03 -0.23036682360E+02  0.10466154011E+04  0.13074859103E+04  0.15294330000E+03 0.  0.
<mgrwt>
<rscale>  0 0.94946439E+03</rscale>
<asrwt>0</asrwt>
<pdfrwt beam="1">  1        1 0.22602735E+00 0.10121927E+04</pdfrwt>
<pdfrwt beam="2">  1       -1 0.15495741E+00 0.10121927E+04</pdfrwt>
<totfact> 0.22029201E+00</totfact>
</mgrwt>
</event>
<event>
 4    2  0.3884658E-007  0.6594209E+03  0.7818608E-02  0.1024758E+00
          1   -1    0    0  501    0  0.00000000000E+00  0.00000000000E+00  0.64829222975E+03  0.64829222977E+03  0.50400000000E-02 0. -1.
         -1   -1    0    0    0  501 -0.00000000000E+00 -0.00000000000E+00 -0.49553922803E+03  0.49553922806E+03  0.50400000000E-02 0.  1.
    8880023    1    1    2    0    0 -0.90161915024E+01  0.30731676945E+02  0.45665933383E+03  0.80210577926E+03  0.65864270000E+03 0. -1.
    8880022    1    1    2    0    0  0.90161915024E+01 -0.30731676945E+02 -0.30390633212E+03  0.34172567857E+03  0.15294330000E+03 0.  0.
<mgrwt>
<rscale>  0 0.46008113E+03</rscale>
<asrwt>0</asrwt>
<pdfrwt beam="1">  1        1 0.99737266E-01 0.65942091E+03</pdfrwt>
<pdfrwt beam="2">  1       -1 0.76236805E-01 0.65942091E+03</pdfrwt>
<totfact> 0.54418351E+01</totfact>
</mgrwt>
</event>
<event>
 4    2  0.3884658E-007  0.1151275E+04  0.7818608E-02  0.9206006E-01
         -1   -1    0    0    0  501 -0.00000000000E+00  0.00000000000E+00  0.57164801808E+03  0.57164801811E+03  0.50400000000E-02 0.  1.
          1   -1    0    0  501    0  0.00000000000E+00 -0.00000000000E+00 -0.21448269514E+04  0.21448269514E+04  0.50400000000E-02 0. -1.
    8880023    1    1    2    0    0 -0.71886005132E+03  0.61226124100E+03 -0.43744247802E+03  0.12315801754E+04  0.65864270000E+03 0.  0.
    8880022    1    1    2    0    0  0.71886005132E+03 -0.61226124100E+03 -0.11357364553E+04  0.14848947941E+04  0.15294330000E+03 0.  0.
<mgrwt>
<rscale>  0 0.10991648E+04</rscale>
<asrwt>0</asrwt>
<pdfrwt beam="1">  1        1 0.32997337E+00 0.11512749E+04</pdfrwt>
<pdfrwt beam="2">  1       -1 0.87945850E-01 0.11512749E+04</pdfrwt>
<totfact> 0.30006890E+00</totfact>
</mgrwt>
</event>
<event>
 4    2  0.3884658E-007  0.7100516E+03  0.7818608E-02  0.9957809E-01
         -1   -1    0    0    0  501 -0.00000000000E+00  0.00000000000E+00  0.18401863032E+03  0.18401863039E+03  0.50400000000E-02 0.  1.
          1   -1    0    0  501    0  0.00000000000E+00 -0.00000000000E+00 -0.14185696404E+04  0.14185696404E+04  0.50400000000E-02 0. -1.
    8880023    1    1    2    0    0 -0.20323569984E+02 -0.26448074798E+03 -0.93686844959E+03  0.11755406465E+04  0.65864270000E+03 0.  0.
    8880022    1    1    2    0    0  0.20323569984E+02  0.26448074798E+03 -0.29768256046E+03  0.42704762424E+03  0.15294330000E+03 0.  0.
<mgrwt>
<rscale>  0 0.57539571E+03</rscale>
<asrwt>0</asrwt>
<pdfrwt beam="1">  1        1 0.21824148E+00 0.71005163E+03</pdfrwt>
<pdfrwt beam="2">  1       -1 0.28310559E-01 0.71005163E+03</pdfrwt>
<totfact> 0.86454370E+01</totfact>
</mgrwt>
</event>
<event>
 4    2  0.3884658E-007  0.8740564E+03  0.7818608E-02  0.9569033E-01
          1   -1    0    0  501    0  0.00000000000E+00  0.00000000000E+00  0.13910115326E+04  0.13910115326E+04  0.50400000000E-02 0. -1.
         -1   -1    0    0    0  501 -0.00000000000E+00 -0.00000000000E+00 -0.43852756342E+03  0.43852756345E+03  0.50400000000E-02 0.  1.
    8880023    1    1    2    0    0 -0.48591389473E+03  0.30667902958E+03  0.24982590035E+03  0.90905859384E+03  0.65864270000E+03 0.  0.
    8880022    1    1    2    0    0  0.48591389473E+03 -0.30667902958E+03  0.70265806886E+03  0.92048050225E+03  0.15294330000E+03 0.  0.
<mgrwt>
<rscale>  0 0.79380140E+03</rscale>
<asrwt>0</asrwt>
<pdfrwt beam="1">  1        1 0.21400178E+00 0.87405637E+03</pdfrwt>
<pdfrwt beam="2">  1       -1 0.67465779E-01 0.87405637E+03</pdfrwt>
<totfact> 0.17663727E+01</totfact>
</mgrwt>
</event>
<event>
 4    2  0.3884658E-007  0.8356852E+03  0.7818608E-02  0.9638370E-01
          1   -1    0    0  501    0  0.00000000000E+00  0.00000000000E+00  0.17194801278E+04  0.17194801278E+04  0.50400000000E-02 0. -1.
         -1   -1    0    0    0  501 -0.00000000000E+00 -0.00000000000E+00 -0.37472280550E+03  0.37472280554E+03  0.50400000000E-02 0.  1.
    8880023    1    1    2    0    0  0.44397575681E+03  0.25970187563E+03  0.13133398708E+04  0.15566731703E+04  0.65864270000E+03 0.  0.
    8880022    1    1    2    0    0 -0.44397575681E+03 -0.25970187563E+03  0.31417451526E+02  0.53752976300E+03  0.15294330000E+03 0.  0.
<mgrwt>
<rscale>  0 0.74807801E+03</rscale>
<asrwt>0</asrwt>
<pdfrwt beam="1">  1        1 0.26453541E+00 0.83568519E+03</pdfrwt>
<pdfrwt beam="2">  1       -1 0.57649662E-01 0.83568519E+03</pdfrwt>
<totfact> 0.14472612E+01</totfact>
</mgrwt>
</event>
<event>
 4    2  0.3884658E-007  0.7620403E+03  0.7818608E-02  0.9799854E-01
          1   -1    0    0  501    0  0.00000000000E+00  0.00000000000E+00  0.79417903800E+03  0.79417903801E+03  0.50400000000E-02 0. -1.
         -1   -1    0    0    0  501 -0.00000000000E+00 -0.00000000000E+00 -0.58349780192E+03  0.58349780194E+03  0.50400000000E-02 0.  1.
    8880023    1    1    2    0    0 -0.33033446242E+03 -0.19435621517E+03  0.46522517839E+03  0.89282689717E+03  0.65864270000E+03 0. -1.
    8880022    1    1    2    0    0  0.33033446242E+03  0.19435621517E+03 -0.25454394231E+03  0.48484994279E+03  0.15294330000E+03 0.  0.
<mgrwt>
<rscale>  0 0.65370392E+03</rscale>
<asrwt>0</asrwt>
<pdfrwt beam="1">  1        1 0.12218139E+00 0.76204029E+03</pdfrwt>
<pdfrwt beam="2">  1       -1 0.89768893E-01 0.76204029E+03</pdfrwt>
<totfact> 0.27843215E+01</totfact>
</mgrwt>
</event>
<event>
 4    2  0.3884658E-007  0.6748475E+03  0.7818608E-02  0.1012403E+00
          1   -1    0    0  501    0  0.00000000000E+00  0.00000000000E+00  0.56550058445E+03  0.56550058447E+03  0.50400000000E-02 0. -1.
         -1   -1    0    0    0  501 -0.00000000000E+00 -0.00000000000E+00 -0.40152659025E+03  0.40152659028E+03  0.50400000000E-02 0.  1.
    8880023    1    1    2    0    0  0.79032157135E+02  0.12394700871E+03  0.27364934487E+03  0.72821913806E+03  0.65864270000E+03 0. -1.
    8880022    1    1    2    0    0 -0.79032157135E+02 -0.12394700871E+03 -0.10967535067E+03  0.23880803669E+03  0.15294330000E+03 0.  0.
<mgrwt>
<rscale>  0 0.50530840E+03</rscale>
<asrwt>0</asrwt>
<pdfrwt beam="1">  1        1 0.87000090E-01 0.67484750E+03</pdfrwt>
<pdfrwt beam="2">  1       -1 0.61773321E-01 0.67484750E+03</pdfrwt>
<totfact> 0.10143759E+02</totfact>
</mgrwt>
</event>
<event>
 4    2  0.3884658E-007  0.7640270E+03  0.7818608E-02  0.9794791E-01
          1   -1    0    0  501    0  0.00000000000E+00  0.00000000000E+00  0.14237929671E+04  0.14237929671E+04  0.50400000000E-02 0. -1.
         -1   -1    0    0    0  501 -0.00000000000E+00 -0.00000000000E+00 -0.51479563040E+03  0.51479563042E+03  0.50400000000E-02 0.  1.
    8880023    1    1    2    0    0  0.96622484133E+02 -0.37495487978E+03  0.12056794868E+04  0.14273753176E+04  0.65864270000E+03 0. -1.
    8880022    1    1    2    0    0 -0.96622484133E+02  0.37495487978E+03 -0.29668215010E+03  0.51121327987E+03  0.15294330000E+03 0.  0.
<mgrwt>
<rscale>  0 0.65642818E+03</rscale>
<asrwt>0</asrwt>
<pdfrwt beam="1">  1        1 0.21904507E+00 0.76402701E+03</pdfrwt>
<pdfrwt beam="2">  1       -1 0.79199327E-01 0.76402701E+03</pdfrwt>
<totfact> 0.12186811E+01</totfact>
</mgrwt>
</event>
<event>
 4    2  0.3884658E-007  0.7047688E+03  0.7818608E-02  0.9977965E-01
          1   -1    0    0  501    0  0.00000000000E+00  0.00000000000E+00  0.54468039108E+03  0.54468039111E+03  0.50400000000E-02 0. -1.
         -1   -1    0    0    0  501 -0.00000000000E+00 -0.00000000000E+00 -0.15654247180E+04  0.15654247180E+04  0.50400000000E-02 0.  1.
    8880023    1    1    2    0    0  0.18363888121E+03  0.17077937287E+03  0.29349648546E+03  0.76343907820E+03  0.65864270000E+03 0. -1.
    8880022    1    1    2    0    0 -0.18363888121E+03 -0.17077937287E+03 -0.13142408124E+04  0.13466660309E+04  0.15294330000E+03 0.  0.
<mgrwt>
<rscale>  0 0.56627067E+03</rscale>
<asrwt>0</asrwt>
<pdfrwt beam="1">  1        1 0.83796984E-01 0.70476878E+03</pdfrwt>
<pdfrwt beam="2">  1       -1 0.24083457E+00 0.70476878E+03</pdfrwt>
<totfact> 0.33036907E+00</totfact>
</mgrwt>
</event>
<event>
 4    2  0.3884658E-007  0.6705891E+03  0.7818608E-02  0.1015244E+00
          1   -1    0    0  501    0  0.00000000000E+00  0.00000000000E+00  0.16088824018E+04  0.16088824018E+04  0.50400000000E-02 0. -1.
         -1   -1    0    0    0  501 -0.00000000000E+00 -0.00000000000E+00 -0.31070363943E+03  0.31070363947E+03  0.50400000000E-02 0.  1.
    8880023    1    1    2    0    0  0.12462111017E+03 -0.18684597963E+02  0.14960961956E+04  0.16395101610E+04  0.65864270000E+03 0. -1.
    8880022    1    1    2    0    0 -0.12462111017E+03  0.18684597963E+02 -0.19791743325E+03  0.28007588025E+03  0.15294330000E+03 0.  0.
<mgrwt>
<rscale>  0 0.49442637E+03</rscale>
<asrwt>0</asrwt>
<pdfrwt beam="1">  1        1 0.24752037E+00 0.67058910E+03</pdfrwt>
<pdfrwt beam="2">  1       -1 0.47800559E-01 0.67058910E+03</pdfrwt>
<totfact> 0.25153595E+01</totfact>
</mgrwt>
</event>
<event>
 4    2  0.3884658E-007  0.7037542E+03  0.7818608E-02  0.9981970E-01
         -1   -1    0    0    0  501 -0.00000000000E+00  0.00000000000E+00  0.29576131248E+03  0.29576131253E+03  0.50400000000E-02 0.  1.
          1   -1    0    0  501    0  0.00000000000E+00 -0.00000000000E+00 -0.99591762780E+03  0.99591762782E+03  0.50400000000E-02 0. -1.
    8880023    1    1    2    0    0 -0.22913690860E+03  0.94636392194E+02 -0.23333032975E+03  0.74142634068E+03  0.65864270000E+03 0.  1.
    8880022    1    1    2    0    0  0.22913690860E+03 -0.94636392194E+02 -0.46682598557E+03  0.55025259966E+03  0.15294330000E+03 0.  0.
<mgrwt>
<rscale>  0 0.56447946E+03</rscale>
<asrwt>0</asrwt>
<pdfrwt beam="1">  1        1 0.15321810E+00 0.70375420E+03</pdfrwt>
<pdfrwt beam="2">  1       -1 0.45501741E-01 0.70375420E+03</pdfrwt>
<totfact> 0.74990932E+01</totfact>
</mgrwt>
</event>
<event>
 4    2  0.3884658E-007  0.7390278E+03  0.7818608E-02  0.9862788E-01
         -1   -1    0    0    0  501 -0.00000000000E+00  0.00000000000E+00  0.16366997376E+04  0.16366997376E+04  0.50400000000E-02 0.  1.
          1   -1    0    0  501    0  0.00000000000E+00 -0.00000000000E+00 -0.33878850032E+03  0.33878850036E+03  0.50400000000E-02 0. -1.
    8880023    1    1    2    0    0 -0.43620330246E+02 -0.33233881049E+03  0.12940229524E+03  0.75027126991E+03  0.65864270000E+03 0. -1.
    8880022    1    1    2    0    0  0.43620330246E+02  0.33233881049E+03  0.11685089420E+04  0.12252169680E+04  0.15294330000E+03 0.  0.
<mgrwt>
<rscale>  0 0.62099118E+03</rscale>
<asrwt>0</asrwt>
<pdfrwt beam="1">  1        1 0.52121309E-01 0.73902776E+03</pdfrwt>
<pdfrwt beam="2">  1       -1 0.25179995E+00 0.73902776E+03</pdfrwt>
<totfact> 0.52805991E+00</totfact>
</mgrwt>
</event>
<event>
 4    2  0.3884658E-007  0.6951831E+03  0.7818608E-02  0.1001780E+00
          1   -1    0    0  501    0  0.00000000000E+00  0.00000000000E+00  0.23500982703E+04  0.23500982703E+04  0.50400000000E-02 0. -1.
         -1   -1    0    0    0  501 -0.00000000000E+00 -0.00000000000E+00 -0.43932773194E+03  0.43932773197E+03  0.50400000000E-02 0.  1.
    8880023    1    1    2    0    0 -0.20938178691E+03  0.75023584748E+02  0.22505525740E+04  0.23554758257E+04  0.65864270000E+03 0.  0.
    8880022    1    1    2    0    0  0.20938178691E+03 -0.75023584748E+02 -0.33978203565E+03  0.43395017654E+03  0.15294330000E+03 0.  1.
<mgrwt>
<rscale>  0 0.54876476E+03</rscale>
<asrwt>0</asrwt>
<pdfrwt beam="1">  1        1 0.36155358E+00 0.69518305E+03</pdfrwt>
<pdfrwt beam="2">  1       -1 0.67588882E-01 0.69518305E+03</pdfrwt>
<totfact> 0.40728850E+00</totfact>
</mgrwt>
</event>
<event>
 4    2  0.3884658E-007  0.1055543E+04  0.7818608E-02  0.9312247E-01
         -1   -1    0    0    0  501 -0.00000000000E+00  0.00000000000E+00  0.15222592084E+04  0.15222592084E+04  0.50400000000E-02 0.  1.
          1   -1    0    0  501    0  0.00000000000E+00 -0.00000000000E+00 -0.78199710548E+03  0.78199710549E+03  0.50400000000E-02 0. -1.
    8880023    1    1    2    0    0  0.29680815543E+03  0.76958843674E+03 -0.16690458743E+03  0.10686574712E+04  0.65864270000E+03 0. -1.
    8880022    1    1    2    0    0 -0.29680815543E+03 -0.76958843674E+03  0.90716669033E+03  0.12355988427E+04  0.15294330000E+03 0.  0.
<mgrwt>
<rscale>  0 0.99663143E+03</rscale>
<asrwt>0</asrwt>
<pdfrwt beam="1">  1        1 0.12030725E+00 0.10555433E+04</pdfrwt>
<pdfrwt beam="2">  1       -1 0.23419372E+00 0.10555433E+04</pdfrwt>
<totfact> 0.20293714E+00</totfact>
</mgrwt>
</event>
<event>
 4    2  0.3884658E-007  0.1313902E+04  0.7818608E-02  0.9053646E-01
          1   -1    0    0  501    0  0.00000000000E+00  0.00000000000E+00  0.30181794287E+04  0.30181794287E+04  0.50400000000E-02 0. -1.
         -1   -1    0    0    0  501 -0.00000000000E+00 -0.00000000000E+00 -0.11751220847E+04  0.11751220847E+04  0.50400000000E-02 0.  1.
    8880023    1    1    2    0    0 -0.10644888854E+04 -0.39923959836E+03  0.25338361155E+04  0.28542362394E+04  0.65864270000E+03 0. -1.
    8880022    1    1    2    0    0  0.10644888854E+04  0.39923959836E+03 -0.69077877150E+03  0.13390652740E+04  0.15294330000E+03 0.  0.
<mgrwt>
<rscale>  0 0.12700651E+04</rscale>
<asrwt>0</asrwt>
<pdfrwt beam="1">  1        1 0.46433530E+00 0.13139022E+04</pdfrwt>
<pdfrwt beam="2">  1       -1 0.18078801E+00 0.13139022E+04</pdfrwt>
<totfact> 0.11602070E-01</totfact>
</mgrwt>
</event>
<event>
 4    2  0.3884658E-007  0.7068704E+03  0.7818608E-02  0.9969811E-01
          1   -1    0    0  501    0  0.00000000000E+00  0.00000000000E+00  0.23443021155E+04  0.23443021155E+04  0.50400000000E-02 0. -1.
         -1   -1    0    0    0  501 -0.00000000000E+00 -0.00000000000E+00 -0.11076715073E+03  0.11076715085E+03  0.50400000000E-02 0.  1.
    8880023    1    1    2    0    0 -0.25586262523E+02  0.25534460818E+03  0.17408241038E+04  0.18788651608E+04  0.65864270000E+03 0.  0.
    8880022    1    1    2    0    0  0.25586262523E+02 -0.25534460818E+03  0.49271086096E+03  0.57620410557E+03  0.15294330000E+03 0.  0.
<mgrwt>
<rscale>  0 0.56994001E+03</rscale>
<asrwt>0</asrwt>
<pdfrwt beam="1">  1        1 0.36066183E+00 0.70687038E+03</pdfrwt>
<pdfrwt beam="2">  1       -1 0.17041102E-01 0.70687038E+03</pdfrwt>
<totfact> 0.48409402E+01</totfact>
</mgrwt>
</event>
<event>
 4    2  0.3884658E-007  0.7669941E+03  0.7818608E-02  0.9787326E-01
         -1   -1    0    0    0  501 -0.00000000000E+00  0.00000000000E+00  0.63600304343E+03  0.63600304345E+03  0.50400000000E-02 0.  1.
          1   -1    0    0  501    0  0.00000000000E+00 -0.00000000000E+00 -0.12148560745E+04  0.12148560745E+04  0.50400000000E-02 0. -1.
    8880023    1    1    2    0    0  0.29884260667E+03 -0.25526999034E+03 -0.99638251719E+03  0.12574012877E+04  0.65864270000E+03 0.  0.
    8880022    1    1    2    0    0 -0.29884260667E+03  0.25526999034E+03  0.41752948610E+03  0.59345783027E+03  0.15294330000E+03 0.  1.
<mgrwt>
<rscale>  0 0.66047166E+03</rscale>
<asrwt>0</asrwt>
<pdfrwt beam="1">  1        1 0.18690093E+00 0.76699405E+03</pdfrwt>
<pdfrwt beam="2">  1       -1 0.97846622E-01 0.76699405E+03</pdfrwt>
<totfact> 0.10772653E+01</totfact>
</mgrwt>
</event>
<event>
 4    2  0.3884658E-007  0.7451455E+03  0.7818608E-02  0.9845204E-01
         -1   -1    0    0    0  501 -0.00000000000E+00  0.00000000000E+00  0.30152776730E+03  0.30152776734E+03  0.50400000000E-02 0.  1.
          1   -1    0    0  501    0  0.00000000000E+00 -0.00000000000E+00 -0.12142130873E+04  0.12142130873E+04  0.50400000000E-02 0. -1.
    8880023    1    1    2    0    0 -0.34806794584E+03  0.16741165757E+02 -0.84946281358E+03  0.11299685126E+04  0.65864270000E+03 0.  0.
    8880022    1    1    2    0    0  0.34806794584E+03 -0.16741165757E+02 -0.63222506410E+02  0.38577234204E+03  0.15294330000E+03 0. -1.
<mgrwt>
<rscale>  0 0.62992025E+03</rscale>
<asrwt>0</asrwt>
<pdfrwt beam="1">  1        1 0.18680201E+00 0.74514547E+03</pdfrwt>
<pdfrwt beam="2">  1       -1 0.46388888E-01 0.74514547E+03</pdfrwt>
<totfact> 0.49528549E+01</totfact>
</mgrwt>
</event>
<event>
 4    2  0.3884658E-007  0.1086030E+04  0.7818608E-02  0.9276772E-01
         -1   -1    0    0    0  501 -0.00000000000E+00  0.00000000000E+00  0.54931739530E+03  0.54931739533E+03  0.50400000000E-02 0.  1.
          1   -1    0    0  501    0  0.00000000000E+00 -0.00000000000E+00 -0.27931131099E+04  0.27931131099E+04  0.50400000000E-02 0. -1.
    8880023    1    1    2    0    0 -0.33148121575E+03  0.79735257679E+03 -0.22127872194E+04  0.24649317258E+04  0.65864270000E+03 0. -1.
    8880022    1    1    2    0    0  0.33148121575E+03 -0.79735257679E+03 -0.31008495162E+02  0.87749877943E+03  0.15294330000E+03 0.  0.
<mgrwt>
<rscale>  0 0.10294972E+04</rscale>
<asrwt>0</asrwt>
<pdfrwt beam="1">  1        1 0.42970970E+00 0.10860300E+04</pdfrwt>
<pdfrwt beam="2">  1       -1 0.84510370E-01 0.10860300E+04</pdfrwt>
<totfact> 0.11809604E+00</totfact>
</mgrwt>
</event>
<event>
 4    2  0.3884658E-007  0.8980119E+03  0.7818608E-02  0.9529231E-01
         -1   -1    0    0    0  501 -0.00000000000E+00  0.00000000000E+00  0.55683603252E+03  0.55683603255E+03  0.50400000000E-02 0.  1.
          1   -1    0    0  501    0  0.00000000000E+00 -0.00000000000E+00 -0.18744931381E+04  0.18744931381E+04  0.50400000000E-02 0. -1.
    8880023    1    1    2    0    0 -0.51669194671E+03  0.32503028296E+03 -0.15241481583E+04  0.17690260222E+04  0.65864270000E+03 0.  0.
    8880022    1    1    2    0    0  0.51669194671E+03 -0.32503028296E+03  0.20649105266E+03  0.66230314847E+03  0.15294330000E+03 0.  0.
<mgrwt>
<rscale>  0 0.82162649E+03</rscale>
<asrwt>0</asrwt>
<pdfrwt beam="1">  1        1 0.28838356E+00 0.89801195E+03</pdfrwt>
<pdfrwt beam="2">  1       -1 0.85667082E-01 0.89801195E+03</pdfrwt>
<totfact> 0.49958089E+00</totfact>
</mgrwt>
</event>
<event>
 4    2  0.3884658E-007  0.7795364E+03  0.7818608E-02  0.9756927E-01
          1   -1    0    0  501    0  0.00000000000E+00  0.00000000000E+00  0.14219015947E+04  0.14219015947E+04  0.50400000000E-02 0. -1.
         -1   -1    0    0    0  501 -0.00000000000E+00 -0.00000000000E+00 -0.31421176277E+03  0.31421176281E+03  0.50400000000E-02 0.  1.
    8880023    1    1    2    0    0 -0.48111730397E+02  0.41418849148E+03  0.10193784037E+04  0.12832807103E+04  0.65864270000E+03 0.  0.
    8880022    1    1    2    0    0  0.48111730397E+02 -0.41418849148E+03  0.88311428223E+02  0.45283264728E+03  0.15294330000E+03 0.  0.
<mgrwt>
<rscale>  0 0.67726211E+03</rscale>
<asrwt>0</asrwt>
<pdfrwt beam="1">  1        1 0.21875409E+00 0.77953643E+03</pdfrwt>
<pdfrwt beam="2">  1       -1 0.48340272E-01 0.77953643E+03</pdfrwt>
<totfact> 0.32593994E+01</totfact>
</mgrwt>
</event>
<event>
 4    2  0.3884658E-007  0.6929977E+03  0.7818608E-02  0.1002759E+00
         -1   -1    0    0    0  501 -0.00000000000E+00  0.00000000000E+00  0.63153200839E+03  0.63153200841E+03  0.50400000000E-02 0.  1.
          1   -1    0    0  501    0  0.00000000000E+00 -0.00000000000E+00 -0.56756328600E+03  0.56756328602E+03  0.50400000000E-02 0. -1.
    8880023    1    1    2    0    0 -0.21546503173E+03 -0.32375015035E+01 -0.29514995062E+03  0.75323260745E+03  0.65864270000E+03 0. -1.
    8880022    1    1    2    0    0  0.21546503173E+03  0.32375015035E+01  0.35911867302E+03  0.44586268698E+03  0.15294330000E+03 0.  0.
<mgrwt>
<rscale>  0 0.54456789E+03</rscale>
<asrwt>0</asrwt>
<pdfrwt beam="1">  1        1 0.87317429E-01 0.69299774E+03</pdfrwt>
<pdfrwt beam="2">  1       -1 0.97158770E-01 0.69299774E+03</pdfrwt>
<totfact> 0.38834805E+01</totfact>
</mgrwt>
</event>
<event>
 4    2  0.3884658E-007  0.7517660E+03  0.7818608E-02  0.9826910E-01
         -1   -1    0    0    0  501 -0.00000000000E+00  0.00000000000E+00  0.68093453205E+03  0.68093453206E+03  0.50400000000E-02 0.  1.
          1   -1    0    0  501    0  0.00000000000E+00 -0.00000000000E+00 -0.72731531111E+03  0.72731531113E+03  0.50400000000E-02 0. -1.
    8880023    1    1    2    0    0  0.31185941093E+03  0.18462303150E+03 -0.42389692741E+03  0.86304157911E+03  0.65864270000E+03 0. -1.
    8880022    1    1    2    0    0 -0.31185941093E+03 -0.18462303150E+03  0.37751614835E+03  0.54520826408E+03  0.15294330000E+03 0.  0.
<mgrwt>
<rscale>  0 0.63938156E+03</rscale>
<asrwt>0</asrwt>
<pdfrwt beam="1">  1        1 0.11189466E+00 0.75176603E+03</pdfrwt>
<pdfrwt beam="2">  1       -1 0.10475916E+00 0.75176603E+03</pdfrwt>
<totfact> 0.22566931E+01</totfact>
</mgrwt>
</event>
<event>
 4    2  0.3884658E-007  0.7590007E+03  0.7818608E-02  0.9807701E-01
          1   -1    0    0  501    0  0.00000000000E+00  0.00000000000E+00  0.62670914269E+03  0.62670914271E+03  0.50400000000E-02 0. -1.
         -1   -1    0    0    0  501 -0.00000000000E+00 -0.00000000000E+00 -0.19705910885E+04  0.19705910885E+04  0.50400000000E-02 0.  1.
    8880023    1    1    2    0    0 -0.15173451605E+03 -0.34532374520E+03  0.36387015449E+03  0.84171464758E+03  0.65864270000E+03 0. -1.
    8880022    1    1    2    0    0  0.15173451605E+03  0.34532374520E+03 -0.17077521003E+04  0.17555855836E+04  0.15294330000E+03 0.  0.
<mgrwt>
<rscale>  0 0.64950872E+03</rscale>
<asrwt>0</asrwt>
<pdfrwt beam="1">  1        1 0.96416792E-01 0.75900070E+03</pdfrwt>
<pdfrwt beam="2">  1       -1 0.30316786E+00 0.75900070E+03</pdfrwt>
<totfact> 0.10676142E+00</totfact>
</mgrwt>
</event>
<event>
 4    2  0.3884658E-007  0.9681780E+03  0.7818608E-02  0.9424429E-01
         -1   -1    0    0    0  501 -0.00000000000E+00  0.00000000000E+00  0.31885440176E+03  0.31885440180E+03  0.50400000000E-02 0.  1.
          1   -1    0    0  501    0  0.00000000000E+00 -0.00000000000E+00 -0.22777365096E+04  0.22777365097E+04  0.50400000000E-02 0. -1.
    8880023    1    1    2    0    0  0.67437599252E+03  0.22085151442E+03 -0.12591134893E+04  0.15883121091E+04  0.65864270000E+03 0.  0.
    8880022    1    1    2    0    0 -0.67437599252E+03 -0.22085151442E+03 -0.69976861856E+03  0.10082788023E+04  0.15294330000E+03 0.  1.
<mgrwt>
<rscale>  0 0.90092279E+03</rscale>
<asrwt>0</asrwt>
<pdfrwt beam="1">  1        1 0.35042099E+00 0.96817797E+03</pdfrwt>
<pdfrwt beam="2">  1       -1 0.49054525E-01 0.96817797E+03</pdfrwt>
<totfact> 0.81752981E+00</totfact>
</mgrwt>
</event>
<event>
 4    2  0.3884658E-007  0.9624284E+03  0.7818608E-02  0.9432453E-01
          1   -1    0    0  501    0  0.00000000000E+00  0.00000000000E+00  0.11567356994E+04  0.11567356995E+04  0.50400000000E-02 0. -1.
         -1   -1    0    0    0  501 -0.00000000000E+00 -0.00000000000E+00 -0.95075830294E+03  0.95075830296E+03  0.50400000000E-02 0.  1.
    8880023    1    1    2    0    0 -0.26028492779E+03  0.65169779126E+03  0.73872354871E+03  0.12132522172E+04  0.65864270000E+03 0.  0.
    8880022    1    1    2    0    0  0.26028492779E+03 -0.65169779126E+03 -0.53274615221E+03  0.89424178524E+03  0.15294330000E+03 0.  0.
<mgrwt>
<rscale>  0 0.89452349E+03</rscale>
<asrwt>0</asrwt>
<pdfrwt beam="1">  1        1 0.17795934E+00 0.96242842E+03</pdfrwt>
<pdfrwt beam="2">  1       -1 0.14627051E+00 0.96242842E+03</pdfrwt>
<totfact> 0.43260770E+00</totfact>
</mgrwt>
</event>
<event>
 4    2  0.3884658E-007  0.8372609E+03  0.7818608E-02  0.9635367E-01
          1   -1    0    0  501    0  0.00000000000E+00  0.00000000000E+00  0.18731684735E+04  0.18731684735E+04  0.50400000000E-02 0. -1.
         -1   -1    0    0    0  501 -0.00000000000E+00 -0.00000000000E+00 -0.12481942614E+04  0.12481942614E+04  0.50400000000E-02 0.  1.
    8880023    1    1    2    0    0 -0.51452088299E+03 -0.49637842343E+02  0.17132525886E+04  0.19068928373E+04  0.65864270000E+03 0. -1.
    8880022    1    1    2    0    0  0.51452088299E+03  0.49637842343E+02 -0.10882783765E+04  0.12144698976E+04  0.15294330000E+03 0.  0.
<mgrwt>
<rscale>  0 0.74998953E+03</rscale>
<asrwt>0</asrwt>
<pdfrwt beam="1">  1        1 0.28817976E+00 0.83726093E+03</pdfrwt>
<pdfrwt beam="2">  1       -1 0.19202989E+00 0.83726093E+03</pdfrwt>
<totfact> 0.64673779E-01</totfact>
</mgrwt>
</event>
<event>
 4    2  0.3884658E-007  0.7317136E+03  0.7818608E-02  0.9884777E-01
          1   -1    0    0  501    0  0.00000000000E+00  0.00000000000E+00  0.97293393665E+03  0.97293393666E+03  0.50400000000E-02 0. -1.
         -1   -1    0    0    0  501 -0.00000000000E+00 -0.00000000000E+00 -0.39398792816E+03  0.39398792819E+03  0.50400000000E-02 0.  1.
    8880023    1    1    2    0    0  0.30792638592E+03 -0.82316429014E+02  0.68034194882E+03  0.99913463918E+03  0.65864270000E+03 0.  0.
    8880022    1    1    2    0    0 -0.30792638592E+03  0.82316429014E+02 -0.10139594033E+03  0.36778722566E+03  0.15294330000E+03 0.  0.
<mgrwt>
<rscale>  0 0.61004753E+03</rscale>
<asrwt>0</asrwt>
<pdfrwt beam="1">  1        1 0.14968214E+00 0.73171365E+03</pdfrwt>
<pdfrwt beam="2">  1       -1 0.60613529E-01 0.73171365E+03</pdfrwt>
<totfact> 0.45025704E+01</totfact>
</mgrwt>
</event>
<event>
 4    2  0.3884658E-007  0.7721274E+03  0.7818608E-02  0.9774666E-01
          1   -1    0    0  501    0  0.00000000000E+00  0.00000000000E+00  0.25538879888E+04  0.25538879888E+04  0.50400000000E-02 0. -1.
         -1   -1    0    0    0  501 -0.00000000000E+00 -0.00000000000E+00 -0.67872039502E+03  0.67872039504E+03  0.50400000000E-02 0.  1.
    8880023    1    1    2    0    0  0.38288353142E+03  0.12558146412E+03  0.24186858661E+04  0.25389411234E+04  0.65864270000E+03 0. -1.
    8880022    1    1    2    0    0 -0.38288353142E+03 -0.12558146412E+03 -0.54351827238E+03  0.69366726043E+03  0.15294330000E+03 0.  0.
<mgrwt>
<rscale>  0 0.66740027E+03</rscale>
<asrwt>0</asrwt>
<pdfrwt beam="1">  1        1 0.39290585E+00 0.77212739E+03</pdfrwt>
<pdfrwt beam="2">  1       -1 0.10441852E+00 0.77212739E+03</pdfrwt>
<totfact> 0.11393009E+00</totfact>
</mgrwt>
</event>
<event>
 4    2  0.3884658E-007  0.6640529E+03  0.7818608E-02  0.1020342E+00
         -1   -1    0    0    0  501 -0.00000000000E+00  0.00000000000E+00  0.38422402314E+03  0.38422402318E+03  0.50400000000E-02 0.  1.
          1   -1    0    0  501    0  0.00000000000E+00 -0.00000000000E+00 -0.71429374888E+03  0.71429374889E+03  0.50400000000E-02 0. -1.
    8880023    1    1    2    0    0 -0.21338469143E+02  0.81857843170E+02 -0.51776344798E+03  0.84204823560E+03  0.65864270000E+03 0.  0.
    8880022    1    1    2    0    0  0.21338469143E+02 -0.81857843170E+02  0.18769372224E+03  0.25646953647E+03  0.15294330000E+03 0.  0.
<mgrwt>
<rscale>  0 0.47563554E+03</rscale>
<asrwt>0</asrwt>
<pdfrwt beam="1">  1        1 0.10989135E+00 0.66405289E+03</pdfrwt>
<pdfrwt beam="2">  1       -1 0.59111388E-01 0.66405289E+03</pdfrwt>
<totfact> 0.78718257E+01</totfact>
</mgrwt>
</event>
<event>
 4    2  0.3884658E-007  0.9940887E+03  0.7818608E-02  0.9389333E-01
          1   -1    0    0  501    0  0.00000000000E+00  0.00000000000E+00  0.25395769974E+04  0.25395769974E+04  0.50400000000E-02 0. -1.
         -1   -1    0    0    0  501 -0.00000000000E+00 -0.00000000000E+00 -0.37816690291E+03  0.37816690294E+03  0.50400000000E-02 0.  1.
    8880023    1    1    2    0    0 -0.63330344119E+02 -0.74188366967E+03  0.18422192440E+04  0.20933189105E+04  0.65864270000E+03 0. -1.
    8880022    1    1    2    0    0  0.63330344119E+02  0.74188366967E+03  0.31919085046E+03  0.82442498982E+03  0.15294330000E+03 0.  0.
<mgrwt>
<rscale>  0 0.92958788E+03</rscale>
<asrwt>0</asrwt>
<pdfrwt beam="1">  1        1 0.39070417E+00 0.99408869E+03</pdfrwt>
<pdfrwt beam="2">  1       -1 0.58179521E-01 0.99408869E+03</pdfrwt>
<totfact> 0.38832277E+00</totfact>
</mgrwt>
</event>
<event>
 4    2  0.3884658E-007  0.6936302E+03  0.7818608E-02  0.1002473E+00
         -1   -1    0    0    0  501 -0.00000000000E+00  0.00000000000E+00  0.92342452954E+03  0.92342452955E+03  0.50400000000E-02 0.  1.
          1   -1    0    0  501    0  0.00000000000E+00 -0.00000000000E+00 -0.52447956534E+03  0.52447956537E+03  0.50400000000E-02 0. -1.
    8880023    1    1    2    0    0 -0.14658956727E+03  0.16069904499E+03 -0.25731574880E+03  0.73982044115E+03  0.65864270000E+03 0. -1.
    8880022    1    1    2    0    0  0.14658956727E+03 -0.16069904499E+03  0.65626071300E+03  0.70808365377E+03  0.15294330000E+03 0.  0.
<mgrwt>
<rscale>  0 0.54579150E+03</rscale>
<asrwt>0</asrwt>
<pdfrwt beam="1">  1        1 0.80689164E-01 0.69363023E+03</pdfrwt>
<pdfrwt beam="2">  1       -1 0.14206531E+00 0.69363023E+03</pdfrwt>
<totfact> 0.17291059E+01</totfact>
</mgrwt>
</event>
<event>
 4    2  0.3884658E-007  0.7219062E+03  0.7818608E-02  0.9916188E-01
          1   -1    0    0  501    0  0.00000000000E+00  0.00000000000E+00  0.29416406518E+04  0.29416406518E+04  0.50400000000E-02 0. -1.
         -1   -1    0    0    0  501 -0.00000000000E+00 -0.00000000000E+00 -0.97702158429E+02  0.97702158559E+02  0.50400000000E-02 0.  1.
    8880023    1    1    2    0    0 -0.10132405576E+03 -0.27761795714E+03  0.16745654471E+04  0.18235454306E+04  0.65864270000E+03 0. -1.
    8880022    1    1    2    0    0  0.10132405576E+03  0.27761795714E+03  0.11693730462E+04  0.12157973798E+04  0.15294330000E+03 0.  0.
<mgrwt>
<rscale>  0 0.59483114E+03</rscale>
<asrwt>0</asrwt>
<pdfrwt beam="1">  1        1 0.45256004E+00 0.72190616E+03</pdfrwt>
<pdfrwt beam="2">  1       -1 0.15031103E-01 0.72190616E+03</pdfrwt>
<totfact> 0.22924972E+01</totfact>
</mgrwt>
</event>
<event>
 4    2  0.3884658E-007  0.8760328E+03  0.7818608E-02  0.9565657E-01
          1   -1    0    0  501    0  0.00000000000E+00  0.00000000000E+00  0.82411861016E+03  0.82411861018E+03  0.50400000000E-02 0. -1.
         -1   -1    0    0    0  501 -0.00000000000E+00 -0.00000000000E+00 -0.11901369210E+04  0.11901369210E+04  0.50400000000E-02 0.  1.
    8880023    1    1    2    0    0  0.14831973088E+03  0.55823335406E+03  0.46416704268E+03  0.99140530053E+03  0.65864270000E+03 0. -1.
    8880022    1    1    2    0    0 -0.14831973088E+03 -0.55823335406E+03 -0.83018535353E+03  0.10228502307E+04  0.15294330000E+03 0.  0.
<mgrwt>
<rscale>  0 0.79611546E+03</rscale>
<asrwt>0</asrwt>
<pdfrwt beam="1">  1        1 0.12678748E+00 0.87603278E+03</pdfrwt>
<pdfrwt beam="2">  1       -1 0.18309799E+00 0.87603278E+03</pdfrwt>
<totfact> 0.42439649E+00</totfact>
</mgrwt>
</event>
<event>
 4    2  0.3884658E-007  0.7054856E+03  0.7818608E-02  0.9975163E-01
         -1   -1    0    0    0  501 -0.00000000000E+00  0.00000000000E+00  0.13728753164E+04  0.13728753164E+04  0.50400000000E-02 0.  1.
          1   -1    0    0  501    0  0.00000000000E+00 -0.00000000000E+00 -0.24786860157E+03  0.24786860162E+03  0.50400000000E-02 0. -1.
    8880023    1    1    2    0    0  0.13495395051E+02 -0.25242334530E+03  0.34232261148E+03  0.78415218391E+03  0.65864270000E+03 0. -1.
    8880022    1    1    2    0    0 -0.13495395051E+02  0.25242334530E+03  0.78268410334E+03  0.83659173411E+03  0.15294330000E+03 0.  0.
<mgrwt>
<rscale>  0 0.56752825E+03</rscale>
<asrwt>0</asrwt>
<pdfrwt beam="1">  1        1 0.38133631E-01 0.70548556E+03</pdfrwt>
<pdfrwt beam="2">  1       -1 0.21121159E+00 0.70548556E+03</pdfrwt>
<totfact> 0.14672081E+01</totfact>
</mgrwt>
</event>
<event>
 4    2  0.3884658E-007  0.8924275E+03  0.7818608E-02  0.9538299E-01
          1   -1    0    0  501    0  0.00000000000E+00  0.00000000000E+00  0.95266406324E+03  0.95266406325E+03  0.50400000000E-02 0. -1.
         -1   -1    0    0    0  501 -0.00000000000E+00 -0.00000000000E+00 -0.99039319902E+03  0.99039319903E+03  0.50400000000E-02 0.  1.
    8880023    1    1    2    0    0 -0.57225768927E+03  0.18745054320E+03  0.58206787128E+03  0.10654716243E+04  0.65864270000E+03 0.  0.
    8880022    1    1    2    0    0  0.57225768927E+03 -0.18745054320E+03 -0.61979700706E+03  0.87758563802E+03  0.15294330000E+03 0.  0.
<mgrwt>
<rscale>  0 0.81518140E+03</rscale>
<asrwt>0</asrwt>
<pdfrwt beam="1">  1        1 0.14656370E+00 0.89242746E+03</pdfrwt>
<pdfrwt beam="2">  1       -1 0.15236818E+00 0.89242746E+03</pdfrwt>
<totfact> 0.56001347E+00</totfact>
</mgrwt>
</event>
<event>
 4    2  0.3884658E-007  0.7578718E+03  0.7818608E-02  0.9810649E-01
         -1   -1    0    0    0  501 -0.00000000000E+00  0.00000000000E+00  0.59588866127E+03  0.59588866129E+03  0.50400000000E-02 0.  1.
          1   -1    0    0  501    0  0.00000000000E+00 -0.00000000000E+00 -0.77968923964E+03  0.77968923966E+03  0.50400000000E-02 0. -1.
    8880023    1    1    2    0    0  0.12764266032E+03  0.35251494185E+03 -0.45897212771E+03  0.88601639558E+03  0.65864270000E+03 0. -1.
    8880022    1    1    2    0    0 -0.12764266032E+03 -0.35251494185E+03  0.27517154934E+03  0.48956150537E+03  0.15294330000E+03 0.  1.
<mgrwt>
<rscale>  0 0.64794194E+03</rscale>
<asrwt>0</asrwt>
<pdfrwt beam="1">  1        1 0.11995219E+00 0.75787178E+03</pdfrwt>
<pdfrwt beam="2">  1       -1 0.91675178E-01 0.75787178E+03</pdfrwt>
<totfact> 0.27381373E+01</totfact>
</mgrwt>
</event>
<event>
 4    2  0.3884658E-007  0.6699131E+03  0.7818608E-02  0.1015725E+00
         -1   -1    0    0    0  501 -0.00000000000E+00  0.00000000000E+00  0.11708006243E+04  0.11708006243E+04  0.50400000000E-02 0.  1.
          1   -1    0    0  501    0  0.00000000000E+00 -0.00000000000E+00 -0.10651429835E+04  0.10651429835E+04  0.50400000000E-02 0. -1.
    8880023    1    1    2    0    0 -0.39510305729E+02  0.11581117977E+03 -0.94990080607E+03  0.11623661391E+04  0.65864270000E+03 0. -1.
    8880022    1    1    2    0    0  0.39510305729E+02 -0.11581117977E+03  0.10555584469E+04  0.10735774687E+04  0.15294330000E+03 0.  0.
<mgrwt>
<rscale>  0 0.49261276E+03</rscale>
<asrwt>0</asrwt>
<pdfrwt beam="1">  1        1 0.16386815E+00 0.66991305E+03</pdfrwt>
<pdfrwt beam="2">  1       -1 0.18012317E+00 0.66991305E+03</pdfrwt>
<totfact> 0.29558531E+00</totfact>
</mgrwt>
</event>
<event>
 4    2  0.3884658E-007  0.9259625E+03  0.7818608E-02  0.9485577E-01
          1   -1    0    0  501    0  0.00000000000E+00  0.00000000000E+00  0.16816257967E+04  0.16816257967E+04  0.50400000000E-02 0. -1.
         -1   -1    0    0    0  501 -0.00000000000E+00 -0.00000000000E+00 -0.53712785415E+03  0.53712785417E+03  0.50400000000E-02 0.  1.
    8880023    1    1    2    0    0  0.26507914956E+03 -0.59441519258E+03  0.12355422467E+04  0.15440114075E+04  0.65864270000E+03 0. -1.
    8880022    1    1    2    0    0 -0.26507914956E+03  0.59441519258E+03 -0.91044304176E+02  0.67474224341E+03  0.15294330000E+03 0.  0.
<mgrwt>
<rscale>  0 0.85355604E+03</rscale>
<asrwt>0</asrwt>
<pdfrwt beam="1">  1        1 0.25871166E+00 0.92596252E+03</pdfrwt>
<pdfrwt beam="2">  1       -1 0.82635055E-01 0.92596252E+03</pdfrwt>
<totfact> 0.72588084E+00</totfact>
</mgrwt>
</event>
<event>
 4    2  0.3884658E-007  0.6677255E+03  0.7818608E-02  0.1017349E+00
         -1   -1    0    0    0  501 -0.00000000000E+00  0.00000000000E+00  0.13710872380E+03  0.13710872389E+03  0.50400000000E-02 0.  1.
          1   -1    0    0  501    0  0.00000000000E+00 -0.00000000000E+00 -0.19528082867E+04  0.19528082867E+04  0.50400000000E-02 0. -1.
    8880023    1    1    2    0    0  0.12329662277E+02  0.10906443358E+03 -0.17762045891E+04  0.18975668684E+04  0.65864270000E+03 0. -1.
    8880022    1    1    2    0    0 -0.12329662277E+02 -0.10906443358E+03 -0.39494973765E+02  0.19235014222E+03  0.15294330000E+03 0.  0.
<mgrwt>
<rscale>  0 0.48655642E+03</rscale>
<asrwt>0</asrwt>
<pdfrwt beam="1">  1        1 0.30043202E+00 0.66772545E+03</pdfrwt>
<pdfrwt beam="2">  1       -1 0.21093651E-01 0.66772545E+03</pdfrwt>
<totfact> 0.62480120E+01</totfact>
</mgrwt>
</event>
<event>
 4    2  0.4123207E-007  0.7309611E+03  0.7818608E-02  0.9887105E-01
          1   -1    0    0  501    0  0.00000000000E+00  0.00000000000E+00  0.25792808925E+04  0.25792808925E+04  0.50400000000E-02 0. -1.
         -1   -1    0    0    0  501 -0.00000000000E+00 -0.00000000000E+00 -0.50821188105E+03  0.50821188107E+03  0.50400000000E-02 0.  1.
    8880023    1    1    2    0    0  0.77582912500E+02  0.30736756446E+03  0.24580230991E+04  0.25644066936E+04  0.65864270000E+03 0. -1.
    8880022    1    1    2    0    0 -0.77582912500E+02 -0.30736756446E+03 -0.38695408773E+03  0.52308607993E+03  0.15294330000E+03 0.  0.
<mgrwt>
<rscale>  0 0.60890326E+03</rscale>
<asrwt>0</asrwt>
<pdfrwt beam="1">  1        1 0.39681246E+00 0.73096110E+03</pdfrwt>
<pdfrwt beam="2">  1       -1 0.78186440E-01 0.73096110E+03</pdfrwt>
<totfact> 0.20899397E+00</totfact>
</mgrwt>
</event>
<event>
 4    2  0.3884658E-007  0.7222493E+03  0.7818608E-02  0.9915047E-01
         -1   -1    0    0    0  501 -0.00000000000E+00  0.00000000000E+00  0.54838689151E+03  0.54838689153E+03  0.50400000000E-02 0.  1.
          1   -1    0    0  501    0  0.00000000000E+00 -0.00000000000E+00 -0.59485363667E+03  0.59485363669E+03  0.50400000000E-02 0. -1.
    8880023    1    1    2    0    0 -0.10516123006E+03 -0.27708285457E+03 -0.23576683493E+03  0.75975653950E+03  0.65864270000E+03 0.  0.
    8880022    1    1    2    0    0  0.10516123006E+03  0.27708285457E+03  0.18930008976E+03  0.38348398872E+03  0.15294330000E+03 0.  0.
<mgrwt>
<rscale>  0 0.59537535E+03</rscale>
<asrwt>0</asrwt>
<pdfrwt beam="1">  1        1 0.91515944E-01 0.72224926E+03</pdfrwt>
<pdfrwt beam="2">  1       -1 0.84367214E-01 0.72224926E+03</pdfrwt>
<totfact> 0.49429917E+01</totfact>
</mgrwt>
</event>
<event>
 4    2  0.3884658E-007  0.6838438E+03  0.7818608E-02  0.1007228E+00
         -1   -1    0    0    0  501 -0.00000000000E+00  0.00000000000E+00  0.90594991013E+03  0.90594991014E+03  0.50400000000E-02 0.  1.
          1   -1    0    0  501    0  0.00000000000E+00 -0.00000000000E+00 -0.91265913741E+03  0.91265913742E+03  0.50400000000E-02 0. -1.
    8880023    1    1    2    0    0 -0.18285022938E+03  0.19946507091E+02 -0.76346231502E+03  0.10249473071E+04  0.65864270000E+03 0. -1.
    8880022    1    1    2    0    0  0.18285022938E+03 -0.19946507091E+02  0.75675308774E+03  0.79366174050E+03  0.15294330000E+03 0.  0.
<mgrwt>
<rscale>  0 0.52591393E+03</rscale>
<asrwt>0</asrwt>
<pdfrwt beam="1">  1        1 0.14040910E+00 0.68384375E+03</pdfrwt>
<pdfrwt beam="2">  1       -1 0.13937691E+00 0.68384375E+03</pdfrwt>
<totfact> 0.78628178E+00</totfact>
</mgrwt>
</event>
<event>
 4    2  0.3884658E-007  0.6693269E+03  0.7818608E-02  0.1016150E+00
         -1   -1    0    0    0  501 -0.00000000000E+00  0.00000000000E+00  0.17350944932E+03  0.17350944939E+03  0.50400000000E-02 0.  1.
          1   -1    0    0  501    0  0.00000000000E+00 -0.00000000000E+00 -0.12790559509E+04  0.12790559509E+04  0.50400000000E-02 0. -1.
    8880023    1    1    2    0    0  0.86855911435E+02 -0.81512801589E+02 -0.10596706202E+04  0.12533556223E+04  0.65864270000E+03 0. -1.
    8880022    1    1    2    0    0 -0.86855911435E+02  0.81512801589E+02 -0.45875881371E+02  0.19920977807E+03  0.15294330000E+03 0.  0.
<mgrwt>
<rscale>  0 0.49101891E+03</rscale>
<asrwt>0</asrwt>
<pdfrwt beam="1">  1        1 0.19677783E+00 0.66932690E+03</pdfrwt>
<pdfrwt beam="2">  1       -1 0.26693762E-01 0.66932690E+03</pdfrwt>
<totfact> 0.12022360E+02</totfact>
</mgrwt>
</event>
<event>
 4    2  0.3884658E-007  0.6681682E+03  0.7818608E-02  0.1017011E+00
          1   -1    0    0  501    0  0.00000000000E+00  0.00000000000E+00  0.12189833319E+04  0.12189833319E+04  0.50400000000E-02 0. -1.
         -1   -1    0    0    0  501 -0.00000000000E+00 -0.00000000000E+00 -0.15398311168E+03  0.15398311177E+03  0.50400000000E-02 0.  1.
    8880023    1    1    2    0    0  0.27614257544E+02 -0.10897712453E+03  0.90360362472E+03  0.11238097160E+04  0.65864270000E+03 0.  1.
    8880022    1    1    2    0    0 -0.27614257544E+02  0.10897712453E+03  0.16139659547E+03  0.24915672765E+03  0.15294330000E+03 0. -1.
<mgrwt>
<rscale>  0 0.48780665E+03</rscale>
<asrwt>0</asrwt>
<pdfrwt beam="1">  1        1 0.18753589E+00 0.66816822E+03</pdfrwt>
<pdfrwt beam="2">  1       -1 0.23689710E-01 0.66816822E+03</pdfrwt>
<totfact> 0.16260764E+02</totfact>
</mgrwt>
</event>
<event>
 4    2  0.3884658E-007  0.7091134E+03  0.7818608E-02  0.9961308E-01
         -1   -1    0    0    0  501 -0.00000000000E+00  0.00000000000E+00  0.34133704000E+03  0.34133704003E+03  0.50400000000E-02 0.  1.
          1   -1    0    0  501    0  0.00000000000E+00 -0.00000000000E+00 -0.89424320475E+03  0.89424320477E+03  0.50400000000E-02 0. -1.
    8880023    1    1    2    0    0 -0.16951725741E+03  0.20073756308E+03 -0.13995645815E+03  0.72279297605E+03  0.65864270000E+03 0.  1.
    8880022    1    1    2    0    0  0.16951725741E+03 -0.20073756308E+03 -0.41294970660E+03  0.51278726875E+03  0.15294330000E+03 0.  0.
<mgrwt>
<rscale>  0 0.57379860E+03</rscale>
<asrwt>0</asrwt>
<pdfrwt beam="1">  1        1 0.13757588E+00 0.70911344E+03</pdfrwt>
<pdfrwt beam="2">  1       -1 0.52513391E-01 0.70911344E+03</pdfrwt>
<totfact> 0.68909826E+01</totfact>
</mgrwt>
</event>
<event>
 4    2  0.3884658E-007  0.6735661E+03  0.7818608E-02  0.1013226E+00
         -1   -1    0    0    0  501 -0.00000000000E+00  0.00000000000E+00  0.40753227434E+03  0.40753227437E+03  0.50400000000E-02 0.  1.
          1   -1    0    0  501    0  0.00000000000E+00 -0.00000000000E+00 -0.47813964440E+03  0.47813964442E+03  0.50400000000E-02 0. -1.
    8880023    1    1    2    0    0  0.67320975399E+02  0.12389075998E+03 -0.74036394072E+02  0.67762277710E+03  0.65864270000E+03 0.  0.
    8880022    1    1    2    0    0 -0.67320975399E+02 -0.12389075998E+03  0.34290240134E+01  0.20804914169E+03  0.15294330000E+03 0.  1.
<mgrwt>
<rscale>  0 0.50212504E+03</rscale>
<asrwt>0</asrwt>
<pdfrwt beam="1">  1        1 0.73559945E-01 0.67356606E+03</pdfrwt>
<pdfrwt beam="2">  1       -1 0.62697273E-01 0.67356606E+03</pdfrwt>
<totfact> 0.12424118E+02</totfact>
</mgrwt>
</event>
<event>
 4    2  0.3884658E-007  0.6942208E+03  0.7818608E-02  0.1002208E+00
          1   -1    0    0  501    0  0.00000000000E+00  0.00000000000E+00  0.32082890458E+04  0.32082890458E+04  0.50400000000E-02 0. -1.
         -1   -1    0    0    0  501 -0.00000000000E+00 -0.00000000000E+00 -0.23948425865E+03  0.23948425870E+03  0.50400000000E-02 0.  1.
    8880023    1    1    2    0    0 -0.91586731281E+01 -0.21919958388E+03  0.30806396774E+04  0.31578922348E+04  0.65864270000E+03 0. -1.
    8880022    1    1    2    0    0  0.91586731281E+01  0.21919958388E+03 -0.11183489021E+03  0.28988106966E+03  0.15294330000E+03 0.  0.
<mgrwt>
<rscale>  0 0.54692742E+03</rscale>
<asrwt>0</asrwt>
<pdfrwt beam="1">  1        1 0.49358292E+00 0.69422082E+03</pdfrwt>
<pdfrwt beam="2">  1       -1 0.36843733E-01 0.69422082E+03</pdfrwt>
<totfact> 0.32250094E+00</totfact>
</mgrwt>
</event>
<event>
 4    2  0.4627573E-007  0.6944412E+03  0.7818608E-02  0.1002109E+00
          1   -1    0    0  501    0  0.00000000000E+00  0.00000000000E+00  0.13408206745E+04  0.13408206745E+04  0.50400000000E-02 0. -1.
         -1   -1    0    0    0  501 -0.00000000000E+00 -0.00000000000E+00 -0.10373996815E+04  0.10373996815E+04  0.50400000000E-02 0.  1.
    8880023    1    1    2    0    0 -0.66811439026E+02  0.20970120367E+03  0.12306342813E+04  0.14130496466E+04  0.65864270000E+03 0. -1.
    8880022    1    1    2    0    0  0.66811439026E+02 -0.20970120367E+03 -0.92721328829E+03  0.96517070936E+03  0.15294330000E+03 0.  0.
<mgrwt>
<rscale>  0 0.54734966E+03</rscale>
<asrwt>0</asrwt>
<pdfrwt beam="1">  1        1 0.20628010E+00 0.69444119E+03</pdfrwt>
<pdfrwt beam="2">  1       -1 0.15959995E+00 0.69444119E+03</pdfrwt>
<totfact> 0.26257192E+00</totfact>
</mgrwt>
</event>
<event>
 4    2  0.3884658E-007  0.8235352E+03  0.7818608E-02  0.9662044E-01
         -1   -1    0    0    0  501 -0.00000000000E+00  0.00000000000E+00  0.58449133365E+03  0.58449133368E+03  0.50400000000E-02 0.  1.
          1   -1    0    0  501    0  0.00000000000E+00 -0.00000000000E+00 -0.94815968648E+03  0.94815968650E+03  0.50400000000E-02 0. -1.
    8880023    1    1    2    0    0  0.27841605009E+03 -0.40851494325E+03 -0.54132772806E+03  0.98551807250E+03  0.65864270000E+03 0. -1.
    8880022    1    1    2    0    0 -0.27841605009E+03  0.40851494325E+03  0.17765937523E+03  0.54713294767E+03  0.15294330000E+03 0.  0.
<mgrwt>
<rscale>  0 0.73322325E+03</rscale>
<asrwt>0</asrwt>
<pdfrwt beam="1">  1        1 0.14587072E+00 0.82353516E+03</pdfrwt>
<pdfrwt beam="2">  1       -1 0.89921743E-01 0.82353516E+03</pdfrwt>
<totfact> 0.20530916E+01</totfact>
</mgrwt>
</event>
<event>
 4    2  0.3884658E-007  0.6935312E+03  0.7818608E-02  0.1002517E+00
          1   -1    0    0  501    0  0.00000000000E+00  0.00000000000E+00  0.11800905899E+04  0.11800905899E+04  0.50400000000E-02 0. -1.
         -1   -1    0    0    0  501 -0.00000000000E+00 -0.00000000000E+00 -0.46904593894E+03  0.46904593896E+03  0.50400000000E-02 0.  1.
    8880023    1    1    2    0    0 -0.74922401531E+01  0.21706969917E+03  0.10251845194E+04  0.12377353890E+04  0.65864270000E+03 0. -1.
    8880022    1    1    2    0    0  0.74922401531E+01 -0.21706969917E+03 -0.31413986845E+03  0.41140113992E+03  0.15294330000E+03 0.  0.
<mgrwt>
<rscale>  0 0.54560051E+03</rscale>
<asrwt>0</asrwt>
<pdfrwt beam="1">  1        1 0.18155239E+00 0.69353125E+03</pdfrwt>
<pdfrwt beam="2">  1       -1 0.72160915E-01 0.69353125E+03</pdfrwt>
<totfact> 0.22224456E+01</totfact>
</mgrwt>
</event>
<event>
 4    2  0.3884658E-007  0.6951382E+03  0.7818608E-02  0.1001800E+00
         -1   -1    0    0    0  501 -0.00000000000E+00  0.00000000000E+00  0.10384485798E+04  0.10384485798E+04  0.50400000000E-02 0.  1.
          1   -1    0    0  501    0  0.00000000000E+00 -0.00000000000E+00 -0.40651695983E+03  0.40651695986E+03  0.50400000000E-02 0. -1.
    8880023    1    1    2    0    0 -0.11835727574E+03 -0.18814489407E+03 -0.64471506974E+02  0.69812157062E+03  0.65864270000E+03 0. -1.
    8880022    1    1    2    0    0  0.11835727574E+03  0.18814489407E+03  0.69640312693E+03  0.74684396904E+03  0.15294330000E+03 0.  0.
<mgrwt>
<rscale>  0 0.54867953E+03</rscale>
<asrwt>0</asrwt>
<pdfrwt beam="1">  1        1 0.62541072E-01 0.69513823E+03</pdfrwt>
<pdfrwt beam="2">  1       -1 0.15976132E+00 0.69513823E+03</pdfrwt>
<totfact> 0.17798659E+01</totfact>
</mgrwt>
</event>
<event>
 4    2  0.3884658E-007  0.9468362E+03  0.7818608E-02  0.9454681E-01
         -1   -1    0    0    0  501 -0.00000000000E+00  0.00000000000E+00  0.37869411876E+03  0.37869411879E+03  0.50400000000E-02 0.  1.
          1   -1    0    0  501    0  0.00000000000E+00 -0.00000000000E+00 -0.20709918624E+04  0.20709918624E+04  0.50400000000E-02 0. -1.
    8880023    1    1    2    0    0 -0.67268320968E+03  0.10092487783E+03 -0.14080091553E+04  0.16967582383E+04  0.65864270000E+03 0. -1.
    8880022    1    1    2    0    0  0.67268320968E+03 -0.10092487783E+03 -0.28428858836E+03  0.75292774291E+03  0.15294330000E+03 0.  0.
<mgrwt>
<rscale>  0 0.87709093E+03</rscale>
<asrwt>0</asrwt>
<pdfrwt beam="1">  1        1 0.31861412E+00 0.94683617E+03</pdfrwt>
<pdfrwt beam="2">  1       -1 0.58260635E-01 0.94683617E+03</pdfrwt>
<totfact> 0.81114551E+00</totfact>
</mgrwt>
</event>
<event>
 4    2  0.3884658E-007  0.7776711E+03  0.7818608E-02  0.9761336E-01
          1   -1    0    0  501    0  0.00000000000E+00  0.00000000000E+00  0.68501657746E+03  0.68501657748E+03  0.50400000000E-02 0. -1.
         -1   -1    0    0    0  501 -0.00000000000E+00 -0.00000000000E+00 -0.54758061322E+03  0.54758061325E+03  0.50400000000E-02 0.  1.
    8880023    1    1    2    0    0 -0.33816521711E+02 -0.41209047808E+03  0.14793360624E+03  0.79161649640E+03  0.65864270000E+03 0.  1.
    8880022    1    1    2    0    0  0.33816521711E+02  0.41209047808E+03 -0.10497642007E+02  0.44098069432E+03  0.15294330000E+03 0.  0.
<mgrwt>
<rscale>  0 0.67479381E+03</rscale>
<asrwt>0</asrwt>
<pdfrwt beam="1">  1        1 0.10538717E+00 0.77767109E+03</pdfrwt>
<pdfrwt beam="2">  1       -1 0.84243171E-01 0.77767109E+03</pdfrwt>
<totfact> 0.40114956E+01</totfact>
</mgrwt>
</event>
<event>
 4    2  0.3884658E-007  0.6701583E+03  0.7818608E-02  0.1015550E+00
          1   -1    0    0  501    0  0.00000000000E+00  0.00000000000E+00  0.39626814120E+03  0.39626814123E+03  0.50400000000E-02 0. -1.
         -1   -1    0    0    0  501 -0.00000000000E+00 -0.00000000000E+00 -0.17713699919E+04  0.17713699919E+04  0.50400000000E-02 0.  1.
    8880023    1    1    2    0    0 -0.12200570869E+03 -0.20410059467E+02  0.10166692957E+03  0.67782618296E+03  0.65864270000E+03 0. -1.
    8880022    1    1    2    0    0  0.12200570869E+03  0.20410059467E+02 -0.14767687803E+04  0.14898119502E+04  0.15294330000E+03 0.  0.
<mgrwt>
<rscale>  0 0.49327372E+03</rscale>
<asrwt>0</asrwt>
<pdfrwt beam="1">  1        1 0.60964331E-01 0.67015832E+03</pdfrwt>
<pdfrwt beam="2">  1       -1 0.27251846E+00 0.67015832E+03</pdfrwt>
<totfact> 0.32010321E+00</totfact>
</mgrwt>
</event>
<event>
 4    2  0.3884658E-007  0.7858772E+03  0.7818608E-02  0.9742208E-01
          1   -1    0    0  501    0  0.00000000000E+00  0.00000000000E+00  0.81733585659E+03  0.81733585661E+03  0.50400000000E-02 0. -1.
         -1   -1    0    0    0  501 -0.00000000000E+00 -0.00000000000E+00 -0.11085567315E+04  0.11085567315E+04  0.50400000000E-02 0.  1.
    8880023    1    1    2    0    0  0.42614755453E+03  0.46807773574E+02  0.55700583402E+03  0.96325407411E+03  0.65864270000E+03 0.  0.
    8880022    1    1    2    0    0 -0.42614755453E+03 -0.46807773574E+02 -0.84822670889E+03  0.96263851397E+03  0.15294330000E+03 0.  1.
<mgrwt>
<rscale>  0 0.68558392E+03</rscale>
<asrwt>0</asrwt>
<pdfrwt beam="1">  1        1 0.12574398E+00 0.78587716E+03</pdfrwt>
<pdfrwt beam="2">  1       -1 0.17054719E+00 0.78587716E+03</pdfrwt>
<totfact> 0.53623741E+00</totfact>
</mgrwt>
</event>
<event>
 4    2  0.4281443E-007  0.7515104E+03  0.7818608E-02  0.9827604E-01
         -1   -1    0    0    0  501 -0.00000000000E+00  0.00000000000E+00  0.11819027336E+04  0.11819027336E+04  0.50400000000E-02 0.  1.
          1   -1    0    0  501    0  0.00000000000E+00 -0.00000000000E+00 -0.11308524550E+04  0.11308524550E+04  0.50400000000E-02 0. -1.
    8880023    1    1    2    0    0  0.28762300171E+03  0.21961485412E+03 -0.96516626512E+03  0.12232390612E+04  0.65864270000E+03 0. -1.
    8880022    1    1    2    0    0 -0.28762300171E+03 -0.21961485412E+03  0.10162165437E+04  0.10895161274E+04  0.15294330000E+03 0.  0.
<mgrwt>
<rscale>  0 0.63901984E+03</rscale>
<asrwt>0</asrwt>
<pdfrwt beam="1">  1        1 0.17397730E+00 0.75151040E+03</pdfrwt>
<pdfrwt beam="2">  1       -1 0.18183119E+00 0.75151040E+03</pdfrwt>
<totfact> 0.25293834E+00</totfact>
</mgrwt>
</event>
<event>
 4    2  0.3884658E-007  0.6963546E+03  0.7818608E-02  0.1001267E+00
         -1   -1    0    0    0  501 -0.00000000000E+00  0.00000000000E+00  0.22832824121E+03  0.22832824126E+03  0.50400000000E-02 0.  1.
          1   -1    0    0  501    0  0.00000000000E+00 -0.00000000000E+00 -0.13340260210E+04  0.13340260210E+04  0.50400000000E-02 0. -1.
    8880023    1    1    2    0    0  0.14781102347E+02 -0.22556820135E+03 -0.10842175875E+04  0.12885796357E+04  0.65864270000E+03 0. -1.
    8880022    1    1    2    0    0 -0.14781102347E+02  0.22556820135E+03 -0.21480192324E+02  0.27377462651E+03  0.15294330000E+03 0.  0.
<mgrwt>
<rscale>  0 0.55098010E+03</rscale>
<asrwt>0</asrwt>
<pdfrwt beam="1">  1        1 0.20523477E+00 0.69635458E+03</pdfrwt>
<pdfrwt beam="2">  1       -1 0.35127423E-01 0.69635458E+03</pdfrwt>
<totfact> 0.67908642E+01</totfact>
</mgrwt>
</event>
<event>
 4    2  0.3884658E-007  0.7699848E+03  0.7818608E-02  0.9779911E-01
          1   -1    0    0  501    0  0.00000000000E+00  0.00000000000E+00  0.23754571895E+04  0.23754571895E+04  0.50400000000E-02 0. -1.
         -1   -1    0    0    0  501 -0.00000000000E+00 -0.00000000000E+00 -0.18697579958E+03  0.18697579965E+03  0.50400000000E-02 0.  1.
    8880023    1    1    2    0    0  0.12351464785E+03  0.37922364773E+03  0.18914160971E+04  0.20421389526E+04  0.65864270000E+03 0.  0.
    8880022    1    1    2    0    0 -0.12351464785E+03 -0.37922364773E+03  0.29706529285E+03  0.52029403654E+03  0.15294330000E+03 0.  0.
<mgrwt>
<rscale>  0 0.66451842E+03</rscale>
<asrwt>0</asrwt>
<pdfrwt beam="1">  1        1 0.36545494E+00 0.76998484E+03</pdfrwt>
<pdfrwt beam="2">  1       -1 0.28765508E-01 0.76998484E+03</pdfrwt>
<totfact> 0.18928240E+01</totfact>
</mgrwt>
</event>
<event>
 4    2  0.3884658E-007  0.1096598E+04  0.7818608E-02  0.9264853E-01
          1   -1    0    0  501    0  0.00000000000E+00  0.00000000000E+00  0.23596796015E+04  0.23596796015E+04  0.50400000000E-02 0. -1.
         -1   -1    0    0    0  501 -0.00000000000E+00 -0.00000000000E+00 -0.12337742296E+04  0.12337742296E+04  0.50400000000E-02 0.  1.
    8880023    1    1    2    0    0 -0.87378039498E+03 -0.72281057471E+02  0.20409957510E+04  0.23169356037E+04  0.65864270000E+03 0.  0.
    8880022    1    1    2    0    0  0.87378039498E+03  0.72281057471E+02 -0.91509037913E+03  0.12765182274E+04  0.15294330000E+03 0.  0.
<mgrwt>
<rscale>  0 0.10408392E+04</rscale>
<asrwt>0</asrwt>
<pdfrwt beam="1">  1        1 0.36302763E+00 0.10965979E+04</pdfrwt>
<pdfrwt beam="2">  1       -1 0.18981142E+00 0.10965979E+04</pdfrwt>
<totfact> 0.30032816E-01</totfact>
</mgrwt>
</event>
<event>
 4    2  0.3884658E-007  0.7532792E+03  0.7818608E-02  0.9822828E-01
          1   -1    0    0  501    0  0.00000000000E+00  0.00000000000E+00  0.23042203667E+04  0.23042203667E+04  0.50400000000E-02 0. -1.
         -1   -1    0    0    0  501 -0.00000000000E+00 -0.00000000000E+00 -0.40341748433E+03  0.40341748436E+03  0.50400000000E-02 0.  1.
    8880023    1    1    2    0    0  0.27821549205E+03 -0.23709801821E+03  0.21234653241E+04  0.22531166235E+04  0.65864270000E+03 0. -1.
    8880022    1    1    2    0    0 -0.27821549205E+03  0.23709801821E+03 -0.22266244177E+03  0.45452122750E+03  0.15294330000E+03 0.  0.
<mgrwt>
<rscale>  0 0.64151709E+03</rscale>
<asrwt>0</asrwt>
<pdfrwt beam="1">  1        1 0.35449544E+00 0.75327919E+03</pdfrwt>
<pdfrwt beam="2">  1       -1 0.62064228E-01 0.75327919E+03</pdfrwt>
<totfact> 0.51332423E+00</totfact>
</mgrwt>
</event>
<event>
 4    2  0.3884658E-007  0.8309810E+03  0.7818608E-02  0.9647427E-01
          1   -1    0    0  501    0  0.00000000000E+00  0.00000000000E+00  0.24121055030E+04  0.24121055030E+04  0.50400000000E-02 0. -1.
         -1   -1    0    0    0  501 -0.00000000000E+00 -0.00000000000E+00 -0.24206115840E+03  0.24206115846E+03  0.50400000000E-02 0.  1.
    8880023    1    1    2    0    0  0.48185081998E+03 -0.15664930850E+03  0.18687052466E+04  0.20451378250E+04  0.65864270000E+03 0.  0.
    8880022    1    1    2    0    0 -0.48185081998E+03  0.15664930850E+03  0.30133909800E+03  0.60902883640E+03  0.15294330000E+03 0.  0.
<mgrwt>
<rscale>  0 0.74235146E+03</rscale>
<asrwt>0</asrwt>
<pdfrwt beam="1">  1        1 0.37109314E+00 0.83098100E+03</pdfrwt>
<pdfrwt beam="2">  1       -1 0.37240179E-01 0.83098100E+03</pdfrwt>
<totfact> 0.11227911E+01</totfact>
</mgrwt>
</event>
<event>
 4    2  0.3884658E-007  0.6675298E+03  0.7818608E-02  0.1017499E+00
          1   -1    0    0  501    0  0.00000000000E+00  0.00000000000E+00  0.15062640695E+04  0.15062640695E+04  0.50400000000E-02 0. -1.
         -1   -1    0    0    0  501 -0.00000000000E+00 -0.00000000000E+00 -0.32231681698E+03  0.32231681702E+03  0.50400000000E-02 0.  1.
    8880023    1    1    2    0    0  0.96079149704E+02 -0.50543847863E+02  0.13948456871E+04  0.15463474967E+04  0.65864270000E+03 0. -1.
    8880022    1    1    2    0    0 -0.96079149704E+02  0.50543847863E+02 -0.21089843460E+03  0.28223338976E+03  0.15294330000E+03 0.  0.
<mgrwt>
<rscale>  0 0.48599991E+03</rscale>
<asrwt>0</asrwt>
<pdfrwt beam="1">  1        1 0.23173293E+00 0.66752984E+03</pdfrwt>
<pdfrwt beam="2">  1       -1 0.49587204E-01 0.66752984E+03</pdfrwt>
<totfact> 0.27570352E+01</totfact>
</mgrwt>
</event>
<event>
 4    2  0.3884658E-007  0.6910156E+03  0.7818608E-02  0.1003674E+00
         -1   -1    0    0    0  501 -0.00000000000E+00  0.00000000000E+00  0.35827061188E+03  0.35827061192E+03  0.50400000000E-02 0.  1.
          1   -1    0    0  501    0  0.00000000000E+00 -0.00000000000E+00 -0.15055784646E+04  0.15055784646E+04  0.50400000000E-02 0. -1.
    8880023    1    1    2    0    0  0.79267139939E+02  0.19341433847E+03 -0.13621070901E+04  0.15273631909E+04  0.65864270000E+03 0. -1.
    8880022    1    1    2    0    0 -0.79267139939E+02 -0.19341433847E+03  0.21479923740E+03  0.33648588559E+03  0.15294330000E+03 0.  0.
<mgrwt>
<rscale>  0 0.54068373E+03</rscale>
<asrwt>0</asrwt>
<pdfrwt beam="1">  1        1 0.23162745E+00 0.69101562E+03</pdfrwt>
<pdfrwt beam="2">  1       -1 0.55118557E-01 0.69101562E+03</pdfrwt>
<totfact> 0.22482628E+01</totfact>
</mgrwt>
</event>
<event>
 4    2  0.3884658E-007  0.8110422E+03  0.7818608E-02  0.9687410E-01
         -1   -1    0    0    0  501 -0.00000000000E+00  0.00000000000E+00  0.49105183432E+03  0.49105183435E+03  0.50400000000E-02 0.  1.
          1   -1    0    0  501    0  0.00000000000E+00 -0.00000000000E+00 -0.25387598878E+04  0.25387598878E+04  0.50400000000E-02 0. -1.
    8880023    1    1    2    0    0  0.15969705602E+03  0.44550647115E+03 -0.23235818763E+04  0.24610611752E+04  0.65864270000E+03 0. -1.
    8880022    1    1    2    0    0 -0.15969705602E+03 -0.44550647115E+03  0.27587382288E+03  0.56875054699E+03  0.15294330000E+03 0.  0.
<mgrwt>
<rscale>  0 0.71771352E+03</rscale>
<asrwt>0</asrwt>
<pdfrwt beam="1">  1        1 0.39057844E+00 0.81104215E+03</pdfrwt>
<pdfrwt beam="2">  1       -1 0.75546438E-01 0.81104215E+03</pdfrwt>
<totfact> 0.23576524E+00</totfact>
</mgrwt>
</event>
<event>
 4    2  0.3884658E-007  0.1386061E+04  0.7818608E-02  0.8994590E-01
          1   -1    0    0  501    0  0.00000000000E+00  0.00000000000E+00  0.28257342335E+04  0.28257342335E+04  0.50400000000E-02 0. -1.
         -1   -1    0    0    0  501 -0.00000000000E+00 -0.00000000000E+00 -0.19136640460E+04  0.19136640460E+04  0.50400000000E-02 0.  1.
    8880023    1    1    2    0    0  0.11730568652E+04  0.33360705735E+03  0.24231427519E+04  0.27915563903E+04  0.65864270000E+03 0.  0.
    8880022    1    1    2    0    0 -0.11730568652E+04 -0.33360705735E+03 -0.15110725644E+04  0.19478418892E+04  0.15294330000E+03 0.  0.
<mgrwt>
<rscale>  0 0.13450420E+04</rscale>
<asrwt>0</asrwt>
<pdfrwt beam="1">  1        1 0.43472834E+00 0.13860614E+04</pdfrwt>
<pdfrwt beam="2">  1       -1 0.29440985E+00 0.13860614E+04</pdfrwt>
<totfact> 0.27571223E-02</totfact>
</mgrwt>
</event>
<event>
 4    2  0.3884658E-007  0.8392516E+03  0.7818608E-02  0.9631593E-01
          1   -1    0    0  501    0  0.00000000000E+00  0.00000000000E+00  0.18962893675E+04  0.18962893675E+04  0.50400000000E-02 0. -1.
         -1   -1    0    0    0  501 -0.00000000000E+00 -0.00000000000E+00 -0.32305584252E+03  0.32305584256E+03  0.50400000000E-02 0.  1.
    8880023    1    1    2    0    0 -0.15512196420E+03  0.49645771097E+03  0.14308407282E+04  0.16588093556E+04  0.65864270000E+03 0. -1.
    8880022    1    1    2    0    0  0.15512196420E+03 -0.49645771097E+03  0.14239279682E+03  0.56053585448E+03  0.15294330000E+03 0.  0.
<mgrwt>
<rscale>  0 0.75239978E+03</rscale>
<asrwt>0</asrwt>
<pdfrwt beam="1">  1        1 0.29173683E+00 0.83925162E+03</pdfrwt>
<pdfrwt beam="2">  1       -1 0.49700898E-01 0.83925162E+03</pdfrwt>
<totfact> 0.14640468E+01</totfact>
</mgrwt>
</event>
<event>
 4    2  0.5133829E-007  0.9023643E+03  0.7818608E-02  0.9522247E-01
         -1   -1    0    0    0  501 -0.00000000000E+00  0.00000000000E+00  0.75075822808E+03  0.75075822810E+03  0.50400000000E-02 0.  1.
          1   -1    0    0  501    0  0.00000000000E+00 -0.00000000000E+00 -0.26063185679E+04  0.26063185679E+04  0.50400000000E-02 0. -1.
    8880023    1    1    2    0    0 -0.28187305001E+03 -0.54863353663E+03 -0.23722307890E+04  0.25380583713E+04  0.65864270000E+03 0. -1.
    8880022    1    1    2    0    0  0.28187305001E+03  0.54863353663E+03  0.51667044918E+03  0.81901842465E+03  0.15294330000E+03 0.  0.
<mgrwt>
<rscale>  0 0.82663347E+03</rscale>
<asrwt>0</asrwt>
<pdfrwt beam="1">  1        1 0.40097208E+00 0.90236433E+03</pdfrwt>
<pdfrwt beam="2">  1       -1 0.11550127E+00 0.90236433E+03</pdfrwt>
<totfact> 0.80523490E-01</totfact>
</mgrwt>
</event>
<event>
 4    2  0.3884658E-007  0.7100527E+03  0.7818608E-02  0.9957805E-01
         -1   -1    0    0    0  501 -0.00000000000E+00  0.00000000000E+00  0.20344992151E+03  0.20344992157E+03  0.50400000000E-02 0.  1.
          1   -1    0    0  501    0  0.00000000000E+00 -0.00000000000E+00 -0.29178209268E+04  0.29178209268E+04  0.50400000000E-02 0. -1.
    8880023    1    1    2    0    0  0.96969927104E+02 -0.24690385503E+03 -0.27239004576E+04  0.28149260363E+04  0.65864270000E+03 0.  0.
    8880022    1    1    2    0    0 -0.96969927104E+02  0.24690385503E+03  0.95294523907E+01  0.30634481205E+03  0.15294330000E+03 0.  0.
<mgrwt>
<rscale>  0 0.57539758E+03</rscale>
<asrwt>0</asrwt>
<pdfrwt beam="1">  1        1 0.44889550E+00 0.71005274E+03</pdfrwt>
<pdfrwt beam="2">  1       -1 0.31299990E-01 0.71005274E+03</pdfrwt>
<totfact> 0.69560036E+00</totfact>
</mgrwt>
</event>
<event>
 4    2  0.3884658E-007  0.9055567E+03  0.7818608E-02  0.9517170E-01
         -1   -1    0    0    0  501 -0.00000000000E+00  0.00000000000E+00  0.31050561534E+03  0.31050561538E+03  0.50400000000E-02 0.  1.
          1   -1    0    0  501    0  0.00000000000E+00 -0.00000000000E+00 -0.21912501076E+04  0.21912501076E+04  0.50400000000E-02 0. -1.
    8880023    1    1    2    0    0  0.61807693708E+03  0.64834718680E+02 -0.15138964708E+04  0.17640621791E+04  0.65864270000E+03 0. -1.
    8880022    1    1    2    0    0 -0.61807693708E+03 -0.64834718680E+02 -0.36684802138E+03  0.73769354389E+03  0.15294330000E+03 0.  1.
<mgrwt>
<rscale>  0 0.83029726E+03</rscale>
<asrwt>0</asrwt>
<pdfrwt beam="1">  1        1 0.33711539E+00 0.90555665E+03</pdfrwt>
<pdfrwt beam="2">  1       -1 0.47770096E-01 0.90555665E+03</pdfrwt>
<totfact> 0.99134216E+00</totfact>
</mgrwt>
</event>
<event>
 4    2  0.3884658E-007  0.7414119E+03  0.7818608E-02  0.9855853E-01
          1   -1    0    0  501    0  0.00000000000E+00  0.00000000000E+00  0.30363110499E+03  0.30363110503E+03  0.50400000000E-02 0. -1.
         -1   -1    0    0    0  501 -0.00000000000E+00 -0.00000000000E+00 -0.12452919501E+04  0.12452919502E+04  0.50400000000E-02 0.  1.
    8880023    1    1    2    0    0  0.34035045480E+03 -0.65558467367E+01 -0.28633131350E+03  0.79478125202E+03  0.65864270000E+03 0. -1.
    8880022    1    1    2    0    0 -0.34035045480E+03  0.65558467367E+01 -0.65532953166E+03  0.75414180317E+03  0.15294330000E+03 0.  0.
<mgrwt>
<rscale>  0 0.62449370E+03</rscale>
<asrwt>0</asrwt>
<pdfrwt beam="1">  1        1 0.46712478E-01 0.74141191E+03</pdfrwt>
<pdfrwt beam="2">  1       -1 0.19158337E+00 0.74141191E+03</pdfrwt>
<totfact> 0.15296710E+01</totfact>
</mgrwt>
</event>
<event>
 4    2  0.3884658E-007  0.8664005E+03  0.7818608E-02  0.9582278E-01
         -1   -1    0    0    0  501 -0.00000000000E+00  0.00000000000E+00  0.50077824605E+03  0.50077824607E+03  0.50400000000E-02 0.  1.
          1   -1    0    0  501    0  0.00000000000E+00 -0.00000000000E+00 -0.15154121784E+04  0.15154121784E+04  0.50400000000E-02 0. -1.
    8880023    1    1    2    0    0  0.55306460180E+03 -0.10468638943E+03 -0.24174372585E+02  0.86673773452E+03  0.65864270000E+03 0. -1.
    8880022    1    1    2    0    0 -0.55306460180E+03  0.10468638943E+03 -0.99045955973E+03  0.11494526899E+04  0.15294330000E+03 0.  0.
<mgrwt>
<rscale>  0 0.78480331E+03</rscale>
<asrwt>0</asrwt>
<pdfrwt beam="1">  1        1 0.23314033E+00 0.86640054E+03</pdfrwt>
<pdfrwt beam="2">  1       -1 0.77042808E-01 0.86640054E+03</pdfrwt>
<totfact> 0.11019307E+01</totfact>
</mgrwt>
</event>
<event>
 4    2  0.3884658E-007  0.8924502E+03  0.7818608E-02  0.9538262E-01
         -1   -1    0    0    0  501 -0.00000000000E+00  0.00000000000E+00  0.13405108106E+04  0.13405108106E+04  0.50400000000E-02 0.  1.
          1   -1    0    0  501    0  0.00000000000E+00 -0.00000000000E+00 -0.63832566121E+03  0.63832566123E+03  0.50400000000E-02 0. -1.
    8880023    1    1    2    0    0 -0.53127176158E+03  0.28356211710E+03  0.95585695627E+03  0.13077193453E+04  0.65864270000E+03 0.  1.
    8880022    1    1    2    0    0  0.53127176158E+03 -0.28356211710E+03 -0.25367180690E+03  0.67111712655E+03  0.15294330000E+03 0.  0.
<mgrwt>
<rscale>  0 0.81520770E+03</rscale>
<asrwt>0</asrwt>
<pdfrwt beam="1">  1        1 0.98203949E-01 0.89245020E+03</pdfrwt>
<pdfrwt beam="2">  1       -1 0.20623243E+00 0.89245020E+03</pdfrwt>
<totfact> 0.43406173E+00</totfact>
</mgrwt>
</event>
<event>
 4    2  0.3884658E-007  0.1528038E+04  0.7818608E-02  0.8890087E-01
          1   -1    0    0  501    0  0.00000000000E+00  0.00000000000E+00  0.17665952754E+04  0.17665952754E+04  0.50400000000E-02 0. -1.
         -1   -1    0    0    0  501 -0.00000000000E+00 -0.00000000000E+00 -0.14394241754E+04  0.14394241755E+04  0.50400000000E-02 0.  1.
    8880023    1    1    2    0    0  0.27489022738E+03  0.13511199768E+04  0.81958673436E+03  0.17339614904E+04  0.65864270000E+03 0.  0.
    8880022    1    1    2    0    0 -0.27489022738E+03 -0.13511199768E+04 -0.49241563441E+03  0.14720579604E+04  0.15294330000E+03 0.  0.
<mgrwt>
<rscale>  0 0.14915569E+04</rscale>
<asrwt>0</asrwt>
<pdfrwt beam="1">  1        1 0.27178389E+00 0.15280380E+04</pdfrwt>
<pdfrwt beam="2">  1       -1 0.22144987E+00 0.15280380E+04</pdfrwt>
<totfact> 0.43526085E-01</totfact>
</mgrwt>
</event>
<event>
 4    2  0.3884658E-007  0.6721126E+03  0.7818608E-02  0.1014192E+00
          1   -1    0    0  501    0  0.00000000000E+00  0.00000000000E+00  0.97120580604E+03  0.97120580605E+03  0.50400000000E-02 0. -1.
         -1   -1    0    0    0  501 -0.00000000000E+00 -0.00000000000E+00 -0.31221940801E+03  0.31221940805E+03  0.50400000000E-02 0.  1.
    8880023    1    1    2    0    0  0.10827344243E+03  0.78752599398E+02  0.79333958871E+03  0.10397706572E+04  0.65864270000E+03 0.  0.
    8880022    1    1    2    0    0 -0.10827344243E+03 -0.78752599398E+02 -0.13435319068E+03  0.24365455692E+03  0.15294330000E+03 0.  0.
<mgrwt>
<rscale>  0 0.49842211E+03</rscale>
<asrwt>0</asrwt>
<pdfrwt beam="1">  1        1 0.14941628E+00 0.67211258E+03</pdfrwt>
<pdfrwt beam="2">  1       -1 0.48033755E-01 0.67211258E+03</pdfrwt>
<totfact> 0.71067688E+01</totfact>
</mgrwt>
</event>
<event>
 4    2  0.3884658E-007  0.9976265E+03  0.7818608E-02  0.9384670E-01
          1   -1    0    0  501    0  0.00000000000E+00  0.00000000000E+00  0.88638309137E+03  0.88638309138E+03  0.50400000000E-02 0. -1.
         -1   -1    0    0    0  501 -0.00000000000E+00 -0.00000000000E+00 -0.10286910175E+04  0.10286910175E+04  0.50400000000E-02 0.  1.
    8880023    1    1    2    0    0  0.17669301347E+03 -0.72816754657E+03  0.28696912744E+03  0.10380799022E+04  0.65864270000E+03 0.  0.
    8880022    1    1    2    0    0 -0.17669301347E+03  0.72816754657E+03 -0.42927705357E+03  0.87699420672E+03  0.15294330000E+03 0.  0.
<mgrwt>
<rscale>  0 0.93348129E+03</rscale>
<asrwt>0</asrwt>
<pdfrwt beam="1">  1        1 0.13636663E+00 0.99762648E+03</pdfrwt>
<pdfrwt beam="2">  1       -1 0.15826016E+00 0.99762648E+03</pdfrwt>
<totfact> 0.56415258E+00</totfact>
</mgrwt>
</event>
<event>
 4    2  0.3884658E-007  0.1000126E+04  0.7818608E-02  0.9381393E-01
         -1   -1    0    0    0  501 -0.00000000000E+00  0.00000000000E+00  0.39833784463E+03  0.39833784466E+03  0.50400000000E-02 0.  1.
          1   -1    0    0  501    0  0.00000000000E+00 -0.00000000000E+00 -0.27372571965E+04  0.27372571965E+04  0.50400000000E-02 0. -1.
    8880023    1    1    2    0    0 -0.52773475904E+03 -0.53659885618E+03 -0.21086554265E+04  0.23338123794E+04  0.65864270000E+03 0.  0.
    8880022    1    1    2    0    0  0.52773475904E+03  0.53659885618E+03 -0.23026392539E+03  0.80178266177E+03  0.15294330000E+03 0.  0.
<mgrwt>
<rscale>  0 0.93622954E+03</rscale>
<asrwt>0</asrwt>
<pdfrwt beam="1">  1        1 0.42111648E+00 0.10001262E+04</pdfrwt>
<pdfrwt beam="2">  1       -1 0.61282747E-01 0.10001262E+04</pdfrwt>
<totfact> 0.25515057E+00</totfact>
</mgrwt>
</event>
<event>
 4    2  0.3884658E-007  0.9948453E+03  0.7818608E-02  0.9388333E-01
          1   -1    0    0  501    0  0.00000000000E+00  0.00000000000E+00  0.63081233062E+03  0.63081233064E+03  0.50400000000E-02 0. -1.
         -1   -1    0    0    0  501 -0.00000000000E+00 -0.00000000000E+00 -0.12311482523E+04  0.12311482523E+04  0.50400000000E-02 0.  1.
    8880023    1    1    2    0    0  0.15532738709E+03 -0.72923272316E+03 -0.26026800792E+03  0.10283270899E+04  0.65864270000E+03 0.  0.
    8880022    1    1    2    0    0 -0.15532738709E+03  0.72923272316E+03 -0.34006791379E+03  0.83363349304E+03  0.15294330000E+03 0.  0.
<mgrwt>
<rscale>  0 0.93042094E+03</rscale>
<asrwt>0</asrwt>
<pdfrwt beam="1">  1        1 0.97048051E-01 0.99484530E+03</pdfrwt>
<pdfrwt beam="2">  1       -1 0.18940742E+00 0.99484530E+03</pdfrwt>
<totfact> 0.57034759E+00</totfact>
</mgrwt>
</event>
<event>
 4    2  0.7136076E-007  0.6652893E+03  0.7818608E-02  0.1019292E+00
          1   -1    0    0  501    0  0.00000000000E+00  0.00000000000E+00  0.12683606514E+04  0.12683606515E+04  0.50400000000E-02 0. -1.
         -1   -1    0    0    0  501 -0.00000000000E+00 -0.00000000000E+00 -0.15019102665E+04  0.15019102665E+04  0.50400000000E-02 0.  1.
    8880023    1    1    2    0    0  0.22030321681E+02  0.91182987019E+02  0.11750365244E+04  0.13503039333E+04  0.65864270000E+03 0. -1.
    8880022    1    1    2    0    0 -0.22030321681E+02 -0.91182987019E+02 -0.14085861395E+04  0.14199669847E+04  0.15294330000E+03 0.  0.
<mgrwt>
<rscale>  0 0.47943007E+03</rscale>
<asrwt>0</asrwt>
<pdfrwt beam="1">  1        1 0.19513241E+00 0.66528932E+03</pdfrwt>
<pdfrwt beam="2">  1       -1 0.23106312E+00 0.66528932E+03</pdfrwt>
<totfact> 0.94963400E-01</totfact>
</mgrwt>
</event>
<event>
 4    2  0.3884658E-007  0.6731950E+03  0.7818608E-02  0.1013469E+00
          1   -1    0    0  501    0  0.00000000000E+00  0.00000000000E+00  0.25324211178E+03  0.25324211183E+03  0.50400000000E-02 0. -1.
         -1   -1    0    0    0  501 -0.00000000000E+00 -0.00000000000E+00 -0.95067221786E+03  0.95067221787E+03  0.50400000000E-02 0.  1.
    8880023    1    1    2    0    0 -0.13613540494E+03 -0.29127939296E+02 -0.26295881473E+03  0.72273012241E+03  0.65864270000E+03 0. -1.
    8880022    1    1    2    0    0  0.13613540494E+03  0.29127939296E+02 -0.43447129135E+03  0.48118420729E+03  0.15294330000E+03 0.  0.
<mgrwt>
<rscale>  0 0.50118930E+03</rscale>
<asrwt>0</asrwt>
<pdfrwt beam="1">  1        1 0.38960325E-01 0.67319499E+03</pdfrwt>
<pdfrwt beam="2">  1       -1 0.14625726E+00 0.67319499E+03</pdfrwt>
<totfact> 0.41953294E+01</totfact>
</mgrwt>
</event>
<event>
 4    2  0.3884658E-007  0.7269847E+03  0.7818608E-02  0.9899624E-01
         -1   -1    0    0    0  501 -0.00000000000E+00  0.00000000000E+00  0.98350166821E+03  0.98350166822E+03  0.50400000000E-02 0.  1.
          1   -1    0    0  501    0  0.00000000000E+00 -0.00000000000E+00 -0.16203875330E+04  0.16203875330E+04  0.50400000000E-02 0. -1.
    8880023    1    1    2    0    0  0.13099824202E+03  0.27845283121E+03 -0.15043709594E+04  0.16708197714E+04  0.65864270000E+03 0. -1.
    8880022    1    1    2    0    0 -0.13099824202E+03 -0.27845283121E+03  0.86748509460E+03  0.93306942988E+03  0.15294330000E+03 0.  0.
<mgrwt>
<rscale>  0 0.60279514E+03</rscale>
<asrwt>0</asrwt>
<pdfrwt beam="1">  1        1 0.24929039E+00 0.72698468E+03</pdfrwt>
<pdfrwt beam="2">  1       -1 0.15130795E+00 0.72698468E+03</pdfrwt>
<totfact> 0.19401727E+00</totfact>
</mgrwt>
</event>
<event>
 4    2  0.3884658E-007  0.7917583E+03  0.7818608E-02  0.9728908E-01
         -1   -1    0    0    0  501 -0.00000000000E+00  0.00000000000E+00  0.88982788129E+03  0.88982788130E+03  0.50400000000E-02 0.  1.
          1   -1    0    0  501    0  0.00000000000E+00 -0.00000000000E+00 -0.79610467067E+03  0.79610467068E+03  0.50400000000E-02 0. -1.
    8880023    1    1    2    0    0 -0.20643894420E+03  0.38788402976E+03 -0.49636945655E+03  0.93448590246E+03  0.65864270000E+03 0.  0.
    8880022    1    1    2    0    0  0.20643894420E+03 -0.38788402976E+03  0.59009266717E+03  0.75144664953E+03  0.15294330000E+03 0.  0.
<mgrwt>
<rscale>  0 0.69321407E+03</rscale>
<asrwt>0</asrwt>
<pdfrwt beam="1">  1        1 0.12247764E+00 0.79175834E+03</pdfrwt>
<pdfrwt beam="2">  1       -1 0.13689660E+00 0.79175834E+03</pdfrwt>
<totfact> 0.10155008E+01</totfact>
</mgrwt>
</event>
<event>
 4    2  0.3884658E-007  0.9318443E+03  0.7818608E-02  0.9476732E-01
          1   -1    0    0  501    0  0.00000000000E+00  0.00000000000E+00  0.29526847826E+04  0.29526847826E+04  0.50400000000E-02 0. -1.
         -1   -1    0    0    0  501 -0.00000000000E+00 -0.00000000000E+00 -0.32714565490E+03  0.32714565494E+03  0.50400000000E-02 0.  1.
    8880023    1    1    2    0    0 -0.91997864663E+02 -0.65273277159E+03  0.23868040998E+04  0.25622583194E+04  0.65864270000E+03 0.  1.
    8880022    1    1    2    0    0  0.91997864663E+02  0.65273277159E+03  0.23873502791E+03  0.71757211817E+03  0.15294330000E+03 0.  0.
<mgrwt>
<rscale>  0 0.86021236E+03</rscale>
<asrwt>0</asrwt>
<pdfrwt beam="1">  1        1 0.45425919E+00 0.93184435E+03</pdfrwt>
<pdfrwt beam="2">  1       -1 0.50330102E-01 0.93184435E+03</pdfrwt>
<totfact> 0.26613405E+00</totfact>
</mgrwt>
</event>
<event>
 4    2  0.3884658E-007  0.7860574E+03  0.7818608E-02  0.9741796E-01
         -1   -1    0    0    0  501 -0.00000000000E+00  0.00000000000E+00  0.46535092413E+03  0.46535092416E+03  0.50400000000E-02 0.  1.
          1   -1    0    0  501    0  0.00000000000E+00 -0.00000000000E+00 -0.15175889723E+04  0.15175889724E+04  0.50400000000E-02 0. -1.
    8880023    1    1    2    0    0  0.27902306260E+03 -0.32591746564E+03 -0.12577957693E+04  0.14832182804E+04  0.65864270000E+03 0.  0.
    8880022    1    1    2    0    0 -0.27902306260E+03  0.32591746564E+03  0.20555772108E+03  0.49972161609E+03  0.15294330000E+03 0.  0.
<mgrwt>
<rscale>  0 0.68581901E+03</rscale>
<asrwt>0</asrwt>
<pdfrwt beam="1">  1        1 0.23347522E+00 0.78605742E+03</pdfrwt>
<pdfrwt beam="2">  1       -1 0.71592450E-01 0.78605742E+03</pdfrwt>
<totfact> 0.12930513E+01</totfact>
</mgrwt>
</event>
<event>
 4    2  0.3884658E-007  0.7365263E+03  0.7818608E-02  0.9870184E-01
         -1   -1    0    0    0  501 -0.00000000000E+00  0.00000000000E+00  0.56199545607E+03  0.56199545609E+03  0.50400000000E-02 0.  1.
          1   -1    0    0  501    0  0.00000000000E+00 -0.00000000000E+00 -0.15027891890E+04  0.15027891890E+04  0.50400000000E-02 0. -1.
    8880023    1    1    2    0    0 -0.96492092941E+02  0.31519851351E+03 -0.13374469219E+04  0.15268383353E+04  0.65864270000E+03 0. -1.
    8880022    1    1    2    0    0  0.96492092941E+02 -0.31519851351E+03  0.39665318897E+03  0.53794630982E+03  0.15294330000E+03 0.  0.
<mgrwt>
<rscale>  0 0.61728330E+03</rscale>
<asrwt>0</asrwt>
<pdfrwt beam="1">  1        1 0.23119834E+00 0.73652633E+03</pdfrwt>
<pdfrwt beam="2">  1       -1 0.86460840E-01 0.73652633E+03</pdfrwt>
<totfact> 0.89455210E+00</totfact>
</mgrwt>
</event>
<event>
 4    2  0.3884658E-007  0.6825022E+03  0.7818608E-02  0.1007942E+00
          1   -1    0    0  501    0  0.00000000000E+00  0.00000000000E+00  0.10668921274E+03  0.10668921286E+03  0.50400000000E-02 0. -1.
         -1   -1    0    0    0  501 -0.00000000000E+00 -0.00000000000E+00 -0.20819983075E+04  0.20819983075E+04  0.50400000000E-02 0.  1.
    8880023    1    1    2    0    0 -0.17054029417E+03  0.53990678533E+02 -0.12245492421E+04  0.14019022926E+04  0.65864270000E+03 0.  1.
    8880022    1    1    2    0    0  0.17054029417E+03 -0.53990678533E+02 -0.75075985267E+03  0.78678522781E+03  0.15294330000E+03 0. -1.
<mgrwt>
<rscale>  0 0.52300708E+03</rscale>
<asrwt>0</asrwt>
<pdfrwt beam="1">  1        1 0.16413727E-01 0.68250215E+03</pdfrwt>
<pdfrwt beam="2">  1       -1 0.32030740E+00 0.68250215E+03</pdfrwt>
<totfact> 0.87849288E+00</totfact>
</mgrwt>
</event>
<event>
 4    2  0.3884658E-007  0.7017565E+03  0.7818608E-02  0.9989991E-01
         -1   -1    0    0    0  501 -0.00000000000E+00  0.00000000000E+00  0.91269997817E+02  0.91269997956E+02  0.50400000000E-02 0.  1.
          1   -1    0    0  501    0  0.00000000000E+00 -0.00000000000E+00 -0.29839686737E+04  0.29839686737E+04  0.50400000000E-02 0. -1.
    8880023    1    1    2    0    0 -0.14890186393E+03  0.19099790849E+03 -0.15371893959E+04  0.16897968550E+04  0.65864270000E+03 0.  1.
    8880022    1    1    2    0    0  0.14890186393E+03 -0.19099790849E+03 -0.13555092800E+04  0.13854418167E+04  0.15294330000E+03 0.  0.
<mgrwt>
<rscale>  0 0.56091290E+03</rscale>
<asrwt>0</asrwt>
<pdfrwt beam="1">  1        1 0.45907203E+00 0.70175649E+03</pdfrwt>
<pdfrwt beam="2">  1       -1 0.14041540E-01 0.70175649E+03</pdfrwt>
<totfact> 0.23957883E+01</totfact>
</mgrwt>
</event>
<event>
 4    2  0.3884658E-007  0.9316490E+03  0.7818608E-02  0.9477024E-01
          1   -1    0    0  501    0  0.00000000000E+00  0.00000000000E+00  0.13755490905E+04  0.13755490905E+04  0.50400000000E-02 0. -1.
         -1   -1    0    0    0  501 -0.00000000000E+00 -0.00000000000E+00 -0.17395547276E+04  0.17395547276E+04  0.50400000000E-02 0.  1.
    8880023    1    1    2    0    0 -0.58152826269E+03  0.30981365302E+03  0.11362748073E+04  0.14693843145E+04  0.65864270000E+03 0.  0.
    8880022    1    1    2    0    0  0.58152826269E+03 -0.30981365302E+03 -0.15002804443E+04  0.16457195036E+04  0.15294330000E+03 0.  0.
<mgrwt>
<rscale>  0 0.85999159E+03</rscale>
<asrwt>0</asrwt>
<pdfrwt beam="1">  1        1 0.21162294E+00 0.93164898E+03</pdfrwt>
<pdfrwt beam="2">  1       -1 0.26762380E+00 0.93164898E+03</pdfrwt>
<totfact> 0.43831223E-01</totfact>
</mgrwt>
</event>
<event>
 4    2  0.3884658E-007  0.1216281E+04  0.7818608E-02  0.9141456E-01
         -1   -1    0    0    0  501 -0.00000000000E+00  0.00000000000E+00  0.12737038383E+04  0.12737038383E+04  0.50400000000E-02 0.  1.
          1   -1    0    0  501    0  0.00000000000E+00 -0.00000000000E+00 -0.10658688696E+04  0.10658688696E+04  0.50400000000E-02 0. -1.
    8880023    1    1    2    0    0 -0.10015412142E+04  0.20602173282E+03 -0.19146265753E+03  0.12312586705E+04  0.65864270000E+03 0.  0.
    8880022    1    1    2    0    0  0.10015412142E+04 -0.20602173282E+03  0.39929762620E+03  0.11083140374E+04  0.15294330000E+03 0.  0.
<mgrwt>
<rscale>  0 0.11678679E+04</rscale>
<asrwt>0</asrwt>
<pdfrwt beam="1">  1        1 0.16397983E+00 0.12162812E+04</pdfrwt>
<pdfrwt beam="2">  1       -1 0.19595444E+00 0.12162812E+04</pdfrwt>
<totfact> 0.21151228E+00</totfact>
</mgrwt>
</event>
<event>
 4    2  0.3884658E-007  0.7164164E+03  0.7818608E-02  0.9934903E-01
         -1   -1    0    0    0  501 -0.00000000000E+00  0.00000000000E+00  0.51997174671E+03  0.51997174673E+03  0.50400000000E-02 0.  1.
          1   -1    0    0  501    0  0.00000000000E+00 -0.00000000000E+00 -0.62047199555E+03  0.62047199557E+03  0.50400000000E-02 0. -1.
    8880023    1    1    2    0    0 -0.13610868861E+03  0.24681308286E+03 -0.28437176969E+03  0.77079165969E+03  0.65864270000E+03 0.  0.
    8880022    1    1    2    0    0  0.13610868861E+03 -0.24681308286E+03  0.18387152085E+03  0.36965208261E+03  0.15294330000E+03 0.  0.
<mgrwt>
<rscale>  0 0.58599134E+03</rscale>
<asrwt>0</asrwt>
<pdfrwt beam="1">  1        1 0.95457230E-01 0.71641641E+03</pdfrwt>
<pdfrwt beam="2">  1       -1 0.79995653E-01 0.71641641E+03</pdfrwt>
<totfact> 0.52144124E+01</totfact>
</mgrwt>
</event>
<event>
 4    2  0.3884658E-007  0.6787965E+03  0.7818608E-02  0.1010013E+00
         -1   -1    0    0    0  501 -0.00000000000E+00  0.00000000000E+00  0.53125511563E+03  0.53125511565E+03  0.50400000000E-02 0.  1.
          1   -1    0    0  501    0  0.00000000000E+00 -0.00000000000E+00 -0.43457332684E+03  0.43457332687E+03  0.50400000000E-02 0. -1.
    8880023    1    1    2    0    0  0.48466521924E+02  0.15686128178E+03 -0.75522638358E+02  0.68298487585E+03  0.65864270000E+03 0. -1.
    8880022    1    1    2    0    0 -0.48466521924E+02 -0.15686128178E+03  0.17220442715E+03  0.28284356668E+03  0.15294330000E+03 0. -1.
<mgrwt>
<rscale>  0 0.51469558E+03</rscale>
<asrwt>0</asrwt>
<pdfrwt beam="1">  1        1 0.66857435E-01 0.67879649E+03</pdfrwt>
<pdfrwt beam="2">  1       -1 0.81731556E-01 0.67879649E+03</pdfrwt>
<totfact> 0.81897949E+01</totfact>
</mgrwt>
</event>
<event>
 4    2  0.3884658E-007  0.6757226E+03  0.7818608E-02  0.1011855E+00
          1   -1    0    0  501    0  0.00000000000E+00  0.00000000000E+00  0.19675702543E+04  0.19675702544E+04  0.50400000000E-02 0. -1.
         -1   -1    0    0    0  501 -0.00000000000E+00 -0.00000000000E+00 -0.15269694716E+03  0.15269694725E+03  0.50400000000E-02 0.  1.
    8880023    1    1    2    0    0  0.15062699359E+03 -0.10115923915E+02  0.17781981151E+04  0.19022590691E+04  0.65864270000E+03 0.  1.
    8880022    1    1    2    0    0 -0.15062699359E+03  0.10115923915E+02  0.36675192093E+02  0.21800813252E+03  0.15294330000E+03 0.  0.
<mgrwt>
<rscale>  0 0.50744150E+03</rscale>
<asrwt>0</asrwt>
<pdfrwt beam="1">  1        1 0.30270313E+00 0.67572260E+03</pdfrwt>
<pdfrwt beam="2">  1       -1 0.23491837E-01 0.67572260E+03</pdfrwt>
<totfact> 0.50915959E+01</totfact>
</mgrwt>
</event>
<event>
 4    2  0.3884658E-007  0.7267081E+03  0.7818608E-02  0.9900509E-01
          1   -1    0    0  501    0  0.00000000000E+00  0.00000000000E+00  0.99506371166E+03  0.99506371168E+03  0.50400000000E-02 0. -1.
         -1   -1    0    0    0  501 -0.00000000000E+00 -0.00000000000E+00 -0.39280996388E+03  0.39280996392E+03  0.50400000000E-02 0.  1.
    8880023    1    1    2    0    0  0.29851658437E+03  0.71988021847E+02  0.72212003090E+03  0.10244813184E+04  0.65864270000E+03 0. -1.
    8880022    1    1    2    0    0 -0.29851658437E+03 -0.71988021847E+02 -0.11986628312E+03  0.36339235721E+03  0.15294330000E+03 0.  0.
<mgrwt>
<rscale>  0 0.60236625E+03</rscale>
<asrwt>0</asrwt>
<pdfrwt beam="1">  1        1 0.15308672E+00 0.72670808E+03</pdfrwt>
<pdfrwt beam="2">  1       -1 0.60432302E-01 0.72670808E+03</pdfrwt>
<totfact> 0.43549854E+01</totfact>
</mgrwt>
</event>
<event>
 4    2  0.3884658E-007  0.1119848E+04  0.7818608E-02  0.9239273E-01
         -1   -1    0    0    0  501 -0.00000000000E+00  0.00000000000E+00  0.13205291585E+04  0.13205291585E+04  0.50400000000E-02 0.  1.
          1   -1    0    0  501    0  0.00000000000E+00 -0.00000000000E+00 -0.13039608246E+04  0.13039608246E+04  0.50400000000E-02 0. -1.
    8880023    1    1    2    0    0  0.74595864303E+03  0.51360966603E+03 -0.81536368618E+03  0.13852354793E+04  0.65864270000E+03 0.  0.
    8880022    1    1    2    0    0 -0.74595864303E+03 -0.51360966603E+03  0.83193202010E+03  0.12392545038E+04  0.15294330000E+03 0.  0.
<mgrwt>
<rscale>  0 0.10657099E+04</rscale>
<asrwt>0</asrwt>
<pdfrwt beam="1">  1        1 0.20060936E+00 0.11198479E+04</pdfrwt>
<pdfrwt beam="2">  1       -1 0.20315833E+00 0.11198479E+04</pdfrwt>
<totfact> 0.12732086E+00</totfact>
</mgrwt>
</event>
<event>
 4    2  0.3884658E-007  0.6616040E+03  0.7818608E-02  0.1022570E+00
          1   -1    0    0  501    0  0.00000000000E+00  0.00000000000E+00  0.13012320991E+04  0.13012320991E+04  0.50400000000E-02 0. -1.
         -1   -1    0    0    0  501 -0.00000000000E+00 -0.00000000000E+00 -0.14110362429E+03  0.14110362438E+03  0.50400000000E-02 0.  1.
    8880023    1    1    2    0    0  0.26094202218E+02  0.56822108452E+02  0.74963759683E+03  0.99983818303E+03  0.65864270000E+03 0.  1.
    8880022    1    1    2    0    0 -0.26094202218E+02 -0.56822108452E+02  0.41049087800E+03  0.44249754048E+03  0.15294330000E+03 0. -1.
<mgrwt>
<rscale>  0 0.46770449E+03</rscale>
<asrwt>0</asrwt>
<pdfrwt beam="1">  1        1 0.20018956E+00 0.66160401E+03</pdfrwt>
<pdfrwt beam="2">  1       -1 0.21708249E-01 0.66160401E+03</pdfrwt>
<totfact> 0.16473024E+02</totfact>
</mgrwt>
</event>
<event>
 4    2  0.3884658E-007  0.6902955E+03  0.7818608E-02  0.1004012E+00
          1   -1    0    0  501    0  0.00000000000E+00  0.00000000000E+00  0.21085071139E+04  0.21085071139E+04  0.50400000000E-02 0. -1.
         -1   -1    0    0    0  501 -0.00000000000E+00 -0.00000000000E+00 -0.15563763995E+03  0.15563764004E+03  0.50400000000E-02 0.  1.
    8880023    1    1    2    0    0  0.95144484900E+02 -0.18342628126E+03  0.18711038032E+04  0.19943764244E+04  0.65864270000E+03 0. -1.
    8880022    1    1    2    0    0 -0.95144484900E+02  0.18342628126E+03  0.81765670687E+02  0.26976832947E+03  0.15294330000E+03 0.  0.
<mgrwt>
<rscale>  0 0.53925316E+03</rscale>
<asrwt>0</asrwt>
<pdfrwt beam="1">  1        1 0.32438568E+00 0.69029550E+03</pdfrwt>
<pdfrwt beam="2">  1       -1 0.23944254E-01 0.69029550E+03</pdfrwt>
<totfact> 0.39624549E+01</totfact>
</mgrwt>
</event>
<event>
 4    2  0.3884658E-007  0.7021125E+03  0.7818608E-02  0.9988548E-01
          1   -1    0    0  501    0  0.00000000000E+00  0.00000000000E+00  0.10581023457E+04  0.10581023457E+04  0.50400000000E-02 0. -1.
         -1   -1    0    0    0  501 -0.00000000000E+00 -0.00000000000E+00 -0.43467223426E+03  0.43467223429E+03  0.50400000000E-02 0.  1.
    8880023    1    1    2    0    0  0.23872392505E+03  0.46504318237E+02  0.86733660223E+03  0.11159008701E+04  0.65864270000E+03 0. -1.
    8880022    1    1    2    0    0 -0.23872392505E+03 -0.46504318237E+02 -0.24390649076E+03  0.37687370995E+03  0.15294330000E+03 0.  0.
<mgrwt>
<rscale>  0 0.56155246E+03</rscale>
<asrwt>0</asrwt>
<pdfrwt beam="1">  1        1 0.16278497E+00 0.70211251E+03</pdfrwt>
<pdfrwt beam="2">  1       -1 0.66872652E-01 0.70211251E+03</pdfrwt>
<totfact> 0.31922769E+01</totfact>
</mgrwt>
</event>
<event>
 4    2  0.3884658E-007  0.6868901E+03  0.7818608E-02  0.1005667E+00
          1   -1    0    0  501    0  0.00000000000E+00  0.00000000000E+00  0.10941238782E+04  0.10941238782E+04  0.50400000000E-02 0. -1.
         -1   -1    0    0    0  501 -0.00000000000E+00 -0.00000000000E+00 -0.80007067285E+03  0.80007067286E+03  0.50400000000E-02 0.  1.
    8880023    1    1    2    0    0 -0.98765224847E+02  0.16808684905E+03  0.96183391237E+03  0.11819231954E+04  0.65864270000E+03 0. -1.
    8880022    1    1    2    0    0  0.98765224847E+02 -0.16808684905E+03 -0.66778070703E+03  0.71227135571E+03  0.15294330000E+03 0.  0.
<mgrwt>
<rscale>  0 0.53233614E+03</rscale>
<asrwt>0</asrwt>
<pdfrwt beam="1">  1        1 0.16832675E+00 0.68689007E+03</pdfrwt>
<pdfrwt beam="2">  1       -1 0.12308780E+00 0.68689007E+03</pdfrwt>
<totfact> 0.77827727E+00</totfact>
</mgrwt>
</event>
<event>
 4    2  0.3884658E-007  0.9415971E+03  0.7818608E-02  0.9462309E-01
         -1   -1    0    0    0  501 -0.00000000000E+00  0.00000000000E+00  0.11320802088E+04  0.11320802088E+04  0.50400000000E-02 0.  1.
          1   -1    0    0  501    0  0.00000000000E+00 -0.00000000000E+00 -0.14022569628E+04  0.14022569628E+04  0.50400000000E-02 0. -1.
    8880023    1    1    2    0    0 -0.48242059536E+03 -0.46911112584E+03 -0.11046502665E+04  0.14515017385E+04  0.65864270000E+03 0.  0.
    8880022    1    1    2    0    0  0.48242059536E+03  0.46911112584E+03  0.83447351249E+03  0.10828354331E+04  0.15294330000E+03 0.  0.
<mgrwt>
<rscale>  0 0.87120623E+03</rscale>
<asrwt>0</asrwt>
<pdfrwt beam="1">  1        1 0.21573184E+00 0.94159709E+03</pdfrwt>
<pdfrwt beam="2">  1       -1 0.17416619E+00 0.94159709E+03</pdfrwt>
<totfact> 0.17800750E+00</totfact>
</mgrwt>
</event>
<event>
 4    2  0.3884658E-007  0.6674503E+03  0.7818608E-02  0.1017561E+00
          1   -1    0    0  501    0  0.00000000000E+00  0.00000000000E+00  0.24176799930E+03  0.24176799936E+03  0.50400000000E-02 0. -1.
         -1   -1    0    0    0  501 -0.00000000000E+00 -0.00000000000E+00 -0.76422785253E+03  0.76422785255E+03  0.50400000000E-02 0.  1.
    8880023    1    1    2    0    0 -0.36948649919E+02 -0.10156046015E+03 -0.45106849950E+03  0.80557602205E+03  0.65864270000E+03 0.  1.
    8880022    1    1    2    0    0  0.36948649919E+02  0.10156046015E+03 -0.71391353729E+02  0.20041982986E+03  0.15294330000E+03 0.  0.
<mgrwt>
<rscale>  0 0.48577294E+03</rscale>
<asrwt>0</asrwt>
<pdfrwt beam="1">  1        1 0.37195077E-01 0.66745032E+03</pdfrwt>
<pdfrwt beam="2">  1       -1 0.11757352E+00 0.66745032E+03</pdfrwt>
<totfact> 0.77336346E+01</totfact>
</mgrwt>
</event>
<event>
 4    2  0.3884658E-007  0.7440583E+03  0.7818608E-02  0.9848280E-01
          1   -1    0    0  501    0  0.00000000000E+00  0.00000000000E+00  0.48226403451E+03  0.48226403453E+03  0.50400000000E-02 0. -1.
         -1   -1    0    0    0  501 -0.00000000000E+00 -0.00000000000E+00 -0.66310304087E+03  0.66310304089E+03  0.50400000000E-02 0.  1.
    8880023    1    1    2    0    0  0.21710871988E+03  0.26958539255E+03 -0.18582214334E+03  0.76691104787E+03  0.65864270000E+03 0.  1.
    8880022    1    1    2    0    0 -0.21710871988E+03 -0.26958539255E+03  0.49831369727E+01  0.37845602756E+03  0.15294330000E+03 0. -1.
<mgrwt>
<rscale>  0 0.62834715E+03</rscale>
<asrwt>0</asrwt>
<pdfrwt beam="1">  1        1 0.74194467E-01 0.74405825E+03</pdfrwt>
<pdfrwt beam="2">  1       -1 0.10201585E+00 0.74405825E+03</pdfrwt>
<totfact> 0.43360307E+01</totfact>
</mgrwt>
</event>
<event>
 4    2  0.3884658E-007  0.1059608E+04  0.7818608E-02  0.9307420E-01
          1   -1    0    0  501    0  0.00000000000E+00  0.00000000000E+00  0.21306214306E+04  0.21306214306E+04  0.50400000000E-02 0. -1.
         -1   -1    0    0    0  501 -0.00000000000E+00 -0.00000000000E+00 -0.60315657811E+03  0.60315657813E+03  0.50400000000E-02 0.  1.
    8880023    1    1    2    0    0  0.69674700913E+03  0.45111168639E+03  0.15638112840E+04  0.18889875824E+04  0.65864270000E+03 0.  0.
    8880022    1    1    2    0    0 -0.69674700913E+03 -0.45111168639E+03 -0.36346431491E+02  0.84479042633E+03  0.15294330000E+03 0. -1.
<mgrwt>
<rscale>  0 0.10010263E+04</rscale>
<asrwt>0</asrwt>
<pdfrwt beam="1">  1        1 0.32778791E+00 0.10596076E+04</pdfrwt>
<pdfrwt beam="2">  1       -1 0.92793319E-01 0.10596076E+04</pdfrwt>
<totfact> 0.27547923E+00</totfact>
</mgrwt>
</event>
<event>
 4    2  0.3884658E-007  0.7209274E+03  0.7818608E-02  0.9919460E-01
          1   -1    0    0  501    0  0.00000000000E+00  0.00000000000E+00  0.13450712573E+04  0.13450712573E+04  0.50400000000E-02 0. -1.
         -1   -1    0    0    0  501 -0.00000000000E+00 -0.00000000000E+00 -0.52277478553E+03  0.52277478556E+03  0.50400000000E-02 0.  1.
    8880023    1    1    2    0    0 -0.23693383623E+03 -0.17259323374E+03  0.11787035988E+04  0.13816940498E+04  0.65864270000E+03 0. -1.
    8880022    1    1    2    0    0  0.23693383623E+03  0.17259323374E+03 -0.35640712709E+03  0.48615199304E+03  0.15294330000E+03 0.  0.
<mgrwt>
<rscale>  0 0.59327351E+03</rscale>
<asrwt>0</asrwt>
<pdfrwt beam="1">  1        1 0.20693404E+00 0.72092737E+03</pdfrwt>
<pdfrwt beam="2">  1       -1 0.80426891E-01 0.72092737E+03</pdfrwt>
<totfact> 0.13463466E+01</totfact>
</mgrwt>
</event>
<event>
 4    2  0.3884658E-007  0.7094335E+03  0.7818608E-02  0.9960110E-01
         -1   -1    0    0    0  501 -0.00000000000E+00  0.00000000000E+00  0.39543192476E+03  0.39543192479E+03  0.50400000000E-02 0.  1.
          1   -1    0    0  501    0  0.00000000000E+00 -0.00000000000E+00 -0.68530777838E+03  0.68530777840E+03  0.50400000000E-02 0. -1.
    8880023    1    1    2    0    0  0.10019138664E+03 -0.24381844829E+03 -0.87272625303E+02  0.71478141209E+03  0.65864270000E+03 0.  0.
    8880022    1    1    2    0    0 -0.10019138664E+03  0.24381844829E+03 -0.20260322832E+03  0.36595829110E+03  0.15294330000E+03 0.  0.
<mgrwt>
<rscale>  0 0.57434461E+03</rscale>
<asrwt>0</asrwt>
<pdfrwt beam="1">  1        1 0.10543197E+00 0.70943355E+03</pdfrwt>
<pdfrwt beam="2">  1       -1 0.60835681E-01 0.70943355E+03</pdfrwt>
<totfact> 0.78876303E+01</totfact>
</mgrwt>
</event>
<event>
 4    2  0.3884658E-007  0.6640194E+03  0.7818608E-02  0.1020371E+00
         -1   -1    0    0    0  501 -0.00000000000E+00  0.00000000000E+00  0.11422162594E+04  0.11422162594E+04  0.50400000000E-02 0.  1.
          1   -1    0    0  501    0  0.00000000000E+00 -0.00000000000E+00 -0.60843884625E+03  0.60843884628E+03  0.50400000000E-02 0. -1.
    8880023    1    1    2    0    0 -0.15707732756E+02 -0.82854174164E+02 -0.41691480361E+03  0.78405338261E+03  0.65864270000E+03 0. -1.
    8880022    1    1    2    0    0  0.15707732756E+02  0.82854174164E+02  0.95069221677E+03  0.96660172310E+03  0.15294330000E+03 0.  0.
<mgrwt>
<rscale>  0 0.47553091E+03</rscale>
<asrwt>0</asrwt>
<pdfrwt beam="1">  1        1 0.93605977E-01 0.66401939E+03</pdfrwt>
<pdfrwt beam="2">  1       -1 0.17572558E+00 0.66401939E+03</pdfrwt>
<totfact> 0.78387512E+00</totfact>
</mgrwt>
</event>
<event>
 4    2  0.3884658E-007  0.9162394E+03  0.7818608E-02  0.9500449E-01
         -1   -1    0    0    0  501 -0.00000000000E+00  0.00000000000E+00  0.52050736231E+03  0.52050736234E+03  0.50400000000E-02 0.  1.
          1   -1    0    0  501    0  0.00000000000E+00 -0.00000000000E+00 -0.14092758263E+04  0.14092758264E+04  0.50400000000E-02 0. -1.
    8880023    1    1    2    0    0 -0.60880155440E+03 -0.18720330598E+03 -0.88626519166E+03  0.12747394270E+04  0.65864270000E+03 0.  0.
    8880022    1    1    2    0    0  0.60880155440E+03  0.18720330598E+03 -0.25032723706E+01  0.65504376174E+03  0.15294330000E+03 0.  0.
<mgrwt>
<rscale>  0 0.84250697E+03</rscale>
<asrwt>0</asrwt>
<pdfrwt beam="1">  1        1 0.21681166E+00 0.91623939E+03</pdfrwt>
<pdfrwt beam="2">  1       -1 0.80078056E-01 0.91623939E+03</pdfrwt>
<totfact> 0.11951156E+01</totfact>
</mgrwt>
</event>
<event>
 4    2  0.3884658E-007  0.7896725E+03  0.7818608E-02  0.9733588E-01
         -1   -1    0    0    0  501 -0.00000000000E+00  0.00000000000E+00  0.14011237963E+04  0.14011237963E+04  0.50400000000E-02 0.  1.
          1   -1    0    0  501    0  0.00000000000E+00 -0.00000000000E+00 -0.33551897269E+03  0.33551897273E+03  0.50400000000E-02 0. -1.
    8880023    1    1    2    0    0  0.18754551195E+03  0.39319092526E+03  0.30429328594E+03  0.84627243420E+03  0.65864270000E+03 0. -1.
    8880022    1    1    2    0    0 -0.18754551195E+03 -0.39319092526E+03  0.76131153765E+03  0.89037033482E+03  0.15294330000E+03 0.  0.
<mgrwt>
<rscale>  0 0.69051721E+03</rscale>
<asrwt>0</asrwt>
<pdfrwt beam="1">  1        1 0.51618304E-01 0.78967248E+03</pdfrwt>
<pdfrwt beam="2">  1       -1 0.21555750E+00 0.78967248E+03</pdfrwt>
<totfact> 0.91744352E+00</totfact>
</mgrwt>
</event>
<event>
 4    2  0.3884658E-007  0.1077603E+04  0.7818608E-02  0.9286412E-01
         -1   -1    0    0    0  501 -0.00000000000E+00  0.00000000000E+00  0.10462208432E+04  0.10462208432E+04  0.50400000000E-02 0.  1.
          1   -1    0    0  501    0  0.00000000000E+00 -0.00000000000E+00 -0.95428987108E+03  0.95428987109E+03  0.50400000000E-02 0. -1.
    8880023    1    1    2    0    0 -0.84594347145E+03  0.10861438537E+03  0.28098519239E+03  0.11136338385E+04  0.65864270000E+03 0.  0.
    8880022    1    1    2    0    0  0.84594347145E+03 -0.10861438537E+03 -0.18905422029E+03  0.88687687580E+03  0.15294330000E+03 0.  0.
<mgrwt>
<rscale>  0 0.10204347E+04</rscale>
<asrwt>0</asrwt>
<pdfrwt beam="1">  1        1 0.14681383E+00 0.10776027E+04</pdfrwt>
<pdfrwt beam="2">  1       -1 0.16095705E+00 0.10776027E+04</pdfrwt>
<totfact> 0.46985642E+00</totfact>
</mgrwt>
</event>
<event>
 4    2  0.3884658E-007  0.7534451E+03  0.7818608E-02  0.9822383E-01
         -1   -1    0    0    0  501 -0.00000000000E+00  0.00000000000E+00  0.24106425988E+03  0.24106425994E+03  0.50400000000E-02 0.  1.
          1   -1    0    0  501    0  0.00000000000E+00 -0.00000000000E+00 -0.18539075793E+04  0.18539075793E+04  0.50400000000E-02 0. -1.
    8880023    1    1    2    0    0 -0.76799612352E+02 -0.35773058216E+03 -0.47664005112E+03  0.89155218269E+03  0.65864270000E+03 0.  0.
    8880022    1    1    2    0    0  0.76799612352E+02  0.35773058216E+03 -0.11362032683E+04  0.12034196566E+04  0.15294330000E+03 0.  0.
<mgrwt>
<rscale>  0 0.64175070E+03</rscale>
<asrwt>0</asrwt>
<pdfrwt beam="1">  1        1 0.28521654E+00 0.75344512E+03</pdfrwt>
<pdfrwt beam="2">  1       -1 0.37086810E-01 0.75344512E+03</pdfrwt>
<totfact> 0.27121129E+01</totfact>
</mgrwt>
</event>
<event>
 4    2  0.3884658E-007  0.8786688E+03  0.7818608E-02  0.9561181E-01
          1   -1    0    0  501    0  0.00000000000E+00  0.00000000000E+00  0.11839275048E+04  0.11839275048E+04  0.50400000000E-02 0. -1.
         -1   -1    0    0    0  501 -0.00000000000E+00 -0.00000000000E+00 -0.62624588596E+03  0.62624588598E+03  0.50400000000E-02 0.  1.
    8880023    1    1    2    0    0 -0.51626081646E+03  0.26781232281E+03  0.77413037011E+03  0.11710408648E+04  0.65864270000E+03 0. -1.
    8880022    1    1    2    0    0  0.51626081646E+03 -0.26781232281E+03 -0.21644875125E+03  0.63913252600E+03  0.15294330000E+03 0.  0.
<mgrwt>
<rscale>  0 0.79919639E+03</rscale>
<asrwt>0</asrwt>
<pdfrwt beam="1">  1        1 0.18214269E+00 0.87866881E+03</pdfrwt>
<pdfrwt beam="2">  1       -1 0.96345522E-01 0.87866881E+03</pdfrwt>
<totfact> 0.11581653E+01</totfact>
</mgrwt>
</event>
<event>
 4    2  0.3884658E-007  0.1332896E+04  0.7818608E-02  0.9037660E-01
         -1   -1    0    0    0  501 -0.00000000000E+00  0.00000000000E+00  0.49157203072E+03  0.49157203075E+03  0.50400000000E-02 0.  1.
          1   -1    0    0  501    0  0.00000000000E+00 -0.00000000000E+00 -0.38337307451E+04  0.38337307451E+04  0.50400000000E-02 0. -1.
    8880023    1    1    2    0    0 -0.99073427637E+03  0.60103876855E+03 -0.26514655232E+04  0.29676390675E+04  0.65864270000E+03 0.  0.
    8880022    1    1    2    0    0  0.99073427637E+03 -0.60103876855E+03 -0.69069319111E+03  0.13576637083E+04  0.15294330000E+03 0.  0.
<mgrwt>
<rscale>  0 0.12898413E+04</rscale>
<asrwt>0</asrwt>
<pdfrwt beam="1">  1        1 0.58980471E+00 0.13328962E+04</pdfrwt>
<pdfrwt beam="2">  1       -1 0.75626469E-01 0.13328962E+04</pdfrwt>
<totfact> 0.23301003E-01</totfact>
</mgrwt>
</event>
<event>
 4    2  0.3884658E-007  0.7059584E+03  0.7818608E-02  0.9973327E-01
          1   -1    0    0  501    0  0.00000000000E+00  0.00000000000E+00  0.40426532174E+03  0.40426532177E+03  0.50400000000E-02 0. -1.
         -1   -1    0    0    0  501 -0.00000000000E+00 -0.00000000000E+00 -0.94544915349E+03  0.94544915351E+03  0.50400000000E-02 0.  1.
    8880023    1    1    2    0    0  0.25192905452E+03 -0.33148540820E+02  0.29491848740E+02  0.70657416431E+03  0.65864270000E+03 0. -1.
    8880022    1    1    2    0    0 -0.25192905452E+03  0.33148540820E+02 -0.57067568049E+03  0.64314031097E+03  0.15294330000E+03 0.  0.
<mgrwt>
<rscale>  0 0.56835437E+03</rscale>
<asrwt>0</asrwt>
<pdfrwt beam="1">  1        1 0.62194665E-01 0.70595841E+03</pdfrwt>
<pdfrwt beam="2">  1       -1 0.14545372E+00 0.70595841E+03</pdfrwt>
<totfact> 0.23078879E+01</totfact>
</mgrwt>
</event>
<event>
 4    2  0.3884658E-007  0.7738560E+03  0.7818608E-02  0.9770472E-01
          1   -1    0    0  501    0  0.00000000000E+00  0.00000000000E+00  0.18822090557E+04  0.18822090557E+04  0.50400000000E-02 0. -1.
         -1   -1    0    0    0  501 -0.00000000000E+00 -0.00000000000E+00 -0.22656567778E+03  0.22656567783E+03  0.50400000000E-02 0.  1.
    8880023    1    1    2    0    0 -0.23024154144E+02  0.40560180762E+03  0.14141284517E+04  0.16120212226E+04  0.65864270000E+03 0.  0.
    8880022    1    1    2    0    0  0.23024154144E+02 -0.40560180762E+03  0.24151492625E+03  0.49675351095E+03  0.15294330000E+03 0.  0.
<mgrwt>
<rscale>  0 0.66971527E+03</rscale>
<asrwt>0</asrwt>
<pdfrwt beam="1">  1        1 0.28957062E+00 0.77385602E+03</pdfrwt>
<pdfrwt beam="2">  1       -1 0.34856259E-01 0.77385602E+03</pdfrwt>
<totfact> 0.28935764E+01</totfact>
</mgrwt>
</event>
<event>
 4    2  0.3884658E-007  0.9490230E+03  0.7818608E-02  0.9451521E-01
          1   -1    0    0  501    0  0.00000000000E+00  0.00000000000E+00  0.35356604973E+04  0.35356604973E+04  0.50400000000E-02 0. -1.
         -1   -1    0    0    0  501 -0.00000000000E+00 -0.00000000000E+00 -0.28495679309E+03  0.28495679314E+03  0.50400000000E-02 0.  1.
    8880023    1    1    2    0    0  0.66409603395E+03  0.16065794073E+03  0.71004094113E+03  0.11852437979E+04  0.65864270000E+03 0.  1.
    8880022    1    1    2    0    0 -0.66409603395E+03 -0.16065794073E+03  0.25406627630E+04  0.26353734925E+04  0.15294330000E+03 0.  0.
<mgrwt>
<rscale>  0 0.87954310E+03</rscale>
<asrwt>0</asrwt>
<pdfrwt beam="1">  1        1 0.54394774E+00 0.94902304E+03</pdfrwt>
<pdfrwt beam="2">  1       -1 0.43839509E-01 0.94902304E+03</pdfrwt>
<totfact> 0.12630477E+00</totfact>
</mgrwt>
</event>
<event>
 4    2  0.3884658E-007  0.9276579E+03  0.7818608E-02  0.9483016E-01
         -1   -1    0    0    0  501 -0.00000000000E+00  0.00000000000E+00  0.10098697086E+04  0.10098697086E+04  0.50400000000E-02 0.  1.
          1   -1    0    0  501    0  0.00000000000E+00 -0.00000000000E+00 -0.95542201923E+03  0.95542201924E+03  0.50400000000E-02 0. -1.
    8880023    1    1    2    0    0  0.52198184522E+03 -0.39277728548E+03 -0.53615765970E+03  0.10714542851E+04  0.65864270000E+03 0. -1.
    8880022    1    1    2    0    0 -0.52198184522E+03  0.39277728548E+03  0.59060534906E+03  0.89383744276E+03  0.15294330000E+03 0.  0.
<mgrwt>
<rscale>  0 0.85547678E+03</rscale>
<asrwt>0</asrwt>
<pdfrwt beam="1">  1        1 0.14698800E+00 0.92765794E+03</pdfrwt>
<pdfrwt beam="2">  1       -1 0.15536457E+00 0.92765794E+03</pdfrwt>
<totfact> 0.52609913E+00</totfact>
</mgrwt>
</event>
<event>
 4    2  0.3884658E-007  0.8964513E+03  0.7818608E-02  0.9531753E-01
          1   -1    0    0  501    0  0.00000000000E+00  0.00000000000E+00  0.82355300132E+03  0.82355300133E+03  0.50400000000E-02 0. -1.
         -1   -1    0    0    0  501 -0.00000000000E+00 -0.00000000000E+00 -0.96256964300E+03  0.96256964301E+03  0.50400000000E-02 0.  1.
    8880023    1    1    2    0    0  0.52980547425E+03 -0.29853126840E+03 -0.53551371418E+03  0.10442221522E+04  0.65864270000E+03 0.  0.
    8880022    1    1    2    0    0 -0.52980547425E+03  0.29853126840E+03  0.39649707250E+03  0.74190049216E+03  0.15294330000E+03 0.  0.
<mgrwt>
<rscale>  0 0.81982773E+03</rscale>
<asrwt>0</asrwt>
<pdfrwt beam="1">  1        1 0.12670046E+00 0.89645132E+03</pdfrwt>
<pdfrwt beam="2">  1       -1 0.14808764E+00 0.89645132E+03</pdfrwt>
<totfact> 0.77230772E+00</totfact>
</mgrwt>
</event>
<event>
 4    2  0.3884658E-007  0.7015377E+03  0.7818608E-02  0.9990881E-01
         -1   -1    0    0    0  501 -0.00000000000E+00  0.00000000000E+00  0.23571242521E+03  0.23571242526E+03  0.50400000000E-02 0.  1.
          1   -1    0    0  501    0  0.00000000000E+00 -0.00000000000E+00 -0.23137833432E+04  0.23137833432E+04  0.50400000000E-02 0. -1.
    8880023    1    1    2    0    0 -0.45266055945E+02 -0.23726763597E+03 -0.21442035211E+04  0.22560505076E+04  0.65864270000E+03 0.  0.
    8880022    1    1    2    0    0  0.45266055945E+02  0.23726763597E+03  0.66132603099E+02  0.29344526083E+03  0.15294330000E+03 0.  0.
<mgrwt>
<rscale>  0 0.56051900E+03</rscale>
<asrwt>0</asrwt>
<pdfrwt beam="1">  1        1 0.35596665E+00 0.70153771E+03</pdfrwt>
<pdfrwt beam="2">  1       -1 0.36263452E-01 0.70153771E+03</pdfrwt>
<totfact> 0.14001292E+01</totfact>
</mgrwt>
</event>
<event>
 4    2  0.3884658E-007  0.6586464E+03  0.7818608E-02  0.1025588E+00
         -1   -1    0    0    0  501 -0.00000000000E+00  0.00000000000E+00  0.22665389972E+03  0.22665389977E+03  0.50400000000E-02 0.  1.
          1   -1    0    0  501    0  0.00000000000E+00 -0.00000000000E+00 -0.79542864695E+03  0.79542864697E+03  0.50400000000E-02 0. -1.
    8880023    1    1    2    0    0 -0.15653445270E+01 -0.15644204646E+01 -0.56704774863E+03  0.86911348695E+03  0.65864270000E+03 0. -1.
    8880022    1    1    2    0    0  0.15653445270E+01  0.15644204646E+01 -0.17269986093E+01  0.15296905979E+03  0.15294330000E+03 0.  0.
<mgrwt>
<rscale>  0 0.45722843E+03</rscale>
<asrwt>0</asrwt>
<pdfrwt beam="1">  1        1 0.12237364E+00 0.65864642E+03</pdfrwt>
<pdfrwt beam="2">  1       -1 0.34869831E-01 0.65864642E+03</pdfrwt>
<totfact> 0.17783308E+02</totfact>
</mgrwt>
</event>
<event>
 4    2  0.3884658E-007  0.8559481E+03  0.7818608E-02  0.9600812E-01
         -1   -1    0    0    0  501 -0.00000000000E+00  0.00000000000E+00  0.29886447088E+03  0.29886447092E+03  0.50400000000E-02 0.  1.
          1   -1    0    0  501    0  0.00000000000E+00 -0.00000000000E+00 -0.31720995939E+04  0.31720995939E+04  0.50400000000E-02 0. -1.
    8880023    1    1    2    0    0  0.23902207005E+03 -0.49163535138E+03 -0.27632129946E+04  0.28927483694E+04  0.65864270000E+03 0.  0.
    8880022    1    1    2    0    0 -0.23902207005E+03  0.49163535138E+03 -0.11002212841E+03  0.57821569544E+03  0.15294330000E+03 0.  0.
<mgrwt>
<rscale>  0 0.77242453E+03</rscale>
<asrwt>0</asrwt>
<pdfrwt beam="1">  1        1 0.48801530E+00 0.85594806E+03</pdfrwt>
<pdfrwt beam="2">  1       -1 0.45979152E-01 0.85594806E+03</pdfrwt>
<totfact> 0.22153215E+00</totfact>
</mgrwt>
</event>
<event>
 4    2  0.4633534E-007  0.7015546E+03  0.7818608E-02  0.9990812E-01
          1   -1    0    0  501    0  0.00000000000E+00  0.00000000000E+00  0.97979076188E+03  0.97979076189E+03  0.50400000000E-02 0. -1.
         -1   -1    0    0    0  501 -0.00000000000E+00 -0.00000000000E+00 -0.12721516976E+04  0.12721516976E+04  0.50400000000E-02 0.  1.
    8880023    1    1    2    0    0 -0.12811724083E+03 -0.20482814699E+03  0.83401250939E+03  0.10898420387E+04  0.65864270000E+03 0. -1.
    8880022    1    1    2    0    0  0.12811724083E+03  0.20482814699E+03 -0.11263734451E+04  0.11621004208E+04  0.15294330000E+03 0.  0.
<mgrwt>
<rscale>  0 0.56054937E+03</rscale>
<asrwt>0</asrwt>
<pdfrwt beam="1">  1        1 0.15073704E+00 0.70155456E+03</pdfrwt>
<pdfrwt beam="2">  1       -1 0.19571564E+00 0.70155456E+03</pdfrwt>
<totfact> 0.26572970E+00</totfact>
</mgrwt>
</event>
<event>
 4    2  0.3884658E-007  0.7040306E+03  0.7818608E-02  0.9980874E-01
         -1   -1    0    0    0  501 -0.00000000000E+00  0.00000000000E+00  0.45242865397E+03  0.45242865399E+03  0.50400000000E-02 0.  1.
          1   -1    0    0  501    0  0.00000000000E+00 -0.00000000000E+00 -0.19453812302E+04  0.19453812302E+04  0.50400000000E-02 0. -1.
    8880023    1    1    2    0    0 -0.11679071919E+02 -0.24841992391E+03 -0.18247455878E+04  0.19558516114E+04  0.65864270000E+03 0. -1.
    8880022    1    1    2    0    0  0.11679071919E+02  0.24841992391E+03  0.33179301160E+03  0.44195827278E+03  0.15294330000E+03 0.  0.
<mgrwt>
<rscale>  0 0.56496872E+03</rscale>
<asrwt>0</asrwt>
<pdfrwt beam="1">  1        1 0.29928941E+00 0.70403059E+03</pdfrwt>
<pdfrwt beam="2">  1       -1 0.69604410E-01 0.70403059E+03</pdfrwt>
<totfact> 0.71494377E+00</totfact>
</mgrwt>
</event>
<event>
 4    2  0.3884658E-007  0.1007631E+04  0.7818608E-02  0.9371642E-01
         -1   -1    0    0    0  501 -0.00000000000E+00  0.00000000000E+00  0.99025688799E+03  0.99025688800E+03  0.50400000000E-02 0.  1.
          1   -1    0    0  501    0  0.00000000000E+00 -0.00000000000E+00 -0.15584945774E+04  0.15584945774E+04  0.50400000000E-02 0. -1.
    8880023    1    1    2    0    0 -0.57572273175E+03  0.50005242340E+03 -0.11854640846E+04  0.15558420203E+04  0.65864270000E+03 0.  0.
    8880022    1    1    2    0    0  0.57572273175E+03 -0.50005242340E+03  0.61722639527E+03  0.99290944503E+03  0.15294330000E+03 0.  0.
<mgrwt>
<rscale>  0 0.94446638E+03</rscale>
<asrwt>0</asrwt>
<pdfrwt beam="1">  1        1 0.23976840E+00 0.10076305E+04</pdfrwt>
<pdfrwt beam="2">  1       -1 0.15234721E+00 0.10076305E+04</pdfrwt>
<totfact> 0.20036940E+00</totfact>
</mgrwt>
</event>
<event>
 4    2  0.3884658E-007  0.1058169E+04  0.7818608E-02  0.9309125E-01
          1   -1    0    0  501    0  0.00000000000E+00  0.00000000000E+00  0.15989006072E+04  0.15989006073E+04  0.50400000000E-02 0. -1.
         -1   -1    0    0    0  501 -0.00000000000E+00 -0.00000000000E+00 -0.11979671278E+04  0.11979671278E+04  0.50400000000E-02 0.  1.
    8880023    1    1    2    0    0 -0.80111389091E+03  0.21006624811E+03  0.12248765727E+04  0.16186550341E+04  0.65864270000E+03 0. -1.
    8880022    1    1    2    0    0  0.80111389091E+03 -0.21006624811E+03 -0.82394309323E+03  0.11782127010E+04  0.15294330000E+03 0.  0.
<mgrwt>
<rscale>  0 0.99947107E+03</rscale>
<asrwt>0</asrwt>
<pdfrwt beam="1">  1        1 0.24598471E+00 0.10581689E+04</pdfrwt>
<pdfrwt beam="2">  1       -1 0.18430264E+00 0.10581689E+04</pdfrwt>
<totfact> 0.10823745E+00</totfact>
</mgrwt>
</event>
<event>
 4    2  0.3884658E-007  0.7322942E+03  0.7818608E-02  0.9882990E-01
          1   -1    0    0  501    0  0.00000000000E+00  0.00000000000E+00  0.14121887403E+04  0.14121887403E+04  0.50400000000E-02 0. -1.
         -1   -1    0    0    0  501 -0.00000000000E+00 -0.00000000000E+00 -0.20990669977E+03  0.20990669983E+03  0.50400000000E-02 0.  1.
    8880023    1    1    2    0    0 -0.30615420152E+03  0.93349888120E+02  0.85384845422E+03  0.11248608740E+04  0.65864270000E+03 0.  0.
    8880022    1    1    2    0    0  0.30615420152E+03 -0.93349888120E+02  0.34843358632E+03  0.49723456619E+03  0.15294330000E+03 0. -1.
<mgrwt>
<rscale>  0 0.61092784E+03</rscale>
<asrwt>0</asrwt>
<pdfrwt beam="1">  1        1 0.21725980E+00 0.73229421E+03</pdfrwt>
<pdfrwt beam="2">  1       -1 0.32293339E-01 0.73229421E+03</pdfrwt>
<totfact> 0.69265267E+01</totfact>
</mgrwt>
</event>
<event>
 4    2  0.9799630E-007  0.8372629E+03  0.7818608E-02  0.9635363E-01
          1   -1    0    0  501    0  0.00000000000E+00  0.00000000000E+00  0.31761650712E+04  0.31761650712E+04  0.50400000000E-02 0. -1.
         -1   -1    0    0    0  501 -0.00000000000E+00 -0.00000000000E+00 -0.14125653229E+04  0.14125653229E+04  0.50400000000E-02 0.  1.
    8880023    1    1    2    0    0  0.29633750152E+03  0.42353627159E+03  0.30664838670E+04  0.31787312565E+04  0.65864270000E+03 0. -1.
    8880022    1    1    2    0    0 -0.29633750152E+03 -0.42353627159E+03 -0.13028841188E+04  0.14099991376E+04  0.15294330000E+03 0.  0.
<mgrwt>
<rscale>  0 0.74999187E+03</rscale>
<asrwt>0</asrwt>
<pdfrwt beam="1">  1        1 0.48864078E+00 0.83726286E+03</pdfrwt>
<pdfrwt beam="2">  1       -1 0.21731774E+00 0.83726286E+03</pdfrwt>
<totfact> 0.54670554E-02</totfact>
</mgrwt>
</event>
<event>
 4    2  0.3884658E-007  0.7451853E+03  0.7818608E-02  0.9845092E-01
          1   -1    0    0  501    0  0.00000000000E+00  0.00000000000E+00  0.23976029210E+04  0.23976029210E+04  0.50400000000E-02 0. -1.
         -1   -1    0    0    0  501 -0.00000000000E+00 -0.00000000000E+00 -0.19692288147E+03  0.19692288154E+03  0.50400000000E-02 0.  1.
    8880023    1    1    2    0    0 -0.31885693209E+03 -0.14078787643E+03  0.20567573901E+04  0.21875904866E+04  0.65864270000E+03 0.  0.
    8880022    1    1    2    0    0  0.31885693209E+03  0.14078787643E+03  0.14392264944E+03  0.40693531590E+03  0.15294330000E+03 0.  0.
<mgrwt>
<rscale>  0 0.62997782E+03</rscale>
<asrwt>0</asrwt>
<pdfrwt beam="1">  1        1 0.36886198E+00 0.74518533E+03</pdfrwt>
<pdfrwt beam="2">  1       -1 0.30295829E-01 0.74518533E+03</pdfrwt>
<totfact> 0.16768095E+01</totfact>
</mgrwt>
</event>
<event>
 4    2  0.3884658E-007  0.7042596E+03  0.7818608E-02  0.9979969E-01
          1   -1    0    0  501    0  0.00000000000E+00  0.00000000000E+00  0.10681545529E+04  0.10681545529E+04  0.50400000000E-02 0. -1.
         -1   -1    0    0    0  501 -0.00000000000E+00 -0.00000000000E+00 -0.50770188858E+03  0.50770188861E+03  0.50400000000E-02 0.  1.
    8880023    1    1    2    0    0 -0.24933084457E+03  0.23444019609E+01  0.89018186779E+03  0.11350794379E+04  0.65864270000E+03 0. -1.
    8880022    1    1    2    0    0  0.24933084457E+03 -0.23444019609E+01 -0.32972920349E+03  0.44077700363E+03  0.15294330000E+03 0.  0.
<mgrwt>
<rscale>  0 0.56537336E+03</rscale>
<asrwt>0</asrwt>
<pdfrwt beam="1">  1        1 0.16433147E+00 0.70425959E+03</pdfrwt>
<pdfrwt beam="2">  1       -1 0.78107983E-01 0.70425959E+03</pdfrwt>
<totfact> 0.22768714E+01</totfact>
</mgrwt>
</event>
<event>
 4    2  0.3884658E-007  0.1098788E+04  0.7818608E-02  0.9262407E-01
          1   -1    0    0  501    0  0.00000000000E+00  0.00000000000E+00  0.19723705110E+04  0.19723705110E+04  0.50400000000E-02 0. -1.
         -1   -1    0    0    0  501 -0.00000000000E+00 -0.00000000000E+00 -0.10368327275E+04  0.10368327275E+04  0.50400000000E-02 0.  1.
    8880023    1    1    2    0    0 -0.74387522030E+03  0.46922679354E+03  0.15683533293E+04  0.19149586154E+04  0.65864270000E+03 0. -1.
    8880022    1    1    2    0    0  0.74387522030E+03 -0.46922679354E+03 -0.63281554572E+03  0.10942446230E+04  0.15294330000E+03 0.  0.
<mgrwt>
<rscale>  0 0.10431863E+04</rscale>
<asrwt>0</asrwt>
<pdfrwt beam="1">  1        1 0.30344162E+00 0.10987877E+04</pdfrwt>
<pdfrwt beam="2">  1       -1 0.15951273E+00 0.10987877E+04</pdfrwt>
<totfact> 0.91337449E-01</totfact>
</mgrwt>
</event>
<event>
 4    2  0.3884658E-007  0.7692119E+03  0.7818608E-02  0.9781817E-01
          1   -1    0    0  501    0  0.00000000000E+00  0.00000000000E+00  0.80947753601E+03  0.80947753602E+03  0.50400000000E-02 0. -1.
         -1   -1    0    0    0  501 -0.00000000000E+00 -0.00000000000E+00 -0.48746385474E+03  0.48746385477E+03  0.50400000000E-02 0.  1.
    8880023    1    1    2    0    0  0.22839140185E+02  0.39668017711E+03  0.39543263889E+03  0.86490113157E+03  0.65864270000E+03 0.  1.
    8880022    1    1    2    0    0 -0.22839140185E+02 -0.39668017711E+03 -0.73418957624E+02  0.43204025922E+03  0.15294330000E+03 0.  0.
<mgrwt>
<rscale>  0 0.66347534E+03</rscale>
<asrwt>0</asrwt>
<pdfrwt beam="1">  1        1 0.12453501E+00 0.76921193E+03</pdfrwt>
<pdfrwt beam="2">  1       -1 0.74994439E-01 0.76921193E+03</pdfrwt>
<totfact> 0.39654898E+01</totfact>
</mgrwt>
</event>
<event>
 4    2  0.3884658E-007  0.6900164E+03  0.7818608E-02  0.1004145E+00
         -1   -1    0    0    0  501 -0.00000000000E+00  0.00000000000E+00  0.36365000617E+03  0.36365000620E+03  0.50400000000E-02 0.  1.
          1   -1    0    0  501    0  0.00000000000E+00 -0.00000000000E+00 -0.14941600106E+04  0.14941600106E+04  0.50400000000E-02 0. -1.
    8880023    1    1    2    0    0  0.20307417612E+03 -0.32761983683E+02 -0.13527394783E+04  0.15185607565E+04  0.65864270000E+03 0. -1.
    8880022    1    1    2    0    0 -0.20307417612E+03  0.32761983683E+02  0.22222947388E+03  0.33924926036E+03  0.15294330000E+03 0.  0.
<mgrwt>
<rscale>  0 0.53869588E+03</rscale>
<asrwt>0</asrwt>
<pdfrwt beam="1">  1        1 0.22987077E+00 0.69001643E+03</pdfrwt>
<pdfrwt beam="2">  1       -1 0.55946156E-01 0.69001643E+03</pdfrwt>
<totfact> 0.22243426E+01</totfact>
</mgrwt>
</event>
<event>
 4    2  0.3884658E-007  0.8808513E+03  0.7818608E-02  0.9557498E-01
         -1   -1    0    0    0  501 -0.00000000000E+00  0.00000000000E+00  0.49440207405E+03  0.49440207407E+03  0.50400000000E-02 0.  1.
          1   -1    0    0  501    0  0.00000000000E+00 -0.00000000000E+00 -0.18821339796E+04  0.18821339796E+04  0.50400000000E-02 0. -1.
    8880023    1    1    2    0    0 -0.54349581571E+03  0.21610449624E+03 -0.19916535654E+02  0.88107646073E+03  0.65864270000E+03 0.  0.
    8880022    1    1    2    0    0  0.54349581571E+03 -0.21610449624E+03 -0.13678153699E+04  0.14954595929E+04  0.15294330000E+03 0.  0.
<mgrwt>
<rscale>  0 0.80174265E+03</rscale>
<asrwt>0</asrwt>
<pdfrwt beam="1">  1        1 0.28955907E+00 0.88085133E+03</pdfrwt>
<pdfrwt beam="2">  1       -1 0.76061859E-01 0.88085133E+03</pdfrwt>
<totfact> 0.63796073E+00</totfact>
</mgrwt>
</event>
<event>
 4    2  0.3884658E-007  0.7266961E+03  0.7818608E-02  0.9900547E-01
          1   -1    0    0  501    0  0.00000000000E+00  0.00000000000E+00  0.67501036587E+03  0.67501036589E+03  0.50400000000E-02 0. -1.
         -1   -1    0    0    0  501 -0.00000000000E+00 -0.00000000000E+00 -0.42426152686E+03  0.42426152689E+03  0.50400000000E-02 0.  1.
    8880023    1    1    2    0    0 -0.17406248502E+03 -0.25294130995E+03  0.18698675278E+03  0.75036744795E+03  0.65864270000E+03 0.  0.
    8880022    1    1    2    0    0  0.17406248502E+03  0.25294130995E+03  0.63762086230E+02  0.34890444483E+03  0.15294330000E+03 0.  1.
<mgrwt>
<rscale>  0 0.60234770E+03</rscale>
<asrwt>0</asrwt>
<pdfrwt beam="1">  1        1 0.10384775E+00 0.72669613E+03</pdfrwt>
<pdfrwt beam="2">  1       -1 0.65271005E-01 0.72669613E+03</pdfrwt>
<totfact> 0.70027616E+01</totfact>
</mgrwt>
</event>
<event>
 4    2  0.3884658E-007  0.7362619E+03  0.7818608E-02  0.9870973E-01
         -1   -1    0    0    0  501 -0.00000000000E+00  0.00000000000E+00  0.15267526152E+04  0.15267526152E+04  0.50400000000E-02 0.  1.
          1   -1    0    0  501    0  0.00000000000E+00 -0.00000000000E+00 -0.59340913523E+03  0.59340913526E+03  0.50400000000E-02 0. -1.
    8880023    1    1    2    0    0  0.22630595635E+03  0.23886609864E+03 -0.32920238100E+03  0.80650840844E+03  0.65864270000E+03 0.  0.
    8880022    1    1    2    0    0 -0.22630595635E+03 -0.23886609864E+03  0.12625458609E+04  0.13136533420E+04  0.15294330000E+03 0.  0.
<mgrwt>
<rscale>  0 0.61688931E+03</rscale>
<asrwt>0</asrwt>
<pdfrwt beam="1">  1        1 0.91293713E-01 0.73626191E+03</pdfrwt>
<pdfrwt beam="2">  1       -1 0.23488502E+00 0.73626191E+03</pdfrwt>
<totfact> 0.31824414E+00</totfact>
</mgrwt>
</event>
<event>
 4    2  0.3884658E-007  0.8385446E+03  0.7818608E-02  0.9632931E-01
         -1   -1    0    0    0  501 -0.00000000000E+00  0.00000000000E+00  0.77891726917E+03  0.77891726919E+03  0.50400000000E-02 0.  1.
          1   -1    0    0  501    0  0.00000000000E+00 -0.00000000000E+00 -0.10284396769E+04  0.10284396769E+04  0.50400000000E-02 0. -1.
    8880023    1    1    2    0    0 -0.43672676494E+03 -0.28038651083E+03 -0.70855184174E+03  0.10978172805E+04  0.65864270000E+03 0. -1.
    8880022    1    1    2    0    0  0.43672676494E+03  0.28038651083E+03  0.45902943404E+03  0.70953966556E+03  0.15294330000E+03 0.  0.
<mgrwt>
<rscale>  0 0.75154435E+03</rscale>
<asrwt>0</asrwt>
<pdfrwt beam="1">  1        1 0.15822149E+00 0.83854461E+03</pdfrwt>
<pdfrwt beam="2">  1       -1 0.11983343E+00 0.83854461E+03</pdfrwt>
<totfact> 0.91214824E+00</totfact>
</mgrwt>
</event>
<event>
 4    2  0.3884658E-007  0.7528631E+03  0.7818608E-02  0.9823947E-01
         -1   -1    0    0    0  501 -0.00000000000E+00  0.00000000000E+00  0.63551384577E+03  0.63551384579E+03  0.50400000000E-02 0.  1.
          1   -1    0    0  501    0  0.00000000000E+00 -0.00000000000E+00 -0.11355129113E+04  0.11355129113E+04  0.50400000000E-02 0. -1.
    8880023    1    1    2    0    0  0.30010635784E+02  0.36344471769E+03 -0.92357000089E+03  0.11915470842E+04  0.65864270000E+03 0. -1.
    8880022    1    1    2    0    0 -0.30010635784E+02 -0.36344471769E+03  0.42357093533E+03  0.57947967293E+03  0.15294330000E+03 0.  0.
<mgrwt>
<rscale>  0 0.64093087E+03</rscale>
<asrwt>0</asrwt>
<pdfrwt beam="1">  1        1 0.17469429E+00 0.75286314E+03</pdfrwt>
<pdfrwt beam="2">  1       -1 0.97771361E-01 0.75286314E+03</pdfrwt>
<totfact> 0.12353535E+01</totfact>
</mgrwt>
</event>
<event>
 4    2  0.3884658E-007  0.1377671E+04  0.7818608E-02  0.9001230E-01
         -1   -1    0    0    0  501 -0.00000000000E+00  0.00000000000E+00  0.19789399332E+04  0.19789399332E+04  0.50400000000E-02 0.  1.
          1   -1    0    0  501    0  0.00000000000E+00 -0.00000000000E+00 -0.18343983661E+04  0.18343983661E+04  0.50400000000E-02 0. -1.
    8880023    1    1    2    0    0 -0.12079967402E+04 -0.70074818221E+02 -0.13196335803E+04  0.19077236689E+04  0.65864270000E+03 0.  0.
    8880022    1    1    2    0    0  0.12079967402E+04  0.70074818221E+02  0.14641751474E+04  0.19056146304E+04  0.15294330000E+03 0.  0.
<mgrwt>
<rscale>  0 0.13363442E+04</rscale>
<asrwt>0</asrwt>
<pdfrwt beam="1">  1        1 0.28221514E+00 0.13776708E+04</pdfrwt>
<pdfrwt beam="2">  1       -1 0.30445229E+00 0.13776708E+04</pdfrwt>
<totfact> 0.11444732E-01</totfact>
</mgrwt>
</event>
<event>
 4    2  0.3884658E-007  0.7580085E+03  0.7818608E-02  0.9810291E-01
          1   -1    0    0  501    0  0.00000000000E+00  0.00000000000E+00  0.15887322560E+04  0.15887322561E+04  0.50400000000E-02 0. -1.
         -1   -1    0    0    0  501 -0.00000000000E+00 -0.00000000000E+00 -0.69750211560E+03  0.69750211562E+03  0.50400000000E-02 0.  1.
    8880023    1    1    2    0    0 -0.35095349631E+03 -0.13265860771E+03  0.14262172890E+04  0.16151385775E+04  0.65864270000E+03 0. -1.
    8880022    1    1    2    0    0  0.35095349631E+03  0.13265860771E+03 -0.53498714859E+03  0.67109579416E+03  0.15294330000E+03 0.  0.
<mgrwt>
<rscale>  0 0.64813192E+03</rscale>
<asrwt>0</asrwt>
<pdfrwt beam="1">  1        1 0.24442034E+00 0.75800849E+03</pdfrwt>
<pdfrwt beam="2">  1       -1 0.10730802E+00 0.75800849E+03</pdfrwt>
<totfact> 0.47894321E+00</totfact>
</mgrwt>
</event>
<event>
 4    2  0.3884658E-007  0.1002581E+04  0.7818608E-02  0.9378189E-01
          1   -1    0    0  501    0  0.00000000000E+00  0.00000000000E+00  0.16751924889E+04  0.16751924889E+04  0.50400000000E-02 0. -1.
         -1   -1    0    0    0  501 -0.00000000000E+00 -0.00000000000E+00 -0.60171512093E+03  0.60171512095E+03  0.50400000000E-02 0.  1.
    8880023    1    1    2    0    0 -0.69331396051E+03 -0.30112137270E+03  0.11213878565E+04  0.15042204825E+04  0.65864270000E+03 0. -1.
    8880022    1    1    2    0    0  0.69331396051E+03  0.30112137270E+03 -0.47910488496E+02  0.77268712741E+03  0.15294330000E+03 0.  0.
<mgrwt>
<rscale>  0 0.93892605E+03</rscale>
<asrwt>0</asrwt>
<pdfrwt beam="1">  1        1 0.25772192E+00 0.10025809E+04</pdfrwt>
<pdfrwt beam="2">  1       -1 0.92571558E-01 0.10025809E+04</pdfrwt>
<totfact> 0.56630085E+00</totfact>
</mgrwt>
</event>
<event>
 4    2  0.3884658E-007  0.8900009E+03  0.7818608E-02  0.9542278E-01
         -1   -1    0    0    0  501 -0.00000000000E+00  0.00000000000E+00  0.11133220871E+04  0.11133220871E+04  0.50400000000E-02 0.  1.
          1   -1    0    0  501    0  0.00000000000E+00 -0.00000000000E+00 -0.10084670701E+04  0.10084670701E+04  0.50400000000E-02 0. -1.
    8880023    1    1    2    0    0  0.21683455332E+03  0.55791949394E+03 -0.68208359446E+03  0.11213115630E+04  0.65864270000E+03 0. -1.
    8880022    1    1    2    0    0 -0.21683455332E+03 -0.55791949394E+03  0.78693861148E+03  0.10004775942E+04  0.15294330000E+03 0.  0.
<mgrwt>
<rscale>  0 0.81237339E+03</rscale>
<asrwt>0</asrwt>
<pdfrwt beam="1">  1        1 0.15514878E+00 0.89000089E+03</pdfrwt>
<pdfrwt beam="2">  1       -1 0.17128032E+00 0.89000089E+03</pdfrwt>
<totfact> 0.36503618E+00</totfact>
</mgrwt>
</event>
<event>
 4    2  0.3884658E-007  0.8069273E+03  0.7818608E-02  0.9696013E-01
          1   -1    0    0  501    0  0.00000000000E+00  0.00000000000E+00  0.15927815430E+04  0.15927815430E+04  0.50400000000E-02 0. -1.
         -1   -1    0    0    0  501 -0.00000000000E+00 -0.00000000000E+00 -0.77633099126E+03  0.77633099128E+03  0.50400000000E-02 0.  1.
    8880023    1    1    2    0    0  0.28978869926E+03 -0.36516294228E+03  0.13943674598E+04  0.16110221239E+04  0.65864270000E+03 0. -1.
    8880022    1    1    2    0    0 -0.28978869926E+03  0.36516294228E+03 -0.57791690805E+03  0.75809041034E+03  0.15294330000E+03 0.  0.
<mgrwt>
<rscale>  0 0.71254661E+03</rscale>
<asrwt>0</asrwt>
<pdfrwt beam="1">  1        1 0.24504331E+00 0.80692730E+03</pdfrwt>
<pdfrwt beam="2">  1       -1 0.11943554E+00 0.80692730E+03</pdfrwt>
<totfact> 0.36579976E+00</totfact>
</mgrwt>
</event>
<event>
 4    2  0.3884658E-007  0.7129468E+03  0.7818608E-02  0.9947217E-01
         -1   -1    0    0    0  501 -0.00000000000E+00  0.00000000000E+00  0.20833942474E+03  0.20833942480E+03  0.50400000000E-02 0.  1.
          1   -1    0    0  501    0  0.00000000000E+00 -0.00000000000E+00 -0.18135610769E+04  0.18135610769E+04  0.50400000000E-02 0. -1.
    8880023    1    1    2    0    0 -0.15501111230E+03 -0.22462062627E+03 -0.15474138409E+04  0.17037554613E+04  0.65864270000E+03 0.  0.
    8880022    1    1    2    0    0  0.15501111230E+03  0.22462062627E+03 -0.57807811285E+02  0.31814504042E+03  0.15294330000E+03 0.  0.
<mgrwt>
<rscale>  0 0.58026521E+03</rscale>
<asrwt>0</asrwt>
<pdfrwt beam="1">  1        1 0.27900939E+00 0.71294676E+03</pdfrwt>
<pdfrwt beam="2">  1       -1 0.32052220E-01 0.71294676E+03</pdfrwt>
<totfact> 0.37594954E+01</totfact>
</mgrwt>
</event>
<event>
 4    2  0.3884658E-007  0.7585789E+03  0.7818608E-02  0.9808800E-01
          1   -1    0    0  501    0  0.00000000000E+00  0.00000000000E+00  0.10137347806E+04  0.10137347806E+04  0.50400000000E-02 0. -1.
         -1   -1    0    0    0  501 -0.00000000000E+00 -0.00000000000E+00 -0.34562538204E+03  0.34562538207E+03  0.50400000000E-02 0.  1.
    8880023    1    1    2    0    0  0.33410647770E+03 -0.17321853706E+03  0.54777490403E+03  0.93568122337E+03  0.65864270000E+03 0.  0.
    8880022    1    1    2    0    0 -0.33410647770E+03  0.17321853706E+03  0.12033449452E+03  0.42367893930E+03  0.15294330000E+03 0.  0.
<mgrwt>
<rscale>  0 0.64892394E+03</rscale>
<asrwt>0</asrwt>
<pdfrwt beam="1">  1        1 0.15595920E+00 0.75857894E+03</pdfrwt>
<pdfrwt beam="2">  1       -1 0.53173136E-01 0.75857894E+03</pdfrwt>
<totfact> 0.53859150E+01</totfact>
</mgrwt>
</event>
<event>
 4    2  0.3884658E-007  0.9723286E+03  0.7818608E-02  0.9418691E-01
          1   -1    0    0  501    0  0.00000000000E+00  0.00000000000E+00  0.21750862752E+04  0.21750862752E+04  0.50400000000E-02 0. -1.
         -1   -1    0    0    0  501 -0.00000000000E+00 -0.00000000000E+00 -0.36424874555E+03  0.36424874558E+03  0.50400000000E-02 0.  1.
    8880023    1    1    2    0    0 -0.63670861480E+03  0.32590632395E+03  0.13873168836E+04  0.16941284290E+04  0.65864270000E+03 0.  0.
    8880022    1    1    2    0    0  0.63670861480E+03 -0.32590632395E+03  0.42352064605E+03  0.84520659178E+03  0.15294330000E+03 0.  0.
<mgrwt>
<rscale>  0 0.90553342E+03</rscale>
<asrwt>0</asrwt>
<pdfrwt beam="1">  1        1 0.33462866E+00 0.97232865E+03</pdfrwt>
<pdfrwt beam="2">  1       -1 0.56038269E-01 0.97232865E+03</pdfrwt>
<totfact> 0.74234934E+00</totfact>
</mgrwt>
</event>
<event>
 4    2  0.3884658E-007  0.1030502E+04  0.7818608E-02  0.9342696E-01
         -1   -1    0    0    0  501 -0.00000000000E+00  0.00000000000E+00  0.20865204395E+04  0.20865204395E+04  0.50400000000E-02 0.  1.
          1   -1    0    0  501    0  0.00000000000E+00 -0.00000000000E+00 -0.74960043209E+03  0.74960043211E+03  0.50400000000E-02 0. -1.
    8880023    1    1    2    0    0 -0.78283095681E+03  0.12369177309E+03 -0.24584498615E+03  0.10594215049E+04  0.65864270000E+03 0.  0.
    8880022    1    1    2    0    0  0.78283095681E+03 -0.12369177309E+03  0.15827649935E+04  0.17766993666E+04  0.15294330000E+03 0.  0.
<mgrwt>
<rscale>  0 0.96945399E+03</rscale>
<asrwt>0</asrwt>
<pdfrwt beam="1">  1        1 0.11532314E+00 0.10305019E+04</pdfrwt>
<pdfrwt beam="2">  1       -1 0.32100314E+00 0.10305019E+04</pdfrwt>
<totfact> 0.59805264E-01</totfact>
</mgrwt>
</event>
<event>
 4    2  0.3884658E-007  0.1051560E+04  0.7818608E-02  0.9317009E-01
          1   -1    0    0  501    0  0.00000000000E+00  0.00000000000E+00  0.14460118156E+04  0.14460118156E+04  0.50400000000E-02 0. -1.
         -1   -1    0    0    0  501 -0.00000000000E+00 -0.00000000000E+00 -0.16537153568E+04  0.16537153568E+04  0.50400000000E-02 0.  1.
    8880023    1    1    2    0    0 -0.39321717655E+03 -0.71926909810E+03  0.11171998718E+04  0.15342468977E+04  0.65864270000E+03 0. -1.
    8880022    1    1    2    0    0  0.39321717655E+03  0.71926909810E+03 -0.13249034130E+04  0.15654802746E+04  0.15294330000E+03 0.  0.
<mgrwt>
<rscale>  0 0.99231978E+03</rscale>
<asrwt>0</asrwt>
<pdfrwt beam="1">  1        1 0.22246336E+00 0.10515598E+04</pdfrwt>
<pdfrwt beam="2">  1       -1 0.25441775E+00 0.10515598E+04</pdfrwt>
<totfact> 0.46662011E-01</totfact>
</mgrwt>
</event>
<event>
 4    2  0.3884658E-007  0.1119644E+04  0.7818608E-02  0.9239494E-01
         -1   -1    0    0    0  501 -0.00000000000E+00  0.00000000000E+00  0.82785482335E+03  0.82785482336E+03  0.50400000000E-02 0.  1.
          1   -1    0    0  501    0  0.00000000000E+00 -0.00000000000E+00 -0.24499228167E+04  0.24499228167E+04  0.50400000000E-02 0. -1.
    8880023    1    1    2    0    0 -0.42030616738E+03  0.80195716486E+03 -0.19941776200E+04  0.22869952241E+04  0.65864270000E+03 0.  0.
    8880022    1    1    2    0    0  0.42030616738E+03 -0.80195716486E+03  0.37210962663E+03  0.99078241600E+03  0.15294330000E+03 0.  0.
<mgrwt>
<rscale>  0 0.10654922E+04</rscale>
<asrwt>0</asrwt>
<pdfrwt beam="1">  1        1 0.37691120E+00 0.11196440E+04</pdfrwt>
<pdfrwt beam="2">  1       -1 0.12736228E+00 0.11196440E+04</pdfrwt>
<totfact> 0.78278595E-01</totfact>
</mgrwt>
</event>
<event>
 4    2  0.3884658E-007  0.1223590E+04  0.7818608E-02  0.9134525E-01
          1   -1    0    0  501    0  0.00000000000E+00  0.00000000000E+00  0.15411697511E+04  0.15411697511E+04  0.50400000000E-02 0. -1.
         -1   -1    0    0    0  501 -0.00000000000E+00 -0.00000000000E+00 -0.15253050895E+04  0.15253050895E+04  0.50400000000E-02 0.  1.
    8880023    1    1    2    0    0  0.21466191530E+03  0.10086047077E+04 -0.10228843014E+04  0.15948246595E+04  0.65864270000E+03 0.  0.
    8880022    1    1    2    0    0 -0.21466191530E+03 -0.10086047077E+04  0.10387489630E+04  0.14716501811E+04  0.15294330000E+03 0.  0.
<mgrwt>
<rscale>  0 0.11755564E+04</rscale>
<asrwt>0</asrwt>
<pdfrwt beam="1">  1        1 0.23710304E+00 0.12235904E+04</pdfrwt>
<pdfrwt beam="2">  1       -1 0.23466232E+00 0.12235904E+04</pdfrwt>
<totfact> 0.52638899E-01</totfact>
</mgrwt>
</event>
<event>
 4    2  0.3884658E-007  0.7406596E+03  0.7818608E-02  0.9858030E-01
         -1   -1    0    0    0  501 -0.00000000000E+00  0.00000000000E+00  0.53467565529E+03  0.53467565531E+03  0.50400000000E-02 0.  1.
          1   -1    0    0  501    0  0.00000000000E+00 -0.00000000000E+00 -0.85960019624E+03  0.85960019625E+03  0.50400000000E-02 0. -1.
    8880023    1    1    2    0    0 -0.28165767661E+03 -0.18824296642E+03 -0.58231485055E+03  0.94216094837E+03  0.65864270000E+03 0. -1.
    8880022    1    1    2    0    0  0.28165767661E+03  0.18824296642E+03  0.25739030960E+03  0.45211490320E+03  0.15294330000E+03 0.  0.
<mgrwt>
<rscale>  0 0.62339175E+03</rscale>
<asrwt>0</asrwt>
<pdfrwt beam="1">  1        1 0.13224618E+00 0.74065962E+03</pdfrwt>
<pdfrwt beam="2">  1       -1 0.82257793E-01 0.74065962E+03</pdfrwt>
<totfact> 0.29671659E+01</totfact>
</mgrwt>
</event>
<event>
 4    2  0.3884658E-007  0.6982842E+03  0.7818608E-02  0.1000439E+00
         -1   -1    0    0    0  501 -0.00000000000E+00  0.00000000000E+00  0.27796910256E+03  0.27796910261E+03  0.50400000000E-02 0.  1.
          1   -1    0    0  501    0  0.00000000000E+00 -0.00000000000E+00 -0.89501050871E+03  0.89501050873E+03  0.50400000000E-02 0. -1.
    8880023    1    1    2    0    0 -0.63957195251E+02  0.22293528202E+03 -0.32602268124E+03  0.77064366457E+03  0.65864270000E+03 0.  1.
    8880022    1    1    2    0    0  0.63957195251E+02 -0.22293528202E+03 -0.29101872491E+03  0.40233594676E+03  0.15294330000E+03 0.  0.
<mgrwt>
<rscale>  0 0.55457962E+03</rscale>
<asrwt>0</asrwt>
<pdfrwt beam="1">  1        1 0.13769392E+00 0.69828423E+03</pdfrwt>
<pdfrwt beam="2">  1       -1 0.42764478E-01 0.69828423E+03</pdfrwt>
<totfact> 0.10118959E+02</totfact>
</mgrwt>
</event>
<event>
 4    2  0.3884658E-007  0.8107322E+03  0.7818608E-02  0.9688054E-01
          1   -1    0    0  501    0  0.00000000000E+00  0.00000000000E+00  0.68728712271E+03  0.68728712273E+03  0.50400000000E-02 0. -1.
         -1   -1    0    0    0  501 -0.00000000000E+00 -0.00000000000E+00 -0.12383460677E+04  0.12383460677E+04  0.50400000000E-02 0.  1.
    8880023    1    1    2    0    0 -0.37245351778E+03  0.29112703603E+03  0.36064673819E+03  0.88732905399E+03  0.65864270000E+03 0. -1.
    8880022    1    1    2    0    0  0.37245351778E+03 -0.29112703603E+03 -0.91170568320E+03  0.10383041365E+04  0.15294330000E+03 0.  0.
<mgrwt>
<rscale>  0 0.71732544E+03</rscale>
<asrwt>0</asrwt>
<pdfrwt beam="1">  1        1 0.10573648E+00 0.81073225E+03</pdfrwt>
<pdfrwt beam="2">  1       -1 0.19051478E+00 0.81073225E+03</pdfrwt>
<totfact> 0.50411961E+00</totfact>
</mgrwt>
</event>
<event>
 4    2  0.3884658E-007  0.9913092E+03  0.7818608E-02  0.9393017E-01
         -1   -1    0    0    0  501 -0.00000000000E+00  0.00000000000E+00  0.10861633514E+04  0.10861633514E+04  0.50400000000E-02 0.  1.
          1   -1    0    0  501    0  0.00000000000E+00 -0.00000000000E+00 -0.99926034257E+03  0.99926034259E+03  0.50400000000E-02 0. -1.
    8880023    1    1    2    0    0 -0.68289380148E+03 -0.28729745738E+03 -0.51646867238E+03  0.11177807786E+04  0.65864270000E+03 0. -1.
    8880022    1    1    2    0    0  0.68289380148E+03  0.28729745738E+03  0.60337168122E+03  0.96764291545E+03  0.15294330000E+03 0.  1.
<mgrwt>
<rscale>  0 0.92652576E+03</rscale>
<asrwt>0</asrwt>
<pdfrwt beam="1">  1        1 0.15373236E+00 0.99130922E+03</pdfrwt>
<pdfrwt beam="2">  1       -1 0.16710205E+00 0.99130922E+03</pdfrwt>
<totfact> 0.39322386E+00</totfact>
</mgrwt>
</event>
<event>
 4    2  0.3884658E-007  0.1797317E+04  0.7818608E-02  0.8724022E-01
         -1   -1    0    0    0  501 -0.00000000000E+00  0.00000000000E+00  0.21818442096E+04  0.21818442096E+04  0.50400000000E-02 0.  1.
          1   -1    0    0  501    0  0.00000000000E+00 -0.00000000000E+00 -0.18345016901E+04  0.18345016901E+04  0.50400000000E-02 0. -1.
    8880023    1    1    2    0    0  0.16719199648E+04 -0.34950080564E+02 -0.81559392089E+03  0.19737126252E+04  0.65864270000E+03 0.  0.
    8880022    1    1    2    0    0 -0.16719199648E+04  0.34950080564E+02  0.11629364404E+04  0.20426332745E+04  0.15294330000E+03 0.  0.
<mgrwt>
<rscale>  0 0.17670477E+04</rscale>
<asrwt>0</asrwt>
<pdfrwt beam="1">  1        1 0.28223103E+00 0.17973169E+04</pdfrwt>
<pdfrwt beam="2">  1       -1 0.33566834E+00 0.17973169E+04</pdfrwt>
<totfact> 0.67956693E-02</totfact>
</mgrwt>
</event>
<event>
 4    2  0.3884658E-007  0.7072353E+03  0.7818608E-02  0.9968414E-01
         -1   -1    0    0    0  501 -0.00000000000E+00  0.00000000000E+00  0.34745722239E+03  0.34745722242E+03  0.50400000000E-02 0.  1.
          1   -1    0    0  501    0  0.00000000000E+00 -0.00000000000E+00 -0.18598704244E+04  0.18598704244E+04  0.50400000000E-02 0. -1.
    8880023    1    1    2    0    0  0.25699900317E+03 -0.17972861422E+02 -0.17086110939E+04  0.18491980932E+04  0.65864270000E+03 0. -1.
    8880022    1    1    2    0    0 -0.25699900317E+03  0.17972861422E+02  0.19619789191E+03  0.35812955363E+03  0.15294330000E+03 0.  0.
<mgrwt>
<rscale>  0 0.57057166E+03</rscale>
<asrwt>0</asrwt>
<pdfrwt beam="1">  1        1 0.28613390E+00 0.70723526E+03</pdfrwt>
<pdfrwt beam="2">  1       -1 0.53454959E-01 0.70723526E+03</pdfrwt>
<totfact> 0.13734043E+01</totfact>
</mgrwt>
</event>
<event>
 4    2  0.3884658E-007  0.6885137E+03  0.7818608E-02  0.1004867E+00
          1   -1    0    0  501    0  0.00000000000E+00  0.00000000000E+00  0.19150573255E+04  0.19150573255E+04  0.50400000000E-02 0. -1.
         -1   -1    0    0    0  501 -0.00000000000E+00 -0.00000000000E+00 -0.28524240696E+03  0.28524240701E+03  0.50400000000E-02 0.  1.
    8880023    1    1    2    0    0 -0.27656816723E+02 -0.19868556026E+03  0.17787529926E+04  0.19073576661E+04  0.65864270000E+03 0. -1.
    8880022    1    1    2    0    0  0.27656816723E+02  0.19868556026E+03 -0.14893807407E+03  0.29294206644E+03  0.15294330000E+03 0.  0.
<mgrwt>
<rscale>  0 0.53566627E+03</rscale>
<asrwt>0</asrwt>
<pdfrwt beam="1">  1        1 0.29462422E+00 0.68851366E+03</pdfrwt>
<pdfrwt beam="2">  1       -1 0.43883444E-01 0.68851366E+03</pdfrwt>
<totfact> 0.18339598E+01</totfact>
</mgrwt>
</event>
<event>
 4    2  0.3884658E-007  0.1043014E+04  0.7818608E-02  0.9327327E-01
         -1   -1    0    0    0  501 -0.00000000000E+00  0.00000000000E+00  0.11065949107E+04  0.11065949107E+04  0.50400000000E-02 0.  1.
          1   -1    0    0  501    0  0.00000000000E+00 -0.00000000000E+00 -0.21830507307E+04  0.21830507307E+04  0.50400000000E-02 0. -1.
    8880023    1    1    2    0    0 -0.80740193398E+03 -0.46588762734E+02 -0.18732643773E+04  0.21440611068E+04  0.65864270000E+03 0. -1.
    8880022    1    1    2    0    0  0.80740193398E+03  0.46588762734E+02  0.79680855738E+03  0.11455845346E+04  0.15294330000E+03 0.  0.
<mgrwt>
<rscale>  0 0.98305570E+03</rscale>
<asrwt>0</asrwt>
<pdfrwt beam="1">  1        1 0.33585396E+00 0.10430142E+04</pdfrwt>
<pdfrwt beam="2">  1       -1 0.17024537E+00 0.10430142E+04</pdfrwt>
<totfact> 0.55192654E-01</totfact>
</mgrwt>
</event>
<event>
 4    2  0.3884658E-007  0.1052482E+04  0.7818608E-02  0.9315904E-01
         -1   -1    0    0    0  501 -0.00000000000E+00  0.00000000000E+00  0.16843887567E+04  0.16843887567E+04  0.50400000000E-02 0.  1.
          1   -1    0    0  501    0  0.00000000000E+00 -0.00000000000E+00 -0.13749067650E+04  0.13749067650E+04  0.50400000000E-02 0. -1.
    8880023    1    1    2    0    0  0.60945952067E+02 -0.81865364358E+03 -0.10353053232E+04  0.14763385505E+04  0.65864270000E+03 0.  0.
    8880022    1    1    2    0    0 -0.60945952067E+02  0.81865364358E+03  0.13447873150E+04  0.15829569712E+04  0.15294330000E+03 0.  0.
<mgrwt>
<rscale>  0 0.99331836E+03</rscale>
<asrwt>0</asrwt>
<pdfrwt beam="1">  1        1 0.21152412E+00 0.10524820E+04</pdfrwt>
<pdfrwt beam="2">  1       -1 0.25913673E+00 0.10524820E+04</pdfrwt>
<totfact> 0.48765314E-01</totfact>
</mgrwt>
</event>
<event>
 4    2  0.3884658E-007  0.1031777E+04  0.7818608E-02  0.9341115E-01
          1   -1    0    0  501    0  0.00000000000E+00  0.00000000000E+00  0.10499546696E+04  0.10499546696E+04  0.50400000000E-02 0. -1.
         -1   -1    0    0    0  501 -0.00000000000E+00 -0.00000000000E+00 -0.10932213567E+04  0.10932213568E+04  0.50400000000E-02 0.  1.
    8880023    1    1    2    0    0  0.47811819029E+03  0.63415885245E+03  0.52211651765E+03  0.11563608080E+04  0.65864270000E+03 0. -1.
    8880022    1    1    2    0    0 -0.47811819029E+03 -0.63415885245E+03 -0.56538320477E+03  0.98681521840E+03  0.15294330000E+03 0.  0.
<mgrwt>
<rscale>  0 0.97084268E+03</rscale>
<asrwt>0</asrwt>
<pdfrwt beam="1">  1        1 0.16153149E+00 0.10317774E+04</pdfrwt>
<pdfrwt beam="2">  1       -1 0.16818790E+00 0.10317774E+04</pdfrwt>
<totfact> 0.35096181E+00</totfact>
</mgrwt>
</event>
<event>
 4    2  0.3884658E-007  0.7432753E+03  0.7818608E-02  0.9850507E-01
          1   -1    0    0  501    0  0.00000000000E+00  0.00000000000E+00  0.18707405268E+04  0.18707405268E+04  0.50400000000E-02 0. -1.
         -1   -1    0    0    0  501 -0.00000000000E+00 -0.00000000000E+00 -0.24005349308E+03  0.24005349313E+03  0.50400000000E-02 0.  1.
    8880023    1    1    2    0    0  0.21412395181E+03 -0.26981267133E+03  0.15590511390E+04  0.17271649037E+04  0.65864270000E+03 0. -1.
    8880022    1    1    2    0    0 -0.21412395181E+03  0.26981267133E+03  0.71635894660E+02  0.38362911616E+03  0.15294330000E+03 0.  0.
<mgrwt>
<rscale>  0 0.62721069E+03</rscale>
<asrwt>0</asrwt>
<pdfrwt beam="1">  1        1 0.28780623E+00 0.74327529E+03</pdfrwt>
<pdfrwt beam="2">  1       -1 0.36931307E-01 0.74327529E+03</pdfrwt>
<totfact> 0.26662407E+01</totfact>
</mgrwt>
</event>
<event>
 4    2  0.3884658E-007  0.7265314E+03  0.7818608E-02  0.9901075E-01
          1   -1    0    0  501    0  0.00000000000E+00  0.00000000000E+00  0.47385729097E+03  0.47385729100E+03  0.50400000000E-02 0. -1.
         -1   -1    0    0    0  501 -0.00000000000E+00 -0.00000000000E+00 -0.83293620553E+03  0.83293620554E+03  0.50400000000E-02 0.  1.
    8880023    1    1    2    0    0  0.25875881286E+03  0.16456491547E+03  0.10057539385E+03  0.73345984944E+03  0.65864270000E+03 0.  0.
    8880022    1    1    2    0    0 -0.25875881286E+03 -0.16456491547E+03 -0.45965430841E+03  0.57333364710E+03  0.15294330000E+03 0.  0.
<mgrwt>
<rscale>  0 0.60209208E+03</rscale>
<asrwt>0</asrwt>
<pdfrwt beam="1">  1        1 0.72901122E-01 0.72653145E+03</pdfrwt>
<pdfrwt beam="2">  1       -1 0.12814403E+00 0.72653145E+03</pdfrwt>
<totfact> 0.25773756E+01</totfact>
</mgrwt>
</event>
<event>
 4    2  0.3884658E-007  0.7589281E+03  0.7818608E-02  0.9807890E-01
          1   -1    0    0  501    0  0.00000000000E+00  0.00000000000E+00  0.85513671190E+03  0.85513671192E+03  0.50400000000E-02 0. -1.
         -1   -1    0    0    0  501 -0.00000000000E+00 -0.00000000000E+00 -0.49004863997E+03  0.49004864000E+03  0.50400000000E-02 0.  1.
    8880023    1    1    2    0    0 -0.34800247816E+03  0.14510663303E+03  0.50876407872E+03  0.91368088183E+03  0.65864270000E+03 0.  1.
    8880022    1    1    2    0    0  0.34800247816E+03 -0.14510663303E+03 -0.14367600679E+03  0.43150447008E+03  0.15294330000E+03 0.  0.
<mgrwt>
<rscale>  0 0.64940811E+03</rscale>
<asrwt>0</asrwt>
<pdfrwt beam="1">  1        1 0.13155949E+00 0.75892810E+03</pdfrwt>
<pdfrwt beam="2">  1       -1 0.75392099E-01 0.75892810E+03</pdfrwt>
<totfact> 0.35910385E+01</totfact>
</mgrwt>
</event>
<event>
 4    2  0.3884658E-007  0.7124619E+03  0.7818608E-02  0.9948970E-01
          1   -1    0    0  501    0  0.00000000000E+00  0.00000000000E+00  0.15969235304E+04  0.15969235304E+04  0.50400000000E-02 0. -1.
         -1   -1    0    0    0  501 -0.00000000000E+00 -0.00000000000E+00 -0.50827357793E+03  0.50827357796E+03  0.50400000000E-02 0.  1.
    8880023    1    1    2    0    0 -0.10170041240E+03  0.25189027850E+03  0.14574631130E+04  0.16222825335E+04  0.65864270000E+03 0. -1.
    8880022    1    1    2    0    0  0.10170041240E+03 -0.25189027850E+03 -0.36881316053E+03  0.48291457493E+03  0.15294330000E+03 0.  0.
<mgrwt>
<rscale>  0 0.57945563E+03</rscale>
<asrwt>0</asrwt>
<pdfrwt beam="1">  1        1 0.24568054E+00 0.71246185E+03</pdfrwt>
<pdfrwt beam="2">  1       -1 0.78195936E-01 0.71246185E+03</pdfrwt>
<totfact> 0.96052908E+00</totfact>
</mgrwt>
</event>
<event>
 4    2  0.3884658E-007  0.7850774E+03  0.7818608E-02  0.9744043E-01
         -1   -1    0    0    0  501 -0.00000000000E+00  0.00000000000E+00  0.42575847622E+03  0.42575847625E+03  0.50400000000E-02 0.  1.
          1   -1    0    0  501    0  0.00000000000E+00 -0.00000000000E+00 -0.14885342822E+04  0.14885342823E+04  0.50400000000E-02 0. -1.
    8880023    1    1    2    0    0  0.42415573050E+03  0.51265953124E+02 -0.12054845096E+04  0.14385893753E+04  0.65864270000E+03 0. -1.
    8880022    1    1    2    0    0 -0.42415573050E+03 -0.51265953124E+02  0.14270870358E+03  0.47570338317E+03  0.15294330000E+03 0.  0.
<mgrwt>
<rscale>  0 0.68453988E+03</rscale>
<asrwt>0</asrwt>
<pdfrwt beam="1">  1        1 0.22900527E+00 0.78507738E+03</pdfrwt>
<pdfrwt beam="2">  1       -1 0.65501305E-01 0.78507738E+03</pdfrwt>
<totfact> 0.16227349E+01</totfact>
</mgrwt>
</event>
<event>
 4    2  0.3884658E-007  0.7213244E+03  0.7818608E-02  0.9918130E-01
         -1   -1    0    0    0  501 -0.00000000000E+00  0.00000000000E+00  0.32021706133E+03  0.32021706137E+03  0.50400000000E-02 0.  1.
          1   -1    0    0  501    0  0.00000000000E+00 -0.00000000000E+00 -0.15105792908E+04  0.15105792908E+04  0.50400000000E-02 0. -1.
    8880023    1    1    2    0    0 -0.80935411428E+02  0.28275103043E+03 -0.12957111578E+04  0.14829620011E+04  0.65864270000E+03 0. -1.
    8880022    1    1    2    0    0  0.80935411428E+02 -0.28275103043E+03  0.10534892838E+03  0.34783435103E+03  0.15294330000E+03 0.  0.
<mgrwt>
<rscale>  0 0.59390627E+03</rscale>
<asrwt>0</asrwt>
<pdfrwt beam="1">  1        1 0.23239681E+00 0.72132440E+03</pdfrwt>
<pdfrwt beam="2">  1       -1 0.49264164E-01 0.72132440E+03</pdfrwt>
<totfact> 0.27522595E+01</totfact>
</mgrwt>
</event>
<event>
 4    2  0.3884658E-007  0.1225675E+04  0.7818608E-02  0.9132560E-01
         -1   -1    0    0    0  501 -0.00000000000E+00  0.00000000000E+00  0.79898300462E+03  0.79898300464E+03  0.50400000000E-02 0.  1.
          1   -1    0    0  501    0  0.00000000000E+00 -0.00000000000E+00 -0.24060091237E+04  0.24060091237E+04  0.50400000000E-02 0. -1.
    8880023    1    1    2    0    0 -0.64291906104E+03 -0.80939667982E+03 -0.17643402224E+04  0.21482957271E+04  0.65864270000E+03 0. -1.
    8880022    1    1    2    0    0  0.64291906104E+03  0.80939667982E+03  0.15731410330E+03  0.10566964013E+04  0.15294330000E+03 0.  0.
<mgrwt>
<rscale>  0 0.11777476E+04</rscale>
<asrwt>0</asrwt>
<pdfrwt beam="1">  1        1 0.37015525E+00 0.12256746E+04</pdfrwt>
<pdfrwt beam="2">  1       -1 0.12292046E+00 0.12256746E+04</pdfrwt>
<totfact> 0.90358824E-01</totfact>
</mgrwt>
</event>
<event>
 4    2  0.3884658E-007  0.7371234E+03  0.7818608E-02  0.9868407E-01
          1   -1    0    0  501    0  0.00000000000E+00  0.00000000000E+00  0.22211045126E+03  0.22211045132E+03  0.50400000000E-02 0. -1.
         -1   -1    0    0    0  501 -0.00000000000E+00 -0.00000000000E+00 -0.17152492325E+04  0.17152492325E+04  0.50400000000E-02 0.  1.
    8880023    1    1    2    0    0  0.26342116827E+03 -0.20037461691E+03 -0.53103159685E+03  0.90848525696E+03  0.65864270000E+03 0. -1.
    8880022    1    1    2    0    0 -0.26342116827E+03  0.20037461691E+03 -0.96210718438E+03  0.10288744269E+04  0.15294330000E+03 0.  0.
<mgrwt>
<rscale>  0 0.61817151E+03</rscale>
<asrwt>0</asrwt>
<pdfrwt beam="1">  1        1 0.34170840E-01 0.73712340E+03</pdfrwt>
<pdfrwt beam="2">  1       -1 0.26388449E+00 0.73712340E+03</pdfrwt>
<totfact> 0.76359694E+00</totfact>
</mgrwt>
</event>
<event>
 4    2  0.3884658E-007  0.7043452E+03  0.7818608E-02  0.9979632E-01
          1   -1    0    0  501    0  0.00000000000E+00  0.00000000000E+00  0.83779329275E+03  0.83779329276E+03  0.50400000000E-02 0. -1.
         -1   -1    0    0    0  501 -0.00000000000E+00 -0.00000000000E+00 -0.72805642437E+03  0.72805642439E+03  0.50400000000E-02 0.  1.
    8880023    1    1    2    0    0 -0.17590534235E+03  0.17705718738E+03  0.64546511645E+03  0.95536765692E+03  0.65864270000E+03 0. -1.
    8880022    1    1    2    0    0  0.17590534235E+03 -0.17705718738E+03 -0.53572824807E+03  0.61048206023E+03  0.15294330000E+03 0.  0.
<mgrwt>
<rscale>  0 0.56552443E+03</rscale>
<asrwt>0</asrwt>
<pdfrwt beam="1">  1        1 0.12889128E+00 0.70434519E+03</pdfrwt>
<pdfrwt beam="2">  1       -1 0.11200868E+00 0.70434519E+03</pdfrwt>
<totfact> 0.15521160E+01</totfact>
</mgrwt>
</event>
<event>
 4    2  0.3884658E-007  0.1120365E+04  0.7818608E-02  0.9238714E-01
          1   -1    0    0  501    0  0.00000000000E+00  0.00000000000E+00  0.15012037066E+04  0.15012037067E+04  0.50400000000E-02 0. -1.
         -1   -1    0    0    0  501 -0.00000000000E+00 -0.00000000000E+00 -0.84110448683E+03  0.84110448685E+03  0.50400000000E-02 0.  1.
    8880023    1    1    2    0    0 -0.87911228107E+03 -0.22038607120E+03  0.84683206473E+03  0.14044013583E+04  0.65864270000E+03 0. -1.
    8880022    1    1    2    0    0  0.87911228107E+03  0.22038607120E+03 -0.18673284492E+03  0.93790683519E+03  0.15294330000E+03 0.  0.
<mgrwt>
<rscale>  0 0.10662622E+04</rscale>
<asrwt>0</asrwt>
<pdfrwt beam="1">  1        1 0.23095441E+00 0.11203654E+04</pdfrwt>
<pdfrwt beam="2">  1       -1 0.12940069E+00 0.11203654E+04</pdfrwt>
<totfact> 0.33194384E+00</totfact>
</mgrwt>
</event>
<event>
 4    2  0.3884658E-007  0.7452374E+03  0.7818608E-02  0.9844945E-01
          1   -1    0    0  501    0  0.00000000000E+00  0.00000000000E+00  0.36636657913E+03  0.36636657917E+03  0.50400000000E-02 0. -1.
         -1   -1    0    0    0  501 -0.00000000000E+00 -0.00000000000E+00 -0.13669528452E+04  0.13669528452E+04  0.50400000000E-02 0.  1.
    8880023    1    1    2    0    0 -0.12633143067E+03 -0.32497518967E+03 -0.95398089360E+02  0.75131851168E+03  0.65864270000E+03 0. -1.
    8880022    1    1    2    0    0  0.12633143067E+03  0.32497518967E+03 -0.90518817673E+03  0.98200091272E+03  0.15294330000E+03 0.  0.
<mgrwt>
<rscale>  0 0.63005294E+03</rscale>
<asrwt>0</asrwt>
<pdfrwt beam="1">  1        1 0.56364090E-01 0.74523735E+03</pdfrwt>
<pdfrwt beam="2">  1       -1 0.21030043E+00 0.74523735E+03</pdfrwt>
<totfact> 0.89144713E+00</totfact>
</mgrwt>
</event>
<event>
 4    2  0.3884658E-007  0.6637585E+03  0.7818608E-02  0.1020599E+00
          1   -1    0    0  501    0  0.00000000000E+00  0.00000000000E+00  0.64876349207E+03  0.64876349209E+03  0.50400000000E-02 0. -1.
         -1   -1    0    0    0  501 -0.00000000000E+00 -0.00000000000E+00 -0.33862117952E+03  0.33862117956E+03  0.50400000000E-02 0.  1.
    8880023    1    1    2    0    0  0.77967584479E+02 -0.26195083084E+02  0.41662716885E+03  0.78367948212E+03  0.65864270000E+03 0. -1.
    8880022    1    1    2    0    0 -0.77967584479E+02  0.26195083084E+02 -0.10648485630E+03  0.20370518953E+03  0.15294330000E+03 0.  0.
<mgrwt>
<rscale>  0 0.47471252E+03</rscale>
<asrwt>0</asrwt>
<pdfrwt beam="1">  1        1 0.99809768E-01 0.66375849E+03</pdfrwt>
<pdfrwt beam="2">  1       -1 0.52095566E-01 0.66375849E+03</pdfrwt>
<totfact> 0.11599747E+02</totfact>
</mgrwt>
</event>
<event>
 4    2  0.3884658E-007  0.6998061E+03  0.7818608E-02  0.9998006E-01
          1   -1    0    0  501    0  0.00000000000E+00  0.00000000000E+00  0.16563665407E+03  0.16563665414E+03  0.50400000000E-02 0. -1.
         -1   -1    0    0    0  501 -0.00000000000E+00 -0.00000000000E+00 -0.17629174550E+04  0.17629174550E+04  0.50400000000E-02 0.  1.
    8880023    1    1    2    0    0 -0.26459624008E+02 -0.23498571001E+03 -0.70692678949E+03  0.99472312106E+03  0.65864270000E+03 0. -1.
    8880022    1    1    2    0    0  0.26459624008E+02  0.23498571001E+03 -0.89035401143E+03  0.93383098807E+03  0.15294330000E+03 0.  0.
<mgrwt>
<rscale>  0 0.55737736E+03</rscale>
<asrwt>0</asrwt>
<pdfrwt beam="1">  1        1 0.25482563E-01 0.69980612E+03</pdfrwt>
<pdfrwt beam="2">  1       -1 0.27121806E+00 0.69980612E+03</pdfrwt>
<totfact> 0.10084458E+01</totfact>
</mgrwt>
</event>
<event>
 4    2  0.3884658E-007  0.6711866E+03  0.7818608E-02  0.1014826E+00
         -1   -1    0    0    0  501 -0.00000000000E+00  0.00000000000E+00  0.33569328143E+03  0.33569328147E+03  0.50400000000E-02 0.  1.
          1   -1    0    0  501    0  0.00000000000E+00 -0.00000000000E+00 -0.74793928314E+03  0.74793928315E+03  0.50400000000E-02 0. -1.
    8880023    1    1    2    0    0 -0.10584570777E+03  0.74012603135E+02 -0.52658123692E+03  0.85309975068E+03  0.65864270000E+03 0.  0.
    8880022    1    1    2    0    0  0.10584570777E+03 -0.74012603135E+02  0.11433523521E+03  0.23053281394E+03  0.15294330000E+03 0.  0.
<mgrwt>
<rscale>  0 0.49600801E+03</rscale>
<asrwt>0</asrwt>
<pdfrwt beam="1">  1        1 0.11506758E+00 0.67118655E+03</pdfrwt>
<pdfrwt beam="2">  1       -1 0.51645121E-01 0.67118655E+03</pdfrwt>
<totfact> 0.95142137E+01</totfact>
</mgrwt>
</event>
<event>
 4    2  0.3884658E-007  0.8298916E+03  0.7818608E-02  0.9649543E-01
         -1   -1    0    0    0  501 -0.00000000000E+00  0.00000000000E+00  0.82880932072E+03  0.82880932073E+03  0.50400000000E-02 0.  1.
          1   -1    0    0  501    0  0.00000000000E+00 -0.00000000000E+00 -0.64510943972E+03  0.64510943974E+03  0.50400000000E-02 0. -1.
    8880023    1    1    2    0    0 -0.24441361066E+03 -0.44178265387E+03 -0.15879580513E+03  0.84494747785E+03  0.65864270000E+03 0.  0.
    8880022    1    1    2    0    0  0.24441361066E+03  0.44178265387E+03  0.34249568613E+03  0.62897128262E+03  0.15294330000E+03 0.  0.
<mgrwt>
<rscale>  0 0.74102097E+03</rscale>
<asrwt>0</asrwt>
<pdfrwt beam="1">  1        1 0.99247607E-01 0.82989164E+03</pdfrwt>
<pdfrwt beam="2">  1       -1 0.12750913E+00 0.82989164E+03</pdfrwt>
<totfact> 0.16704987E+01</totfact>
</mgrwt>
</event>
<event>
 4    2  0.3884658E-007  0.7518674E+03  0.7818608E-02  0.9826636E-01
          1   -1    0    0  501    0  0.00000000000E+00  0.00000000000E+00  0.13730166832E+04  0.13730166832E+04  0.50400000000E-02 0. -1.
         -1   -1    0    0    0  501 -0.00000000000E+00 -0.00000000000E+00 -0.44298821885E+03  0.44298821888E+03  0.50400000000E-02 0.  1.
    8880023    1    1    2    0    0 -0.24305927866E+03  0.26910329774E+03  0.11433044385E+04  0.13683748182E+04  0.65864270000E+03 0. -1.
    8880022    1    1    2    0    0  0.24305927866E+03 -0.26910329774E+03 -0.21327597417E+03  0.44763008385E+03  0.15294330000E+03 0.  0.
<mgrwt>
<rscale>  0 0.63952494E+03</rscale>
<asrwt>0</asrwt>
<pdfrwt beam="1">  1        1 0.21123333E+00 0.75186741E+03</pdfrwt>
<pdfrwt beam="2">  1       -1 0.68152035E-01 0.75186741E+03</pdfrwt>
<totfact> 0.18079013E+01</totfact>
</mgrwt>
</event>
<event>
 4    2  0.3884658E-007  0.7934511E+03  0.7818608E-02  0.9725139E-01
          1   -1    0    0  501    0  0.00000000000E+00  0.00000000000E+00  0.50516538431E+03  0.50516538434E+03  0.50400000000E-02 0. -1.
         -1   -1    0    0    0  501 -0.00000000000E+00 -0.00000000000E+00 -0.12525235348E+04  0.12525235348E+04  0.50400000000E-02 0.  1.
    8880023    1    1    2    0    0 -0.41928422887E+03 -0.14126305792E+03  0.89816717469E+02  0.79851848139E+03  0.65864270000E+03 0. -1.
    8880022    1    1    2    0    0  0.41928422887E+03  0.14126305792E+03 -0.83717486795E+03  0.95917043775E+03  0.15294330000E+03 0.  1.
<mgrwt>
<rscale>  0 0.69539551E+03</rscale>
<asrwt>0</asrwt>
<pdfrwt beam="1">  1        1 0.77717752E-01 0.79345115E+03</pdfrwt>
<pdfrwt beam="2">  1       -1 0.19269593E+00 0.79345115E+03</pdfrwt>
<totfact> 0.75935224E+00</totfact>
</mgrwt>
</event>
<event>
 4    2  0.3884658E-007  0.6664307E+03  0.7818608E-02  0.1018362E+00
          1   -1    0    0  501    0  0.00000000000E+00  0.00000000000E+00  0.46138036559E+03  0.46138036561E+03  0.50400000000E-02 0. -1.
         -1   -1    0    0    0  501 -0.00000000000E+00 -0.00000000000E+00 -0.61390651639E+03  0.61390651641E+03  0.50400000000E-02 0.  1.
    8880023    1    1    2    0    0  0.85591326048E+02 -0.54715064889E+02  0.18449509372E+03  0.69149711445E+03  0.65864270000E+03 0. -1.
    8880022    1    1    2    0    0 -0.85591326048E+02  0.54715064889E+02 -0.33702124452E+03  0.38378976757E+03  0.15294330000E+03 0.  0.
<mgrwt>
<rscale>  0 0.48282318E+03</rscale>
<asrwt>0</asrwt>
<pdfrwt beam="1">  1        1 0.70981594E-01 0.66643066E+03</pdfrwt>
<pdfrwt beam="2">  1       -1 0.94447157E-01 0.66643066E+03</pdfrwt>
<totfact> 0.55199468E+01</totfact>
</mgrwt>
</event>
<event>
 4    2  0.3884658E-007  0.7107565E+03  0.7818608E-02  0.9955202E-01
         -1   -1    0    0    0  501 -0.00000000000E+00  0.00000000000E+00  0.12430885153E+04  0.12430885153E+04  0.50400000000E-02 0.  1.
          1   -1    0    0  501    0  0.00000000000E+00 -0.00000000000E+00 -0.46803943282E+03  0.46803943285E+03  0.50400000000E-02 0. -1.
    8880023    1    1    2    0    0 -0.88990083480E+02 -0.25188369950E+03 -0.15843362626E+03  0.72820055838E+03  0.65864270000E+03 0. -1.
    8880022    1    1    2    0    0  0.88990083480E+02  0.25188369950E+03  0.93348270877E+03  0.98292738980E+03  0.15294330000E+03 0.  0.
<mgrwt>
<rscale>  0 0.57658939E+03</rscale>
<asrwt>0</asrwt>
<pdfrwt beam="1">  1        1 0.72006066E-01 0.71075653E+03</pdfrwt>
<pdfrwt beam="2">  1       -1 0.19124439E+00 0.71075653E+03</pdfrwt>
<totfact> 0.87194635E+00</totfact>
</mgrwt>
</event>
<event>
 4    2  0.3884658E-007  0.6743303E+03  0.7818608E-02  0.1012732E+00
          1   -1    0    0  501    0  0.00000000000E+00  0.00000000000E+00  0.57435749235E+03  0.57435749238E+03  0.50400000000E-02 0. -1.
         -1   -1    0    0    0  501 -0.00000000000E+00 -0.00000000000E+00 -0.35399795345E+03  0.35399795349E+03  0.50400000000E-02 0.  1.
    8880023    1    1    2    0    0 -0.11967350450E+03  0.81175215859E+02  0.24273309535E+03  0.71668732736E+03  0.65864270000E+03 0. -1.
    8880022    1    1    2    0    0  0.11967350450E+03 -0.81175215859E+02 -0.22373556450E+02  0.21166811851E+03  0.15294330000E+03 0.  0.
<mgrwt>
<rscale>  0 0.50403237E+03</rscale>
<asrwt>0</asrwt>
<pdfrwt beam="1">  1        1 0.88362690E-01 0.67433031E+03</pdfrwt>
<pdfrwt beam="2">  1       -1 0.54461224E-01 0.67433031E+03</pdfrwt>
<totfact> 0.12689642E+02</totfact>
</mgrwt>
</event>
<event>
 4    2  0.3884658E-007  0.6875399E+03  0.7818608E-02  0.1005344E+00
          1   -1    0    0  501    0  0.00000000000E+00  0.00000000000E+00  0.10875364893E+04  0.10875364893E+04  0.50400000000E-02 0. -1.
         -1   -1    0    0    0  501 -0.00000000000E+00 -0.00000000000E+00 -0.98571665962E+03  0.98571665963E+03  0.50400000000E-02 0.  1.
    8880023    1    1    2    0    0 -0.78430556303E+02 -0.18096844633E+03  0.95927055956E+03  0.11802165663E+04  0.65864270000E+03 0. -1.
    8880022    1    1    2    0    0  0.78430556303E+02  0.18096844633E+03 -0.85745072987E+03  0.89303658262E+03  0.15294330000E+03 0.  0.
<mgrwt>
<rscale>  0 0.53367638E+03</rscale>
<asrwt>0</asrwt>
<pdfrwt beam="1">  1        1 0.16731331E+00 0.68753992E+03</pdfrwt>
<pdfrwt beam="2">  1       -1 0.15164872E+00 0.68753992E+03</pdfrwt>
<totfact> 0.46027567E+00</totfact>
</mgrwt>
</event>
<event>
 4    2  0.3884658E-007  0.1494180E+04  0.7818608E-02  0.8913757E-01
         -1   -1    0    0    0  501 -0.00000000000E+00  0.00000000000E+00  0.14147719048E+04  0.14147719048E+04  0.50400000000E-02 0.  1.
          1   -1    0    0  501    0  0.00000000000E+00 -0.00000000000E+00 -0.14693864788E+04  0.14693864788E+04  0.50400000000E-02 0. -1.
    8880023    1    1    2    0    0  0.90937488293E+03  0.98579939442E+03  0.20918340657E+03  0.15087514797E+04  0.65864270000E+03 0.  1.
    8880022    1    1    2    0    0 -0.90937488293E+03 -0.98579939442E+03 -0.26379798061E+03  0.13754069039E+04  0.15294330000E+03 0. -1.
<mgrwt>
<rscale>  0 0.14567174E+04</rscale>
<asrwt>0</asrwt>
<pdfrwt beam="1">  1        1 0.22605946E+00 0.14941798E+04</pdfrwt>
<pdfrwt beam="2">  1       -1 0.21765721E+00 0.14941798E+04</pdfrwt>
<totfact> 0.74291449E-01</totfact>
</mgrwt>
</event>
<event>
 4    2  0.3884658E-007  0.6802742E+03  0.7818608E-02  0.1009169E+00
          1   -1    0    0  501    0  0.00000000000E+00  0.00000000000E+00  0.13678272658E+04  0.13678272658E+04  0.50400000000E-02 0. -1.
         -1   -1    0    0    0  501 -0.00000000000E+00 -0.00000000000E+00 -0.19365942292E+03  0.19365942298E+03  0.50400000000E-02 0.  1.
    8880023    1    1    2    0    0 -0.10707367216E+03  0.13227989821E+03  0.11436087856E+04  0.13306442062E+04  0.65864270000E+03 0. -1.
    8880022    1    1    2    0    0  0.10707367216E+03 -0.13227989821E+03  0.30559057209E+02  0.23084248252E+03  0.15294330000E+03 0.  0.
<mgrwt>
<rscale>  0 0.51806247E+03</rscale>
<asrwt>0</asrwt>
<pdfrwt beam="1">  1        1 0.21043497E+00 0.68027417E+03</pdfrwt>
<pdfrwt beam="2">  1       -1 0.29793757E-01 0.68027417E+03</pdfrwt>
<totfact> 0.86066621E+01</totfact>
</mgrwt>
</event>
<event>
 4    2  0.3884658E-007  0.1127026E+04  0.7818608E-02  0.9231547E-01
          1   -1    0    0  501    0  0.00000000000E+00  0.00000000000E+00  0.18589525939E+04  0.18589525939E+04  0.50400000000E-02 0. -1.
         -1   -1    0    0    0  501 -0.00000000000E+00 -0.00000000000E+00 -0.12816049728E+04  0.12816049728E+04  0.50400000000E-02 0.  1.
    8880023    1    1    2    0    0 -0.28584489650E+03 -0.86871701059E+03  0.14707731101E+04  0.18529328906E+04  0.65864270000E+03 0. -1.
    8880022    1    1    2    0    0  0.28584489650E+03  0.86871701059E+03 -0.89342548898E+03  0.12876246762E+04  0.15294330000E+03 0.  0.
<mgrwt>
<rscale>  0 0.10733664E+04</rscale>
<asrwt>0</asrwt>
<pdfrwt beam="1">  1        1 0.28599271E+00 0.11270256E+04</pdfrwt>
<pdfrwt beam="2">  1       -1 0.19716999E+00 0.11270256E+04</pdfrwt>
<totfact> 0.57971710E-01</totfact>
</mgrwt>
</event>
<event>
 4    2  0.3884658E-007  0.9624345E+03  0.7818608E-02  0.9432445E-01
          1   -1    0    0  501    0  0.00000000000E+00  0.00000000000E+00  0.16704638274E+04  0.16704638274E+04  0.50400000000E-02 0. -1.
         -1   -1    0    0    0  501 -0.00000000000E+00 -0.00000000000E+00 -0.74172096894E+03  0.74172096896E+03  0.50400000000E-02 0.  1.
    8880023    1    1    2    0    0 -0.42887651685E+02 -0.70045034832E+03  0.12889990427E+04  0.16086636626E+04  0.65864270000E+03 0. -1.
    8880022    1    1    2    0    0  0.42887651685E+02  0.70045034832E+03 -0.36025618420E+03  0.80352113376E+03  0.15294330000E+03 0.  0.
<mgrwt>
<rscale>  0 0.89453031E+03</rscale>
<asrwt>0</asrwt>
<pdfrwt beam="1">  1        1 0.25699443E+00 0.96243454E+03</pdfrwt>
<pdfrwt beam="2">  1       -1 0.11411092E+00 0.96243454E+03</pdfrwt>
<totfact> 0.35340413E+00</totfact>
</mgrwt>
</event>
<event>
 4    2  0.3884658E-007  0.7643287E+03  0.7818608E-02  0.9794027E-01
         -1   -1    0    0    0  501 -0.00000000000E+00  0.00000000000E+00  0.27730334883E+04  0.27730334883E+04  0.50400000000E-02 0.  1.
          1   -1    0    0  501    0  0.00000000000E+00 -0.00000000000E+00 -0.64941525232E+03  0.64941525234E+03  0.50400000000E-02 0. -1.
    8880023    1    1    2    0    0  0.36165213718E+03  0.13998514263E+03 -0.40135241475E+03  0.86329721161E+03  0.65864270000E+03 0. -1.
    8880022    1    1    2    0    0 -0.36165213718E+03 -0.13998514263E+03  0.25249706507E+04  0.25591515290E+04  0.15294330000E+03 0.  0.
<mgrwt>
<rscale>  0 0.65684063E+03</rscale>
<asrwt>0</asrwt>
<pdfrwt beam="1">  1        1 0.99910041E-01 0.76432867E+03</pdfrwt>
<pdfrwt beam="2">  1       -1 0.42662053E+00 0.76432867E+03</pdfrwt>
<totfact> 0.15393626E-01</totfact>
</mgrwt>
</event>
<event>
 4    2  0.3884658E-007  0.6644648E+03  0.7818608E-02  0.1019987E+00
         -1   -1    0    0    0  501 -0.00000000000E+00  0.00000000000E+00  0.20629018870E+04  0.20629018870E+04  0.50400000000E-02 0.  1.
          1   -1    0    0  501    0  0.00000000000E+00 -0.00000000000E+00 -0.91504261626E+02  0.91504261765E+02  0.50400000000E-02 0. -1.
    8880023    1    1    2    0    0 -0.50578505200E+02 -0.71729316429E+02  0.12965348417E+04  0.14568857478E+04  0.65864270000E+03 0.  0.
    8880022    1    1    2    0    0  0.50578505200E+02  0.71729316429E+02  0.67486278372E+03  0.69752040105E+03  0.15294330000E+03 0.  0.
<mgrwt>
<rscale>  0 0.47691413E+03</rscale>
<asrwt>0</asrwt>
<pdfrwt beam="1">  1        1 0.14077581E-01 0.66446481E+03</pdfrwt>
<pdfrwt beam="2">  1       -1 0.31736948E+00 0.66446481E+03</pdfrwt>
<totfact> 0.11307317E+01</totfact>
</mgrwt>
</event>
<event>
 4    2  0.3884658E-007  0.8846118E+03  0.7818608E-02  0.9551200E-01
         -1   -1    0    0    0  501 -0.00000000000E+00  0.00000000000E+00  0.18152333722E+04  0.18152333722E+04  0.50400000000E-02 0.  1.
          1   -1    0    0  501    0  0.00000000000E+00 -0.00000000000E+00 -0.12985114432E+04  0.12985114432E+04  0.50400000000E-02 0. -1.
    8880023    1    1    2    0    0  0.58998453018E+03  0.25417264519E+02 -0.10849281327E+04  0.13998596510E+04  0.65864270000E+03 0.  0.
    8880022    1    1    2    0    0 -0.58998453018E+03 -0.25417264519E+02  0.16016500618E+04  0.17138851644E+04  0.15294330000E+03 0.  1.
<mgrwt>
<rscale>  0 0.80612025E+03</rscale>
<asrwt>0</asrwt>
<pdfrwt beam="1">  1        1 0.19977099E+00 0.88461177E+03</pdfrwt>
<pdfrwt beam="2">  1       -1 0.27926667E+00 0.88461177E+03</pdfrwt>
<totfact> 0.42187225E-01</totfact>
</mgrwt>
</event>
<event>
 4    2  0.3884658E-007  0.9689869E+03  0.7818608E-02  0.9423307E-01
         -1   -1    0    0    0  501 -0.00000000000E+00  0.00000000000E+00  0.28586323700E+04  0.28586323700E+04  0.50400000000E-02 0.  1.
          1   -1    0    0  501    0  0.00000000000E+00 -0.00000000000E+00 -0.52215125551E+03  0.52215125553E+03  0.50400000000E-02 0. -1.
    8880023    1    1    2    0    0 -0.68814999684E+03  0.17769370447E+03  0.37628384235E+02  0.96971726412E+03  0.65864270000E+03 0.  0.
    8880022    1    1    2    0    0  0.68814999684E+03 -0.17769370447E+03  0.22988527303E+04  0.24110663614E+04  0.15294330000E+03 0.  0.
<mgrwt>
<rscale>  0 0.90182200E+03</rscale>
<asrwt>0</asrwt>
<pdfrwt beam="1">  1        1 0.80330961E-01 0.96898693E+03</pdfrwt>
<pdfrwt beam="2">  1       -1 0.43978960E+00 0.96898693E+03</pdfrwt>
<totfact> 0.16400190E-01</totfact>
</mgrwt>
</event>
<event>
 4    2  0.3884658E-007  0.1033047E+04  0.7818608E-02  0.9339544E-01
          1   -1    0    0  501    0  0.00000000000E+00  0.00000000000E+00  0.21915042145E+04  0.21915042145E+04  0.50400000000E-02 0. -1.
         -1   -1    0    0    0  501 -0.00000000000E+00 -0.00000000000E+00 -0.45645051483E+03  0.45645051486E+03  0.50400000000E-02 0.  1.
    8880023    1    1    2    0    0 -0.47377208988E+03 -0.63946611934E+03  0.14672529031E+04  0.17944409154E+04  0.65864270000E+03 0. -1.
    8880022    1    1    2    0    0  0.47377208988E+03  0.63946611934E+03  0.26780079652E+03  0.85351381392E+03  0.15294330000E+03 0.  0.
<mgrwt>
<rscale>  0 0.97222495E+03</rscale>
<asrwt>0</asrwt>
<pdfrwt beam="1">  1        1 0.33715449E+00 0.10330475E+04</pdfrwt>
<pdfrwt beam="2">  1       -1 0.70223156E-01 0.10330475E+04</pdfrwt>
<totfact> 0.45693474E+00</totfact>
</mgrwt>
</event>
<event>
 4    2  0.3924964E-007  0.6809031E+03  0.7818608E-02  0.1008817E+00
         -1   -1    0    0    0  501 -0.00000000000E+00  0.00000000000E+00  0.10315176648E+04  0.10315176648E+04  0.50400000000E-02 0.  1.
          1   -1    0    0  501    0  0.00000000000E+00 -0.00000000000E+00 -0.15504488056E+04  0.15504488056E+04  0.50400000000E-02 0. -1.
    8880023    1    1    2    0    0 -0.70323966359E+02  0.15771307536E+03 -0.14611009523E+04  0.16119693153E+04  0.65864270000E+03 0. -1.
    8880022    1    1    2    0    0  0.70323966359E+02 -0.15771307536E+03  0.94216981148E+03  0.96999715518E+03  0.15294330000E+03 0.  0.
<mgrwt>
<rscale>  0 0.51947386E+03</rscale>
<asrwt>0</asrwt>
<pdfrwt beam="1">  1        1 0.23853058E+00 0.68090314E+03</pdfrwt>
<pdfrwt beam="2">  1       -1 0.15869503E+00 0.68090314E+03</pdfrwt>
<totfact> 0.19184921E+00</totfact>
</mgrwt>
</event>
<event>
 4    2  0.3884658E-007  0.6764020E+03  0.7818608E-02  0.1011437E+00
          1   -1    0    0  501    0  0.00000000000E+00  0.00000000000E+00  0.85397340293E+03  0.85397340295E+03  0.50400000000E-02 0. -1.
         -1   -1    0    0    0  501 -0.00000000000E+00 -0.00000000000E+00 -0.39096503951E+03  0.39096503955E+03  0.50400000000E-02 0.  1.
    8880023    1    1    2    0    0 -0.52247429654E+02  0.14484369908E+03  0.66493300344E+03  0.94850176405E+03  0.65864270000E+03 0.  0.
    8880022    1    1    2    0    0  0.52247429654E+02 -0.14484369908E+03 -0.20192464002E+03  0.29643667845E+03  0.15294330000E+03 0.  0.
<mgrwt>
<rscale>  0 0.50907598E+03</rscale>
<asrwt>0</asrwt>
<pdfrwt beam="1">  1        1 0.13138052E+00 0.67640202E+03</pdfrwt>
<pdfrwt beam="2">  1       -1 0.60148467E-01 0.67640202E+03</pdfrwt>
<totfact> 0.57351772E+01</totfact>
</mgrwt>
</event>
<event>
 4    2  0.3884658E-007  0.8850657E+03  0.7818608E-02  0.9550444E-01
         -1   -1    0    0    0  501 -0.00000000000E+00  0.00000000000E+00  0.17063111733E+04  0.17063111733E+04  0.50400000000E-02 0.  1.
          1   -1    0    0  501    0  0.00000000000E+00 -0.00000000000E+00 -0.78483713721E+03  0.78483713722E+03  0.50400000000E-02 0. -1.
    8880023    1    1    2    0    0  0.58575918908E+03 -0.80107825514E+02 -0.44777814595E+03  0.99189039997E+03  0.65864270000E+03 0. -1.
    8880022    1    1    2    0    0 -0.58575918908E+03  0.80107825514E+02  0.13692521820E+04  0.14992579105E+04  0.15294330000E+03 0.  0.
<mgrwt>
<rscale>  0 0.80664787E+03</rscale>
<asrwt>0</asrwt>
<pdfrwt beam="1">  1        1 0.12074418E+00 0.88506570E+03</pdfrwt>
<pdfrwt beam="2">  1       -1 0.26250941E+00 0.88506570E+03</pdfrwt>
<totfact> 0.13521620E+00</totfact>
</mgrwt>
</event>
<event>
 4    2  0.3884658E-007  0.8221422E+03  0.7818608E-02  0.9664819E-01
          1   -1    0    0  501    0  0.00000000000E+00  0.00000000000E+00  0.16927550907E+04  0.16927550907E+04  0.50400000000E-02 0. -1.
         -1   -1    0    0    0  501 -0.00000000000E+00 -0.00000000000E+00 -0.47798640868E+03  0.47798640871E+03  0.50400000000E-02 0.  1.
    8880023    1    1    2    0    0 -0.18234819133E+03  0.45700845815E+03  0.13997013602E+04  0.16232934725E+04  0.65864270000E+03 0. -1.
    8880022    1    1    2    0    0  0.18234819133E+03 -0.45700845815E+03 -0.18493267821E+03  0.54744802693E+03  0.15294330000E+03 0.  0.
<mgrwt>
<rscale>  0 0.73150638E+03</rscale>
<asrwt>0</asrwt>
<pdfrwt beam="1">  1        1 0.26042386E+00 0.82214220E+03</pdfrwt>
<pdfrwt beam="2">  1       -1 0.73536371E-01 0.82214220E+03</pdfrwt>
<totfact> 0.92559724E+00</totfact>
</mgrwt>
</event>
<event>
 4    2  0.3884658E-007  0.7020682E+03  0.7818608E-02  0.9988727E-01
          1   -1    0    0  501    0  0.00000000000E+00  0.00000000000E+00  0.14282891797E+04  0.14282891797E+04  0.50400000000E-02 0. -1.
         -1   -1    0    0    0  501 -0.00000000000E+00 -0.00000000000E+00 -0.18293047775E+03  0.18293047782E+03  0.50400000000E-02 0.  1.
    8880023    1    1    2    0    0 -0.12768025470E+03 -0.20685103418E+03  0.68152434501E+03  0.97845553649E+03  0.65864270000E+03 0.  0.
    8880022    1    1    2    0    0  0.12768025470E+03  0.20685103418E+03  0.56383435690E+03  0.63276412099E+03  0.15294330000E+03 0.  1.
<mgrwt>
<rscale>  0 0.56147303E+03</rscale>
<asrwt>0</asrwt>
<pdfrwt beam="1">  1        1 0.21973680E+00 0.70206823E+03</pdfrwt>
<pdfrwt beam="2">  1       -1 0.28143149E-01 0.70206823E+03</pdfrwt>
<totfact> 0.86074458E+01</totfact>
</mgrwt>
</event>
<event>
 4    2  0.3884658E-007  0.6787379E+03  0.7818608E-02  0.1010047E+00
         -1   -1    0    0    0  501 -0.00000000000E+00  0.00000000000E+00  0.37362896964E+03  0.37362896967E+03  0.50400000000E-02 0.  1.
          1   -1    0    0  501    0  0.00000000000E+00 -0.00000000000E+00 -0.73884982876E+03  0.73884982877E+03  0.50400000000E-02 0. -1.
    8880023    1    1    2    0    0 -0.14145872927E+03  0.82851540742E+02 -0.50701530222E+03  0.84720108170E+03  0.65864270000E+03 0. -1.
    8880022    1    1    2    0    0  0.14145872927E+03 -0.82851540742E+02  0.14179444310E+03  0.26527771674E+03  0.15294330000E+03 0.  0.
<mgrwt>
<rscale>  0 0.51456059E+03</rscale>
<asrwt>0</asrwt>
<pdfrwt beam="1">  1        1 0.11366920E+00 0.67873791E+03</pdfrwt>
<pdfrwt beam="2">  1       -1 0.57481380E-01 0.67873791E+03</pdfrwt>
<totfact> 0.78851368E+01</totfact>
</mgrwt>
</event>
<event>
 4    2  0.3884658E-007  0.9576610E+03  0.7818608E-02  0.9439176E-01
          1   -1    0    0  501    0  0.00000000000E+00  0.00000000000E+00  0.69116692383E+03  0.69116692385E+03  0.50400000000E-02 0. -1.
         -1   -1    0    0    0  501 -0.00000000000E+00 -0.00000000000E+00 -0.14425027690E+04  0.14425027690E+04  0.50400000000E-02 0.  1.
    8880023    1    1    2    0    0 -0.12113060157E+03 -0.68456683901E+03  0.16663190292E+03  0.97204978115E+03  0.65864270000E+03 0.  0.
    8880022    1    1    2    0    0  0.12113060157E+03  0.68456683901E+03 -0.91796774806E+03  0.11616199117E+04  0.15294330000E+03 0.  0.
<mgrwt>
<rscale>  0 0.88920580E+03</rscale>
<asrwt>0</asrwt>
<pdfrwt beam="1">  1        1 0.10633337E+00 0.95766100E+03</pdfrwt>
<pdfrwt beam="2">  1       -1 0.22192350E+00 0.95766100E+03</pdfrwt>
<totfact> 0.29993332E+00</totfact>
</mgrwt>
</event>
<event>
 4    2  0.3884658E-007  0.8102002E+03  0.7818608E-02  0.9689160E-01
          1   -1    0    0  501    0  0.00000000000E+00  0.00000000000E+00  0.17286016040E+04  0.17286016040E+04  0.50400000000E-02 0. -1.
         -1   -1    0    0    0  501 -0.00000000000E+00 -0.00000000000E+00 -0.37620031182E+03  0.37620031185E+03  0.50400000000E-02 0.  1.
    8880023    1    1    2    0    0 -0.45588276172E+03  0.12159365239E+03  0.13884005666E+04  0.16075075267E+04  0.65864270000E+03 0. -1.
    8880022    1    1    2    0    0  0.45588276172E+03 -0.12159365239E+03 -0.35999274421E+02  0.49729438918E+03  0.15294330000E+03 0.  0.
<mgrwt>
<rscale>  0 0.71665875E+03</rscale>
<asrwt>0</asrwt>
<pdfrwt beam="1">  1        1 0.26593871E+00 0.81020017E+03</pdfrwt>
<pdfrwt beam="2">  1       -1 0.57876972E-01 0.81020017E+03</pdfrwt>
<totfact> 0.14207173E+01</totfact>
</mgrwt>
</event>
<event>
 4    2  0.3884658E-007  0.8272996E+03  0.7818608E-02  0.9654610E-01
         -1   -1    0    0    0  501 -0.00000000000E+00  0.00000000000E+00  0.15807902836E+04  0.15807902836E+04  0.50400000000E-02 0.  1.
          1   -1    0    0  501    0  0.00000000000E+00 -0.00000000000E+00 -0.34212565403E+03  0.34212565406E+03  0.50400000000E-02 0. -1.
    8880023    1    1    2    0    0  0.49423851011E+03  0.79640750495E+02  0.36456224051E+03  0.90406315459E+03  0.65864270000E+03 0. -1.
    8880022    1    1    2    0    0 -0.49423851011E+03 -0.79640750495E+02  0.87410238905E+03  0.10188527831E+04  0.15294330000E+03 0.  0.
<mgrwt>
<rscale>  0 0.73784834E+03</rscale>
<asrwt>0</asrwt>
<pdfrwt beam="1">  1        1 0.52634716E-01 0.82729956E+03</pdfrwt>
<pdfrwt beam="2">  1       -1 0.24319851E+00 0.82729956E+03</pdfrwt>
<totfact> 0.58577788E+00</totfact>
</mgrwt>
</event>
<event>
 4    2  0.3884658E-007  0.7621404E+03  0.7818608E-02  0.9799597E-01
         -1   -1    0    0    0  501 -0.00000000000E+00  0.00000000000E+00  0.13632392976E+04  0.13632392976E+04  0.50400000000E-02 0.  1.
          1   -1    0    0  501    0  0.00000000000E+00 -0.00000000000E+00 -0.49436336870E+03  0.49436336873E+03  0.50400000000E-02 0. -1.
    8880023    1    1    2    0    0 -0.28955394560E+03 -0.25140864272E+03 -0.13331163171E+03  0.77371182649E+03  0.65864270000E+03 0. -1.
    8880022    1    1    2    0    0  0.28955394560E+03  0.25140864272E+03  0.10021875606E+04  0.10838908398E+04  0.15294330000E+03 0.  0.
<mgrwt>
<rscale>  0 0.65384153E+03</rscale>
<asrwt>0</asrwt>
<pdfrwt beam="1">  1        1 0.76055903E-01 0.76214041E+03</pdfrwt>
<pdfrwt beam="2">  1       -1 0.20972912E+00 0.76214041E+03</pdfrwt>
<totfact> 0.60081447E+00</totfact>
</mgrwt>
</event>
<event>
 4    2  0.3907836E-007  0.1029039E+04  0.7818608E-02  0.9344515E-01
         -1   -1    0    0    0  501 -0.00000000000E+00  0.00000000000E+00  0.10627498711E+04  0.10627498711E+04  0.50400000000E-02 0.  1.
          1   -1    0    0  501    0  0.00000000000E+00 -0.00000000000E+00 -0.18240406491E+04  0.18240406491E+04  0.50400000000E-02 0. -1.
    8880023    1    1    2    0    0  0.42533110238E+03 -0.66648654524E+03 -0.14832462265E+04  0.18052535656E+04  0.65864270000E+03 0.  0.
    8880022    1    1    2    0    0 -0.42533110238E+03  0.66648654524E+03  0.72195544839E+03  0.10815369546E+04  0.15294330000E+03 0.  0.
<mgrwt>
<rscale>  0 0.96786058E+03</rscale>
<asrwt>0</asrwt>
<pdfrwt beam="1">  1        1 0.28062164E+00 0.10290389E+04</pdfrwt>
<pdfrwt beam="2">  1       -1 0.16349998E+00 0.10290389E+04</pdfrwt>
<totfact> 0.10840205E+00</totfact>
</mgrwt>
</event>
<event>
 4    2  0.3884658E-007  0.7455887E+03  0.7818608E-02  0.9843957E-01
          1   -1    0    0  501    0  0.00000000000E+00  0.00000000000E+00  0.80738015341E+03  0.80738015343E+03  0.50400000000E-02 0. -1.
         -1   -1    0    0    0  501 -0.00000000000E+00 -0.00000000000E+00 -0.11883031274E+04  0.11883031274E+04  0.50400000000E-02 0.  1.
    8880023    1    1    2    0    0 -0.34029338137E+03  0.79326902254E+02  0.59111896556E+03  0.95148524977E+03  0.65864270000E+03 0.  0.
    8880022    1    1    2    0    0  0.34029338137E+03 -0.79326902254E+02 -0.97204193958E+03  0.10441980311E+04  0.15294330000E+03 0.  0.
<mgrwt>
<rscale>  0 0.63055998E+03</rscale>
<asrwt>0</asrwt>
<pdfrwt beam="1">  1        1 0.12421233E+00 0.74558873E+03</pdfrwt>
<pdfrwt beam="2">  1       -1 0.18281587E+00 0.74558873E+03</pdfrwt>
<totfact> 0.44898371E+00</totfact>
</mgrwt>
</event>
<event>
 4    2  0.3884658E-007  0.7401362E+03  0.7818608E-02  0.9859550E-01
          1   -1    0    0  501    0  0.00000000000E+00  0.00000000000E+00  0.55840028305E+03  0.55840028307E+03  0.50400000000E-02 0. -1.
         -1   -1    0    0    0  501 -0.00000000000E+00 -0.00000000000E+00 -0.78249994478E+03  0.78249994480E+03  0.50400000000E-02 0.  1.
    8880023    1    1    2    0    0 -0.33015172582E+03 -0.70649067646E+02  0.21071305535E+03  0.76954639287E+03  0.65864270000E+03 0. -1.
    8880022    1    1    2    0    0  0.33015172582E+03  0.70649067646E+02 -0.43481271708E+03  0.57135383500E+03  0.15294330000E+03 0.  0.
<mgrwt>
<rscale>  0 0.62262337E+03</rscale>
<asrwt>0</asrwt>
<pdfrwt beam="1">  1        1 0.85907736E-01 0.74013624E+03</pdfrwt>
<pdfrwt beam="2">  1       -1 0.12038461E+00 0.74013624E+03</pdfrwt>
<totfact> 0.23934168E+01</totfact>
</mgrwt>
</event>
<event>
 4    2  0.3884658E-007  0.7441058E+03  0.7818608E-02  0.9848145E-01
         -1   -1    0    0    0  501 -0.00000000000E+00  0.00000000000E+00  0.84427014006E+03  0.84427014007E+03  0.50400000000E-02 0.  1.
          1   -1    0    0  501    0  0.00000000000E+00 -0.00000000000E+00 -0.54517120947E+03  0.54517120949E+03  0.50400000000E-02 0. -1.
    8880023    1    1    2    0    0 -0.31707134661E+03 -0.13910049646E+03 -0.19288356930E+03  0.76869855244E+03  0.65864270000E+03 0. -1.
    8880022    1    1    2    0    0  0.31707134661E+03  0.13910049646E+03  0.49198249989E+03  0.62074279712E+03  0.15294330000E+03 0.  0.
<mgrwt>
<rscale>  0 0.62841602E+03</rscale>
<asrwt>0</asrwt>
<pdfrwt beam="1">  1        1 0.83872493E-01 0.74410577E+03</pdfrwt>
<pdfrwt beam="2">  1       -1 0.12988771E+00 0.74410577E+03</pdfrwt>
<totfact> 0.20495994E+01</totfact>
</mgrwt>
</event>
<event>
 4    2  0.3884658E-007  0.8190039E+03  0.7818608E-02  0.9671119E-01
         -1   -1    0    0    0  501 -0.00000000000E+00  0.00000000000E+00  0.76530875563E+03  0.76530875565E+03  0.50400000000E-02 0.  1.
          1   -1    0    0  501    0  0.00000000000E+00 -0.00000000000E+00 -0.11353891722E+04  0.11353891722E+04  0.50400000000E-02 0. -1.
    8880023    1    1    2    0    0  0.13432745058E+03  0.46788165824E+03 -0.86404549677E+03  0.11905217078E+04  0.65864270000E+03 0. -1.
    8880022    1    1    2    0    0 -0.13432745058E+03 -0.46788165824E+03  0.49396508016E+03  0.71017622005E+03  0.15294330000E+03 0.  0.
<mgrwt>
<rscale>  0 0.72762716E+03</rscale>
<asrwt>0</asrwt>
<pdfrwt beam="1">  1        1 0.17467526E+00 0.81900386E+03</pdfrwt>
<pdfrwt beam="2">  1       -1 0.11773981E+00 0.81900386E+03</pdfrwt>
<totfact> 0.79288141E+00</totfact>
</mgrwt>
</event>
<event>
 4    2  0.3884658E-007  0.7008791E+03  0.7818608E-02  0.9993574E-01
         -1   -1    0    0    0  501 -0.00000000000E+00  0.00000000000E+00  0.38114628873E+03  0.38114628876E+03  0.50400000000E-02 0.  1.
          1   -1    0    0  501    0  0.00000000000E+00 -0.00000000000E+00 -0.21072928913E+04  0.21072928913E+04  0.50400000000E-02 0. -1.
    8880023    1    1    2    0    0 -0.10339118437E+03  0.21617499984E+03 -0.19842978109E+04  0.21044403950E+04  0.65864270000E+03 0. -1.
    8880022    1    1    2    0    0  0.10339118437E+03 -0.21617499984E+03  0.25815120832E+03  0.38399878506E+03  0.15294330000E+03 0.  0.
<mgrwt>
<rscale>  0 0.55932924E+03</rscale>
<asrwt>0</asrwt>
<pdfrwt beam="1">  1        1 0.32419890E+00 0.70087914E+03</pdfrwt>
<pdfrwt beam="2">  1       -1 0.58637892E-01 0.70087914E+03</pdfrwt>
<totfact> 0.78565935E+00</totfact>
</mgrwt>
</event>
<event>
 4    2  0.3884658E-007  0.7025343E+03  0.7818608E-02  0.9986846E-01
          1   -1    0    0  501    0  0.00000000000E+00  0.00000000000E+00  0.14119249602E+04  0.14119249602E+04  0.50400000000E-02 0. -1.
         -1   -1    0    0    0  501 -0.00000000000E+00 -0.00000000000E+00 -0.67218523280E+03  0.67218523282E+03  0.50400000000E-02 0.  1.
    8880023    1    1    2    0    0  0.48365382596E+02  0.23959356315E+03  0.12865901651E+04  0.14659020243E+04  0.65864270000E+03 0. -1.
    8880022    1    1    2    0    0 -0.48365382596E+02 -0.23959356315E+03 -0.54685043764E+03  0.61820816874E+03  0.15294330000E+03 0.  0.
<mgrwt>
<rscale>  0 0.56230801E+03</rscale>
<asrwt>0</asrwt>
<pdfrwt beam="1">  1        1 0.21721923E+00 0.70253434E+03</pdfrwt>
<pdfrwt beam="2">  1       -1 0.10341311E+00 0.70253434E+03</pdfrwt>
<totfact> 0.69605739E+00</totfact>
</mgrwt>
</event>
<event>
 4    2  0.3909000E-007  0.7043324E+03  0.7818608E-02  0.9979682E-01
          1   -1    0    0  501    0  0.00000000000E+00  0.00000000000E+00  0.79005129537E+03  0.79005129538E+03  0.50400000000E-02 0. -1.
         -1   -1    0    0    0  501 -0.00000000000E+00 -0.00000000000E+00 -0.14960302940E+04  0.14960302940E+04  0.50400000000E-02 0.  1.
    8880023    1    1    2    0    0  0.17210022901E+02 -0.24895339579E+03  0.61378860461E+03  0.93424870114E+03  0.65864270000E+03 0. -1.
    8880022    1    1    2    0    0 -0.17210022901E+02  0.24895339579E+03 -0.13197676032E+04  0.13518328882E+04  0.15294330000E+03 0.  0.
<mgrwt>
<rscale>  0 0.56550194E+03</rscale>
<asrwt>0</asrwt>
<pdfrwt beam="1">  1        1 0.12154635E+00 0.70433244E+03</pdfrwt>
<pdfrwt beam="2">  1       -1 0.23015851E+00 0.70433244E+03</pdfrwt>
<totfact> 0.22355225E+00</totfact>
</mgrwt>
</event>
<event>
 4    2  0.3884658E-007  0.7367565E+03  0.7818608E-02  0.9869498E-01
          1   -1    0    0  501    0  0.00000000000E+00  0.00000000000E+00  0.93851433389E+03  0.93851433390E+03  0.50400000000E-02 0. -1.
         -1   -1    0    0    0  501 -0.00000000000E+00 -0.00000000000E+00 -0.13104640634E+04  0.13104640634E+04  0.50400000000E-02 0.  1.
    8880023    1    1    2    0    0 -0.25728608906E+03 -0.20689077156E+03  0.76089339763E+03  0.10591359175E+04  0.65864270000E+03 0. -1.
    8880022    1    1    2    0    0  0.25728608906E+03  0.20689077156E+03 -0.11328431272E+04  0.11898424798E+04  0.15294330000E+03 0.  0.
<mgrwt>
<rscale>  0 0.61762593E+03</rscale>
<asrwt>0</asrwt>
<pdfrwt beam="1">  1        1 0.14438682E+00 0.73675649E+03</pdfrwt>
<pdfrwt beam="2">  1       -1 0.20160986E+00 0.73675649E+03</pdfrwt>
<totfact> 0.25933662E+00</totfact>
</mgrwt>
</event>
<event>
 4    2  0.3884658E-007  0.1173380E+04  0.7818608E-02  0.9183443E-01
          1   -1    0    0  501    0  0.00000000000E+00  0.00000000000E+00  0.15429097114E+04  0.15429097114E+04  0.50400000000E-02 0. -1.
         -1   -1    0    0    0  501 -0.00000000000E+00 -0.00000000000E+00 -0.85633420539E+03  0.85633420540E+03  0.50400000000E-02 0.  1.
    8880023    1    1    2    0    0 -0.96639799711E+03 -0.95322978074E+02  0.78426404741E+03  0.14113439911E+04  0.65864270000E+03 0.  0.
    8880022    1    1    2    0    0  0.96639799711E+03  0.95322978074E+02 -0.97688541420E+02  0.98789992566E+03  0.15294330000E+03 0.  0.
<mgrwt>
<rscale>  0 0.11225972E+04</rscale>
<asrwt>0</asrwt>
<pdfrwt beam="1">  1        1 0.23737072E+00 0.11733805E+04</pdfrwt>
<pdfrwt beam="2">  1       -1 0.13174373E+00 0.11733805E+04</pdfrwt>
<totfact> 0.29502451E+00</totfact>
</mgrwt>
</event>
<event>
 4    2  0.3884658E-007  0.8582784E+03  0.7818608E-02  0.9596633E-01
         -1   -1    0    0    0  501 -0.00000000000E+00  0.00000000000E+00  0.41221054751E+03  0.41221054754E+03  0.50400000000E-02 0.  1.
          1   -1    0    0  501    0  0.00000000000E+00 -0.00000000000E+00 -0.20674218774E+04  0.20674218774E+04  0.50400000000E-02 0. -1.
    8880023    1    1    2    0    0  0.26910482551E+03  0.48001486719E+03 -0.17024098525E+04  0.19065259484E+04  0.65864270000E+03 0. -1.
    8880022    1    1    2    0    0 -0.26910482551E+03 -0.48001486719E+03  0.47198522653E+02  0.57310647649E+03  0.15294330000E+03 0.  0.
<mgrwt>
<rscale>  0 0.77519423E+03</rscale>
<asrwt>0</asrwt>
<pdfrwt beam="1">  1        1 0.31806490E+00 0.85827844E+03</pdfrwt>
<pdfrwt beam="2">  1       -1 0.63417008E-01 0.85827844E+03</pdfrwt>
<totfact> 0.69762949E+00</totfact>
</mgrwt>
</event>
<event>
 4    2  0.3884658E-007  0.8236494E+03  0.7818608E-02  0.9661817E-01
         -1   -1    0    0    0  501 -0.00000000000E+00  0.00000000000E+00  0.49538844860E+03  0.49538844862E+03  0.50400000000E-02 0.  1.
          1   -1    0    0  501    0  0.00000000000E+00 -0.00000000000E+00 -0.23341499441E+04  0.23341499441E+04  0.50400000000E-02 0. -1.
    8880023    1    1    2    0    0 -0.49034634923E+03  0.64409664347E+02 -0.20956041607E+04  0.22516560909E+04  0.65864270000E+03 0. -1.
    8880022    1    1    2    0    0  0.49034634923E+03 -0.64409664347E+02  0.25684266521E+03  0.57788230182E+03  0.15294330000E+03 0.  0.
<mgrwt>
<rscale>  0 0.73336394E+03</rscale>
<asrwt>0</asrwt>
<pdfrwt beam="1">  1        1 0.35909999E+00 0.82364941E+03</pdfrwt>
<pdfrwt beam="2">  1       -1 0.76213609E-01 0.82364941E+03</pdfrwt>
<totfact> 0.31833229E+00</totfact>
</mgrwt>
</event>
<event>
 4    2  0.3884658E-007  0.9466250E+03  0.7818608E-02  0.9454987E-01
          1   -1    0    0  501    0  0.00000000000E+00  0.00000000000E+00  0.10345801786E+04  0.10345801786E+04  0.50400000000E-02 0. -1.
         -1   -1    0    0    0  501 -0.00000000000E+00 -0.00000000000E+00 -0.21075330898E+04  0.21075330898E+04  0.50400000000E-02 0.  1.
    8880023    1    1    2    0    0 -0.66858115928E+03 -0.12364468933E+03  0.73889348107E+03  0.12008590918E+04  0.65864270000E+03 0. -1.
    8880022    1    1    2    0    0  0.66858115928E+03  0.12364468933E+03 -0.18118463923E+04  0.19412541766E+04  0.15294330000E+03 0.  0.
<mgrwt>
<rscale>  0 0.87685406E+03</rscale>
<asrwt>0</asrwt>
<pdfrwt beam="1">  1        1 0.15916618E+00 0.94662505E+03</pdfrwt>
<pdfrwt beam="2">  1       -1 0.32423586E+00 0.94662505E+03</pdfrwt>
<totfact> 0.33537965E-01</totfact>
</mgrwt>
</event>
<event>
 4    2  0.3884658E-007  0.8306589E+03  0.7818608E-02  0.9648052E-01
          1   -1    0    0  501    0  0.00000000000E+00  0.00000000000E+00  0.20170058217E+04  0.20170058217E+04  0.50400000000E-02 0. -1.
         -1   -1    0    0    0  501 -0.00000000000E+00 -0.00000000000E+00 -0.41933170894E+03  0.41933170897E+03  0.50400000000E-02 0.  1.
    8880023    1    1    2    0    0  0.36588853020E+03 -0.34972787758E+03  0.17052047704E+04  0.18967650145E+04  0.65864270000E+03 0.  0.
    8880022    1    1    2    0    0 -0.36588853020E+03  0.34972787758E+03 -0.10753065764E+03  0.53957251620E+03  0.15294330000E+03 0.  0.
<mgrwt>
<rscale>  0 0.74195824E+03</rscale>
<asrwt>0</asrwt>
<pdfrwt beam="1">  1        1 0.31030858E+00 0.83065890E+03</pdfrwt>
<pdfrwt beam="2">  1       -1 0.64512572E-01 0.83065890E+03</pdfrwt>
<totfact> 0.73163796E+00</totfact>
</mgrwt>
</event>
<event>
 4    2  0.3884658E-007  0.7169670E+03  0.7818608E-02  0.9932986E-01
          1   -1    0    0  501    0  0.00000000000E+00  0.00000000000E+00  0.29738585553E+04  0.29738585553E+04  0.50400000000E-02 0. -1.
         -1   -1    0    0    0  501 -0.00000000000E+00 -0.00000000000E+00 -0.12645265143E+03  0.12645265153E+03  0.50400000000E-02 0.  1.
    8880023    1    1    2    0    0  0.10783682294E+03  0.26192102967E+03  0.25921735009E+04  0.26894990372E+04  0.65864270000E+03 0. -1.
    8880022    1    1    2    0    0 -0.10783682294E+03 -0.26192102967E+03  0.25523240296E+03  0.41081216961E+03  0.15294330000E+03 0.  0.
<mgrwt>
<rscale>  0 0.58688959E+03</rscale>
<asrwt>0</asrwt>
<pdfrwt beam="1">  1        1 0.45751668E+00 0.71696695E+03</pdfrwt>
<pdfrwt beam="2">  1       -1 0.19454255E-01 0.71696695E+03</pdfrwt>
<totfact> 0.14244991E+01</totfact>
</mgrwt>
</event>
<event>
 4    2  0.3884658E-007  0.7660752E+03  0.7818608E-02  0.9789626E-01
          1   -1    0    0  501    0  0.00000000000E+00  0.00000000000E+00  0.96821247129E+03  0.96821247131E+03  0.50400000000E-02 0. -1.
         -1   -1    0    0    0  501 -0.00000000000E+00 -0.00000000000E+00 -0.61384093377E+03  0.61384093379E+03  0.50400000000E-02 0.  1.
    8880023    1    1    2    0    0 -0.11503302426E+03  0.37393646143E+03  0.70026836566E+03  0.10379051325E+04  0.65864270000E+03 0.  0.
    8880022    1    1    2    0    0  0.11503302426E+03 -0.37393646143E+03 -0.34589682813E+03  0.54414827261E+03  0.15294330000E+03 0.  0.
<mgrwt>
<rscale>  0 0.65922265E+03</rscale>
<asrwt>0</asrwt>
<pdfrwt beam="1">  1        1 0.14895576E+00 0.76607524E+03</pdfrwt>
<pdfrwt beam="2">  1       -1 0.94437067E-01 0.76607524E+03</pdfrwt>
<totfact> 0.17871404E+01</totfact>
</mgrwt>
</event>
<event>
 4    2  0.3884658E-007  0.8058466E+03  0.7818608E-02  0.9698294E-01
         -1   -1    0    0    0  501 -0.00000000000E+00  0.00000000000E+00  0.64331230932E+03  0.64331230934E+03  0.50400000000E-02 0.  1.
          1   -1    0    0  501    0  0.00000000000E+00 -0.00000000000E+00 -0.15799386972E+04  0.15799386973E+04  0.50400000000E-02 0. -1.
    8880023    1    1    2    0    0  0.40360085682E+03  0.22953198817E+03 -0.13571828210E+04  0.15783960216E+04  0.65864270000E+03 0. -1.
    8880022    1    1    2    0    0 -0.40360085682E+03 -0.22953198817E+03  0.42055643307E+03  0.64485498497E+03  0.15294330000E+03 0.  0.
<mgrwt>
<rscale>  0 0.71118448E+03</rscale>
<asrwt>0</asrwt>
<pdfrwt beam="1">  1        1 0.24306749E+00 0.80584663E+03</pdfrwt>
<pdfrwt beam="2">  1       -1 0.98971125E-01 0.80584663E+03</pdfrwt>
<totfact> 0.58079514E+00</totfact>
</mgrwt>
</event>
<event>
 4    2  0.4622579E-007  0.6876659E+03  0.7818608E-02  0.1005282E+00
         -1   -1    0    0    0  501 -0.00000000000E+00  0.00000000000E+00  0.60578856604E+03  0.60578856606E+03  0.50400000000E-02 0.  1.
          1   -1    0    0  501    0  0.00000000000E+00 -0.00000000000E+00 -0.23883067003E+04  0.23883067003E+04  0.50400000000E-02 0. -1.
    8880023    1    1    2    0    0 -0.85143420985E+02 -0.17839512435E+03 -0.23101149703E+04  0.24102936760E+04  0.65864270000E+03 0. -1.
    8880022    1    1    2    0    0  0.85143420985E+02  0.17839512435E+03  0.52759683600E+03  0.58380159035E+03  0.15294330000E+03 0.  0.
<mgrwt>
<rscale>  0 0.53393512E+03</rscale>
<asrwt>0</asrwt>
<pdfrwt beam="1">  1        1 0.36743180E+00 0.68766593E+03</pdfrwt>
<pdfrwt beam="2">  1       -1 0.93198242E-01 0.68766593E+03</pdfrwt>
<totfact> 0.19468847E+00</totfact>
</mgrwt>
</event>
<event>
 4    2  0.3884658E-007  0.7888429E+03  0.7818608E-02  0.9735460E-01
          1   -1    0    0  501    0  0.00000000000E+00  0.00000000000E+00  0.35352005958E+03  0.35352005961E+03  0.50400000000E-02 0. -1.
         -1   -1    0    0    0  501 -0.00000000000E+00 -0.00000000000E+00 -0.11108309888E+04  0.11108309888E+04  0.50400000000E-02 0.  1.
    8880023    1    1    2    0    0  0.71818187991E+02  0.42814141272E+03 -0.41980977154E+03  0.89359575422E+03  0.65864270000E+03 0.  0.
    8880022    1    1    2    0    0 -0.71818187991E+02 -0.42814141272E+03 -0.33750115769E+03  0.57075529421E+03  0.15294330000E+03 0.  0.
<mgrwt>
<rscale>  0 0.68944182E+03</rscale>
<asrwt>0</asrwt>
<pdfrwt beam="1">  1        1 0.54387702E-01 0.78884290E+03</pdfrwt>
<pdfrwt beam="2">  1       -1 0.17089707E+00 0.78884290E+03</pdfrwt>
<totfact> 0.17517384E+01</totfact>
</mgrwt>
</event>
<event>
 4    2  0.3884658E-007  0.1028563E+04  0.7818608E-02  0.9345107E-01
         -1   -1    0    0    0  501 -0.00000000000E+00  0.00000000000E+00  0.50479630111E+03  0.50479630114E+03  0.50400000000E-02 0.  1.
          1   -1    0    0  501    0  0.00000000000E+00 -0.00000000000E+00 -0.28746236715E+04  0.28746236715E+04  0.50400000000E-02 0. -1.
    8880023    1    1    2    0    0  0.78077503766E+03 -0.12050560024E+03 -0.23602992105E+04  0.25746754803E+04  0.65864270000E+03 0. -1.
    8880022    1    1    2    0    0 -0.78077503766E+03  0.12050560024E+03 -0.95281598209E+01  0.80474449235E+03  0.15294330000E+03 0.  0.
<mgrwt>
<rscale>  0 0.96734192E+03</rscale>
<asrwt>0</asrwt>
<pdfrwt beam="1">  1        1 0.44224979E+00 0.10285628E+04</pdfrwt>
<pdfrwt beam="2">  1       -1 0.77660971E-01 0.10285628E+04</pdfrwt>
<totfact> 0.12499609E+00</totfact>
</mgrwt>
</event>
<event>
 4    2  0.3884658E-007  0.7781261E+03  0.7818608E-02  0.9760257E-01
         -1   -1    0    0    0  501 -0.00000000000E+00  0.00000000000E+00  0.21767144923E+03  0.21767144929E+03  0.50400000000E-02 0.  1.
          1   -1    0    0  501    0  0.00000000000E+00 -0.00000000000E+00 -0.19024004899E+04  0.19024004899E+04  0.50400000000E-02 0. -1.
    8880023    1    1    2    0    0  0.17980562058E+03  0.37328270074E+03 -0.13774403452E+04  0.15820310195E+04  0.65864270000E+03 0. -1.
    8880022    1    1    2    0    0 -0.17980562058E+03 -0.37328270074E+03 -0.30728869546E+03  0.53804091967E+03  0.15294330000E+03 0.  1.
<mgrwt>
<rscale>  0 0.67539678E+03</rscale>
<asrwt>0</asrwt>
<pdfrwt beam="1">  1        1 0.29267699E+00 0.77812611E+03</pdfrwt>
<pdfrwt beam="2">  1       -1 0.33487917E-01 0.77812611E+03</pdfrwt>
<totfact> 0.30101123E+01</totfact>
</mgrwt>
</event>
<event>
 4    2  0.3884658E-007  0.6869675E+03  0.7818608E-02  0.1005628E+00
         -1   -1    0    0    0  501 -0.00000000000E+00  0.00000000000E+00  0.33027477632E+03  0.33027477636E+03  0.50400000000E-02 0.  1.
          1   -1    0    0  501    0  0.00000000000E+00 -0.00000000000E+00 -0.67591384274E+03  0.67591384276E+03  0.50400000000E-02 0. -1.
    8880023    1    1    2    0    0 -0.14543842585E+03  0.13023772570E+03 -0.31685748735E+03  0.75652037280E+03  0.65864270000E+03 0. -1.
    8880022    1    1    2    0    0  0.14543842585E+03 -0.13023772570E+03 -0.28781579068E+02  0.24966824632E+03  0.15294330000E+03 0.  1.
<mgrwt>
<rscale>  0 0.53249646E+03</rscale>
<asrwt>0</asrwt>
<pdfrwt beam="1">  1        1 0.10398674E+00 0.68696754E+03</pdfrwt>
<pdfrwt beam="2">  1       -1 0.50811504E-01 0.68696754E+03</pdfrwt>
<totfact> 0.11427642E+02</totfact>
</mgrwt>
</event>
<event>
 4    2  0.3884658E-007  0.6651328E+03  0.7818608E-02  0.1019422E+00
         -1   -1    0    0    0  501 -0.00000000000E+00  0.00000000000E+00  0.16736050984E+03  0.16736050991E+03  0.50400000000E-02 0.  1.
          1   -1    0    0  501    0  0.00000000000E+00 -0.00000000000E+00 -0.14203772760E+04  0.14203772760E+04  0.50400000000E-02 0. -1.
    8880023    1    1    2    0    0 -0.71488083969E+02  0.58998682604E+02 -0.12416002916E+04  0.14085357223E+04  0.65864270000E+03 0. -1.
    8880022    1    1    2    0    0  0.71488083969E+02 -0.58998682604E+02 -0.11416474586E+02  0.17920206362E+03  0.15294330000E+03 0.  0.
<mgrwt>
<rscale>  0 0.47895668E+03</rscale>
<asrwt>0</asrwt>
<pdfrwt beam="1">  1        1 0.21851957E+00 0.66513277E+03</pdfrwt>
<pdfrwt beam="2">  1       -1 0.25747772E-01 0.66513277E+03</pdfrwt>
<totfact> 0.10192737E+02</totfact>
</mgrwt>
</event>
<event>
 4    2  0.3884658E-007  0.7120492E+03  0.7818608E-02  0.9950469E-01
          1   -1    0    0  501    0  0.00000000000E+00  0.00000000000E+00  0.75130911079E+03  0.75130911081E+03  0.50400000000E-02 0. -1.
         -1   -1    0    0    0  501 -0.00000000000E+00 -0.00000000000E+00 -0.45405896658E+03  0.45405896661E+03  0.50400000000E-02 0.  1.
    8880023    1    1    2    0    0 -0.17327492416E+03  0.20779731795E+03  0.46671248100E+03  0.85137222815E+03  0.65864270000E+03 0. -1.
    8880022    1    1    2    0    0  0.17327492416E+03 -0.20779731795E+03 -0.16946233678E+03  0.35399584926E+03  0.15294330000E+03 0.  0.
<mgrwt>
<rscale>  0 0.57876489E+03</rscale>
<asrwt>0</asrwt>
<pdfrwt beam="1">  1        1 0.11558602E+00 0.71204925E+03</pdfrwt>
<pdfrwt beam="2">  1       -1 0.69855227E-01 0.71204925E+03</pdfrwt>
<totfact> 0.51927601E+01</totfact>
</mgrwt>
</event>
<event>
 4    2  0.3884658E-007  0.7998212E+03  0.7818608E-02  0.9711183E-01
          1   -1    0    0  501    0  0.00000000000E+00  0.00000000000E+00  0.18705061106E+04  0.18705061106E+04  0.50400000000E-02 0. -1.
         -1   -1    0    0    0  501 -0.00000000000E+00 -0.00000000000E+00 -0.52092079815E+03  0.52092079818E+03  0.50400000000E-02 0.  1.
    8880023    1    1    2    0    0 -0.36819014262E+03 -0.26521639005E+03  0.16447539124E+04  0.18289148021E+04  0.65864270000E+03 0. -1.
    8880022    1    1    2    0    0  0.36819014262E+03  0.26521639005E+03 -0.29516860001E+03  0.56251210664E+03  0.15294330000E+03 0.  0.
<mgrwt>
<rscale>  0 0.70354857E+03</rscale>
<asrwt>0</asrwt>
<pdfrwt beam="1">  1        1 0.28777017E+00 0.79982118E+03</pdfrwt>
<pdfrwt beam="2">  1       -1 0.80141662E-01 0.79982118E+03</pdfrwt>
<totfact> 0.58873167E+00</totfact>
</mgrwt>
</event>
<event>
 4    2  0.3884658E-007  0.7339148E+03  0.7818608E-02  0.9878041E-01
         -1   -1    0    0    0  501 -0.00000000000E+00  0.00000000000E+00  0.16733473102E+03  0.16733473110E+03  0.50400000000E-02 0.  1.
          1   -1    0    0  501    0  0.00000000000E+00 -0.00000000000E+00 -0.19907343524E+04  0.19907343524E+04  0.50400000000E-02 0. -1.
    8880023    1    1    2    0    0 -0.44975626742E+02  0.32062119228E+03 -0.15232743897E+04  0.16908565370E+04  0.65864270000E+03 0.  0.
    8880022    1    1    2    0    0  0.44975626742E+02 -0.32062119228E+03 -0.30012523162E+03  0.46721254651E+03  0.15294330000E+03 0.  0.
<mgrwt>
<rscale>  0 0.61337419E+03</rscale>
<asrwt>0</asrwt>
<pdfrwt beam="1">  1        1 0.30626681E+00 0.73391482E+03</pdfrwt>
<pdfrwt beam="2">  1       -1 0.25743806E-01 0.73391482E+03</pdfrwt>
<totfact> 0.41743369E+01</totfact>
</mgrwt>
</event>
<event>
 4    2  0.3884658E-007  0.8251542E+03  0.7818608E-02  0.9658835E-01
         -1   -1    0    0    0  501 -0.00000000000E+00  0.00000000000E+00  0.72635604674E+03  0.72635604675E+03  0.50400000000E-02 0.  1.
          1   -1    0    0  501    0  0.00000000000E+00 -0.00000000000E+00 -0.12683617383E+04  0.12683617383E+04  0.50400000000E-02 0. -1.
    8880023    1    1    2    0    0  0.44210471793E+03 -0.22718406051E+03 -0.10036615421E+04  0.12993136174E+04  0.65864270000E+03 0. -1.
    8880022    1    1    2    0    0 -0.44210471793E+03  0.22718406051E+03  0.46165585059E+03  0.69540416764E+03  0.15294330000E+03 0.  0.
<mgrwt>
<rscale>  0 0.73521501E+03</rscale>
<asrwt>0</asrwt>
<pdfrwt beam="1">  1        1 0.19513257E+00 0.82515416E+03</pdfrwt>
<pdfrwt beam="2">  1       -1 0.11174708E+00 0.82515416E+03</pdfrwt>
<totfact> 0.71880550E+00</totfact>
</mgrwt>
</event>
<event>
 4    2  0.3884658E-007  0.1013009E+04  0.7818608E-02  0.9364733E-01
         -1   -1    0    0    0  501 -0.00000000000E+00  0.00000000000E+00  0.70046153062E+03  0.70046153064E+03  0.50400000000E-02 0.  1.
          1   -1    0    0  501    0  0.00000000000E+00 -0.00000000000E+00 -0.28713390297E+04  0.28713390297E+04  0.50400000000E-02 0. -1.
    8880023    1    1    2    0    0 -0.73653971315E+03 -0.22335177517E+03 -0.25177083440E+04  0.27138611380E+04  0.65864270000E+03 0.  0.
    8880022    1    1    2    0    0  0.73653971315E+03  0.22335177517E+03  0.34683084489E+03  0.85793942240E+03  0.15294330000E+03 0.  0.
<mgrwt>
<rscale>  0 0.95035773E+03</rscale>
<asrwt>0</asrwt>
<pdfrwt beam="1">  1        1 0.44174446E+00 0.10130089E+04</pdfrwt>
<pdfrwt beam="2">  1       -1 0.10776331E+00 0.10130089E+04</pdfrwt>
<totfact> 0.60716825E-01</totfact>
</mgrwt>
</event>
<event>
 4    2  0.3884658E-007  0.7521107E+03  0.7818608E-02  0.9825978E-01
          1   -1    0    0  501    0  0.00000000000E+00  0.00000000000E+00  0.13864710812E+04  0.13864710812E+04  0.50400000000E-02 0. -1.
         -1   -1    0    0    0  501 -0.00000000000E+00 -0.00000000000E+00 -0.41211066681E+03  0.41211066684E+03  0.50400000000E-02 0.  1.
    8880023    1    1    2    0    0  0.35907791191E+03  0.54067748222E+02  0.11444104708E+04  0.13694326563E+04  0.65864270000E+03 0. -1.
    8880022    1    1    2    0    0 -0.35907791191E+03 -0.54067748222E+02 -0.17005005643E+03  0.42914909172E+03  0.15294330000E+03 0.  0.
<mgrwt>
<rscale>  0 0.63986881E+03</rscale>
<asrwt>0</asrwt>
<pdfrwt beam="1">  1        1 0.21330325E+00 0.75211068E+03</pdfrwt>
<pdfrwt beam="2">  1       -1 0.63401640E-01 0.75211068E+03</pdfrwt>
<totfact> 0.20464402E+01</totfact>
</mgrwt>
</event>
<event>
 4    2  0.3884658E-007  0.8143578E+03  0.7818608E-02  0.9680570E-01
          1   -1    0    0  501    0  0.00000000000E+00  0.00000000000E+00  0.84530144668E+03  0.84530144669E+03  0.50400000000E-02 0. -1.
         -1   -1    0    0    0  501 -0.00000000000E+00 -0.00000000000E+00 -0.64593667935E+03  0.64593667937E+03  0.50400000000E-02 0.  1.
    8880023    1    1    2    0    0  0.27605128346E+03  0.39136177240E+03 -0.21215510268E+03  0.84153926935E+03  0.65864270000E+03 0.  0.
    8880022    1    1    2    0    0 -0.27605128346E+03 -0.39136177240E+03  0.41151987000E+03  0.64969885672E+03  0.15294330000E+03 0.  0.
<mgrwt>
<rscale>  0 0.72185500E+03</rscale>
<asrwt>0</asrwt>
<pdfrwt beam="1">  1        1 0.13004638E+00 0.81435776E+03</pdfrwt>
<pdfrwt beam="2">  1       -1 0.99374874E-01 0.81435776E+03</pdfrwt>
<totfact> 0.19943086E+01</totfact>
</mgrwt>
</event>
<event>
 4    2  0.3884658E-007  0.6712325E+03  0.7818608E-02  0.1014794E+00
          1   -1    0    0  501    0  0.00000000000E+00  0.00000000000E+00  0.15593264625E+04  0.15593264625E+04  0.50400000000E-02 0. -1.
         -1   -1    0    0    0  501 -0.00000000000E+00 -0.00000000000E+00 -0.49864565095E+03  0.49864565098E+03  0.50400000000E-02 0.  1.
    8880023    1    1    2    0    0 -0.68598016550E+01 -0.12921207990E+03  0.14623897775E+04  0.16090795152E+04  0.65864270000E+03 0. -1.
    8880022    1    1    2    0    0  0.68598016550E+01  0.12921207990E+03 -0.40170896597E+03  0.44889259832E+03  0.15294330000E+03 0.  0.
<mgrwt>
<rscale>  0 0.49612877E+03</rscale>
<asrwt>0</asrwt>
<pdfrwt beam="1">  1        1 0.23989637E+00 0.67123247E+03</pdfrwt>
<pdfrwt beam="2">  1       -1 0.76714718E-01 0.67123247E+03</pdfrwt>
<totfact> 0.10675453E+01</totfact>
</mgrwt>
</event>
<event>
 4    2  0.3884658E-007  0.7044457E+03  0.7818608E-02  0.9979236E-01
          1   -1    0    0  501    0  0.00000000000E+00  0.00000000000E+00  0.92891551964E+03  0.92891551966E+03  0.50400000000E-02 0. -1.
         -1   -1    0    0    0  501 -0.00000000000E+00 -0.00000000000E+00 -0.47231654604E+03  0.47231654606E+03  0.50400000000E-02 0.  1.
    8880023    1    1    2    0    0 -0.23831769337E+03 -0.75087597603E+02  0.71998257538E+03  0.10072827733E+04  0.65864270000E+03 0. -1.
    8880022    1    1    2    0    0  0.23831769337E+03  0.75087597603E+02 -0.26338360178E+03  0.39394929241E+03  0.15294330000E+03 0.  0.
<mgrwt>
<rscale>  0 0.56570162E+03</rscale>
<asrwt>0</asrwt>
<pdfrwt beam="1">  1        1 0.14291008E+00 0.70444565E+03</pdfrwt>
<pdfrwt beam="2">  1       -1 0.72664085E-01 0.70444565E+03</pdfrwt>
<totfact> 0.33936944E+01</totfact>
</mgrwt>
</event>
<event>
 4    2  0.3884658E-007  0.6650584E+03  0.7818608E-02  0.1019484E+00
          1   -1    0    0  501    0  0.00000000000E+00  0.00000000000E+00  0.40735165103E+03  0.40735165106E+03  0.50400000000E-02 0. -1.
         -1   -1    0    0    0  501 -0.00000000000E+00 -0.00000000000E+00 -0.77889667597E+03  0.77889667599E+03  0.50400000000E-02 0.  1.
    8880023    1    1    2    0    0  0.24153583887E+02 -0.88933143473E+02  0.10869886041E+03  0.67388288904E+03  0.65864270000E+03 0. -1.
    8880022    1    1    2    0    0 -0.24153583887E+02  0.88933143473E+02 -0.48024388536E+03  0.51236543800E+03  0.15294330000E+03 0.  0.
<mgrwt>
<rscale>  0 0.47873117E+03</rscale>
<asrwt>0</asrwt>
<pdfrwt beam="1">  1        1 0.62669485E-01 0.66505842E+03</pdfrwt>
<pdfrwt beam="2">  1       -1 0.11983026E+00 0.66505842E+03</pdfrwt>
<totfact> 0.37485556E+01</totfact>
</mgrwt>
</event>
<event>
 4    2  0.3884658E-007  0.7200402E+03  0.7818608E-02  0.9922450E-01
         -1   -1    0    0    0  501 -0.00000000000E+00  0.00000000000E+00  0.10218193648E+04  0.10218193649E+04  0.50400000000E-02 0.  1.
          1   -1    0    0  501    0  0.00000000000E+00 -0.00000000000E+00 -0.10553458738E+04  0.10553458738E+04  0.50400000000E-02 0. -1.
    8880023    1    1    2    0    0 -0.28528305148E+03  0.57107601233E+02 -0.89874947909E+03  0.11516112756E+04  0.65864270000E+03 0. -1.
    8880022    1    1    2    0    0  0.28528305148E+03 -0.57107601233E+02  0.86522297013E+03  0.92555396311E+03  0.15294330000E+03 0.  0.
<mgrwt>
<rscale>  0 0.59185498E+03</rscale>
<asrwt>0</asrwt>
<pdfrwt beam="1">  1        1 0.16236090E+00 0.72004021E+03</pdfrwt>
<pdfrwt beam="2">  1       -1 0.15720298E+00 0.72004021E+03</pdfrwt>
<totfact> 0.43885117E+00</totfact>
</mgrwt>
</event>
<event>
 4    2  0.3884658E-007  0.8459127E+03  0.7818608E-02  0.9619130E-01
          1   -1    0    0  501    0  0.00000000000E+00  0.00000000000E+00  0.71200658108E+03  0.71200658109E+03  0.50400000000E-02 0. -1.
         -1   -1    0    0    0  501 -0.00000000000E+00 -0.00000000000E+00 -0.74137347784E+03  0.74137347786E+03  0.50400000000E-02 0.  1.
    8880023    1    1    2    0    0  0.52988541429E+03  0.31298067596E+02 -0.21109137218E+03  0.87185313843E+03  0.65864270000E+03 0.  0.
    8880022    1    1    2    0    0 -0.52988541429E+03 -0.31298067596E+02  0.18172447542E+03  0.58152692053E+03  0.15294330000E+03 0.  0.
<mgrwt>
<rscale>  0 0.76042835E+03</rscale>
<asrwt>0</asrwt>
<pdfrwt beam="1">  1        1 0.10953947E+00 0.84591272E+03</pdfrwt>
<pdfrwt beam="2">  1       -1 0.11405746E+00 0.84591272E+03</pdfrwt>
<totfact> 0.18894586E+01</totfact>
</mgrwt>
</event>
<event>
 4    2  0.3884658E-007  0.7122499E+03  0.7818608E-02  0.9949739E-01
          1   -1    0    0  501    0  0.00000000000E+00  0.00000000000E+00  0.16676904487E+04  0.16676904487E+04  0.50400000000E-02 0. -1.
         -1   -1    0    0    0  501 -0.00000000000E+00 -0.00000000000E+00 -0.21308830286E+03  0.21308830292E+03  0.50400000000E-02 0.  1.
    8880023    1    1    2    0    0 -0.23480995135E+03 -0.13547693687E+03  0.13914943073E+04  0.15631878733E+04  0.65864270000E+03 0.  0.
    8880022    1    1    2    0    0  0.23480995135E+03  0.13547693687E+03  0.63107838480E+02  0.31759087829E+03  0.15294330000E+03 0.  0.
<mgrwt>
<rscale>  0 0.57910102E+03</rscale>
<asrwt>0</asrwt>
<pdfrwt beam="1">  1        1 0.25656777E+00 0.71224990E+03</pdfrwt>
<pdfrwt beam="2">  1       -1 0.32782815E-01 0.71224990E+03</pdfrwt>
<totfact> 0.45269018E+01</totfact>
</mgrwt>
</event>
<event>
 4    2  0.3884658E-007  0.7308284E+03  0.7818608E-02  0.9887517E-01
          1   -1    0    0  501    0  0.00000000000E+00  0.00000000000E+00  0.10856771625E+04  0.10856771625E+04  0.50400000000E-02 0. -1.
         -1   -1    0    0    0  501 -0.00000000000E+00 -0.00000000000E+00 -0.39359571491E+03  0.39359571494E+03  0.50400000000E-02 0.  1.
    8880023    1    1    2    0    0 -0.19647861920E+03  0.24838692264E+03  0.82603797702E+03  0.11029274033E+04  0.65864270000E+03 0.  0.
    8880022    1    1    2    0    0  0.19647861920E+03 -0.24838692264E+03 -0.13395652944E+03  0.37634547418E+03  0.15294330000E+03 0.  0.
<mgrwt>
<rscale>  0 0.60870107E+03</rscale>
<asrwt>0</asrwt>
<pdfrwt beam="1">  1        1 0.16702726E+00 0.73082838E+03</pdfrwt>
<pdfrwt beam="2">  1       -1 0.60553187E-01 0.73082838E+03</pdfrwt>
<totfact> 0.36983473E+01</totfact>
</mgrwt>
</event>
<event>
 4    2  0.3884658E-007  0.9193847E+03  0.7818608E-02  0.9495603E-01
          1   -1    0    0  501    0  0.00000000000E+00  0.00000000000E+00  0.80235708450E+03  0.80235708452E+03  0.50400000000E-02 0. -1.
         -1   -1    0    0    0  501 -0.00000000000E+00 -0.00000000000E+00 -0.11560214705E+04  0.11560214705E+04  0.50400000000E-02 0.  1.
    8880023    1    1    2    0    0  0.29632422161E+03 -0.56890244159E+03  0.35940115611E+03  0.98713597322E+03  0.65864270000E+03 0. -1.
    8880022    1    1    2    0    0 -0.29632422161E+03  0.56890244159E+03 -0.71306554211E+03  0.97124258181E+03  0.15294330000E+03 0.  0.
<mgrwt>
<rscale>  0 0.84608764E+03</rscale>
<asrwt>0</asrwt>
<pdfrwt beam="1">  1        1 0.12343955E+00 0.91938471E+03</pdfrwt>
<pdfrwt beam="2">  1       -1 0.17784946E+00 0.91938471E+03</pdfrwt>
<totfact> 0.48052004E+00</totfact>
</mgrwt>
</event>
<event>
 4    2  0.3884658E-007  0.8283953E+03  0.7818608E-02  0.9652463E-01
         -1   -1    0    0    0  501 -0.00000000000E+00  0.00000000000E+00  0.29166761273E+03  0.29166761277E+03  0.50400000000E-02 0.  1.
          1   -1    0    0  501    0  0.00000000000E+00 -0.00000000000E+00 -0.20605259844E+04  0.20605259844E+04  0.50400000000E-02 0. -1.
    8880023    1    1    2    0    0  0.19805016444E+03 -0.46174091818E+03 -0.15979267899E+04  0.17998913232E+04  0.65864270000E+03 0.  1.
    8880022    1    1    2    0    0 -0.19805016444E+03  0.46174091818E+03 -0.17093158173E+03  0.55230227394E+03  0.15294330000E+03 0.  0.
<mgrwt>
<rscale>  0 0.73919066E+03</rscale>
<asrwt>0</asrwt>
<pdfrwt beam="1">  1        1 0.31700399E+00 0.82839529E+03</pdfrwt>
<pdfrwt beam="2">  1       -1 0.44871942E-01 0.82839529E+03</pdfrwt>
<totfact> 0.13786045E+01</totfact>
</mgrwt>
</event>
<event>
 4    2  0.3884658E-007  0.7079660E+03  0.7818608E-02  0.9965633E-01
          1   -1    0    0  501    0  0.00000000000E+00  0.00000000000E+00  0.35702916704E+04  0.35702916704E+04  0.50400000000E-02 0. -1.
         -1   -1    0    0    0  501 -0.00000000000E+00 -0.00000000000E+00 -0.11965519975E+03  0.11965519985E+03  0.50400000000E-02 0.  1.
    8880023    1    1    2    0    0 -0.94650179761E+02 -0.24175808950E+03  0.32540279641E+04  0.33301522229E+04  0.65864270000E+03 0.  0.
    8880022    1    1    2    0    0  0.94650179761E+02  0.24175808950E+03  0.19660850648E+03  0.35979464727E+03  0.15294330000E+03 0.  0.
<mgrwt>
<rscale>  0 0.57183193E+03</rscale>
<asrwt>0</asrwt>
<pdfrwt beam="1">  1        1 0.54927563E+00 0.70796599E+03</pdfrwt>
<pdfrwt beam="2">  1       -1 0.18408493E-01 0.70796599E+03</pdfrwt>
<totfact> 0.56178205E+00</totfact>
</mgrwt>
</event>
<event>
 4    2  0.3884658E-007  0.1869160E+04  0.7818608E-02  0.8685214E-01
          1   -1    0    0  501    0  0.00000000000E+00  0.00000000000E+00  0.18195303113E+04  0.18195303113E+04  0.50400000000E-02 0. -1.
         -1   -1    0    0    0  501 -0.00000000000E+00 -0.00000000000E+00 -0.25791591943E+04  0.25791591943E+04  0.50400000000E-02 0.  1.
    8880023    1    1    2    0    0  0.14494371272E+04  0.97932710739E+03  0.81595302529E+03  0.20394948185E+04  0.65864270000E+03 0.  0.
    8880022    1    1    2    0    0 -0.14494371272E+04 -0.97932710739E+03 -0.15755819083E+04  0.23591946871E+04  0.15294330000E+03 0.  0.
<mgrwt>
<rscale>  0 0.18401897E+04</rscale>
<asrwt>0</asrwt>
<pdfrwt beam="1">  1        1 0.27992774E+00 0.18691602E+04</pdfrwt>
<pdfrwt beam="2">  1       -1 0.39679372E+00 0.18691602E+04</pdfrwt>
<totfact> 0.26821549E-02</totfact>
</mgrwt>
</event>
<event>
 4    2  0.3884658E-007  0.6806637E+03  0.7818608E-02  0.1008951E+00
         -1   -1    0    0    0  501 -0.00000000000E+00  0.00000000000E+00  0.58722588916E+03  0.58722588918E+03  0.50400000000E-02 0.  1.
          1   -1    0    0  501    0  0.00000000000E+00 -0.00000000000E+00 -0.47768263340E+03  0.47768263342E+03  0.50400000000E-02 0. -1.
    8880023    1    1    2    0    0 -0.10271790616E+03  0.13762938477E+03 -0.17133589483E+03  0.70189672383E+03  0.65864270000E+03 0. -1.
    8880022    1    1    2    0    0  0.10271790616E+03 -0.13762938477E+03  0.28087915059E+03  0.36301179877E+03  0.15294330000E+03 0.  0.
<mgrwt>
<rscale>  0 0.51893796E+03</rscale>
<asrwt>0</asrwt>
<pdfrwt beam="1">  1        1 0.73489636E-01 0.68066366E+03</pdfrwt>
<pdfrwt beam="2">  1       -1 0.90342445E-01 0.68066366E+03</pdfrwt>
<totfact> 0.58033575E+01</totfact>
</mgrwt>
</event>
<event>
 4    2  0.3884658E-007  0.6633931E+03  0.7818608E-02  0.1020921E+00
         -1   -1    0    0    0  501 -0.00000000000E+00  0.00000000000E+00  0.13521734930E+04  0.13521734930E+04  0.50400000000E-02 0.  1.
          1   -1    0    0  501    0  0.00000000000E+00 -0.00000000000E+00 -0.27765440711E+03  0.27765440716E+03  0.50400000000E-02 0. -1.
    8880023    1    1    2    0    0  0.19237184282E+02  0.76876994321E+02  0.13799421114E+03  0.67759335157E+03  0.65864270000E+03 0. -1.
    8880022    1    1    2    0    0 -0.19237184282E+02 -0.76876994321E+02  0.93652487475E+03  0.95223454861E+03  0.15294330000E+03 0.  0.
<mgrwt>
<rscale>  0 0.47355581E+03</rscale>
<asrwt>0</asrwt>
<pdfrwt beam="1">  1        1 0.42716063E-01 0.66339306E+03</pdfrwt>
<pdfrwt beam="2">  1       -1 0.20802669E+00 0.66339306E+03</pdfrwt>
<totfact> 0.13380459E+01</totfact>
</mgrwt>
</event>
<event>
 4    2  0.3884658E-007  0.8266957E+03  0.7818608E-02  0.9655796E-01
         -1   -1    0    0    0  501 -0.00000000000E+00  0.00000000000E+00  0.29280598860E+04  0.29280598860E+04  0.50400000000E-02 0.  1.
          1   -1    0    0  501    0  0.00000000000E+00 -0.00000000000E+00 -0.17102726837E+03  0.17102726845E+03  0.50400000000E-02 0. -1.
    8880023    1    1    2    0    0 -0.19095302935E+03 -0.46168443753E+03  0.12038244060E+04  0.14603489261E+04  0.65864270000E+03 0.  0.
    8880022    1    1    2    0    0  0.19095302935E+03  0.46168443753E+03  0.15532082116E+04  0.16387382283E+04  0.15294330000E+03 0. -1.
<mgrwt>
<rscale>  0 0.73710784E+03</rscale>
<asrwt>0</asrwt>
<pdfrwt beam="1">  1        1 0.26311889E-01 0.82669570E+03</pdfrwt>
<pdfrwt beam="2">  1       -1 0.45047072E+00 0.82669570E+03</pdfrwt>
<totfact> 0.61767062E-01</totfact>
</mgrwt>
</event>
<event>
 4    2  0.3884658E-007  0.7376966E+03  0.7818608E-02  0.9866708E-01
         -1   -1    0    0    0  501 -0.00000000000E+00  0.00000000000E+00  0.42820705468E+03  0.42820705471E+03  0.50400000000E-02 0.  1.
          1   -1    0    0  501    0  0.00000000000E+00 -0.00000000000E+00 -0.14138570708E+04  0.14138570708E+04  0.50400000000E-02 0. -1.
    8880023    1    1    2    0    0 -0.23650184771E+03 -0.23335158593E+03 -0.12069714112E+04  0.14145586875E+04  0.65864270000E+03 0. -1.
    8880022    1    1    2    0    0  0.23650184771E+03  0.23335158593E+03  0.22132139507E+03  0.42750543804E+03  0.15294330000E+03 0.  0.
<mgrwt>
<rscale>  0 0.61902234E+03</rscale>
<asrwt>0</asrwt>
<pdfrwt beam="1">  1        1 0.21751647E+00 0.73769661E+03</pdfrwt>
<pdfrwt beam="2">  1       -1 0.65878009E-01 0.73769661E+03</pdfrwt>
<totfact> 0.18173242E+01</totfact>
</mgrwt>
</event>
<event>
 4    2  0.3884658E-007  0.7436510E+03  0.7818608E-02  0.9849437E-01
          1   -1    0    0  501    0  0.00000000000E+00  0.00000000000E+00  0.86782350356E+03  0.86782350358E+03  0.50400000000E-02 0. -1.
         -1   -1    0    0    0  501 -0.00000000000E+00 -0.00000000000E+00 -0.48740192063E+03  0.48740192066E+03  0.50400000000E-02 0.  1.
    8880023    1    1    2    0    0  0.27619055788E+03 -0.20718428245E+03  0.56592640285E+03  0.93449957242E+03  0.65864270000E+03 0. -1.
    8880022    1    1    2    0    0 -0.27619055788E+03  0.20718428245E+03 -0.18550481992E+03  0.42072585181E+03  0.15294330000E+03 0.  0.
<mgrwt>
<rscale>  0 0.62775635E+03</rscale>
<asrwt>0</asrwt>
<pdfrwt beam="1">  1        1 0.13351131E+00 0.74365096E+03</pdfrwt>
<pdfrwt beam="2">  1       -1 0.74984912E-01 0.74365096E+03</pdfrwt>
<totfact> 0.35501501E+01</totfact>
</mgrwt>
</event>
<event>
 4    2  0.3884658E-007  0.1029773E+04  0.7818608E-02  0.9343602E-01
          1   -1    0    0  501    0  0.00000000000E+00  0.00000000000E+00  0.14809062229E+04  0.14809062229E+04  0.50400000000E-02 0. -1.
         -1   -1    0    0    0  501 -0.00000000000E+00 -0.00000000000E+00 -0.67147299197E+03  0.67147299199E+03  0.50400000000E-02 0.  1.
    8880023    1    1    2    0    0  0.71612693753E+03 -0.33731800513E+03  0.86411400162E+03  0.13442932869E+04  0.65864270000E+03 0.  0.
    8880022    1    1    2    0    0 -0.71612693753E+03  0.33731800513E+03 -0.54680770710E+02  0.80808592795E+03  0.15294330000E+03 0.  0.
<mgrwt>
<rscale>  0 0.96865967E+03</rscale>
<asrwt>0</asrwt>
<pdfrwt beam="1">  1        1 0.22783173E+00 0.10297725E+04</pdfrwt>
<pdfrwt beam="2">  1       -1 0.10330354E+00 0.10297725E+04</pdfrwt>
<totfact> 0.59753051E+00</totfact>
</mgrwt>
</event>
<event>
 4    2  0.3884658E-007  0.1148609E+04  0.7818608E-02  0.9208773E-01
         -1   -1    0    0    0  501 -0.00000000000E+00  0.00000000000E+00  0.20323626896E+04  0.20323626896E+04  0.50400000000E-02 0.  1.
          1   -1    0    0  501    0  0.00000000000E+00 -0.00000000000E+00 -0.78322955482E+03  0.78322955484E+03  0.50400000000E-02 0. -1.
    8880023    1    1    2    0    0 -0.44178675329E+03 -0.83085250691E+03 -0.11171605848E+03  0.11540286425E+04  0.65864270000E+03 0.  0.
    8880022    1    1    2    0    0  0.44178675329E+03  0.83085250691E+03  0.13608491932E+04  0.16615636020E+04  0.15294330000E+03 0.  0.
<mgrwt>
<rscale>  0 0.10963331E+04</rscale>
<asrwt>0</asrwt>
<pdfrwt beam="1">  1        1 0.12049685E+00 0.11486086E+04</pdfrwt>
<pdfrwt beam="2">  1       -1 0.31267118E+00 0.11486086E+04</pdfrwt>
<totfact> 0.62150680E-01</totfact>
</mgrwt>
</event>
<event>
 4    2  0.3884658E-007  0.6913211E+03  0.7818608E-02  0.1003531E+00
          1   -1    0    0  501    0  0.00000000000E+00  0.00000000000E+00  0.14509502790E+03  0.14509502799E+03  0.50400000000E-02 0. -1.
         -1   -1    0    0    0  501 -0.00000000000E+00 -0.00000000000E+00 -0.17512860345E+04  0.17512860345E+04  0.50400000000E-02 0.  1.
    8880023    1    1    2    0    0  0.14900794441E+03  0.14802472171E+03 -0.84323948663E+03  0.10904025513E+04  0.65864270000E+03 0.  0.
    8880022    1    1    2    0    0 -0.14900794441E+03 -0.14802472171E+03 -0.76295151993E+03  0.80597851119E+03  0.15294330000E+03 0.  0.
<mgrwt>
<rscale>  0 0.54128743E+03</rscale>
<asrwt>0</asrwt>
<pdfrwt beam="1">  1        1 0.22322313E-01 0.69132112E+03</pdfrwt>
<pdfrwt beam="2">  1       -1 0.26942861E+00 0.69132112E+03</pdfrwt>
<totfact> 0.12329867E+01</totfact>
</mgrwt>
</event>
<event>
 4    2  0.3884658E-007  0.9340071E+03  0.7818608E-02  0.9473508E-01
          1   -1    0    0  501    0  0.00000000000E+00  0.00000000000E+00  0.10607129862E+04  0.10607129862E+04  0.50400000000E-02 0. -1.
         -1   -1    0    0    0  501 -0.00000000000E+00 -0.00000000000E+00 -0.10126619831E+04  0.10126619831E+04  0.50400000000E-02 0.  1.
    8880023    1    1    2    0    0 -0.30065628345E+03  0.59005494527E+03  0.67208261596E+03  0.11506799243E+04  0.65864270000E+03 0.  0.
    8880022    1    1    2    0    0  0.30065628345E+03 -0.59005494527E+03 -0.62403161291E+03  0.92269504504E+03  0.15294330000E+03 0.  0.
<mgrwt>
<rscale>  0 0.86265488E+03</rscale>
<asrwt>0</asrwt>
<pdfrwt beam="1">  1        1 0.16318661E+00 0.93400709E+03</pdfrwt>
<pdfrwt beam="2">  1       -1 0.15579415E+00 0.93400709E+03</pdfrwt>
<totfact> 0.43203400E+00</totfact>
</mgrwt>
</event>
<event>
 4    2  0.3884658E-007  0.7091194E+03  0.7818608E-02  0.9961286E-01
          1   -1    0    0  501    0  0.00000000000E+00  0.00000000000E+00  0.20412738856E+04  0.20412738856E+04  0.50400000000E-02 0. -1.
         -1   -1    0    0    0  501 -0.00000000000E+00 -0.00000000000E+00 -0.42213825869E+03  0.42213825872E+03  0.50400000000E-02 0.  1.
    8880023    1    1    2    0    0 -0.26208147710E+03 -0.18797514351E+02  0.19132315618E+04  0.20404179137E+04  0.65864270000E+03 0.  0.
    8880022    1    1    2    0    0  0.26208147710E+03  0.18797514351E+02 -0.29409593492E+03  0.42299423062E+03  0.15294330000E+03 0.  0.
<mgrwt>
<rscale>  0 0.57380869E+03</rscale>
<asrwt>0</asrwt>
<pdfrwt beam="1">  1        1 0.31404213E+00 0.70911935E+03</pdfrwt>
<pdfrwt beam="2">  1       -1 0.64944349E-01 0.70911935E+03</pdfrwt>
<totfact> 0.70920843E+00</totfact>
</mgrwt>
</event>
<event>
 4    2  0.3884658E-007  0.8874004E+03  0.7818608E-02  0.9546568E-01
          1   -1    0    0  501    0  0.00000000000E+00  0.00000000000E+00  0.17074053949E+04  0.17074053949E+04  0.50400000000E-02 0. -1.
         -1   -1    0    0    0  501 -0.00000000000E+00 -0.00000000000E+00 -0.35415409505E+03  0.35415409509E+03  0.50400000000E-02 0.  1.
    8880023    1    1    2    0    0  0.57932794780E+03 -0.13434445936E+03  0.10559688917E+04  0.13793294789E+04  0.65864270000E+03 0.  0.
    8880022    1    1    2    0    0 -0.57932794780E+03  0.13434445936E+03  0.29728240821E+03  0.68223001115E+03  0.15294330000E+03 0.  0.
<mgrwt>
<rscale>  0 0.80935894E+03</rscale>
<asrwt>0</asrwt>
<pdfrwt beam="1">  1        1 0.26267775E+00 0.88740042E+03</pdfrwt>
<pdfrwt beam="2">  1       -1 0.54485245E-01 0.88740042E+03</pdfrwt>
<totfact> 0.16353651E+01</totfact>
</mgrwt>
</event>
<event>
 4    2  0.3884658E-007  0.8109498E+03  0.7818608E-02  0.9687602E-01
         -1   -1    0    0    0  501 -0.00000000000E+00  0.00000000000E+00  0.62726589658E+03  0.62726589661E+03  0.50400000000E-02 0.  1.
          1   -1    0    0  501    0  0.00000000000E+00 -0.00000000000E+00 -0.10919560998E+04  0.10919560998E+04  0.50400000000E-02 0. -1.
    8880023    1    1    2    0    0  0.40707511615E+03 -0.24107936614E+03 -0.78428065129E+03  0.11281559100E+04  0.65864270000E+03 0. -1.
    8880022    1    1    2    0    0 -0.40707511615E+03  0.24107936614E+03  0.31959044810E+03  0.59106608641E+03  0.15294330000E+03 0.  0.
<mgrwt>
<rscale>  0 0.71759792E+03</rscale>
<asrwt>0</asrwt>
<pdfrwt beam="1">  1        1 0.16799325E+00 0.81094982E+03</pdfrwt>
<pdfrwt beam="2">  1       -1 0.96502446E-01 0.81094982E+03</pdfrwt>
<totfact> 0.13606694E+01</totfact>
</mgrwt>
</event>
<event>
 4    2  0.4274976E-007  0.8576592E+03  0.7818608E-02  0.9597741E-01
         -1   -1    0    0    0  501 -0.00000000000E+00  0.00000000000E+00  0.10929954819E+04  0.10929954819E+04  0.50400000000E-02 0.  1.
          1   -1    0    0  501    0  0.00000000000E+00 -0.00000000000E+00 -0.18882859590E+04  0.18882859590E+04  0.50400000000E-02 0. -1.
    8880023    1    1    2    0    0  0.81888616715E+02 -0.54319740785E+03 -0.17044639281E+04  0.19080819317E+04  0.65864270000E+03 0.  0.
    8880022    1    1    2    0    0 -0.81888616715E+02  0.54319740785E+03  0.90917345105E+03  0.10731995092E+04  0.15294330000E+03 0.  0.
<mgrwt>
<rscale>  0 0.77445887E+03</rscale>
<asrwt>0</asrwt>
<pdfrwt beam="1">  1        1 0.29050553E+00 0.85765924E+03</pdfrwt>
<pdfrwt beam="2">  1       -1 0.16815315E+00 0.85765924E+03</pdfrwt>
<totfact> 0.93240812E-01</totfact>
</mgrwt>
</event>
<event>
 4    2  0.3884658E-007  0.6873474E+03  0.7818608E-02  0.1005440E+00
          1   -1    0    0  501    0  0.00000000000E+00  0.00000000000E+00  0.34226067657E+03  0.34226067661E+03  0.50400000000E-02 0. -1.
         -1   -1    0    0    0  501 -0.00000000000E+00 -0.00000000000E+00 -0.85769128526E+03  0.85769128528E+03  0.50400000000E-02 0.  1.
    8880023    1    1    2    0    0  0.11556837465E+03 -0.15899735987E+03 -0.71662790893E+02  0.69107305802E+03  0.65864270000E+03 0.  0.
    8880022    1    1    2    0    0 -0.11556837465E+03  0.15899735987E+03 -0.44376781780E+03  0.50887890386E+03  0.15294330000E+03 0.  0.
<mgrwt>
<rscale>  0 0.53328033E+03</rscale>
<asrwt>0</asrwt>
<pdfrwt beam="1">  1        1 0.52655489E-01 0.68734738E+03</pdfrwt>
<pdfrwt beam="2">  1       -1 0.13195250E+00 0.68734738E+03</pdfrwt>
<totfact> 0.37020831E+01</totfact>
</mgrwt>
</event>
<event>
 4    2  0.3884658E-007  0.1021644E+04  0.7818608E-02  0.9353773E-01
          1   -1    0    0  501    0  0.00000000000E+00  0.00000000000E+00  0.21774612986E+04  0.21774612986E+04  0.50400000000E-02 0. -1.
         -1   -1    0    0    0  501 -0.00000000000E+00 -0.00000000000E+00 -0.71210102524E+03  0.71210102526E+03  0.50400000000E-02 0.  1.
    8880023    1    1    2    0    0  0.77085141897E+03  0.12543428947E+03 -0.20254152940E+03  0.10415272193E+04  0.65864270000E+03 0.  0.
    8880022    1    1    2    0    0 -0.77085141897E+03 -0.12543428947E+03  0.16679018028E+04  0.18480351046E+04  0.15294330000E+03 0.  0.
<mgrwt>
<rscale>  0 0.95979611E+03</rscale>
<asrwt>0</asrwt>
<pdfrwt beam="1">  1        1 0.33499404E+00 0.10216437E+04</pdfrwt>
<pdfrwt beam="2">  1       -1 0.10955401E+00 0.10216437E+04</pdfrwt>
<totfact> 0.17570126E+00</totfact>
</mgrwt>
</event>
<event>
 4    2  0.3884658E-007  0.9516575E+03  0.7818608E-02  0.9447733E-01
         -1   -1    0    0    0  501 -0.00000000000E+00  0.00000000000E+00  0.99635165874E+03  0.99635165876E+03  0.50400000000E-02 0.  1.
          1   -1    0    0  501    0  0.00000000000E+00 -0.00000000000E+00 -0.15261881923E+04  0.15261881923E+04  0.50400000000E-02 0. -1.
    8880023    1    1    2    0    0  0.31689162084E+03 -0.60944351604E+03 -0.12129949637E+04  0.15417550671E+04  0.65864270000E+03 0. -1.
    8880022    1    1    2    0    0 -0.31689162084E+03  0.60944351604E+03  0.68315843021E+03  0.98078478393E+03  0.15294330000E+03 0.  0.
<mgrwt>
<rscale>  0 0.88249393E+03</rscale>
<asrwt>0</asrwt>
<pdfrwt beam="1">  1        1 0.23479818E+00 0.95165745E+03</pdfrwt>
<pdfrwt beam="2">  1       -1 0.15328487E+00 0.95165745E+03</pdfrwt>
<totfact> 0.20903848E+00</totfact>
</mgrwt>
</event>
<event>
 4    2  0.3884658E-007  0.7788118E+03  0.7818608E-02  0.9758635E-01
         -1   -1    0    0    0  501 -0.00000000000E+00  0.00000000000E+00  0.82869493672E+03  0.82869493674E+03  0.50400000000E-02 0.  1.
          1   -1    0    0  501    0  0.00000000000E+00 -0.00000000000E+00 -0.58996169444E+03  0.58996169446E+03  0.50400000000E-02 0. -1.
    8880023    1    1    2    0    0  0.37050997873E+03 -0.18830823992E+03 -0.19065311766E+03  0.80180824085E+03  0.65864270000E+03 0. -1.
    8880022    1    1    2    0    0 -0.37050997873E+03  0.18830823992E+03  0.42938635994E+03  0.61684839035E+03  0.15294330000E+03 0.  0.
<mgrwt>
<rscale>  0 0.67630439E+03</rscale>
<asrwt>0</asrwt>
<pdfrwt beam="1">  1        1 0.90763338E-01 0.77881182E+03</pdfrwt>
<pdfrwt beam="2">  1       -1 0.12749153E+00 0.77881182E+03</pdfrwt>
<totfact> 0.19130629E+01</totfact>
</mgrwt>
</event>
<event>
 4    2  0.3884658E-007  0.8378659E+03  0.7818608E-02  0.9634217E-01
         -1   -1    0    0    0  501 -0.00000000000E+00  0.00000000000E+00  0.53565256019E+03  0.53565256021E+03  0.50400000000E-02 0.  1.
          1   -1    0    0  501    0  0.00000000000E+00 -0.00000000000E+00 -0.11410986790E+04  0.11410986790E+04  0.50400000000E-02 0. -1.
    8880023    1    1    2    0    0 -0.30013134706E+03  0.42205474740E+03 -0.74262036248E+03  0.11196000377E+04  0.65864270000E+03 0. -1.
    8880022    1    1    2    0    0  0.30013134706E+03 -0.42205474740E+03  0.13717424365E+03  0.55715120158E+03  0.15294330000E+03 0.  0.
<mgrwt>
<rscale>  0 0.75072253E+03</rscale>
<asrwt>0</asrwt>
<pdfrwt beam="1">  1        1 0.17555364E+00 0.83786589E+03</pdfrwt>
<pdfrwt beam="2">  1       -1 0.82408087E-01 0.83786589E+03</pdfrwt>
<totfact> 0.17640782E+01</totfact>
</mgrwt>
</event>
<event>
 4    2  0.3884658E-007  0.6658340E+03  0.7818608E-02  0.1018844E+00
          1   -1    0    0  501    0  0.00000000000E+00  0.00000000000E+00  0.39640778165E+03  0.39640778168E+03  0.50400000000E-02 0. -1.
         -1   -1    0    0    0  501 -0.00000000000E+00 -0.00000000000E+00 -0.55113573904E+03  0.55113573907E+03  0.50400000000E-02 0.  1.
    8880023    1    1    2    0    0 -0.89052536799E+02 -0.39928812807E+02  0.57527804672E+02  0.66831453596E+03  0.65864270000E+03 0. -1.
    8880022    1    1    2    0    0  0.89052536799E+02  0.39928812807E+02 -0.21225576206E+03  0.27922898479E+03  0.15294330000E+03 0.  0.
<mgrwt>
<rscale>  0 0.48106179E+03</rscale>
<asrwt>0</asrwt>
<pdfrwt beam="1">  1        1 0.60985813E-01 0.66583397E+03</pdfrwt>
<pdfrwt beam="2">  1       -1 0.84790114E-01 0.66583397E+03</pdfrwt>
<totfact> 0.85614599E+01</totfact>
</mgrwt>
</event>
<event>
 4    2  0.3884658E-007  0.7735001E+03  0.7818608E-02  0.9771333E-01
          1   -1    0    0  501    0  0.00000000000E+00  0.00000000000E+00  0.13000876092E+04  0.13000876092E+04  0.50400000000E-02 0. -1.
         -1   -1    0    0    0  501 -0.00000000000E+00 -0.00000000000E+00 -0.53004806532E+03  0.53004806535E+03  0.50400000000E-02 0.  1.
    8880023    1    1    2    0    0 -0.25841074526E+03  0.31259567047E+03  0.10573740548E+04  0.13100924641E+04  0.65864270000E+03 0.  0.
    8880022    1    1    2    0    0  0.25841074526E+03 -0.31259567047E+03 -0.28733451099E+03  0.52004321040E+03  0.15294330000E+03 0.  1.
<mgrwt>
<rscale>  0 0.66923931E+03</rscale>
<asrwt>0</asrwt>
<pdfrwt beam="1">  1        1 0.20001348E+00 0.77350008E+03</pdfrwt>
<pdfrwt beam="2">  1       -1 0.81545856E-01 0.77350008E+03</pdfrwt>
<totfact> 0.13960543E+01</totfact>
</mgrwt>
</event>
<event>
 4    2  0.3884658E-007  0.9854800E+03  0.7818608E-02  0.9400806E-01
          1   -1    0    0  501    0  0.00000000000E+00  0.00000000000E+00  0.11065258552E+04  0.11065258552E+04  0.50400000000E-02 0. -1.
         -1   -1    0    0    0  501 -0.00000000000E+00 -0.00000000000E+00 -0.10216592117E+04  0.10216592117E+04  0.50400000000E-02 0.  1.
    8880023    1    1    2    0    0 -0.52656105602E+03 -0.50999419230E+03  0.65819859452E+03  0.11850722417E+04  0.65864270000E+03 0.  0.
    8880022    1    1    2    0    0  0.52656105602E+03  0.50999419230E+03 -0.57333195103E+03  0.94311282516E+03  0.15294330000E+03 0.  0.
<mgrwt>
<rscale>  0 0.92009409E+03</rscale>
<asrwt>0</asrwt>
<pdfrwt beam="1">  1        1 0.17023475E+00 0.98548000E+03</pdfrwt>
<pdfrwt beam="2">  1       -1 0.15717834E+00 0.98548000E+03</pdfrwt>
<totfact> 0.38681585E+00</totfact>
</mgrwt>
</event>
<event>
 4    2  0.3884658E-007  0.6613263E+03  0.7818608E-02  0.1022837E+00
          1   -1    0    0  501    0  0.00000000000E+00  0.00000000000E+00  0.13054914955E+04  0.13054914956E+04  0.50400000000E-02 0. -1.
         -1   -1    0    0    0  501 -0.00000000000E+00 -0.00000000000E+00 -0.20060176340E+03  0.20060176346E+03  0.50400000000E-02 0.  1.
    8880023    1    1    2    0    0  0.45885746359E+02  0.37904729023E+02  0.11580532492E+04  0.13335815702E+04  0.65864270000E+03 0. -1.
    8880022    1    1    2    0    0 -0.45885746359E+02 -0.37904729023E+02 -0.53163517074E+02  0.17251168877E+03  0.15294330000E+03 0.  0.
<mgrwt>
<rscale>  0 0.46676609E+03</rscale>
<asrwt>0</asrwt>
<pdfrwt beam="1">  1        1 0.20084484E+00 0.66132630E+03</pdfrwt>
<pdfrwt beam="2">  1       -1 0.30861810E-01 0.66132630E+03</pdfrwt>
<totfact> 0.89670936E+01</totfact>
</mgrwt>
</event>
<event>
 4    2  0.3884658E-007  0.8370902E+03  0.7818608E-02  0.9635692E-01
         -1   -1    0    0    0  501 -0.00000000000E+00  0.00000000000E+00  0.73365032006E+03  0.73365032008E+03  0.50400000000E-02 0.  1.
          1   -1    0    0  501    0  0.00000000000E+00 -0.00000000000E+00 -0.14070765817E+04  0.14070765817E+04  0.50400000000E-02 0. -1.
    8880023    1    1    2    0    0  0.48789123702E+03 -0.16991734885E+03 -0.11493238942E+04  0.14218527999E+04  0.65864270000E+03 0. -1.
    8880022    1    1    2    0    0 -0.48789123702E+03  0.16991734885E+03  0.47589763257E+03  0.71887410185E+03  0.15294330000E+03 0.  0.
<mgrwt>
<rscale>  0 0.74978255E+03</rscale>
<asrwt>0</asrwt>
<pdfrwt beam="1">  1        1 0.21647332E+00 0.83709018E+03</pdfrwt>
<pdfrwt beam="2">  1       -1 0.11286928E+00 0.83709018E+03</pdfrwt>
<totfact> 0.55959524E+00</totfact>
</mgrwt>
</event>
<event>
 4    2  0.3884658E-007  0.1000461E+04  0.7818608E-02  0.9380955E-01
         -1   -1    0    0    0  501 -0.00000000000E+00  0.00000000000E+00  0.65866453101E+03  0.65866453103E+03  0.50400000000E-02 0.  1.
          1   -1    0    0  501    0  0.00000000000E+00 -0.00000000000E+00 -0.21361474188E+04  0.21361474188E+04  0.50400000000E-02 0. -1.
    8880023    1    1    2    0    0  0.73340086314E+03 -0.17098330203E+03 -0.17193170924E+04  0.19892143138E+04  0.65864270000E+03 0.  0.
    8880022    1    1    2    0    0 -0.73340086314E+03  0.17098330203E+03  0.24183420465E+03  0.80559763603E+03  0.15294330000E+03 0.  0.
<mgrwt>
<rscale>  0 0.93659746E+03</rscale>
<asrwt>0</asrwt>
<pdfrwt beam="1">  1        1 0.32863806E+00 0.10004611E+04</pdfrwt>
<pdfrwt beam="2">  1       -1 0.10133301E+00 0.10004611E+04</pdfrwt>
<totfact> 0.22551730E+00</totfact>
</mgrwt>
</event>
<event>
 4    2  0.3884658E-007  0.1073461E+04  0.7818608E-02  0.9291195E-01
          1   -1    0    0  501    0  0.00000000000E+00  0.00000000000E+00  0.64941495119E+03  0.64941495121E+03  0.50400000000E-02 0. -1.
         -1   -1    0    0    0  501 -0.00000000000E+00 -0.00000000000E+00 -0.16533588826E+04  0.16533588826E+04  0.50400000000E-02 0.  1.
    8880023    1    1    2    0    0 -0.39457211911E+03 -0.75021439401E+03 -0.13954602495E+03  0.10824934612E+04  0.65864270000E+03 0.  1.
    8880022    1    1    2    0    0  0.39457211911E+03  0.75021439401E+03 -0.86439790649E+03  0.12202803727E+04  0.15294330000E+03 0.  0.
<mgrwt>
<rscale>  0 0.10159749E+04</rscale>
<asrwt>0</asrwt>
<pdfrwt beam="1">  1        1 0.99909993E-01 0.10734612E+04</pdfrwt>
<pdfrwt beam="2">  1       -1 0.25436290E+00 0.10734612E+04</pdfrwt>
<totfact> 0.19905077E+00</totfact>
</mgrwt>
</event>
<event>
 4    2  0.3884658E-007  0.8518628E+03  0.7818608E-02  0.9608205E-01
         -1   -1    0    0    0  501 -0.00000000000E+00  0.00000000000E+00  0.73165350679E+03  0.73165350681E+03  0.50400000000E-02 0.  1.
          1   -1    0    0  501    0  0.00000000000E+00 -0.00000000000E+00 -0.81257165349E+03  0.81257165350E+03  0.50400000000E-02 0. -1.
    8880023    1    1    2    0    0 -0.12056275980E+03 -0.52661614829E+03 -0.35079060305E+03  0.92126228629E+03  0.65864270000E+03 0.  0.
    8880022    1    1    2    0    0  0.12056275980E+03  0.52661614829E+03  0.26987245636E+03  0.62296287402E+03  0.15294330000E+03 0.  0.
<mgrwt>
<rscale>  0 0.76755479E+03</rscale>
<asrwt>0</asrwt>
<pdfrwt beam="1">  1        1 0.12501102E+00 0.85186275E+03</pdfrwt>
<pdfrwt beam="2">  1       -1 0.11256208E+00 0.85186275E+03</pdfrwt>
<totfact> 0.15841084E+01</totfact>
</mgrwt>
</event>
<event>
 4    2  0.3884658E-007  0.1243019E+04  0.7818608E-02  0.9116398E-01
          1   -1    0    0  501    0  0.00000000000E+00  0.00000000000E+00  0.28073039189E+04  0.28073039190E+04  0.50400000000E-02 0. -1.
         -1   -1    0    0    0  501 -0.00000000000E+00 -0.00000000000E+00 -0.65513528881E+03  0.65513528883E+03  0.50400000000E-02 0.  1.
    8880023    1    1    2    0    0  0.65899338263E+03  0.82280880786E+03  0.22894942810E+03  0.12639282652E+04  0.65864270000E+03 0.  0.
    8880022    1    1    2    0    0 -0.65899338263E+03 -0.82280880786E+03  0.19232192020E+04  0.21985109426E+04  0.15294330000E+03 0.  0.
<mgrwt>
<rscale>  0 0.11959623E+04</rscale>
<asrwt>0</asrwt>
<pdfrwt beam="1">  1        1 0.43189291E+00 0.12430192E+04</pdfrwt>
<pdfrwt beam="2">  1       -1 0.10079004E+00 0.12430192E+04</pdfrwt>
<totfact> 0.76133226E-01</totfact>
</mgrwt>
</event>
<event>
 4    2  0.3884658E-007  0.9427219E+03  0.7818608E-02  0.9460664E-01
          1   -1    0    0  501    0  0.00000000000E+00  0.00000000000E+00  0.49919804440E+03  0.49919804443E+03  0.50400000000E-02 0. -1.
         -1   -1    0    0    0  501 -0.00000000000E+00 -0.00000000000E+00 -0.18353183242E+04  0.18353183242E+04  0.50400000000E-02 0.  1.
    8880023    1    1    2    0    0 -0.22587904753E+03 -0.63552582641E+03 -0.14029709309E+03  0.95310434935E+03  0.65864270000E+03 0.  0.
    8880022    1    1    2    0    0  0.22587904753E+03  0.63552582641E+03 -0.11958231867E+04  0.13814120193E+04  0.15294330000E+03 0.  0.
<mgrwt>
<rscale>  0 0.87247088E+03</rscale>
<asrwt>0</asrwt>
<pdfrwt beam="1">  1        1 0.76799700E-01 0.94272192E+03</pdfrwt>
<pdfrwt beam="2">  1       -1 0.28235666E+00 0.94272192E+03</pdfrwt>
<totfact> 0.19462980E+00</totfact>
</mgrwt>
</event>
<event>
 4    2  0.3884658E-007  0.7096209E+03  0.7818608E-02  0.9959411E-01
         -1   -1    0    0    0  501 -0.00000000000E+00  0.00000000000E+00  0.41577380674E+03  0.41577380677E+03  0.50400000000E-02 0.  1.
          1   -1    0    0  501    0  0.00000000000E+00 -0.00000000000E+00 -0.10891902599E+04  0.10891902599E+04  0.50400000000E-02 0. -1.
    8880023    1    1    2    0    0 -0.23286830154E+03  0.12459506331E+03 -0.88443256045E+03  0.11339236023E+04  0.65864270000E+03 0.  0.
    8880022    1    1    2    0    0  0.23286830154E+03 -0.12459506331E+03  0.21101610727E+03  0.37104046438E+03  0.15294330000E+03 0.  0.
<mgrwt>
<rscale>  0 0.57466361E+03</rscale>
<asrwt>0</asrwt>
<pdfrwt beam="1">  1        1 0.16756773E+00 0.70962087E+03</pdfrwt>
<pdfrwt beam="2">  1       -1 0.63965202E-01 0.70962087E+03</pdfrwt>
<totfact> 0.33047155E+01</totfact>
</mgrwt>
</event>
<event>
 4    2  0.3884658E-007  0.6697009E+03  0.7818608E-02  0.1015878E+00
         -1   -1    0    0    0  501 -0.00000000000E+00  0.00000000000E+00  0.30467574782E+03  0.30467574786E+03  0.50400000000E-02 0.  1.
          1   -1    0    0  501    0  0.00000000000E+00 -0.00000000000E+00 -0.22269276742E+04  0.22269276742E+04  0.50400000000E-02 0. -1.
    8880023    1    1    2    0    0  0.69790506191E+01 -0.12099756975E+03 -0.21381537467E+04  0.22405804538E+04  0.65864270000E+03 0. -1.
    8880022    1    1    2    0    0 -0.69790506191E+01  0.12099756975E+03  0.21590182033E+03  0.29102296828E+03  0.15294330000E+03 0.  0.
<mgrwt>
<rscale>  0 0.49203828E+03</rscale>
<asrwt>0</asrwt>
<pdfrwt beam="1">  1        1 0.34260425E+00 0.66970092E+03</pdfrwt>
<pdfrwt beam="2">  1       -1 0.46873193E-01 0.66970092E+03</pdfrwt>
<totfact> 0.10078377E+01</totfact>
</mgrwt>
</event>
<event>
 4    2  0.3884658E-007  0.7133619E+03  0.7818608E-02  0.9945722E-01
          1   -1    0    0  501    0  0.00000000000E+00  0.00000000000E+00  0.57982370868E+03  0.57982370870E+03  0.50400000000E-02 0. -1.
         -1   -1    0    0    0  501 -0.00000000000E+00 -0.00000000000E+00 -0.11376905604E+04  0.11376905604E+04  0.50400000000E-02 0.  1.
    8880023    1    1    2    0    0  0.18742586375E+03 -0.19986638004E+03  0.32251589363E+03  0.78288040733E+03  0.65864270000E+03 0.  0.
    8880022    1    1    2    0    0 -0.18742586375E+03  0.19986638004E+03 -0.88038274537E+03  0.93463386180E+03  0.15294330000E+03 0.  1.
<mgrwt>
<rscale>  0 0.58095648E+03</rscale>
<asrwt>0</asrwt>
<pdfrwt beam="1">  1        1 0.89203648E-01 0.71336192E+03</pdfrwt>
<pdfrwt beam="2">  1       -1 0.17502932E+00 0.71336192E+03</pdfrwt>
<totfact> 0.84347834E+00</totfact>
</mgrwt>
</event>
<event>
 4    2  0.3884658E-007  0.8525447E+03  0.7818608E-02  0.9606965E-01
         -1   -1    0    0    0  501 -0.00000000000E+00  0.00000000000E+00  0.42584058937E+03  0.42584058940E+03  0.50400000000E-02 0.  1.
          1   -1    0    0  501    0  0.00000000000E+00 -0.00000000000E+00 -0.12803546336E+04  0.12803546336E+04  0.50400000000E-02 0. -1.
    8880023    1    1    2    0    0 -0.26508954302E+03 -0.47196381976E+03 -0.74699415917E+03  0.11335046507E+04  0.65864270000E+03 0.  1.
    8880022    1    1    2    0    0  0.26508954302E+03  0.47196381976E+03 -0.10751988508E+03  0.57269057237E+03  0.15294330000E+03 0.  0.
<mgrwt>
<rscale>  0 0.76836900E+03</rscale>
<asrwt>0</asrwt>
<pdfrwt beam="1">  1        1 0.19697763E+00 0.85254473E+03</pdfrwt>
<pdfrwt beam="2">  1       -1 0.65513937E-01 0.85254473E+03</pdfrwt>
<totfact> 0.22489161E+01</totfact>
</mgrwt>
</event>
<event>
 4    2  0.3884658E-007  0.8468672E+03  0.7818608E-02  0.9617365E-01
          1   -1    0    0  501    0  0.00000000000E+00  0.00000000000E+00  0.24434607107E+04  0.24434607107E+04  0.50400000000E-02 0. -1.
         -1   -1    0    0    0  501 -0.00000000000E+00 -0.00000000000E+00 -0.29753107827E+03  0.29753107831E+03  0.50400000000E-02 0.  1.
    8880023    1    1    2    0    0 -0.44819709364E+03  0.28721638448E+03  0.19944321486E+04  0.21667818737E+04  0.65864270000E+03 0. -1.
    8880022    1    1    2    0    0  0.44819709364E+03 -0.28721638448E+03  0.15149748378E+03  0.57420991533E+03  0.15294330000E+03 0.  0.
<mgrwt>
<rscale>  0 0.76157436E+03</rscale>
<asrwt>0</asrwt>
<pdfrwt beam="1">  1        1 0.37591703E+00 0.84686722E+03</pdfrwt>
<pdfrwt beam="2">  1       -1 0.45774012E-01 0.84686722E+03</pdfrwt>
<totfact> 0.73053666E+00</totfact>
</mgrwt>
</event>
<event>
 4    2  0.3884658E-007  0.7193960E+03  0.7818608E-02  0.9924635E-01
         -1   -1    0    0    0  501 -0.00000000000E+00  0.00000000000E+00  0.19775509416E+03  0.19775509423E+03  0.50400000000E-02 0.  1.
          1   -1    0    0  501    0  0.00000000000E+00 -0.00000000000E+00 -0.20664177910E+04  0.20664177910E+04  0.50400000000E-02 0. -1.
    8880023    1    1    2    0    0 -0.15565291152E+02  0.28892576135E+03 -0.17877125519E+04  0.19270305520E+04  0.65864270000E+03 0.  0.
    8880022    1    1    2    0    0  0.15565291152E+02 -0.28892576135E+03 -0.80950144903E+02  0.33714233320E+03  0.15294330000E+03 0.  0.
<mgrwt>
<rscale>  0 0.59082081E+03</rscale>
<asrwt>0</asrwt>
<pdfrwt beam="1">  1        1 0.31791041E+00 0.71939598E+03</pdfrwt>
<pdfrwt beam="2">  1       -1 0.30423862E-01 0.71939598E+03</pdfrwt>
<totfact> 0.27895020E+01</totfact>
</mgrwt>
</event>
<event>
 4    2  0.3884658E-007  0.7520005E+03  0.7818608E-02  0.9826276E-01
         -1   -1    0    0    0  501 -0.00000000000E+00  0.00000000000E+00  0.59841719219E+03  0.59841719221E+03  0.50400000000E-02 0.  1.
          1   -1    0    0  501    0  0.00000000000E+00 -0.00000000000E+00 -0.77215569428E+03  0.77215569430E+03  0.50400000000E-02 0. -1.
    8880023    1    1    2    0    0  0.36073531436E+03 -0.39555359195E+02 -0.46195896235E+03  0.88255927995E+03  0.65864270000E+03 0.  1.
    8880022    1    1    2    0    0 -0.36073531436E+03  0.39555359195E+02  0.28822046026E+03  0.48801360656E+03  0.15294330000E+03 0.  0.
<mgrwt>
<rscale>  0 0.63971314E+03</rscale>
<asrwt>0</asrwt>
<pdfrwt beam="1">  1        1 0.11879318E+00 0.75200053E+03</pdfrwt>
<pdfrwt beam="2">  1       -1 0.92064183E-01 0.75200053E+03</pdfrwt>
<totfact> 0.27561036E+01</totfact>
</mgrwt>
</event>
<event>
 4    2  0.3884658E-007  0.9060007E+03  0.7818608E-02  0.9516466E-01
          1   -1    0    0  501    0  0.00000000000E+00  0.00000000000E+00  0.38930900798E+04  0.38930900798E+04  0.50400000000E-02 0. -1.
         -1   -1    0    0    0  501 -0.00000000000E+00 -0.00000000000E+00 -0.31132095335E+03  0.31132095340E+03  0.50400000000E-02 0.  1.
    8880023    1    1    2    0    0  0.22315788452E+03 -0.58071307651E+03  0.34278244636E+04  0.35455349213E+04  0.65864270000E+03 0. -1.
    8880022    1    1    2    0    0 -0.22315788452E+03  0.58071307651E+03  0.15394466291E+03  0.65887611196E+03  0.15294330000E+03 0.  0.
<mgrwt>
<rscale>  0 0.83080636E+03</rscale>
<asrwt>0</asrwt>
<pdfrwt beam="1">  1        1 0.59893692E+00 0.90600073E+03</pdfrwt>
<pdfrwt beam="2">  1       -1 0.47895533E-01 0.90600073E+03</pdfrwt>
<totfact> 0.55349546E-01</totfact>
</mgrwt>
</event>
<event>
 4    2  0.3884658E-007  0.9819759E+03  0.7818608E-02  0.9405528E-01
         -1   -1    0    0    0  501 -0.00000000000E+00  0.00000000000E+00  0.45133867867E+03  0.45133867870E+03  0.50400000000E-02 0.  1.
          1   -1    0    0  501    0  0.00000000000E+00 -0.00000000000E+00 -0.24776833592E+04  0.24776833592E+04  0.50400000000E-02 0. -1.
    8880023    1    1    2    0    0  0.72169165529E+03  0.98120055113E+02 -0.19469644765E+04  0.21805841578E+04  0.65864270000E+03 0.  0.
    8880022    1    1    2    0    0 -0.72169165529E+03 -0.98120055113E+02 -0.79380204077E+02  0.74843788008E+03  0.15294330000E+03 0.  0.
<mgrwt>
<rscale>  0 0.91622137E+03</rscale>
<asrwt>0</asrwt>
<pdfrwt beam="1">  1        1 0.38118205E+00 0.98197586E+03</pdfrwt>
<pdfrwt beam="2">  1       -1 0.69436721E-01 0.98197586E+03</pdfrwt>
<totfact> 0.30073577E+00</totfact>
</mgrwt>
</event>
<event>
 4    2  0.3884658E-007  0.1163694E+04  0.7818608E-02  0.9193249E-01
          1   -1    0    0  501    0  0.00000000000E+00  0.00000000000E+00  0.23666703046E+04  0.23666703046E+04  0.50400000000E-02 0. -1.
         -1   -1    0    0    0  501 -0.00000000000E+00 -0.00000000000E+00 -0.65071873833E+03  0.65071873835E+03  0.50400000000E-02 0.  1.
    8880023    1    1    2    0    0 -0.62709195131E+03  0.72603606254E+03  0.16820091600E+04  0.20453209284E+04  0.65864270000E+03 0.  0.
    8880022    1    1    2    0    0  0.62709195131E+03 -0.72603606254E+03  0.33942406326E+02  0.97206811462E+03  0.15294330000E+03 0.  0.
<mgrwt>
<rscale>  0 0.11123384E+04</rscale>
<asrwt>0</asrwt>
<pdfrwt beam="1">  1        1 0.36410312E+00 0.11636936E+04</pdfrwt>
<pdfrwt beam="2">  1       -1 0.10011058E+00 0.11636936E+04</pdfrwt>
<totfact> 0.15820515E+00</totfact>
</mgrwt>
</event>
<event>
 4    2  0.8043195E-007  0.1174906E+04  0.7818608E-02  0.9181910E-01
          1   -1    0    0  501    0  0.00000000000E+00  0.00000000000E+00  0.17808635172E+04  0.17808635172E+04  0.50400000000E-02 0. -1.
         -1   -1    0    0    0  501 -0.00000000000E+00 -0.00000000000E+00 -0.31446021975E+04  0.31446021975E+04  0.50400000000E-02 0.  1.
    8880023    1    1    2    0    0  0.53757478753E+03 -0.81093026581E+03  0.14952319260E+04  0.19016107034E+04  0.65864270000E+03 0. -1.
    8880022    1    1    2    0    0 -0.53757478753E+03  0.81093026581E+03 -0.28589706064E+04  0.30238550113E+04  0.15294330000E+03 0.  0.
<mgrwt>
<rscale>  0 0.11242117E+04</rscale>
<asrwt>0</asrwt>
<pdfrwt beam="1">  1        1 0.27397900E+00 0.11749063E+04</pdfrwt>
<pdfrwt beam="2">  1       -1 0.48378495E+00 0.11749063E+04</pdfrwt>
<totfact> 0.79325784E-03</totfact>
</mgrwt>
</event>
<event>
 4    2  0.3884658E-007  0.7491987E+03  0.7818608E-02  0.9833919E-01
         -1   -1    0    0    0  501 -0.00000000000E+00  0.00000000000E+00  0.47133902478E+03  0.47133902480E+03  0.50400000000E-02 0.  1.
          1   -1    0    0  501    0  0.00000000000E+00 -0.00000000000E+00 -0.11085136623E+04  0.11085136623E+04  0.50400000000E-02 0. -1.
    8880023    1    1    2    0    0 -0.17538911811E+03  0.31100975594E+03 -0.85315079820E+03  0.11354139781E+04  0.65864270000E+03 0. -1.
    8880022    1    1    2    0    0  0.17538911811E+03 -0.31100975594E+03  0.21597616067E+03  0.44443870897E+03  0.15294330000E+03 0.  0.
<mgrwt>
<rscale>  0 0.63573588E+03</rscale>
<asrwt>0</asrwt>
<pdfrwt beam="1">  1        1 0.17054056E+00 0.74919865E+03</pdfrwt>
<pdfrwt beam="2">  1       -1 0.72513697E-01 0.74919865E+03</pdfrwt>
<totfact> 0.24662413E+01</totfact>
</mgrwt>
</event>
<event>
 4    2  0.3884658E-007  0.6592113E+03  0.7818608E-02  0.1024979E+00
         -1   -1    0    0    0  501 -0.00000000000E+00  0.00000000000E+00  0.50462925140E+03  0.50462925142E+03  0.50400000000E-02 0.  1.
          1   -1    0    0  501    0  0.00000000000E+00 -0.00000000000E+00 -0.94171946717E+03  0.94171946718E+03  0.50400000000E-02 0. -1.
    8880023    1    1    2    0    0 -0.10213625656E+02  0.25396463178E+02 -0.80883337631E+03  0.10434418697E+04  0.65864270000E+03 0. -1.
    8880022    1    1    2    0    0  0.10213625656E+02 -0.25396463178E+02  0.37174316054E+03  0.40290684893E+03  0.15294330000E+03 0.  0.
<mgrwt>
<rscale>  0 0.45931726E+03</rscale>
<asrwt>0</asrwt>
<pdfrwt beam="1">  1        1 0.14487992E+00 0.65921127E+03</pdfrwt>
<pdfrwt beam="2">  1       -1 0.77635269E-01 0.65921127E+03</pdfrwt>
<totfact> 0.29040060E+01</totfact>
</mgrwt>
</event>
<event>
 4    2  0.3884658E-007  0.7594740E+03  0.7818608E-02  0.9806471E-01
          1   -1    0    0  501    0  0.00000000000E+00  0.00000000000E+00  0.21821319099E+04  0.21821319099E+04  0.50400000000E-02 0. -1.
         -1   -1    0    0    0  501 -0.00000000000E+00 -0.00000000000E+00 -0.43395237658E+03  0.43395237661E+03  0.50400000000E-02 0.  1.
    8880023    1    1    2    0    0  0.15161402654E+03  0.34641559348E+03  0.19981958823E+04  0.21376593664E+04  0.65864270000E+03 0. -1.
    8880022    1    1    2    0    0 -0.15161402654E+03 -0.34641559348E+03 -0.25001634896E+03  0.47842492014E+03  0.15294330000E+03 0.  0.
<mgrwt>
<rscale>  0 0.65016421E+03</rscale>
<asrwt>0</asrwt>
<pdfrwt beam="1">  1        1 0.33571260E+00 0.75947402E+03</pdfrwt>
<pdfrwt beam="2">  1       -1 0.66761904E-01 0.75947402E+03</pdfrwt>
<totfact> 0.53523225E+00</totfact>
</mgrwt>
</event>
<event>
 4    2  0.3884658E-007  0.7052709E+03  0.7818608E-02  0.9976000E-01
          1   -1    0    0  501    0  0.00000000000E+00  0.00000000000E+00  0.11075636948E+04  0.11075636948E+04  0.50400000000E-02 0. -1.
         -1   -1    0    0    0  501 -0.00000000000E+00 -0.00000000000E+00 -0.32825818040E+03  0.32825818044E+03  0.50400000000E-02 0.  1.
    8880023    1    1    2    0    0  0.16959987410E+03 -0.18663535970E+03  0.87674374610E+03  0.11252051712E+04  0.65864270000E+03 0.  0.
    8880022    1    1    2    0    0 -0.16959987410E+03  0.18663535970E+03 -0.97438231723E+02  0.31061670399E+03  0.15294330000E+03 0.  0.
<mgrwt>
<rscale>  0 0.56715235E+03</rscale>
<asrwt>0</asrwt>
<pdfrwt beam="1">  1        1 0.17039442E+00 0.70527093E+03</pdfrwt>
<pdfrwt beam="2">  1       -1 0.50501258E-01 0.70527093E+03</pdfrwt>
<totfact> 0.50734538E+01</totfact>
</mgrwt>
</event>
<event>
 4    2  0.3884658E-007  0.8917899E+03  0.7818608E-02  0.9539342E-01
         -1   -1    0    0    0  501 -0.00000000000E+00  0.00000000000E+00  0.29430818536E+03  0.29430818541E+03  0.50400000000E-02 0.  1.
          1   -1    0    0  501    0  0.00000000000E+00 -0.00000000000E+00 -0.43403034820E+04  0.43403034820E+04  0.50400000000E-02 0. -1.
    8880023    1    1    2    0    0  0.26921465000E+03 -0.53758947854E+03 -0.38954522498E+04  0.39962278979E+04  0.65864270000E+03 0. -1.
    8880022    1    1    2    0    0 -0.26921465000E+03  0.53758947854E+03 -0.15054304683E+03  0.63838376951E+03  0.15294330000E+03 0.  0.
<mgrwt>
<rscale>  0 0.81444404E+03</rscale>
<asrwt>0</asrwt>
<pdfrwt beam="1">  1        1 0.66773895E+00 0.89178988E+03</pdfrwt>
<pdfrwt beam="2">  1       -1 0.45278185E-01 0.89178988E+03</pdfrwt>
<totfact> 0.24554647E-01</totfact>
</mgrwt>
</event>
<event>
 4    2  0.3884658E-007  0.7193394E+03  0.7818608E-02  0.9924828E-01
          1   -1    0    0  501    0  0.00000000000E+00  0.00000000000E+00  0.18916990407E+04  0.18916990407E+04  0.50400000000E-02 0. -1.
         -1   -1    0    0    0  501 -0.00000000000E+00 -0.00000000000E+00 -0.51269286955E+03  0.51269286958E+03  0.50400000000E-02 0.  1.
    8880023    1    1    2    0    0 -0.36972681370E+02  0.28683082619E+03  0.17605233159E+04  0.19018126759E+04  0.65864270000E+03 0. -1.
    8880022    1    1    2    0    0  0.36972681370E+02 -0.28683082619E+03 -0.38151714480E+03  0.50257923436E+03  0.15294330000E+03 0.  0.
<mgrwt>
<rscale>  0 0.59072974E+03</rscale>
<asrwt>0</asrwt>
<pdfrwt beam="1">  1        1 0.29103063E+00 0.71933936E+03</pdfrwt>
<pdfrwt beam="2">  1       -1 0.78875825E-01 0.71933936E+03</pdfrwt>
<totfact> 0.59728991E+00</totfact>
</mgrwt>
</event>
<event>
 4    2  0.3884658E-007  0.7205776E+03  0.7818608E-02  0.9920636E-01
          1   -1    0    0  501    0  0.00000000000E+00  0.00000000000E+00  0.14184214481E+04  0.14184214481E+04  0.50400000000E-02 0. -1.
         -1   -1    0    0    0  501 -0.00000000000E+00 -0.00000000000E+00 -0.24270073214E+03  0.24270073219E+03  0.50400000000E-02 0.  1.
    8880023    1    1    2    0    0  0.28674045946E+03  0.56584484030E+02  0.11121509499E+04  0.13251836992E+04  0.65864270000E+03 0. -1.
    8880022    1    1    2    0    0 -0.28674045946E+03 -0.56584484030E+02  0.63569766041E+02  0.33593848111E+03  0.15294330000E+03 0.  1.
<mgrwt>
<rscale>  0 0.59271504E+03</rscale>
<asrwt>0</asrwt>
<pdfrwt beam="1">  1        1 0.21821868E+00 0.72057762E+03</pdfrwt>
<pdfrwt beam="2">  1       -1 0.37338574E-01 0.72057762E+03</pdfrwt>
<totfact> 0.53043052E+01</totfact>
</mgrwt>
</event>
<event>
 4    2  0.3884658E-007  0.7720354E+03  0.7818608E-02  0.9774890E-01
          1   -1    0    0  501    0  0.00000000000E+00  0.00000000000E+00  0.94842960942E+03  0.94842960943E+03  0.50400000000E-02 0. -1.
         -1   -1    0    0    0  501 -0.00000000000E+00 -0.00000000000E+00 -0.41928988288E+03  0.41928988291E+03  0.50400000000E-02 0.  1.
    8880023    1    1    2    0    0 -0.25359031670E+03 -0.31292224094E+03  0.53075943814E+03  0.93688001635E+03  0.65864270000E+03 0. -1.
    8880022    1    1    2    0    0  0.25359031670E+03  0.31292224094E+03 -0.16197116005E+01  0.43083947600E+03  0.15294330000E+03 0.  0.
<mgrwt>
<rscale>  0 0.66727675E+03</rscale>
<asrwt>0</asrwt>
<pdfrwt beam="1">  1        1 0.14591225E+00 0.77203535E+03</pdfrwt>
<pdfrwt beam="2">  1       -1 0.64506136E-01 0.77203535E+03</pdfrwt>
<totfact> 0.41423978E+01</totfact>
</mgrwt>
</event>
<event>
 4    2  0.3884658E-007  0.8802552E+03  0.7818608E-02  0.9558502E-01
          1   -1    0    0  501    0  0.00000000000E+00  0.00000000000E+00  0.17798390217E+04  0.17798390217E+04  0.50400000000E-02 0. -1.
         -1   -1    0    0    0  501 -0.00000000000E+00 -0.00000000000E+00 -0.47182102811E+03  0.47182102813E+03  0.50400000000E-02 0.  1.
    8880023    1    1    2    0    0 -0.15046451293E+03  0.56426888648E+03  0.80745380094E+02  0.88395077271E+03  0.65864270000E+03 0.  1.
    8880022    1    1    2    0    0  0.15046451293E+03 -0.56426888648E+03  0.12272726135E+04  0.13677092771E+04  0.15294330000E+03 0.  0.
<mgrwt>
<rscale>  0 0.80104754E+03</rscale>
<asrwt>0</asrwt>
<pdfrwt beam="1">  1        1 0.27382139E+00 0.88025516E+03</pdfrwt>
<pdfrwt beam="2">  1       -1 0.72587850E-01 0.88025516E+03</pdfrwt>
<totfact> 0.82403240E+00</totfact>
</mgrwt>
</event>
<event>
 4    2  0.3884658E-007  0.6831126E+03  0.7818608E-02  0.1007615E+00
         -1   -1    0    0    0  501 -0.00000000000E+00  0.00000000000E+00  0.27359703368E+03  0.27359703373E+03  0.50400000000E-02 0.  1.
          1   -1    0    0  501    0  0.00000000000E+00 -0.00000000000E+00 -0.15397385143E+04  0.15397385143E+04  0.50400000000E-02 0. -1.
    8880023    1    1    2    0    0 -0.32120389831E+02  0.17832819884E+03 -0.13878123870E+04  0.15468245193E+04  0.65864270000E+03 0. -1.
    8880022    1    1    2    0    0  0.32120389831E+02 -0.17832819884E+03  0.12167090636E+03  0.26651102869E+03  0.15294330000E+03 0.  0.
<mgrwt>
<rscale>  0 0.52433611E+03</rscale>
<asrwt>0</asrwt>
<pdfrwt beam="1">  1        1 0.23688284E+00 0.68311264E+03</pdfrwt>
<pdfrwt beam="2">  1       -1 0.42091852E-01 0.68311264E+03</pdfrwt>
<totfact> 0.35401730E+01</totfact>
</mgrwt>
</event>
<event>
 4    2  0.3884658E-007  0.9451664E+03  0.7818608E-02  0.9457103E-01
         -1   -1    0    0    0  501 -0.00000000000E+00  0.00000000000E+00  0.43038867837E+03  0.43038867840E+03  0.50400000000E-02 0.  1.
          1   -1    0    0  501    0  0.00000000000E+00 -0.00000000000E+00 -0.28510708711E+04  0.28510708711E+04  0.50400000000E-02 0. -1.
    8880023    1    1    2    0    0  0.85297171457E+02  0.67249815573E+03 -0.24075248922E+04  0.25864098070E+04  0.65864270000E+03 0.  0.
    8880022    1    1    2    0    0 -0.85297171457E+02 -0.67249815573E+03 -0.13157300476E+02  0.69504974246E+03  0.15294330000E+03 0.  0.
<mgrwt>
<rscale>  0 0.87521697E+03</rscale>
<asrwt>0</asrwt>
<pdfrwt beam="1">  1        1 0.43862628E+00 0.94516643E+03</pdfrwt>
<pdfrwt beam="2">  1       -1 0.66213645E-01 0.94516643E+03</pdfrwt>
<totfact> 0.18313691E+00</totfact>
</mgrwt>
</event>
<event>
 4    2  0.3884658E-007  0.7630993E+03  0.7818608E-02  0.9797149E-01
         -1   -1    0    0    0  501 -0.00000000000E+00  0.00000000000E+00  0.42490124608E+03  0.42490124611E+03  0.50400000000E-02 0.  1.
          1   -1    0    0  501    0  0.00000000000E+00 -0.00000000000E+00 -0.82311415505E+03  0.82311415506E+03  0.50400000000E-02 0. -1.
    8880023    1    1    2    0    0  0.37933087143E+03 -0.67958965720E+02 -0.31267329417E+03  0.82467273884E+03  0.65864270000E+03 0. -1.
    8880022    1    1    2    0    0 -0.37933087143E+03  0.67958965720E+02 -0.85539614799E+02  0.42334266234E+03  0.15294330000E+03 0.  1.
<mgrwt>
<rscale>  0 0.65515778E+03</rscale>
<asrwt>0</asrwt>
<pdfrwt beam="1">  1        1 0.12663295E+00 0.76309930E+03</pdfrwt>
<pdfrwt beam="2">  1       -1 0.65369423E-01 0.76309930E+03</pdfrwt>
<totfact> 0.51170636E+01</totfact>
</mgrwt>
</event>
<event>
 4    2  0.3884658E-007  0.7038861E+03  0.7818608E-02  0.9981447E-01
         -1   -1    0    0    0  501 -0.00000000000E+00  0.00000000000E+00  0.25420974234E+03  0.25420974239E+03  0.50400000000E-02 0.  1.
          1   -1    0    0  501    0  0.00000000000E+00 -0.00000000000E+00 -0.17030937100E+04  0.17030937100E+04  0.50400000000E-02 0. -1.
    8880023    1    1    2    0    0 -0.21884884567E+03 -0.11726291578E+03 -0.15039686226E+04  0.16605352248E+04  0.65864270000E+03 0. -1.
    8880022    1    1    2    0    0  0.21884884567E+03  0.11726291578E+03  0.55084654988E+02  0.29676822757E+03  0.15294330000E+03 0.  0.
<mgrwt>
<rscale>  0 0.56471304E+03</rscale>
<asrwt>0</asrwt>
<pdfrwt beam="1">  1        1 0.26201441E+00 0.70388608E+03</pdfrwt>
<pdfrwt beam="2">  1       -1 0.39109192E-01 0.70388608E+03</pdfrwt>
<totfact> 0.31305716E+01</totfact>
</mgrwt>
</event>
<event>
 4    2  0.3884658E-007  0.1329168E+04  0.7818608E-02  0.9040772E-01
          1   -1    0    0  501    0  0.00000000000E+00  0.00000000000E+00  0.11782272655E+04  0.11782272655E+04  0.50400000000E-02 0. -1.
         -1   -1    0    0    0  501 -0.00000000000E+00 -0.00000000000E+00 -0.17693937399E+04  0.17693937399E+04  0.50400000000E-02 0.  1.
    8880023    1    1    2    0    0  0.50148757314E+02 -0.11534130268E+04  0.43180015950E+03  0.13975471700E+04  0.65864270000E+03 0. -1.
    8880022    1    1    2    0    0 -0.50148757314E+02  0.11534130268E+04 -0.10229666339E+04  0.15500738354E+04  0.15294330000E+03 0.  0.
<mgrwt>
<rscale>  0 0.12859617E+04</rscale>
<asrwt>0</asrwt>
<pdfrwt beam="1">  1        1 0.18126573E+00 0.13291677E+04</pdfrwt>
<pdfrwt beam="2">  1       -1 0.27221442E+00 0.13291677E+04</pdfrwt>
<totfact> 0.53585643E-01</totfact>
</mgrwt>
</event>
<event>
 4    2  0.3884658E-007  0.7378364E+03  0.7818608E-02  0.9866295E-01
         -1   -1    0    0    0  501 -0.00000000000E+00  0.00000000000E+00  0.73226733512E+03  0.73226733514E+03  0.50400000000E-02 0.  1.
          1   -1    0    0  501    0  0.00000000000E+00 -0.00000000000E+00 -0.90814286616E+03  0.90814286617E+03  0.50400000000E-02 0. -1.
    8880023    1    1    2    0    0  0.17724606840E+03  0.28138272269E+03 -0.68939520396E+03  0.10097862937E+04  0.65864270000E+03 0. -1.
    8880022    1    1    2    0    0 -0.17724606840E+03 -0.28138272269E+03  0.51351967292E+03  0.63062390764E+03  0.15294330000E+03 0.  0.
<mgrwt>
<rscale>  0 0.61922961E+03</rscale>
<asrwt>0</asrwt>
<pdfrwt beam="1">  1        1 0.13971429E+00 0.73783644E+03</pdfrwt>
<pdfrwt beam="2">  1       -1 0.11265651E+00 0.73783644E+03</pdfrwt>
<totfact> 0.13334686E+01</totfact>
</mgrwt>
</event>
<event>
 4    2  0.3884658E-007  0.6868175E+03  0.7818608E-02  0.1005703E+00
         -1   -1    0    0    0  501 -0.00000000000E+00  0.00000000000E+00  0.90462292626E+03  0.90462292627E+03  0.50400000000E-02 0.  1.
          1   -1    0    0  501    0  0.00000000000E+00 -0.00000000000E+00 -0.67348501737E+03  0.67348501739E+03  0.50400000000E-02 0. -1.
    8880023    1    1    2    0    0 -0.15510848368E+03 -0.11768368627E+03 -0.47152644845E+03  0.83309992772E+03  0.65864270000E+03 0. -1.
    8880022    1    1    2    0    0  0.15510848368E+03  0.11768368627E+03  0.70266435733E+03  0.74500801593E+03  0.15294330000E+03 0.  0.
<mgrwt>
<rscale>  0 0.53218589E+03</rscale>
<asrwt>0</asrwt>
<pdfrwt beam="1">  1        1 0.10361308E+00 0.68681751E+03</pdfrwt>
<pdfrwt beam="2">  1       -1 0.13917276E+00 0.68681751E+03</pdfrwt>
<totfact> 0.12759002E+01</totfact>
</mgrwt>
</event>
<event>
 4    2  0.3884658E-007  0.6644631E+03  0.7818608E-02  0.1019988E+00
          1   -1    0    0  501    0  0.00000000000E+00  0.00000000000E+00  0.58844139700E+03  0.58844139702E+03  0.50400000000E-02 0. -1.
         -1   -1    0    0    0  501 -0.00000000000E+00 -0.00000000000E+00 -0.33773319154E+03  0.33773319157E+03  0.50400000000E-02 0.  1.
    8880023    1    1    2    0    0 -0.87524887428E+02  0.63579826120E+01  0.31901358781E+03  0.73707591558E+03  0.65864270000E+03 0. -1.
    8880022    1    1    2    0    0  0.87524887428E+02 -0.63579826120E+01 -0.68305382346E+02  0.18909867301E+03  0.15294330000E+03 0.  0.
<mgrwt>
<rscale>  0 0.47690891E+03</rscale>
<asrwt>0</asrwt>
<pdfrwt beam="1">  1        1 0.90529446E-01 0.66446312E+03</pdfrwt>
<pdfrwt beam="2">  1       -1 0.51958953E-01 0.66446312E+03</pdfrwt>
<totfact> 0.13424266E+02</totfact>
</mgrwt>
</event>
<event>
 4    2  0.3884658E-007  0.8113278E+03  0.7818608E-02  0.9686818E-01
          1   -1    0    0  501    0  0.00000000000E+00  0.00000000000E+00  0.33979455246E+04  0.33979455246E+04  0.50400000000E-02 0. -1.
         -1   -1    0    0    0  501 -0.00000000000E+00 -0.00000000000E+00 -0.63850357951E+03  0.63850357953E+03  0.50400000000E-02 0.  1.
    8880023    1    1    2    0    0 -0.83208542208E+02  0.46638930083E+03  0.32426890926E+04  0.33426464664E+04  0.65864270000E+03 0. -1.
    8880022    1    1    2    0    0  0.83208542208E+02 -0.46638930083E+03 -0.48324714760E+03  0.69380263771E+03  0.15294330000E+03 0.  0.
<mgrwt>
<rscale>  0 0.71807111E+03</rscale>
<asrwt>0</asrwt>
<pdfrwt beam="1">  1        1 0.52276084E+00 0.81132783E+03</pdfrwt>
<pdfrwt beam="2">  1       -1 0.98231322E-01 0.81132783E+03</pdfrwt>
<totfact> 0.32161914E-01</totfact>
</mgrwt>
</event>
<event>
 4    2  0.3884658E-007  0.6589658E+03  0.7818608E-02  0.1025242E+00
          1   -1    0    0  501    0  0.00000000000E+00  0.00000000000E+00  0.19920528552E+04  0.19920528552E+04  0.50400000000E-02 0. -1.
         -1   -1    0    0    0  501 -0.00000000000E+00 -0.00000000000E+00 -0.38818926956E+03  0.38818926959E+03  0.50400000000E-02 0.  1.
    8880023    1    1    2    0    0  0.10949315604E+02  0.17487091041E+02  0.19191933756E+04  0.20291720245E+04  0.65864270000E+03 0. -1.
    8880022    1    1    2    0    0 -0.10949315604E+02 -0.17487091041E+02 -0.31532978996E+03  0.35107010028E+03  0.15294330000E+03 0.  0.
<mgrwt>
<rscale>  0 0.45841498E+03</rscale>
<asrwt>0</asrwt>
<pdfrwt beam="1">  1        1 0.30646966E+00 0.65896577E+03</pdfrwt>
<pdfrwt beam="2">  1       -1 0.59721427E-01 0.65896577E+03</pdfrwt>
<totfact> 0.91164250E+00</totfact>
</mgrwt>
</event>
<event>
 4    2  0.3884658E-007  0.1167001E+04  0.7818608E-02  0.9189887E-01
         -1   -1    0    0    0  501 -0.00000000000E+00  0.00000000000E+00  0.14836007830E+04  0.14836007830E+04  0.50400000000E-02 0.  1.
          1   -1    0    0  501    0  0.00000000000E+00 -0.00000000000E+00 -0.10437858064E+04  0.10437858064E+04  0.50400000000E-02 0. -1.
    8880023    1    1    2    0    0 -0.57354361449E+03 -0.77403421142E+03 -0.40671433475E+03  0.12358430299E+04  0.65864270000E+03 0.  0.
    8880022    1    1    2    0    0  0.57354361449E+03  0.77403421142E+03  0.84652931138E+03  0.12915435595E+04  0.15294330000E+03 0.  0.
<mgrwt>
<rscale>  0 0.11158427E+04</rscale>
<asrwt>0</asrwt>
<pdfrwt beam="1">  1        1 0.16058243E+00 0.11670010E+04</pdfrwt>
<pdfrwt beam="2">  1       -1 0.22824628E+00 0.11670010E+04</pdfrwt>
<totfact> 0.13363261E+00</totfact>
</mgrwt>
</event>
<event>
 4    2  0.3884658E-007  0.6919629E+03  0.7818608E-02  0.1003233E+00
         -1   -1    0    0    0  501 -0.00000000000E+00  0.00000000000E+00  0.23758645512E+03  0.23758645518E+03  0.50400000000E-02 0.  1.
          1   -1    0    0  501    0  0.00000000000E+00 -0.00000000000E+00 -0.26216682123E+04  0.26216682123E+04  0.50400000000E-02 0. -1.
    8880023    1    1    2    0    0 -0.19103184499E+03 -0.92245767005E+02 -0.24845416710E+04  0.25791006123E+04  0.65864270000E+03 0. -1.
    8880022    1    1    2    0    0  0.19103184499E+03  0.92245767005E+02  0.10045991381E+03  0.28015405517E+03  0.15294330000E+03 0.  0.
<mgrwt>
<rscale>  0 0.54254959E+03</rscale>
<asrwt>0</asrwt>
<pdfrwt beam="1">  1        1 0.40333355E+00 0.69196290E+03</pdfrwt>
<pdfrwt beam="2">  1       -1 0.36551764E-01 0.69196290E+03</pdfrwt>
<totfact> 0.85371318E+00</totfact>
</mgrwt>
</event>
<event>
 4    2  0.3884658E-007  0.7942748E+03  0.7818608E-02  0.9723315E-01
          1   -1    0    0  501    0  0.00000000000E+00  0.00000000000E+00  0.12945087567E+04  0.12945087568E+04  0.50400000000E-02 0. -1.
         -1   -1    0    0    0  501 -0.00000000000E+00 -0.00000000000E+00 -0.31970930512E+03  0.31970930516E+03  0.50400000000E-02 0.  1.
    8880023    1    1    2    0    0 -0.44314265168E+03  0.26208098139E+02  0.46170632622E+03  0.91871933260E+03  0.65864270000E+03 0.  0.
    8880022    1    1    2    0    0  0.44314265168E+03 -0.26208098139E+02  0.51309312540E+03  0.69549872932E+03  0.15294330000E+03 0.  0.
<mgrwt>
<rscale>  0 0.69645462E+03</rscale>
<asrwt>0</asrwt>
<pdfrwt beam="1">  1        1 0.19915519E+00 0.79427481E+03</pdfrwt>
<pdfrwt beam="2">  1       -1 0.49186048E-01 0.79427481E+03</pdfrwt>
<totfact> 0.38677548E+01</totfact>
</mgrwt>
</event>
<event>
 4    2  0.3884658E-007  0.6607115E+03  0.7818608E-02  0.1023439E+00
         -1   -1    0    0    0  501 -0.00000000000E+00  0.00000000000E+00  0.15671924111E+03  0.15671924119E+03  0.50400000000E-02 0.  1.
          1   -1    0    0  501    0  0.00000000000E+00 -0.00000000000E+00 -0.16881723588E+04  0.16881723588E+04  0.50400000000E-02 0. -1.
    8880023    1    1    2    0    0 -0.37074378236E+02  0.36810230691E+02 -0.15473339801E+04  0.16824928395E+04  0.65864270000E+03 0. -1.
    8880022    1    1    2    0    0  0.37074378236E+02 -0.36810230691E+02  0.15880862448E+02  0.16239876050E+03  0.15294330000E+03 0.  0.
<mgrwt>
<rscale>  0 0.46465751E+03</rscale>
<asrwt>0</asrwt>
<pdfrwt beam="1">  1        1 0.25971881E+00 0.66071152E+03</pdfrwt>
<pdfrwt beam="2">  1       -1 0.24110654E-01 0.66071152E+03</pdfrwt>
<totfact> 0.75017769E+01</totfact>
</mgrwt>
</event>
<event>
 4    2  0.3884658E-007  0.7462460E+03  0.7818608E-02  0.9842113E-01
          1   -1    0    0  501    0  0.00000000000E+00  0.00000000000E+00  0.42287407058E+03  0.42287407061E+03  0.50400000000E-02 0. -1.
         -1   -1    0    0    0  501 -0.00000000000E+00 -0.00000000000E+00 -0.82981048227E+03  0.82981048229E+03  0.50400000000E-02 0.  1.
    8880023    1    1    2    0    0  0.24643801760E+03  0.24968208039E+03 -0.44374396863E+03  0.86821181387E+03  0.65864270000E+03 0.  0.
    8880022    1    1    2    0    0 -0.24643801760E+03 -0.24968208039E+03  0.36807556939E+02  0.38447273902E+03  0.15294330000E+03 0.  0.
<mgrwt>
<rscale>  0 0.63150681E+03</rscale>
<asrwt>0</asrwt>
<pdfrwt beam="1">  1        1 0.65057549E-01 0.74624597E+03</pdfrwt>
<pdfrwt beam="2">  1       -1 0.12766315E+00 0.74624597E+03</pdfrwt>
<totfact> 0.30268976E+01</totfact>
</mgrwt>
</event>
<event>
 4    2  0.3884658E-007  0.1036265E+04  0.7818608E-02  0.9335578E-01
         -1   -1    0    0    0  501 -0.00000000000E+00  0.00000000000E+00  0.12442743714E+04  0.12442743714E+04  0.50400000000E-02 0.  1.
          1   -1    0    0  501    0  0.00000000000E+00 -0.00000000000E+00 -0.77056170508E+03  0.77056170510E+03  0.50400000000E-02 0. -1.
    8880023    1    1    2    0    0  0.28298148247E+03  0.74830210663E+03 -0.64985370414E+02  0.10383004704E+04  0.65864270000E+03 0.  0.
    8880022    1    1    2    0    0 -0.28298148247E+03 -0.74830210663E+03  0.53869803673E+03  0.97653560611E+03  0.15294330000E+03 0.  0.
<mgrwt>
<rscale>  0 0.97572435E+03</rscale>
<asrwt>0</asrwt>
<pdfrwt beam="1">  1        1 0.11854795E+00 0.10362648E+04</pdfrwt>
<pdfrwt beam="2">  1       -1 0.19142683E+00 0.10362648E+04</pdfrwt>
<totfact> 0.40510380E+00</totfact>
</mgrwt>
</event>
<event>
 4    2  0.3884658E-007  0.7772642E+03  0.7818608E-02  0.9762303E-01
         -1   -1    0    0    0  501 -0.00000000000E+00  0.00000000000E+00  0.95383023935E+03  0.95383023936E+03  0.50400000000E-02 0.  1.
          1   -1    0    0  501    0  0.00000000000E+00 -0.00000000000E+00 -0.11522229437E+04  0.11522229437E+04  0.50400000000E-02 0. -1.
    8880023    1    1    2    0    0  0.32580615634E+03  0.25333723352E+03 -0.95464156384E+03  0.12310483854E+04  0.65864270000E+03 0.  0.
    8880022    1    1    2    0    0 -0.32580615634E+03 -0.25333723352E+03  0.75624885954E+03  0.87500479768E+03  0.15294330000E+03 0.  0.
<mgrwt>
<rscale>  0 0.67425410E+03</rscale>
<asrwt>0</asrwt>
<pdfrwt beam="1">  1        1 0.17726507E+00 0.77726418E+03</pdfrwt>
<pdfrwt beam="2">  1       -1 0.14674311E+00 0.77726418E+03</pdfrwt>
<totfact> 0.44347497E+00</totfact>
</mgrwt>
</event>
<event>
 4    2  0.3884658E-007  0.8665167E+03  0.7818608E-02  0.9582075E-01
          1   -1    0    0  501    0  0.00000000000E+00  0.00000000000E+00  0.18386253815E+04  0.18386253815E+04  0.50400000000E-02 0. -1.
         -1   -1    0    0    0  501 -0.00000000000E+00 -0.00000000000E+00 -0.58799802686E+03  0.58799802688E+03  0.50400000000E-02 0.  1.
    8880023    1    1    2    0    0  0.56245967154E+03 -0.26078498469E+02  0.15462834602E+04  0.17725246728E+04  0.65864270000E+03 0. -1.
    8880022    1    1    2    0    0 -0.56245967154E+03  0.26078498469E+02 -0.29565610551E+03  0.65409873562E+03  0.15294330000E+03 0.  0.
<mgrwt>
<rscale>  0 0.78494024E+03</rscale>
<asrwt>0</asrwt>
<pdfrwt beam="1">  1        1 0.28286544E+00 0.86651669E+03</pdfrwt>
<pdfrwt beam="2">  1       -1 0.90461235E-01 0.86651669E+03</pdfrwt>
<totfact> 0.47082097E+00</totfact>
</mgrwt>
</event>
<event>
 4    2  0.3884658E-007  0.7067644E+03  0.7818608E-02  0.9970218E-01
         -1   -1    0    0    0  501 -0.00000000000E+00  0.00000000000E+00  0.19207843508E+04  0.19207843508E+04  0.50400000000E-02 0.  1.
          1   -1    0    0  501    0  0.00000000000E+00 -0.00000000000E+00 -0.11637412338E+04  0.11637412338E+04  0.50400000000E-02 0. -1.
    8880023    1    1    2    0    0  0.20680880670E+03  0.15144602339E+03 -0.10429971728E+04  0.12599043969E+04  0.65864270000E+03 0. -1.
    8880022    1    1    2    0    0 -0.20680880670E+03 -0.15144602339E+03  0.18000402899E+04  0.18246211877E+04  0.15294330000E+03 0.  0.
<mgrwt>
<rscale>  0 0.56975635E+03</rscale>
<asrwt>0</asrwt>
<pdfrwt beam="1">  1        1 0.17903711E+00 0.70676445E+03</pdfrwt>
<pdfrwt beam="2">  1       -1 0.29550528E+00 0.70676445E+03</pdfrwt>
<totfact> 0.43139307E-01</totfact>
</mgrwt>
</event>
<event>
 4    2  0.3884658E-007  0.8186176E+03  0.7818608E-02  0.9671899E-01
          1   -1    0    0  501    0  0.00000000000E+00  0.00000000000E+00  0.35899960048E+04  0.35899960048E+04  0.50400000000E-02 0. -1.
         -1   -1    0    0    0  501 -0.00000000000E+00 -0.00000000000E+00 -0.16677483754E+03  0.16677483761E+03  0.50400000000E-02 0.  1.
    8880023    1    1    2    0    0  0.37534605842E+03  0.30893352590E+03  0.10604268035E+04  0.13396416681E+04  0.65864270000E+03 0.  1.
    8880022    1    1    2    0    0 -0.37534605842E+03 -0.30893352590E+03  0.23627943637E+04  0.24171291743E+04  0.15294330000E+03 0.  0.
<mgrwt>
<rscale>  0 0.72714865E+03</rscale>
<asrwt>0</asrwt>
<pdfrwt beam="1">  1        1 0.55230701E+00 0.81861761E+03</pdfrwt>
<pdfrwt beam="2">  1       -1 0.25657671E-01 0.81861761E+03</pdfrwt>
<totfact> 0.30378853E+00</totfact>
</mgrwt>
</event>
<event>
 4    2  0.3884658E-007  0.9649771E+03  0.7818608E-02  0.9428885E-01
          1   -1    0    0  501    0  0.00000000000E+00  0.00000000000E+00  0.88371022813E+03  0.88371022815E+03  0.50400000000E-02 0. -1.
         -1   -1    0    0    0  501 -0.00000000000E+00 -0.00000000000E+00 -0.10546314543E+04  0.10546314543E+04  0.50400000000E-02 0.  1.
    8880023    1    1    2    0    0 -0.45823474546E+03 -0.53608910268E+03 -0.56286061212E+03  0.11171360181E+04  0.65864270000E+03 0.  0.
    8880022    1    1    2    0    0  0.45823474546E+03  0.53608910268E+03  0.39193938594E+03  0.82120566439E+03  0.15294330000E+03 0.  0.
<mgrwt>
<rscale>  0 0.89736204E+03</rscale>
<asrwt>0</asrwt>
<pdfrwt beam="1">  1        1 0.13595542E+00 0.96497711E+03</pdfrwt>
<pdfrwt beam="2">  1       -1 0.16225099E+00 0.96497711E+03</pdfrwt>
<totfact> 0.53090250E+00</totfact>
</mgrwt>
</event>
<event>
 4    2  0.3884658E-007  0.6862508E+03  0.7818608E-02  0.1005988E+00
          1   -1    0    0  501    0  0.00000000000E+00  0.00000000000E+00  0.33353462414E+04  0.33353462414E+04  0.50400000000E-02 0. -1.
         -1   -1    0    0    0  501 -0.00000000000E+00 -0.00000000000E+00 -0.21699969973E+03  0.21699969979E+03  0.50400000000E-02 0.  1.
    8880023    1    1    2    0    0  0.41421022956E+02 -0.18818666394E+03  0.32154490233E+04  0.32878644360E+04  0.65864270000E+03 0. -1.
    8880022    1    1    2    0    0 -0.41421022956E+02  0.18818666394E+03 -0.97102481666E+02  0.26448150519E+03  0.15294330000E+03 0.  0.
<mgrwt>
<rscale>  0 0.53100782E+03</rscale>
<asrwt>0</asrwt>
<pdfrwt beam="1">  1        1 0.51313016E+00 0.68625078E+03</pdfrwt>
<pdfrwt beam="2">  1       -1 0.33384572E-01 0.68625078E+03</pdfrwt>
<totfact> 0.30974862E+00</totfact>
</mgrwt>
</event>
<event>
 4    2  0.3884658E-007  0.1036671E+04  0.7818608E-02  0.9335079E-01
          1   -1    0    0  501    0  0.00000000000E+00  0.00000000000E+00  0.64598636685E+03  0.64598636687E+03  0.50400000000E-02 0. -1.
         -1   -1    0    0    0  501 -0.00000000000E+00 -0.00000000000E+00 -0.18076525446E+04  0.18076525446E+04  0.50400000000E-02 0.  1.
    8880023    1    1    2    0    0 -0.64521956410E+03  0.47388581863E+03 -0.12611767929E+04  0.16325603095E+04  0.65864270000E+03 0.  0.
    8880022    1    1    2    0    0  0.64521956410E+03 -0.47388581863E+03  0.99510615187E+02  0.82107860193E+03  0.15294330000E+03 0.  0.
<mgrwt>
<rscale>  0 0.97616567E+03</rscale>
<asrwt>0</asrwt>
<pdfrwt beam="1">  1        1 0.99382519E-01 0.10366708E+04</pdfrwt>
<pdfrwt beam="2">  1       -1 0.27810039E+00 0.10366708E+04</pdfrwt>
<totfact> 0.14163520E+00</totfact>
</mgrwt>
</event>
<event>
 4    2  0.3884658E-007  0.8942460E+03  0.7818608E-02  0.9535332E-01
          1   -1    0    0  501    0  0.00000000000E+00  0.00000000000E+00  0.10482319416E+04  0.10482319416E+04  0.50400000000E-02 0. -1.
         -1   -1    0    0    0  501 -0.00000000000E+00 -0.00000000000E+00 -0.11892450105E+04  0.11892450105E+04  0.50400000000E-02 0.  1.
    8880023    1    1    2    0    0 -0.59574904365E+02  0.60192741482E+03 -0.89069125346E+03  0.12621437704E+04  0.65864270000E+03 0.  1.
    8880022    1    1    2    0    0  0.59574904365E+02 -0.60192741482E+03  0.74967818454E+03  0.97533318170E+03  0.15294330000E+03 0.  0.
<mgrwt>
<rscale>  0 0.81728285E+03</rscale>
<asrwt>0</asrwt>
<pdfrwt beam="1">  1        1 0.16126645E+00 0.89424604E+03</pdfrwt>
<pdfrwt beam="2">  1       -1 0.18296077E+00 0.89424604E+03</pdfrwt>
<totfact> 0.28006281E+00</totfact>
</mgrwt>
</event>
<event>
 4    2  0.3884658E-007  0.7732606E+03  0.7818608E-02  0.9771913E-01
          1   -1    0    0  501    0  0.00000000000E+00  0.00000000000E+00  0.94221392456E+03  0.94221392457E+03  0.50400000000E-02 0. -1.
         -1   -1    0    0    0  501 -0.00000000000E+00 -0.00000000000E+00 -0.76009660889E+03  0.76009660891E+03  0.50400000000E-02 0.  1.
    8880023    1    1    2    0    0 -0.21710057326E+03 -0.34203662670E+03  0.68896846696E+03  0.10356686090E+04  0.65864270000E+03 0. -1.
    8880022    1    1    2    0    0  0.21710057326E+03  0.34203662670E+03 -0.50685115129E+03  0.66664192449E+03  0.15294330000E+03 0.  0.
<mgrwt>
<rscale>  0 0.66891884E+03</rscale>
<asrwt>0</asrwt>
<pdfrwt beam="1">  1        1 0.14495599E+00 0.77326058E+03</pdfrwt>
<pdfrwt beam="2">  1       -1 0.11693794E+00 0.77326058E+03</pdfrwt>
<totfact> 0.11399741E+01</totfact>
</mgrwt>
</event>
<event>
 4    2  0.3884658E-007  0.6931405E+03  0.7818608E-02  0.1002694E+00
          1   -1    0    0  501    0  0.00000000000E+00  0.00000000000E+00  0.10320360484E+04  0.10320360484E+04  0.50400000000E-02 0. -1.
         -1   -1    0    0    0  501 -0.00000000000E+00 -0.00000000000E+00 -0.36220658587E+03  0.36220658590E+03  0.50400000000E-02 0.  1.
    8880023    1    1    2    0    0 -0.10425723978E+03  0.18911354144E+03  0.83276092843E+03  0.10834825674E+04  0.65864270000E+03 0. -1.
    8880022    1    1    2    0    0  0.10425723978E+03 -0.18911354144E+03 -0.16293146591E+03  0.31076006694E+03  0.15294330000E+03 0.  0.
<mgrwt>
<rscale>  0 0.54484467E+03</rscale>
<asrwt>0</asrwt>
<pdfrwt beam="1">  1        1 0.15877478E+00 0.69314047E+03</pdfrwt>
<pdfrwt beam="2">  1       -1 0.55724090E-01 0.69314047E+03</pdfrwt>
<totfact> 0.47962571E+01</totfact>
</mgrwt>
</event>
<event>
 4    2  0.3884658E-007  0.8073877E+03  0.7818608E-02  0.9695044E-01
         -1   -1    0    0    0  501 -0.00000000000E+00  0.00000000000E+00  0.13879421263E+04  0.13879421263E+04  0.50400000000E-02 0.  1.
          1   -1    0    0  501    0  0.00000000000E+00 -0.00000000000E+00 -0.30657522660E+03  0.30657522665E+03  0.50400000000E-02 0. -1.
    8880023    1    1    2    0    0  0.28908935105E+03 -0.36673148295E+03  0.59329619594E+03  0.10019357344E+04  0.65864270000E+03 0.  1.
    8880022    1    1    2    0    0 -0.28908935105E+03  0.36673148295E+03  0.48807070373E+03  0.69258161853E+03  0.15294330000E+03 0.  0.
<mgrwt>
<rscale>  0 0.71312621E+03</rscale>
<asrwt>0</asrwt>
<pdfrwt beam="1">  1        1 0.47165419E-01 0.80738766E+03</pdfrwt>
<pdfrwt beam="2">  1       -1 0.21352956E+00 0.80738766E+03</pdfrwt>
<totfact> 0.10626034E+01</totfact>
</mgrwt>
</event>
<event>
 4    2  0.3884658E-007  0.7237643E+03  0.7818608E-02  0.9910049E-01
          1   -1    0    0  501    0  0.00000000000E+00  0.00000000000E+00  0.49746032558E+03  0.49746032561E+03  0.50400000000E-02 0. -1.
         -1   -1    0    0    0  501 -0.00000000000E+00 -0.00000000000E+00 -0.58207947928E+03  0.58207947931E+03  0.50400000000E-02 0.  1.
    8880023    1    1    2    0    0  0.28309475918E+03  0.99407487766E+02 -0.14296710735E+03  0.73774947736E+03  0.65864270000E+03 0.  1.
    8880022    1    1    2    0    0 -0.28309475918E+03 -0.99407487766E+02  0.58347953648E+02  0.34179032755E+03  0.15294330000E+03 0. -1.
<mgrwt>
<rscale>  0 0.59776737E+03</rscale>
<asrwt>0</asrwt>
<pdfrwt beam="1">  1        1 0.76532358E-01 0.72376426E+03</pdfrwt>
<pdfrwt beam="2">  1       -1 0.89550689E-01 0.72376426E+03</pdfrwt>
<totfact> 0.55771049E+01</totfact>
</mgrwt>
</event>
<event>
 4    2  0.3884658E-007  0.8929830E+03  0.7818608E-02  0.9537391E-01
         -1   -1    0    0    0  501 -0.00000000000E+00  0.00000000000E+00  0.43165999138E+03  0.43165999141E+03  0.50400000000E-02 0.  1.
          1   -1    0    0  501    0  0.00000000000E+00 -0.00000000000E+00 -0.22016154498E+04  0.22016154498E+04  0.50400000000E-02 0. -1.
    8880023    1    1    2    0    0  0.42676082122E+03 -0.42600890479E+03 -0.18011895475E+04  0.20103985619E+04  0.65864270000E+03 0.  0.
    8880022    1    1    2    0    0 -0.42676082122E+03  0.42600890479E+03  0.31234089018E+02  0.62287687935E+03  0.15294330000E+03 0.  0.
<mgrwt>
<rscale>  0 0.81582359E+03</rscale>
<asrwt>0</asrwt>
<pdfrwt beam="1">  1        1 0.33871006E+00 0.89298297E+03</pdfrwt>
<pdfrwt beam="2">  1       -1 0.66409231E-01 0.89298297E+03</pdfrwt>
<totfact> 0.51387750E+00</totfact>
</mgrwt>
</event>
<event>
 4    2  0.3884658E-007  0.7501025E+03  0.7818608E-02  0.9831440E-01
          1   -1    0    0  501    0  0.00000000000E+00  0.00000000000E+00  0.48272155078E+03  0.48272155081E+03  0.50400000000E-02 0. -1.
         -1   -1    0    0    0  501 -0.00000000000E+00 -0.00000000000E+00 -0.92283949296E+03  0.92283949298E+03  0.50400000000E-02 0.  1.
    8880023    1    1    2    0    0 -0.15272650013E+03  0.32483559698E+03  0.81109334915E+02  0.75447496935E+03  0.65864270000E+03 0.  0.
    8880022    1    1    2    0    0  0.15272650013E+03 -0.32483559698E+03 -0.52122727710E+03  0.65108607443E+03  0.15294330000E+03 0.  0.
<mgrwt>
<rscale>  0 0.63702261E+03</rscale>
<asrwt>0</asrwt>
<pdfrwt beam="1">  1        1 0.74264854E-01 0.75010250E+03</pdfrwt>
<pdfrwt beam="2">  1       -1 0.14197531E+00 0.75010250E+03</pdfrwt>
<totfact> 0.19288897E+01</totfact>
</mgrwt>
</event>
<event>
 4    2  0.3884658E-007  0.6726160E+03  0.7818608E-02  0.1013853E+00
         -1   -1    0    0    0  501 -0.00000000000E+00  0.00000000000E+00  0.98327660854E+03  0.98327660855E+03  0.50400000000E-02 0.  1.
          1   -1    0    0  501    0  0.00000000000E+00 -0.00000000000E+00 -0.10880347502E+04  0.10880347502E+04  0.50400000000E-02 0. -1.
    8880023    1    1    2    0    0 -0.26648981549E+01 -0.13636332659E+03 -0.97097328529E+03  0.11811864313E+04  0.65864270000E+03 0. -1.
    8880022    1    1    2    0    0  0.26648981549E+01  0.13636332659E+03  0.86621514359E+03  0.89012492748E+03  0.15294330000E+03 0.  0.
<mgrwt>
<rscale>  0 0.49971619E+03</rscale>
<asrwt>0</asrwt>
<pdfrwt beam="1">  1        1 0.16738996E+00 0.67261599E+03</pdfrwt>
<pdfrwt beam="2">  1       -1 0.15127332E+00 0.67261599E+03</pdfrwt>
<totfact> 0.46419041E+00</totfact>
</mgrwt>
</event>
<event>
 4    2  0.3884658E-007  0.6594082E+03  0.7818608E-02  0.1024771E+00
          1   -1    0    0  501    0  0.00000000000E+00  0.00000000000E+00  0.28842015738E+03  0.28842015742E+03  0.50400000000E-02 0. -1.
         -1   -1    0    0    0  501 -0.00000000000E+00 -0.00000000000E+00 -0.12062644421E+04  0.12062644421E+04  0.50400000000E-02 0.  1.
    8880023    1    1    2    0    0  0.26685686276E+02 -0.17227624241E+02 -0.10590837321E+03  0.66785904701E+03  0.65864270000E+03 0. -1.
    8880022    1    1    2    0    0 -0.26685686276E+02  0.17227624241E+02 -0.81193591147E+03  0.82682555249E+03  0.15294330000E+03 0.  0.
<mgrwt>
<rscale>  0 0.46003485E+03</rscale>
<asrwt>0</asrwt>
<pdfrwt beam="1">  1        1 0.44372333E-01 0.65940816E+03</pdfrwt>
<pdfrwt beam="2">  1       -1 0.18557914E+00 0.65940816E+03</pdfrwt>
<totfact> 0.18175408E+01</totfact>
</mgrwt>
</event>
<event>
 4    2  0.3884658E-007  0.7845524E+03  0.7818608E-02  0.9745250E-01
         -1   -1    0    0    0  501 -0.00000000000E+00  0.00000000000E+00  0.52620584897E+03  0.52620584899E+03  0.50400000000E-02 0.  1.
          1   -1    0    0  501    0  0.00000000000E+00 -0.00000000000E+00 -0.24168565860E+04  0.24168565860E+04  0.50400000000E-02 0. -1.
    8880023    1    1    2    0    0  0.42215804843E+03  0.59117029872E+02 -0.22385024347E+04  0.23720066605E+04  0.65864270000E+03 0.  0.
    8880022    1    1    2    0    0 -0.42215804843E+03 -0.59117029872E+02  0.34785169762E+03  0.57105577453E+03  0.15294330000E+03 0.  0.
<mgrwt>
<rscale>  0 0.68385370E+03</rscale>
<asrwt>0</asrwt>
<pdfrwt beam="1">  1        1 0.37182409E+00 0.78455239E+03</pdfrwt>
<pdfrwt beam="2">  1       -1 0.80954747E-01 0.78455239E+03</pdfrwt>
<totfact> 0.24798997E+00</totfact>
</mgrwt>
</event>
<event>
 4    2  0.3884658E-007  0.1063306E+04  0.7818608E-02  0.9303055E-01
          1   -1    0    0  501    0  0.00000000000E+00  0.00000000000E+00  0.96417223948E+03  0.96417223950E+03  0.50400000000E-02 0. -1.
         -1   -1    0    0    0  501 -0.00000000000E+00 -0.00000000000E+00 -0.12235829098E+04  0.12235829098E+04  0.50400000000E-02 0.  1.
    8880023    1    1    2    0    0  0.66403368226E+03 -0.50583387661E+03 -0.65771902691E+03  0.12502852341E+04  0.65864270000E+03 0.  0.
    8880022    1    1    2    0    0 -0.66403368226E+03  0.50583387661E+03  0.39830835664E+03  0.93746991519E+03  0.15294330000E+03 0.  0.
<mgrwt>
<rscale>  0 0.10050213E+04</rscale>
<asrwt>0</asrwt>
<pdfrwt beam="1">  1        1 0.14833419E+00 0.10633056E+04</pdfrwt>
<pdfrwt beam="2">  1       -1 0.18824352E+00 0.10633056E+04</pdfrwt>
<totfact> 0.29241533E+00</totfact>
</mgrwt>
</event>
<event>
 4    2  0.3884658E-007  0.9293855E+03  0.7818608E-02  0.9480416E-01
         -1   -1    0    0    0  501 -0.00000000000E+00  0.00000000000E+00  0.11234781021E+04  0.11234781021E+04  0.50400000000E-02 0.  1.
          1   -1    0    0  501    0  0.00000000000E+00 -0.00000000000E+00 -0.11627843824E+04  0.11627843824E+04  0.50400000000E-02 0. -1.
    8880023    1    1    2    0    0 -0.84622764076E+02  0.65022010457E+03 -0.83117660554E+03  0.12468407887E+04  0.65864270000E+03 0.  0.
    8880022    1    1    2    0    0  0.84622764076E+02 -0.65022010457E+03  0.79187032529E+03  0.10394216958E+04  0.15294330000E+03 0.  0.
<mgrwt>
<rscale>  0 0.85743219E+03</rscale>
<asrwt>0</asrwt>
<pdfrwt beam="1">  1        1 0.17888991E+00 0.92938550E+03</pdfrwt>
<pdfrwt beam="2">  1       -1 0.17284278E+00 0.92938550E+03</pdfrwt>
<totfact> 0.27046686E+00</totfact>
</mgrwt>
</event>
<event>
 4    2  0.3884658E-007  0.6976114E+03  0.7818608E-02  0.1000726E+00
         -1   -1    0    0    0  501 -0.00000000000E+00  0.00000000000E+00  0.18322448622E+03  0.18322448629E+03  0.50400000000E-02 0.  1.
          1   -1    0    0  501    0  0.00000000000E+00 -0.00000000000E+00 -0.16921726277E+04  0.16921726277E+04  0.50400000000E-02 0. -1.
    8880023    1    1    2    0    0  0.22956819687E+03 -0.12243946798E+02 -0.14253296838E+04  0.15868920521E+04  0.65864270000E+03 0. -1.
    8880022    1    1    2    0    0 -0.22956819687E+03  0.12243946798E+02 -0.83618457640E+02  0.28850506186E+03  0.15294330000E+03 0.  0.
<mgrwt>
<rscale>  0 0.55333134E+03</rscale>
<asrwt>0</asrwt>
<pdfrwt beam="1">  1        1 0.26033424E+00 0.69761141E+03</pdfrwt>
<pdfrwt beam="2">  1       -1 0.28188384E-01 0.69761141E+03</pdfrwt>
<totfact> 0.56822663E+01</totfact>
</mgrwt>
</event>
<event>
 4    2  0.3884658E-007  0.7393950E+03  0.7818608E-02  0.9861713E-01
          1   -1    0    0  501    0  0.00000000000E+00  0.00000000000E+00  0.55837845227E+03  0.55837845229E+03  0.50400000000E-02 0. -1.
         -1   -1    0    0    0  501 -0.00000000000E+00 -0.00000000000E+00 -0.88713053197E+03  0.88713053198E+03  0.50400000000E-02 0.  1.
    8880023    1    1    2    0    0 -0.33594591158E+03 -0.59222812330E+01  0.23130093264E+03  0.77472902142E+03  0.65864270000E+03 0. -1.
    8880022    1    1    2    0    0  0.33594591158E+03  0.59222812330E+01 -0.56005301234E+03  0.67077996286E+03  0.15294330000E+03 0.  0.
<mgrwt>
<rscale>  0 0.62153263E+03</rscale>
<asrwt>0</asrwt>
<pdfrwt beam="1">  1        1 0.85904377E-01 0.73939498E+03</pdfrwt>
<pdfrwt beam="2">  1       -1 0.13648162E+00 0.73939498E+03</pdfrwt>
<totfact> 0.17484750E+01</totfact>
</mgrwt>
</event>
<event>
 4    2  0.3884658E-007  0.9814993E+03  0.7818608E-02  0.9406173E-01
          1   -1    0    0  501    0  0.00000000000E+00  0.00000000000E+00  0.85027665500E+03  0.85027665501E+03  0.50400000000E-02 0. -1.
         -1   -1    0    0    0  501 -0.00000000000E+00 -0.00000000000E+00 -0.10015065165E+04  0.10015065165E+04  0.50400000000E-02 0.  1.
    8880023    1    1    2    0    0 -0.46567862482E+03  0.55917268504E+03  0.24161632985E+03  0.10108013308E+04  0.65864270000E+03 0.  1.
    8880022    1    1    2    0    0  0.46567862482E+03 -0.55917268504E+03 -0.39284619136E+03  0.84098184070E+03  0.15294330000E+03 0. -1.
<mgrwt>
<rscale>  0 0.91569430E+03</rscale>
<asrwt>0</asrwt>
<pdfrwt beam="1">  1        1 0.13081179E+00 0.98149930E+03</pdfrwt>
<pdfrwt beam="2">  1       -1 0.15407793E+00 0.98149930E+03</pdfrwt>
<totfact> 0.65218538E+00</totfact>
</mgrwt>
</event>
<event>
 4    2  0.3884658E-007  0.6609659E+03  0.7818608E-02  0.1023188E+00
          1   -1    0    0  501    0  0.00000000000E+00  0.00000000000E+00  0.14849843860E+04  0.14849843860E+04  0.50400000000E-02 0. -1.
         -1   -1    0    0    0  501 -0.00000000000E+00 -0.00000000000E+00 -0.41719760692E+03  0.41719760695E+03  0.50400000000E-02 0.  1.
    8880023    1    1    2    0    0  0.23421457906E+02 -0.50171837015E+02  0.13911650447E+04  0.15402000409E+04  0.65864270000E+03 0. -1.
    8880022    1    1    2    0    0 -0.23421457906E+02  0.50171837015E+02 -0.32337826566E+03  0.36198195209E+03  0.15294330000E+03 0.  0.
<mgrwt>
<rscale>  0 0.46553547E+03</rscale>
<asrwt>0</asrwt>
<pdfrwt beam="1">  1        1 0.22845913E+00 0.66096595E+03</pdfrwt>
<pdfrwt beam="2">  1       -1 0.64184248E-01 0.66096595E+03</pdfrwt>
<totfact> 0.17299048E+01</totfact>
</mgrwt>
</event>
<event>
 4    2  0.3884658E-007  0.8453960E+03  0.7818608E-02  0.9620088E-01
         -1   -1    0    0    0  501 -0.00000000000E+00  0.00000000000E+00  0.54560912081E+03  0.54560912083E+03  0.50400000000E-02 0.  1.
          1   -1    0    0  501    0  0.00000000000E+00 -0.00000000000E+00 -0.25772237889E+04  0.25772237889E+04  0.50400000000E-02 0. -1.
    8880023    1    1    2    0    0  0.70015119919E+02 -0.52533989206E+03 -0.23419861580E+04  0.24898982891E+04  0.65864270000E+03 0.  0.
    8880022    1    1    2    0    0 -0.70015119919E+02  0.52533989206E+03  0.31037148996E+03  0.63293462064E+03  0.15294330000E+03 0.  0.
<mgrwt>
<rscale>  0 0.75980745E+03</rscale>
<asrwt>0</asrwt>
<pdfrwt beam="1">  1        1 0.39649596E+00 0.84539596E+03</pdfrwt>
<pdfrwt beam="2">  1       -1 0.83939866E-01 0.84539596E+03</pdfrwt>
<totfact> 0.17624553E+00</totfact>
</mgrwt>
</event>
<event>
 4    2  0.3884658E-007  0.9988863E+03  0.7818608E-02  0.9383016E-01
         -1   -1    0    0    0  501 -0.00000000000E+00  0.00000000000E+00  0.74473028764E+03  0.74473028766E+03  0.50400000000E-02 0.  1.
          1   -1    0    0  501    0  0.00000000000E+00 -0.00000000000E+00 -0.27995652766E+04  0.27995652766E+04  0.50400000000E-02 0. -1.
    8880023    1    1    2    0    0  0.81249074088E+02 -0.74656701870E+03 -0.24759340628E+04  0.26698358405E+04  0.65864270000E+03 0. -1.
    8880022    1    1    2    0    0 -0.81249074088E+02  0.74656701870E+03  0.42109907387E+03  0.87445972376E+03  0.15294330000E+03 0.  0.
<mgrwt>
<rscale>  0 0.93486667E+03</rscale>
<asrwt>0</asrwt>
<pdfrwt beam="1">  1        1 0.43070234E+00 0.99888635E+03</pdfrwt>
<pdfrwt beam="2">  1       -1 0.11457389E+00 0.99888635E+03</pdfrwt>
<totfact> 0.59146522E-01</totfact>
</mgrwt>
</event>
<event>
 4    2  0.3884658E-007  0.7730874E+03  0.7818608E-02  0.9772333E-01
         -1   -1    0    0    0  501 -0.00000000000E+00  0.00000000000E+00  0.80759833030E+03  0.80759833032E+03  0.50400000000E-02 0.  1.
          1   -1    0    0  501    0  0.00000000000E+00 -0.00000000000E+00 -0.11402607921E+04  0.11402607921E+04  0.50400000000E-02 0. -1.
    8880023    1    1    2    0    0 -0.37037685823E+03  0.16332473183E+03 -0.93056438611E+03  0.12097992677E+04  0.65864270000E+03 0. -1.
    8880022    1    1    2    0    0  0.37037685823E+03 -0.16332473183E+03  0.59790192429E+03  0.73805985477E+03  0.15294330000E+03 0.  0.
<mgrwt>
<rscale>  0 0.66868707E+03</rscale>
<asrwt>0</asrwt>
<pdfrwt beam="1">  1        1 0.17542474E+00 0.77308744E+03</pdfrwt>
<pdfrwt beam="2">  1       -1 0.12424590E+00 0.77308744E+03</pdfrwt>
<totfact> 0.69368450E+00</totfact>
</mgrwt>
</event>
<event>
 4    2  0.3884658E-007  0.7023402E+03  0.7818608E-02  0.9987628E-01
         -1   -1    0    0    0  501 -0.00000000000E+00  0.00000000000E+00  0.57822675624E+03  0.57822675626E+03  0.50400000000E-02 0.  1.
          1   -1    0    0  501    0  0.00000000000E+00 -0.00000000000E+00 -0.11703381286E+04  0.11703381286E+04  0.50400000000E-02 0. -1.
    8880023    1    1    2    0    0 -0.13779386457E+03 -0.20120726684E+03 -0.10166345462E+04  0.12356486232E+04  0.65864270000E+03 0.  0.
    8880022    1    1    2    0    0  0.13779386457E+03  0.20120726684E+03  0.42452317381E+03  0.51291626165E+03  0.15294330000E+03 0.  0.
<mgrwt>
<rscale>  0 0.56196054E+03</rscale>
<asrwt>0</asrwt>
<pdfrwt beam="1">  1        1 0.18005202E+00 0.70234017E+03</pdfrwt>
<pdfrwt beam="2">  1       -1 0.88957963E-01 0.70234017E+03</pdfrwt>
<totfact> 0.14472753E+01</totfact>
</mgrwt>
</event>
<event>
 4    2  0.4543487E-007  0.7498901E+03  0.7818608E-02  0.9832021E-01
          1   -1    0    0  501    0  0.00000000000E+00  0.00000000000E+00  0.20046111550E+04  0.20046111550E+04  0.50400000000E-02 0. -1.
         -1   -1    0    0    0  501 -0.00000000000E+00 -0.00000000000E+00 -0.77357880681E+03  0.77357880682E+03  0.50400000000E-02 0.  1.
    8880023    1    1    2    0    0 -0.19338436886E+03  0.30187327525E+03  0.18783945457E+04  0.20225482106E+04  0.65864270000E+03 0. -1.
    8880022    1    1    2    0    0  0.19338436886E+03 -0.30187327525E+03 -0.64736219753E+03  0.75564175125E+03  0.15294330000E+03 0.  0.
<mgrwt>
<rscale>  0 0.63672059E+03</rscale>
<asrwt>0</asrwt>
<pdfrwt beam="1">  1        1 0.30840171E+00 0.74989012E+03</pdfrwt>
<pdfrwt beam="2">  1       -1 0.11901213E+00 0.74989012E+03</pdfrwt>
<totfact> 0.19713718E+00</totfact>
</mgrwt>
</event>
<event>
 4    2  0.3884658E-007  0.6628992E+03  0.7818608E-02  0.1021365E+00
          1   -1    0    0  501    0  0.00000000000E+00  0.00000000000E+00  0.90062039987E+03  0.90062039988E+03  0.50400000000E-02 0. -1.
         -1   -1    0    0    0  501 -0.00000000000E+00 -0.00000000000E+00 -0.37622718245E+03  0.37622718248E+03  0.50400000000E-02 0.  1.
    8880023    1    1    2    0    0  0.74552141041E+02 -0.81954503515E+01  0.74558631167E+03  0.99766444337E+03  0.65864270000E+03 0. -1.
    8880022    1    1    2    0    0 -0.74552141041E+02  0.81954503515E+01 -0.22119309425E+03  0.27918313900E+03  0.15294330000E+03 0.  0.
<mgrwt>
<rscale>  0 0.47197273E+03</rscale>
<asrwt>0</asrwt>
<pdfrwt beam="1">  1        1 0.13855698E+00 0.66289923E+03</pdfrwt>
<pdfrwt beam="2">  1       -1 0.57881105E-01 0.66289923E+03</pdfrwt>
<totfact> 0.56691019E+01</totfact>
</mgrwt>
</event>
<event>
 4    2  0.3884658E-007  0.7318485E+03  0.7818608E-02  0.9884361E-01
         -1   -1    0    0    0  501 -0.00000000000E+00  0.00000000000E+00  0.33964893101E+03  0.33964893105E+03  0.50400000000E-02 0.  1.
          1   -1    0    0  501    0  0.00000000000E+00 -0.00000000000E+00 -0.12239366004E+04  0.12239366005E+04  0.50400000000E-02 0. -1.
    8880023    1    1    2    0    0 -0.31152470328E+03 -0.68879900510E+02 -0.95459715276E+03  0.12028541108E+04  0.65864270000E+03 0. -1.
    8880022    1    1    2    0    0  0.31152470328E+03  0.68879900510E+02  0.70309483332E+02  0.36073142074E+03  0.15294330000E+03 0.  0.
<mgrwt>
<rscale>  0 0.61025226E+03</rscale>
<asrwt>0</asrwt>
<pdfrwt beam="1">  1        1 0.18829794E+00 0.73184854E+03</pdfrwt>
<pdfrwt beam="2">  1       -1 0.52253682E-01 0.73184854E+03</pdfrwt>
<totfact> 0.38980346E+01</totfact>
</mgrwt>
</event>
<event>
 4    2  0.3884658E-007  0.7203504E+03  0.7818608E-02  0.9921402E-01
         -1   -1    0    0    0  501 -0.00000000000E+00  0.00000000000E+00  0.65939416757E+03  0.65939416758E+03  0.50400000000E-02 0.  1.
          1   -1    0    0  501    0  0.00000000000E+00 -0.00000000000E+00 -0.50241486714E+03  0.50241486717E+03  0.50400000000E-02 0. -1.
    8880023    1    1    2    0    0  0.23665102205E+03  0.17056032258E+03 -0.12145558041E+03  0.73051775759E+03  0.65864270000E+03 0. -1.
    8880022    1    1    2    0    0 -0.23665102205E+03 -0.17056032258E+03  0.27843488083E+03  0.43129127716E+03  0.15294330000E+03 0.  1.
<mgrwt>
<rscale>  0 0.59235174E+03</rscale>
<asrwt>0</asrwt>
<pdfrwt beam="1">  1        1 0.77294595E-01 0.72035043E+03</pdfrwt>
<pdfrwt beam="2">  1       -1 0.10144526E+00 0.72035043E+03</pdfrwt>
<totfact> 0.41616142E+01</totfact>
</mgrwt>
</event>
<event>
 4    2  0.3884658E-007  0.8635163E+03  0.7818608E-02  0.9587339E-01
          1   -1    0    0  501    0  0.00000000000E+00  0.00000000000E+00  0.32428900129E+04  0.32428900129E+04  0.50400000000E-02 0. -1.
         -1   -1    0    0    0  501 -0.00000000000E+00 -0.00000000000E+00 -0.31679192807E+03  0.31679192811E+03  0.50400000000E-02 0.  1.
    8880023    1    1    2    0    0  0.94885890450E+02 -0.55031523907E+03  0.28472782158E+04  0.29753409282E+04  0.65864270000E+03 0.  0.
    8880022    1    1    2    0    0 -0.94885890450E+02  0.55031523907E+03  0.78819869093E+02  0.58434101289E+03  0.15294330000E+03 0.  0.
<mgrwt>
<rscale>  0 0.78139870E+03</rscale>
<asrwt>0</asrwt>
<pdfrwt beam="1">  1        1 0.49890616E+00 0.86351630E+03</pdfrwt>
<pdfrwt beam="2">  1       -1 0.48737220E-01 0.86351630E+03</pdfrwt>
<totfact> 0.17576276E+00</totfact>
</mgrwt>
</event>
<event>
 4    2  0.3884658E-007  0.6712914E+03  0.7818608E-02  0.1014754E+00
         -1   -1    0    0    0  501 -0.00000000000E+00  0.00000000000E+00  0.97179225132E+03  0.97179225133E+03  0.50400000000E-02 0.  1.
          1   -1    0    0  501    0  0.00000000000E+00 -0.00000000000E+00 -0.20344958588E+03  0.20344958594E+03  0.50400000000E-02 0. -1.
    8880023    1    1    2    0    0  0.33400034017E+02  0.12532489120E+03  0.48521383980E+03  0.82829014676E+03  0.65864270000E+03 0. -1.
    8880022    1    1    2    0    0 -0.33400034017E+02 -0.12532489120E+03  0.28312882563E+03  0.34695169051E+03  0.15294330000E+03 0.  1.
<mgrwt>
<rscale>  0 0.49628350E+03</rscale>
<asrwt>0</asrwt>
<pdfrwt beam="1">  1        1 0.31299937E-01 0.67129137E+03</pdfrwt>
<pdfrwt beam="2">  1       -1 0.14950650E+00 0.67129137E+03</pdfrwt>
<totfact> 0.52519019E+01</totfact>
</mgrwt>
</event>
<event>
 4    2  0.3884658E-007  0.9529228E+03  0.7818608E-02  0.9445921E-01
         -1   -1    0    0    0  501 -0.00000000000E+00  0.00000000000E+00  0.16914125525E+04  0.16914125525E+04  0.50400000000E-02 0.  1.
          1   -1    0    0  501    0  0.00000000000E+00 -0.00000000000E+00 -0.11690978582E+04  0.11690978583E+04  0.50400000000E-02 0. -1.
    8880023    1    1    2    0    0 -0.68684760922E+03  0.49919418851E+02 -0.87596241315E+03  0.12943615964E+04  0.65864270000E+03 0. -1.
    8880022    1    1    2    0    0  0.68684760922E+03 -0.49919418851E+02  0.13982771074E+04  0.15661488144E+04  0.15294330000E+03 0.  0.
<mgrwt>
<rscale>  0 0.88390998E+03</rscale>
<asrwt>0</asrwt>
<pdfrwt beam="1">  1        1 0.17986121E+00 0.95292276E+03</pdfrwt>
<pdfrwt beam="2">  1       -1 0.26021732E+00 0.95292276E+03</pdfrwt>
<totfact> 0.68527313E-01</totfact>
</mgrwt>
</event>
<event>
 4    2  0.3884658E-007  0.6846672E+03  0.7818608E-02  0.1006798E+00
         -1   -1    0    0    0  501 -0.00000000000E+00  0.00000000000E+00  0.39919521135E+03  0.39919521138E+03  0.50400000000E-02 0.  1.
          1   -1    0    0  501    0  0.00000000000E+00 -0.00000000000E+00 -0.80537376918E+03  0.80537376919E+03  0.50400000000E-02 0. -1.
    8880023    1    1    2    0    0 -0.16356101131E+03  0.90591270313E+02 -0.58778030524E+03  0.90236072398E+03  0.65864270000E+03 0. -1.
    8880022    1    1    2    0    0  0.16356101131E+03 -0.90591270313E+02  0.18160174741E+03  0.30220825660E+03  0.15294330000E+03 0.  0.
<mgrwt>
<rscale>  0 0.52767358E+03</rscale>
<asrwt>0</asrwt>
<pdfrwt beam="1">  1        1 0.12390366E+00 0.68466721E+03</pdfrwt>
<pdfrwt beam="2">  1       -1 0.61414648E-01 0.68466721E+03</pdfrwt>
<totfact> 0.60462844E+01</totfact>
</mgrwt>
</event>
<event>
 4    2  0.3884658E-007  0.1018903E+04  0.7818608E-02  0.9357234E-01
          1   -1    0    0  501    0  0.00000000000E+00  0.00000000000E+00  0.18920105368E+04  0.18920105368E+04  0.50400000000E-02 0. -1.
         -1   -1    0    0    0  501 -0.00000000000E+00 -0.00000000000E+00 -0.67719381060E+03  0.67719381062E+03  0.50400000000E-02 0.  1.
    8880023    1    1    2    0    0 -0.16906758542E+03  0.75879505564E+03  0.14228469822E+04  0.17500450068E+04  0.65864270000E+03 0.  0.
    8880022    1    1    2    0    0  0.16906758542E+03 -0.75879505564E+03 -0.20803025597E+03  0.81915934062E+03  0.15294330000E+03 0.  0.
<mgrwt>
<rscale>  0 0.95680334E+03</rscale>
<asrwt>0</asrwt>
<pdfrwt beam="1">  1        1 0.29107854E+00 0.10189033E+04</pdfrwt>
<pdfrwt beam="2">  1       -1 0.10418366E+00 0.10189033E+04</pdfrwt>
<totfact> 0.30805288E+00</totfact>
</mgrwt>
</event>
<event>
 4    2  0.3884658E-007  0.6829665E+03  0.7818608E-02  0.1007693E+00
          1   -1    0    0  501    0  0.00000000000E+00  0.00000000000E+00  0.75086960666E+03  0.75086960668E+03  0.50400000000E-02 0. -1.
         -1   -1    0    0    0  501 -0.00000000000E+00 -0.00000000000E+00 -0.12075392395E+04  0.12075392395E+04  0.50400000000E-02 0.  1.
    8880023    1    1    2    0    0 -0.18025690767E+03 -0.11851717436E+02  0.57941173892E+03  0.89563451554E+03  0.65864270000E+03 0. -1.
    8880022    1    1    2    0    0  0.18025690767E+03  0.11851717436E+02 -0.10360813718E+04  0.10627743307E+04  0.15294330000E+03 0.  0.
<mgrwt>
<rscale>  0 0.52401891E+03</rscale>
<asrwt>0</asrwt>
<pdfrwt beam="1">  1        1 0.11551840E+00 0.68296649E+03</pdfrwt>
<pdfrwt beam="2">  1       -1 0.18577527E+00 0.68296649E+03</pdfrwt>
<totfact> 0.48456392E+00</totfact>
</mgrwt>
</event>
<event>
 4    2  0.3884658E-007  0.9323248E+03  0.7818608E-02  0.9476014E-01
          1   -1    0    0  501    0  0.00000000000E+00  0.00000000000E+00  0.10981907491E+04  0.10981907491E+04  0.50400000000E-02 0. -1.
         -1   -1    0    0    0  501 -0.00000000000E+00 -0.00000000000E+00 -0.93735874169E+03  0.93735874170E+03  0.50400000000E-02 0.  1.
    8880023    1    1    2    0    0 -0.25367055570E+03 -0.60915561461E+03  0.70322006071E+03  0.11677962038E+04  0.65864270000E+03 0.  0.
    8880022    1    1    2    0    0  0.25367055570E+03  0.60915561461E+03 -0.54238805332E+03  0.86775328696E+03  0.15294330000E+03 0.  0.
<mgrwt>
<rscale>  0 0.86075519E+03</rscale>
<asrwt>0</asrwt>
<pdfrwt beam="1">  1        1 0.16895242E+00 0.93232479E+03</pdfrwt>
<pdfrwt beam="2">  1       -1 0.14420904E+00 0.93232479E+03</pdfrwt>
<totfact> 0.49853542E+00</totfact>
</mgrwt>
</event>
<event>
 4    2  0.3884658E-007  0.1057058E+04  0.7818608E-02  0.9310445E-01
         -1   -1    0    0    0  501 -0.00000000000E+00  0.00000000000E+00  0.93020011458E+03  0.93020011459E+03  0.50400000000E-02 0.  1.
          1   -1    0    0  501    0  0.00000000000E+00 -0.00000000000E+00 -0.10835171247E+04  0.10835171248E+04  0.50400000000E-02 0. -1.
    8880023    1    1    2    0    0 -0.65683398667E+03  0.50212565006E+03 -0.41125005236E+03  0.11342388930E+04  0.65864270000E+03 0.  0.
    8880022    1    1    2    0    0  0.65683398667E+03 -0.50212565006E+03  0.25793304218E+03  0.87947834638E+03  0.15294330000E+03 0.  0.
<mgrwt>
<rscale>  0 0.99826962E+03</rscale>
<asrwt>0</asrwt>
<pdfrwt beam="1">  1        1 0.16669494E+00 0.10570578E+04</pdfrwt>
<pdfrwt beam="2">  1       -1 0.14310771E+00 0.10570578E+04</pdfrwt>
<totfact> 0.51435784E+00</totfact>
</mgrwt>
</event>
<event>
 4    2  0.3884658E-007  0.7783199E+03  0.7818608E-02  0.9759798E-01
          1   -1    0    0  501    0  0.00000000000E+00  0.00000000000E+00  0.57453919796E+03  0.57453919799E+03  0.50400000000E-02 0. -1.
         -1   -1    0    0    0  501 -0.00000000000E+00 -0.00000000000E+00 -0.11295954855E+04  0.11295954855E+04  0.50400000000E-02 0.  1.
    8880023    1    1    2    0    0  0.40450563568E+03 -0.91361002946E+02  0.22270344707E+03  0.80955461444E+03  0.65864270000E+03 0. -1.
    8880022    1    1    2    0    0 -0.40450563568E+03  0.91361002946E+02 -0.77775973458E+03  0.89458006903E+03  0.15294330000E+03 0. -1.
<mgrwt>
<rscale>  0 0.67565340E+03</rscale>
<asrwt>0</asrwt>
<pdfrwt beam="1">  1        1 0.88390646E-01 0.77831989E+03</pdfrwt>
<pdfrwt beam="2">  1       -1 0.17378392E+00 0.77831989E+03</pdfrwt>
<totfact> 0.86505456E+00</totfact>
</mgrwt>
</event>
<event>
 4    2  0.3884658E-007  0.8105117E+03  0.7818608E-02  0.9688512E-01
         -1   -1    0    0    0  501 -0.00000000000E+00  0.00000000000E+00  0.70639910784E+03  0.70639910786E+03  0.50400000000E-02 0.  1.
          1   -1    0    0  501    0  0.00000000000E+00 -0.00000000000E+00 -0.82015816956E+03  0.82015816958E+03  0.50400000000E-02 0. -1.
    8880023    1    1    2    0    0  0.46619790745E+03 -0.76016183395E+02 -0.44986892191E+03  0.92699040028E+03  0.65864270000E+03 0.  0.
    8880022    1    1    2    0    0 -0.46619790745E+03  0.76016183395E+02  0.33610986019E+03  0.59956687716E+03  0.15294330000E+03 0.  0.
<mgrwt>
<rscale>  0 0.71704911E+03</rscale>
<asrwt>0</asrwt>
<pdfrwt beam="1">  1        1 0.12617818E+00 0.81051166E+03</pdfrwt>
<pdfrwt beam="2">  1       -1 0.10867679E+00 0.81051166E+03</pdfrwt>
<totfact> 0.17033601E+01</totfact>
</mgrwt>
</event>
<event>
 4    2  0.3884658E-007  0.6994027E+03  0.7818608E-02  0.9999688E-01
          1   -1    0    0  501    0  0.00000000000E+00  0.00000000000E+00  0.99754717780E+03  0.99754717781E+03  0.50400000000E-02 0. -1.
         -1   -1    0    0    0  501 -0.00000000000E+00 -0.00000000000E+00 -0.42430283242E+03  0.42430283245E+03  0.50400000000E-02 0.  1.
    8880023    1    1    2    0    0  0.20043798384E+03 -0.12320114516E+03 -0.86667743594E+02  0.70475202134E+03  0.65864270000E+03 0.  1.
    8880022    1    1    2    0    0 -0.20043798384E+03  0.12320114516E+03  0.65991208897E+03  0.71709798893E+03  0.15294330000E+03 0.  0.
<mgrwt>
<rscale>  0 0.55663913E+03</rscale>
<asrwt>0</asrwt>
<pdfrwt beam="1">  1        1 0.15346879E+00 0.69940268E+03</pdfrwt>
<pdfrwt beam="2">  1       -1 0.65277360E-01 0.69940268E+03</pdfrwt>
<totfact> 0.37298207E+01</totfact>
</mgrwt>
</event>
<event>
 4    2  0.3884658E-007  0.8091361E+03  0.7818608E-02  0.9691379E-01
         -1   -1    0    0    0  501 -0.00000000000E+00  0.00000000000E+00  0.50895991738E+03  0.50895991740E+03  0.50400000000E-02 0.  1.
          1   -1    0    0  501    0  0.00000000000E+00 -0.00000000000E+00 -0.14739340386E+04  0.14739340386E+04  0.50400000000E-02 0. -1.
    8880023    1    1    2    0    0  0.46694697595E+03 -0.53399866894E+02 -0.11906452582E+04  0.14395615170E+04  0.65864270000E+03 0.  0.
    8880022    1    1    2    0    0 -0.46694697595E+03  0.53399866894E+02  0.22567113701E+03  0.54333243896E+03  0.15294330000E+03 0.  0.
<mgrwt>
<rscale>  0 0.71532395E+03</rscale>
<asrwt>0</asrwt>
<pdfrwt beam="1">  1        1 0.22675908E+00 0.80913610E+03</pdfrwt>
<pdfrwt beam="2">  1       -1 0.78301526E-01 0.80913610E+03</pdfrwt>
<totfact> 0.11457017E+01</totfact>
</mgrwt>
</event>
<event>
 4    2  0.3884658E-007  0.6743620E+03  0.7818608E-02  0.1012711E+00
         -1   -1    0    0    0  501 -0.00000000000E+00  0.00000000000E+00  0.31710107007E+03  0.31710107011E+03  0.50400000000E-02 0.  1.
          1   -1    0    0  501    0  0.00000000000E+00 -0.00000000000E+00 -0.79911414574E+03  0.79911414576E+03  0.50400000000E-02 0. -1.
    8880023    1    1    2    0    0  0.14315700457E+03  0.21448400620E+02 -0.57480334758E+03  0.88609427066E+03  0.65864270000E+03 0.  0.
    8880022    1    1    2    0    0 -0.14315700457E+03 -0.21448400620E+02  0.92790271904E+02  0.23012094521E+03  0.15294330000E+03 0.  0.
<mgrwt>
<rscale>  0 0.50411100E+03</rscale>
<asrwt>0</asrwt>
<pdfrwt beam="1">  1        1 0.12294064E+00 0.67436205E+03</pdfrwt>
<pdfrwt beam="2">  1       -1 0.48784780E-01 0.67436205E+03</pdfrwt>
<totfact> 0.95504373E+01</totfact>
</mgrwt>
</event>
<event>
 4    2  0.3884658E-007  0.1534581E+04  0.7818608E-02  0.8885595E-01
         -1   -1    0    0    0  501 -0.00000000000E+00  0.00000000000E+00  0.13466387244E+04  0.13466387244E+04  0.50400000000E-02 0.  1.
          1   -1    0    0  501    0  0.00000000000E+00 -0.00000000000E+00 -0.20599939241E+04  0.20599939241E+04  0.50400000000E-02 0. -1.
    8880023    1    1    2    0    0  0.29393910364E+03  0.13545220213E+04 -0.11803870289E+04  0.19360407659E+04  0.65864270000E+03 0.  0.
    8880022    1    1    2    0    0 -0.29393910364E+03 -0.13545220213E+04  0.46703182917E+03  0.14705918827E+04  0.15294330000E+03 0.  0.
<mgrwt>
<rscale>  0 0.14982837E+04</rscale>
<asrwt>0</asrwt>
<pdfrwt beam="1">  1        1 0.31692214E+00 0.15345815E+04</pdfrwt>
<pdfrwt beam="2">  1       -1 0.20717519E+00 0.15345815E+04</pdfrwt>
<totfact> 0.34314667E-01</totfact>
</mgrwt>
</event>
<event>
 4    2  0.3884658E-007  0.1449289E+04  0.7818608E-02  0.8946300E-01
          1   -1    0    0  501    0  0.00000000000E+00  0.00000000000E+00  0.19596077648E+04  0.19596077648E+04  0.50400000000E-02 0. -1.
         -1   -1    0    0    0  501 -0.00000000000E+00 -0.00000000000E+00 -0.10021272530E+04  0.10021272530E+04  0.50400000000E-02 0.  1.
    8880023    1    1    2    0    0 -0.12602507243E+04 -0.27999553500E+03  0.79103876468E+03  0.16511153567E+04  0.65864270000E+03 0.  1.
    8880022    1    1    2    0    0  0.12602507243E+04  0.27999553500E+03  0.16644174716E+03  0.13106196611E+04  0.15294330000E+03 0.  0.
<mgrwt>
<rscale>  0 0.14104342E+04</rscale>
<asrwt>0</asrwt>
<pdfrwt beam="1">  1        1 0.30147811E+00 0.14492893E+04</pdfrwt>
<pdfrwt beam="2">  1       -1 0.15417343E+00 0.14492893E+04</pdfrwt>
<totfact> 0.98112509E-01</totfact>
</mgrwt>
</event>
<event>
 4    2  0.3884658E-007  0.9729220E+03  0.7818608E-02  0.9417874E-01
         -1   -1    0    0    0  501 -0.00000000000E+00  0.00000000000E+00  0.19133424231E+04  0.19133424231E+04  0.50400000000E-02 0.  1.
          1   -1    0    0  501    0  0.00000000000E+00 -0.00000000000E+00 -0.89048183104E+03  0.89048183106E+03  0.50400000000E-02 0. -1.
    8880023    1    1    2    0    0  0.71588689921E+03  0.16521682037E+02 -0.51479724918E+03  0.11007240492E+04  0.65864270000E+03 0. -1.
    8880022    1    1    2    0    0 -0.71588689921E+03 -0.16521682037E+02  0.15376578412E+04  0.17031002050E+04  0.15294330000E+03 0.  0.
<mgrwt>
<rscale>  0 0.90619192E+03</rscale>
<asrwt>0</asrwt>
<pdfrwt beam="1">  1        1 0.13699721E+00 0.97292200E+03</pdfrwt>
<pdfrwt beam="2">  1       -1 0.29436037E+00 0.97292200E+03</pdfrwt>
<totfact> 0.67722996E-01</totfact>
</mgrwt>
</event>
<event>
 4    2  0.3884658E-007  0.7201966E+03  0.7818608E-02  0.9921921E-01
          1   -1    0    0  501    0  0.00000000000E+00  0.00000000000E+00  0.29704609339E+04  0.29704609339E+04  0.50400000000E-02 0. -1.
         -1   -1    0    0    0  501 -0.00000000000E+00 -0.00000000000E+00 -0.29439294902E+03  0.29439294906E+03  0.50400000000E-02 0.  1.
    8880023    1    1    2    0    0 -0.10366911786E+03  0.27226021225E+03  0.28164863977E+04  0.29071083130E+04  0.65864270000E+03 0. -1.
    8880022    1    1    2    0    0  0.10366911786E+03 -0.27226021225E+03 -0.14041841276E+03  0.35774556996E+03  0.15294330000E+03 0.  0.
<mgrwt>
<rscale>  0 0.59210548E+03</rscale>
<asrwt>0</asrwt>
<pdfrwt beam="1">  1        1 0.45699398E+00 0.72019658E+03</pdfrwt>
<pdfrwt beam="2">  1       -1 0.45291224E-01 0.72019658E+03</pdfrwt>
<totfact> 0.32731032E+00</totfact>
</mgrwt>
</event>
<event>
 4    2  0.3884658E-007  0.1369060E+04  0.7818608E-02  0.9008105E-01
         -1   -1    0    0    0  501 -0.00000000000E+00  0.00000000000E+00  0.13557820987E+04  0.13557820987E+04  0.50400000000E-02 0.  1.
          1   -1    0    0  501    0  0.00000000000E+00 -0.00000000000E+00 -0.20140229537E+04  0.20140229537E+04  0.50400000000E-02 0. -1.
    8880023    1    1    2    0    0  0.54804427100E+03 -0.10677834045E+04 -0.13939025321E+04  0.19537882171E+04  0.65864270000E+03 0.  0.
    8880022    1    1    2    0    0 -0.54804427100E+03  0.10677834045E+04  0.73566167712E+03  0.14160168354E+04  0.15294330000E+03 0.  0.
<mgrwt>
<rscale>  0 0.13274125E+04</rscale>
<asrwt>0</asrwt>
<pdfrwt beam="1">  1        1 0.30984968E+00 0.13690596E+04</pdfrwt>
<pdfrwt beam="2">  1       -1 0.20858186E+00 0.13690596E+04</pdfrwt>
<totfact> 0.36781425E-01</totfact>
</mgrwt>
</event>
<event>
 4    2  0.3884658E-007  0.9013157E+03  0.7818608E-02  0.9523923E-01
          1   -1    0    0  501    0  0.00000000000E+00  0.00000000000E+00  0.70941618788E+03  0.70941618790E+03  0.50400000000E-02 0. -1.
         -1   -1    0    0    0  501 -0.00000000000E+00 -0.00000000000E+00 -0.10442397289E+04  0.10442397289E+04  0.50400000000E-02 0.  1.
    8880023    1    1    2    0    0  0.39208716978E+03 -0.47415966642E+03 -0.58231947776E+03  0.10730637998E+04  0.65864270000E+03 0.  0.
    8880022    1    1    2    0    0 -0.39208716978E+03  0.47415966642E+03  0.24749593679E+03  0.68059211698E+03  0.15294330000E+03 0.  0.
<mgrwt>
<rscale>  0 0.82542836E+03</rscale>
<asrwt>0</asrwt>
<pdfrwt beam="1">  1        1 0.10914095E+00 0.90131567E+03</pdfrwt>
<pdfrwt beam="2">  1       -1 0.16065227E+00 0.90131567E+03</pdfrwt>
<totfact> 0.78142797E+00</totfact>
</mgrwt>
</event>
<event>
 4    2  0.3884658E-007  0.1045104E+04  0.7818608E-02  0.9324790E-01
         -1   -1    0    0    0  501 -0.00000000000E+00  0.00000000000E+00  0.13015730216E+04  0.13015730216E+04  0.50400000000E-02 0.  1.
          1   -1    0    0  501    0  0.00000000000E+00 -0.00000000000E+00 -0.12552803038E+04  0.12552803038E+04  0.50400000000E-02 0. -1.
    8880023    1    1    2    0    0  0.16050704761E+03 -0.79540534026E+03 -0.84344177321E+03  0.13429953085E+04  0.65864270000E+03 0. -1.
    8880022    1    1    2    0    0 -0.16050704761E+03  0.79540534026E+03  0.88973449097E+03  0.12138580169E+04  0.15294330000E+03 0.  1.
<mgrwt>
<rscale>  0 0.98532308E+03</rscale>
<asrwt>0</asrwt>
<pdfrwt beam="1">  1        1 0.19312005E+00 0.10451040E+04</pdfrwt>
<pdfrwt beam="2">  1       -1 0.20024200E+00 0.10451040E+04</pdfrwt>
<totfact> 0.14591368E+00</totfact>
</mgrwt>
</event>
<event>
 4    2  0.3884658E-007  0.7282929E+03  0.7818608E-02  0.9895463E-01
         -1   -1    0    0    0  501 -0.00000000000E+00  0.00000000000E+00  0.11139702973E+04  0.11139702974E+04  0.50400000000E-02 0.  1.
          1   -1    0    0  501    0  0.00000000000E+00 -0.00000000000E+00 -0.48247744200E+03  0.48247744202E+03  0.50400000000E-02 0. -1.
    8880023    1    1    2    0    0  0.15376019844E+03 -0.27010778439E+03 -0.14824578496E+03  0.74322771264E+03  0.65864270000E+03 0. -1.
    8880022    1    1    2    0    0 -0.15376019844E+03  0.27010778439E+03  0.77973864032E+03  0.85322002674E+03  0.15294330000E+03 0.  0.
<mgrwt>
<rscale>  0 0.60481652E+03</rscale>
<asrwt>0</asrwt>
<pdfrwt beam="1">  1        1 0.74227299E-01 0.72829295E+03</pdfrwt>
<pdfrwt beam="2">  1       -1 0.17138004E+00 0.72829295E+03</pdfrwt>
<totfact> 0.11553993E+01</totfact>
</mgrwt>
</event>
<event>
 4    2  0.3884658E-007  0.8458813E+03  0.7818608E-02  0.9619189E-01
          1   -1    0    0  501    0  0.00000000000E+00  0.00000000000E+00  0.46322585090E+03  0.46322585093E+03  0.50400000000E-02 0. -1.
         -1   -1    0    0    0  501 -0.00000000000E+00 -0.00000000000E+00 -0.13106628442E+04  0.13106628442E+04  0.50400000000E-02 0.  1.
    8880023    1    1    2    0    0 -0.36996666117E+03 -0.38056499766E+03 -0.11071265982E+03  0.85309586046E+03  0.65864270000E+03 0. -1.
    8880022    1    1    2    0    0  0.36996666117E+03  0.38056499766E+03 -0.73672433346E+03  0.92079283465E+03  0.15294330000E+03 0.  0.
<mgrwt>
<rscale>  0 0.76039066E+03</rscale>
<asrwt>0</asrwt>
<pdfrwt beam="1">  1        1 0.71265516E-01 0.84588135E+03</pdfrwt>
<pdfrwt beam="2">  1       -1 0.20164044E+00 0.84588135E+03</pdfrwt>
<totfact> 0.73720589E+00</totfact>
</mgrwt>
</event>
<event>
 4    2  0.3884658E-007  0.8516143E+03  0.7818608E-02  0.9608658E-01
          1   -1    0    0  501    0  0.00000000000E+00  0.00000000000E+00  0.13065292458E+04  0.13065292458E+04  0.50400000000E-02 0. -1.
         -1   -1    0    0    0  501 -0.00000000000E+00 -0.00000000000E+00 -0.10362187986E+04  0.10362187986E+04  0.50400000000E-02 0.  1.
    8880023    1    1    2    0    0 -0.33015224182E+03 -0.42712559510E+03  0.10689478320E+04  0.13667100829E+04  0.65864270000E+03 0. -1.
    8880022    1    1    2    0    0  0.33015224182E+03  0.42712559510E+03 -0.79863738487E+03  0.97603796151E+03  0.15294330000E+03 0.  0.
<mgrwt>
<rscale>  0 0.76725807E+03</rscale>
<asrwt>0</asrwt>
<pdfrwt beam="1">  1        1 0.20100450E+00 0.85161434E+03</pdfrwt>
<pdfrwt beam="2">  1       -1 0.15941828E+00 0.85161434E+03</pdfrwt>
<totfact> 0.27096053E+00</totfact>
</mgrwt>
</event>
<event>
 4    2  0.3884658E-007  0.7770657E+03  0.7818608E-02  0.9762775E-01
         -1   -1    0    0    0  501 -0.00000000000E+00  0.00000000000E+00  0.33833070958E+03  0.33833070962E+03  0.50400000000E-02 0.  1.
          1   -1    0    0  501    0  0.00000000000E+00 -0.00000000000E+00 -0.11277919116E+04  0.11277919116E+04  0.50400000000E-02 0. -1.
    8880023    1    1    2    0    0  0.15305419588E+03  0.38287759681E+03 -0.62268571027E+03  0.99577534668E+03  0.65864270000E+03 0.  0.
    8880022    1    1    2    0    0 -0.15305419588E+03 -0.38287759681E+03 -0.16677549175E+03  0.47034727455E+03  0.15294330000E+03 0.  1.
<mgrwt>
<rscale>  0 0.67399062E+03</rscale>
<asrwt>0</asrwt>
<pdfrwt beam="1">  1        1 0.17350645E+00 0.77706566E+03</pdfrwt>
<pdfrwt beam="2">  1       -1 0.52050879E-01 0.77706566E+03</pdfrwt>
<totfact> 0.45932184E+01</totfact>
</mgrwt>
</event>
<event>
 4    2  0.3884658E-007  0.6999217E+03  0.7818608E-02  0.9997526E-01
          1   -1    0    0  501    0  0.00000000000E+00  0.00000000000E+00  0.30267138243E+04  0.30267138243E+04  0.50400000000E-02 0. -1.
         -1   -1    0    0    0  501 -0.00000000000E+00 -0.00000000000E+00 -0.23716618331E+03  0.23716618337E+03  0.50400000000E-02 0.  1.
    8880023    1    1    2    0    0  0.20500080224E+03  0.11855327192E+03  0.28831094403E+04  0.29668519441E+04  0.65864270000E+03 0.  0.
    8880022    1    1    2    0    0 -0.20500080224E+03 -0.11855327192E+03 -0.93561799363E+02  0.29702806352E+03  0.15294330000E+03 0.  0.
<mgrwt>
<rscale>  0 0.55758846E+03</rscale>
<asrwt>0</asrwt>
<pdfrwt beam="1">  1        1 0.46564825E+00 0.69992172E+03</pdfrwt>
<pdfrwt beam="2">  1       -1 0.36487108E-01 0.69992172E+03</pdfrwt>
<totfact> 0.44423006E+00</totfact>
</mgrwt>
</event>
<event>
 4    2  0.3884658E-007  0.6937223E+03  0.7818608E-02  0.1002431E+00
          1   -1    0    0  501    0  0.00000000000E+00  0.00000000000E+00  0.40531209541E+03  0.40531209545E+03  0.50400000000E-02 0. -1.
         -1   -1    0    0    0  501 -0.00000000000E+00 -0.00000000000E+00 -0.94888942470E+03  0.94888942471E+03  0.50400000000E-02 0.  1.
    8880023    1    1    2    0    0 -0.15872397076E+03  0.14915468002E+03  0.58239166474E+02  0.69616264209E+03  0.65864270000E+03 0. -1.
    8880022    1    1    2    0    0  0.15872397076E+03 -0.14915468002E+03 -0.60181649576E+03  0.65803887807E+03  0.15294330000E+03 0.  1.
<mgrwt>
<rscale>  0 0.54596900E+03</rscale>
<asrwt>0</asrwt>
<pdfrwt beam="1">  1        1 0.62355707E-01 0.69372230E+03</pdfrwt>
<pdfrwt beam="2">  1       -1 0.14598299E+00 0.69372230E+03</pdfrwt>
<totfact> 0.22810225E+01</totfact>
</mgrwt>
</event>
<event>
 4    2  0.3884658E-007  0.1244485E+04  0.7818608E-02  0.9115048E-01
          1   -1    0    0  501    0  0.00000000000E+00  0.00000000000E+00  0.15318373346E+04  0.15318373346E+04  0.50400000000E-02 0. -1.
         -1   -1    0    0    0  501 -0.00000000000E+00 -0.00000000000E+00 -0.10527653171E+04  0.10527653171E+04  0.50400000000E-02 0.  1.
    8880023    1    1    2    0    0  0.97646626496E+03 -0.40180298171E+03  0.78906858573E+03  0.14735574105E+04  0.65864270000E+03 0. -1.
    8880022    1    1    2    0    0 -0.97646626496E+03  0.40180298171E+03 -0.30999656823E+03  0.11110452412E+04  0.15294330000E+03 0.  0.
<mgrwt>
<rscale>  0 0.11974997E+04</rscale>
<asrwt>0</asrwt>
<pdfrwt beam="1">  1        1 0.23566728E+00 0.12444847E+04</pdfrwt>
<pdfrwt beam="2">  1       -1 0.16196389E+00 0.12444847E+04</pdfrwt>
<totfact> 0.17131321E+00</totfact>
</mgrwt>
</event>
<event>
 4    2  0.3884658E-007  0.9851944E+03  0.7818608E-02  0.9401189E-01
          1   -1    0    0  501    0  0.00000000000E+00  0.00000000000E+00  0.24360814697E+04  0.24360814697E+04  0.50400000000E-02 0. -1.
         -1   -1    0    0    0  501 -0.00000000000E+00 -0.00000000000E+00 -0.35198951932E+03  0.35198951935E+03  0.50400000000E-02 0.  1.
    8880023    1    1    2    0    0  0.60897171564E+03  0.40737115475E+03  0.16530510689E+04  0.19243663505E+04  0.65864270000E+03 0. -1.
    8880022    1    1    2    0    0 -0.60897171564E+03 -0.40737115475E+03  0.43104088144E+03  0.86370463856E+03  0.15294330000E+03 0.  0.
<mgrwt>
<rscale>  0 0.91977864E+03</rscale>
<asrwt>0</asrwt>
<pdfrwt beam="1">  1        1 0.37478176E+00 0.98519440E+03</pdfrwt>
<pdfrwt beam="2">  1       -1 0.54152235E-01 0.98519440E+03</pdfrwt>
<totfact> 0.52665913E+00</totfact>
</mgrwt>
</event>
<event>
 4    2  0.3884658E-007  0.1591366E+04  0.7818608E-02  0.8847676E-01
          1   -1    0    0  501    0  0.00000000000E+00  0.00000000000E+00  0.23778804753E+04  0.23778804753E+04  0.50400000000E-02 0. -1.
         -1   -1    0    0    0  501 -0.00000000000E+00 -0.00000000000E+00 -0.10881999289E+04  0.10881999289E+04  0.50400000000E-02 0.  1.
    8880023    1    1    2    0    0  0.12425857439E+03 -0.14433275857E+04  0.12244287016E+04  0.20079020306E+04  0.65864270000E+03 0.  0.
    8880022    1    1    2    0    0 -0.12425857439E+03  0.14433275857E+04  0.65251844842E+02  0.14581783736E+04  0.15294330000E+03 0.  0.
<mgrwt>
<rscale>  0 0.15565797E+04</rscale>
<asrwt>0</asrwt>
<pdfrwt beam="1">  1        1 0.36582776E+00 0.15913657E+04</pdfrwt>
<pdfrwt beam="2">  1       -1 0.16741537E+00 0.15913657E+04</pdfrwt>
<totfact> 0.39704142E-01</totfact>
</mgrwt>
</event>
<event>
 4    2  0.3884658E-007  0.1449710E+04  0.7818608E-02  0.8945989E-01
          1   -1    0    0  501    0  0.00000000000E+00  0.00000000000E+00  0.29942878281E+04  0.29942878281E+04  0.50400000000E-02 0. -1.
         -1   -1    0    0    0  501 -0.00000000000E+00 -0.00000000000E+00 -0.71292670084E+03  0.71292670086E+03  0.50400000000E-02 0.  1.
    8880023    1    1    2    0    0  0.12793502351E+04  0.17638800366E+03  0.18211411932E+04  0.23277059960E+04  0.65864270000E+03 0.  0.
    8880022    1    1    2    0    0 -0.12793502351E+04 -0.17638800366E+03  0.46021993404E+03  0.13795085330E+04  0.15294330000E+03 0.  0.
<mgrwt>
<rscale>  0 0.14108688E+04</rscale>
<asrwt>0</asrwt>
<pdfrwt beam="1">  1        1 0.46065966E+00 0.14497103E+04</pdfrwt>
<pdfrwt beam="2">  1       -1 0.10968103E+00 0.14497103E+04</pdfrwt>
<totfact> 0.44666095E-01</totfact>
</mgrwt>
</event>
<event>
 4    2  0.3884658E-007  0.7440711E+03  0.7818608E-02  0.9848243E-01
         -1   -1    0    0    0  501 -0.00000000000E+00  0.00000000000E+00  0.41273359329E+03  0.41273359332E+03  0.50400000000E-02 0.  1.
          1   -1    0    0  501    0  0.00000000000E+00 -0.00000000000E+00 -0.10974800160E+04  0.10974800160E+04  0.50400000000E-02 0. -1.
    8880023    1    1    2    0    0 -0.34474203512E+03 -0.31376808517E+02 -0.82097778409E+03  0.11079920140E+04  0.65864270000E+03 0. -1.
    8880022    1    1    2    0    0  0.34474203512E+03  0.31376808517E+02  0.13623136139E+03  0.40222159531E+03  0.15294330000E+03 0.  0.
<mgrwt>
<rscale>  0 0.62836575E+03</rscale>
<asrwt>0</asrwt>
<pdfrwt beam="1">  1        1 0.16884308E+00 0.74407109E+03</pdfrwt>
<pdfrwt beam="2">  1       -1 0.63497476E-01 0.74407109E+03</pdfrwt>
<totfact> 0.32930756E+01</totfact>
</mgrwt>
</event>
<event>
 4    2  0.3884658E-007  0.8261279E+03  0.7818608E-02  0.9656914E-01
         -1   -1    0    0    0  501 -0.00000000000E+00  0.00000000000E+00  0.76364460606E+03  0.76364460608E+03  0.50400000000E-02 0.  1.
          1   -1    0    0  501    0  0.00000000000E+00 -0.00000000000E+00 -0.12365700277E+04  0.12365700277E+04  0.50400000000E-02 0. -1.
    8880023    1    1    2    0    0  0.47011764733E+03  0.16633241040E+03 -0.97383326376E+03  0.12770428751E+04  0.65864270000E+03 0.  0.
    8880022    1    1    2    0    0 -0.47011764733E+03 -0.16633241040E+03  0.50090784217E+03  0.72317175860E+03  0.15294330000E+03 0.  0.
<mgrwt>
<rscale>  0 0.73641104E+03</rscale>
<asrwt>0</asrwt>
<pdfrwt beam="1">  1        1 0.19024154E+00 0.82612788E+03</pdfrwt>
<pdfrwt beam="2">  1       -1 0.11748379E+00 0.82612788E+03</pdfrwt>
<totfact> 0.67190340E+00</totfact>
</mgrwt>
</event>
<event>
 4    2  0.3884658E-007  0.7372040E+03  0.7818608E-02  0.9868168E-01
         -1   -1    0    0    0  501 -0.00000000000E+00  0.00000000000E+00  0.56247780894E+03  0.56247780897E+03  0.50400000000E-02 0.  1.
          1   -1    0    0  501    0  0.00000000000E+00 -0.00000000000E+00 -0.98375238979E+03  0.98375238980E+03  0.50400000000E-02 0. -1.
    8880023    1    1    2    0    0 -0.50982455590E+02 -0.32720083263E+03 -0.75256236875E+03  0.10534799100E+04  0.65864270000E+03 0. -1.
    8880022    1    1    2    0    0  0.50982455590E+02  0.32720083263E+03  0.33128778790E+03  0.49275028877E+03  0.15294330000E+03 0.  0.
<mgrwt>
<rscale>  0 0.61829132E+03</rscale>
<asrwt>0</asrwt>
<pdfrwt beam="1">  1        1 0.15134652E+00 0.73720404E+03</pdfrwt>
<pdfrwt beam="2">  1       -1 0.86535048E-01 0.73720404E+03</pdfrwt>
<totfact> 0.21139715E+01</totfact>
</mgrwt>
</event>
<event>
 4    2  0.3884658E-007  0.9380175E+03  0.7818608E-02  0.9467568E-01
         -1   -1    0    0    0  501 -0.00000000000E+00  0.00000000000E+00  0.19131059927E+04  0.19131059927E+04  0.50400000000E-02 0.  1.
          1   -1    0    0  501    0  0.00000000000E+00 -0.00000000000E+00 -0.50479977213E+03  0.50479977216E+03  0.50400000000E-02 0. -1.
    8880023    1    1    2    0    0  0.55594208156E+03 -0.37012849472E+03  0.10294283733E+03  0.94364937062E+03  0.65864270000E+03 0.  0.
    8880022    1    1    2    0    0 -0.55594208156E+03  0.37012849472E+03  0.13053633832E+04  0.14742563942E+04  0.15294330000E+03 0.  0.
<mgrwt>
<rscale>  0 0.86717721E+03</rscale>
<asrwt>0</asrwt>
<pdfrwt beam="1">  1        1 0.77661503E-01 0.93801754E+03</pdfrwt>
<pdfrwt beam="2">  1       -1 0.29432400E+00 0.93801754E+03</pdfrwt>
<totfact> 0.16068691E+00</totfact>
</mgrwt>
</event>
<event>
 4    2  0.3884658E-007  0.1129199E+04  0.7818608E-02  0.9229223E-01
          1   -1    0    0  501    0  0.00000000000E+00  0.00000000000E+00  0.22692811766E+04  0.22692811766E+04  0.50400000000E-02 0. -1.
         -1   -1    0    0    0  501 -0.00000000000E+00 -0.00000000000E+00 -0.60267333087E+03  0.60267333089E+03  0.50400000000E-02 0.  1.
    8880023    1    1    2    0    0  0.64816779282E+03  0.64896686213E+03  0.15744531940E+04  0.19375222688E+04  0.65864270000E+03 0. -1.
    8880022    1    1    2    0    0 -0.64816779282E+03 -0.64896686213E+03  0.92154651700E+02  0.93443223865E+03  0.15294330000E+03 0.  0.
<mgrwt>
<rscale>  0 0.10756826E+04</rscale>
<asrwt>0</asrwt>
<pdfrwt beam="1">  1        1 0.34912018E+00 0.11291987E+04</pdfrwt>
<pdfrwt beam="2">  1       -1 0.92718974E-01 0.11291987E+04</pdfrwt>
<totfact> 0.22031184E+00</totfact>
</mgrwt>
</event>
<event>
 4    2  0.3884658E-007  0.8088994E+03  0.7818608E-02  0.9691874E-01
          1   -1    0    0  501    0  0.00000000000E+00  0.00000000000E+00  0.18487853899E+04  0.18487853899E+04  0.50400000000E-02 0. -1.
         -1   -1    0    0    0  501 -0.00000000000E+00 -0.00000000000E+00 -0.26393632463E+03  0.26393632468E+03  0.50400000000E-02 0.  1.
    8880023    1    1    2    0    0 -0.44186999409E+03  0.15893051872E+03  0.13307872323E+04  0.15573416020E+04  0.65864270000E+03 0. -1.
    8880022    1    1    2    0    0  0.44186999409E+03 -0.15893051872E+03  0.25406183298E+03  0.55538011258E+03  0.15294330000E+03 0.  0.
<mgrwt>
<rscale>  0 0.71502673E+03</rscale>
<asrwt>0</asrwt>
<pdfrwt beam="1">  1        1 0.28442852E+00 0.80889938E+03</pdfrwt>
<pdfrwt beam="2">  1       -1 0.40605589E-01 0.80889938E+03</pdfrwt>
<totfact> 0.23034801E+01</totfact>
</mgrwt>
</event>
<event>
 4    2  0.3884658E-007  0.7040254E+03  0.7818608E-02  0.9980895E-01
         -1   -1    0    0    0  501 -0.00000000000E+00  0.00000000000E+00  0.97992670305E+03  0.97992670306E+03  0.50400000000E-02 0.  1.
          1   -1    0    0  501    0  0.00000000000E+00 -0.00000000000E+00 -0.84968672810E+03  0.84968672812E+03  0.50400000000E-02 0. -1.
    8880023    1    1    2    0    0 -0.24392643659E+03  0.48388971255E+02 -0.67362025184E+03  0.97437982787E+03  0.65864270000E+03 0.  0.
    8880022    1    1    2    0    0  0.24392643659E+03 -0.48388971255E+02  0.80386022679E+03  0.85523360331E+03  0.15294330000E+03 0.  0.
<mgrwt>
<rscale>  0 0.56495960E+03</rscale>
<asrwt>0</asrwt>
<pdfrwt beam="1">  1        1 0.13072104E+00 0.70402543E+03</pdfrwt>
<pdfrwt beam="2">  1       -1 0.15075795E+00 0.70402543E+03</pdfrwt>
<totfact> 0.71766277E+00</totfact>
</mgrwt>
</event>
<event>
 4    2  0.3884658E-007  0.9455406E+03  0.7818608E-02  0.9456559E-01
         -1   -1    0    0    0  501 -0.00000000000E+00  0.00000000000E+00  0.75774324863E+03  0.75774324865E+03  0.50400000000E-02 0.  1.
          1   -1    0    0  501    0  0.00000000000E+00 -0.00000000000E+00 -0.11742930502E+04  0.11742930502E+04  0.50400000000E-02 0. -1.
    8880023    1    1    2    0    0  0.89223613146E+02 -0.67251470304E+03 -0.70471101723E+03  0.11792644754E+04  0.65864270000E+03 0. -1.
    8880022    1    1    2    0    0 -0.89223613146E+02  0.67251470304E+03  0.28816121564E+03  0.75277182344E+03  0.15294330000E+03 0.  0.
<mgrwt>
<rscale>  0 0.87563706E+03</rscale>
<asrwt>0</asrwt>
<pdfrwt beam="1">  1        1 0.18066047E+00 0.94554063E+03</pdfrwt>
<pdfrwt beam="2">  1       -1 0.11657588E+00 0.94554063E+03</pdfrwt>
<totfact> 0.74835496E+00</totfact>
</mgrwt>
</event>
<event>
 4    2  0.3884658E-007  0.7427981E+03  0.7818608E-02  0.9851870E-01
         -1   -1    0    0    0  501 -0.00000000000E+00  0.00000000000E+00  0.10747031098E+04  0.10747031098E+04  0.50400000000E-02 0.  1.
          1   -1    0    0  501    0  0.00000000000E+00 -0.00000000000E+00 -0.40196808664E+03  0.40196808667E+03  0.50400000000E-02 0. -1.
    8880023    1    1    2    0    0 -0.88147437863E+02 -0.33191692261E+03  0.43981079124E+02  0.74409902291E+03  0.65864270000E+03 0.  0.
    8880022    1    1    2    0    0  0.88147437863E+02  0.33191692261E+03  0.62875394401E+03  0.73257217354E+03  0.15294330000E+03 0.  0.
<mgrwt>
<rscale>  0 0.62651657E+03</rscale>
<asrwt>0</asrwt>
<pdfrwt beam="1">  1        1 0.61841244E-01 0.74279810E+03</pdfrwt>
<pdfrwt beam="2">  1       -1 0.16533894E+00 0.74279810E+03</pdfrwt>
<totfact> 0.16325907E+01</totfact>
</mgrwt>
</event>
<event>
 4    2  0.3884658E-007  0.7904343E+03  0.7818608E-02  0.9731874E-01
          1   -1    0    0  501    0  0.00000000000E+00  0.00000000000E+00  0.71656129189E+03  0.71656129191E+03  0.50400000000E-02 0. -1.
         -1   -1    0    0    0  501 -0.00000000000E+00 -0.00000000000E+00 -0.95351009837E+03  0.95351009838E+03  0.50400000000E-02 0.  1.
    8880023    1    1    2    0    0 -0.22865443083E+03 -0.37241558316E+03  0.39741266103E+03  0.88471647703E+03  0.65864270000E+03 0.  0.
    8880022    1    1    2    0    0  0.22865443083E+03  0.37241558316E+03 -0.63436146750E+03  0.78535491326E+03  0.15294330000E+03 0.  0.
<mgrwt>
<rscale>  0 0.69150338E+03</rscale>
<asrwt>0</asrwt>
<pdfrwt beam="1">  1        1 0.11024020E+00 0.79043432E+03</pdfrwt>
<pdfrwt beam="2">  1       -1 0.14669386E+00 0.79043432E+03</pdfrwt>
<totfact> 0.99858860E+00</totfact>
</mgrwt>
</event>
<event>
 4    2  0.3884658E-007  0.7295367E+03  0.7818608E-02  0.9891546E-01
         -1   -1    0    0    0  501 -0.00000000000E+00  0.00000000000E+00  0.14987583882E+04  0.14987583882E+04  0.50400000000E-02 0.  1.
          1   -1    0    0  501    0  0.00000000000E+00 -0.00000000000E+00 -0.68166712879E+03  0.68166712881E+03  0.50400000000E-02 0. -1.
    8880023    1    1    2    0    0 -0.93303640828E+02  0.29951295467E+03 -0.45602477289E+03  0.86033852591E+03  0.65864270000E+03 0. -1.
    8880022    1    1    2    0    0  0.93303640828E+02 -0.29951295467E+03  0.12731160323E+04  0.13200869911E+04  0.15294330000E+03 0.  0.
<mgrwt>
<rscale>  0 0.60672739E+03</rscale>
<asrwt>0</asrwt>
<pdfrwt beam="1">  1        1 0.10487187E+00 0.72953669E+03</pdfrwt>
<pdfrwt beam="2">  1       -1 0.23057821E+00 0.72953669E+03</pdfrwt>
<totfact> 0.27749830E+00</totfact>
</mgrwt>
</event>
<event>
 4    2  0.3884658E-007  0.9772690E+03  0.7818608E-02  0.9411920E-01
         -1   -1    0    0    0  501 -0.00000000000E+00  0.00000000000E+00  0.50904071043E+03  0.50904071045E+03  0.50400000000E-02 0.  1.
          1   -1    0    0  501    0  0.00000000000E+00 -0.00000000000E+00 -0.19662446794E+04  0.19662446794E+04  0.50400000000E-02 0. -1.
    8880023    1    1    2    0    0  0.59764803192E+03 -0.40504477366E+03 -0.17059630029E+03  0.99204724820E+03  0.65864270000E+03 0.  1.
    8880022    1    1    2    0    0 -0.59764803192E+03  0.40504477366E+03 -0.12866076687E+04  0.14832381416E+04  0.15294330000E+03 0.  0.
<mgrwt>
<rscale>  0 0.91101155E+03</rscale>
<asrwt>0</asrwt>
<pdfrwt beam="1">  1        1 0.30249918E+00 0.97726897E+03</pdfrwt>
<pdfrwt beam="2">  1       -1 0.78313956E-01 0.97726897E+03</pdfrwt>
<totfact> 0.51987509E+00</totfact>
</mgrwt>
</event>
<event>
 4    2  0.3884658E-007  0.1040149E+04  0.7818608E-02  0.9330819E-01
          1   -1    0    0  501    0  0.00000000000E+00  0.00000000000E+00  0.10599124310E+04  0.10599124310E+04  0.50400000000E-02 0. -1.
         -1   -1    0    0    0  501 -0.00000000000E+00 -0.00000000000E+00 -0.13331309736E+04  0.13331309736E+04  0.50400000000E-02 0.  1.
    8880023    1    1    2    0    0 -0.42084482401E+03  0.68628638792E+03 -0.88877835296E+03  0.13681507735E+04  0.65864270000E+03 0.  1.
    8880022    1    1    2    0    0  0.42084482401E+03 -0.68628638792E+03  0.61555981034E+03  0.10248926311E+04  0.15294330000E+03 0.  0.
<mgrwt>
<rscale>  0 0.97994486E+03</rscale>
<asrwt>0</asrwt>
<pdfrwt beam="1">  1        1 0.16306345E+00 0.10401488E+04</pdfrwt>
<pdfrwt beam="2">  1       -1 0.20509707E+00 0.10401488E+04</pdfrwt>
<totfact> 0.18871333E+00</totfact>
</mgrwt>
</event>
<event>
 4    2  0.5715644E-007  0.6809586E+03  0.7818608E-02  0.1008787E+00
         -1   -1    0    0    0  501 -0.00000000000E+00  0.00000000000E+00  0.63918903929E+03  0.63918903931E+03  0.50400000000E-02 0.  1.
          1   -1    0    0  501    0  0.00000000000E+00 -0.00000000000E+00 -0.24723767614E+04  0.24723767614E+04  0.50400000000E-02 0. -1.
    8880023    1    1    2    0    0  0.16503064894E+03  0.51567958303E+02 -0.24025499466E+04  0.24971885835E+04  0.65864270000E+03 0. -1.
    8880022    1    1    2    0    0 -0.16503064894E+03 -0.51567958303E+02  0.56936222445E+03  0.61437721724E+03  0.15294330000E+03 0.  0.
<mgrwt>
<rscale>  0 0.51959765E+03</rscale>
<asrwt>0</asrwt>
<pdfrwt beam="1">  1        1 0.38036565E+00 0.68095857E+03</pdfrwt>
<pdfrwt beam="2">  1       -1 0.98336777E-01 0.68095857E+03</pdfrwt>
<totfact> 0.15163247E+00</totfact>
</mgrwt>
</event>
<event>
 4    2  0.3884658E-007  0.6894050E+03  0.7818608E-02  0.1004437E+00
          1   -1    0    0  501    0  0.00000000000E+00  0.00000000000E+00  0.44446039654E+03  0.44446039656E+03  0.50400000000E-02 0. -1.
         -1   -1    0    0    0  501 -0.00000000000E+00 -0.00000000000E+00 -0.81980017207E+03  0.81980017209E+03  0.50400000000E-02 0.  1.
    8880023    1    1    2    0    0 -0.16981576207E+03  0.11239037560E+03  0.12704201846E+03  0.70101274617E+03  0.65864270000E+03 0.  0.
    8880022    1    1    2    0    0  0.16981576207E+03 -0.11239037560E+03 -0.50238179400E+03  0.56324782248E+03  0.15294330000E+03 0.  1.
<mgrwt>
<rscale>  0 0.53746905E+03</rscale>
<asrwt>0</asrwt>
<pdfrwt beam="1">  1        1 0.68378523E-01 0.68940496E+03</pdfrwt>
<pdfrwt beam="2">  1       -1 0.12612310E+00 0.68940496E+03</pdfrwt>
<totfact> 0.29351592E+01</totfact>
</mgrwt>
</event>
<event>
 4    2  0.3884658E-007  0.7462938E+03  0.7818608E-02  0.9841979E-01
         -1   -1    0    0    0  501 -0.00000000000E+00  0.00000000000E+00  0.10935908332E+04  0.10935908332E+04  0.50400000000E-02 0.  1.
          1   -1    0    0  501    0  0.00000000000E+00 -0.00000000000E+00 -0.29501311299E+03  0.29501311303E+03  0.50400000000E-02 0. -1.
    8880023    1    1    2    0    0  0.23724158779E+03 -0.25857431373E+03  0.45385608833E+03  0.87346425335E+03  0.65864270000E+03 0. -1.
    8880022    1    1    2    0    0 -0.23724158779E+03  0.25857431373E+03  0.34472163189E+03  0.51513969291E+03  0.15294330000E+03 0.  1.
<mgrwt>
<rscale>  0 0.63157566E+03</rscale>
<asrwt>0</asrwt>
<pdfrwt beam="1">  1        1 0.45386633E-01 0.74629381E+03</pdfrwt>
<pdfrwt beam="2">  1       -1 0.16824474E+00 0.74629381E+03</pdfrwt>
<totfact> 0.23288328E+01</totfact>
</mgrwt>
</event>
<event>
 4    2  0.3884658E-007  0.8305887E+03  0.7818608E-02  0.9648188E-01
         -1   -1    0    0    0  501 -0.00000000000E+00  0.00000000000E+00  0.55755779079E+03  0.55755779081E+03  0.50400000000E-02 0.  1.
          1   -1    0    0  501    0  0.00000000000E+00 -0.00000000000E+00 -0.23617587335E+04  0.23617587335E+04  0.50400000000E-02 0. -1.
    8880023    1    1    2    0    0 -0.26781142551E+03 -0.42935356045E+03 -0.21383014070E+04  0.22939508611E+04  0.65864270000E+03 0.  0.
    8880022    1    1    2    0    0  0.26781142551E+03  0.42935356045E+03  0.33410046430E+03  0.62536566325E+03  0.15294330000E+03 0.  0.
<mgrwt>
<rscale>  0 0.74187256E+03</rscale>
<asrwt>0</asrwt>
<pdfrwt beam="1">  1        1 0.36334749E+00 0.83058873E+03</pdfrwt>
<pdfrwt beam="2">  1       -1 0.85778123E-01 0.83058873E+03</pdfrwt>
<totfact> 0.23664994E+00</totfact>
</mgrwt>
</event>
<event>
 4    2  0.3884658E-007  0.7334074E+03  0.7818608E-02  0.9879584E-01
         -1   -1    0    0    0  501 -0.00000000000E+00  0.00000000000E+00  0.10574640328E+03  0.10574640340E+03  0.50400000000E-02 0.  1.
          1   -1    0    0  501    0  0.00000000000E+00 -0.00000000000E+00 -0.32983162381E+04  0.32983162381E+04  0.50400000000E-02 0. -1.
    8880023    1    1    2    0    0  0.24334498683E+03 -0.21180046480E+03 -0.26859460577E+04  0.27842759652E+04  0.65864270000E+03 0. -1.
    8880022    1    1    2    0    0 -0.24334498683E+03  0.21180046480E+03 -0.50662377712E+03  0.61978667626E+03  0.15294330000E+03 0.  0.
<mgrwt>
<rscale>  0 0.61260997E+03</rscale>
<asrwt>0</asrwt>
<pdfrwt beam="1">  1        1 0.50743319E+00 0.73340741E+03</pdfrwt>
<pdfrwt beam="2">  1       -1 0.16268680E-01 0.73340741E+03</pdfrwt>
<totfact> 0.11057376E+01</totfact>
</mgrwt>
</event>
<event>
 4    2  0.3884658E-007  0.7264065E+03  0.7818608E-02  0.9901476E-01
         -1   -1    0    0    0  501 -0.00000000000E+00  0.00000000000E+00  0.80178028402E+03  0.80178028403E+03  0.50400000000E-02 0.  1.
          1   -1    0    0  501    0  0.00000000000E+00 -0.00000000000E+00 -0.39648299641E+03  0.39648299644E+03  0.50400000000E-02 0. -1.
    8880023    1    1    2    0    0 -0.26979508405E+03 -0.14514391849E+03  0.88499080514E+02  0.73177758777E+03  0.65864270000E+03 0.  0.
    8880022    1    1    2    0    0  0.26979508405E+03  0.14514391849E+03  0.31679820710E+03  0.46648569270E+03  0.15294330000E+03 0.  0.
<mgrwt>
<rscale>  0 0.60189795E+03</rscale>
<asrwt>0</asrwt>
<pdfrwt beam="1">  1        1 0.60997384E-01 0.72640646E+03</pdfrwt>
<pdfrwt beam="2">  1       -1 0.12335081E+00 0.72640646E+03</pdfrwt>
<totfact> 0.35978661E+01</totfact>
</mgrwt>
</event>
<event>
 4    2  0.3884658E-007  0.7364437E+03  0.7818608E-02  0.9870430E-01
         -1   -1    0    0    0  501 -0.00000000000E+00  0.00000000000E+00  0.20212069459E+04  0.20212069459E+04  0.50400000000E-02 0.  1.
          1   -1    0    0  501    0  0.00000000000E+00 -0.00000000000E+00 -0.77617925243E+03  0.77617925245E+03  0.50400000000E-02 0. -1.
    8880023    1    1    2    0    0  0.31987692561E+03 -0.78853241631E+02 -0.57946750144E+03  0.93708690778E+03  0.65864270000E+03 0. -1.
    8880022    1    1    2    0    0 -0.31987692561E+03  0.78853241631E+02  0.18244951949E+04  0.18602992906E+04  0.15294330000E+03 0.  0.
<mgrwt>
<rscale>  0 0.61716018E+03</rscale>
<asrwt>0</asrwt>
<pdfrwt beam="1">  1        1 0.11941219E+00 0.73644368E+03</pdfrwt>
<pdfrwt beam="2">  1       -1 0.31095491E+00 0.73644368E+03</pdfrwt>
<totfact> 0.69181566E-01</totfact>
</mgrwt>
</event>
<event>
 4    2  0.3884658E-007  0.9551352E+03  0.7818608E-02  0.9442764E-01
         -1   -1    0    0    0  501 -0.00000000000E+00  0.00000000000E+00  0.11126760410E+04  0.11126760410E+04  0.50400000000E-02 0.  1.
          1   -1    0    0  501    0  0.00000000000E+00 -0.00000000000E+00 -0.83925935358E+03  0.83925935359E+03  0.50400000000E-02 0. -1.
    8880023    1    1    2    0    0 -0.68237927694E+03 -0.11327685164E+03 -0.34100512380E+03  0.10141833283E+04  0.65864270000E+03 0. -1.
    8880022    1    1    2    0    0  0.68237927694E+03  0.11327685164E+03  0.61442181122E+03  0.93775206629E+03  0.15294330000E+03 0.  0.
<mgrwt>
<rscale>  0 0.88638417E+03</rscale>
<asrwt>0</asrwt>
<pdfrwt beam="1">  1        1 0.12911682E+00 0.95513524E+03</pdfrwt>
<pdfrwt beam="2">  1       -1 0.17118093E+00 0.95513524E+03</pdfrwt>
<totfact> 0.49723189E+00</totfact>
</mgrwt>
</event>
<event>
 4    2  0.3884658E-007  0.8328662E+03  0.7818608E-02  0.9643781E-01
          1   -1    0    0  501    0  0.00000000000E+00  0.00000000000E+00  0.10441828204E+04  0.10441828204E+04  0.50400000000E-02 0. -1.
         -1   -1    0    0    0  501 -0.00000000000E+00 -0.00000000000E+00 -0.57090203088E+03  0.57090203090E+03  0.50400000000E-02 0.  1.
    8880023    1    1    2    0    0  0.33277143162E+03 -0.38615944275E+03  0.64764436637E+03  0.10550399862E+04  0.65864270000E+03 0. -1.
    8880022    1    1    2    0    0 -0.33277143162E+03  0.38615944275E+03 -0.17436357689E+03  0.56004486507E+03  0.15294330000E+03 0. -1.
<mgrwt>
<rscale>  0 0.74465004E+03</rscale>
<asrwt>0</asrwt>
<pdfrwt beam="1">  1        1 0.16064351E+00 0.83286622E+03</pdfrwt>
<pdfrwt beam="2">  1       -1 0.87831083E-01 0.83286622E+03</pdfrwt>
<totfact> 0.18178730E+01</totfact>
</mgrwt>
</event>
<event>
 4    2  0.3884658E-007  0.6987309E+03  0.7818608E-02  0.1000251E+00
          1   -1    0    0  501    0  0.00000000000E+00  0.00000000000E+00  0.27044695421E+04  0.27044695421E+04  0.50400000000E-02 0. -1.
         -1   -1    0    0    0  501 -0.00000000000E+00 -0.00000000000E+00 -0.12183498721E+03  0.12183498732E+03  0.50400000000E-02 0.  1.
    8880023    1    1    2    0    0 -0.19396800860E+03  0.12958038186E+03  0.23828964787E+04  0.24832278385E+04  0.65864270000E+03 0. -1.
    8880022    1    1    2    0    0  0.19396800860E+03 -0.12958038186E+03  0.19973807619E+03  0.34307669087E+03  0.15294330000E+03 0.  0.
<mgrwt>
<rscale>  0 0.55540440E+03</rscale>
<asrwt>0</asrwt>
<pdfrwt beam="1">  1        1 0.41607221E+00 0.69873090E+03</pdfrwt>
<pdfrwt beam="2">  1       -1 0.18743845E-01 0.69873090E+03</pdfrwt>
<totfact> 0.23506706E+01</totfact>
</mgrwt>
</event>
<event>
 4    2  0.3884658E-007  0.7134364E+03  0.7818608E-02  0.9945455E-01
          1   -1    0    0  501    0  0.00000000000E+00  0.00000000000E+00  0.23275587697E+04  0.23275587697E+04  0.50400000000E-02 0. -1.
         -1   -1    0    0    0  501 -0.00000000000E+00 -0.00000000000E+00 -0.31586918001E+03  0.31586918005E+03  0.50400000000E-02 0.  1.
    8880023    1    1    2    0    0  0.34091813838E+01  0.27417079756E+03  0.21753611393E+04  0.22893640037E+04  0.65864270000E+03 0. -1.
    8880022    1    1    2    0    0 -0.34091813838E+01 -0.27417079756E+03 -0.16367154960E+03  0.35406394608E+03  0.15294330000E+03 0.  0.
<mgrwt>
<rscale>  0 0.58108027E+03</rscale>
<asrwt>0</asrwt>
<pdfrwt beam="1">  1        1 0.35808595E+00 0.71343637E+03</pdfrwt>
<pdfrwt beam="2">  1       -1 0.48595260E-01 0.71343637E+03</pdfrwt>
<totfact> 0.79972816E+00</totfact>
</mgrwt>
</event>
<event>
 4    2  0.3884658E-007  0.6950751E+03  0.7818608E-02  0.1001828E+00
         -1   -1    0    0    0  501 -0.00000000000E+00  0.00000000000E+00  0.23348016384E+03  0.23348016389E+03  0.50400000000E-02 0.  1.
          1   -1    0    0  501    0  0.00000000000E+00 -0.00000000000E+00 -0.10135546208E+04  0.10135546208E+04  0.50400000000E-02 0. -1.
    8880023    1    1    2    0    0  0.19950935769E+03  0.97546090751E+02 -0.63179323514E+03  0.93930406252E+03  0.65864270000E+03 0. -1.
    8880022    1    1    2    0    0 -0.19950935769E+03 -0.97546090751E+02 -0.14828122186E+03  0.30773072222E+03  0.15294330000E+03 0.  1.
<mgrwt>
<rscale>  0 0.54855949E+03</rscale>
<asrwt>0</asrwt>
<pdfrwt beam="1">  1        1 0.15593148E+00 0.69507513E+03</pdfrwt>
<pdfrwt beam="2">  1       -1 0.35920026E-01 0.69507513E+03</pdfrwt>
<totfact> 0.11186558E+02</totfact>
</mgrwt>
</event>
<event>
 4    2  0.3884658E-007  0.1294466E+04  0.7818608E-02  0.9070353E-01
          1   -1    0    0  501    0  0.00000000000E+00  0.00000000000E+00  0.37222998942E+04  0.37222998942E+04  0.50400000000E-02 0. -1.
         -1   -1    0    0    0  501 -0.00000000000E+00 -0.00000000000E+00 -0.12890439562E+04  0.12890439562E+04  0.50400000000E-02 0.  1.
    8880023    1    1    2    0    0  0.10672614009E+04 -0.32060305764E+03  0.33300395816E+04  0.35727870129E+04  0.65864270000E+03 0.  0.
    8880022    1    1    2    0    0 -0.10672614009E+04  0.32060305764E+03 -0.89678364359E+03  0.14385568376E+04  0.15294330000E+03 0.  0.
<mgrwt>
<rscale>  0 0.12497958E+04</rscale>
<asrwt>0</asrwt>
<pdfrwt beam="1">  1        1 0.57266153E+00 0.12944665E+04</pdfrwt>
<pdfrwt beam="2">  1       -1 0.19831445E+00 0.12944665E+04</pdfrwt>
<totfact> 0.25230051E-02</totfact>
</mgrwt>
</event>
<event>
 4    2  0.3884658E-007  0.6959796E+03  0.7818608E-02  0.1001431E+00
          1   -1    0    0  501    0  0.00000000000E+00  0.00000000000E+00  0.50847939739E+03  0.50847939741E+03  0.50400000000E-02 0. -1.
         -1   -1    0    0    0  501 -0.00000000000E+00 -0.00000000000E+00 -0.55710305460E+03  0.55710305462E+03  0.50400000000E-02 0.  1.
    8880023    1    1    2    0    0  0.21611099598E+03  0.62236533942E+02  0.17022299496E+03  0.71649384018E+03  0.65864270000E+03 0.  1.
    8880022    1    1    2    0    0 -0.21611099598E+03 -0.62236533942E+02 -0.21884665217E+03  0.34908861185E+03  0.15294330000E+03 0.  0.
<mgrwt>
<rscale>  0 0.55027348E+03</rscale>
<asrwt>0</asrwt>
<pdfrwt beam="1">  1        1 0.78227600E-01 0.69597957E+03</pdfrwt>
<pdfrwt beam="2">  1       -1 0.85708162E-01 0.69597957E+03</pdfrwt>
<totfact> 0.59685100E+01</totfact>
</mgrwt>
</event>
<event>
 4    2  0.3884658E-007  0.7694863E+03  0.7818608E-02  0.9781140E-01
          1   -1    0    0  501    0  0.00000000000E+00  0.00000000000E+00  0.33103435847E+03  0.33103435851E+03  0.50400000000E-02 0. -1.
         -1   -1    0    0    0  501 -0.00000000000E+00 -0.00000000000E+00 -0.14801269843E+04  0.14801269843E+04  0.50400000000E-02 0.  1.
    8880023    1    1    2    0    0  0.38176563834E+03 -0.11204457860E+03 -0.23826845670E+03  0.80553153504E+03  0.65864270000E+03 0. -1.
    8880022    1    1    2    0    0 -0.38176563834E+03  0.11204457860E+03 -0.91082416909E+03  0.10056298077E+04  0.15294330000E+03 0.  0.
<mgrwt>
<rscale>  0 0.66384585E+03</rscale>
<asrwt>0</asrwt>
<pdfrwt beam="1">  1        1 0.50928364E-01 0.76948632E+03</pdfrwt>
<pdfrwt beam="2">  1       -1 0.22771184E+00 0.76948632E+03</pdfrwt>
<totfact> 0.77756932E+00</totfact>
</mgrwt>
</event>
<event>
 4    2  0.3884658E-007  0.1133032E+04  0.7818608E-02  0.9225141E-01
         -1   -1    0    0    0  501 -0.00000000000E+00  0.00000000000E+00  0.12148175585E+04  0.12148175585E+04  0.50400000000E-02 0.  1.
          1   -1    0    0  501    0  0.00000000000E+00 -0.00000000000E+00 -0.93307767229E+03  0.93307767230E+03  0.50400000000E-02 0. -1.
    8880023    1    1    2    0    0  0.91268482291E+03  0.13021798209E+03 -0.10207470404E+03  0.11376202180E+04  0.65864270000E+03 0.  1.
    8880022    1    1    2    0    0 -0.91268482291E+03 -0.13021798209E+03  0.38381459021E+03  0.10102750128E+04  0.15294330000E+03 0.  0.
<mgrwt>
<rscale>  0 0.10797657E+04</rscale>
<asrwt>0</asrwt>
<pdfrwt beam="1">  1        1 0.14355041E+00 0.11330316E+04</pdfrwt>
<pdfrwt beam="2">  1       -1 0.18689501E+00 0.11330316E+04</pdfrwt>
<totfact> 0.31414633E+00</totfact>
</mgrwt>
</event>
<event>
 4    2  0.3884658E-007  0.7554190E+03  0.7818608E-02  0.9817115E-01
          1   -1    0    0  501    0  0.00000000000E+00  0.00000000000E+00  0.83870861185E+03  0.83870861187E+03  0.50400000000E-02 0. -1.
         -1   -1    0    0    0  501 -0.00000000000E+00 -0.00000000000E+00 -0.56875108456E+03  0.56875108459E+03  0.50400000000E-02 0.  1.
    8880023    1    1    2    0    0 -0.36954449459E+03  0.16868696568E+02  0.53649300689E+03  0.92654338221E+03  0.65864270000E+03 0. -1.
    8880022    1    1    2    0    0  0.36954449459E+03 -0.16868696568E+02 -0.26653547960E+03  0.48091631425E+03  0.15294330000E+03 0.  1.
<mgrwt>
<rscale>  0 0.64452101E+03</rscale>
<asrwt>0</asrwt>
<pdfrwt beam="1">  1        1 0.12903209E+00 0.75541902E+03</pdfrwt>
<pdfrwt beam="2">  1       -1 0.87500168E-01 0.75541902E+03</pdfrwt>
<totfact> 0.26990379E+01</totfact>
</mgrwt>
</event>
<event>
 4    2  0.3884658E-007  0.7167178E+03  0.7818608E-02  0.9933852E-01
         -1   -1    0    0    0  501 -0.00000000000E+00  0.00000000000E+00  0.98843060723E+03  0.98843060724E+03  0.50400000000E-02 0.  1.
          1   -1    0    0  501    0  0.00000000000E+00 -0.00000000000E+00 -0.97167226015E+03  0.97167226016E+03  0.50400000000E-02 0. -1.
    8880023    1    1    2    0    0 -0.23475906408E+03  0.15736085555E+03 -0.80495249081E+03  0.10777907848E+04  0.65864270000E+03 0.  0.
    8880022    1    1    2    0    0  0.23475906408E+03 -0.15736085555E+03  0.82171083789E+03  0.88231208262E+03  0.15294330000E+03 0.  0.
<mgrwt>
<rscale>  0 0.58648348E+03</rscale>
<asrwt>0</asrwt>
<pdfrwt beam="1">  1        1 0.14948804E+00 0.71671784E+03</pdfrwt>
<pdfrwt beam="2">  1       -1 0.15206625E+00 0.71671784E+03</pdfrwt>
<totfact> 0.55755106E+00</totfact>
</mgrwt>
</event>
<event>
 4    2  0.3884658E-007  0.7058758E+03  0.7818608E-02  0.9973647E-01
          1   -1    0    0  501    0  0.00000000000E+00  0.00000000000E+00  0.70521513897E+03  0.70521513899E+03  0.50400000000E-02 0. -1.
         -1   -1    0    0    0  501 -0.00000000000E+00 -0.00000000000E+00 -0.62197348445E+03  0.62197348447E+03  0.50400000000E-02 0.  1.
    8880023    1    1    2    0    0 -0.96280529284E+02 -0.23490520670E+03  0.46396462056E+03  0.84470336323E+03  0.65864270000E+03 0.  0.
    8880022    1    1    2    0    0  0.96280529284E+02  0.23490520670E+03 -0.38072296604E+03  0.48248526023E+03  0.15294330000E+03 0.  0.
<mgrwt>
<rscale>  0 0.56821018E+03</rscale>
<asrwt>0</asrwt>
<pdfrwt beam="1">  1        1 0.10849464E+00 0.70587577E+03</pdfrwt>
<pdfrwt beam="2">  1       -1 0.95688228E-01 0.70587577E+03</pdfrwt>
<totfact> 0.29227297E+01</totfact>
</mgrwt>
</event>
<event>
 4    2  0.3884658E-007  0.1333781E+04  0.7818608E-02  0.9036923E-01
         -1   -1    0    0    0  501 -0.00000000000E+00  0.00000000000E+00  0.79017260282E+03  0.79017260283E+03  0.50400000000E-02 0.  1.
          1   -1    0    0  501    0  0.00000000000E+00 -0.00000000000E+00 -0.23341691486E+04  0.23341691486E+04  0.50400000000E-02 0. -1.
    8880023    1    1    2    0    0 -0.11317530384E+04 -0.25356982633E+03 -0.14196226596E+04  0.19478966345E+04  0.65864270000E+03 0.  0.
    8880022    1    1    2    0    0  0.11317530384E+04  0.25356982633E+03 -0.12437388617E+03  0.11764451170E+04  0.15294330000E+03 0.  0.
<mgrwt>
<rscale>  0 0.12907622E+04</rscale>
<asrwt>0</asrwt>
<pdfrwt beam="1">  1        1 0.35910294E+00 0.13337814E+04</pdfrwt>
<pdfrwt beam="2">  1       -1 0.12156502E+00 0.13337814E+04</pdfrwt>
<totfact> 0.10265783E+00</totfact>
</mgrwt>
</event>
<event>
 4    2  0.4310592E-007  0.9261709E+03  0.7818608E-02  0.9485261E-01
          1   -1    0    0  501    0  0.00000000000E+00  0.00000000000E+00  0.17140816485E+04  0.17140816485E+04  0.50400000000E-02 0. -1.
         -1   -1    0    0    0  501 -0.00000000000E+00 -0.00000000000E+00 -0.11544657597E+04  0.11544657597E+04  0.50400000000E-02 0.  1.
    8880023    1    1    2    0    0 -0.40385365661E+03 -0.51076866705E+03  0.14708658294E+04  0.17381711370E+04  0.65864270000E+03 0. -1.
    8880022    1    1    2    0    0  0.40385365661E+03  0.51076866705E+03 -0.91124994063E+03  0.11303762712E+04  0.15294330000E+03 0.  0.
<mgrwt>
<rscale>  0 0.85379226E+03</rscale>
<asrwt>0</asrwt>
<pdfrwt beam="1">  1        1 0.26370487E+00 0.92617094E+03</pdfrwt>
<pdfrwt beam="2">  1       -1 0.17761012E+00 0.92617094E+03</pdfrwt>
<totfact> 0.10299305E+00</totfact>
</mgrwt>
</event>
<event>
 4    2  0.3884658E-007  0.1133371E+04  0.7818608E-02  0.9224781E-01
          1   -1    0    0  501    0  0.00000000000E+00  0.00000000000E+00  0.19629527007E+04  0.19629527007E+04  0.50400000000E-02 0. -1.
         -1   -1    0    0    0  501 -0.00000000000E+00 -0.00000000000E+00 -0.79568298447E+03  0.79568298449E+03  0.50400000000E-02 0.  1.
    8880023    1    1    2    0    0 -0.36675532268E+03 -0.84629201498E+03  0.13939988710E+04  0.17965975342E+04  0.65864270000E+03 0. -1.
    8880022    1    1    2    0    0  0.36675532268E+03  0.84629201498E+03 -0.22672915476E+03  0.96203815100E+03  0.15294330000E+03 0.  0.
<mgrwt>
<rscale>  0 0.10801272E+04</rscale>
<asrwt>0</asrwt>
<pdfrwt beam="1">  1        1 0.30199272E+00 0.11333710E+04</pdfrwt>
<pdfrwt beam="2">  1       -1 0.12241277E+00 0.11333710E+04</pdfrwt>
<totfact> 0.18470884E+00</totfact>
</mgrwt>
</event>
<event>
 4    2  0.3884658E-007  0.6877911E+03  0.7818608E-02  0.1005221E+00
          1   -1    0    0  501    0  0.00000000000E+00  0.00000000000E+00  0.11287675822E+04  0.11287675822E+04  0.50400000000E-02 0. -1.
         -1   -1    0    0    0  501 -0.00000000000E+00 -0.00000000000E+00 -0.26142009081E+03  0.26142009086E+03  0.50400000000E-02 0.  1.
    8880023    1    1    2    0    0  0.26427591530E+02  0.19633650987E+03  0.90542026309E+03  0.11370323222E+04  0.65864270000E+03 0. -1.
    8880022    1    1    2    0    0 -0.26427591530E+02 -0.19633650987E+03 -0.38072771706E+02  0.25315535085E+03  0.15294330000E+03 0.  0.
<mgrwt>
<rscale>  0 0.53419184E+03</rscale>
<asrwt>0</asrwt>
<pdfrwt beam="1">  1        1 0.17365656E+00 0.68779114E+03</pdfrwt>
<pdfrwt beam="2">  1       -1 0.40218474E-01 0.68779114E+03</pdfrwt>
<totfact> 0.74796061E+01</totfact>
</mgrwt>
</event>
<event>
 4    2  0.3884658E-007  0.7423767E+03  0.7818608E-02  0.9853077E-01
         -1   -1    0    0    0  501 -0.00000000000E+00  0.00000000000E+00  0.75744981242E+03  0.75744981244E+03  0.50400000000E-02 0.  1.
          1   -1    0    0  501    0  0.00000000000E+00 -0.00000000000E+00 -0.88417383136E+03  0.88417383137E+03  0.50400000000E-02 0. -1.
    8880023    1    1    2    0    0  0.14784860634E+03  0.30895580795E+03 -0.65749945646E+03  0.99167970796E+03  0.65864270000E+03 0. -1.
    8880022    1    1    2    0    0 -0.14784860634E+03 -0.30895580795E+03  0.53077543752E+03  0.64994393585E+03  0.15294330000E+03 0.  0.
<mgrwt>
<rscale>  0 0.62590260E+03</rscale>
<asrwt>0</asrwt>
<pdfrwt beam="1">  1        1 0.13602674E+00 0.74237666E+03</pdfrwt>
<pdfrwt beam="2">  1       -1 0.11653074E+00 0.74237666E+03</pdfrwt>
<totfact> 0.12859001E+01</totfact>
</mgrwt>
</event>
<event>
 4    2  0.3884658E-007  0.7759938E+03  0.7818608E-02  0.9765333E-01
          1   -1    0    0  501    0  0.00000000000E+00  0.00000000000E+00  0.94903493411E+03  0.94903493413E+03  0.50400000000E-02 0. -1.
         -1   -1    0    0    0  501 -0.00000000000E+00 -0.00000000000E+00 -0.10014298460E+04  0.10014298460E+04  0.50400000000E-02 0.  1.
    8880023    1    1    2    0    0 -0.16398954496E+03  0.37611648035E+03  0.72258564928E+03  0.10603284418E+04  0.65864270000E+03 0.  0.
    8880022    1    1    2    0    0  0.16398954496E+03 -0.37611648035E+03 -0.77498056117E+03  0.89013633836E+03  0.15294330000E+03 0.  0.
<mgrwt>
<rscale>  0 0.67256614E+03</rscale>
<asrwt>0</asrwt>
<pdfrwt beam="1">  1        1 0.14600537E+00 0.77599380E+03</pdfrwt>
<pdfrwt beam="2">  1       -1 0.15406613E+00 0.77599380E+03</pdfrwt>
<totfact> 0.55574497E+00</totfact>
</mgrwt>
</event>
<event>
 4    2  0.3884658E-007  0.6943457E+03  0.7818608E-02  0.1002152E+00
         -1   -1    0    0    0  501 -0.00000000000E+00  0.00000000000E+00  0.18953281397E+03  0.18953281404E+03  0.50400000000E-02 0.  1.
          1   -1    0    0  501    0  0.00000000000E+00 -0.00000000000E+00 -0.12210195288E+04  0.12210195288E+04  0.50400000000E-02 0. -1.
    8880023    1    1    2    0    0 -0.21915944330E+03 -0.16580348501E+02 -0.74033078367E+03  0.10149904655E+04  0.65864270000E+03 0.  0.
    8880022    1    1    2    0    0  0.21915944330E+03  0.16580348501E+02 -0.29115593111E+03  0.39556187731E+03  0.15294330000E+03 0. -1.
<mgrwt>
<rscale>  0 0.54716683E+03</rscale>
<asrwt>0</asrwt>
<pdfrwt beam="1">  1        1 0.18784915E+00 0.69434572E+03</pdfrwt>
<pdfrwt beam="2">  1       -1 0.29158895E-01 0.69434572E+03</pdfrwt>
<totfact> 0.11329854E+02</totfact>
</mgrwt>
</event>
<event>
 4    2  0.3884658E-007  0.7089314E+03  0.7818608E-02  0.9961991E-01
         -1   -1    0    0    0  501 -0.00000000000E+00  0.00000000000E+00  0.10484873441E+03  0.10484873454E+03  0.50400000000E-02 0.  1.
          1   -1    0    0  501    0  0.00000000000E+00 -0.00000000000E+00 -0.27616711815E+04  0.27616711816E+04  0.50400000000E-02 0. -1.
    8880023    1    1    2    0    0  0.20216186896E+03  0.16704527032E+03 -0.22491130571E+04  0.23581970430E+04  0.65864270000E+03 0.  0.
    8880022    1    1    2    0    0 -0.20216186896E+03 -0.16704527032E+03 -0.40770939003E+03  0.50832287312E+03  0.15294330000E+03 0. -1.
<mgrwt>
<rscale>  0 0.57348760E+03</rscale>
<asrwt>0</asrwt>
<pdfrwt beam="1">  1        1 0.42487243E+00 0.70893141E+03</pdfrwt>
<pdfrwt beam="2">  1       -1 0.16130577E-01 0.70893141E+03</pdfrwt>
<totfact> 0.27411736E+01</totfact>
</mgrwt>
</event>
<event>
 4    2  0.3884658E-007  0.7818877E+03  0.7818608E-02  0.9751421E-01
          1   -1    0    0  501    0  0.00000000000E+00  0.00000000000E+00  0.33545299991E+04  0.33545299991E+04  0.50400000000E-02 0. -1.
         -1   -1    0    0    0  501 -0.00000000000E+00 -0.00000000000E+00 -0.11353280355E+03  0.11353280367E+03  0.50400000000E-02 0.  1.
    8880023    1    1    2    0    0 -0.24942972817E+03 -0.33959236279E+03  0.21933711780E+04  0.23285672618E+04  0.65864270000E+03 0.  1.
    8880022    1    1    2    0    0  0.24942972817E+03  0.33959236279E+03  0.10476260176E+04  0.11394955410E+04  0.15294330000E+03 0. -1.
<mgrwt>
<rscale>  0 0.68036009E+03</rscale>
<asrwt>0</asrwt>
<pdfrwt beam="1">  1        1 0.51608156E+00 0.78188770E+03</pdfrwt>
<pdfrwt beam="2">  1       -1 0.17466584E-01 0.78188770E+03</pdfrwt>
<totfact> 0.88565404E+00</totfact>
</mgrwt>
</event>
<event>
 4    2  0.3884658E-007  0.7569002E+03  0.7818608E-02  0.9813200E-01
         -1   -1    0    0    0  501 -0.00000000000E+00  0.00000000000E+00  0.19464227534E+04  0.19464227534E+04  0.50400000000E-02 0.  1.
          1   -1    0    0  501    0  0.00000000000E+00 -0.00000000000E+00 -0.24108573036E+03  0.24108573042E+03  0.50400000000E-02 0. -1.
    8880023    1    1    2    0    0  0.36093781197E+03 -0.93869883968E+02  0.47685988451E+03  0.89459108812E+03  0.65864270000E+03 0.  0.
    8880022    1    1    2    0    0 -0.36093781197E+03  0.93869883968E+02  0.12284771385E+04  0.12929173957E+04  0.15294330000E+03 0.  1.
<mgrwt>
<rscale>  0 0.64658959E+03</rscale>
<asrwt>0</asrwt>
<pdfrwt beam="1">  1        1 0.37090112E-01 0.75690017E+03</pdfrwt>
<pdfrwt beam="2">  1       -1 0.29944966E+00 0.75690017E+03</pdfrwt>
<totfact> 0.40579300E+00</totfact>
</mgrwt>
</event>
<event>
 4    2  0.3884658E-007  0.9845914E+03  0.7818608E-02  0.9402000E-01
          1   -1    0    0  501    0  0.00000000000E+00  0.00000000000E+00  0.10004468727E+04  0.10004468727E+04  0.50400000000E-02 0. -1.
         -1   -1    0    0    0  501 -0.00000000000E+00 -0.00000000000E+00 -0.84604501495E+03  0.84604501496E+03  0.50400000000E-02 0.  1.
    8880023    1    1    2    0    0 -0.27797739660E+03  0.67700713190E+03  0.39529291145E+03  0.10609791618E+04  0.65864270000E+03 0. -1.
    8880022    1    1    2    0    0  0.27797739660E+03 -0.67700713190E+03 -0.24089105374E+03  0.78551272584E+03  0.15294330000E+03 0.  0.
<mgrwt>
<rscale>  0 0.91911253E+03</rscale>
<asrwt>0</asrwt>
<pdfrwt beam="1">  1        1 0.15391490E+00 0.98459144E+03</pdfrwt>
<pdfrwt beam="2">  1       -1 0.13016077E+00 0.98459144E+03</pdfrwt>
<totfact> 0.76752164E+00</totfact>
</mgrwt>
</event>
<event>
 4    2  0.3884658E-007  0.6956332E+03  0.7818608E-02  0.1001582E+00
         -1   -1    0    0    0  501 -0.00000000000E+00  0.00000000000E+00  0.11579815323E+03  0.11579815334E+03  0.50400000000E-02 0.  1.
          1   -1    0    0  501    0  0.00000000000E+00 -0.00000000000E+00 -0.24290559362E+04  0.24290559362E+04  0.50400000000E-02 0. -1.
    8880023    1    1    2    0    0 -0.29830220324E+02  0.22182321478E+03 -0.20584477667E+04  0.21728121859E+04  0.65864270000E+03 0. -1.
    8880022    1    1    2    0    0  0.29830220324E+02 -0.22182321478E+03 -0.25481001623E+03  0.37204190361E+03  0.15294330000E+03 0.  0.
<mgrwt>
<rscale>  0 0.54961880E+03</rscale>
<asrwt>0</asrwt>
<pdfrwt beam="1">  1        1 0.37370087E+00 0.69563323E+03</pdfrwt>
<pdfrwt beam="2">  1       -1 0.17815102E-01 0.69563323E+03</pdfrwt>
<totfact> 0.39495208E+01</totfact>
</mgrwt>
</event>
<event>
 4    2  0.3884658E-007  0.1224485E+04  0.7818608E-02  0.9133681E-01
         -1   -1    0    0    0  501 -0.00000000000E+00  0.00000000000E+00  0.79195120027E+03  0.79195120028E+03  0.50400000000E-02 0.  1.
          1   -1    0    0  501    0  0.00000000000E+00 -0.00000000000E+00 -0.33105317396E+04  0.33105317396E+04  0.50400000000E-02 0. -1.
    8880023    1    1    2    0    0  0.84050381619E+03  0.59925572323E+03 -0.27704545599E+04  0.30289903865E+04  0.65864270000E+03 0.  0.
    8880022    1    1    2    0    0 -0.84050381619E+03 -0.59925572323E+03  0.25187402058E+03  0.10734925534E+04  0.15294330000E+03 0.  1.
<mgrwt>
<rscale>  0 0.11764974E+04</rscale>
<asrwt>0</asrwt>
<pdfrwt beam="1">  1        1 0.50931257E+00 0.12244853E+04</pdfrwt>
<pdfrwt beam="2">  1       -1 0.12183865E+00 0.12244853E+04</pdfrwt>
<totfact> 0.20808603E-01</totfact>
</mgrwt>
</event>
<event>
 4    2  0.3884658E-007  0.6752140E+03  0.7818608E-02  0.1012172E+00
          1   -1    0    0  501    0  0.00000000000E+00  0.00000000000E+00  0.12093531880E+04  0.12093531880E+04  0.50400000000E-02 0. -1.
         -1   -1    0    0    0  501 -0.00000000000E+00 -0.00000000000E+00 -0.22617831421E+03  0.22617831426E+03  0.50400000000E-02 0.  1.
    8880023    1    1    2    0    0  0.14262891262E+03  0.41960700076E+02  0.10158155118E+04  0.12197520516E+04  0.65864270000E+03 0. -1.
    8880022    1    1    2    0    0 -0.14262891262E+03 -0.41960700076E+02 -0.32640638025E+02  0.21577945067E+03  0.15294330000E+03 0.  0.
<mgrwt>
<rscale>  0 0.50620561E+03</rscale>
<asrwt>0</asrwt>
<pdfrwt beam="1">  1        1 0.18605434E+00 0.67521398E+03</pdfrwt>
<pdfrwt beam="2">  1       -1 0.34796663E-01 0.67521398E+03</pdfrwt>
<totfact> 0.84856345E+01</totfact>
</mgrwt>
</event>
<event>
 4    2  0.3884658E-007  0.8202261E+03  0.7818608E-02  0.9668657E-01
         -1   -1    0    0    0  501 -0.00000000000E+00  0.00000000000E+00  0.86031600123E+03  0.86031600125E+03  0.50400000000E-02 0.  1.
          1   -1    0    0  501    0  0.00000000000E+00 -0.00000000000E+00 -0.69501220662E+03  0.69501220664E+03  0.50400000000E-02 0. -1.
    8880023    1    1    2    0    0  0.26480236196E+03  0.41090182570E+03 -0.29003213689E+03  0.86999393558E+03  0.65864270000E+03 0.  0.
    8880022    1    1    2    0    0 -0.26480236196E+03 -0.41090182570E+03  0.45533593150E+03  0.68533427230E+03  0.15294330000E+03 0.  0.
<mgrwt>
<rscale>  0 0.72913975E+03</rscale>
<asrwt>0</asrwt>
<pdfrwt beam="1">  1        1 0.10692495E+00 0.82022607E+03</pdfrwt>
<pdfrwt beam="2">  1       -1 0.13235631E+00 0.82022607E+03</pdfrwt>
<totfact> 0.13618771E+01</totfact>
</mgrwt>
</event>
<event>
 4    2  0.3884658E-007  0.8285224E+03  0.7818608E-02  0.9652214E-01
         -1   -1    0    0    0  501 -0.00000000000E+00  0.00000000000E+00  0.50159062147E+03  0.50159062150E+03  0.50400000000E-02 0.  1.
          1   -1    0    0  501    0  0.00000000000E+00 -0.00000000000E+00 -0.20835070840E+04  0.20835070840E+04  0.50400000000E-02 0. -1.
    8880023    1    1    2    0    0 -0.42211942392E+03 -0.27286322042E+03  0.89226422252E+02  0.83331308990E+03  0.65864270000E+03 0.  1.
    8880022    1    1    2    0    0  0.42211942392E+03  0.27286322042E+03 -0.16711428848E+04  0.17517846156E+04  0.15294330000E+03 0.  0.
<mgrwt>
<rscale>  0 0.73934626E+03</rscale>
<asrwt>0</asrwt>
<pdfrwt beam="1">  1        1 0.32053955E+00 0.82852239E+03</pdfrwt>
<pdfrwt beam="2">  1       -1 0.77167789E-01 0.82852239E+03</pdfrwt>
<totfact> 0.45705282E+00</totfact>
</mgrwt>
</event>
<event>
 4    2  0.3884658E-007  0.6749429E+03  0.7818608E-02  0.1012342E+00
          1   -1    0    0  501    0  0.00000000000E+00  0.00000000000E+00  0.30577962647E+03  0.30577962651E+03  0.50400000000E-02 0. -1.
         -1   -1    0    0    0  501 -0.00000000000E+00 -0.00000000000E+00 -0.24988841244E+04  0.24988841244E+04  0.50400000000E-02 0.  1.
    8880023    1    1    2    0    0  0.14592972230E+03 -0.21027639060E+02 -0.78587958639E+02  0.67950269975E+03  0.65864270000E+03 0. -1.
    8880022    1    1    2    0    0 -0.14592972230E+03  0.21027639060E+02 -0.21145165393E+04  0.21251610511E+04  0.15294330000E+03 0.  0.
<mgrwt>
<rscale>  0 0.50554239E+03</rscale>
<asrwt>0</asrwt>
<pdfrwt beam="1">  1        1 0.47043021E-01 0.67494285E+03</pdfrwt>
<pdfrwt beam="2">  1       -1 0.38444370E+00 0.67494285E+03</pdfrwt>
<totfact> 0.84486089E-01</totfact>
</mgrwt>
</event>
<event>
 4    2  0.3884658E-007  0.7715721E+03  0.7818608E-02  0.9776020E-01
          1   -1    0    0  501    0  0.00000000000E+00  0.00000000000E+00  0.38074280215E+03  0.38074280218E+03  0.50400000000E-02 0. -1.
         -1   -1    0    0    0  501 -0.00000000000E+00 -0.00000000000E+00 -0.15973208653E+04  0.15973208653E+04  0.50400000000E-02 0.  1.
    8880023    1    1    2    0    0 -0.34462090619E+03 -0.20676011432E+03 -0.95639399116E+02  0.77747695450E+03  0.65864270000E+03 0. -1.
    8880022    1    1    2    0    0  0.34462090619E+03  0.20676011432E+03 -0.11209386640E+04  0.12005867130E+04  0.15294330000E+03 0.  0.
<mgrwt>
<rscale>  0 0.66665473E+03</rscale>
<asrwt>0</asrwt>
<pdfrwt beam="1">  1        1 0.58575816E-01 0.77157211E+03</pdfrwt>
<pdfrwt beam="2">  1       -1 0.24574167E+00 0.77157211E+03</pdfrwt>
<totfact> 0.49353362E+00</totfact>
</mgrwt>
</event>
<event>
 4    2  0.3884658E-007  0.6828260E+03  0.7818608E-02  0.1007768E+00
          1   -1    0    0  501    0  0.00000000000E+00  0.00000000000E+00  0.85651410734E+03  0.85651410736E+03  0.50400000000E-02 0. -1.
         -1   -1    0    0    0  501 -0.00000000000E+00 -0.00000000000E+00 -0.44826059017E+03  0.44826059020E+03  0.50400000000E-02 0.  1.
    8880023    1    1    2    0    0 -0.69086440588E+02 -0.16633753216E+03 -0.14952963805E+03  0.69900674517E+03  0.65864270000E+03 0.  1.
    8880022    1    1    2    0    0  0.69086440588E+02  0.16633753216E+03  0.55778315522E+03  0.60576795239E+03  0.15294330000E+03 0. -1.
<mgrwt>
<rscale>  0 0.52371338E+03</rscale>
<asrwt>0</asrwt>
<pdfrwt beam="1">  1        1 0.13177140E+00 0.68282598E+03</pdfrwt>
<pdfrwt beam="2">  1       -1 0.68963168E-01 0.68282598E+03</pdfrwt>
<totfact> 0.43381017E+01</totfact>
</mgrwt>
</event>
<event>
 4    2  0.3884658E-007  0.7125482E+03  0.7818608E-02  0.9948657E-01
          1   -1    0    0  501    0  0.00000000000E+00  0.00000000000E+00  0.34011791365E+03  0.34011791369E+03  0.50400000000E-02 0. -1.
         -1   -1    0    0    0  501 -0.00000000000E+00 -0.00000000000E+00 -0.77176159581E+03  0.77176159583E+03  0.50400000000E-02 0.  1.
    8880023    1    1    2    0    0 -0.22267464613E+03  0.15598329772E+03 -0.30997033936E+03  0.77704993710E+03  0.65864270000E+03 0.  1.
    8880022    1    1    2    0    0  0.22267464613E+03 -0.15598329772E+03 -0.12167334280E+03  0.33482957241E+03  0.15294330000E+03 0. -1.
<mgrwt>
<rscale>  0 0.57960003E+03</rscale>
<asrwt>0</asrwt>
<pdfrwt beam="1">  1        1 0.52325833E-01 0.71254824E+03</pdfrwt>
<pdfrwt beam="2">  1       -1 0.11873255E+00 0.71254824E+03</pdfrwt>
<totfact> 0.48374242E+01</totfact>
</mgrwt>
</event>
<event>
 4    2  0.3884658E-007  0.7321955E+03  0.7818608E-02  0.9883293E-01
          1   -1    0    0  501    0  0.00000000000E+00  0.00000000000E+00  0.24790516012E+04  0.24790516012E+04  0.50400000000E-02 0. -1.
         -1   -1    0    0    0  501 -0.00000000000E+00 -0.00000000000E+00 -0.15505945714E+03  0.15505945722E+03  0.50400000000E-02 0.  1.
    8880023    1    1    2    0    0 -0.31536479177E+03 -0.53339206754E+02  0.20763161915E+04  0.22016355639E+04  0.65864270000E+03 0.  0.
    8880022    1    1    2    0    0  0.31536479177E+03  0.53339206754E+02  0.24767595252E+03  0.43247549450E+03  0.15294330000E+03 0.  0.
<mgrwt>
<rscale>  0 0.61077830E+03</rscale>
<asrwt>0</asrwt>
<pdfrwt beam="1">  1        1 0.38139251E+00 0.73219549E+03</pdfrwt>
<pdfrwt beam="2">  1       -1 0.23855304E-01 0.73219549E+03</pdfrwt>
<totfact> 0.22308629E+01</totfact>
</mgrwt>
</event>
