<event>
 4    2  0.3903561E+000  0.2040893E+03  0.7546771E-02  0.1146334E+00
         21   -1    0    0  503  502  0.00000000000E+00  0.00000000000E+00  0.56211445474E+03  0.56211445474E+03  0.00000000000E+00 0.  1.
         21   -1    0    0  501  503 -0.00000000000E+00 -0.00000000000E+00 -0.15308085351E+03  0.15308085351E+03  0.00000000000E+00 0.  1.
          6    1    1    2  501    0 -0.88157006655E+02 -0.62863325100E+02 -0.52343057626E+02  0.21069468704E+03  0.17300000000E+03 0.  1.
         -6    1    1    2    0  502  0.88157006655E+02  0.62863325100E+02  0.46137665885E+03  0.50450062121E+03  0.17300000000E+03 0.  1.
<mgrwt>
<rscale>  2 0.20408933E+03</rscale>
<asrwt>0</asrwt>
<pdfrwt beam="1">  1       21 0.86479145E-01 0.20408933E+03</pdfrwt>
<pdfrwt beam="2">  1       21 0.23550901E-01 0.20408933E+03</pdfrwt>
<totfact> 0.19408815E+04</totfact>
</mgrwt>
</event>
<event>
 4    2  0.3903561E+000  0.1834612E+03  0.7546771E-02  0.1164495E+00
         21   -1    0    0  503  502  0.00000000000E+00  0.00000000000E+00  0.24081538639E+03  0.24081538639E+03  0.00000000000E+00 0. -1.
         21   -1    0    0  501  503 -0.00000000000E+00 -0.00000000000E+00 -0.15956897319E+03  0.15956897319E+03  0.00000000000E+00 0. -1.
          6    1    1    2  501    0 -0.58746593029E+02  0.16668414759E+02 -0.29899538017E+02  0.18588163066E+03  0.17300000000E+03 0. -1.
         -6    1    1    2    0  502  0.58746593029E+02 -0.16668414759E+02  0.11114595122E+03  0.21450272892E+03  0.17300000000E+03 0. -1.
<mgrwt>
<rscale>  2 0.18346116E+03</rscale>
<asrwt>0</asrwt>
<pdfrwt beam="1">  1       21 0.37048521E-01 0.18346116E+03</pdfrwt>
<pdfrwt beam="2">  1       21 0.24549073E-01 0.18346116E+03</pdfrwt>
<totfact> 0.11055352E+05</totfact>
</mgrwt>
</event>
<event>
 4    2  0.3903561E+000  0.2024865E+03  0.7546771E-02  0.1147658E+00
         21   -1    0    0  503  502  0.00000000000E+00  0.00000000000E+00  0.91290298611E+03  0.91290298611E+03  0.00000000000E+00 0.  1.
         21   -1    0    0  501  503 -0.00000000000E+00 -0.00000000000E+00 -0.46294283419E+02  0.46294283419E+02  0.00000000000E+00 0. -1.
          6    1    1    2  501    0  0.79535283307E+02 -0.68890745011E+02  0.51616097680E+03  0.55445734733E+03  0.17300000000E+03 0.  1.
         -6    1    1    2    0  502 -0.79535283307E+02  0.68890745011E+02  0.35044772589E+03  0.40473992220E+03  0.17300000000E+03 0. -1.
<mgrwt>
<rscale>  2 0.20248653E+03</rscale>
<asrwt>0</asrwt>
<pdfrwt beam="1">  1       21 0.14044660E+00 0.20248653E+03</pdfrwt>
<pdfrwt beam="2">  1       21 0.71221981E-02 0.20248653E+03</pdfrwt>
<totfact> 0.51820045E+04</totfact>
</mgrwt>
</event>
<event>
 4    2  0.3903561E+000  0.1814250E+03  0.7546771E-02  0.1166431E+00
         21   -1    0    0  501  502  0.00000000000E+00  0.00000000000E+00  0.55601643236E+03  0.55601643236E+03  0.00000000000E+00 0. -1.
         21   -1    0    0  502  503 -0.00000000000E+00 -0.00000000000E+00 -0.60045205204E+02  0.60045205204E+02  0.00000000000E+00 0. -1.
          6    1    1    2  501    0  0.16667376742E+02 -0.52040758174E+02  0.28457524030E+03  0.33748793956E+03  0.17300000000E+03 0. -1.
         -6    1    1    2    0  503 -0.16667376742E+02  0.52040758174E+02  0.21139598685E+03  0.27857369800E+03  0.17300000000E+03 0. -1.
<mgrwt>
<rscale>  2 0.18142503E+03</rscale>
<asrwt>0</asrwt>
<pdfrwt beam="1">  1       21 0.85540986E-01 0.18142503E+03</pdfrwt>
<pdfrwt beam="2">  1       21 0.92377243E-02 0.18142503E+03</pdfrwt>
<totfact> 0.11067587E+05</totfact>
</mgrwt>
</event>
<event>
 4    2  0.3903561E+000  0.2015398E+03  0.7546771E-02  0.1148446E+00
         21   -1    0    0  501  502  0.00000000000E+00  0.00000000000E+00  0.80143220495E+02  0.80143220495E+02  0.00000000000E+00 0. -1.
         21   -1    0    0  502  503 -0.00000000000E+00 -0.00000000000E+00 -0.51618099213E+03  0.51618099213E+03  0.00000000000E+00 0.  1.
          6    1    1    2  501    0  0.50965720157E+02 -0.89954364071E+02 -0.25816855045E+03  0.32751991189E+03  0.17300000000E+03 0.  1.
         -6    1    1    2    0  503 -0.50965720157E+02  0.89954364071E+02 -0.17786922119E+03  0.26880430074E+03  0.17300000000E+03 0. -1.
<mgrwt>
<rscale>  2 0.20153980E+03</rscale>
<asrwt>0</asrwt>
<pdfrwt beam="1">  1       21 0.12329726E-01 0.20153980E+03</pdfrwt>
<pdfrwt beam="2">  1       21 0.79412460E-01 0.20153980E+03</pdfrwt>
<totfact> 0.77864652E+04</totfact>
</mgrwt>
</event>
<event>
 4    2  0.3903561E+000  0.1821971E+03  0.7546771E-02  0.1165693E+00
         21   -1    0    0  503  502  0.00000000000E+00  0.00000000000E+00  0.64795076760E+03  0.64795076760E+03  0.00000000000E+00 0. -1.
         21   -1    0    0  501  503 -0.00000000000E+00 -0.00000000000E+00 -0.75605381558E+02  0.75605381558E+02  0.00000000000E+00 0. -1.
          6    1    1    2  501    0  0.29976068071E+02 -0.48664436931E+02  0.80761511990E+02  0.19929428968E+03  0.17300000000E+03 0. -1.
         -6    1    1    2    0  502 -0.29976068071E+02  0.48664436931E+02  0.49158387406E+03  0.52426185949E+03  0.17300000000E+03 0. -1.
<mgrwt>
<rscale>  2 0.18219712E+03</rscale>
<asrwt>0</asrwt>
<pdfrwt beam="1">  1       21 0.99684730E-01 0.18219712E+03</pdfrwt>
<pdfrwt beam="2">  1       21 0.11631598E-01 0.18219712E+03</pdfrwt>
<totfact> 0.51584545E+04</totfact>
</mgrwt>
</event>
<event>
 4    2  0.3903561E+000  0.1923548E+03  0.7546771E-02  0.1156354E+00
         21   -1    0    0  503  502  0.00000000000E+00  0.00000000000E+00  0.27915444920E+03  0.27915444920E+03  0.00000000000E+00 0. -1.
         21   -1    0    0  501  503 -0.00000000000E+00 -0.00000000000E+00 -0.15886345797E+03  0.15886345797E+03  0.00000000000E+00 0. -1.
          6    1    1    2  501    0 -0.77995946390E+01  0.83729003615E+02  0.14928791594E+03  0.24348975660E+03  0.17300000000E+03 0. -1.
         -6    1    1    2    0  502  0.77995946390E+01 -0.83729003615E+02 -0.28996924700E+02  0.19452815057E+03  0.17300000000E+03 0. -1.
<mgrwt>
<rscale>  2 0.19235483E+03</rscale>
<asrwt>0</asrwt>
<pdfrwt beam="1">  1       21 0.42946838E-01 0.19235483E+03</pdfrwt>
<pdfrwt beam="2">  1       21 0.24440532E-01 0.19235483E+03</pdfrwt>
<totfact> 0.82472717E+04</totfact>
</mgrwt>
</event>
<event>
 4    2  0.3903561E+000  0.3508242E+03  0.7546771E-02  0.1062277E+00
         21   -1    0    0  501  502  0.00000000000E+00  0.00000000000E+00  0.57866336219E+03  0.57866336219E+03  0.00000000000E+00 0. -1.
         21   -1    0    0  502  503 -0.00000000000E+00 -0.00000000000E+00 -0.23899342267E+03  0.23899342267E+03  0.00000000000E+00 0. -1.
          6    1    1    2  501    0  0.95989590082E+02 -0.28971474857E+03  0.30545679190E+03  0.46516823694E+03  0.17300000000E+03 0. -1.
         -6    1    1    2    0  503 -0.95989590082E+02  0.28971474857E+03  0.34213147626E+02  0.35248854792E+03  0.17300000000E+03 0. -1.
<mgrwt>
<rscale>  2 0.35082423E+03</rscale>
<asrwt>0</asrwt>
<pdfrwt beam="1">  1       21 0.89025132E-01 0.35082423E+03</pdfrwt>
<pdfrwt beam="2">  1       21 0.36768219E-01 0.35082423E+03</pdfrwt>
<totfact> 0.70434746E+03</totfact>
</mgrwt>
</event>
<event>
 4    2  0.3903561E+000  0.1783022E+03  0.7546771E-02  0.1169456E+00
         21   -1    0    0  501  502  0.00000000000E+00  0.00000000000E+00  0.54337885859E+03  0.54337885859E+03  0.00000000000E+00 0.  1.
         21   -1    0    0  502  503 -0.00000000000E+00 -0.00000000000E+00 -0.60722489662E+02  0.60722489662E+02  0.00000000000E+00 0.  1.
          6    1    1    2  501    0 -0.43129670671E+02  0.15784827620E+01  0.18363758749E+03  0.25595785520E+03  0.17300000000E+03 0.  1.
         -6    1    1    2    0  503  0.43129670671E+02 -0.15784827620E+01  0.29901878144E+03  0.34814349305E+03  0.17300000000E+03 0.  1.
<mgrwt>
<rscale>  2 0.17830216E+03</rscale>
<asrwt>0</asrwt>
<pdfrwt beam="1">  1       21 0.83596744E-01 0.17830216E+03</pdfrwt>
<pdfrwt beam="2">  1       21 0.93419218E-02 0.17830216E+03</pdfrwt>
<totfact> 0.11449976E+05</totfact>
</mgrwt>
</event>
<event>
 4    2  0.3903561E+000  0.1916143E+03  0.7546771E-02  0.1157013E+00
         21   -1    0    0  503  502  0.00000000000E+00  0.00000000000E+00  0.16977220195E+03  0.16977220195E+03  0.00000000000E+00 0.  1.
         21   -1    0    0  501  503 -0.00000000000E+00 -0.00000000000E+00 -0.27606144207E+03  0.27606144207E+03  0.00000000000E+00 0.  1.
          6    1    1    2  501    0  0.24644673749E+02 -0.78611015659E+02 -0.15689075806E+03  0.24765048292E+03  0.17300000000E+03 0.  1.
         -6    1    1    2    0  502 -0.24644673749E+02  0.78611015659E+02  0.50601517941E+02  0.19818316110E+03  0.17300000000E+03 0.  1.
<mgrwt>
<rscale>  2 0.19161433E+03</rscale>
<asrwt>0</asrwt>
<pdfrwt beam="1">  1       21 0.26118800E-01 0.19161433E+03</pdfrwt>
<pdfrwt beam="2">  1       21 0.42470991E-01 0.19161433E+03</pdfrwt>
<totfact> 0.74332770E+04</totfact>
</mgrwt>
</event>
<event>
 4    2  0.3903561E+000  0.2013948E+03  0.7546771E-02  0.1148568E+00
         21   -1    0    0  501  502  0.00000000000E+00  0.00000000000E+00  0.13810635744E+03  0.13810635744E+03  0.00000000000E+00 0. -1.
         21   -1    0    0  502  503 -0.00000000000E+00 -0.00000000000E+00 -0.47939567297E+03  0.47939567297E+03  0.00000000000E+00 0. -1.
          6    1    1    2  501    0  0.10310003698E+03  0.11086756324E+01  0.21522463276E+02  0.20254150985E+03  0.17300000000E+03 0. -1.
         -6    1    1    2    0  503 -0.10310003698E+03 -0.11086756324E+01 -0.36281177880E+03  0.41496052056E+03  0.17300000000E+03 0. -1.
<mgrwt>
<rscale>  2 0.20139475E+03</rscale>
<asrwt>0</asrwt>
<pdfrwt beam="1">  1       21 0.21247131E-01 0.20139475E+03</pdfrwt>
<pdfrwt beam="2">  1       21 0.73753182E-01 0.20139475E+03</pdfrwt>
<totfact> 0.33855160E+04</totfact>
</mgrwt>
</event>
<event>
 4    2  0.3903561E+000  0.1855494E+03  0.7546771E-02  0.1162538E+00
         21   -1    0    0  503  502  0.00000000000E+00  0.00000000000E+00  0.23277554958E+03  0.23277554958E+03  0.00000000000E+00 0.  1.
         21   -1    0    0  501  503 -0.00000000000E+00 -0.00000000000E+00 -0.15453152922E+03  0.15453152922E+03  0.00000000000E+00 0.  1.
          6    1    1    2  501    0 -0.18061292393E+02  0.64601530642E+02 -0.98072271315E+00  0.18555196000E+03  0.17300000000E+03 0.  1.
         -6    1    1    2    0  502  0.18061292393E+02 -0.64601530642E+02  0.79224743072E+02  0.20175511879E+03  0.17300000000E+03 0.  1.
<mgrwt>
<rscale>  2 0.18554937E+03</rscale>
<asrwt>0</asrwt>
<pdfrwt beam="1">  1       21 0.35811623E-01 0.18554937E+03</pdfrwt>
<pdfrwt beam="2">  1       21 0.23774081E-01 0.18554937E+03</pdfrwt>
<totfact> 0.12563567E+05</totfact>
</mgrwt>
</event>
<event>
 4    2  0.3903561E+000  0.1982384E+03  0.7546771E-02  0.1151234E+00
         21   -1    0    0  503  502  0.00000000000E+00  0.00000000000E+00  0.28244288197E+03  0.28244288197E+03  0.00000000000E+00 0.  1.
         21   -1    0    0  501  503 -0.00000000000E+00 -0.00000000000E+00 -0.14441663773E+03  0.14441663773E+03  0.00000000000E+00 0.  1.
          6    1    1    2  501    0 -0.80479328755E+02 -0.53782305307E+02  0.28207613616E+02  0.20023518219E+03  0.17300000000E+03 0. -1.
         -6    1    1    2    0  502  0.80479328755E+02  0.53782305307E+02  0.10981863063E+03  0.22662433751E+03  0.17300000000E+03 0. -1.
<mgrwt>
<rscale>  2 0.19823839E+03</rscale>
<asrwt>0</asrwt>
<pdfrwt beam="1">  1       21 0.43452751E-01 0.19823839E+03</pdfrwt>
<pdfrwt beam="2">  1       21 0.22217944E-01 0.19823839E+03</pdfrwt>
<totfact> 0.96239394E+04</totfact>
</mgrwt>
</event>
<event>
 4    2  0.3903561E+000  0.1763931E+03  0.7546771E-02  0.1171340E+00
         21   -1    0    0  501  502  0.00000000000E+00  0.00000000000E+00  0.55798672161E+03  0.55798672161E+03  0.00000000000E+00 0. -1.
         21   -1    0    0  502  503 -0.00000000000E+00 -0.00000000000E+00 -0.27343025435E+03  0.27343025435E+03  0.00000000000E+00 0. -1.
          6    1    1    2  501    0  0.23191724642E+02 -0.25449565513E+02  0.51318350989E+03  0.54265260646E+03  0.17300000000E+03 0. -1.
         -6    1    1    2    0  503 -0.23191724642E+02  0.25449565513E+02 -0.22862704262E+03  0.28876436950E+03  0.17300000000E+03 0. -1.
<mgrwt>
<rscale>  2 0.17639313E+03</rscale>
<asrwt>0</asrwt>
<pdfrwt beam="1">  1       21 0.85844111E-01 0.17639313E+03</pdfrwt>
<pdfrwt beam="2">  1       21 0.42066193E-01 0.17639313E+03</pdfrwt>
<totfact> 0.64513665E+03</totfact>
</mgrwt>
</event>
<event>
 4    2  0.3903561E+000  0.2098532E+03  0.7546771E-02  0.1141682E+00
         21   -1    0    0  503  502  0.00000000000E+00  0.00000000000E+00  0.47362259161E+02  0.47362259161E+02  0.00000000000E+00 0. -1.
         21   -1    0    0  501  503 -0.00000000000E+00 -0.00000000000E+00 -0.98066408624E+03  0.98066408624E+03  0.00000000000E+00 0. -1.
          6    1    1    2  501    0 -0.38710445615E+02 -0.11229819700E+03 -0.58369072948E+03  0.62026869285E+03  0.17300000000E+03 0.  1.
         -6    1    1    2    0  502  0.38710445615E+02  0.11229819700E+03 -0.34961109759E+03  0.40775765255E+03  0.17300000000E+03 0.  1.
<mgrwt>
<rscale>  2 0.20985324E+03</rscale>
<asrwt>0</asrwt>
<pdfrwt beam="1">  1       21 0.72865014E-02 0.20985324E+03</pdfrwt>
<pdfrwt beam="2">  1       21 0.15087140E+00 0.20985324E+03</pdfrwt>
<totfact> 0.41128658E+04</totfact>
</mgrwt>
</event>
<event>
 4    2  0.3903561E+000  0.2161281E+03  0.7546771E-02  0.1136803E+00
         21   -1    0    0  503  502  0.00000000000E+00  0.00000000000E+00  0.17367645440E+03  0.17367645440E+03  0.00000000000E+00 0. -1.
         21   -1    0    0  501  503 -0.00000000000E+00 -0.00000000000E+00 -0.46101947412E+03  0.46101947412E+03  0.00000000000E+00 0.  1.
          6    1    1    2  501    0  0.10859517865E+02 -0.12909074934E+03 -0.34850374340E+03  0.41008073578E+03  0.17300000000E+03 0.  1.
         -6    1    1    2    0  502 -0.10859517865E+02  0.12909074934E+03  0.61160723682E+02  0.22461519275E+03  0.17300000000E+03 0. -1.
<mgrwt>
<rscale>  2 0.21612809E+03</rscale>
<asrwt>0</asrwt>
<pdfrwt beam="1">  1       21 0.26719455E-01 0.21612809E+03</pdfrwt>
<pdfrwt beam="2">  1       21 0.70926072E-01 0.21612809E+03</pdfrwt>
<totfact> 0.23681183E+04</totfact>
</mgrwt>
</event>
<event>
 4    2  0.3903561E+000  0.2752965E+03  0.7546771E-02  0.1098286E+00
         21   -1    0    0  501  502  0.00000000000E+00  0.00000000000E+00  0.10581991217E+04  0.10581991217E+04  0.00000000000E+00 0. -1.
         21   -1    0    0  502  503 -0.00000000000E+00 -0.00000000000E+00 -0.13547179034E+03  0.13547179034E+03  0.00000000000E+00 0.  1.
          6    1    1    2  501    0 -0.13481362213E+03  0.16638643455E+03  0.51615591252E+02  0.28009342651E+03  0.17300000000E+03 0.  1.
         -6    1    1    2    0  503  0.13481362213E+03 -0.16638643455E+03  0.87111174008E+03  0.91357748551E+03  0.17300000000E+03 0. -1.
<mgrwt>
<rscale>  2 0.27529649E+03</rscale>
<asrwt>0</asrwt>
<pdfrwt beam="1">  1       21 0.16279986E+00 0.27529649E+03</pdfrwt>
<pdfrwt beam="2">  1       21 0.20841815E-01 0.27529649E+03</pdfrwt>
<totfact> 0.48288139E+03</totfact>
</mgrwt>
</event>
<event>
 4    2  0.3903561E+000  0.1788955E+03  0.7546771E-02  0.1168876E+00
         21   -1    0    0  503  502  0.00000000000E+00  0.00000000000E+00  0.99291596000E+02  0.99291596000E+02  0.00000000000E+00 0.  1.
         21   -1    0    0  501  503 -0.00000000000E+00 -0.00000000000E+00 -0.45518644803E+03  0.45518644803E+03  0.00000000000E+00 0.  1.
          6    1    1    2  501    0  0.42689566310E+02  0.15880718005E+02 -0.32773249598E+03  0.37337941186E+03  0.17300000000E+03 0.  1.
         -6    1    1    2    0  502 -0.42689566310E+02 -0.15880718005E+02 -0.28162356045E+02  0.18109863217E+03  0.17300000000E+03 0.  1.
<mgrwt>
<rscale>  2 0.17889549E+03</rscale>
<asrwt>0</asrwt>
<pdfrwt beam="1">  1       21 0.15275630E-01 0.17889549E+03</pdfrwt>
<pdfrwt beam="2">  1       21 0.70028686E-01 0.17889549E+03</pdfrwt>
<totfact> 0.70671597E+04</totfact>
</mgrwt>
</event>
<event>
 4    2  0.3903561E+000  0.1842769E+03  0.7546771E-02  0.1163727E+00
         21   -1    0    0  501  502  0.00000000000E+00  0.00000000000E+00  0.42998168085E+03  0.42998168085E+03  0.00000000000E+00 0. -1.
         21   -1    0    0  502  503 -0.00000000000E+00 -0.00000000000E+00 -0.11453359604E+03  0.11453359604E+03  0.00000000000E+00 0. -1.
          6    1    1    2  501    0 -0.57460761782E+02 -0.26967457066E+02  0.30942327235E+03  0.36013989554E+03  0.17300000000E+03 0. -1.
         -6    1    1    2    0  503  0.57460761782E+02  0.26967457066E+02  0.60248124685E+01  0.18437538136E+03  0.17300000000E+03 0. -1.
<mgrwt>
<rscale>  2 0.18427692E+03</rscale>
<asrwt>0</asrwt>
<pdfrwt beam="1">  1       21 0.66151027E-01 0.18427692E+03</pdfrwt>
<pdfrwt beam="2">  1       21 0.17620553E-01 0.18427692E+03</pdfrwt>
<totfact> 0.61487541E+04</totfact>
</mgrwt>
</event>
<event>
 4    2  0.3903561E+000  0.2309364E+03  0.7546771E-02  0.1125982E+00
         21   -1    0    0  503  502  0.00000000000E+00  0.00000000000E+00  0.76555214120E+03  0.76555214120E+03  0.00000000000E+00 0. -1.
         21   -1    0    0  501  503 -0.00000000000E+00 -0.00000000000E+00 -0.88753884013E+02  0.88753884013E+02  0.00000000000E+00 0. -1.
          6    1    1    2  501    0 -0.66110558599E+02 -0.13795659214E+03  0.53650092776E+03  0.58409320554E+03  0.17300000000E+03 0. -1.
         -6    1    1    2    0  502  0.66110558599E+02  0.13795659214E+03  0.14029732944E+03  0.27021281968E+03  0.17300000000E+03 0. -1.
<mgrwt>
<rscale>  2 0.23093641E+03</rscale>
<asrwt>0</asrwt>
<pdfrwt beam="1">  1       21 0.11777725E+00 0.23093641E+03</pdfrwt>
<pdfrwt beam="2">  1       21 0.13654444E-01 0.23093641E+03</pdfrwt>
<totfact> 0.25165743E+04</totfact>
</mgrwt>
</event>
<event>
 4    2  0.3903561E+000  0.4885142E+03  0.7546771E-02  0.1016821E+00
         21   -1    0    0  503  502  0.00000000000E+00  0.00000000000E+00  0.10244463851E+04  0.10244463851E+04  0.00000000000E+00 0. -1.
         21   -1    0    0  501  503 -0.00000000000E+00 -0.00000000000E+00 -0.31873992915E+03  0.31873992915E+03  0.00000000000E+00 0.  1.
          6    1    1    2  501    0  0.29004769143E+03  0.35297231467E+03  0.70127307690E+03  0.85465200322E+03  0.17300000000E+03 0.  1.
         -6    1    1    2    0  502 -0.29004769143E+03 -0.35297231467E+03  0.44333790735E+01  0.48853431106E+03  0.17300000000E+03 0. -1.
<mgrwt>
<rscale>  2 0.48851419E+03</rscale>
<asrwt>0</asrwt>
<pdfrwt beam="1">  1       21 0.15760713E+00 0.48851419E+03</pdfrwt>
<pdfrwt beam="2">  1       21 0.49036913E-01 0.48851419E+03</pdfrwt>
<totfact> 0.86062813E+02</totfact>
</mgrwt>
</event>
<event>
 4    2  0.3903561E+000  0.1883324E+03  0.7546771E-02  0.1159974E+00
         21   -1    0    0  503  502  0.00000000000E+00  0.00000000000E+00  0.53768512200E+03  0.53768512200E+03  0.00000000000E+00 0.  1.
         21   -1    0    0  501  503 -0.00000000000E+00 -0.00000000000E+00 -0.72324580289E+02  0.72324580289E+02  0.00000000000E+00 0.  1.
          6    1    1    2  501    0  0.72885426514E+02 -0.15093146593E+02  0.14224575259E+03  0.23601470845E+03  0.17300000000E+03 0.  1.
         -6    1    1    2    0  502 -0.72885426514E+02  0.15093146593E+02  0.32311478912E+03  0.37399499385E+03  0.17300000000E+03 0.  1.
<mgrwt>
<rscale>  2 0.18833239E+03</rscale>
<asrwt>0</asrwt>
<pdfrwt beam="1">  1       21 0.82720785E-01 0.18833239E+03</pdfrwt>
<pdfrwt beam="2">  1       21 0.11126859E-01 0.18833239E+03</pdfrwt>
<totfact> 0.85763745E+04</totfact>
</mgrwt>
</event>
<event>
 4    2  0.3903561E+000  0.2202712E+03  0.7546771E-02  0.1133681E+00
         21   -1    0    0  501  502  0.00000000000E+00  0.00000000000E+00  0.49633676168E+03  0.49633676168E+03  0.00000000000E+00 0. -1.
         21   -1    0    0  502  503 -0.00000000000E+00 -0.00000000000E+00 -0.13994011127E+03  0.13994011127E+03  0.00000000000E+00 0.  1.
          6    1    1    2  501    0 -0.80270256863E+02  0.11021385538E+03  0.35287083171E+03  0.41597744160E+03  0.17300000000E+03 0. -1.
         -6    1    1    2    0  503  0.80270256863E+02 -0.11021385538E+03  0.35258186970E+01  0.22029943135E+03  0.17300000000E+03 0.  1.
<mgrwt>
<rscale>  2 0.22027121E+03</rscale>
<asrwt>0</asrwt>
<pdfrwt beam="1">  1       21 0.76359501E-01 0.22027121E+03</pdfrwt>
<pdfrwt beam="2">  1       21 0.21529248E-01 0.22027121E+03</pdfrwt>
<totfact> 0.30252247E+04</totfact>
</mgrwt>
</event>
<event>
 4    2  0.3903561E+000  0.2673571E+03  0.7546771E-02  0.1102802E+00
         21   -1    0    0  501  502  0.00000000000E+00  0.00000000000E+00  0.19874924701E+03  0.19874924701E+03  0.00000000000E+00 0.  1.
         21   -1    0    0  502  503 -0.00000000000E+00 -0.00000000000E+00 -0.36136477394E+03  0.36136477394E+03  0.00000000000E+00 0. -1.
          6    1    1    2  501    0  0.48359006221E+02  0.19802074445E+03 -0.62005646668E+02  0.27445310881E+03  0.17300000000E+03 0. -1.
         -6    1    1    2    0  503 -0.48359006221E+02 -0.19802074445E+03 -0.10060988026E+03  0.28566091214E+03  0.17300000000E+03 0. -1.
<mgrwt>
<rscale>  2 0.26735708E+03</rscale>
<asrwt>0</asrwt>
<pdfrwt beam="1">  1       21 0.30576807E-01 0.26735708E+03</pdfrwt>
<pdfrwt beam="2">  1       21 0.55594580E-01 0.26735708E+03</pdfrwt>
<totfact> 0.30196209E+04</totfact>
</mgrwt>
</event>
<event>
 4    2  0.3903561E+000  0.1807049E+03  0.7546771E-02  0.1167123E+00
         21   -1    0    0  503  502  0.00000000000E+00  0.00000000000E+00  0.56594452658E+02  0.56594452658E+02  0.00000000000E+00 0. -1.
         21   -1    0    0  501  503 -0.00000000000E+00 -0.00000000000E+00 -0.10496647004E+04  0.10496647004E+04  0.00000000000E+00 0. -1.
          6    1    1    2  501    0 -0.49518558894E+02 -0.16527795293E+02 -0.86771481425E+03  0.88633134581E+03  0.17300000000E+03 0.  1.
         -6    1    1    2    0  502  0.49518558894E+02  0.16527795293E+02 -0.12535543347E+03  0.21992780723E+03  0.17300000000E+03 0.  1.
<mgrwt>
<rscale>  2 0.18070489E+03</rscale>
<asrwt>0</asrwt>
<pdfrwt beam="1">  1       21 0.87068387E-02 0.18070489E+03</pdfrwt>
<pdfrwt beam="2">  1       21 0.16148688E+00 0.18070489E+03</pdfrwt>
<totfact> 0.25614449E+04</totfact>
</mgrwt>
</event>
<event>
 4    2  0.3903561E+000  0.2121492E+03  0.7546771E-02  0.1139875E+00
         21   -1    0    0  501  502  0.00000000000E+00  0.00000000000E+00  0.40478276843E+03  0.40478276843E+03  0.00000000000E+00 0. -1.
         21   -1    0    0  502  503 -0.00000000000E+00 -0.00000000000E+00 -0.25785689095E+03  0.25785689095E+03  0.00000000000E+00 0. -1.
          6    1    1    2  501    0  0.50988975764E+02  0.11170683041E+03  0.32333974493E+03  0.38672455606E+03  0.17300000000E+03 0. -1.
         -6    1    1    2    0  503 -0.50988975764E+02 -0.11170683041E+03 -0.17641386746E+03  0.27591510332E+03  0.17300000000E+03 0. -1.
<mgrwt>
<rscale>  2 0.21214922E+03</rscale>
<asrwt>0</asrwt>
<pdfrwt beam="1">  1       21 0.62274272E-01 0.21214922E+03</pdfrwt>
<pdfrwt beam="2">  1       21 0.39670291E-01 0.21214922E+03</pdfrwt>
<totfact> 0.14469471E+04</totfact>
</mgrwt>
</event>
<event>
 4    2  0.3903561E+000  0.2557266E+03  0.7546771E-02  0.1109738E+00
         21   -1    0    0  501  502  0.00000000000E+00  0.00000000000E+00  0.16781438672E+03  0.16781438672E+03  0.00000000000E+00 0.  1.
         21   -1    0    0  502  503 -0.00000000000E+00 -0.00000000000E+00 -0.69514249477E+03  0.69514249477E+03  0.00000000000E+00 0.  1.
          6    1    1    2  501    0  0.15896573630E+03 -0.10098004947E+03  0.22353017247E+02  0.25670164216E+03  0.17300000000E+03 0.  1.
         -6    1    1    2    0  503 -0.15896573630E+03  0.10098004947E+03 -0.54968112530E+03  0.60625523933E+03  0.17300000000E+03 0.  1.
<mgrwt>
<rscale>  2 0.25572656E+03</rscale>
<asrwt>0</asrwt>
<pdfrwt beam="1">  1       21 0.25817598E-01 0.25572656E+03</pdfrwt>
<pdfrwt beam="2">  1       21 0.10694500E+00 0.25572656E+03</pdfrwt>
<totfact> 0.95630484E+03</totfact>
</mgrwt>
</event>
<event>
 4    2  0.3903561E+000  0.2453370E+03  0.7546771E-02  0.1116288E+00
         21   -1    0    0  501  502  0.00000000000E+00  0.00000000000E+00  0.22799489542E+03  0.22799489542E+03  0.00000000000E+00 0.  1.
         21   -1    0    0  502  503 -0.00000000000E+00 -0.00000000000E+00 -0.59739565278E+03  0.59739565278E+03  0.00000000000E+00 0. -1.
          6    1    1    2  501    0 -0.16119760632E+03  0.65395547449E+02  0.12360393001E+03  0.27471472007E+03  0.17300000000E+03 0.  1.
         -6    1    1    2    0  503  0.16119760632E+03 -0.65395547449E+02 -0.49300468737E+03  0.55067582812E+03  0.17300000000E+03 0. -1.
<mgrwt>
<rscale>  2 0.24533700E+03</rscale>
<asrwt>0</asrwt>
<pdfrwt beam="1">  1       21 0.35076138E-01 0.24533700E+03</pdfrwt>
<pdfrwt beam="2">  1       21 0.91907024E-01 0.24533700E+03</pdfrwt>
<totfact> 0.75688942E+03</totfact>
</mgrwt>
</event>
<event>
 4    2  0.3903561E+000  0.1893505E+03  0.7546771E-02  0.1159048E+00
         21   -1    0    0  503  502  0.00000000000E+00  0.00000000000E+00  0.31981188774E+03  0.31981188774E+03  0.00000000000E+00 0. -1.
         21   -1    0    0  501  503 -0.00000000000E+00 -0.00000000000E+00 -0.12233134086E+03  0.12233134086E+03  0.00000000000E+00 0.  1.
          6    1    1    2  501    0  0.49492760498E+02 -0.58949665600E+02  0.34832716925E+02  0.19252769823E+03  0.17300000000E+03 0.  1.
         -6    1    1    2    0  502 -0.49492760498E+02  0.58949665600E+02  0.16264782995E+03  0.24961553038E+03  0.17300000000E+03 0. -1.
<mgrwt>
<rscale>  2 0.18935046E+03</rscale>
<asrwt>0</asrwt>
<pdfrwt beam="1">  1       21 0.49201829E-01 0.18935046E+03</pdfrwt>
<pdfrwt beam="2">  1       21 0.18820206E-01 0.18935046E+03</pdfrwt>
<totfact> 0.10198891E+05</totfact>
</mgrwt>
</event>
<event>
 4    2  0.3903561E+000  0.1835752E+03  0.7546771E-02  0.1164387E+00
         21   -1    0    0  501  502  0.00000000000E+00  0.00000000000E+00  0.29446930714E+02  0.29446930714E+02  0.00000000000E+00 0.  1.
         21   -1    0    0  502  503 -0.00000000000E+00 -0.00000000000E+00 -0.22680634352E+04  0.22680634352E+04  0.00000000000E+00 0.  1.
          6    1    1    2  501    0 -0.60389689772E+02 -0.11132727769E+02 -0.31074712226E+03  0.36092052623E+03  0.17300000000E+03 0.  1.
         -6    1    1    2    0  503  0.60389689772E+02  0.11132727769E+02 -0.19278693822E+04  0.19365898397E+04  0.17300000000E+03 0.  1.
<mgrwt>
<rscale>  2 0.18357520E+03</rscale>
<asrwt>0</asrwt>
<pdfrwt beam="1">  1       21 0.45302971E-02 0.18357520E+03</pdfrwt>
<pdfrwt beam="2">  1       21 0.34893283E+00 0.18357520E+03</pdfrwt>
<totfact> 0.57055897E+03</totfact>
</mgrwt>
</event>
<event>
 4    2  0.3903561E+000  0.2131718E+03  0.7546771E-02  0.1139079E+00
         21   -1    0    0  501  502  0.00000000000E+00  0.00000000000E+00  0.15686379498E+03  0.15686379498E+03  0.00000000000E+00 0. -1.
         21   -1    0    0  502  503 -0.00000000000E+00 -0.00000000000E+00 -0.48352452299E+03  0.48352452299E+03  0.00000000000E+00 0. -1.
          6    1    1    2  501    0 -0.12411611958E+03  0.10412139252E+02  0.39399258028E+02  0.21678220711E+03  0.17300000000E+03 0. -1.
         -6    1    1    2    0  503  0.12411611958E+03 -0.10412139252E+02 -0.36605998603E+03  0.42360611086E+03  0.17300000000E+03 0. -1.
<mgrwt>
<rscale>  2 0.21317182E+03</rscale>
<asrwt>0</asrwt>
<pdfrwt beam="1">  1       21 0.24132892E-01 0.21317182E+03</pdfrwt>
<pdfrwt beam="2">  1       21 0.74388387E-01 0.21317182E+03</pdfrwt>
<totfact> 0.25930002E+04</totfact>
</mgrwt>
</event>
<event>
 4    2  0.3903561E+000  0.1744548E+03  0.7546771E-02  0.1173280E+00
         21   -1    0    0  503  502  0.00000000000E+00  0.00000000000E+00  0.15897123913E+02  0.15897123913E+02  0.00000000000E+00 0.  1.
         21   -1    0    0  501  503 -0.00000000000E+00 -0.00000000000E+00 -0.19709244188E+04  0.19709244188E+04  0.00000000000E+00 0.  1.
          6    1    1    2  501    0 -0.22481851231E+02  0.22686767368E+00 -0.11456503866E+04  0.11588568908E+04  0.17300000000E+03 0.  1.
         -6    1    1    2    0  502  0.22481851231E+02 -0.22686767368E+00 -0.80937690835E+03  0.82796465195E+03  0.17300000000E+03 0.  1.
<mgrwt>
<rscale>  2 0.17445482E+03</rscale>
<asrwt>0</asrwt>
<pdfrwt beam="1">  1       21 0.24457115E-02 0.17445482E+03</pdfrwt>
<pdfrwt beam="2">  1       21 0.30321912E+00 0.17445482E+03</pdfrwt>
<totfact> 0.29513333E+04</totfact>
</mgrwt>
</event>
<event>
 4    2  0.3903561E+000  0.2510369E+03  0.7546771E-02  0.1112651E+00
         21   -1    0    0  501  502  0.00000000000E+00  0.00000000000E+00  0.53102084351E+03  0.53102084351E+03  0.00000000000E+00 0.  1.
         21   -1    0    0  502  503 -0.00000000000E+00 -0.00000000000E+00 -0.16287210393E+03  0.16287210393E+03  0.00000000000E+00 0.  1.
          6    1    1    2  501    0  0.10385050116E+03 -0.14935050632E+03  0.36480445920E+03  0.44283382186E+03  0.17300000000E+03 0.  1.
         -6    1    1    2    0  503 -0.10385050116E+03  0.14935050632E+03  0.33442803815E+01  0.25105912559E+03  0.17300000000E+03 0.  1.
<mgrwt>
<rscale>  2 0.25103685E+03</rscale>
<asrwt>0</asrwt>
<pdfrwt beam="1">  1       21 0.81695514E-01 0.25103685E+03</pdfrwt>
<pdfrwt beam="2">  1       21 0.25057247E-01 0.25103685E+03</pdfrwt>
<totfact> 0.19146690E+04</totfact>
</mgrwt>
</event>
<event>
 4    2  0.3903561E+000  0.2254385E+03  0.7546771E-02  0.1129892E+00
         21   -1    0    0  501  502  0.00000000000E+00  0.00000000000E+00  0.14002550372E+03  0.14002550372E+03  0.00000000000E+00 0. -1.
         21   -1    0    0  502  503 -0.00000000000E+00 -0.00000000000E+00 -0.36339862477E+03  0.36339862477E+03  0.00000000000E+00 0.  1.
          6    1    1    2  501    0 -0.14407934733E+03 -0.11604869261E+02 -0.10286181426E+03  0.24779645710E+03  0.17300000000E+03 0. -1.
         -6    1    1    2    0  503  0.14407934733E+03  0.11604869261E+02 -0.12051130678E+03  0.25562767139E+03  0.17300000000E+03 0. -1.
<mgrwt>
<rscale>  2 0.22543853E+03</rscale>
<asrwt>0</asrwt>
<pdfrwt beam="1">  1       21 0.21542385E-01 0.22543853E+03</pdfrwt>
<pdfrwt beam="2">  1       21 0.55907480E-01 0.22543853E+03</pdfrwt>
<totfact> 0.59619607E+04</totfact>
</mgrwt>
</event>
<event>
 4    2  0.3903561E+000  0.3546985E+03  0.7546771E-02  0.1060703E+00
         21   -1    0    0  501  502  0.00000000000E+00  0.00000000000E+00  0.13960408760E+03  0.13960408760E+03  0.00000000000E+00 0.  1.
         21   -1    0    0  502  503 -0.00000000000E+00 -0.00000000000E+00 -0.11753758862E+04  0.11753758862E+04  0.00000000000E+00 0. -1.
          6    1    1    2  501    0  0.25543421158E+03 -0.17502960544E+03 -0.20033266300E+03  0.40736246157E+03  0.17300000000E+03 0.  1.
         -6    1    1    2    0  503 -0.25543421158E+03  0.17502960544E+03 -0.83543913555E+03  0.90761751219E+03  0.17300000000E+03 0. -1.
<mgrwt>
<rscale>  2 0.35469846E+03</rscale>
<asrwt>0</asrwt>
<pdfrwt beam="1">  1       21 0.21477553E-01 0.35469846E+03</pdfrwt>
<pdfrwt beam="2">  1       21 0.18082705E+00 0.35469846E+03</pdfrwt>
<totfact> 0.32443583E+03</totfact>
</mgrwt>
</event>
<event>
 4    2  0.3903561E+000  0.1824367E+03  0.7546771E-02  0.1165465E+00
         21   -1    0    0  503  502  0.00000000000E+00  0.00000000000E+00  0.61841487477E+03  0.61841487477E+03  0.00000000000E+00 0. -1.
         21   -1    0    0  501  503 -0.00000000000E+00 -0.00000000000E+00 -0.60411972106E+02  0.60411972106E+02  0.00000000000E+00 0. -1.
          6    1    1    2  501    0 -0.33771628375E+02  0.47049068510E+02  0.16688416725E+03  0.24725182105E+03  0.17300000000E+03 0. -1.
         -6    1    1    2    0  502  0.33771628375E+02 -0.47049068510E+02  0.39111873541E+03  0.43157502583E+03  0.17300000000E+03 0. -1.
<mgrwt>
<rscale>  2 0.18243667E+03</rscale>
<asrwt>0</asrwt>
<pdfrwt beam="1">  1       21 0.95140745E-01 0.18243667E+03</pdfrwt>
<pdfrwt beam="2">  1       21 0.92941500E-02 0.18243667E+03</pdfrwt>
<totfact> 0.85593370E+04</totfact>
</mgrwt>
</event>
<event>
 4    2  0.3903561E+000  0.1761137E+03  0.7546771E-02  0.1171618E+00
         21   -1    0    0  501  502  0.00000000000E+00  0.00000000000E+00  0.99854111266E+02  0.99854111266E+02  0.00000000000E+00 0. -1.
         21   -1    0    0  502  503 -0.00000000000E+00 -0.00000000000E+00 -0.41654115597E+03  0.41654115597E+03  0.00000000000E+00 0. -1.
          6    1    1    2  501    0  0.31504899998E+02  0.97200722666E+01 -0.28138448849E+02  0.17834744414E+03  0.17300000000E+03 0. -1.
         -6    1    1    2    0  503 -0.31504899998E+02 -0.97200722666E+01 -0.28854859586E+03  0.33804782310E+03  0.17300000000E+03 0. -1.
<mgrwt>
<rscale>  2 0.17611371E+03</rscale>
<asrwt>0</asrwt>
<pdfrwt beam="1">  1       21 0.15362171E-01 0.17611371E+03</pdfrwt>
<pdfrwt beam="2">  1       21 0.64083255E-01 0.17611371E+03</pdfrwt>
<totfact> 0.84999849E+04</totfact>
</mgrwt>
</event>
<event>
 4    2  0.3903561E+000  0.2562877E+03  0.7546771E-02  0.1109394E+00
         21   -1    0    0  503  502  0.00000000000E+00  0.00000000000E+00  0.56484688202E+03  0.56484688202E+03  0.00000000000E+00 0. -1.
         21   -1    0    0  501  503 -0.00000000000E+00 -0.00000000000E+00 -0.19682500403E+03  0.19682500403E+03  0.00000000000E+00 0. -1.
          6    1    1    2  501    0 -0.18636789354E+03  0.31959019120E+02 -0.59603428849E+02  0.26312723039E+03  0.17300000000E+03 0. -1.
         -6    1    1    2    0  502  0.18636789354E+03 -0.31959019120E+02  0.42762530684E+03  0.49854465566E+03  0.17300000000E+03 0. -1.
<mgrwt>
<rscale>  2 0.25628767E+03</rscale>
<asrwt>0</asrwt>
<pdfrwt beam="1">  1       21 0.86899519E-01 0.25628767E+03</pdfrwt>
<pdfrwt beam="2">  1       21 0.30280770E-01 0.25628767E+03</pdfrwt>
<totfact> 0.11467519E+04</totfact>
</mgrwt>
</event>
<event>
 4    2  0.3903561E+000  0.1757496E+03  0.7546771E-02  0.1171981E+00
         21   -1    0    0  503  502  0.00000000000E+00  0.00000000000E+00  0.69172568620E+02  0.69172568620E+02  0.00000000000E+00 0. -1.
         21   -1    0    0  501  503 -0.00000000000E+00 -0.00000000000E+00 -0.69941036324E+03  0.69941036324E+03  0.00000000000E+00 0. -1.
          6    1    1    2  501    0 -0.20390476768E+02  0.23305304902E+02 -0.54619166424E+03  0.57377107182E+03  0.17300000000E+03 0. -1.
         -6    1    1    2    0  502  0.20390476768E+02 -0.23305304902E+02 -0.84046130388E+02  0.19481186004E+03  0.17300000000E+03 0. -1.
<mgrwt>
<rscale>  2 0.17574956E+03</rscale>
<asrwt>0</asrwt>
<pdfrwt beam="1">  1       21 0.10641934E-01 0.17574956E+03</pdfrwt>
<pdfrwt beam="2">  1       21 0.10760159E+00 0.17574956E+03</pdfrwt>
<totfact> 0.50498911E+04</totfact>
</mgrwt>
</event>
<event>
 4    2  0.3903561E+000  0.1848793E+03  0.7546771E-02  0.1163163E+00
         21   -1    0    0  501  502  0.00000000000E+00  0.00000000000E+00  0.38888104718E+03  0.38888104718E+03  0.00000000000E+00 0.  1.
         21   -1    0    0  502  503 -0.00000000000E+00 -0.00000000000E+00 -0.98388704361E+02  0.98388704361E+02  0.00000000000E+00 0.  1.
          6    1    1    2  501    0 -0.64218850451E+02 -0.11282374892E+02  0.22481623532E+03  0.29107162761E+03  0.17300000000E+03 0.  1.
         -6    1    1    2    0  503  0.64218850451E+02  0.11282374892E+02  0.65676107495E+02  0.19619812393E+03  0.17300000000E+03 0.  1.
<mgrwt>
<rscale>  2 0.18487929E+03</rscale>
<asrwt>0</asrwt>
<pdfrwt beam="1">  1       21 0.59827853E-01 0.18487929E+03</pdfrwt>
<pdfrwt beam="2">  1       21 0.15136724E-01 0.18487929E+03</pdfrwt>
<totfact> 0.10089820E+05</totfact>
</mgrwt>
</event>
<event>
 4    2  0.3903561E+000  0.2002742E+03  0.7546771E-02  0.1149508E+00
         21   -1    0    0  503  502  0.00000000000E+00  0.00000000000E+00  0.88078702710E+02  0.88078702710E+02  0.00000000000E+00 0. -1.
         21   -1    0    0  501  503 -0.00000000000E+00 -0.00000000000E+00 -0.53878643175E+03  0.53878643175E+03  0.00000000000E+00 0. -1.
          6    1    1    2  501    0  0.89684584063E+02 -0.46232545566E+02 -0.34867030643E+03  0.40209545568E+03  0.17300000000E+03 0. -1.
         -6    1    1    2    0  502 -0.89684584063E+02  0.46232545566E+02 -0.10203742261E+03  0.22476967878E+03  0.17300000000E+03 0. -1.
<mgrwt>
<rscale>  2 0.20027424E+03</rscale>
<asrwt>0</asrwt>
<pdfrwt beam="1">  1       21 0.13550570E-01 0.20027424E+03</pdfrwt>
<pdfrwt beam="2">  1       21 0.82890219E-01 0.20027424E+03</pdfrwt>
<totfact> 0.59635548E+04</totfact>
</mgrwt>
</event>
<event>
 4    2  0.3903561E+000  0.2690507E+03  0.7546771E-02  0.1101824E+00
         21   -1    0    0  503  502  0.00000000000E+00  0.00000000000E+00  0.12683977552E+03  0.12683977552E+03  0.00000000000E+00 0. -1.
         21   -1    0    0  501  503 -0.00000000000E+00 -0.00000000000E+00 -0.17938188307E+04  0.17938188307E+04  0.00000000000E+00 0.  1.
          6    1    1    2  501    0 -0.14778919085E+03 -0.14358843422E+03 -0.16264728713E+04  0.16485758352E+04  0.17300000000E+03 0.  1.
         -6    1    1    2    0  502  0.14778919085E+03  0.14358843422E+03 -0.40506183942E+02  0.27208277107E+03  0.17300000000E+03 0. -1.
<mgrwt>
<rscale>  2 0.26905071E+03</rscale>
<asrwt>0</asrwt>
<pdfrwt beam="1">  1       21 0.19513813E-01 0.26905071E+03</pdfrwt>
<pdfrwt beam="2">  1       21 0.27597211E+00 0.26905071E+03</pdfrwt>
<totfact> 0.10439400E+03</totfact>
</mgrwt>
</event>
<event>
 4    2  0.3903561E+000  0.2286983E+03  0.7546771E-02  0.1127559E+00
         21   -1    0    0  501  502  0.00000000000E+00  0.00000000000E+00  0.97645104423E+03  0.97645104423E+03  0.00000000000E+00 0.  1.
         21   -1    0    0  502  503 -0.00000000000E+00 -0.00000000000E+00 -0.70809366630E+02  0.70809366630E+02  0.00000000000E+00 0.  1.
          6    1    1    2  501    0 -0.12065127639E+03  0.88414706407E+02  0.71123249988E+03  0.74709742315E+03  0.17300000000E+03 0.  1.
         -6    1    1    2    0  503  0.12065127639E+03 -0.88414706407E+02  0.19440917772E+03  0.30016298770E+03  0.17300000000E+03 0.  1.
<mgrwt>
<rscale>  2 0.22869825E+03</rscale>
<asrwt>0</asrwt>
<pdfrwt beam="1">  1       21 0.15022323E+00 0.22869825E+03</pdfrwt>
<pdfrwt beam="2">  1       21 0.10893749E-01 0.22869825E+03</pdfrwt>
<totfact> 0.20285852E+04</totfact>
</mgrwt>
</event>
<event>
 4    2  0.3903561E+000  0.1805762E+03  0.7546771E-02  0.1167247E+00
         21   -1    0    0  503  502  0.00000000000E+00  0.00000000000E+00  0.17803782895E+03  0.17803782895E+03  0.00000000000E+00 0. -1.
         21   -1    0    0  501  503 -0.00000000000E+00 -0.00000000000E+00 -0.19588679180E+03  0.19588679180E+03  0.00000000000E+00 0. -1.
          6    1    1    2  501    0  0.55777622443E+01 -0.51455325256E+02 -0.56597068921E+02  0.18923791940E+03  0.17300000000E+03 0. -1.
         -6    1    1    2    0  502 -0.55777622443E+01  0.51455325256E+02  0.38748106071E+02  0.18468670134E+03  0.17300000000E+03 0. -1.
<mgrwt>
<rscale>  2 0.18057619E+03</rscale>
<asrwt>0</asrwt>
<pdfrwt beam="1">  1       21 0.27390435E-01 0.18057619E+03</pdfrwt>
<pdfrwt beam="2">  1       21 0.30136429E-01 0.18057619E+03</pdfrwt>
<totfact> 0.13481920E+05</totfact>
</mgrwt>
</event>
<event>
 4    2  0.3903561E+000  0.1982270E+03  0.7546771E-02  0.1151244E+00
         21   -1    0    0  501  502  0.00000000000E+00  0.00000000000E+00  0.59554626131E+02  0.59554626131E+02  0.00000000000E+00 0.  1.
         21   -1    0    0  502  503 -0.00000000000E+00 -0.00000000000E+00 -0.81458100536E+03  0.81458100536E+03  0.00000000000E+00 0.  1.
          6    1    1    2  501    0  0.18891955392E+01 -0.96754272445E+02 -0.56803506810E+03  0.60162928526E+03  0.17300000000E+03 0.  1.
         -6    1    1    2    0  503 -0.18891955392E+01  0.96754272445E+02 -0.18699131113E+03  0.27250634623E+03  0.17300000000E+03 0.  1.
<mgrwt>
<rscale>  2 0.19822704E+03</rscale>
<asrwt>0</asrwt>
<pdfrwt beam="1">  1       21 0.91622506E-02 0.19822704E+03</pdfrwt>
<pdfrwt beam="2">  1       21 0.12532015E+00 0.19822704E+03</pdfrwt>
<totfact> 0.44732516E+04</totfact>
</mgrwt>
</event>
<event>
 4    2  0.3903561E+000  0.2094347E+03  0.7546771E-02  0.1142014E+00
         21   -1    0    0  503  502  0.00000000000E+00  0.00000000000E+00  0.37802971131E+03  0.37802971131E+03  0.00000000000E+00 0.  1.
         21   -1    0    0  501  503 -0.00000000000E+00 -0.00000000000E+00 -0.17749250211E+03  0.17749250211E+03  0.00000000000E+00 0.  1.
          6    1    1    2  501    0 -0.10518459845E+03  0.53573163562E+02 -0.63181667187E+02  0.21875741513E+03  0.17300000000E+03 0.  1.
         -6    1    1    2    0  502  0.10518459845E+03 -0.53573163562E+02  0.26371887639E+03  0.33676479829E+03  0.17300000000E+03 0.  1.
<mgrwt>
<rscale>  2 0.20943468E+03</rscale>
<asrwt>0</asrwt>
<pdfrwt beam="1">  1       21 0.58158417E-01 0.20943468E+03</pdfrwt>
<pdfrwt beam="2">  1       21 0.27306539E-01 0.20943468E+03</pdfrwt>
<totfact> 0.35111803E+04</totfact>
</mgrwt>
</event>
<event>
 4    2  0.3903561E+000  0.1879164E+03  0.7546771E-02  0.1160354E+00
         21   -1    0    0  503  502  0.00000000000E+00  0.00000000000E+00  0.12596044056E+04  0.12596044056E+04  0.00000000000E+00 0. -1.
         21   -1    0    0  501  503 -0.00000000000E+00 -0.00000000000E+00 -0.45377717877E+02  0.45377717877E+02  0.00000000000E+00 0. -1.
          6    1    1    2  501    0  0.30747470388E+02  0.66619651994E+02  0.20373178389E+03  0.27716281268E+03  0.17300000000E+03 0. -1.
         -6    1    1    2    0  502 -0.30747470388E+02 -0.66619651994E+02  0.10104949038E+04  0.10278193108E+04  0.17300000000E+03 0. -1.
<mgrwt>
<rscale>  2 0.18791643E+03</rscale>
<asrwt>0</asrwt>
<pdfrwt beam="1">  1       21 0.19378527E+00 0.18791643E+03</pdfrwt>
<pdfrwt beam="2">  1       21 0.69811883E-02 0.18791643E+03</pdfrwt>
<totfact> 0.22463911E+04</totfact>
</mgrwt>
</event>
<event>
 4    2  0.3903561E+000  0.1993742E+03  0.7546771E-02  0.1150268E+00
         21   -1    0    0  501  502  0.00000000000E+00  0.00000000000E+00  0.56550967033E+03  0.56550967033E+03  0.00000000000E+00 0.  1.
         21   -1    0    0  502  503 -0.00000000000E+00 -0.00000000000E+00 -0.74141591020E+02  0.74141591020E+02  0.00000000000E+00 0.  1.
          6    1    1    2  501    0 -0.93060342669E+02 -0.34071209163E+02  0.17279495089E+03  0.26383360234E+03  0.17300000000E+03 0.  1.
         -6    1    1    2    0  503  0.93060342669E+02  0.34071209163E+02  0.31857312841E+03  0.37581765900E+03  0.17300000000E+03 0.  1.
<mgrwt>
<rscale>  2 0.19937421E+03</rscale>
<asrwt>0</asrwt>
<pdfrwt beam="1">  1       21 0.87001485E-01 0.19937421E+03</pdfrwt>
<pdfrwt beam="2">  1       21 0.11406399E-01 0.19937421E+03</pdfrwt>
<totfact> 0.72757891E+04</totfact>
</mgrwt>
</event>
<event>
 4    2  0.3903561E+000  0.2465461E+03  0.7546771E-02  0.1115507E+00
         21   -1    0    0  501  502  0.00000000000E+00  0.00000000000E+00  0.23063697991E+03  0.23063697991E+03  0.00000000000E+00 0. -1.
         21   -1    0    0  502  503 -0.00000000000E+00 -0.00000000000E+00 -0.26435349860E+03  0.26435349860E+03  0.00000000000E+00 0.  1.
          6    1    1    2  501    0  0.13906719122E+03  0.10731408223E+03 -0.32363077910E+01  0.24656737336E+03  0.17300000000E+03 0.  1.
         -6    1    1    2    0  503 -0.13906719122E+03 -0.10731408223E+03 -0.30480210897E+02  0.24842310515E+03  0.17300000000E+03 0.  1.
<mgrwt>
<rscale>  2 0.24654613E+03</rscale>
<asrwt>0</asrwt>
<pdfrwt beam="1">  1       21 0.35482612E-01 0.24654613E+03</pdfrwt>
<pdfrwt beam="2">  1       21 0.40669769E-01 0.24654613E+03</pdfrwt>
<totfact> 0.43508032E+04</totfact>
</mgrwt>
</event>
<event>
 4    2  0.3903561E+000  0.1865101E+03  0.7546771E-02  0.1161647E+00
         21   -1    0    0  503  502  0.00000000000E+00  0.00000000000E+00  0.82735088673E+03  0.82735088673E+03  0.00000000000E+00 0. -1.
         21   -1    0    0  501  503 -0.00000000000E+00 -0.00000000000E+00 -0.42232399161E+02  0.42232399161E+02  0.00000000000E+00 0. -1.
          6    1    1    2  501    0 -0.18597770556E+02 -0.67164961073E+02  0.42151831679E+03  0.46093784880E+03  0.17300000000E+03 0. -1.
         -6    1    1    2    0  502  0.18597770556E+02  0.67164961073E+02  0.36360017077E+03  0.40864543709E+03  0.17300000000E+03 0. -1.
<mgrwt>
<rscale>  2 0.18651008E+03</rscale>
<asrwt>0</asrwt>
<pdfrwt beam="1">  1       21 0.12728474E+00 0.18651008E+03</pdfrwt>
<pdfrwt beam="2">  1       21 0.64972928E-02 0.18651008E+03</pdfrwt>
<totfact> 0.78630760E+04</totfact>
</mgrwt>
</event>
<event>
 4    2  0.3903561E+000  0.1972624E+03  0.7546771E-02  0.1152070E+00
         21   -1    0    0  501  502  0.00000000000E+00  0.00000000000E+00  0.26760097332E+03  0.26760097332E+03  0.00000000000E+00 0. -1.
         21   -1    0    0  502  503 -0.00000000000E+00 -0.00000000000E+00 -0.15290983358E+03  0.15290983358E+03  0.00000000000E+00 0. -1.
          6    1    1    2  501    0 -0.49063912584E+02  0.81093657293E+02  0.10390324561E+03  0.22295365711E+03  0.17300000000E+03 0. -1.
         -6    1    1    2    0  503  0.49063912584E+02 -0.81093657293E+02  0.10787894122E+02  0.19755714978E+03  0.17300000000E+03 0. -1.
<mgrwt>
<rscale>  2 0.19726239E+03</rscale>
<asrwt>0</asrwt>
<pdfrwt beam="1">  1       21 0.41169380E-01 0.19726239E+03</pdfrwt>
<pdfrwt beam="2">  1       21 0.23524590E-01 0.19726239E+03</pdfrwt>
<totfact> 0.96450845E+04</totfact>
</mgrwt>
</event>
<event>
 4    2  0.3903561E+000  0.2132108E+03  0.7546771E-02  0.1139048E+00
         21   -1    0    0  501  502  0.00000000000E+00  0.00000000000E+00  0.54598683067E+02  0.54598683067E+02  0.00000000000E+00 0.  1.
         21   -1    0    0  502  503 -0.00000000000E+00 -0.00000000000E+00 -0.83627597405E+03  0.83627597405E+03  0.00000000000E+00 0.  1.
          6    1    1    2  501    0  0.11355386162E+03 -0.51335782723E+02 -0.42037257402E+03  0.47135118867E+03  0.17300000000E+03 0. -1.
         -6    1    1    2    0  503 -0.11355386162E+03  0.51335782723E+02 -0.36130471696E+03  0.41952346844E+03  0.17300000000E+03 0. -1.
<mgrwt>
<rscale>  2 0.21321079E+03</rscale>
<asrwt>0</asrwt>
<pdfrwt beam="1">  1       21 0.83997983E-02 0.21321079E+03</pdfrwt>
<pdfrwt beam="2">  1       21 0.12865783E+00 0.21321079E+03</pdfrwt>
<totfact> 0.48370416E+04</totfact>
</mgrwt>
</event>
<event>
 4    2  0.3903561E+000  0.2369366E+03  0.7546771E-02  0.1121851E+00
         21   -1    0    0  503  502  0.00000000000E+00  0.00000000000E+00  0.35038891296E+03  0.35038891296E+03  0.00000000000E+00 0.  1.
         21   -1    0    0  501  503 -0.00000000000E+00 -0.00000000000E+00 -0.40012217969E+03  0.40012217969E+03  0.00000000000E+00 0. -1.
          6    1    1    2  501    0 -0.61545675141E+02 -0.14974007366E+03 -0.31543532157E+03  0.39451033178E+03  0.17300000000E+03 0.  1.
         -6    1    1    2    0  502  0.61545675141E+02  0.14974007366E+03  0.26570205484E+03  0.35600076087E+03  0.17300000000E+03 0.  1.
<mgrwt>
<rscale>  2 0.23693662E+03</rscale>
<asrwt>0</asrwt>
<pdfrwt beam="1">  1       21 0.53905986E-01 0.23693662E+03</pdfrwt>
<pdfrwt beam="2">  1       21 0.61557259E-01 0.23693662E+03</pdfrwt>
<totfact> 0.77464669E+03</totfact>
</mgrwt>
</event>
<event>
 4    2  0.3903561E+000  0.1869952E+03  0.7546771E-02  0.1161200E+00
         21   -1    0    0  501  502  0.00000000000E+00  0.00000000000E+00  0.32259633104E+02  0.32259633104E+02  0.00000000000E+00 0.  1.
         21   -1    0    0  502  503 -0.00000000000E+00 -0.00000000000E+00 -0.10982666300E+04  0.10982666300E+04  0.00000000000E+00 0.  1.
          6    1    1    2  501    0 -0.66653741724E+02  0.24402380394E+02 -0.59758587741E+03  0.62615978658E+03  0.17300000000E+03 0.  1.
         -6    1    1    2    0  503  0.66653741724E+02 -0.24402380394E+02 -0.46842111947E+03  0.50436647650E+03  0.17300000000E+03 0.  1.
<mgrwt>
<rscale>  2 0.18699518E+03</rscale>
<asrwt>0</asrwt>
<pdfrwt beam="1">  1       21 0.49630206E-02 0.18699518E+03</pdfrwt>
<pdfrwt beam="2">  1       21 0.16896409E+00 0.18699518E+03</pdfrwt>
<totfact> 0.59299448E+04</totfact>
</mgrwt>
</event>
<event>
 4    2  0.3903561E+000  0.1836952E+03  0.7546771E-02  0.1164274E+00
         21   -1    0    0  503  502  0.00000000000E+00  0.00000000000E+00  0.40994578042E+03  0.40994578042E+03  0.00000000000E+00 0. -1.
         21   -1    0    0  501  503 -0.00000000000E+00 -0.00000000000E+00 -0.83280032844E+02  0.83280032844E+02  0.00000000000E+00 0. -1.
          6    1    1    2  501    0  0.84928444934E+01 -0.61178350691E+02  0.13676006284E+03  0.22901361049E+03  0.17300000000E+03 0. -1.
         -6    1    1    2    0  502 -0.84928444934E+01  0.61178350691E+02  0.18990568474E+03  0.26421220278E+03  0.17300000000E+03 0. -1.
<mgrwt>
<rscale>  2 0.18369518E+03</rscale>
<asrwt>0</asrwt>
<pdfrwt beam="1">  1       21 0.63068580E-01 0.18369518E+03</pdfrwt>
<pdfrwt beam="2">  1       21 0.12812313E-01 0.18369518E+03</pdfrwt>
<totfact> 0.12180760E+05</totfact>
</mgrwt>
</event>
<event>
 4    2  0.3903561E+000  0.2034687E+03  0.7546771E-02  0.1146845E+00
         21   -1    0    0  503  502  0.00000000000E+00  0.00000000000E+00  0.20988324168E+03  0.20988324168E+03  0.00000000000E+00 0.  1.
         21   -1    0    0  501  503 -0.00000000000E+00 -0.00000000000E+00 -0.22037836572E+03  0.22037836572E+03  0.00000000000E+00 0.  1.
          6    1    1    2  501    0 -0.10625851519E+03  0.13402663960E+02 -0.74940547875E+02  0.21683078464E+03  0.17300000000E+03 0.  1.
         -6    1    1    2    0  502  0.10625851519E+03 -0.13402663960E+02  0.64445423833E+02  0.21343082276E+03  0.17300000000E+03 0.  1.
<mgrwt>
<rscale>  2 0.20346868E+03</rscale>
<asrwt>0</asrwt>
<pdfrwt beam="1">  1       21 0.32289730E-01 0.20346868E+03</pdfrwt>
<pdfrwt beam="2">  1       21 0.33904364E-01 0.20346868E+03</pdfrwt>
<totfact> 0.76973968E+04</totfact>
</mgrwt>
</event>
<event>
 4    2  0.3903561E+000  0.1730911E+03  0.7546771E-02  0.1174662E+00
         21   -1    0    0  501  502  0.00000000000E+00  0.00000000000E+00  0.74030013201E+02  0.74030013201E+02  0.00000000000E+00 0.  1.
         21   -1    0    0  502  503 -0.00000000000E+00 -0.00000000000E+00 -0.41941026315E+03  0.41941026315E+03  0.00000000000E+00 0.  1.
          6    1    1    2  501    0 -0.28286342035E+01 -0.48492192469E+01 -0.21888370849E+03  0.27905303070E+03  0.17300000000E+03 0.  1.
         -6    1    1    2    0  503  0.28286342035E+01  0.48492192469E+01 -0.12649654146E+03  0.21438724566E+03  0.17300000000E+03 0.  1.
<mgrwt>
<rscale>  2 0.17309106E+03</rscale>
<asrwt>0</asrwt>
<pdfrwt beam="1">  1       21 0.11389233E-01 0.17309106E+03</pdfrwt>
<pdfrwt beam="2">  1       21 0.64524654E-01 0.17309106E+03</pdfrwt>
<totfact> 0.14362078E+05</totfact>
</mgrwt>
</event>
<event>
 4    2  0.3903561E+000  0.2145051E+03  0.7546771E-02  0.1138047E+00
         21   -1    0    0  503  502  0.00000000000E+00  0.00000000000E+00  0.16981032015E+03  0.16981032015E+03  0.00000000000E+00 0.  1.
         21   -1    0    0  501  503 -0.00000000000E+00 -0.00000000000E+00 -0.37245999024E+03  0.37245999024E+03  0.00000000000E+00 0.  1.
          6    1    1    2  501    0 -0.10649417747E+03  0.68865417266E+02 -0.24286210481E+03  0.32402848252E+03  0.17300000000E+03 0.  1.
         -6    1    1    2    0  502  0.10649417747E+03 -0.68865417266E+02  0.40212434717E+02  0.21824182788E+03  0.17300000000E+03 0.  1.
<mgrwt>
<rscale>  2 0.21450514E+03</rscale>
<asrwt>0</asrwt>
<pdfrwt beam="1">  1       21 0.26124665E-01 0.21450514E+03</pdfrwt>
<pdfrwt beam="2">  1       21 0.57301537E-01 0.21450514E+03</pdfrwt>
<totfact> 0.39370221E+04</totfact>
</mgrwt>
</event>
<event>
 4    2  0.3903561E+000  0.2028547E+03  0.7546771E-02  0.1147353E+00
         21   -1    0    0  503  502  0.00000000000E+00  0.00000000000E+00  0.65481871761E+02  0.65481871761E+02  0.00000000000E+00 0. -1.
         21   -1    0    0  501  503 -0.00000000000E+00 -0.00000000000E+00 -0.68788435472E+03  0.68788435472E+03  0.00000000000E+00 0. -1.
          6    1    1    2  501    0  0.10416252345E+03  0.19266930487E+02 -0.42195304388E+03  0.46818203420E+03  0.17300000000E+03 0. -1.
         -6    1    1    2    0  502 -0.10416252345E+03 -0.19266930487E+02 -0.20044943908E+03  0.28518419228E+03  0.17300000000E+03 0. -1.
<mgrwt>
<rscale>  2 0.20285474E+03</rscale>
<asrwt>0</asrwt>
<pdfrwt beam="1">  1       21 0.10074134E-01 0.20285474E+03</pdfrwt>
<pdfrwt beam="2">  1       21 0.10582836E+00 0.20285474E+03</pdfrwt>
<totfact> 0.57128404E+04</totfact>
</mgrwt>
</event>
<event>
 4    2  0.3903561E+000  0.2170676E+03  0.7546771E-02  0.1136088E+00
         21   -1    0    0  503  502  0.00000000000E+00  0.00000000000E+00  0.26463929883E+03  0.26463929883E+03  0.00000000000E+00 0.  1.
         21   -1    0    0  501  503 -0.00000000000E+00 -0.00000000000E+00 -0.25322367329E+03  0.25322367329E+03  0.00000000000E+00 0. -1.
          6    1    1    2  501    0  0.10546945893E+03  0.77881516320E+02 -0.13537468080E+03  0.25582150330E+03  0.17300000000E+03 0. -1.
         -6    1    1    2    0  502 -0.10546945893E+03 -0.77881516320E+02  0.14679030633E+03  0.26204146883E+03  0.17300000000E+03 0.  1.
<mgrwt>
<rscale>  2 0.21706759E+03</rscale>
<asrwt>0</asrwt>
<pdfrwt beam="1">  1       21 0.40713739E-01 0.21706759E+03</pdfrwt>
<pdfrwt beam="2">  1       21 0.38957488E-01 0.21706759E+03</pdfrwt>
<totfact> 0.36462286E+04</totfact>
</mgrwt>
</event>
<event>
 4    2  0.3903561E+000  0.1788053E+03  0.7546771E-02  0.1168964E+00
         21   -1    0    0  503  502  0.00000000000E+00  0.00000000000E+00  0.94592124717E+02  0.94592124717E+02  0.00000000000E+00 0.  1.
         21   -1    0    0  501  503 -0.00000000000E+00 -0.00000000000E+00 -0.38990456650E+03  0.38990456650E+03  0.00000000000E+00 0.  1.
          6    1    1    2  501    0  0.27757254961E+02  0.35663039147E+02 -0.23604980279E+03  0.29612636992E+03  0.17300000000E+03 0. -1.
         -6    1    1    2    0  502 -0.27757254961E+02 -0.35663039147E+02 -0.59262638986E+02  0.18837032129E+03  0.17300000000E+03 0. -1.
<mgrwt>
<rscale>  2 0.17880525E+03</rscale>
<asrwt>0</asrwt>
<pdfrwt beam="1">  1       21 0.14552635E-01 0.17880525E+03</pdfrwt>
<pdfrwt beam="2">  1       21 0.59985316E-01 0.17880525E+03</pdfrwt>
<totfact> 0.10801647E+05</totfact>
</mgrwt>
</event>
<event>
 4    2  0.3903561E+000  0.1914671E+03  0.7546771E-02  0.1157145E+00
         21   -1    0    0  503  502  0.00000000000E+00  0.00000000000E+00  0.44697951788E+02  0.44697951788E+02  0.00000000000E+00 0.  1.
         21   -1    0    0  501  503 -0.00000000000E+00 -0.00000000000E+00 -0.82021594587E+03  0.82021594587E+03  0.00000000000E+00 0.  1.
          6    1    1    2  501    0  0.44507059884E+02 -0.68918569608E+02 -0.38431499015E+03  0.42936890814E+03  0.17300000000E+03 0.  1.
         -6    1    1    2    0  502 -0.44507059884E+02  0.68918569608E+02 -0.39120300393E+03  0.43554498952E+03  0.17300000000E+03 0.  1.
<mgrwt>
<rscale>  2 0.19146709E+03</rscale>
<asrwt>0</asrwt>
<pdfrwt beam="1">  1       21 0.68766075E-02 0.19146709E+03</pdfrwt>
<pdfrwt beam="2">  1       21 0.12618708E+00 0.19146709E+03</pdfrwt>
<totfact> 0.72709771E+04</totfact>
</mgrwt>
</event>
<event>
 4    2  0.3903561E+000  0.2169085E+03  0.7546771E-02  0.1136209E+00
         21   -1    0    0  501  502  0.00000000000E+00  0.00000000000E+00  0.63399942177E+03  0.63399942177E+03  0.00000000000E+00 0.  1.
         21   -1    0    0  502  503 -0.00000000000E+00 -0.00000000000E+00 -0.12697264525E+03  0.12697264525E+03  0.00000000000E+00 0.  1.
          6    1    1    2  501    0 -0.29128192635E+02 -0.12756110119E+03  0.49878409879E+03  0.54390703557E+03  0.17300000000E+03 0.  1.
         -6    1    1    2    0  503  0.29128192635E+02  0.12756110119E+03  0.82426777275E+01  0.21706503145E+03  0.17300000000E+03 0.  1.
<mgrwt>
<rscale>  2 0.21690847E+03</rscale>
<asrwt>0</asrwt>
<pdfrwt beam="1">  1       21 0.97538371E-01 0.21690847E+03</pdfrwt>
<pdfrwt beam="2">  1       21 0.19534253E-01 0.21690847E+03</pdfrwt>
<totfact> 0.20698973E+04</totfact>
</mgrwt>
</event>
<event>
 4    2  0.3903561E+000  0.1989542E+03  0.7546771E-02  0.1150624E+00
         21   -1    0    0  501  502  0.00000000000E+00  0.00000000000E+00  0.19396908328E+03  0.19396908328E+03  0.00000000000E+00 0.  1.
         21   -1    0    0  502  503 -0.00000000000E+00 -0.00000000000E+00 -0.34334104268E+03  0.34334104268E+03  0.00000000000E+00 0.  1.
          6    1    1    2  501    0  0.92933613924E+02 -0.31892030575E+02  0.96420597056E+02  0.22108751604E+03  0.17300000000E+03 0.  1.
         -6    1    1    2    0  503 -0.92933613924E+02  0.31892030575E+02 -0.24579255646E+03  0.31622260992E+03  0.17300000000E+03 0.  1.
<mgrwt>
<rscale>  2 0.19895416E+03</rscale>
<asrwt>0</asrwt>
<pdfrwt beam="1">  1       21 0.29841398E-01 0.19895416E+03</pdfrwt>
<pdfrwt beam="2">  1       21 0.52821699E-01 0.19895416E+03</pdfrwt>
<totfact> 0.36450003E+04</totfact>
</mgrwt>
</event>
<event>
 4    2  0.3903561E+000  0.2843001E+03  0.7546771E-02  0.1093363E+00
         21   -1    0    0  503  502  0.00000000000E+00  0.00000000000E+00  0.18237294704E+03  0.18237294704E+03  0.00000000000E+00 0. -1.
         21   -1    0    0  501  503 -0.00000000000E+00 -0.00000000000E+00 -0.48759449907E+03  0.48759449907E+03  0.00000000000E+00 0.  1.
          6    1    1    2  501    0 -0.22486594230E+03 -0.18244913694E+02 -0.25369629764E+03  0.38103593048E+03  0.17300000000E+03 0. -1.
         -6    1    1    2    0  502  0.22486594230E+03  0.18244913694E+02 -0.51525254390E+02  0.28893151562E+03  0.17300000000E+03 0.  1.
<mgrwt>
<rscale>  2 0.28430014E+03</rscale>
<asrwt>0</asrwt>
<pdfrwt beam="1">  1       21 0.28057376E-01 0.28430014E+03</pdfrwt>
<pdfrwt beam="2">  1       21 0.75014539E-01 0.28430014E+03</pdfrwt>
<totfact> 0.18385293E+04</totfact>
</mgrwt>
</event>
<event>
 4    2  0.3903561E+000  0.1736797E+03  0.7546771E-02  0.1174064E+00
         21   -1    0    0  503  502  0.00000000000E+00  0.00000000000E+00  0.24993587263E+03  0.24993587263E+03  0.00000000000E+00 0.  1.
         21   -1    0    0  501  503 -0.00000000000E+00 -0.00000000000E+00 -0.75756000850E+03  0.75756000850E+03  0.00000000000E+00 0.  1.
          6    1    1    2  501    0  0.15166205856E+02 -0.23725596949E+01 -0.71569330761E+03  0.73646558195E+03  0.17300000000E+03 0.  1.
         -6    1    1    2    0  502 -0.15166205856E+02  0.23725596949E+01  0.20806917174E+03  0.27103029917E+03  0.17300000000E+03 0.  1.
<mgrwt>
<rscale>  2 0.17367971E+03</rscale>
<asrwt>0</asrwt>
<pdfrwt beam="1">  1       21 0.38451673E-01 0.17367971E+03</pdfrwt>
<pdfrwt beam="2">  1       21 0.11654769E+00 0.17367971E+03</pdfrwt>
<totfact> 0.37625645E+03</totfact>
</mgrwt>
</event>
<event>
 4    2  0.3903561E+000  0.3143418E+03  0.7546771E-02  0.1078283E+00
         21   -1    0    0  501  502  0.00000000000E+00  0.00000000000E+00  0.14596942475E+04  0.14596942475E+04  0.00000000000E+00 0. -1.
         21   -1    0    0  502  503 -0.00000000000E+00 -0.00000000000E+00 -0.39063712759E+03  0.39063712759E+03  0.00000000000E+00 0. -1.
          6    1    1    2  501    0  0.23996743200E+03  0.10628912372E+03  0.13757234179E+04  0.14111788224E+04  0.17300000000E+03 0. -1.
         -6    1    1    2    0  503 -0.23996743200E+03 -0.10628912372E+03 -0.30666629797E+03  0.43915255271E+03  0.17300000000E+03 0. -1.
<mgrwt>
<rscale>  2 0.31434177E+03</rscale>
<asrwt>0</asrwt>
<pdfrwt beam="1">  1       21 0.22456834E+00 0.31434177E+03</pdfrwt>
<pdfrwt beam="2">  1       21 0.60098021E-01 0.31434177E+03</pdfrwt>
<totfact> 0.21410815E+02</totfact>
</mgrwt>
</event>
<event>
 4    2  0.3903561E+000  0.2120273E+03  0.7546771E-02  0.1139971E+00
         21   -1    0    0  501  502  0.00000000000E+00  0.00000000000E+00  0.18311323638E+03  0.18311323638E+03  0.00000000000E+00 0. -1.
         21   -1    0    0  502  503 -0.00000000000E+00 -0.00000000000E+00 -0.58781897638E+03  0.58781897638E+03  0.00000000000E+00 0. -1.
          6    1    1    2  501    0  0.34490894217E+02 -0.11763053318E+03  0.91801633982E+02  0.23104783947E+03  0.17300000000E+03 0. -1.
         -6    1    1    2    0  503 -0.34490894217E+02  0.11763053318E+03 -0.49650737397E+03  0.53988437330E+03  0.17300000000E+03 0. -1.
<mgrwt>
<rscale>  2 0.21202727E+03</rscale>
<asrwt>0</asrwt>
<pdfrwt beam="1">  1       21 0.28171267E-01 0.21202727E+03</pdfrwt>
<pdfrwt beam="2">  1       21 0.90433689E-01 0.21202727E+03</pdfrwt>
<totfact> 0.12350084E+04</totfact>
</mgrwt>
</event>
<event>
 4    2  0.3903561E+000  0.2617712E+03  0.7546771E-02  0.1106084E+00
         21   -1    0    0  503  502  0.00000000000E+00  0.00000000000E+00  0.13648367938E+04  0.13648367938E+04  0.00000000000E+00 0. -1.
         21   -1    0    0  501  503 -0.00000000000E+00 -0.00000000000E+00 -0.68375997403E+02  0.68375997403E+02  0.00000000000E+00 0. -1.
          6    1    1    2  501    0 -0.14508748050E+03  0.13245677305E+03  0.27883118750E+03  0.38245392513E+03  0.17300000000E+03 0. -1.
         -6    1    1    2    0  502  0.14508748050E+03 -0.13245677305E+03  0.10176296089E+04  0.10507588661E+04  0.17300000000E+03 0. -1.
<mgrwt>
<rscale>  2 0.26177122E+03</rscale>
<asrwt>0</asrwt>
<pdfrwt beam="1">  1       21 0.20997487E+00 0.26177122E+03</pdfrwt>
<pdfrwt beam="2">  1       21 0.10519385E-01 0.26177122E+03</pdfrwt>
<totfact> 0.81632501E+03</totfact>
</mgrwt>
</event>
<event>
 4    2  0.3903561E+000  0.1856312E+03  0.7546771E-02  0.1162462E+00
         21   -1    0    0  501  502  0.00000000000E+00  0.00000000000E+00  0.25846864484E+03  0.25846864484E+03  0.00000000000E+00 0. -1.
         21   -1    0    0  502  503 -0.00000000000E+00 -0.00000000000E+00 -0.20146986230E+03  0.20146986230E+03  0.00000000000E+00 0. -1.
          6    1    1    2  501    0 -0.36378222784E+01  0.67206354420E+02  0.16225087290E+03  0.24654466854E+03  0.17300000000E+03 0. -1.
         -6    1    1    2    0  503  0.36378222784E+01 -0.67206354420E+02 -0.10525209037E+03  0.21339383860E+03  0.17300000000E+03 0. -1.
<mgrwt>
<rscale>  2 0.18563116E+03</rscale>
<asrwt>0</asrwt>
<pdfrwt beam="1">  1       21 0.39764407E-01 0.18563116E+03</pdfrwt>
<pdfrwt beam="2">  1       21 0.30995363E-01 0.18563116E+03</pdfrwt>
<totfact> 0.61135915E+04</totfact>
</mgrwt>
</event>
<event>
 4    2  0.3903561E+000  0.2261419E+03  0.7546771E-02  0.1129385E+00
         21   -1    0    0  503  502  0.00000000000E+00  0.00000000000E+00  0.14835774734E+03  0.14835774734E+03  0.00000000000E+00 0.  1.
         21   -1    0    0  501  503 -0.00000000000E+00 -0.00000000000E+00 -0.45374244815E+03  0.45374244815E+03  0.00000000000E+00 0. -1.
          6    1    1    2  501    0 -0.14376339858E+03 -0.23307956687E+02 -0.30026808348E+03  0.37590038252E+03  0.17300000000E+03 0. -1.
         -6    1    1    2    0  502  0.14376339858E+03  0.23307956687E+02 -0.51166173298E+01  0.22619981298E+03  0.17300000000E+03 0. -1.
<mgrwt>
<rscale>  2 0.22614194E+03</rscale>
<asrwt>0</asrwt>
<pdfrwt beam="1">  1       21 0.22824269E-01 0.22614194E+03</pdfrwt>
<pdfrwt beam="2">  1       21 0.69806531E-01 0.22614194E+03</pdfrwt>
<totfact> 0.32989898E+04</totfact>
</mgrwt>
</event>
<event>
 4    2  0.3903561E+000  0.2429704E+03  0.7546771E-02  0.1117830E+00
         21   -1    0    0  503  502  0.00000000000E+00  0.00000000000E+00  0.18217084567E+03  0.18217084567E+03  0.00000000000E+00 0.  1.
         21   -1    0    0  501  503 -0.00000000000E+00 -0.00000000000E+00 -0.46471917373E+03  0.46471917373E+03  0.00000000000E+00 0.  1.
          6    1    1    2  501    0 -0.15040927918E+03 -0.80514974097E+02 -0.31921941833E+03  0.40116785683E+03  0.17300000000E+03 0.  1.
         -6    1    1    2    0  502  0.15040927918E+03  0.80514974097E+02  0.36671090275E+02  0.24572216257E+03  0.17300000000E+03 0.  1.
<mgrwt>
<rscale>  2 0.24297039E+03</rscale>
<asrwt>0</asrwt>
<pdfrwt beam="1">  1       21 0.28026285E-01 0.24297039E+03</pdfrwt>
<pdfrwt beam="2">  1       21 0.71495256E-01 0.24297039E+03</pdfrwt>
<totfact> 0.20915868E+04</totfact>
</mgrwt>
</event>
<event>
 4    2  0.3903561E+000  0.2159123E+03  0.7546771E-02  0.1136968E+00
         21   -1    0    0  501  502  0.00000000000E+00  0.00000000000E+00  0.32912625825E+03  0.32912625825E+03  0.00000000000E+00 0.  1.
         21   -1    0    0  502  503 -0.00000000000E+00 -0.00000000000E+00 -0.14300992659E+03  0.14300992659E+03  0.00000000000E+00 0. -1.
          6    1    1    2  501    0 -0.12561557404E+03 -0.30163565807E+02  0.11614582833E+03  0.24516926109E+03  0.17300000000E+03 0.  1.
         -6    1    1    2    0  503  0.12561557404E+03  0.30163565807E+02  0.69970503334E+02  0.22696692376E+03  0.17300000000E+03 0. -1.
<mgrwt>
<rscale>  2 0.21591228E+03</rscale>
<asrwt>0</asrwt>
<pdfrwt beam="1">  1       21 0.50634809E-01 0.21591228E+03</pdfrwt>
<pdfrwt beam="2">  1       21 0.22001527E-01 0.21591228E+03</pdfrwt>
<totfact> 0.70906524E+04</totfact>
</mgrwt>
</event>
<event>
 4    2  0.3903561E+000  0.1801587E+03  0.7546771E-02  0.1167650E+00
         21   -1    0    0  503  502  0.00000000000E+00  0.00000000000E+00  0.39577951563E+02  0.39577951563E+02  0.00000000000E+00 0.  1.
         21   -1    0    0  501  503 -0.00000000000E+00 -0.00000000000E+00 -0.97557628632E+03  0.97557628632E+03  0.00000000000E+00 0. -1.
          6    1    1    2  501    0  0.45524630110E+01  0.50074123371E+02 -0.26535717573E+03  0.32073598716E+03  0.17300000000E+03 0.  1.
         -6    1    1    2    0  502 -0.45524630110E+01 -0.50074123371E+02 -0.67064115903E+03  0.69441825072E+03  0.17300000000E+03 0. -1.
<mgrwt>
<rscale>  2 0.18015866E+03</rscale>
<asrwt>0</asrwt>
<pdfrwt beam="1">  1       21 0.60889153E-02 0.18015866E+03</pdfrwt>
<pdfrwt beam="2">  1       21 0.15008867E+00 0.18015866E+03</pdfrwt>
<totfact> 0.57773239E+04</totfact>
</mgrwt>
</event>
<event>
 4    2  0.3903561E+000  0.2447852E+03  0.7546771E-02  0.1116645E+00
         21   -1    0    0  503  502  0.00000000000E+00  0.00000000000E+00  0.36337790685E+03  0.36337790685E+03  0.00000000000E+00 0.  1.
         21   -1    0    0  501  503 -0.00000000000E+00 -0.00000000000E+00 -0.16747689232E+03  0.16747689232E+03  0.00000000000E+00 0. -1.
          6    1    1    2  501    0 -0.12019247377E+03 -0.12467790918E+03  0.65005036962E+02  0.25326955328E+03  0.17300000000E+03 0. -1.
         -6    1    1    2    0  502  0.12019247377E+03  0.12467790918E+03  0.13089597757E+03  0.27758524588E+03  0.17300000000E+03 0.  1.
<mgrwt>
<rscale>  2 0.24478524E+03</rscale>
<asrwt>0</asrwt>
<pdfrwt beam="1">  1       21 0.55904293E-01 0.24478524E+03</pdfrwt>
<pdfrwt beam="2">  1       21 0.25765676E-01 0.24478524E+03</pdfrwt>
<totfact> 0.42040035E+04</totfact>
</mgrwt>
</event>
<event>
 4    2  0.3903561E+000  0.1779997E+03  0.7546771E-02  0.1169753E+00
         21   -1    0    0  503  502  0.00000000000E+00  0.00000000000E+00  0.37799752972E+02  0.37799752972E+02  0.00000000000E+00 0.  1.
         21   -1    0    0  501  503 -0.00000000000E+00 -0.00000000000E+00 -0.84063395650E+03  0.84063395650E+03  0.00000000000E+00 0.  1.
          6    1    1    2  501    0 -0.37922141568E+02  0.17798988678E+02 -0.37780136249E+03  0.41763352634E+03  0.17300000000E+03 0.  1.
         -6    1    1    2    0  502  0.37922141568E+02 -0.17798988678E+02 -0.42503284103E+03  0.46080018313E+03  0.17300000000E+03 0.  1.
<mgrwt>
<rscale>  2 0.17799970E+03</rscale>
<asrwt>0</asrwt>
<pdfrwt beam="1">  1       21 0.58153474E-02 0.17799970E+03</pdfrwt>
<pdfrwt beam="2">  1       21 0.12932828E+00 0.17799970E+03</pdfrwt>
<totfact> 0.91706379E+04</totfact>
</mgrwt>
</event>
<event>
 4    2  0.3903561E+000  0.1748742E+03  0.7546771E-02  0.1172858E+00
         21   -1    0    0  503  502  0.00000000000E+00  0.00000000000E+00  0.11441253434E+03  0.11441253434E+03  0.00000000000E+00 0. -1.
         21   -1    0    0  501  503 -0.00000000000E+00 -0.00000000000E+00 -0.29476249389E+03  0.29476249389E+03  0.00000000000E+00 0. -1.
          6    1    1    2  501    0 -0.11982282728E+01  0.25505618204E+02 -0.15263706967E+03  0.23211860621E+03  0.17300000000E+03 0. -1.
         -6    1    1    2    0  502  0.11982282728E+01 -0.25505618204E+02 -0.27712889882E+02  0.17705642201E+03  0.17300000000E+03 0. -1.
<mgrwt>
<rscale>  2 0.17487416E+03</rscale>
<asrwt>0</asrwt>
<pdfrwt beam="1">  1       21 0.17601928E-01 0.17487416E+03</pdfrwt>
<pdfrwt beam="2">  1       21 0.45348076E-01 0.17487416E+03</pdfrwt>
<totfact> 0.13729823E+05</totfact>
</mgrwt>
</event>
<event>
 4    2  0.3903561E+000  0.3836875E+03  0.7546771E-02  0.1049579E+00
         21   -1    0    0  501  502  0.00000000000E+00  0.00000000000E+00  0.11683185203E+04  0.11683185203E+04  0.00000000000E+00 0. -1.
         21   -1    0    0  502  503 -0.00000000000E+00 -0.00000000000E+00 -0.19383416413E+03  0.19383416413E+03  0.00000000000E+00 0.  1.
          6    1    1    2  501    0  0.23105087365E+03 -0.25278960844E+03  0.84355355359E+02  0.39285101289E+03  0.17300000000E+03 0.  1.
         -6    1    1    2    0  503 -0.23105087365E+03  0.25278960844E+03  0.89012900080E+03  0.96930167152E+03  0.17300000000E+03 0. -1.
<mgrwt>
<rscale>  2 0.38368749E+03</rscale>
<asrwt>0</asrwt>
<pdfrwt beam="1">  1       21 0.17974131E+00 0.38368749E+03</pdfrwt>
<pdfrwt beam="2">  1       21 0.29820641E-01 0.38368749E+03</pdfrwt>
<totfact> 0.17206505E+03</totfact>
</mgrwt>
</event>
<event>
 4    2  0.3903561E+000  0.2841488E+03  0.7546771E-02  0.1093444E+00
         21   -1    0    0  503  502  0.00000000000E+00  0.00000000000E+00  0.12793321886E+04  0.12793321886E+04  0.00000000000E+00 0. -1.
         21   -1    0    0  501  503 -0.00000000000E+00 -0.00000000000E+00 -0.72793316040E+02  0.72793316040E+02  0.00000000000E+00 0.  1.
          6    1    1    2  501    0  0.13935082995E+03 -0.17718043454E+03  0.35671097988E+03  0.45605184284E+03  0.17300000000E+03 0. -1.
         -6    1    1    2    0  502 -0.13935082995E+03  0.17718043454E+03  0.84982789268E+03  0.89607366180E+03  0.17300000000E+03 0.  1.
<mgrwt>
<rscale>  2 0.28414883E+03</rscale>
<asrwt>0</asrwt>
<pdfrwt beam="1">  1       21 0.19682032E+00 0.28414883E+03</pdfrwt>
<pdfrwt beam="2">  1       21 0.11198973E-01 0.28414883E+03</pdfrwt>
<totfact> 0.87535120E+03</totfact>
</mgrwt>
</event>
<event>
 4    2  0.3903561E+000  0.2795204E+03  0.7546771E-02  0.1095951E+00
         21   -1    0    0  501  502  0.00000000000E+00  0.00000000000E+00  0.20895517863E+03  0.20895517863E+03  0.00000000000E+00 0.  1.
         21   -1    0    0  502  503 -0.00000000000E+00 -0.00000000000E+00 -0.37469607585E+03  0.37469607585E+03  0.00000000000E+00 0. -1.
          6    1    1    2  501    0  0.16352975722E+03  0.14649467681E+03 -0.69554587977E+02  0.28804428920E+03  0.17300000000E+03 0.  1.
         -6    1    1    2    0  503 -0.16352975722E+03 -0.14649467681E+03 -0.96186309243E+02  0.29560696527E+03  0.17300000000E+03 0. -1.
<mgrwt>
<rscale>  2 0.27952043E+03</rscale>
<asrwt>0</asrwt>
<pdfrwt beam="1">  1       21 0.32146951E-01 0.27952043E+03</pdfrwt>
<pdfrwt beam="2">  1       21 0.57645550E-01 0.27952043E+03</pdfrwt>
<totfact> 0.25181114E+04</totfact>
</mgrwt>
</event>
<event>
 4    2  0.3903561E+000  0.2368015E+03  0.7546771E-02  0.1121942E+00
         21   -1    0    0  503  502  0.00000000000E+00  0.00000000000E+00  0.97733697189E+02  0.97733697189E+02  0.00000000000E+00 0. -1.
         21   -1    0    0  501  503 -0.00000000000E+00 -0.00000000000E+00 -0.59759422040E+03  0.59759422040E+03  0.00000000000E+00 0. -1.
          6    1    1    2  501    0  0.59809240285E+02  0.15022919013E+03 -0.18048779892E+03  0.29774284265E+03  0.17300000000E+03 0. -1.
         -6    1    1    2    0  502 -0.59809240285E+02 -0.15022919013E+03 -0.31937272429E+03  0.39758507494E+03  0.17300000000E+03 0. -1.
<mgrwt>
<rscale>  2 0.23680151E+03</rscale>
<asrwt>0</asrwt>
<pdfrwt beam="1">  1       21 0.15035954E-01 0.23680151E+03</pdfrwt>
<pdfrwt beam="2">  1       21 0.91937571E-01 0.23680151E+03</pdfrwt>
<totfact> 0.38194248E+04</totfact>
</mgrwt>
</event>
<event>
 4    2  0.3903561E+000  0.1949559E+03  0.7546771E-02  0.1154066E+00
         21   -1    0    0  503  502  0.00000000000E+00  0.00000000000E+00  0.65103970133E+02  0.65103970133E+02  0.00000000000E+00 0.  1.
         21   -1    0    0  501  503 -0.00000000000E+00 -0.00000000000E+00 -0.62603963648E+03  0.62603963648E+03  0.00000000000E+00 0. -1.
          6    1    1    2  501    0 -0.26393696373E+02 -0.85919508986E+02 -0.37022936328E+03  0.41842271767E+03  0.17300000000E+03 0. -1.
         -6    1    1    2    0  502  0.26393696373E+02  0.85919508986E+02 -0.19070630306E+03  0.27272088893E+03  0.17300000000E+03 0.  1.
<mgrwt>
<rscale>  2 0.19495586E+03</rscale>
<asrwt>0</asrwt>
<pdfrwt beam="1">  1       21 0.10015996E-01 0.19495586E+03</pdfrwt>
<pdfrwt beam="2">  1       21 0.96313789E-01 0.19495586E+03</pdfrwt>
<totfact> 0.72506079E+04</totfact>
</mgrwt>
</event>
<event>
 4    2  0.3903561E+000  0.2727531E+03  0.7546771E-02  0.1099714E+00
         21   -1    0    0  501  502  0.00000000000E+00  0.00000000000E+00  0.11710813823E+03  0.11710813823E+03  0.00000000000E+00 0. -1.
         21   -1    0    0  502  503 -0.00000000000E+00 -0.00000000000E+00 -0.63577761636E+03  0.63577761636E+03  0.00000000000E+00 0.  1.
          6    1    1    2  501    0 -0.13603107412E+03 -0.16112359332E+03 -0.27006262236E+03  0.38383340845E+03  0.17300000000E+03 0.  1.
         -6    1    1    2    0  503  0.13603107412E+03  0.16112359332E+03 -0.24860685577E+03  0.36905234613E+03  0.17300000000E+03 0. -1.
<mgrwt>
<rscale>  2 0.27275312E+03</rscale>
<asrwt>0</asrwt>
<pdfrwt beam="1">  1       21 0.18016637E-01 0.27275312E+03</pdfrwt>
<pdfrwt beam="2">  1       21 0.97811941E-01 0.27275312E+03</pdfrwt>
<totfact> 0.23252558E+04</totfact>
</mgrwt>
</event>
<event>
 4    2  0.3903561E+000  0.3258487E+03  0.7546771E-02  0.1072989E+00
         21   -1    0    0  501  502  0.00000000000E+00  0.00000000000E+00  0.70460872454E+02  0.70460872454E+02  0.00000000000E+00 0.  1.
         21   -1    0    0  502  503 -0.00000000000E+00 -0.00000000000E+00 -0.17225254207E+04  0.17225254207E+04  0.00000000000E+00 0. -1.
          6    1    1    2  501    0 -0.26729547999E+03  0.69293102174E+02 -0.50884533758E+03  0.60423586885E+03  0.17300000000E+03 0.  1.
         -6    1    1    2    0  503  0.26729547999E+03 -0.69293102174E+02 -0.11432192106E+04  0.11887504243E+04  0.17300000000E+03 0. -1.
<mgrwt>
<rscale>  2 0.32584875E+03</rscale>
<asrwt>0</asrwt>
<pdfrwt beam="1">  1       21 0.10840135E-01 0.32584875E+03</pdfrwt>
<pdfrwt beam="2">  1       21 0.26500388E+00 0.32584875E+03</pdfrwt>
<totfact> 0.34135398E+03</totfact>
</mgrwt>
</event>
<event>
 4    2  0.3903561E+000  0.2208964E+03  0.7546771E-02  0.1133217E+00
         21   -1    0    0  503  502  0.00000000000E+00  0.00000000000E+00  0.11945502682E+02  0.11945502682E+02  0.00000000000E+00 0. -1.
         21   -1    0    0  501  503 -0.00000000000E+00 -0.00000000000E+00 -0.42583395104E+04  0.42583395104E+04  0.00000000000E+00 0.  1.
          6    1    1    2  501    0  0.12019001004E+03 -0.66487513425E+02 -0.25542006200E+04  0.25637347825E+04  0.17300000000E+03 0.  1.
         -6    1    1    2    0  502 -0.12019001004E+03  0.66487513425E+02 -0.16921933877E+04  0.17065502305E+04  0.17300000000E+03 0.  1.
<mgrwt>
<rscale>  2 0.22089642E+03</rscale>
<asrwt>0</asrwt>
<pdfrwt beam="1">  1       21 0.18377686E-02 0.22089642E+03</pdfrwt>
<pdfrwt beam="2">  1       21 0.65512951E+00 0.22089642E+03</pdfrwt>
<totfact> 0.16526194E+02</totfact>
</mgrwt>
</event>
<event>
 4    2  0.3903561E+000  0.2661306E+03  0.7546771E-02  0.1103515E+00
         21   -1    0    0  501  502  0.00000000000E+00  0.00000000000E+00  0.16828151424E+03  0.16828151424E+03  0.00000000000E+00 0.  1.
         21   -1    0    0  502  503 -0.00000000000E+00 -0.00000000000E+00 -0.16075388585E+04  0.16075388585E+04  0.00000000000E+00 0. -1.
          6    1    1    2  501    0 -0.18603931741E+03 -0.79283594902E+02  0.43244108591E+02  0.26962115824E+03  0.17300000000E+03 0.  1.
         -6    1    1    2    0  503  0.18603931741E+03  0.79283594902E+02 -0.14825014528E+04  0.15061992145E+04  0.17300000000E+03 0. -1.
<mgrwt>
<rscale>  2 0.26613064E+03</rscale>
<asrwt>0</asrwt>
<pdfrwt beam="1">  1       21 0.25889464E-01 0.26613064E+03</pdfrwt>
<pdfrwt beam="2">  1       21 0.24731367E+00 0.26613064E+03</pdfrwt>
<totfact> 0.90391785E+02</totfact>
</mgrwt>
</event>
<event>
 4    2  0.3903561E+000  0.1844178E+03  0.7546771E-02  0.1163595E+00
         21   -1    0    0  503  502  0.00000000000E+00  0.00000000000E+00  0.31740549005E+03  0.31740549005E+03  0.00000000000E+00 0. -1.
         21   -1    0    0  501  503 -0.00000000000E+00 -0.00000000000E+00 -0.11153277969E+03  0.11153277969E+03  0.00000000000E+00 0. -1.
          6    1    1    2  501    0 -0.49319139697E+02  0.40602317720E+02  0.60420621678E+02  0.19406333314E+03  0.17300000000E+03 0. -1.
         -6    1    1    2    0  502  0.49319139697E+02 -0.40602317720E+02  0.14545208868E+03  0.23487493661E+03  0.17300000000E+03 0. -1.
<mgrwt>
<rscale>  2 0.18441780E+03</rscale>
<asrwt>0</asrwt>
<pdfrwt beam="1">  1       21 0.48831614E-01 0.18441780E+03</pdfrwt>
<pdfrwt beam="2">  1       21 0.17158889E-01 0.18441780E+03</pdfrwt>
<totfact> 0.12310485E+05</totfact>
</mgrwt>
</event>
<event>
 4    2  0.3903561E+000  0.3046766E+03  0.7546771E-02  0.1082926E+00
         21   -1    0    0  501  502  0.00000000000E+00  0.00000000000E+00  0.15811394882E+04  0.15811394882E+04  0.00000000000E+00 0. -1.
         21   -1    0    0  502  503 -0.00000000000E+00 -0.00000000000E+00 -0.75176173448E+02  0.75176173448E+02  0.00000000000E+00 0.  1.
          6    1    1    2  501    0  0.25004820389E+03  0.19358137500E+02  0.11405751709E+04  0.11805674746E+04  0.17300000000E+03 0. -1.
         -6    1    1    2    0  503 -0.25004820389E+03 -0.19358137500E+02  0.36538814388E+03  0.47574818701E+03  0.17300000000E+03 0.  1.
<mgrwt>
<rscale>  2 0.30467662E+03</rscale>
<asrwt>0</asrwt>
<pdfrwt beam="1">  1       21 0.24325220E+00 0.30467662E+03</pdfrwt>
<pdfrwt beam="2">  1       21 0.11565566E-01 0.30467662E+03</pdfrwt>
<totfact> 0.41635256E+03</totfact>
</mgrwt>
</event>
<event>
 4    2  0.3903561E+000  0.1958017E+03  0.7546771E-02  0.1153330E+00
         21   -1    0    0  501  502  0.00000000000E+00  0.00000000000E+00  0.14199075905E+04  0.14199075905E+04  0.00000000000E+00 0. -1.
         21   -1    0    0  502  503 -0.00000000000E+00 -0.00000000000E+00 -0.26951979537E+03  0.26951979537E+03  0.00000000000E+00 0. -1.
          6    1    1    2  501    0 -0.27696966899E+02 -0.87419573903E+02  0.13764794142E+04  0.13903358880E+04  0.17300000000E+03 0. -1.
         -6    1    1    2    0  503  0.27696966899E+02  0.87419573903E+02 -0.22609161905E+03  0.29909149784E+03  0.17300000000E+03 0. -1.
<mgrwt>
<rscale>  2 0.19580170E+03</rscale>
<asrwt>0</asrwt>
<pdfrwt beam="1">  1       21 0.21844732E+00 0.19580170E+03</pdfrwt>
<pdfrwt beam="2">  1       21 0.41464585E-01 0.19580170E+03</pdfrwt>
<totfact> 0.57367945E+02</totfact>
</mgrwt>
</event>
<event>
 4    2  0.3903561E+000  0.1798876E+03  0.7546771E-02  0.1167912E+00
         21   -1    0    0  503  502  0.00000000000E+00  0.00000000000E+00  0.54832581527E+03  0.54832581527E+03  0.00000000000E+00 0.  1.
         21   -1    0    0  501  503 -0.00000000000E+00 -0.00000000000E+00 -0.14867996423E+03  0.14867996423E+03  0.00000000000E+00 0.  1.
          6    1    1    2  501    0  0.15374089409E+02  0.46842312398E+02 -0.70816481498E+02  0.19332495676E+03  0.17300000000E+03 0.  1.
         -6    1    1    2    0  502 -0.15374089409E+02 -0.46842312398E+02  0.47046233254E+03  0.50368082274E+03  0.17300000000E+03 0.  1.
<mgrwt>
<rscale>  2 0.17988765E+03</rscale>
<asrwt>0</asrwt>
<pdfrwt beam="1">  1       21 0.84357817E-01 0.17988765E+03</pdfrwt>
<pdfrwt beam="2">  1       21 0.22873841E-01 0.17988765E+03</pdfrwt>
<totfact> 0.22032274E+04</totfact>
</mgrwt>
</event>
<event>
 4    2  0.3903561E+000  0.1825028E+03  0.7546771E-02  0.1165403E+00
         21   -1    0    0  501  502  0.00000000000E+00  0.00000000000E+00  0.80082137749E+03  0.80082137749E+03  0.00000000000E+00 0. -1.
         21   -1    0    0  502  503 -0.00000000000E+00 -0.00000000000E+00 -0.45385872411E+02  0.45385872411E+02  0.00000000000E+00 0. -1.
          6    1    1    2  501    0  0.38637642113E+02 -0.43421259747E+02  0.50005613920E+03  0.53231890398E+03  0.17300000000E+03 0.  1.
         -6    1    1    2    0  503 -0.38637642113E+02  0.43421259747E+02  0.25537936588E+03  0.31388834592E+03  0.17300000000E+03 0.  1.
<mgrwt>
<rscale>  2 0.18250280E+03</rscale>
<asrwt>0</asrwt>
<pdfrwt beam="1">  1       21 0.12320328E+00 0.18250280E+03</pdfrwt>
<pdfrwt beam="2">  1       21 0.69824425E-02 0.18250280E+03</pdfrwt>
<totfact> 0.75500674E+04</totfact>
</mgrwt>
</event>
<event>
 4    2  0.3903561E+000  0.2134655E+03  0.7546771E-02  0.1138851E+00
         21   -1    0    0  501  502  0.00000000000E+00  0.00000000000E+00  0.15906671826E+04  0.15906671826E+04  0.00000000000E+00 0.  1.
         21   -1    0    0  502  503 -0.00000000000E+00 -0.00000000000E+00 -0.45663858248E+02  0.45663858248E+02  0.00000000000E+00 0.  1.
          6    1    1    2  501    0  0.11541223364E+03 -0.48151037847E+02  0.12719576947E+04  0.12897456661E+04  0.17300000000E+03 0.  1.
         -6    1    1    2    0  503 -0.11541223364E+03  0.48151037847E+02  0.27304562967E+03  0.34658537477E+03  0.17300000000E+03 0.  1.
<mgrwt>
<rscale>  2 0.21346547E+03</rscale>
<asrwt>0</asrwt>
<pdfrwt beam="1">  1       21 0.24471799E+00 0.21346547E+03</pdfrwt>
<pdfrwt beam="2">  1       21 0.70252102E-02 0.21346547E+03</pdfrwt>
<totfact> 0.10538694E+04</totfact>
</mgrwt>
</event>
<event>
 4    2  0.3903561E+000  0.1807571E+03  0.7546771E-02  0.1167072E+00
         21   -1    0    0  503  502  0.00000000000E+00  0.00000000000E+00  0.14393408522E+04  0.14393408522E+04  0.00000000000E+00 0. -1.
         21   -1    0    0  501  503 -0.00000000000E+00 -0.00000000000E+00 -0.86063151387E+02  0.86063151387E+02  0.00000000000E+00 0. -1.
          6    1    1    2  501    0  0.32550742092E+02  0.41043433446E+02  0.22206943475E+02  0.18211606897E+03  0.17300000000E+03 0. -1.
         -6    1    1    2    0  502 -0.32550742092E+02 -0.41043433446E+02  0.13310707574E+04  0.13432879347E+04  0.17300000000E+03 0. -1.
<mgrwt>
<rscale>  2 0.18075706E+03</rscale>
<asrwt>0</asrwt>
<pdfrwt beam="1">  1       21 0.22143704E+00 0.18075706E+03</pdfrwt>
<pdfrwt beam="2">  1       21 0.13240486E-01 0.18075706E+03</pdfrwt>
<totfact> 0.49059474E+03</totfact>
</mgrwt>
</event>
<event>
 4    2  0.3903561E+000  0.1842604E+03  0.7546771E-02  0.1163742E+00
         21   -1    0    0  503  502  0.00000000000E+00  0.00000000000E+00  0.26720409359E+03  0.26720409359E+03  0.00000000000E+00 0.  1.
         21   -1    0    0  501  503 -0.00000000000E+00 -0.00000000000E+00 -0.12718088544E+03  0.12718088544E+03  0.00000000000E+00 0.  1.
          6    1    1    2  501    0  0.42946082899E+02 -0.46674642286E+02  0.76002340010E+02  0.19931945203E+03  0.17300000000E+03 0.  1.
         -6    1    1    2    0  502 -0.42946082899E+02  0.46674642286E+02  0.64020868140E+02  0.19506552701E+03  0.17300000000E+03 0.  1.
<mgrwt>
<rscale>  2 0.18426038E+03</rscale>
<asrwt>0</asrwt>
<pdfrwt beam="1">  1       21 0.41108322E-01 0.18426038E+03</pdfrwt>
<pdfrwt beam="2">  1       21 0.19566290E-01 0.18426038E+03</pdfrwt>
<totfact> 0.13743436E+05</totfact>
</mgrwt>
</event>
<event>
 4    2  0.3903561E+000  0.1958324E+03  0.7546771E-02  0.1153304E+00
         21   -1    0    0  501  502  0.00000000000E+00  0.00000000000E+00  0.80672948327E+03  0.80672948327E+03  0.00000000000E+00 0. -1.
         21   -1    0    0  502  503 -0.00000000000E+00 -0.00000000000E+00 -0.50148391428E+02  0.50148391428E+02  0.00000000000E+00 0.  1.
          6    1    1    2  501    0 -0.91023926739E+02 -0.11661147072E+02  0.47603902484E+03  0.51474604492E+03  0.17300000000E+03 0. -1.
         -6    1    1    2    0  503  0.91023926739E+02  0.11661147072E+02  0.28054206700E+03  0.34213182978E+03  0.17300000000E+03 0.  1.
<mgrwt>
<rscale>  2 0.19583242E+03</rscale>
<asrwt>0</asrwt>
<pdfrwt beam="1">  1       21 0.12411222E+00 0.19583242E+03</pdfrwt>
<pdfrwt beam="2">  1       21 0.77151377E-02 0.19583242E+03</pdfrwt>
<totfact> 0.61966317E+04</totfact>
</mgrwt>
</event>
<event>
 4    2  0.3903561E+000  0.2482385E+03  0.7546771E-02  0.1114423E+00
         21   -1    0    0  501  502  0.00000000000E+00  0.00000000000E+00  0.47299887112E+03  0.47299887112E+03  0.00000000000E+00 0.  1.
         21   -1    0    0  502  503 -0.00000000000E+00 -0.00000000000E+00 -0.13099927314E+03  0.13099927314E+03  0.00000000000E+00 0. -1.
          6    1    1    2  501    0  0.17406736141E+03  0.37334818029E+02  0.19337625312E+03  0.31466920760E+03  0.17300000000E+03 0. -1.
         -6    1    1    2    0  503 -0.17406736141E+03 -0.37334818029E+02  0.14862334486E+03  0.28932893665E+03  0.17300000000E+03 0.  1.
<mgrwt>
<rscale>  2 0.24823846E+03</rscale>
<asrwt>0</asrwt>
<pdfrwt beam="1">  1       21 0.72769057E-01 0.24823846E+03</pdfrwt>
<pdfrwt beam="2">  1       21 0.20153734E-01 0.24823846E+03</pdfrwt>
<totfact> 0.37668333E+04</totfact>
</mgrwt>
</event>
<event>
 4    2  0.3903561E+000  0.2783176E+03  0.7546771E-02  0.1096611E+00
         21   -1    0    0  501  502  0.00000000000E+00  0.00000000000E+00  0.62401862227E+02  0.62401862227E+02  0.00000000000E+00 0.  1.
         21   -1    0    0  502  503 -0.00000000000E+00 -0.00000000000E+00 -0.12480191616E+04  0.12480191616E+04  0.00000000000E+00 0.  1.
          6    1    1    2  501    0 -0.90966150850E+02 -0.19813346869E+03 -0.54480617493E+03  0.61177976451E+03  0.17300000000E+03 0.  1.
         -6    1    1    2    0  503  0.90966150850E+02  0.19813346869E+03 -0.64081112445E+03  0.69864125933E+03  0.17300000000E+03 0.  1.
<mgrwt>
<rscale>  2 0.27831765E+03</rscale>
<asrwt>0</asrwt>
<pdfrwt beam="1">  1       21 0.96002860E-02 0.27831765E+03</pdfrwt>
<pdfrwt beam="2">  1       21 0.19200296E+00 0.27831765E+03</pdfrwt>
<totfact> 0.12447715E+04</totfact>
</mgrwt>
</event>
<event>
 4    2  0.3903561E+000  0.2063580E+03  0.7546771E-02  0.1144483E+00
         21   -1    0    0  501  502  0.00000000000E+00  0.00000000000E+00  0.45148273416E+03  0.45148273416E+03  0.00000000000E+00 0.  1.
         21   -1    0    0  502  503 -0.00000000000E+00 -0.00000000000E+00 -0.17678861375E+03  0.17678861375E+03  0.00000000000E+00 0. -1.
          6    1    1    2  501    0  0.32156507052E+02  0.10779871623E+03  0.35190070815E+03  0.40794327126E+03  0.17300000000E+03 0.  1.
         -6    1    1    2    0  503 -0.32156507052E+02 -0.10779871623E+03 -0.77206587747E+02  0.22032807665E+03  0.17300000000E+03 0. -1.
<mgrwt>
<rscale>  2 0.20635795E+03</rscale>
<asrwt>0</asrwt>
<pdfrwt beam="1">  1       21 0.69458882E-01 0.20635795E+03</pdfrwt>
<pdfrwt beam="2">  1       21 0.27198249E-01 0.20635795E+03</pdfrwt>
<totfact> 0.24096979E+04</totfact>
</mgrwt>
</event>
<event>
 4    2  0.3903561E+000  0.2138748E+03  0.7546771E-02  0.1138534E+00
         21   -1    0    0  503  502  0.00000000000E+00  0.00000000000E+00  0.24327894674E+03  0.24327894674E+03  0.00000000000E+00 0. -1.
         21   -1    0    0  501  503 -0.00000000000E+00 -0.00000000000E+00 -0.33908423704E+03  0.33908423704E+03  0.00000000000E+00 0. -1.
          6    1    1    2  501    0  0.76070980884E+02  0.10013299335E+03 -0.24225259337E+03  0.32315434314E+03  0.17300000000E+03 0. -1.
         -6    1    1    2    0  502 -0.76070980884E+02 -0.10013299335E+03  0.14644730307E+03  0.25920884064E+03  0.17300000000E+03 0. -1.
<mgrwt>
<rscale>  2 0.21387475E+03</rscale>
<asrwt>0</asrwt>
<pdfrwt beam="1">  1       21 0.37427530E-01 0.21387475E+03</pdfrwt>
<pdfrwt beam="2">  1       21 0.52166806E-01 0.21387475E+03</pdfrwt>
<totfact> 0.23718079E+04</totfact>
</mgrwt>
</event>
<event>
 4    2  0.3903561E+000  0.1768436E+03  0.7546771E-02  0.1170893E+00
         21   -1    0    0  501  502  0.00000000000E+00  0.00000000000E+00  0.17259005579E+03  0.17259005579E+03  0.00000000000E+00 0.  1.
         21   -1    0    0  502  503 -0.00000000000E+00 -0.00000000000E+00 -0.26281300028E+03  0.26281300028E+03  0.00000000000E+00 0.  1.
          6    1    1    2  501    0  0.35979797438E+02 -0.70798365118E+01  0.76202913520E+02  0.19256311676E+03  0.17300000000E+03 0.  1.
         -6    1    1    2    0  503 -0.35979797438E+02  0.70798365118E+01 -0.16642585801E+03  0.24283993931E+03  0.17300000000E+03 0.  1.
<mgrwt>
<rscale>  2 0.17684363E+03</rscale>
<asrwt>0</asrwt>
<pdfrwt beam="1">  1       21 0.26552316E-01 0.17684363E+03</pdfrwt>
<pdfrwt beam="2">  1       21 0.40432769E-01 0.17684363E+03</pdfrwt>
<totfact> 0.80060762E+04</totfact>
</mgrwt>
</event>
<event>
 4    2  0.3903561E+000  0.1780544E+03  0.7546771E-02  0.1169699E+00
         21   -1    0    0  503  502  0.00000000000E+00  0.00000000000E+00  0.12557057761E+04  0.12557057761E+04  0.00000000000E+00 0. -1.
         21   -1    0    0  501  503 -0.00000000000E+00 -0.00000000000E+00 -0.27759115528E+02  0.27759115528E+02  0.00000000000E+00 0. -1.
          6    1    1    2  501    0  0.32823985661E+02  0.26399944543E+02  0.42094016640E+03  0.45704922579E+03  0.17300000000E+03 0. -1.
         -6    1    1    2    0  502 -0.32823985661E+02 -0.26399944543E+02  0.80700649414E+03  0.82641566580E+03  0.17300000000E+03 0. -1.
<mgrwt>
<rscale>  2 0.17805440E+03</rscale>
<asrwt>0</asrwt>
<pdfrwt beam="1">  1       21 0.19318546E+00 0.17805440E+03</pdfrwt>
<pdfrwt beam="2">  1       21 0.42706341E-02 0.17805440E+03</pdfrwt>
<totfact> 0.52671695E+04</totfact>
</mgrwt>
</event>
<event>
 4    2  0.3903561E+000  0.1757962E+03  0.7546771E-02  0.1171935E+00
         21   -1    0    0  501  502  0.00000000000E+00  0.00000000000E+00  0.74649386051E+02  0.74649386051E+02  0.00000000000E+00 0.  1.
         21   -1    0    0  502  503 -0.00000000000E+00 -0.00000000000E+00 -0.41431966470E+03  0.41431966470E+03  0.00000000000E+00 0.  1.
          6    1    1    2  501    0  0.18932011643E+02 -0.24837081040E+02 -0.16296718904E+03  0.23971359236E+03  0.17300000000E+03 0.  1.
         -6    1    1    2    0  503 -0.18932011643E+02  0.24837081040E+02 -0.17670308961E+03  0.24925545839E+03  0.17300000000E+03 0.  1.
<mgrwt>
<rscale>  2 0.17579619E+03</rscale>
<asrwt>0</asrwt>
<pdfrwt beam="1">  1       21 0.11484521E-01 0.17579619E+03</pdfrwt>
<pdfrwt beam="2">  1       21 0.63741486E-01 0.17579619E+03</pdfrwt>
<totfact> 0.14516151E+05</totfact>
</mgrwt>
</event>
<event>
 4    2  0.3903561E+000  0.2426077E+03  0.7546771E-02  0.1118068E+00
         21   -1    0    0  503  502  0.00000000000E+00  0.00000000000E+00  0.72270781887E+03  0.72270781887E+03  0.00000000000E+00 0.  1.
         21   -1    0    0  501  503 -0.00000000000E+00 -0.00000000000E+00 -0.11825071440E+03  0.11825071440E+03  0.00000000000E+00 0.  1.
          6    1    1    2  501    0  0.83686843724E+02  0.14807439528E+03  0.67632817130E+02  0.25185851644E+03  0.17300000000E+03 0.  1.
         -6    1    1    2    0  502 -0.83686843724E+02 -0.14807439528E+03  0.53682428735E+03  0.58910001683E+03  0.17300000000E+03 0.  1.
<mgrwt>
<rscale>  2 0.24260774E+03</rscale>
<asrwt>0</asrwt>
<pdfrwt beam="1">  1       21 0.11118582E+00 0.24260774E+03</pdfrwt>
<pdfrwt beam="2">  1       21 0.18192418E-01 0.24260774E+03</pdfrwt>
<totfact> 0.17001833E+04</totfact>
</mgrwt>
</event>
<event>
 4    2  0.3903561E+000  0.1961782E+03  0.7546771E-02  0.1153004E+00
         21   -1    0    0  503  502  0.00000000000E+00  0.00000000000E+00  0.23237394139E+03  0.23237394139E+03  0.00000000000E+00 0.  1.
         21   -1    0    0  501  503 -0.00000000000E+00 -0.00000000000E+00 -0.39546615567E+03  0.39546615567E+03  0.00000000000E+00 0.  1.
          6    1    1    2  501    0  0.91997898112E+02 -0.96579466695E+01 -0.32086806008E+03  0.37608802316E+03  0.17300000000E+03 0.  1.
         -6    1    1    2    0  502 -0.91997898112E+02  0.96579466695E+01  0.15777584580E+03  0.25175207389E+03  0.17300000000E+03 0.  1.
<mgrwt>
<rscale>  2 0.19617821E+03</rscale>
<asrwt>0</asrwt>
<pdfrwt beam="1">  1       21 0.35749837E-01 0.19617821E+03</pdfrwt>
<pdfrwt beam="2">  1       21 0.60840947E-01 0.19617821E+03</pdfrwt>
<totfact> 0.18933314E+04</totfact>
</mgrwt>
</event>
<event>
 4    2  0.3903561E+000  0.1946637E+03  0.7546771E-02  0.1154321E+00
         21   -1    0    0  501  502  0.00000000000E+00  0.00000000000E+00  0.12230931130E+04  0.12230931130E+04  0.00000000000E+00 0. -1.
         21   -1    0    0  502  503 -0.00000000000E+00 -0.00000000000E+00 -0.33469914152E+02  0.33469914152E+02  0.00000000000E+00 0.  1.
          6    1    1    2  501    0 -0.44947632386E+02  0.77101581533E+02  0.42351864934E+03  0.46611370917E+03  0.17300000000E+03 0.  1.
         -6    1    1    2    0  503  0.44947632386E+02 -0.77101581533E+02  0.76610454950E+03  0.79044931798E+03  0.17300000000E+03 0.  1.
<mgrwt>
<rscale>  2 0.19466367E+03</rscale>
<asrwt>0</asrwt>
<pdfrwt beam="1">  1       21 0.18816814E+00 0.19466367E+03</pdfrwt>
<pdfrwt beam="2">  1       21 0.51492185E-02 0.19466367E+03</pdfrwt>
<totfact> 0.40986748E+04</totfact>
</mgrwt>
</event>
<event>
 4    2  0.3903561E+000  0.2486755E+03  0.7546771E-02  0.1114145E+00
         21   -1    0    0  501  502  0.00000000000E+00  0.00000000000E+00  0.16600447457E+03  0.16600447457E+03  0.00000000000E+00 0. -1.
         21   -1    0    0  502  503 -0.00000000000E+00 -0.00000000000E+00 -0.41139182674E+03  0.41139182674E+03  0.00000000000E+00 0. -1.
          6    1    1    2  501    0 -0.18587709429E+01  0.17862539004E+03 -0.21144003326E+03  0.32641441858E+03  0.17300000000E+03 0. -1.
         -6    1    1    2    0  503  0.18587709429E+01 -0.17862539004E+03 -0.33947318917E+02  0.25098188273E+03  0.17300000000E+03 0. -1.
<mgrwt>
<rscale>  2 0.24867546E+03</rscale>
<asrwt>0</asrwt>
<pdfrwt beam="1">  1       21 0.25539150E-01 0.24867546E+03</pdfrwt>
<pdfrwt beam="2">  1       21 0.63291050E-01 0.24867546E+03</pdfrwt>
<totfact> 0.32661712E+04</totfact>
</mgrwt>
</event>
<event>
 4    2  0.3903561E+000  0.2065324E+03  0.7546771E-02  0.1144342E+00
         21   -1    0    0  501  502  0.00000000000E+00  0.00000000000E+00  0.15673852429E+04  0.15673852429E+04  0.00000000000E+00 0.  1.
         21   -1    0    0  502  503 -0.00000000000E+00 -0.00000000000E+00 -0.27215663906E+02  0.27215663906E+02  0.00000000000E+00 0. -1.
          6    1    1    2  501    0 -0.11190062366E+03  0.14313535618E+02  0.76490114937E+03  0.79229375561E+03  0.17300000000E+03 0. -1.
         -6    1    1    2    0  503  0.11190062366E+03 -0.14313535618E+02  0.77526842958E+03  0.80230715115E+03  0.17300000000E+03 0.  1.
<mgrwt>
<rscale>  2 0.20653239E+03</rscale>
<asrwt>0</asrwt>
<pdfrwt beam="1">  1       21 0.24113612E+00 0.20653239E+03</pdfrwt>
<pdfrwt beam="2">  1       21 0.41870264E-02 0.20653239E+03</pdfrwt>
<totfact> 0.26921546E+04</totfact>
</mgrwt>
</event>
<event>
 4    2  0.3903561E+000  0.2021701E+03  0.7546771E-02  0.1147921E+00
         21   -1    0    0  503  502  0.00000000000E+00  0.00000000000E+00  0.27321663980E+03  0.27321663980E+03  0.00000000000E+00 0.  1.
         21   -1    0    0  501  503 -0.00000000000E+00 -0.00000000000E+00 -0.15012115892E+03  0.15012115892E+03  0.00000000000E+00 0.  1.
          6    1    1    2  501    0  0.29627072366E+02  0.10032928938E+03  0.49055183371E+02  0.20803639283E+03  0.17300000000E+03 0.  1.
         -6    1    1    2    0  502 -0.29627072366E+02 -0.10032928938E+03  0.74040297506E+02  0.21530140589E+03  0.17300000000E+03 0.  1.
<mgrwt>
<rscale>  2 0.20217005E+03</rscale>
<asrwt>0</asrwt>
<pdfrwt beam="1">  1       21 0.42033329E-01 0.20217005E+03</pdfrwt>
<pdfrwt beam="2">  1       21 0.23095563E-01 0.20217005E+03</pdfrwt>
<totfact> 0.95554630E+04</totfact>
</mgrwt>
</event>
<event>
 4    2  0.3903561E+000  0.1735716E+03  0.7546771E-02  0.1174174E+00
         21   -1    0    0  503  502  0.00000000000E+00  0.00000000000E+00  0.70620034935E+02  0.70620034935E+02  0.00000000000E+00 0. -1.
         21   -1    0    0  501  503 -0.00000000000E+00 -0.00000000000E+00 -0.16387099343E+04  0.16387099343E+04  0.00000000000E+00 0. -1.
          6    1    1    2  501    0  0.13911682018E+02 -0.21327764522E+01 -0.15190907666E+04  0.15289747679E+04  0.17300000000E+03 0. -1.
         -6    1    1    2    0  502 -0.13911682018E+02  0.21327764522E+01 -0.48999132713E+02  0.18035520131E+03  0.17300000000E+03 0. -1.
<mgrwt>
<rscale>  2 0.17357155E+03</rscale>
<asrwt>0</asrwt>
<pdfrwt beam="1">  1       21 0.10864620E-01 0.17357155E+03</pdfrwt>
<pdfrwt beam="2">  1       21 0.25210923E+00 0.17357155E+03</pdfrwt>
<totfact> 0.46233417E+03</totfact>
</mgrwt>
</event>
<event>
 4    2  0.3903561E+000  0.1743211E+03  0.7546771E-02  0.1173415E+00
         21   -1    0    0  501  502  0.00000000000E+00  0.00000000000E+00  0.18429494686E+03  0.18429494686E+03  0.00000000000E+00 0. -1.
         21   -1    0    0  502  503 -0.00000000000E+00 -0.00000000000E+00 -0.23756442933E+03  0.23756442933E+03  0.00000000000E+00 0. -1.
          6    1    1    2  501    0 -0.21419514207E+02 -0.23869095283E+00  0.90031872654E+02  0.19619783550E+03  0.17300000000E+03 0. -1.
         -6    1    1    2    0  503  0.21419514207E+02  0.23869095283E+00 -0.14330135512E+03  0.22566154068E+03  0.17300000000E+03 0. -1.
<mgrwt>
<rscale>  2 0.17432112E+03</rscale>
<asrwt>0</asrwt>
<pdfrwt beam="1">  1       21 0.28353069E-01 0.17432112E+03</pdfrwt>
<pdfrwt beam="2">  1       21 0.36548373E-01 0.17432112E+03</pdfrwt>
<totfact> 0.86486705E+04</totfact>
</mgrwt>
</event>
<event>
 4    2  0.3903561E+000  0.1789733E+03  0.7546771E-02  0.1168800E+00
         21   -1    0    0  501  502  0.00000000000E+00  0.00000000000E+00  0.16533257063E+04  0.16533257063E+04  0.00000000000E+00 0. -1.
         21   -1    0    0  502  503 -0.00000000000E+00 -0.00000000000E+00 -0.18096477836E+03  0.18096477836E+03  0.00000000000E+00 0. -1.
          6    1    1    2  501    0  0.43738183318E+02 -0.13762292852E+02  0.16028418756E+04  0.16128029972E+04  0.17300000000E+03 0. -1.
         -6    1    1    2    0  503 -0.43738183318E+02  0.13762292852E+02 -0.13048094772E+03  0.22148748746E+03  0.17300000000E+03 0. -1.
<mgrwt>
<rscale>  2 0.17897326E+03</rscale>
<asrwt>0</asrwt>
<pdfrwt beam="1">  1       21 0.25435779E+00 0.17897326E+03</pdfrwt>
<pdfrwt beam="2">  1       21 0.27840736E-01 0.17897326E+03</pdfrwt>
<totfact> 0.78638898E+02</totfact>
</mgrwt>
</event>
<event>
 4    2  0.3903561E+000  0.1849632E+03  0.7546771E-02  0.1163084E+00
         21   -1    0    0  501  502  0.00000000000E+00  0.00000000000E+00  0.27971418870E+03  0.27971418870E+03  0.00000000000E+00 0. -1.
         21   -1    0    0  502  503 -0.00000000000E+00 -0.00000000000E+00 -0.12286964060E+03  0.12286964060E+03  0.00000000000E+00 0. -1.
          6    1    1    2  501    0 -0.61566193585E+02 -0.22180907025E+02  0.64817637497E+02  0.19599161962E+03  0.17300000000E+03 0. -1.
         -6    1    1    2    0  503  0.61566193585E+02  0.22180907025E+02  0.92026910599E+02  0.20659220969E+03  0.17300000000E+03 0. -1.
<mgrwt>
<rscale>  2 0.18496321E+03</rscale>
<asrwt>0</asrwt>
<pdfrwt beam="1">  1       21 0.43032952E-01 0.18496321E+03</pdfrwt>
<pdfrwt beam="2">  1       21 0.18903022E-01 0.18496321E+03</pdfrwt>
<totfact> 0.13349213E+05</totfact>
</mgrwt>
</event>
<event>
 4    2  0.3903561E+000  0.2172857E+03  0.7546771E-02  0.1135923E+00
         21   -1    0    0  501  502  0.00000000000E+00  0.00000000000E+00  0.98730297012E+02  0.98730297012E+02  0.00000000000E+00 0. -1.
         21   -1    0    0  502  503 -0.00000000000E+00 -0.00000000000E+00 -0.51669116265E+03  0.51669116265E+03  0.00000000000E+00 0. -1.
          6    1    1    2  501    0 -0.52178352122E+02 -0.12067093331E+03 -0.29296407266E+03  0.36474786147E+03  0.17300000000E+03 0. -1.
         -6    1    1    2    0  503  0.52178352122E+02  0.12067093331E+03 -0.12499679297E+03  0.25067359819E+03  0.17300000000E+03 0. -1.
<mgrwt>
<rscale>  2 0.21728565E+03</rscale>
<asrwt>0</asrwt>
<pdfrwt beam="1">  1       21 0.15189277E-01 0.21728565E+03</pdfrwt>
<pdfrwt beam="2">  1       21 0.79490948E-01 0.21728565E+03</pdfrwt>
<totfact> 0.52869570E+04</totfact>
</mgrwt>
</event>
<event>
 4    2  0.3903561E+000  0.2205075E+03  0.7546771E-02  0.1133505E+00
         21   -1    0    0  501  502  0.00000000000E+00  0.00000000000E+00  0.63061738414E+02  0.63061738414E+02  0.00000000000E+00 0.  1.
         21   -1    0    0  502  503 -0.00000000000E+00 -0.00000000000E+00 -0.77878096255E+03  0.77878096255E+03  0.00000000000E+00 0.  1.
          6    1    1    2  501    0 -0.77977843627E+01  0.13650551528E+03 -0.39980610865E+03  0.45658349254E+03  0.17300000000E+03 0.  1.
         -6    1    1    2    0  503  0.77977843627E+01 -0.13650551528E+03 -0.31591311549E+03  0.38525920843E+03  0.17300000000E+03 0.  1.
<mgrwt>
<rscale>  2 0.22050751E+03</rscale>
<asrwt>0</asrwt>
<pdfrwt beam="1">  1       21 0.97018058E-02 0.22050751E+03</pdfrwt>
<pdfrwt beam="2">  1       21 0.11981246E+00 0.22050751E+03</pdfrwt>
<totfact> 0.44717870E+04</totfact>
</mgrwt>
</event>
<event>
 4    2  0.3903561E+000  0.1751056E+03  0.7546771E-02  0.1172626E+00
         21   -1    0    0  503  502  0.00000000000E+00  0.00000000000E+00  0.82942418250E+02  0.82942418250E+02  0.00000000000E+00 0.  1.
         21   -1    0    0  501  503 -0.00000000000E+00 -0.00000000000E+00 -0.78609150364E+03  0.78609150364E+03  0.00000000000E+00 0.  1.
          6    1    1    2  501    0  0.25006316648E+02  0.10374890747E+02 -0.66782618710E+03  0.69040116629E+03  0.17300000000E+03 0.  1.
         -6    1    1    2    0  502 -0.25006316648E+02 -0.10374890747E+02 -0.35322898285E+02  0.17863275560E+03  0.17300000000E+03 0.  1.
<mgrwt>
<rscale>  2 0.17510555E+03</rscale>
<asrwt>0</asrwt>
<pdfrwt beam="1">  1       21 0.12760372E-01 0.17510555E+03</pdfrwt>
<pdfrwt beam="2">  1       21 0.12093716E+00 0.17510555E+03</pdfrwt>
<totfact> 0.27516452E+04</totfact>
</mgrwt>
</event>
<event>
 4    2  0.3903561E+000  0.2060245E+03  0.7546771E-02  0.1144753E+00
         21   -1    0    0  503  502  0.00000000000E+00  0.00000000000E+00  0.64460054741E+03  0.64460054741E+03  0.00000000000E+00 0.  1.
         21   -1    0    0  501  503 -0.00000000000E+00 -0.00000000000E+00 -0.18254980050E+03  0.18254980050E+03  0.00000000000E+00 0.  1.
          6    1    1    2  501    0 -0.10443711897E+02 -0.11139122957E+03 -0.99649613248E+02  0.22885830237E+03  0.17300000000E+03 0.  1.
         -6    1    1    2    0  502  0.10443711897E+02  0.11139122957E+03  0.56170036016E+03  0.59829204553E+03  0.17300000000E+03 0.  1.
<mgrwt>
<rscale>  2 0.20602446E+03</rscale>
<asrwt>0</asrwt>
<pdfrwt beam="1">  1       21 0.99169314E-01 0.20602446E+03</pdfrwt>
<pdfrwt beam="2">  1       21 0.28084585E-01 0.20602446E+03</pdfrwt>
<totfact> 0.10047753E+04</totfact>
</mgrwt>
</event>
<event>
 4    2  0.3903561E+000  0.2274834E+03  0.7546771E-02  0.1128424E+00
         21   -1    0    0  503  502  0.00000000000E+00  0.00000000000E+00  0.50403277554E+03  0.50403277554E+03  0.00000000000E+00 0. -1.
         21   -1    0    0  501  503 -0.00000000000E+00 -0.00000000000E+00 -0.64152051420E+03  0.64152051420E+03  0.00000000000E+00 0. -1.
          6    1    1    2  501    0  0.34100762057E+02 -0.14372478842E+03 -0.59368967755E+03  0.63577992262E+03  0.17300000000E+03 0. -1.
         -6    1    1    2    0  502 -0.34100762057E+02  0.14372478842E+03  0.45620193888E+03  0.50977336712E+03  0.17300000000E+03 0. -1.
<mgrwt>
<rscale>  2 0.22748335E+03</rscale>
<asrwt>0</asrwt>
<pdfrwt beam="1">  1       21 0.77543504E-01 0.22748335E+03</pdfrwt>
<pdfrwt beam="2">  1       21 0.98695464E-01 0.22748335E+03</pdfrwt>
<totfact> 0.12099784E+03</totfact>
</mgrwt>
</event>
<event>
 4    2  0.3903561E+000  0.2340730E+03  0.7546771E-02  0.1123805E+00
         21   -1    0    0  501  502  0.00000000000E+00  0.00000000000E+00  0.17499262349E+03  0.17499262349E+03  0.00000000000E+00 0.  1.
         21   -1    0    0  502  503 -0.00000000000E+00 -0.00000000000E+00 -0.49906225428E+03  0.49906225428E+03  0.00000000000E+00 0.  1.
          6    1    1    2  501    0 -0.13127068319E+03 -0.87345178415E+02  0.43696507657E+02  0.23811668828E+03  0.17300000000E+03 0.  1.
         -6    1    1    2    0  503  0.13127068319E+03  0.87345178415E+02 -0.36776613845E+03  0.43593818948E+03  0.17300000000E+03 0.  1.
<mgrwt>
<rscale>  2 0.23407301E+03</rscale>
<asrwt>0</asrwt>
<pdfrwt beam="1">  1       21 0.26921942E-01 0.23407301E+03</pdfrwt>
<pdfrwt beam="2">  1       21 0.76778807E-01 0.23407301E+03</pdfrwt>
<totfact> 0.19360551E+04</totfact>
</mgrwt>
</event>
<event>
 4    2  0.3903561E+000  0.2100360E+03  0.7546771E-02  0.1141538E+00
         21   -1    0    0  501  502  0.00000000000E+00  0.00000000000E+00  0.66814463362E+02  0.66814463362E+02  0.00000000000E+00 0.  1.
         21   -1    0    0  502  503 -0.00000000000E+00 -0.00000000000E+00 -0.66882428197E+03  0.66882428197E+03  0.00000000000E+00 0.  1.
          6    1    1    2  501    0  0.11910513587E+03 -0.26257582820E+00 -0.34262029634E+03  0.40187531624E+03  0.17300000000E+03 0.  1.
         -6    1    1    2    0  503 -0.11910513587E+03  0.26257582820E+00 -0.25938952227E+03  0.33376342909E+03  0.17300000000E+03 0.  1.
<mgrwt>
<rscale>  2 0.21003595E+03</rscale>
<asrwt>0</asrwt>
<pdfrwt beam="1">  1       21 0.10279148E-01 0.21003595E+03</pdfrwt>
<pdfrwt beam="2">  1       21 0.10289604E+00 0.21003595E+03</pdfrwt>
<totfact> 0.58770323E+04</totfact>
</mgrwt>
</event>
<event>
 4    2  0.3903561E+000  0.2058507E+03  0.7546771E-02  0.1144895E+00
         21   -1    0    0  501  502  0.00000000000E+00  0.00000000000E+00  0.21623257034E+02  0.21623257034E+02  0.00000000000E+00 0. -1.
         21   -1    0    0  502  503 -0.00000000000E+00 -0.00000000000E+00 -0.19912135209E+04  0.19912135209E+04  0.00000000000E+00 0. -1.
          6    1    1    2  501    0 -0.57335000431E+02 -0.95698624536E+02 -0.11114578998E+04  0.11303597622E+04  0.17300000000E+03 0. -1.
         -6    1    1    2    0  503  0.57335000431E+02  0.95698624536E+02 -0.85813236412E+03  0.88247701577E+03  0.17300000000E+03 0. -1.
<mgrwt>
<rscale>  2 0.20585074E+03</rscale>
<asrwt>0</asrwt>
<pdfrwt beam="1">  1       21 0.33266550E-02 0.20585074E+03</pdfrwt>
<pdfrwt beam="2">  1       21 0.30634053E+00 0.20585074E+03</pdfrwt>
<totfact> 0.16507580E+04</totfact>
</mgrwt>
</event>
<event>
 4    2  0.3903561E+000  0.2323216E+03  0.7546771E-02  0.1125016E+00
         21   -1    0    0  501  502  0.00000000000E+00  0.00000000000E+00  0.12378565281E+04  0.12378565281E+04  0.00000000000E+00 0.  1.
         21   -1    0    0  502  503 -0.00000000000E+00 -0.00000000000E+00 -0.54515681824E+02  0.54515681824E+02  0.00000000000E+00 0.  1.
          6    1    1    2  501    0 -0.11622525140E+03  0.10264506357E+03  0.88079016557E+03  0.91091417483E+03  0.17300000000E+03 0.  1.
         -6    1    1    2    0  503  0.11622525140E+03 -0.10264506357E+03  0.30255068068E+03  0.38145803507E+03  0.17300000000E+03 0.  1.
<mgrwt>
<rscale>  2 0.23232158E+03</rscale>
<asrwt>0</asrwt>
<pdfrwt beam="1">  1       21 0.19043944E+00 0.23232158E+03</pdfrwt>
<pdfrwt beam="2">  1       21 0.83870289E-02 0.23232158E+03</pdfrwt>
<totfact> 0.16641101E+04</totfact>
</mgrwt>
</event>
<event>
 4    2  0.3903561E+000  0.2098237E+03  0.7546771E-02  0.1141706E+00
         21   -1    0    0  501  502  0.00000000000E+00  0.00000000000E+00  0.62404275519E+02  0.62404275519E+02  0.00000000000E+00 0. -1.
         21   -1    0    0  502  503 -0.00000000000E+00 -0.00000000000E+00 -0.10813633752E+04  0.10813633752E+04  0.00000000000E+00 0. -1.
          6    1    1    2  501    0 -0.12477995387E+02  0.11807321529E+03 -0.17231715000E+03  0.27151277083E+03  0.17300000000E+03 0. -1.
         -6    1    1    2    0  503  0.12477995387E+02 -0.11807321529E+03 -0.84664194968E+03  0.87225487989E+03  0.17300000000E+03 0. -1.
<mgrwt>
<rscale>  2 0.20982370E+03</rscale>
<asrwt>0</asrwt>
<pdfrwt beam="1">  1       21 0.96006588E-02 0.20982370E+03</pdfrwt>
<pdfrwt beam="2">  1       21 0.16636358E+00 0.20982370E+03</pdfrwt>
<totfact> 0.19508337E+04</totfact>
</mgrwt>
</event>
<event>
 4    2  0.3903561E+000  0.2164114E+03  0.7546771E-02  0.1136587E+00
         21   -1    0    0  503  502  0.00000000000E+00  0.00000000000E+00  0.21280186948E+04  0.21280186948E+04  0.00000000000E+00 0. -1.
         21   -1    0    0  501  503 -0.00000000000E+00 -0.00000000000E+00 -0.30996587265E+02  0.30996587265E+02  0.00000000000E+00 0.  1.
          6    1    1    2  501    0  0.85991939709E+02  0.97520709620E+02  0.46719917491E+03  0.51488733868E+03  0.17300000000E+03 0.  1.
         -6    1    1    2    0  502 -0.85991939709E+02 -0.97520709620E+02  0.16298229326E+04  0.16441279434E+04  0.17300000000E+03 0. -1.
<mgrwt>
<rscale>  2 0.21641142E+03</rscale>
<asrwt>0</asrwt>
<pdfrwt beam="1">  1       21 0.32738738E+00 0.21641142E+03</pdfrwt>
<pdfrwt beam="2">  1       21 0.47687074E-02 0.21641142E+03</pdfrwt>
<totfact> 0.67288544E+03</totfact>
</mgrwt>
</event>
<event>
 4    2  0.3903561E+000  0.1910751E+03  0.7546771E-02  0.1157495E+00
         21   -1    0    0  501  502  0.00000000000E+00  0.00000000000E+00  0.56770278245E+03  0.56770278245E+03  0.00000000000E+00 0. -1.
         21   -1    0    0  502  503 -0.00000000000E+00 -0.00000000000E+00 -0.13490326244E+03  0.13490326244E+03  0.00000000000E+00 0. -1.
          6    1    1    2  501    0  0.81041713983E+02 -0.35949917349E+01  0.47052534955E+03  0.50784228649E+03  0.17300000000E+03 0. -1.
         -6    1    1    2    0  503 -0.81041713983E+02  0.35949917349E+01 -0.37725829549E+02  0.19476375840E+03  0.17300000000E+03 0. -1.
<mgrwt>
<rscale>  2 0.19107507E+03</rscale>
<asrwt>0</asrwt>
<pdfrwt beam="1">  1       21 0.87338889E-01 0.19107507E+03</pdfrwt>
<pdfrwt beam="2">  1       21 0.20754348E-01 0.19107507E+03</pdfrwt>
<totfact> 0.24273160E+04</totfact>
</mgrwt>
</event>
<event>
 4    2  0.3903561E+000  0.1745878E+03  0.7546771E-02  0.1173146E+00
         21   -1    0    0  503  502  0.00000000000E+00  0.00000000000E+00  0.19907197908E+04  0.19907197908E+04  0.00000000000E+00 0.  1.
         21   -1    0    0  501  503 -0.00000000000E+00 -0.00000000000E+00 -0.15314848318E+02  0.15314848318E+02  0.00000000000E+00 0.  1.
          6    1    1    2  501    0  0.14422460244E+01 -0.23448089152E+02  0.10025478871E+04  0.10176360641E+04  0.17300000000E+03 0.  1.
         -6    1    1    2    0  502 -0.14422460244E+01  0.23448089152E+02  0.97285705535E+03  0.98839857502E+03  0.17300000000E+03 0.  1.
<mgrwt>
<rscale>  2 0.17458778E+03</rscale>
<asrwt>0</asrwt>
<pdfrwt beam="1">  1       21 0.30626438E+00 0.17458778E+03</pdfrwt>
<pdfrwt beam="2">  1       21 0.23561321E-02 0.17458778E+03</pdfrwt>
<totfact> 0.30132178E+04</totfact>
</mgrwt>
</event>
<event>
 4    2  0.3903561E+000  0.1930614E+03  0.7546771E-02  0.1155729E+00
         21   -1    0    0  503  502  0.00000000000E+00  0.00000000000E+00  0.10758960850E+04  0.10758960850E+04  0.00000000000E+00 0. -1.
         21   -1    0    0  501  503 -0.00000000000E+00 -0.00000000000E+00 -0.44132292095E+02  0.44132292095E+02  0.00000000000E+00 0. -1.
          6    1    1    2  501    0 -0.83721426168E+02  0.18287321318E+02  0.25620791400E+03  0.32080398769E+03  0.17300000000E+03 0. -1.
         -6    1    1    2    0  502  0.83721426168E+02 -0.18287321318E+02  0.77555587894E+03  0.79922438944E+03  0.17300000000E+03 0. -1.
<mgrwt>
<rscale>  2 0.19306140E+03</rscale>
<asrwt>0</asrwt>
<pdfrwt beam="1">  1       21 0.16552245E+00 0.19306140E+03</pdfrwt>
<pdfrwt beam="2">  1       21 0.67895842E-02 0.19306140E+03</pdfrwt>
<totfact> 0.36595755E+04</totfact>
</mgrwt>
</event>
<event>
 4    2  0.3903561E+000  0.1900391E+03  0.7546771E-02  0.1158426E+00
         21   -1    0    0  503  502  0.00000000000E+00  0.00000000000E+00  0.13677101183E+03  0.13677101183E+03  0.00000000000E+00 0. -1.
         21   -1    0    0  501  503 -0.00000000000E+00 -0.00000000000E+00 -0.27212186988E+03  0.27212186988E+03  0.00000000000E+00 0. -1.
          6    1    1    2  501    0  0.72703163803E+02  0.30001922854E+02 -0.10287930873E+03  0.21609955476E+03  0.17300000000E+03 0. -1.
         -6    1    1    2    0  502 -0.72703163803E+02 -0.30001922854E+02 -0.32471549322E+02  0.19279332695E+03  0.17300000000E+03 0. -1.
<mgrwt>
<rscale>  2 0.19003912E+03</rscale>
<asrwt>0</asrwt>
<pdfrwt beam="1">  1       21 0.21041694E-01 0.19003912E+03</pdfrwt>
<pdfrwt beam="2">  1       21 0.41864902E-01 0.19003912E+03</pdfrwt>
<totfact> 0.11538848E+05</totfact>
</mgrwt>
</event>
<event>
 4    2  0.3903561E+000  0.2287218E+03  0.7546771E-02  0.1127543E+00
         21   -1    0    0  501  502  0.00000000000E+00  0.00000000000E+00  0.10562151965E+03  0.10562151965E+03  0.00000000000E+00 0. -1.
         21   -1    0    0  502  503 -0.00000000000E+00 -0.00000000000E+00 -0.54404854769E+03  0.54404854769E+03  0.00000000000E+00 0.  1.
          6    1    1    2  501    0  0.73986516381E+02  0.13004096907E+03 -0.31645544404E+03  0.39045832851E+03  0.17300000000E+03 0. -1.
         -6    1    1    2    0  503 -0.73986516381E+02 -0.13004096907E+03 -0.12197158400E+03  0.25921173883E+03  0.17300000000E+03 0. -1.
<mgrwt>
<rscale>  2 0.22872179E+03</rscale>
<asrwt>0</asrwt>
<pdfrwt beam="1">  1       21 0.16249465E-01 0.22872179E+03</pdfrwt>
<pdfrwt beam="2">  1       21 0.83699776E-01 0.22872179E+03</pdfrwt>
<totfact> 0.41317175E+04</totfact>
</mgrwt>
</event>
<event>
 4    2  0.3903561E+000  0.1743291E+03  0.7546771E-02  0.1173407E+00
         21   -1    0    0  503  502  0.00000000000E+00  0.00000000000E+00  0.30186905171E+03  0.30186905171E+03  0.00000000000E+00 0. -1.
         21   -1    0    0  501  503 -0.00000000000E+00 -0.00000000000E+00 -0.10528908734E+03  0.10528908734E+03  0.00000000000E+00 0. -1.
          6    1    1    2  501    0 -0.25698091403E+01  0.21331118169E+02  0.14090783465E+03  0.22415538893E+03  0.17300000000E+03 0. -1.
         -6    1    1    2    0  502  0.25698091403E+01 -0.21331118169E+02  0.55672129717E+02  0.18300275011E+03  0.17300000000E+03 0. -1.
<mgrwt>
<rscale>  2 0.17432906E+03</rscale>
<asrwt>0</asrwt>
<pdfrwt beam="1">  1       21 0.46441392E-01 0.17432906E+03</pdfrwt>
<pdfrwt beam="2">  1       21 0.16198321E-01 0.17432906E+03</pdfrwt>
<totfact> 0.15229858E+05</totfact>
</mgrwt>
</event>
<event>
 4    2  0.3903561E+000  0.2792240E+03  0.7546771E-02  0.1096114E+00
         21   -1    0    0  501  502  0.00000000000E+00  0.00000000000E+00  0.12689509197E+04  0.12689509197E+04  0.00000000000E+00 0.  1.
         21   -1    0    0  502  503 -0.00000000000E+00 -0.00000000000E+00 -0.61457804531E+02  0.61457804531E+02  0.00000000000E+00 0.  1.
          6    1    1    2  501    0  0.16554528901E+03  0.14363774232E+03  0.59285842514E+03  0.65532217725E+03  0.17300000000E+03 0.  1.
         -6    1    1    2    0  503 -0.16554528901E+03 -0.14363774232E+03  0.61463469003E+03  0.67508654699E+03  0.17300000000E+03 0.  1.
<mgrwt>
<rscale>  2 0.27922400E+03</rscale>
<asrwt>0</asrwt>
<pdfrwt beam="1">  1       21 0.19522320E+00 0.27922400E+03</pdfrwt>
<pdfrwt beam="2">  1       21 0.94550478E-02 0.27922400E+03</pdfrwt>
<totfact> 0.12167727E+04</totfact>
</mgrwt>
</event>
<event>
 4    2  0.3903561E+000  0.2048175E+03  0.7546771E-02  0.1145737E+00
         21   -1    0    0  503  502  0.00000000000E+00  0.00000000000E+00  0.10970900487E+04  0.10970900487E+04  0.00000000000E+00 0.  1.
         21   -1    0    0  501  503 -0.00000000000E+00 -0.00000000000E+00 -0.38431242291E+02  0.38431242291E+02  0.00000000000E+00 0.  1.
          6    1    1    2  501    0  0.59592324838E+01  0.10947926931E+03  0.48904028222E+03  0.53019866135E+03  0.17300000000E+03 0.  1.
         -6    1    1    2    0  502 -0.59592324838E+01 -0.10947926931E+03  0.56961852418E+03  0.60532262964E+03  0.17300000000E+03 0.  1.
<mgrwt>
<rscale>  2 0.20481754E+03</rscale>
<asrwt>0</asrwt>
<pdfrwt beam="1">  1       21 0.16878306E+00 0.20481754E+03</pdfrwt>
<pdfrwt beam="2">  1       21 0.59124997E-02 0.20481754E+03</pdfrwt>
<totfact> 0.43679331E+04</totfact>
</mgrwt>
</event>
<event>
 4    2  0.3903561E+000  0.2062095E+03  0.7546771E-02  0.1144603E+00
         21   -1    0    0  503  502  0.00000000000E+00  0.00000000000E+00  0.20506011186E+03  0.20506011186E+03  0.00000000000E+00 0. -1.
         21   -1    0    0  501  503 -0.00000000000E+00 -0.00000000000E+00 -0.20770749461E+03  0.20770749461E+03  0.00000000000E+00 0.  1.
          6    1    1    2  501    0 -0.34055344966E+02  0.10692805216E+03 -0.96992572804E+01  0.20643752191E+03  0.17300000000E+03 0.  1.
         -6    1    1    2    0  502  0.34055344966E+02 -0.10692805216E+03  0.70518745278E+01  0.20633008456E+03  0.17300000000E+03 0. -1.
<mgrwt>
<rscale>  2 0.20620954E+03</rscale>
<asrwt>0</asrwt>
<pdfrwt beam="1">  1       21 0.31547709E-01 0.20620954E+03</pdfrwt>
<pdfrwt beam="2">  1       21 0.31954999E-01 0.20620954E+03</pdfrwt>
<totfact> 0.90455851E+04</totfact>
</mgrwt>
</event>
<event>
 4    2  0.3903561E+000  0.2503828E+03  0.7546771E-02  0.1113063E+00
         21   -1    0    0  503  502  0.00000000000E+00  0.00000000000E+00  0.51574733504E+03  0.51574733504E+03  0.00000000000E+00 0. -1.
         21   -1    0    0  501  503 -0.00000000000E+00 -0.00000000000E+00 -0.48559271650E+03  0.48559271650E+03  0.00000000000E+00 0.  1.
          6    1    1    2  501    0 -0.14520265567E+03 -0.10806822940E+03 -0.41842242159E+03  0.48761550048E+03  0.17300000000E+03 0.  1.
         -6    1    1    2    0  502  0.14520265567E+03  0.10806822940E+03  0.44857704014E+03  0.51372455106E+03  0.17300000000E+03 0. -1.
<mgrwt>
<rscale>  2 0.25038281E+03</rscale>
<asrwt>0</asrwt>
<pdfrwt beam="1">  1       21 0.79345744E-01 0.25038281E+03</pdfrwt>
<pdfrwt beam="2">  1       21 0.74706572E-01 0.25038281E+03</pdfrwt>
<totfact> 0.21456277E+03</totfact>
</mgrwt>
</event>
<event>
 4    2  0.3903561E+000  0.2150929E+03  0.7546771E-02  0.1137595E+00
         21   -1    0    0  503  502  0.00000000000E+00  0.00000000000E+00  0.47553812900E+03  0.47553812900E+03  0.00000000000E+00 0. -1.
         21   -1    0    0  501  503 -0.00000000000E+00 -0.00000000000E+00 -0.10314899911E+03  0.10314899911E+03  0.00000000000E+00 0. -1.
          6    1    1    2  501    0  0.79177707416E+02 -0.10033363920E+03  0.11723330362E+03  0.24496652013E+03  0.17300000000E+03 0. -1.
         -6    1    1    2    0  502 -0.79177707416E+02  0.10033363920E+03  0.25515582627E+03  0.33372060797E+03  0.17300000000E+03 0. -1.
<mgrwt>
<rscale>  2 0.21509288E+03</rscale>
<asrwt>0</asrwt>
<pdfrwt beam="1">  1       21 0.73159711E-01 0.21509288E+03</pdfrwt>
<pdfrwt beam="2">  1       21 0.15869077E-01 0.21509288E+03</pdfrwt>
<totfact> 0.58858290E+04</totfact>
</mgrwt>
</event>
<event>
 4    2  0.3903561E+000  0.2482587E+03  0.7546771E-02  0.1114410E+00
         21   -1    0    0  503  502  0.00000000000E+00  0.00000000000E+00  0.32390111814E+03  0.32390111814E+03  0.00000000000E+00 0.  1.
         21   -1    0    0  501  503 -0.00000000000E+00 -0.00000000000E+00 -0.44154376073E+03  0.44154376073E+03  0.00000000000E+00 0. -1.
          6    1    1    2  501    0  0.10763585569E+03 -0.14183755772E+03 -0.34753059615E+03  0.42709470317E+03  0.17300000000E+03 0. -1.
         -6    1    1    2    0  502 -0.10763585569E+03  0.14183755772E+03  0.22988795356E+03  0.33835017571E+03  0.17300000000E+03 0.  1.
<mgrwt>
<rscale>  2 0.24825868E+03</rscale>
<asrwt>0</asrwt>
<pdfrwt beam="1">  1       21 0.49830941E-01 0.24825868E+03</pdfrwt>
<pdfrwt beam="2">  1       21 0.67929809E-01 0.24825868E+03</pdfrwt>
<totfact> 0.73213163E+03</totfact>
</mgrwt>
</event>
<event>
 4    2  0.3903561E+000  0.1757270E+03  0.7546771E-02  0.1172004E+00
         21   -1    0    0  503  502  0.00000000000E+00  0.00000000000E+00  0.36291700732E+02  0.36291700732E+02  0.00000000000E+00 0.  1.
         21   -1    0    0  501  503 -0.00000000000E+00 -0.00000000000E+00 -0.87691392616E+03  0.87691392616E+03  0.00000000000E+00 0.  1.
          6    1    1    2  501    0  0.30271416118E+02  0.58829038488E+01 -0.34164088147E+03  0.38418544882E+03  0.17300000000E+03 0.  1.
         -6    1    1    2    0  502 -0.30271416118E+02 -0.58829038488E+01 -0.49898134396E+03  0.52902017807E+03  0.17300000000E+03 0.  1.
<mgrwt>
<rscale>  2 0.17572697E+03</rscale>
<asrwt>0</asrwt>
<pdfrwt beam="1">  1       21 0.55833392E-02 0.17572697E+03</pdfrwt>
<pdfrwt beam="2">  1       21 0.13490982E+00 0.17572697E+03</pdfrwt>
<totfact> 0.88445479E+04</totfact>
</mgrwt>
</event>
<event>
 4    2  0.3903561E+000  0.2273887E+03  0.7546771E-02  0.1128491E+00
         21   -1    0    0  501  502  0.00000000000E+00  0.00000000000E+00  0.23276576999E+03  0.23276576999E+03  0.00000000000E+00 0. -1.
         21   -1    0    0  502  503 -0.00000000000E+00 -0.00000000000E+00 -0.47756011573E+03  0.47756011573E+03  0.00000000000E+00 0.  1.
          6    1    1    2  501    0  0.13897058840E+03 -0.49636631092E+02  0.13734633875E+03  0.26564946142E+03  0.17300000000E+03 0. -1.
         -6    1    1    2    0  503 -0.13897058840E+03  0.49636631092E+02 -0.38214068449E+03  0.44467642430E+03  0.17300000000E+03 0.  1.
<mgrwt>
<rscale>  2 0.22738870E+03</rscale>
<asrwt>0</asrwt>
<pdfrwt beam="1">  1       21 0.35810119E-01 0.22738870E+03</pdfrwt>
<pdfrwt beam="2">  1       21 0.73470786E-01 0.22738870E+03</pdfrwt>
<totfact> 0.12243813E+04</totfact>
</mgrwt>
</event>
<event>
 4    2  0.3903561E+000  0.2542997E+03  0.7546771E-02  0.1110617E+00
         21   -1    0    0  503  502  0.00000000000E+00  0.00000000000E+00  0.58506867783E+02  0.58506867783E+02  0.00000000000E+00 0.  1.
         21   -1    0    0  501  503 -0.00000000000E+00 -0.00000000000E+00 -0.12114565030E+04  0.12114565030E+04  0.00000000000E+00 0. -1.
          6    1    1    2  501    0 -0.13986609547E+03  0.12319421005E+03 -0.76443082670E+03  0.80561952984E+03  0.17300000000E+03 0. -1.
         -6    1    1    2    0  502  0.13986609547E+03 -0.12319421005E+03 -0.38851880856E+03  0.46434384098E+03  0.17300000000E+03 0.  1.
<mgrwt>
<rscale>  2 0.25429970E+03</rscale>
<asrwt>0</asrwt>
<pdfrwt beam="1">  1       21 0.90010565E-02 0.25429970E+03</pdfrwt>
<pdfrwt beam="2">  1       21 0.18637792E+00 0.25429970E+03</pdfrwt>
<totfact> 0.15433796E+04</totfact>
</mgrwt>
</event>
<event>
 4    2  0.3903561E+000  0.3195410E+03  0.7546771E-02  0.1075861E+00
         21   -1    0    0  503  502  0.00000000000E+00  0.00000000000E+00  0.59120383643E+03  0.59120383643E+03  0.00000000000E+00 0.  1.
         21   -1    0    0  501  503 -0.00000000000E+00 -0.00000000000E+00 -0.18824278781E+03  0.18824278781E+03  0.00000000000E+00 0.  1.
          6    1    1    2  501    0  0.21204503916E+03 -0.16496767847E+03  0.89528764162E+02  0.33184609865E+03  0.17300000000E+03 0.  1.
         -6    1    1    2    0  502 -0.21204503916E+03  0.16496767847E+03  0.31343228445E+03  0.44760052559E+03  0.17300000000E+03 0.  1.
<mgrwt>
<rscale>  2 0.31954097E+03</rscale>
<asrwt>0</asrwt>
<pdfrwt beam="1">  1       21 0.90954435E-01 0.31954097E+03</pdfrwt>
<pdfrwt beam="2">  1       21 0.28960429E-01 0.31954097E+03</pdfrwt>
<totfact> 0.10922006E+04</totfact>
</mgrwt>
</event>
<event>
 4    2  0.3903561E+000  0.2180762E+03  0.7546771E-02  0.1135325E+00
         21   -1    0    0  503  502  0.00000000000E+00  0.00000000000E+00  0.68915284024E+02  0.68915284024E+02  0.00000000000E+00 0.  1.
         21   -1    0    0  501  503 -0.00000000000E+00 -0.00000000000E+00 -0.69854415984E+03  0.69854415984E+03  0.00000000000E+00 0.  1.
          6    1    1    2  501    0  0.12726070394E+03 -0.37854298403E+02 -0.35704774595E+03  0.41837821115E+03  0.17300000000E+03 0.  1.
         -6    1    1    2    0  502 -0.12726070394E+03  0.37854298403E+02 -0.27258112986E+03  0.34908123271E+03  0.17300000000E+03 0.  1.
<mgrwt>
<rscale>  2 0.21807621E+03</rscale>
<asrwt>0</asrwt>
<pdfrwt beam="1">  1       21 0.10602351E-01 0.21807621E+03</pdfrwt>
<pdfrwt beam="2">  1       21 0.10746833E+00 0.21807621E+03</pdfrwt>
<totfact> 0.49900910E+04</totfact>
</mgrwt>
</event>
<event>
 4    2  0.3903561E+000  0.1828815E+03  0.7546771E-02  0.1165043E+00
         21   -1    0    0  503  502  0.00000000000E+00  0.00000000000E+00  0.37633804366E+03  0.37633804366E+03  0.00000000000E+00 0.  1.
         21   -1    0    0  501  503 -0.00000000000E+00 -0.00000000000E+00 -0.15997642181E+03  0.15997642181E+03  0.00000000000E+00 0.  1.
          6    1    1    2  501    0 -0.57153399020E+02  0.15815843370E+02 -0.70596319570E+02  0.19603441600E+03  0.17300000000E+03 0.  1.
         -6    1    1    2    0  502  0.57153399020E+02 -0.15815843370E+02  0.28695794142E+03  0.34028004946E+03  0.17300000000E+03 0.  1.
<mgrwt>
<rscale>  2 0.18288152E+03</rscale>
<asrwt>0</asrwt>
<pdfrwt beam="1">  1       21 0.57898160E-01 0.18288152E+03</pdfrwt>
<pdfrwt beam="2">  1       21 0.24611757E-01 0.18288152E+03</pdfrwt>
<totfact> 0.43854827E+04</totfact>
</mgrwt>
</event>
<event>
 4    2  0.3903561E+000  0.2086183E+03  0.7546771E-02  0.1142665E+00
         21   -1    0    0  503  502  0.00000000000E+00  0.00000000000E+00  0.11486448423E+03  0.11486448423E+03  0.00000000000E+00 0.  1.
         21   -1    0    0  501  503 -0.00000000000E+00 -0.00000000000E+00 -0.37930526031E+03  0.37930526031E+03  0.00000000000E+00 0.  1.
          6    1    1    2  501    0 -0.45706222552E+02  0.10725445441E+03 -0.14034664592E+03  0.25143340628E+03  0.17300000000E+03 0.  1.
         -6    1    1    2    0  502  0.45706222552E+02 -0.10725445441E+03 -0.12409413017E+03  0.24273633826E+03  0.17300000000E+03 0.  1.
<mgrwt>
<rscale>  2 0.20861826E+03</rscale>
<asrwt>0</asrwt>
<pdfrwt beam="1">  1       21 0.17671459E-01 0.20861826E+03</pdfrwt>
<pdfrwt beam="2">  1       21 0.58354656E-01 0.20861826E+03</pdfrwt>
<totfact> 0.79338039E+04</totfact>
</mgrwt>
</event>
<event>
 4    2  0.3903561E+000  0.1765653E+03  0.7546771E-02  0.1171169E+00
         21   -1    0    0  503  502  0.00000000000E+00  0.00000000000E+00  0.21435478327E+02  0.21435478327E+02  0.00000000000E+00 0.  1.
         21   -1    0    0  501  503 -0.00000000000E+00 -0.00000000000E+00 -0.16023854469E+04  0.16023854469E+04  0.00000000000E+00 0.  1.
          6    1    1    2  501    0 -0.22394763488E+02 -0.27290723280E+02 -0.10372294348E+04  0.10521502789E+04  0.17300000000E+03 0. -1.
         -6    1    1    2    0  502  0.22394763488E+02  0.27290723280E+02 -0.54372053381E+03  0.57167064635E+03  0.17300000000E+03 0. -1.
<mgrwt>
<rscale>  2 0.17656531E+03</rscale>
<asrwt>0</asrwt>
<pdfrwt beam="1">  1       21 0.32977647E-02 0.17656531E+03</pdfrwt>
<pdfrwt beam="2">  1       21 0.24652093E+00 0.17656531E+03</pdfrwt>
<totfact> 0.38196937E+04</totfact>
</mgrwt>
</event>
<event>
 4    2  0.3903561E+000  0.2311251E+03  0.7546771E-02  0.1125850E+00
         21   -1    0    0  501  502  0.00000000000E+00  0.00000000000E+00  0.66969810688E+02  0.66969810688E+02  0.00000000000E+00 0. -1.
         21   -1    0    0  502  503 -0.00000000000E+00 -0.00000000000E+00 -0.80142780820E+03  0.80142780820E+03  0.00000000000E+00 0. -1.
          6    1    1    2  501    0  0.14281039190E+03  0.55632745490E+02 -0.33743810185E+03  0.40900279093E+03  0.17300000000E+03 0. -1.
         -6    1    1    2    0  503 -0.14281039190E+03 -0.55632745490E+02 -0.39701989566E+03  0.45939482796E+03  0.17300000000E+03 0. -1.
<mgrwt>
<rscale>  2 0.23112510E+03</rscale>
<asrwt>0</asrwt>
<pdfrwt beam="1">  1       21 0.10303047E-01 0.23112510E+03</pdfrwt>
<pdfrwt beam="2">  1       21 0.12329659E+00 0.23112510E+03</pdfrwt>
<totfact> 0.37216804E+04</totfact>
</mgrwt>
</event>
<event>
 4    2  0.3903561E+000  0.1909532E+03  0.7546771E-02  0.1157604E+00
         21   -1    0    0  503  502  0.00000000000E+00  0.00000000000E+00  0.19173546048E+04  0.19173546048E+04  0.00000000000E+00 0.  1.
         21   -1    0    0  501  503 -0.00000000000E+00 -0.00000000000E+00 -0.16963056841E+03  0.16963056841E+03  0.00000000000E+00 0.  1.
          6    1    1    2  501    0 -0.12171833230E+02  0.79912241480E+02 -0.10939887471E+03  0.22007097412E+03  0.17300000000E+03 0.  1.
         -6    1    1    2    0  502  0.12171833230E+02 -0.79912241480E+02  0.18571229111E+04  0.18669141991E+04  0.17300000000E+03 0.  1.
<mgrwt>
<rscale>  2 0.19095319E+03</rscale>
<asrwt>0</asrwt>
<pdfrwt beam="1">  1       21 0.29497762E+00 0.19095319E+03</pdfrwt>
<pdfrwt beam="2">  1       21 0.26097012E-01 0.19095319E+03</pdfrwt>
<totfact> 0.51027585E+02</totfact>
</mgrwt>
</event>
<event>
 4    2  0.3903561E+000  0.2094483E+03  0.7546771E-02  0.1142004E+00
         21   -1    0    0  501  502  0.00000000000E+00  0.00000000000E+00  0.77789211520E+03  0.77789211520E+03  0.00000000000E+00 0.  1.
         21   -1    0    0  502  503 -0.00000000000E+00 -0.00000000000E+00 -0.60739738669E+02  0.60739738669E+02  0.00000000000E+00 0.  1.
          6    1    1    2  501    0 -0.10302669628E+03  0.57663579989E+02  0.24641885700E+03  0.32340507369E+03  0.17300000000E+03 0.  1.
         -6    1    1    2    0  503  0.10302669628E+03 -0.57663579989E+02  0.47073351953E+03  0.51522678018E+03  0.17300000000E+03 0.  1.
<mgrwt>
<rscale>  2 0.20944830E+03</rscale>
<asrwt>0</asrwt>
<pdfrwt beam="1">  1       21 0.11967570E+00 0.20944830E+03</pdfrwt>
<pdfrwt beam="2">  1       21 0.93445757E-02 0.20944830E+03</pdfrwt>
<totfact> 0.48185590E+04</totfact>
</mgrwt>
</event>
<event>
 4    2  0.3903561E+000  0.2131415E+03  0.7546771E-02  0.1139102E+00
         21   -1    0    0  501  502  0.00000000000E+00  0.00000000000E+00  0.64226625297E+03  0.64226625297E+03  0.00000000000E+00 0. -1.
         21   -1    0    0  502  503 -0.00000000000E+00 -0.00000000000E+00 -0.15384077588E+03  0.15384077588E+03  0.00000000000E+00 0. -1.
          6    1    1    2  501    0  0.34789401231E+02  0.11954082517E+03  0.53678085746E+03  0.57754913233E+03  0.17300000000E+03 0. -1.
         -6    1    1    2    0  503 -0.34789401231E+02 -0.11954082517E+03 -0.48355380368E+02  0.21855789652E+03  0.17300000000E+03 0. -1.
<mgrwt>
<rscale>  2 0.21314153E+03</rscale>
<asrwt>0</asrwt>
<pdfrwt beam="1">  1       21 0.98810191E-01 0.21314153E+03</pdfrwt>
<pdfrwt beam="2">  1       21 0.23667812E-01 0.21314153E+03</pdfrwt>
<totfact> 0.14009325E+04</totfact>
</mgrwt>
</event>
<event>
 4    2  0.3903561E+000  0.1768437E+03  0.7546771E-02  0.1170893E+00
         21   -1    0    0  503  502  0.00000000000E+00  0.00000000000E+00  0.46967415135E+03  0.46967415135E+03  0.00000000000E+00 0.  1.
         21   -1    0    0  501  503 -0.00000000000E+00 -0.00000000000E+00 -0.66612753790E+02  0.66612753790E+02  0.00000000000E+00 0.  1.
          6    1    1    2  501    0 -0.30594518525E+02  0.20215506262E+02  0.19615011070E+03  0.26409952136E+03  0.17300000000E+03 0. -1.
         -6    1    1    2    0  502  0.30594518525E+02 -0.20215506262E+02  0.20691128687E+03  0.27218738378E+03  0.17300000000E+03 0. -1.
<mgrwt>
<rscale>  2 0.17684369E+03</rscale>
<asrwt>0</asrwt>
<pdfrwt beam="1">  1       21 0.72257560E-01 0.17684369E+03</pdfrwt>
<pdfrwt beam="2">  1       21 0.10248116E-01 0.17684369E+03</pdfrwt>
<totfact> 0.13497002E+05</totfact>
</mgrwt>
</event>
<event>
 4    2  0.3903561E+000  0.1964910E+03  0.7546771E-02  0.1152734E+00
         21   -1    0    0  501  502  0.00000000000E+00  0.00000000000E+00  0.25376678204E+02  0.25376678204E+02  0.00000000000E+00 0.  1.
         21   -1    0    0  502  503 -0.00000000000E+00 -0.00000000000E+00 -0.18447571782E+04  0.18447571782E+04  0.00000000000E+00 0. -1.
          6    1    1    2  501    0  0.20995071417E+02  0.90768544681E+02 -0.51822130454E+03  0.55422201527E+03  0.17300000000E+03 0.  1.
         -6    1    1    2    0  503 -0.20995071417E+02 -0.90768544681E+02 -0.13011591955E+04  0.13159118412E+04  0.17300000000E+03 0. -1.
<mgrwt>
<rscale>  2 0.19649102E+03</rscale>
<asrwt>0</asrwt>
<pdfrwt beam="1">  1       21 0.39041046E-02 0.19649102E+03</pdfrwt>
<pdfrwt beam="2">  1       21 0.28380878E+00 0.19649102E+03</pdfrwt>
<totfact> 0.17202209E+04</totfact>
</mgrwt>
</event>
<event>
 4    2  0.3903561E+000  0.2103358E+03  0.7546771E-02  0.1141300E+00
         21   -1    0    0  503  502  0.00000000000E+00  0.00000000000E+00  0.16311659758E+03  0.16311659758E+03  0.00000000000E+00 0.  1.
         21   -1    0    0  501  503 -0.00000000000E+00 -0.00000000000E+00 -0.28124060645E+03  0.28124060645E+03  0.00000000000E+00 0. -1.
          6    1    1    2  501    0 -0.79163062130E+02 -0.89695984968E+02 -0.10099156629E+03  0.23332478777E+03  0.17300000000E+03 0.  1.
         -6    1    1    2    0  502  0.79163062130E+02  0.89695984968E+02 -0.17132442589E+02  0.21103241626E+03  0.17300000000E+03 0. -1.
<mgrwt>
<rscale>  2 0.21033583E+03</rscale>
<asrwt>0</asrwt>
<pdfrwt beam="1">  1       21 0.25094861E-01 0.21033583E+03</pdfrwt>
<pdfrwt beam="2">  1       21 0.43267786E-01 0.21033583E+03</pdfrwt>
<totfact> 0.76635943E+04</totfact>
</mgrwt>
</event>
<event>
 4    2  0.3903561E+000  0.1907906E+03  0.7546771E-02  0.1157750E+00
         21   -1    0    0  501  502  0.00000000000E+00  0.00000000000E+00  0.78108997867E+02  0.78108997867E+02  0.00000000000E+00 0. -1.
         21   -1    0    0  502  503 -0.00000000000E+00 -0.00000000000E+00 -0.12825695670E+04  0.12825695670E+04  0.00000000000E+00 0. -1.
          6    1    1    2  501    0 -0.10616054907E+02 -0.79745501070E+02 -0.59387576730E+02  0.19981974335E+03  0.17300000000E+03 0. -1.
         -6    1    1    2    0  503  0.10616054907E+02  0.79745501070E+02 -0.11450729924E+04  0.11608588216E+04  0.17300000000E+03 0. -1.
<mgrwt>
<rscale>  2 0.19079058E+03</rscale>
<asrwt>0</asrwt>
<pdfrwt beam="1">  1       21 0.12016769E-01 0.19079058E+03</pdfrwt>
<pdfrwt beam="2">  1       21 0.19731839E+00 0.19079058E+03</pdfrwt>
<totfact> 0.81917734E+03</totfact>
</mgrwt>
</event>
<event>
 4    2  0.3903561E+000  0.1751238E+03  0.7546771E-02  0.1172608E+00
         21   -1    0    0  501  502  0.00000000000E+00  0.00000000000E+00  0.50387150999E+03  0.50387150999E+03  0.00000000000E+00 0. -1.
         21   -1    0    0  502  503 -0.00000000000E+00 -0.00000000000E+00 -0.65578762393E+02  0.65578762393E+02  0.00000000000E+00 0. -1.
          6    1    1    2  501    0 -0.13330079021E+02  0.23698904805E+02  0.29547908819E+03  0.34347666682E+03  0.17300000000E+03 0. -1.
         -6    1    1    2    0  503  0.13330079021E+02 -0.23698904805E+02  0.14281365941E+03  0.22597360556E+03  0.17300000000E+03 0. -1.
<mgrwt>
<rscale>  2 0.17512375E+03</rscale>
<asrwt>0</asrwt>
<pdfrwt beam="1">  1       21 0.77518691E-01 0.17512375E+03</pdfrwt>
<pdfrwt beam="2">  1       21 0.10089041E-01 0.17512375E+03</pdfrwt>
<totfact> 0.11872826E+05</totfact>
</mgrwt>
</event>
<event>
 4    2  0.3903561E+000  0.2709006E+03  0.7546771E-02  0.1100765E+00
         21   -1    0    0  503  502  0.00000000000E+00  0.00000000000E+00  0.17957686653E+03  0.17957686653E+03  0.00000000000E+00 0.  1.
         21   -1    0    0  501  503 -0.00000000000E+00 -0.00000000000E+00 -0.48070421778E+03  0.48070421778E+03  0.00000000000E+00 0.  1.
          6    1    1    2  501    0  0.19730537223E+03  0.67295968979E+02 -0.27836579521E+03  0.38842589164E+03  0.17300000000E+03 0.  1.
         -6    1    1    2    0  502 -0.19730537223E+03 -0.67295968979E+02 -0.22761556041E+02  0.27185519268E+03  0.17300000000E+03 0.  1.
<mgrwt>
<rscale>  2 0.27090064E+03</rscale>
<asrwt>0</asrwt>
<pdfrwt beam="1">  1       21 0.27627211E-01 0.27090064E+03</pdfrwt>
<pdfrwt beam="2">  1       21 0.73954494E-01 0.27090064E+03</pdfrwt>
<totfact> 0.19680385E+04</totfact>
</mgrwt>
</event>
<event>
 4    2  0.3903561E+000  0.1893545E+03  0.7546771E-02  0.1159045E+00
         21   -1    0    0  501  502  0.00000000000E+00  0.00000000000E+00  0.62025916821E+02  0.62025916821E+02  0.00000000000E+00 0.  1.
         21   -1    0    0  502  503 -0.00000000000E+00 -0.00000000000E+00 -0.68731348797E+03  0.68731348797E+03  0.00000000000E+00 0.  1.
          6    1    1    2  501    0 -0.71663654681E+02 -0.28115161202E+02 -0.46201767550E+03  0.49931500495E+03  0.17300000000E+03 0.  1.
         -6    1    1    2    0  503  0.71663654681E+02  0.28115161202E+02 -0.16326989565E+03  0.25002439984E+03  0.17300000000E+03 0.  1.
<mgrwt>
<rscale>  2 0.18935454E+03</rscale>
<asrwt>0</asrwt>
<pdfrwt beam="1">  1       21 0.95424481E-02 0.18935454E+03</pdfrwt>
<pdfrwt beam="2">  1       21 0.10574054E+00 0.18935454E+03</pdfrwt>
<totfact> 0.63412533E+04</totfact>
</mgrwt>
</event>
<event>
 4    2  0.3903561E+000  0.1872716E+03  0.7546771E-02  0.1160945E+00
         21   -1    0    0  501  502  0.00000000000E+00  0.00000000000E+00  0.13241597062E+03  0.13241597062E+03  0.00000000000E+00 0.  1.
         21   -1    0    0  502  503 -0.00000000000E+00 -0.00000000000E+00 -0.27686265566E+03  0.27686265566E+03  0.00000000000E+00 0.  1.
          6    1    1    2  501    0 -0.71654246303E+02  0.27024254426E+01 -0.29600706032E+02  0.18959650818E+03  0.17300000000E+03 0.  1.
         -6    1    1    2    0  503  0.71654246303E+02 -0.27024254426E+01 -0.11484597901E+03  0.21968211810E+03  0.17300000000E+03 0.  1.
<mgrwt>
<rscale>  2 0.18727155E+03</rscale>
<asrwt>0</asrwt>
<pdfrwt beam="1">  1       21 0.20371688E-01 0.18727155E+03</pdfrwt>
<pdfrwt beam="2">  1       21 0.42594255E-01 0.18727155E+03</pdfrwt>
<totfact> 0.11847878E+05</totfact>
</mgrwt>
</event>
<event>
 4    2  0.3903561E+000  0.2690855E+03  0.7546771E-02  0.1101804E+00
         21   -1    0    0  501  502  0.00000000000E+00  0.00000000000E+00  0.15490575569E+03  0.15490575569E+03  0.00000000000E+00 0.  1.
         21   -1    0    0  502  503 -0.00000000000E+00 -0.00000000000E+00 -0.46752042547E+03  0.46752042547E+03  0.00000000000E+00 0.  1.
          6    1    1    2  501    0  0.17932243470E+03 -0.10159454269E+03 -0.15188583608E+03  0.30899238485E+03  0.17300000000E+03 0.  1.
         -6    1    1    2    0  503 -0.17932243470E+03  0.10159454269E+03 -0.16072883370E+03  0.31343379631E+03  0.17300000000E+03 0.  1.
<mgrwt>
<rscale>  2 0.26908546E+03</rscale>
<asrwt>0</asrwt>
<pdfrwt beam="1">  1       21 0.23831655E-01 0.26908546E+03</pdfrwt>
<pdfrwt beam="2">  1       21 0.71926218E-01 0.26908546E+03</pdfrwt>
<totfact> 0.27880906E+04</totfact>
</mgrwt>
</event>
<event>
 4    2  0.3903561E+000  0.2047277E+03  0.7546771E-02  0.1145810E+00
         21   -1    0    0  503  502  0.00000000000E+00  0.00000000000E+00  0.12471930302E+04  0.12471930302E+04  0.00000000000E+00 0.  1.
         21   -1    0    0  501  503 -0.00000000000E+00 -0.00000000000E+00 -0.37711852159E+02  0.37711852159E+02  0.00000000000E+00 0.  1.
          6    1    1    2  501    0 -0.73203418934E+02  0.81398330602E+02  0.39276166216E+03  0.44291664231E+03  0.17300000000E+03 0.  1.
         -6    1    1    2    0  502  0.73203418934E+02 -0.81398330602E+02  0.81671951587E+03  0.84198824005E+03  0.17300000000E+03 0.  1.
<mgrwt>
<rscale>  2 0.20472769E+03</rscale>
<asrwt>0</asrwt>
<pdfrwt beam="1">  1       21 0.19187582E+00 0.20472769E+03</pdfrwt>
<pdfrwt beam="2">  1       21 0.58018244E-02 0.20472769E+03</pdfrwt>
<totfact> 0.31398761E+04</totfact>
</mgrwt>
</event>
<event>
 4    2  0.3903561E+000  0.2035004E+03  0.7546771E-02  0.1146819E+00
         21   -1    0    0  501  502  0.00000000000E+00  0.00000000000E+00  0.28057183348E+02  0.28057183348E+02  0.00000000000E+00 0.  1.
         21   -1    0    0  502  503 -0.00000000000E+00 -0.00000000000E+00 -0.19785135348E+04  0.19785135348E+04  0.00000000000E+00 0.  1.
          6    1    1    2  501    0  0.10168790135E+03  0.33807908800E+02 -0.46960284530E+03  0.51179999638E+03  0.17300000000E+03 0.  1.
         -6    1    1    2    0  503 -0.10168790135E+03 -0.33807908800E+02 -0.14808535062E+04  0.14947707218E+04  0.17300000000E+03 0.  1.
<mgrwt>
<rscale>  2 0.20350038E+03</rscale>
<asrwt>0</asrwt>
<pdfrwt beam="1">  1       21 0.43164921E-02 0.20350038E+03</pdfrwt>
<pdfrwt beam="2">  1       21 0.30438653E+00 0.20350038E+03</pdfrwt>
<totfact> 0.10979130E+04</totfact>
</mgrwt>
</event>
<event>
 4    2  0.3903561E+000  0.1749207E+03  0.7546771E-02  0.1172811E+00
         21   -1    0    0  501  502  0.00000000000E+00  0.00000000000E+00  0.45308636298E+03  0.45308636298E+03  0.00000000000E+00 0. -1.
         21   -1    0    0  502  503 -0.00000000000E+00 -0.00000000000E+00 -0.78230380754E+02  0.78230380754E+02  0.00000000000E+00 0. -1.
          6    1    1    2  501    0 -0.73303169896E+01  0.24789659840E+02  0.89180780206E+02  0.19634274201E+03  0.17300000000E+03 0. -1.
         -6    1    1    2    0  503  0.73303169896E+01 -0.24789659840E+02  0.28567520202E+03  0.33497400173E+03  0.17300000000E+03 0. -1.
<mgrwt>
<rscale>  2 0.17492073E+03</rscale>
<asrwt>0</asrwt>
<pdfrwt beam="1">  1       21 0.69705593E-01 0.17492073E+03</pdfrwt>
<pdfrwt beam="2">  1       21 0.12035443E-01 0.17492073E+03</pdfrwt>
<totfact> 0.10990628E+05</totfact>
</mgrwt>
</event>
<event>
 4    2  0.3903561E+000  0.1822518E+03  0.7546771E-02  0.1165641E+00
         21   -1    0    0  501  502  0.00000000000E+00  0.00000000000E+00  0.41980090084E+03  0.41980090084E+03  0.00000000000E+00 0.  1.
         21   -1    0    0  502  503 -0.00000000000E+00 -0.00000000000E+00 -0.11430243027E+03  0.11430243027E+03  0.00000000000E+00 0.  1.
          6    1    1    2  501    0  0.45593471299E+02  0.34755797085E+02  0.30090363616E+03  0.35179358765E+03  0.17300000000E+03 0.  1.
         -6    1    1    2    0  503 -0.45593471299E+02 -0.34755797085E+02  0.45948344135E+01  0.18230974346E+03  0.17300000000E+03 0.  1.
<mgrwt>
<rscale>  2 0.18225183E+03</rscale>
<asrwt>0</asrwt>
<pdfrwt beam="1">  1       21 0.64584753E-01 0.18225183E+03</pdfrwt>
<pdfrwt beam="2">  1       21 0.17584990E-01 0.18225183E+03</pdfrwt>
<totfact> 0.65078503E+04</totfact>
</mgrwt>
</event>
<event>
 4    2  0.3903561E+000  0.2251063E+03  0.7546771E-02  0.1130132E+00
         21   -1    0    0  503  502  0.00000000000E+00  0.00000000000E+00  0.47427723100E+03  0.47427723100E+03  0.00000000000E+00 0.  1.
         21   -1    0    0  501  503 -0.00000000000E+00 -0.00000000000E+00 -0.16980700212E+03  0.16980700212E+03  0.00000000000E+00 0.  1.
          6    1    1    2  501    0  0.12753106970E+02 -0.14346154449E+03 -0.43867575622E+02  0.22934083953E+03  0.17300000000E+03 0.  1.
         -6    1    1    2    0  502 -0.12753106970E+02  0.14346154449E+03  0.34833780450E+03  0.41474339359E+03  0.17300000000E+03 0.  1.
<mgrwt>
<rscale>  2 0.22510632E+03</rscale>
<asrwt>0</asrwt>
<pdfrwt beam="1">  1       21 0.72965727E-01 0.22510632E+03</pdfrwt>
<pdfrwt beam="2">  1       21 0.26124154E-01 0.22510632E+03</pdfrwt>
<totfact> 0.23108989E+04</totfact>
</mgrwt>
</event>
<event>
 4    2  0.3903561E+000  0.2559159E+03  0.7546771E-02  0.1109622E+00
         21   -1    0    0  501  502  0.00000000000E+00  0.00000000000E+00  0.84927983773E+03  0.84927983773E+03  0.00000000000E+00 0.  1.
         21   -1    0    0  502  503 -0.00000000000E+00 -0.00000000000E+00 -0.12938695310E+03  0.12938695310E+03  0.00000000000E+00 0.  1.
          6    1    1    2  501    0 -0.45376328515E+02 -0.18304357641E+03  0.67096787748E+03  0.71811618466E+03  0.17300000000E+03 0.  1.
         -6    1    1    2    0  503  0.45376328515E+02  0.18304357641E+03  0.48925007141E+02  0.26055060617E+03  0.17300000000E+03 0.  1.
<mgrwt>
<rscale>  2 0.25591593E+03</rscale>
<asrwt>0</asrwt>
<pdfrwt beam="1">  1       21 0.13065843E+00 0.25591593E+03</pdfrwt>
<pdfrwt beam="2">  1       21 0.19905686E-01 0.25591593E+03</pdfrwt>
<totfact> 0.95329761E+03</totfact>
</mgrwt>
</event>
<event>
 4    2  0.3903561E+000  0.1948356E+03  0.7546771E-02  0.1154171E+00
         21   -1    0    0  501  502  0.00000000000E+00  0.00000000000E+00  0.89292010336E+03  0.89292010336E+03  0.00000000000E+00 0.  1.
         21   -1    0    0  502  503 -0.00000000000E+00 -0.00000000000E+00 -0.10255921502E+03  0.10255921502E+03  0.00000000000E+00 0.  1.
          6    1    1    2  501    0  0.85305389375E+02  0.27475710105E+02  0.77603298999E+03  0.80011756989E+03  0.17300000000E+03 0.  1.
         -6    1    1    2    0  503 -0.85305389375E+02 -0.27475710105E+02  0.14327898356E+02  0.19536174849E+03  0.17300000000E+03 0.  1.
<mgrwt>
<rscale>  2 0.19483563E+03</rscale>
<asrwt>0</asrwt>
<pdfrwt beam="1">  1       21 0.13737232E+00 0.19483563E+03</pdfrwt>
<pdfrwt beam="2">  1       21 0.15778341E-01 0.19483563E+03</pdfrwt>
<totfact> 0.13419794E+04</totfact>
</mgrwt>
</event>
<event>
 4    2  0.3903561E+000  0.3143870E+03  0.7546771E-02  0.1078262E+00
         21   -1    0    0  501  502  0.00000000000E+00  0.00000000000E+00  0.51920241770E+03  0.51920241770E+03  0.00000000000E+00 0. -1.
         21   -1    0    0  502  503 -0.00000000000E+00 -0.00000000000E+00 -0.19698196043E+03  0.19698196043E+03  0.00000000000E+00 0. -1.
          6    1    1    2  501    0  0.82065786939E+02  0.24934989638E+03  0.22673008622E+03  0.38761539728E+03  0.17300000000E+03 0. -1.
         -6    1    1    2    0  503 -0.82065786939E+02 -0.24934989638E+03  0.95490371048E+02  0.32856898085E+03  0.17300000000E+03 0. -1.
<mgrwt>
<rscale>  2 0.31438697E+03</rscale>
<asrwt>0</asrwt>
<pdfrwt beam="1">  1       21 0.79877294E-01 0.31438697E+03</pdfrwt>
<pdfrwt beam="2">  1       21 0.30304917E-01 0.31438697E+03</pdfrwt>
<totfact> 0.13530281E+04</totfact>
</mgrwt>
</event>
<event>
 4    2  0.3903561E+000  0.2151987E+03  0.7546771E-02  0.1137514E+00
         21   -1    0    0  503  502  0.00000000000E+00  0.00000000000E+00  0.17917960245E+03  0.17917960245E+03  0.00000000000E+00 0.  1.
         21   -1    0    0  501  503 -0.00000000000E+00 -0.00000000000E+00 -0.25979512360E+03  0.25979512360E+03  0.00000000000E+00 0.  1.
          6    1    1    2  501    0  0.34086083282E+02 -0.12336787504E+03 -0.24564436944E+02  0.21659618009E+03  0.17300000000E+03 0.  1.
         -6    1    1    2    0  502 -0.34086083282E+02  0.12336787504E+03 -0.56051084205E+02  0.22237854597E+03  0.17300000000E+03 0.  1.
<mgrwt>
<rscale>  2 0.21519873E+03</rscale>
<asrwt>0</asrwt>
<pdfrwt beam="1">  1       21 0.27566093E-01 0.21519873E+03</pdfrwt>
<pdfrwt beam="2">  1       21 0.39968480E-01 0.21519873E+03</pdfrwt>
<totfact> 0.75026440E+04</totfact>
</mgrwt>
</event>
<event>
 4    2  0.3903561E+000  0.1838646E+03  0.7546771E-02  0.1164114E+00
         21   -1    0    0  501  502  0.00000000000E+00  0.00000000000E+00  0.44185721720E+03  0.44185721720E+03  0.00000000000E+00 0.  1.
         21   -1    0    0  502  503 -0.00000000000E+00 -0.00000000000E+00 -0.76980406886E+02  0.76980406886E+02  0.00000000000E+00 0.  1.
          6    1    1    2  501    0  0.41846396559E+01  0.62126250969E+02  0.16214404384E+03  0.24514663616E+03  0.17300000000E+03 0.  1.
         -6    1    1    2    0  503 -0.41846396559E+01 -0.62126250969E+02  0.20273276647E+03  0.27369098792E+03  0.17300000000E+03 0.  1.
<mgrwt>
<rscale>  2 0.18386458E+03</rscale>
<asrwt>0</asrwt>
<pdfrwt beam="1">  1       21 0.67978032E-01 0.18386458E+03</pdfrwt>
<pdfrwt beam="2">  1       21 0.11843140E-01 0.18386458E+03</pdfrwt>
<totfact> 0.11911201E+05</totfact>
</mgrwt>
</event>
<event>
 4    2  0.3903561E+000  0.2108658E+03  0.7546771E-02  0.1140882E+00
         21   -1    0    0  503  502  0.00000000000E+00  0.00000000000E+00  0.13363444690E+03  0.13363444690E+03  0.00000000000E+00 0. -1.
         21   -1    0    0  501  503 -0.00000000000E+00 -0.00000000000E+00 -0.33909668318E+03  0.33909668318E+03  0.00000000000E+00 0.  1.
          6    1    1    2  501    0 -0.17531891715E+02  0.11928123369E+03 -0.13511511507E+03  0.25044056033E+03  0.17300000000E+03 0.  1.
         -6    1    1    2    0  502  0.17531891715E+02 -0.11928123369E+03 -0.70347121208E+02  0.22229056975E+03  0.17300000000E+03 0.  1.
<mgrwt>
<rscale>  2 0.21086579E+03</rscale>
<asrwt>0</asrwt>
<pdfrwt beam="1">  1       21 0.20559146E-01 0.21086579E+03</pdfrwt>
<pdfrwt beam="2">  1       21 0.52168721E-01 0.21086579E+03</pdfrwt>
<totfact> 0.75833430E+04</totfact>
</mgrwt>
</event>
<event>
 4    2  0.3903561E+000  0.1967608E+03  0.7546771E-02  0.1152501E+00
         21   -1    0    0  503  502  0.00000000000E+00  0.00000000000E+00  0.13400997842E+03  0.13400997842E+03  0.00000000000E+00 0.  1.
         21   -1    0    0  501  503 -0.00000000000E+00 -0.00000000000E+00 -0.30998477633E+03  0.30998477633E+03  0.00000000000E+00 0.  1.
          6    1    1    2  501    0 -0.65781674052E+02  0.66772619159E+02 -0.30082706959E+02  0.19904718176E+03  0.17300000000E+03 0.  1.
         -6    1    1    2    0  502  0.65781674052E+02 -0.66772619159E+02 -0.14589209095E+03  0.24494757299E+03  0.17300000000E+03 0.  1.
<mgrwt>
<rscale>  2 0.19676080E+03</rscale>
<asrwt>0</asrwt>
<pdfrwt beam="1">  1       21 0.20616920E-01 0.19676080E+03</pdfrwt>
<pdfrwt beam="2">  1       21 0.47689965E-01 0.19676080E+03</pdfrwt>
<totfact> 0.91525830E+04</totfact>
</mgrwt>
</event>
<event>
 4    2  0.3903561E+000  0.1824197E+03  0.7546771E-02  0.1165482E+00
         21   -1    0    0  501  502  0.00000000000E+00  0.00000000000E+00  0.73660461132E+03  0.73660461132E+03  0.00000000000E+00 0.  1.
         21   -1    0    0  502  503 -0.00000000000E+00 -0.00000000000E+00 -0.50036028595E+02  0.50036028595E+02  0.00000000000E+00 0.  1.
          6    1    1    2  501    0 -0.15646342132E+02 -0.55705952752E+02  0.46586373066E+03  0.50030588317E+03  0.17300000000E+03 0.  1.
         -6    1    1    2    0  503  0.15646342132E+02  0.55705952752E+02  0.22070485207E+03  0.28633475675E+03  0.17300000000E+03 0.  1.
<mgrwt>
<rscale>  2 0.18241974E+03</rscale>
<asrwt>0</asrwt>
<pdfrwt beam="1">  1       21 0.11332378E+00 0.18241974E+03</pdfrwt>
<pdfrwt beam="2">  1       21 0.76978511E-02 0.18241974E+03</pdfrwt>
<totfact> 0.78324763E+04</totfact>
</mgrwt>
</event>
<event>
 4    2  0.3903561E+000  0.1743441E+03  0.7546771E-02  0.1173392E+00
         21   -1    0    0  501  502  0.00000000000E+00  0.00000000000E+00  0.46431172770E+03  0.46431172770E+03  0.00000000000E+00 0.  1.
         21   -1    0    0  502  503 -0.00000000000E+00 -0.00000000000E+00 -0.17319919799E+03  0.17319919799E+03  0.00000000000E+00 0.  1.
          6    1    1    2  501    0  0.21484971524E+02 -0.22926036865E+01  0.39695484658E+03  0.43355393004E+03  0.17300000000E+03 0.  1.
         -6    1    1    2    0  503 -0.21484971524E+02  0.22926036865E+01 -0.10584231687E+03  0.20395699565E+03  0.17300000000E+03 0.  1.
<mgrwt>
<rscale>  2 0.17434409E+03</rscale>
<asrwt>0</asrwt>
<pdfrwt beam="1">  1       21 0.71432573E-01 0.17434409E+03</pdfrwt>
<pdfrwt beam="2">  1       21 0.26646031E-01 0.17434409E+03</pdfrwt>
<totfact> 0.24007170E+04</totfact>
</mgrwt>
</event>
<event>
 4    2  0.3903561E+000  0.1992632E+03  0.7546771E-02  0.1150362E+00
         21   -1    0    0  503  502  0.00000000000E+00  0.00000000000E+00  0.18350515503E+03  0.18350515503E+03  0.00000000000E+00 0.  1.
         21   -1    0    0  501  503 -0.00000000000E+00 -0.00000000000E+00 -0.45404702646E+03  0.45404702646E+03  0.00000000000E+00 0. -1.
          6    1    1    2  501    0  0.90675694311E+02 -0.39430071218E+02 -0.36590578683E+03  0.41664476103E+03  0.17300000000E+03 0. -1.
         -6    1    1    2    0  502 -0.90675694311E+02  0.39430071218E+02  0.95363915399E+02  0.22090742046E+03  0.17300000000E+03 0.  1.
<mgrwt>
<rscale>  2 0.19926317E+03</rscale>
<asrwt>0</asrwt>
<pdfrwt beam="1">  1       21 0.28231562E-01 0.19926317E+03</pdfrwt>
<pdfrwt beam="2">  1       21 0.69853389E-01 0.19926317E+03</pdfrwt>
<totfact> 0.22233649E+04</totfact>
</mgrwt>
</event>
<event>
 4    2  0.3903561E+000  0.2103006E+03  0.7546771E-02  0.1141328E+00
         21   -1    0    0  501  502  0.00000000000E+00  0.00000000000E+00  0.13316831035E+03  0.13316831035E+03  0.00000000000E+00 0. -1.
         21   -1    0    0  502  503 -0.00000000000E+00 -0.00000000000E+00 -0.56971985658E+03  0.56971985658E+03  0.00000000000E+00 0. -1.
          6    1    1    2  501    0  0.10139659671E+03  0.63372518188E+02  0.86893004155E+01  0.21048004615E+03  0.17300000000E+03 0. -1.
         -6    1    1    2    0  503 -0.10139659671E+03 -0.63372518188E+02 -0.44524084664E+03  0.49240812078E+03  0.17300000000E+03 0. -1.
<mgrwt>
<rscale>  2 0.21030061E+03</rscale>
<asrwt>0</asrwt>
<pdfrwt beam="1">  1       21 0.20487432E-01 0.21030061E+03</pdfrwt>
<pdfrwt beam="2">  1       21 0.87649208E-01 0.21030061E+03</pdfrwt>
<totfact> 0.24391242E+04</totfact>
</mgrwt>
</event>
<event>
 4    2  0.3903561E+000  0.1823427E+03  0.7546771E-02  0.1165555E+00
         21   -1    0    0  503  502  0.00000000000E+00  0.00000000000E+00  0.26348089155E+03  0.26348089155E+03  0.00000000000E+00 0. -1.
         21   -1    0    0  501  503 -0.00000000000E+00 -0.00000000000E+00 -0.14690935587E+03  0.14690935587E+03  0.00000000000E+00 0. -1.
          6    1    1    2  501    0  0.50510475021E+02  0.27723032959E+02  0.13534446199E+03  0.22708368069E+03  0.17300000000E+03 0. -1.
         -6    1    1    2    0  502 -0.50510475021E+02 -0.27723032959E+02 -0.18772926322E+02  0.18330656673E+03  0.17300000000E+03 0. -1.
<mgrwt>
<rscale>  2 0.18234274E+03</rscale>
<asrwt>0</asrwt>
<pdfrwt beam="1">  1       21 0.40535522E-01 0.18234274E+03</pdfrwt>
<pdfrwt beam="2">  1       21 0.22601439E-01 0.18234274E+03</pdfrwt>
<totfact> 0.10797497E+05</totfact>
</mgrwt>
</event>
<event>
 4    2  0.3903561E+000  0.3061033E+03  0.7546771E-02  0.1082229E+00
         21   -1    0    0  503  502  0.00000000000E+00  0.00000000000E+00  0.46639608519E+03  0.46639608519E+03  0.00000000000E+00 0. -1.
         21   -1    0    0  501  503 -0.00000000000E+00 -0.00000000000E+00 -0.20225945849E+03  0.20225945849E+03  0.00000000000E+00 0.  1.
          6    1    1    2  501    0 -0.87920927753E+02  0.23672793193E+03  0.15947283974E+03  0.34515328466E+03  0.17300000000E+03 0. -1.
         -6    1    1    2    0  502  0.87920927753E+02 -0.23672793193E+03  0.10466378696E+03  0.32350225903E+03  0.17300000000E+03 0.  1.
<mgrwt>
<rscale>  2 0.30610326E+03</rscale>
<asrwt>0</asrwt>
<pdfrwt beam="1">  1       21 0.71753243E-01 0.30610326E+03</pdfrwt>
<pdfrwt beam="2">  1       21 0.31116840E-01 0.30610326E+03</pdfrwt>
<totfact> 0.16428076E+04</totfact>
</mgrwt>
</event>
<event>
 4    2  0.3903561E+000  0.3249629E+03  0.7546771E-02  0.1073388E+00
         21   -1    0    0  501  502  0.00000000000E+00  0.00000000000E+00  0.18212503043E+03  0.18212503043E+03  0.00000000000E+00 0.  1.
         21   -1    0    0  502  503 -0.00000000000E+00 -0.00000000000E+00 -0.58436401753E+03  0.58436401753E+03  0.00000000000E+00 0.  1.
          6    1    1    2  501    0  0.21406856265E+03  0.17276159563E+03 -0.16734852475E+03  0.36552215688E+03  0.17300000000E+03 0.  1.
         -6    1    1    2    0  503 -0.21406856265E+03 -0.17276159563E+03 -0.23489046235E+03  0.40096689108E+03  0.17300000000E+03 0.  1.
<mgrwt>
<rscale>  2 0.32496295E+03</rscale>
<asrwt>0</asrwt>
<pdfrwt beam="1">  1       21 0.28019236E-01 0.32496295E+03</pdfrwt>
<pdfrwt beam="2">  1       21 0.89902156E-01 0.32496295E+03</pdfrwt>
<totfact> 0.11949082E+04</totfact>
</mgrwt>
</event>
<event>
 4    2  0.3903561E+000  0.1888061E+03  0.7546771E-02  0.1159543E+00
         21   -1    0    0  501  502  0.00000000000E+00  0.00000000000E+00  0.63751277921E+02  0.63751277921E+02  0.00000000000E+00 0. -1.
         21   -1    0    0  502  503 -0.00000000000E+00 -0.00000000000E+00 -0.12089966149E+04  0.12089966149E+04  0.00000000000E+00 0.  1.
          6    1    1    2  501    0  0.28288324873E+02 -0.70132192284E+02 -0.10607196413E+03  0.21656180479E+03  0.17300000000E+03 0. -1.
         -6    1    1    2    0  503 -0.28288324873E+02  0.70132192284E+02 -0.10391733729E+04  0.10561860880E+04  0.17300000000E+03 0.  1.
<mgrwt>
<rscale>  2 0.18880613E+03</rscale>
<asrwt>0</asrwt>
<pdfrwt beam="1">  1       21 0.98078904E-02 0.18880613E+03</pdfrwt>
<pdfrwt beam="2">  1       21 0.18599945E+00 0.18880613E+03</pdfrwt>
<totfact> 0.13963482E+04</totfact>
</mgrwt>
</event>
<event>
 4    2  0.3903561E+000  0.1957781E+03  0.7546771E-02  0.1153351E+00
         21   -1    0    0  501  502  0.00000000000E+00  0.00000000000E+00  0.26131291312E+03  0.26131291312E+03  0.00000000000E+00 0.  1.
         21   -1    0    0  502  503 -0.00000000000E+00 -0.00000000000E+00 -0.24573920556E+03  0.24573920556E+03  0.00000000000E+00 0.  1.
          6    1    1    2  501    0  0.90049858992E+02  0.17061459111E+02  0.16875330961E+03  0.25847001760E+03  0.17300000000E+03 0.  1.
         -6    1    1    2    0  503 -0.90049858992E+02 -0.17061459111E+02 -0.15317960205E+03  0.24858210108E+03  0.17300000000E+03 0.  1.
<mgrwt>
<rscale>  2 0.19577812E+03</rscale>
<asrwt>0</asrwt>
<pdfrwt beam="1">  1       21 0.40201987E-01 0.19577812E+03</pdfrwt>
<pdfrwt beam="2">  1       21 0.37806031E-01 0.19577812E+03</pdfrwt>
<totfact> 0.40168568E+04</totfact>
</mgrwt>
</event>
<event>
 4    2  0.3903561E+000  0.2088477E+03  0.7546771E-02  0.1142482E+00
         21   -1    0    0  501  502  0.00000000000E+00  0.00000000000E+00  0.21439658979E+03  0.21439658979E+03  0.00000000000E+00 0. -1.
         21   -1    0    0  502  503 -0.00000000000E+00 -0.00000000000E+00 -0.51644462532E+03  0.51644462532E+03  0.00000000000E+00 0. -1.
          6    1    1    2  501    0  0.77123673309E+02  0.87979006087E+02  0.13345801037E+03  0.24784754796E+03  0.17300000000E+03 0. -1.
         -6    1    1    2    0  503 -0.77123673309E+02 -0.87979006087E+02 -0.43550604590E+03  0.48299366715E+03  0.17300000000E+03 0. -1.
<mgrwt>
<rscale>  2 0.20884771E+03</rscale>
<asrwt>0</asrwt>
<pdfrwt beam="1">  1       21 0.32984091E-01 0.20884771E+03</pdfrwt>
<pdfrwt beam="2">  1       21 0.79453019E-01 0.20884771E+03</pdfrwt>
<totfact> 0.12228666E+04</totfact>
</mgrwt>
</event>
<event>
 4    2  0.3903561E+000  0.1855228E+03  0.7546771E-02  0.1162563E+00
         21   -1    0    0  503  502  0.00000000000E+00  0.00000000000E+00  0.79377490093E+03  0.79377490093E+03  0.00000000000E+00 0.  1.
         21   -1    0    0  501  503 -0.00000000000E+00 -0.00000000000E+00 -0.50791443353E+02  0.50791443353E+02  0.00000000000E+00 0. -1.
          6    1    1    2  501    0 -0.39359140710E+02 -0.54226958736E+02  0.20997330635E+03  0.28019188852E+03  0.17300000000E+03 0. -1.
         -6    1    1    2    0  502  0.39359140710E+02  0.54226958736E+02  0.53301015122E+03  0.56437445576E+03  0.17300000000E+03 0.  1.
<mgrwt>
<rscale>  2 0.18552279E+03</rscale>
<asrwt>0</asrwt>
<pdfrwt beam="1">  1       21 0.12211921E+00 0.18552279E+03</pdfrwt>
<pdfrwt beam="2">  1       21 0.78140688E-02 0.18552279E+03</pdfrwt>
<totfact> 0.63429246E+04</totfact>
</mgrwt>
</event>
<event>
 4    2  0.3903561E+000  0.2506916E+03  0.7546771E-02  0.1112869E+00
         21   -1    0    0  501  502  0.00000000000E+00  0.00000000000E+00  0.12301877126E+03  0.12301877126E+03  0.00000000000E+00 0.  1.
         21   -1    0    0  502  503 -0.00000000000E+00 -0.00000000000E+00 -0.76062670900E+03  0.76062670900E+03  0.00000000000E+00 0.  1.
          6    1    1    2  501    0  0.15535235269E+03 -0.93717348196E+02 -0.65627688456E+02  0.25913951519E+03  0.17300000000E+03 0.  1.
         -6    1    1    2    0  503 -0.15535235269E+03  0.93717348196E+02 -0.57198024928E+03  0.62450596507E+03  0.17300000000E+03 0.  1.
<mgrwt>
<rscale>  2 0.25069163E+03</rscale>
<asrwt>0</asrwt>
<pdfrwt beam="1">  1       21 0.18925964E-01 0.25069163E+03</pdfrwt>
<pdfrwt beam="2">  1       21 0.11701950E+00 0.25069163E+03</pdfrwt>
<totfact> 0.13870893E+04</totfact>
</mgrwt>
</event>
<event>
 4    2  0.3903561E+000  0.1997000E+03  0.7546771E-02  0.1149992E+00
         21   -1    0    0  503  502  0.00000000000E+00  0.00000000000E+00  0.28886445374E+03  0.28886445374E+03  0.00000000000E+00 0. -1.
         21   -1    0    0  501  503 -0.00000000000E+00 -0.00000000000E+00 -0.21324850737E+03  0.21324850737E+03  0.00000000000E+00 0. -1.
          6    1    1    2  501    0 -0.94753723028E+02  0.31190056710E+02 -0.11126865283E+03  0.22860621332E+03  0.17300000000E+03 0. -1.
         -6    1    1    2    0  502  0.94753723028E+02 -0.31190056710E+02  0.18688459921E+03  0.27350674779E+03  0.17300000000E+03 0. -1.
<mgrwt>
<rscale>  2 0.19969999E+03</rscale>
<asrwt>0</asrwt>
<pdfrwt beam="1">  1       21 0.44440685E-01 0.19969999E+03</pdfrwt>
<pdfrwt beam="2">  1       21 0.32807463E-01 0.19969999E+03</pdfrwt>
<totfact> 0.43325192E+04</totfact>
</mgrwt>
</event>
<event>
 4    2  0.3903561E+000  0.1739181E+03  0.7546771E-02  0.1173822E+00
         21   -1    0    0  501  502  0.00000000000E+00  0.00000000000E+00  0.68583156946E+02  0.68583156946E+02  0.00000000000E+00 0.  1.
         21   -1    0    0  502  503 -0.00000000000E+00 -0.00000000000E+00 -0.53499322698E+03  0.53499322698E+03  0.00000000000E+00 0.  1.
          6    1    1    2  501    0  0.12409250647E+02  0.12826971065E+02 -0.10673219885E+03  0.20405705810E+03  0.17300000000E+03 0.  1.
         -6    1    1    2    0  503 -0.12409250647E+02 -0.12826971065E+02 -0.35967787118E+03  0.39951932583E+03  0.17300000000E+03 0.  1.
<mgrwt>
<rscale>  2 0.17391814E+03</rscale>
<asrwt>0</asrwt>
<pdfrwt beam="1">  1       21 0.10551255E-01 0.17391814E+03</pdfrwt>
<pdfrwt beam="2">  1       21 0.82306651E-01 0.17391814E+03</pdfrwt>
<totfact> 0.95886774E+04</totfact>
</mgrwt>
</event>
<event>
 4    2  0.3903561E+000  0.1731292E+03  0.7546771E-02  0.1174623E+00
         21   -1    0    0  501  502  0.00000000000E+00  0.00000000000E+00  0.12064869927E+03  0.12064869927E+03  0.00000000000E+00 0. -1.
         21   -1    0    0  502  503 -0.00000000000E+00 -0.00000000000E+00 -0.25018087079E+03  0.25018087079E+03  0.00000000000E+00 0. -1.
          6    1    1    2  501    0  0.43002559831E+01  0.51228210584E+01 -0.49290913043E+02  0.18000924867E+03  0.17300000000E+03 0.  1.
         -6    1    1    2    0  503 -0.43002559831E+01 -0.51228210584E+01 -0.80241258472E+02  0.19082032140E+03  0.17300000000E+03 0.  1.
<mgrwt>
<rscale>  2 0.17312925E+03</rscale>
<asrwt>0</asrwt>
<pdfrwt beam="1">  1       21 0.18561338E-01 0.17312925E+03</pdfrwt>
<pdfrwt beam="2">  1       21 0.38489365E-01 0.17312925E+03</pdfrwt>
<totfact> 0.17368735E+05</totfact>
</mgrwt>
</event>
<event>
 4    2  0.3903561E+000  0.1732293E+03  0.7546771E-02  0.1174521E+00
         21   -1    0    0  501  502  0.00000000000E+00  0.00000000000E+00  0.53093570219E+02  0.53093570219E+02  0.00000000000E+00 0.  1.
         21   -1    0    0  502  503 -0.00000000000E+00 -0.00000000000E+00 -0.64313245622E+03  0.64313245622E+03  0.00000000000E+00 0.  1.
          6    1    1    2  501    0 -0.35869702859E+01 -0.81563520835E+01 -0.17383855480E+03  0.24541441598E+03  0.17300000000E+03 0.  1.
         -6    1    1    2    0  503  0.35869702859E+01  0.81563520835E+01 -0.41620033120E+03  0.45081161046E+03  0.17300000000E+03 0.  1.
<mgrwt>
<rscale>  2 0.17322931E+03</rscale>
<asrwt>0</asrwt>
<pdfrwt beam="1">  1       21 0.81682415E-02 0.17322931E+03</pdfrwt>
<pdfrwt beam="2">  1       21 0.98943455E-01 0.17322931E+03</pdfrwt>
<totfact> 0.98221977E+04</totfact>
</mgrwt>
</event>
<event>
 4    2  0.3903561E+000  0.1827306E+03  0.7546771E-02  0.1165186E+00
         21   -1    0    0  501  502  0.00000000000E+00  0.00000000000E+00  0.45099341622E+03  0.45099341622E+03  0.00000000000E+00 0. -1.
         21   -1    0    0  502  503 -0.00000000000E+00 -0.00000000000E+00 -0.74847969314E+02  0.74847969314E+02  0.00000000000E+00 0. -1.
          6    1    1    2  501    0  0.52964914040E+02 -0.25616496990E+02  0.21542958160E+03  0.28248963108E+03  0.17300000000E+03 0. -1.
         -6    1    1    2    0  503 -0.52964914040E+02  0.25616496990E+02  0.16071586531E+03  0.24335175446E+03  0.17300000000E+03 0. -1.
<mgrwt>
<rscale>  2 0.18273064E+03</rscale>
<asrwt>0</asrwt>
<pdfrwt beam="1">  1       21 0.69383601E-01 0.18273064E+03</pdfrwt>
<pdfrwt beam="2">  1       21 0.11515072E-01 0.18273064E+03</pdfrwt>
<totfact> 0.11978128E+05</totfact>
</mgrwt>
</event>
<event>
 4    2  0.3903561E+000  0.2113770E+03  0.7546771E-02  0.1140480E+00
         21   -1    0    0  503  502  0.00000000000E+00  0.00000000000E+00  0.36257637845E+02  0.36257637845E+02  0.00000000000E+00 0. -1.
         21   -1    0    0  501  503 -0.00000000000E+00 -0.00000000000E+00 -0.15966718170E+04  0.15966718170E+04  0.00000000000E+00 0.  1.
          6    1    1    2  501    0 -0.12144118488E+03  0.18128673853E+01 -0.11702412375E+04  0.11891782044E+04  0.17300000000E+03 0.  1.
         -6    1    1    2    0  502  0.12144118488E+03 -0.18128673853E+01 -0.39017294165E+03  0.44375125044E+03  0.17300000000E+03 0. -1.
<mgrwt>
<rscale>  2 0.21137703E+03</rscale>
<asrwt>0</asrwt>
<pdfrwt beam="1">  1       21 0.55780997E-02 0.21137703E+03</pdfrwt>
<pdfrwt beam="2">  1       21 0.24564175E+00 0.21137703E+03</pdfrwt>
<totfact> 0.15501016E+04</totfact>
</mgrwt>
</event>
<event>
 4    2  0.3903561E+000  0.1743983E+03  0.7546771E-02  0.1173337E+00
         21   -1    0    0  501  502  0.00000000000E+00  0.00000000000E+00  0.11051894052E+04  0.11051894052E+04  0.00000000000E+00 0.  1.
         21   -1    0    0  502  503 -0.00000000000E+00 -0.00000000000E+00 -0.34947331956E+02  0.34947331956E+02  0.00000000000E+00 0.  1.
          6    1    1    2  501    0 -0.83034594257E+01  0.20415909626E+02  0.79792857609E+03  0.81676481887E+03  0.17300000000E+03 0.  1.
         -6    1    1    2    0  503  0.83034594257E+01 -0.20415909626E+02  0.27231349717E+03  0.32337191830E+03  0.17300000000E+03 0.  1.
<mgrwt>
<rscale>  2 0.17439827E+03</rscale>
<asrwt>0</asrwt>
<pdfrwt beam="1">  1       21 0.17002911E+00 0.17439827E+03</pdfrwt>
<pdfrwt beam="2">  1       21 0.53765134E-02 0.17439827E+03</pdfrwt>
<totfact> 0.51273837E+04</totfact>
</mgrwt>
</event>
<event>
 4    2  0.3903561E+000  0.2205950E+03  0.7546771E-02  0.1133440E+00
         21   -1    0    0  501  502  0.00000000000E+00  0.00000000000E+00  0.88545917235E+02  0.88545917235E+02  0.00000000000E+00 0. -1.
         21   -1    0    0  502  503 -0.00000000000E+00 -0.00000000000E+00 -0.62823369775E+03  0.62823369775E+03  0.00000000000E+00 0. -1.
          6    1    1    2  501    0 -0.89976510066E+02  0.10313772882E+03 -0.14302535820E+03  0.26290381617E+03  0.17300000000E+03 0. -1.
         -6    1    1    2    0  503  0.89976510066E+02 -0.10313772882E+03 -0.39666242231E+03  0.45387579881E+03  0.17300000000E+03 0. -1.
<mgrwt>
<rscale>  2 0.22059502E+03</rscale>
<asrwt>0</asrwt>
<pdfrwt beam="1">  1       21 0.13622449E-01 0.22059502E+03</pdfrwt>
<pdfrwt beam="2">  1       21 0.96651336E-01 0.22059502E+03</pdfrwt>
<totfact> 0.40966059E+04</totfact>
</mgrwt>
</event>
<event>
 4    2  0.3903561E+000  0.2620867E+03  0.7546771E-02  0.1105896E+00
         21   -1    0    0  501  502  0.00000000000E+00  0.00000000000E+00  0.30596193998E+03  0.30596193998E+03  0.00000000000E+00 0. -1.
         21   -1    0    0  502  503 -0.00000000000E+00 -0.00000000000E+00 -0.22514379351E+03  0.22514379351E+03  0.00000000000E+00 0.  1.
          6    1    1    2  501    0 -0.19151795656E+03 -0.45621402455E+02  0.54573736035E+02  0.26770829780E+03  0.17300000000E+03 0. -1.
         -6    1    1    2    0  503  0.19151795656E+03  0.45621402455E+02  0.26244410433E+02  0.26339743569E+03  0.17300000000E+03 0.  1.
<mgrwt>
<rscale>  2 0.26208670E+03</rscale>
<asrwt>0</asrwt>
<pdfrwt beam="1">  1       21 0.47071068E-01 0.26208670E+03</pdfrwt>
<pdfrwt beam="2">  1       21 0.34637507E-01 0.26208670E+03</pdfrwt>
<totfact> 0.33570944E+04</totfact>
</mgrwt>
</event>
<event>
 4    2  0.3903561E+000  0.1767563E+03  0.7546771E-02  0.1170980E+00
         21   -1    0    0  503  502  0.00000000000E+00  0.00000000000E+00  0.32630878749E+03  0.32630878749E+03  0.00000000000E+00 0.  1.
         21   -1    0    0  501  503 -0.00000000000E+00 -0.00000000000E+00 -0.12294705038E+03  0.12294705038E+03  0.00000000000E+00 0.  1.
          6    1    1    2  501    0 -0.28468152504E+02  0.22435782840E+02 -0.39757147646E+01  0.17680103610E+03  0.17300000000E+03 0. -1.
         -6    1    1    2    0  502  0.28468152504E+02 -0.22435782840E+02  0.20733745187E+03  0.27245480177E+03  0.17300000000E+03 0. -1.
<mgrwt>
<rscale>  2 0.17675633E+03</rscale>
<asrwt>0</asrwt>
<pdfrwt beam="1">  1       21 0.50201352E-01 0.17675633E+03</pdfrwt>
<pdfrwt beam="2">  1       21 0.18914931E-01 0.17675633E+03</pdfrwt>
<totfact> 0.97368103E+04</totfact>
</mgrwt>
</event>
<event>
 4    2  0.3903561E+000  0.1966428E+03  0.7546771E-02  0.1152603E+00
         21   -1    0    0  503  502  0.00000000000E+00  0.00000000000E+00  0.19801638762E+03  0.19801638762E+03  0.00000000000E+00 0. -1.
         21   -1    0    0  501  503 -0.00000000000E+00 -0.00000000000E+00 -0.19804434548E+03  0.19804434548E+03  0.00000000000E+00 0.  1.
          6    1    1    2  501    0 -0.64951778654E+02  0.67235840969E+02  0.23387602654E+02  0.19802871463E+03  0.17300000000E+03 0.  1.
         -6    1    1    2    0  502  0.64951778654E+02 -0.67235840969E+02 -0.23415560515E+02  0.19803201846E+03  0.17300000000E+03 0. -1.
<mgrwt>
<rscale>  2 0.19664280E+03</rscale>
<asrwt>0</asrwt>
<pdfrwt beam="1">  1       21 0.30464059E-01 0.19664280E+03</pdfrwt>
<pdfrwt beam="2">  1       21 0.30468361E-01 0.19664280E+03</pdfrwt>
<totfact> 0.10675933E+05</totfact>
</mgrwt>
</event>
<event>
 4    2  0.3903561E+000  0.1765923E+03  0.7546771E-02  0.1171142E+00
         21   -1    0    0  503  502  0.00000000000E+00  0.00000000000E+00  0.14678472454E+03  0.14678472454E+03  0.00000000000E+00 0. -1.
         21   -1    0    0  501  503 -0.00000000000E+00 -0.00000000000E+00 -0.79518743833E+03  0.79518743833E+03  0.00000000000E+00 0. -1.
          6    1    1    2  501    0  0.35097313588E+02  0.49026056460E+01 -0.72739033856E+03  0.74851957997E+03  0.17300000000E+03 0. -1.
         -6    1    1    2    0  502 -0.35097313588E+02 -0.49026056460E+01  0.78987624776E+02  0.19345258290E+03  0.17300000000E+03 0. -1.
<mgrwt>
<rscale>  2 0.17659235E+03</rscale>
<asrwt>0</asrwt>
<pdfrwt beam="1">  1       21 0.22582265E-01 0.17659235E+03</pdfrwt>
<pdfrwt beam="2">  1       21 0.12233653E+00 0.17659235E+03</pdfrwt>
<totfact> 0.93609846E+03</totfact>
</mgrwt>
</event>
<event>
 4    2  0.3903561E+000  0.1966135E+03  0.7546771E-02  0.1152628E+00
         21   -1    0    0  501  502  0.00000000000E+00  0.00000000000E+00  0.29072566948E+03  0.29072566948E+03  0.00000000000E+00 0. -1.
         21   -1    0    0  502  503 -0.00000000000E+00 -0.00000000000E+00 -0.13688976238E+03  0.13688976238E+03  0.00000000000E+00 0. -1.
          6    1    1    2  501    0 -0.74219582550E+02  0.56738985350E+02  0.40723206729E+02  0.20078654950E+03  0.17300000000E+03 0. -1.
         -6    1    1    2    0  503  0.74219582550E+02 -0.56738985350E+02  0.11311270037E+03  0.22682888237E+03  0.17300000000E+03 0. -1.
<mgrwt>
<rscale>  2 0.19661348E+03</rscale>
<asrwt>0</asrwt>
<pdfrwt beam="1">  1       21 0.44727026E-01 0.19661348E+03</pdfrwt>
<pdfrwt beam="2">  1       21 0.21059963E-01 0.19661348E+03</pdfrwt>
<totfact> 0.10039152E+05</totfact>
</mgrwt>
</event>
<event>
 4    2  0.3903561E+000  0.1866904E+03  0.7546771E-02  0.1161481E+00
         21   -1    0    0  501  502  0.00000000000E+00  0.00000000000E+00  0.13883128189E+03  0.13883128189E+03  0.00000000000E+00 0.  1.
         21   -1    0    0  502  503 -0.00000000000E+00 -0.00000000000E+00 -0.37941829790E+03  0.37941829790E+03  0.00000000000E+00 0.  1.
          6    1    1    2  501    0 -0.21392350972E+02 -0.66833283346E+02  0.30430364376E+02  0.18915424267E+03  0.17300000000E+03 0.  1.
         -6    1    1    2    0  503  0.21392350972E+02  0.66833283346E+02 -0.27101738038E+03  0.32909533712E+03  0.17300000000E+03 0.  1.
<mgrwt>
<rscale>  2 0.18669044E+03</rscale>
<asrwt>0</asrwt>
<pdfrwt beam="1">  1       21 0.21358659E-01 0.18669044E+03</pdfrwt>
<pdfrwt beam="2">  1       21 0.58372046E-01 0.18669044E+03</pdfrwt>
<totfact> 0.56245268E+04</totfact>
</mgrwt>
</event>
<event>
 4    2  0.3903561E+000  0.1732562E+03  0.7546771E-02  0.1174494E+00
         21   -1    0    0  503  502  0.00000000000E+00  0.00000000000E+00  0.98297356251E+02  0.98297356251E+02  0.00000000000E+00 0.  1.
         21   -1    0    0  501  503 -0.00000000000E+00 -0.00000000000E+00 -0.33926987445E+03  0.33926987445E+03  0.00000000000E+00 0.  1.
          6    1    1    2  501    0  0.52243326897E+01 -0.78371839544E+01 -0.18963730231E+03  0.25686576559E+03  0.17300000000E+03 0.  1.
         -6    1    1    2    0  502 -0.52243326897E+01  0.78371839544E+01 -0.51335215893E+02  0.18070146512E+03  0.17300000000E+03 0.  1.
<mgrwt>
<rscale>  2 0.17325621E+03</rscale>
<asrwt>0</asrwt>
<pdfrwt beam="1">  1       21 0.15122670E-01 0.17325621E+03</pdfrwt>
<pdfrwt beam="2">  1       21 0.52195366E-01 0.17325621E+03</pdfrwt>
<totfact> 0.13551669E+05</totfact>
</mgrwt>
</event>
<event>
 4    2  0.3903561E+000  0.1978746E+03  0.7546771E-02  0.1151545E+00
         21   -1    0    0  503  502  0.00000000000E+00  0.00000000000E+00  0.41309623614E+03  0.41309623614E+03  0.00000000000E+00 0. -1.
         21   -1    0    0  501  503 -0.00000000000E+00 -0.00000000000E+00 -0.18292582423E+03  0.18292582423E+03  0.00000000000E+00 0.  1.
          6    1    1    2  501    0  0.86988580532E+02 -0.40722891315E+02 -0.91780788714E+02  0.21812400188E+03  0.17300000000E+03 0.  1.
         -6    1    1    2    0  502 -0.86988580532E+02  0.40722891315E+02  0.32195120063E+03  0.37789805848E+03  0.17300000000E+03 0. -1.
<mgrwt>
<rscale>  2 0.19787462E+03</rscale>
<asrwt>0</asrwt>
<pdfrwt beam="1">  1       21 0.63553267E-01 0.19787462E+03</pdfrwt>
<pdfrwt beam="2">  1       21 0.28142435E-01 0.19787462E+03</pdfrwt>
<totfact> 0.27531015E+04</totfact>
</mgrwt>
</event>
<event>
 4    2  0.3903561E+000  0.1790285E+03  0.7546771E-02  0.1168747E+00
         21   -1    0    0  501  502  0.00000000000E+00  0.00000000000E+00  0.11759767026E+03  0.11759767026E+03  0.00000000000E+00 0. -1.
         21   -1    0    0  502  503 -0.00000000000E+00 -0.00000000000E+00 -0.34752192126E+03  0.34752192126E+03  0.00000000000E+00 0. -1.
          6    1    1    2  501    0  0.53408129610E+01 -0.45756855393E+02 -0.69447509853E+01  0.17916317608E+03  0.17300000000E+03 0. -1.
         -6    1    1    2    0  503 -0.53408129610E+01  0.45756855393E+02 -0.22297950002E+03  0.28595641543E+03  0.17300000000E+03 0. -1.
<mgrwt>
<rscale>  2 0.17902853E+03</rscale>
<asrwt>0</asrwt>
<pdfrwt beam="1">  1       21 0.18091950E-01 0.17902853E+03</pdfrwt>
<pdfrwt beam="2">  1       21 0.53464910E-01 0.17902853E+03</pdfrwt>
<totfact> 0.92585609E+04</totfact>
</mgrwt>
</event>
<event>
 4    2  0.3903561E+000  0.1985824E+03  0.7546771E-02  0.1150941E+00
         21   -1    0    0  501  502  0.00000000000E+00  0.00000000000E+00  0.21330208265E+03  0.21330208265E+03  0.00000000000E+00 0.  1.
         21   -1    0    0  502  503 -0.00000000000E+00 -0.00000000000E+00 -0.18519487363E+03  0.18519487363E+03  0.00000000000E+00 0. -1.
          6    1    1    2  501    0 -0.40825414343E+02 -0.88539486800E+02  0.58174321956E+01  0.19866755572E+03  0.17300000000E+03 0.  1.
         -6    1    1    2    0  503  0.40825414343E+02  0.88539486800E+02  0.22289776827E+02  0.19982940056E+03  0.17300000000E+03 0. -1.
<mgrwt>
<rscale>  2 0.19858236E+03</rscale>
<asrwt>0</asrwt>
<pdfrwt beam="1">  1       21 0.32815705E-01 0.19858236E+03</pdfrwt>
<pdfrwt beam="2">  1       21 0.28491519E-01 0.19858236E+03</pdfrwt>
<totfact> 0.10505109E+05</totfact>
</mgrwt>
</event>
<event>
 4    2  0.3903561E+000  0.1884037E+03  0.7546771E-02  0.1159909E+00
         21   -1    0    0  501  502  0.00000000000E+00  0.00000000000E+00  0.97506766893E+03  0.97506766893E+03  0.00000000000E+00 0. -1.
         21   -1    0    0  502  503 -0.00000000000E+00 -0.00000000000E+00 -0.59067907737E+02  0.59067907737E+02  0.00000000000E+00 0.  1.
          6    1    1    2  501    0  0.54815071414E+02  0.50618751193E+02  0.77828971015E+03  0.80076889484E+03  0.17300000000E+03 0. -1.
         -6    1    1    2    0  503 -0.54815071414E+02 -0.50618751193E+02  0.13771005104E+03  0.23336668182E+03  0.17300000000E+03 0.  1.
<mgrwt>
<rscale>  2 0.18840369E+03</rscale>
<asrwt>0</asrwt>
<pdfrwt beam="1">  1       21 0.15001040E+00 0.18840369E+03</pdfrwt>
<pdfrwt beam="2">  1       21 0.90873711E-02 0.18840369E+03</pdfrwt>
<totfact> 0.28777825E+04</totfact>
</mgrwt>
</event>
<event>
 4    2  0.3903561E+000  0.1734734E+03  0.7546771E-02  0.1174273E+00
         21   -1    0    0  501  502  0.00000000000E+00  0.00000000000E+00  0.76054879916E+03  0.76054879916E+03  0.00000000000E+00 0.  1.
         21   -1    0    0  502  503 -0.00000000000E+00 -0.00000000000E+00 -0.11984665283E+03  0.11984665283E+03  0.00000000000E+00 0.  1.
          6    1    1    2  501    0  0.22871396360E+01  0.12601579996E+02  0.68062777044E+03  0.70238678285E+03  0.17300000000E+03 0.  1.
         -6    1    1    2    0  503 -0.22871396360E+01 -0.12601579996E+02 -0.39925624116E+02  0.17800866913E+03  0.17300000000E+03 0.  1.
<mgrwt>
<rscale>  2 0.17347343E+03</rscale>
<asrwt>0</asrwt>
<pdfrwt beam="1">  1       21 0.11700750E+00 0.17347343E+03</pdfrwt>
<pdfrwt beam="2">  1       21 0.18437947E-01 0.17347343E+03</pdfrwt>
<totfact> 0.15290115E+04</totfact>
</mgrwt>
</event>
<event>
 4    2  0.3903561E+000  0.2151340E+03  0.7546771E-02  0.1137564E+00
         21   -1    0    0  503  502  0.00000000000E+00  0.00000000000E+00  0.43803550482E+02  0.43803550482E+02  0.00000000000E+00 0. -1.
         21   -1    0    0  501  503 -0.00000000000E+00 -0.00000000000E+00 -0.10786346457E+04  0.10786346457E+04  0.00000000000E+00 0. -1.
          6    1    1    2  501    0  0.48944901021E+02  0.11814411329E+03 -0.59763736931E+03  0.63517954945E+03  0.17300000000E+03 0. -1.
         -6    1    1    2    0  502 -0.48944901021E+02 -0.11814411329E+03 -0.43719372588E+03  0.48725864670E+03  0.17300000000E+03 0. -1.
<mgrwt>
<rscale>  2 0.21513399E+03</rscale>
<asrwt>0</asrwt>
<pdfrwt beam="1">  1       21 0.67390081E-02 0.21513399E+03</pdfrwt>
<pdfrwt beam="2">  1       21 0.16594378E+00 0.21513399E+03</pdfrwt>
<totfact> 0.36315544E+04</totfact>
</mgrwt>
</event>
<event>
 4    2  0.3903561E+000  0.1763165E+03  0.7546771E-02  0.1171416E+00
         21   -1    0    0  503  502  0.00000000000E+00  0.00000000000E+00  0.59558508940E+03  0.59558508940E+03  0.00000000000E+00 0. -1.
         21   -1    0    0  501  503 -0.00000000000E+00 -0.00000000000E+00 -0.52212895781E+02  0.52212895781E+02  0.00000000000E+00 0. -1.
          6    1    1    2  501    0  0.28311583906E+02  0.18893442384E+02  0.26596138671E+03  0.31909711244E+03  0.17300000000E+03 0. -1.
         -6    1    1    2    0  502 -0.28311583906E+02 -0.18893442384E+02  0.27741080691E+03  0.32870087273E+03  0.17300000000E+03 0. -1.
<mgrwt>
<rscale>  2 0.17631650E+03</rscale>
<asrwt>0</asrwt>
<pdfrwt beam="1">  1       21 0.91628470E-01 0.17631650E+03</pdfrwt>
<pdfrwt beam="2">  1       21 0.80327536E-02 0.17631650E+03</pdfrwt>
<totfact> 0.12083220E+05</totfact>
</mgrwt>
</event>
<event>
 4    2  0.3903561E+000  0.1905395E+03  0.7546771E-02  0.1157976E+00
         21   -1    0    0  501  502  0.00000000000E+00  0.00000000000E+00  0.39515349195E+02  0.39515349195E+02  0.00000000000E+00 0. -1.
         21   -1    0    0  502  503 -0.00000000000E+00 -0.00000000000E+00 -0.92622765685E+03  0.92622765685E+03  0.00000000000E+00 0.  1.
          6    1    1    2  501    0  0.79725084542E+02  0.44958388203E+01 -0.40001177429E+03  0.44307417127E+03  0.17300000000E+03 0. -1.
         -6    1    1    2    0  503 -0.79725084542E+02 -0.44958388203E+01 -0.48670053336E+03  0.52266883478E+03  0.17300000000E+03 0.  1.
<mgrwt>
<rscale>  2 0.19053950E+03</rscale>
<asrwt>0</asrwt>
<pdfrwt beam="1">  1       21 0.60792849E-02 0.19053950E+03</pdfrwt>
<pdfrwt beam="2">  1       21 0.14249655E+00 0.19053950E+03</pdfrwt>
<totfact> 0.65973139E+04</totfact>
</mgrwt>
</event>
<event>
 4    2  0.3903561E+000  0.1862232E+03  0.7546771E-02  0.1161913E+00
         21   -1    0    0  503  502  0.00000000000E+00  0.00000000000E+00  0.14012052432E+04  0.14012052432E+04  0.00000000000E+00 0.  1.
         21   -1    0    0  501  503 -0.00000000000E+00 -0.00000000000E+00 -0.25705622338E+02  0.25705622338E+02  0.00000000000E+00 0. -1.
          6    1    1    2  501    0 -0.66650802521E+02  0.17542875901E+02  0.55015021089E+03  0.58081351269E+03  0.17300000000E+03 0. -1.
         -6    1    1    2    0  502  0.66650802521E+02 -0.17542875901E+02  0.82534940999E+03  0.84609735288E+03  0.17300000000E+03 0.  1.
<mgrwt>
<rscale>  2 0.18622320E+03</rscale>
<asrwt>0</asrwt>
<pdfrwt beam="1">  1       21 0.21556998E+00 0.18622320E+03</pdfrwt>
<pdfrwt beam="2">  1       21 0.39547122E-02 0.18622320E+03</pdfrwt>
<totfact> 0.42981795E+04</totfact>
</mgrwt>
</event>
<event>
 4    2  0.3903561E+000  0.1863889E+03  0.7546771E-02  0.1161759E+00
         21   -1    0    0  503  502  0.00000000000E+00  0.00000000000E+00  0.92857922787E+03  0.92857922787E+03  0.00000000000E+00 0. -1.
         21   -1    0    0  501  503 -0.00000000000E+00 -0.00000000000E+00 -0.40227330379E+02  0.40227330379E+02  0.00000000000E+00 0. -1.
          6    1    1    2  501    0  0.14255344149E+01 -0.69352556972E+02  0.31604783798E+03  0.36691558321E+03  0.17300000000E+03 0. -1.
         -6    1    1    2    0  502 -0.14255344149E+01  0.69352556972E+02  0.57230405951E+03  0.60189097504E+03  0.17300000000E+03 0. -1.
<mgrwt>
<rscale>  2 0.18638887E+03</rscale>
<asrwt>0</asrwt>
<pdfrwt beam="1">  1       21 0.14285833E+00 0.18638887E+03</pdfrwt>
<pdfrwt beam="2">  1       21 0.61888208E-02 0.18638887E+03</pdfrwt>
<totfact> 0.63700311E+04</totfact>
</mgrwt>
</event>
<event>
 4    2  0.3903561E+000  0.2243887E+03  0.7546771E-02  0.1130653E+00
         21   -1    0    0  501  502  0.00000000000E+00  0.00000000000E+00  0.37720555907E+03  0.37720555907E+03  0.00000000000E+00 0.  1.
         21   -1    0    0  502  503 -0.00000000000E+00 -0.00000000000E+00 -0.23455572028E+03  0.23455572028E+03  0.00000000000E+00 0. -1.
          6    1    1    2  501    0 -0.83739003700E+02  0.11579756369E+03  0.27211732389E+03  0.35270119713E+03  0.17300000000E+03 0.  1.
         -6    1    1    2    0  503  0.83739003700E+02 -0.11579756369E+03 -0.12946748510E+03  0.25906008221E+03  0.17300000000E+03 0. -1.
<mgrwt>
<rscale>  2 0.22438872E+03</rscale>
<asrwt>0</asrwt>
<pdfrwt beam="1">  1       21 0.58031625E-01 0.22438872E+03</pdfrwt>
<pdfrwt beam="2">  1       21 0.36085495E-01 0.22438872E+03</pdfrwt>
<totfact> 0.20236621E+04</totfact>
</mgrwt>
</event>
<event>
 4    2  0.3903561E+000  0.2222023E+03  0.7546771E-02  0.1132252E+00
         21   -1    0    0  503  502  0.00000000000E+00  0.00000000000E+00  0.55000375363E+03  0.55000375363E+03  0.00000000000E+00 0.  1.
         21   -1    0    0  501  503 -0.00000000000E+00 -0.00000000000E+00 -0.18591572956E+03  0.18591572956E+03  0.00000000000E+00 0.  1.
          6    1    1    2  501    0 -0.79910769300E+02 -0.11427661911E+03 -0.82566488291E+02  0.23704662350E+03  0.17300000000E+03 0.  1.
         -6    1    1    2    0  502  0.79910769300E+02  0.11427661911E+03  0.44665451235E+03  0.49887285969E+03  0.17300000000E+03 0.  1.
<mgrwt>
<rscale>  2 0.22220233E+03</rscale>
<asrwt>0</asrwt>
<pdfrwt beam="1">  1       21 0.84615961E-01 0.22220233E+03</pdfrwt>
<pdfrwt beam="2">  1       21 0.28602420E-01 0.22220233E+03</pdfrwt>
<totfact> 0.13893372E+04</totfact>
</mgrwt>
</event>
<event>
 4    2  0.3903561E+000  0.2188706E+03  0.7546771E-02  0.1134728E+00
         21   -1    0    0  503  502  0.00000000000E+00  0.00000000000E+00  0.39762975534E+03  0.39762975534E+03  0.00000000000E+00 0.  1.
         21   -1    0    0  501  503 -0.00000000000E+00 -0.00000000000E+00 -0.20275393723E+03  0.20275393723E+03  0.00000000000E+00 0. -1.
          6    1    1    2  501    0  0.13114950673E+03  0.27841819435E+02 -0.93793463823E+02  0.23812092281E+03  0.17300000000E+03 0. -1.
         -6    1    1    2    0  502 -0.13114950673E+03 -0.27841819435E+02  0.28866928192E+03  0.36226276976E+03  0.17300000000E+03 0.  1.
<mgrwt>
<rscale>  2 0.21887065E+03</rscale>
<asrwt>0</asrwt>
<pdfrwt beam="1">  1       21 0.61173808E-01 0.21887065E+03</pdfrwt>
<pdfrwt beam="2">  1       21 0.31192914E-01 0.21887065E+03</pdfrwt>
<totfact> 0.24183343E+04</totfact>
</mgrwt>
</event>
<event>
 4    2  0.3903561E+000  0.1796766E+03  0.7546771E-02  0.1168116E+00
         21   -1    0    0  501  502  0.00000000000E+00  0.00000000000E+00  0.50952837793E+03  0.50952837793E+03  0.00000000000E+00 0.  1.
         21   -1    0    0  502  503 -0.00000000000E+00 -0.00000000000E+00 -0.15014715828E+03  0.15014715828E+03  0.00000000000E+00 0.  1.
          6    1    1    2  501    0  0.17307400316E+01  0.48494042963E+02  0.43045727585E+03  0.46645164165E+03  0.17300000000E+03 0.  1.
         -6    1    1    2    0  503 -0.17307400316E+01 -0.48494042963E+02 -0.71076056203E+02  0.19322389456E+03  0.17300000000E+03 0.  1.
<mgrwt>
<rscale>  2 0.17967656E+03</rscale>
<asrwt>0</asrwt>
<pdfrwt beam="1">  1       21 0.78388980E-01 0.17967656E+03</pdfrwt>
<pdfrwt beam="2">  1       21 0.23099563E-01 0.17967656E+03</pdfrwt>
<totfact> 0.25537496E+04</totfact>
</mgrwt>
</event>
<event>
 4    2  0.3903561E+000  0.2459507E+03  0.7546771E-02  0.1115891E+00
         21   -1    0    0  501  502  0.00000000000E+00  0.00000000000E+00  0.16180860004E+03  0.16180860004E+03  0.00000000000E+00 0.  1.
         21   -1    0    0  502  503 -0.00000000000E+00 -0.00000000000E+00 -0.47435579221E+03  0.47435579221E+03  0.00000000000E+00 0. -1.
          6    1    1    2  501    0 -0.15082809169E+03  0.88394871567E+02 -0.30268936665E+03  0.39001617818E+03  0.17300000000E+03 0. -1.
         -6    1    1    2    0  503  0.15082809169E+03 -0.88394871567E+02 -0.98578255272E+01  0.24614821407E+03  0.17300000000E+03 0.  1.
<mgrwt>
<rscale>  2 0.24595074E+03</rscale>
<asrwt>0</asrwt>
<pdfrwt beam="1">  1       21 0.24893631E-01 0.24595074E+03</pdfrwt>
<pdfrwt beam="2">  1       21 0.72977813E-01 0.24595074E+03</pdfrwt>
<totfact> 0.25083883E+04</totfact>
</mgrwt>
</event>
<event>
 4    2  0.3903561E+000  0.1929762E+03  0.7546771E-02  0.1155804E+00
         21   -1    0    0  503  502  0.00000000000E+00  0.00000000000E+00  0.89987877715E+02  0.89987877715E+02  0.00000000000E+00 0. -1.
         21   -1    0    0  501  503 -0.00000000000E+00 -0.00000000000E+00 -0.43254624222E+03  0.43254624222E+03  0.00000000000E+00 0. -1.
          6    1    1    2  501    0  0.19190864881E+02  0.83321902461E+02 -0.22562410581E+03  0.29689403134E+03  0.17300000000E+03 0.  1.
         -6    1    1    2    0  502 -0.19190864881E+02 -0.83321902461E+02 -0.11693425870E+03  0.22564008860E+03  0.17300000000E+03 0.  1.
<mgrwt>
<rscale>  2 0.19297624E+03</rscale>
<asrwt>0</asrwt>
<pdfrwt beam="1">  1       21 0.13844289E-01 0.19297624E+03</pdfrwt>
<pdfrwt beam="2">  1       21 0.66545576E-01 0.19297624E+03</pdfrwt>
<totfact> 0.93945130E+04</totfact>
</mgrwt>
</event>
<event>
 4    2  0.3903561E+000  0.2107019E+03  0.7546771E-02  0.1141011E+00
         21   -1    0    0  503  502  0.00000000000E+00  0.00000000000E+00  0.10287368017E+04  0.10287368017E+04  0.00000000000E+00 0.  1.
         21   -1    0    0  501  503 -0.00000000000E+00 -0.00000000000E+00 -0.43488732115E+02  0.43488732115E+02  0.00000000000E+00 0. -1.
          6    1    1    2  501    0 -0.10173593465E+03  0.64156638666E+02  0.53957877809E+03  0.57925860585E+03  0.17300000000E+03 0.  1.
         -6    1    1    2    0  502  0.10173593465E+03 -0.64156638666E+02  0.44566929146E+03  0.49296692793E+03  0.17300000000E+03 0.  1.
<mgrwt>
<rscale>  2 0.21070186E+03</rscale>
<asrwt>0</asrwt>
<pdfrwt beam="1">  1       21 0.15826718E+00 0.21070186E+03</pdfrwt>
<pdfrwt beam="2">  1       21 0.66905750E-02 0.21070186E+03</pdfrwt>
<totfact> 0.41934104E+04</totfact>
</mgrwt>
</event>
<event>
 4    2  0.3903561E+000  0.1905579E+03  0.7546771E-02  0.1157959E+00
         21   -1    0    0  503  502  0.00000000000E+00  0.00000000000E+00  0.36448873742E+02  0.36448873742E+02  0.00000000000E+00 0.  1.
         21   -1    0    0  501  503 -0.00000000000E+00 -0.00000000000E+00 -0.10812091931E+04  0.10812091931E+04  0.00000000000E+00 0.  1.
          6    1    1    2  501    0  0.46074274243E+02  0.65272422547E+02 -0.67902628214E+03  0.70525812277E+03  0.17300000000E+03 0. -1.
         -6    1    1    2    0  502 -0.46074274243E+02 -0.65272422547E+02 -0.36573403720E+03  0.41239994406E+03  0.17300000000E+03 0. -1.
<mgrwt>
<rscale>  2 0.19055794E+03</rscale>
<asrwt>0</asrwt>
<pdfrwt beam="1">  1       21 0.56075187E-02 0.19055794E+03</pdfrwt>
<pdfrwt beam="2">  1       21 0.16633989E+00 0.19055794E+03</pdfrwt>
<totfact> 0.50195150E+04</totfact>
</mgrwt>
</event>
<event>
 4    2  0.3903561E+000  0.2002993E+03  0.7546771E-02  0.1149487E+00
         21   -1    0    0  503  502  0.00000000000E+00  0.00000000000E+00  0.54922511598E+03  0.54922511598E+03  0.00000000000E+00 0. -1.
         21   -1    0    0  501  503 -0.00000000000E+00 -0.00000000000E+00 -0.15408142963E+03  0.15408142963E+03  0.00000000000E+00 0. -1.
          6    1    1    2  501    0 -0.10089405254E+03  0.33492074143E+01 -0.57446531829E+02  0.20837449712E+03  0.17300000000E+03 0.  1.
         -6    1    1    2    0  502  0.10089405254E+03 -0.33492074143E+01  0.45259021818E+03  0.49493204849E+03  0.17300000000E+03 0.  1.
<mgrwt>
<rscale>  2 0.20029934E+03</rscale>
<asrwt>0</asrwt>
<pdfrwt beam="1">  1       21 0.84496171E-01 0.20029934E+03</pdfrwt>
<pdfrwt beam="2">  1       21 0.23704835E-01 0.20029934E+03</pdfrwt>
<totfact> 0.20264157E+04</totfact>
</mgrwt>
</event>
<event>
 4    2  0.3903561E+000  0.4433338E+03  0.7546771E-02  0.1029729E+00
         21   -1    0    0  503  502  0.00000000000E+00  0.00000000000E+00  0.11742219260E+04  0.11742219260E+04  0.00000000000E+00 0.  1.
         21   -1    0    0  501  503 -0.00000000000E+00 -0.00000000000E+00 -0.16744003431E+03  0.16744003431E+03  0.00000000000E+00 0.  1.
          6    1    1    2  501    0 -0.34516565524E+03  0.21789114869E+03  0.51576317202E+03  0.68011508720E+03  0.17300000000E+03 0.  1.
         -6    1    1    2    0  502  0.34516565524E+03 -0.21789114869E+03  0.49101871963E+03  0.66154687307E+03  0.17300000000E+03 0.  1.
<mgrwt>
<rscale>  2 0.44333383E+03</rscale>
<asrwt>0</asrwt>
<pdfrwt beam="1">  1       21 0.18064952E+00 0.44333383E+03</pdfrwt>
<pdfrwt beam="2">  1       21 0.25760006E-01 0.44333383E+03</pdfrwt>
<totfact> 0.21999752E+03</totfact>
</mgrwt>
</event>
<event>
 4    2  0.3903561E+000  0.1762497E+03  0.7546771E-02  0.1171483E+00
         21   -1    0    0  503  502  0.00000000000E+00  0.00000000000E+00  0.38797155037E+03  0.38797155037E+03  0.00000000000E+00 0. -1.
         21   -1    0    0  501  503 -0.00000000000E+00 -0.00000000000E+00 -0.91661484378E+02  0.91661484378E+02  0.00000000000E+00 0. -1.
          6    1    1    2  501    0 -0.18919118066E+02 -0.27874852839E+02  0.23344552823E+03  0.29250770093E+03  0.17300000000E+03 0. -1.
         -6    1    1    2    0  502  0.18919118066E+02  0.27874852839E+02  0.62864537756E+02  0.18712533382E+03  0.17300000000E+03 0. -1.
<mgrwt>
<rscale>  2 0.17624965E+03</rscale>
<asrwt>0</asrwt>
<pdfrwt beam="1">  1       21 0.59687930E-01 0.17624965E+03</pdfrwt>
<pdfrwt beam="2">  1       21 0.14101767E-01 0.17624965E+03</pdfrwt>
<totfact> 0.11568639E+05</totfact>
</mgrwt>
</event>
<event>
 4    2  0.3903561E+000  0.1887613E+03  0.7546771E-02  0.1159583E+00
         21   -1    0    0  503  502  0.00000000000E+00  0.00000000000E+00  0.99768037802E+02  0.99768037802E+02  0.00000000000E+00 0.  1.
         21   -1    0    0  501  503 -0.00000000000E+00 -0.00000000000E+00 -0.40929113454E+03  0.40929113454E+03  0.00000000000E+00 0.  1.
          6    1    1    2  501    0  0.60555995503E+02  0.45108718980E+02 -0.24562052363E+03  0.30977454180E+03  0.17300000000E+03 0.  1.
         -6    1    1    2    0  502 -0.60555995503E+02 -0.45108718980E+02 -0.63902573103E+02  0.19928463054E+03  0.17300000000E+03 0.  1.
<mgrwt>
<rscale>  2 0.18876129E+03</rscale>
<asrwt>0</asrwt>
<pdfrwt beam="1">  1       21 0.15348929E-01 0.18876129E+03</pdfrwt>
<pdfrwt beam="2">  1       21 0.62967865E-01 0.18876129E+03</pdfrwt>
<totfact> 0.87978251E+04</totfact>
</mgrwt>
</event>
<event>
 4    2  0.3903561E+000  0.1827077E+03  0.7546771E-02  0.1165208E+00
         21   -1    0    0  501  502  0.00000000000E+00  0.00000000000E+00  0.11610619108E+03  0.11610619108E+03  0.00000000000E+00 0.  1.
         21   -1    0    0  502  503 -0.00000000000E+00 -0.00000000000E+00 -0.56566550776E+03  0.56566550776E+03  0.00000000000E+00 0.  1.
          6    1    1    2  501    0 -0.19020453398E+01  0.58732405965E+02  0.14260086815E+02  0.18326337158E+03  0.17300000000E+03 0.  1.
         -6    1    1    2    0  503  0.19020453398E+01 -0.58732405965E+02 -0.46381940349E+03  0.49850832726E+03  0.17300000000E+03 0.  1.
<mgrwt>
<rscale>  2 0.18270773E+03</rscale>
<asrwt>0</asrwt>
<pdfrwt beam="1">  1       21 0.17862491E-01 0.18270773E+03</pdfrwt>
<pdfrwt beam="2">  1       21 0.87025461E-01 0.18270773E+03</pdfrwt>
<totfact> 0.32503256E+04</totfact>
</mgrwt>
</event>
<event>
 4    2  0.3903561E+000  0.1893438E+03  0.7546771E-02  0.1159055E+00
         21   -1    0    0  503  502  0.00000000000E+00  0.00000000000E+00  0.16954974879E+03  0.16954974879E+03  0.00000000000E+00 0. -1.
         21   -1    0    0  501  503 -0.00000000000E+00 -0.00000000000E+00 -0.32170501354E+03  0.32170501354E+03  0.00000000000E+00 0. -1.
          6    1    1    2  501    0 -0.33263125018E+02 -0.69394842775E+02 -0.21987453472E+03  0.29016528171E+03  0.17300000000E+03 0. -1.
         -6    1    1    2    0  502  0.33263125018E+02  0.69394842775E+02  0.67719269978E+02  0.20108948062E+03  0.17300000000E+03 0. -1.
<mgrwt>
<rscale>  2 0.18934381E+03</rscale>
<asrwt>0</asrwt>
<pdfrwt beam="1">  1       21 0.26084577E-01 0.18934381E+03</pdfrwt>
<pdfrwt beam="2">  1       21 0.49493079E-01 0.18934381E+03</pdfrwt>
<totfact> 0.54436416E+04</totfact>
</mgrwt>
</event>
<event>
 4    2  0.3903561E+000  0.2170086E+03  0.7546771E-02  0.1136133E+00
         21   -1    0    0  501  502  0.00000000000E+00  0.00000000000E+00  0.63231819838E+03  0.63231819838E+03  0.00000000000E+00 0.  1.
         21   -1    0    0  502  503 -0.00000000000E+00 -0.00000000000E+00 -0.78770505427E+02  0.78770505427E+02  0.00000000000E+00 0.  1.
          6    1    1    2  501    0  0.39395652728E+02  0.12494692934E+03  0.35978773464E+03  0.42016659387E+03  0.17300000000E+03 0.  1.
         -6    1    1    2    0  503 -0.39395652728E+02 -0.12494692934E+03  0.19375995831E+03  0.29092210994E+03  0.17300000000E+03 0.  1.
<mgrwt>
<rscale>  2 0.21700865E+03</rscale>
<asrwt>0</asrwt>
<pdfrwt beam="1">  1       21 0.97279720E-01 0.21700865E+03</pdfrwt>
<pdfrwt beam="2">  1       21 0.12118540E-01 0.21700865E+03</pdfrwt>
<totfact> 0.49909208E+04</totfact>
</mgrwt>
</event>
<event>
 4    2  0.3903561E+000  0.2141030E+03  0.7546771E-02  0.1138357E+00
         21   -1    0    0  501  502  0.00000000000E+00  0.00000000000E+00  0.64544065023E+02  0.64544065023E+02  0.00000000000E+00 0.  1.
         21   -1    0    0  502  503 -0.00000000000E+00 -0.00000000000E+00 -0.71045969762E+03  0.71045969762E+03  0.00000000000E+00 0. -1.
          6    1    1    2  501    0 -0.12275466781E+03  0.29023862941E+02 -0.31575039430E+03  0.38149496011E+03  0.17300000000E+03 0. -1.
         -6    1    1    2    0  503  0.12275466781E+03 -0.29023862941E+02 -0.33016523830E+03  0.39350880253E+03  0.17300000000E+03 0.  1.
<mgrwt>
<rscale>  2 0.21410300E+03</rscale>
<asrwt>0</asrwt>
<pdfrwt beam="1">  1       21 0.99298558E-02 0.21410300E+03</pdfrwt>
<pdfrwt beam="2">  1       21 0.10930150E+00 0.21410300E+03</pdfrwt>
<totfact> 0.53906740E+04</totfact>
</mgrwt>
</event>
<event>
 4    2  0.3903561E+000  0.2007041E+03  0.7546771E-02  0.1149146E+00
         21   -1    0    0  503  502  0.00000000000E+00  0.00000000000E+00  0.47218922388E+03  0.47218922388E+03  0.00000000000E+00 0. -1.
         21   -1    0    0  501  503 -0.00000000000E+00 -0.00000000000E+00 -0.13842617186E+03  0.13842617186E+03  0.00000000000E+00 0.  1.
          6    1    1    2  501    0  0.88940682202E+02  0.49423513333E+02 -0.22241725618E+02  0.20193271894E+03  0.17300000000E+03 0.  1.
         -6    1    1    2    0  502 -0.88940682202E+02 -0.49423513333E+02  0.35600477764E+03  0.40868267681E+03  0.17300000000E+03 0. -1.
<mgrwt>
<rscale>  2 0.20070408E+03</rscale>
<asrwt>0</asrwt>
<pdfrwt beam="1">  1       21 0.72644495E-01 0.20070408E+03</pdfrwt>
<pdfrwt beam="2">  1       21 0.21296334E-01 0.20070408E+03</pdfrwt>
<totfact> 0.34876729E+04</totfact>
</mgrwt>
</event>
<event>
 4    2  0.3903561E+000  0.1893768E+03  0.7546771E-02  0.1159025E+00
         21   -1    0    0  501  502  0.00000000000E+00  0.00000000000E+00  0.27399049031E+02  0.27399049031E+02  0.00000000000E+00 0. -1.
         21   -1    0    0  502  503 -0.00000000000E+00 -0.00000000000E+00 -0.19834084849E+04  0.19834084849E+04  0.00000000000E+00 0. -1.
          6    1    1    2  501    0 -0.94637867148E+01 -0.76452773912E+02 -0.39170905526E+03  0.43508570865E+03  0.17300000000E+03 0. -1.
         -6    1    1    2    0  503  0.94637867148E+01  0.76452773912E+02 -0.15643003806E+04  0.15757218253E+04  0.17300000000E+03 0. -1.
<mgrwt>
<rscale>  2 0.18937685E+03</rscale>
<asrwt>0</asrwt>
<pdfrwt beam="1">  1       21 0.42152361E-02 0.18937685E+03</pdfrwt>
<pdfrwt beam="2">  1       21 0.30513993E+00 0.18937685E+03</pdfrwt>
<totfact> 0.11483407E+04</totfact>
</mgrwt>
</event>
<event>
 4    2  0.3903561E+000  0.2769930E+03  0.7546771E-02  0.1097343E+00
         21   -1    0    0  501  502  0.00000000000E+00  0.00000000000E+00  0.17912663247E+03  0.17912663247E+03  0.00000000000E+00 0.  1.
         21   -1    0    0  502  503 -0.00000000000E+00 -0.00000000000E+00 -0.44775241161E+03  0.44775241161E+03  0.00000000000E+00 0.  1.
          6    1    1    2  501    0  0.20773073353E+03  0.60365984036E+02 -0.69030070612E+02  0.28546498967E+03  0.17300000000E+03 0.  1.
         -6    1    1    2    0  503 -0.20773073353E+03 -0.60365984036E+02 -0.19959570853E+03  0.34141405440E+03  0.17300000000E+03 0.  1.
<mgrwt>
<rscale>  2 0.27699298E+03</rscale>
<asrwt>0</asrwt>
<pdfrwt beam="1">  1       21 0.27557943E-01 0.27699298E+03</pdfrwt>
<pdfrwt beam="2">  1       21 0.68884986E-01 0.27699298E+03</pdfrwt>
<totfact> 0.23113436E+04</totfact>
</mgrwt>
</event>
<event>
 4    2  0.3903561E+000  0.2388383E+03  0.7546771E-02  0.1120569E+00
         21   -1    0    0  503  502  0.00000000000E+00  0.00000000000E+00  0.27425577259E+03  0.27425577259E+03  0.00000000000E+00 0.  1.
         21   -1    0    0  501  503 -0.00000000000E+00 -0.00000000000E+00 -0.21542737681E+03  0.21542737681E+03  0.00000000000E+00 0. -1.
          6    1    1    2  501    0  0.15828266079E+03 -0.45401795136E+02 -0.16064690203E+02  0.23937793963E+03  0.17300000000E+03 0. -1.
         -6    1    1    2    0  502 -0.15828266079E+03  0.45401795136E+02  0.74893085983E+02  0.25030520977E+03  0.17300000000E+03 0.  1.
<mgrwt>
<rscale>  2 0.23883828E+03</rscale>
<asrwt>0</asrwt>
<pdfrwt beam="1">  1       21 0.42193196E-01 0.23883828E+03</pdfrwt>
<pdfrwt beam="2">  1       21 0.33142673E-01 0.23883828E+03</pdfrwt>
<totfact> 0.46380835E+04</totfact>
</mgrwt>
</event>
<event>
 4    2  0.3903561E+000  0.1788307E+03  0.7546771E-02  0.1168939E+00
         21   -1    0    0  501  502  0.00000000000E+00  0.00000000000E+00  0.88029410248E+03  0.88029410248E+03  0.00000000000E+00 0. -1.
         21   -1    0    0  502  503 -0.00000000000E+00 -0.00000000000E+00 -0.53688905454E+02  0.53688905454E+02  0.00000000000E+00 0. -1.
          6    1    1    2  501    0 -0.37076331392E+02  0.26014996940E+02  0.67884697853E+03  0.70200687651E+03  0.17300000000E+03 0. -1.
         -6    1    1    2    0  503  0.37076331392E+02 -0.26014996940E+02  0.14775821850E+03  0.23197613142E+03  0.17300000000E+03 0. -1.
<mgrwt>
<rscale>  2 0.17883074E+03</rscale>
<asrwt>0</asrwt>
<pdfrwt beam="1">  1       21 0.13542985E+00 0.17883074E+03</pdfrwt>
<pdfrwt beam="2">  1       21 0.82598322E-02 0.17883074E+03</pdfrwt>
<totfact> 0.44569160E+04</totfact>
</mgrwt>
</event>
<event>
 4    2  0.3903561E+000  0.2236395E+03  0.7546771E-02  0.1131198E+00
         21   -1    0    0  501  502  0.00000000000E+00  0.00000000000E+00  0.18769121802E+03  0.18769121802E+03  0.00000000000E+00 0.  1.
         21   -1    0    0  502  503 -0.00000000000E+00 -0.00000000000E+00 -0.35967572075E+03  0.35967572075E+03  0.00000000000E+00 0.  1.
          6    1    1    2  501    0 -0.11921196209E+02  0.14122148848E+03  0.53325843371E+02  0.22990926318E+03  0.17300000000E+03 0.  1.
         -6    1    1    2    0  503  0.11921196209E+02 -0.14122148848E+03 -0.22531034610E+03  0.31745767558E+03  0.17300000000E+03 0.  1.
<mgrwt>
<rscale>  2 0.22363950E+03</rscale>
<asrwt>0</asrwt>
<pdfrwt beam="1">  1       21 0.28875572E-01 0.22363950E+03</pdfrwt>
<pdfrwt beam="2">  1       21 0.55334726E-01 0.22363950E+03</pdfrwt>
<totfact> 0.34786841E+04</totfact>
</mgrwt>
</event>
<event>
 4    2  0.3903561E+000  0.2712564E+03  0.7546771E-02  0.1100563E+00
         21   -1    0    0  501  502  0.00000000000E+00  0.00000000000E+00  0.13261607412E+04  0.13261607412E+04  0.00000000000E+00 0. -1.
         21   -1    0    0  502  503 -0.00000000000E+00 -0.00000000000E+00 -0.63905989242E+03  0.63905989242E+03  0.00000000000E+00 0.  1.
          6    1    1    2  501    0 -0.75654357334E+02 -0.19474975768E+03  0.12825370213E+04  0.13109085632E+04  0.17300000000E+03 0. -1.
         -6    1    1    2    0  503  0.75654357334E+02  0.19474975768E+03 -0.59543617258E+03  0.65431207043E+03  0.17300000000E+03 0.  1.
<mgrwt>
<rscale>  2 0.27125643E+03</rscale>
<asrwt>0</asrwt>
<pdfrwt beam="1">  1       21 0.20402473E+00 0.27125643E+03</pdfrwt>
<pdfrwt beam="2">  1       21 0.98316907E-01 0.27125643E+03</pdfrwt>
<totfact> 0.98262421E+01</totfact>
</mgrwt>
</event>
<event>
 4    2  0.3903561E+000  0.3205439E+03  0.7546771E-02  0.1075399E+00
         21   -1    0    0  501  502  0.00000000000E+00  0.00000000000E+00  0.26493430102E+03  0.26493430102E+03  0.00000000000E+00 0.  1.
         21   -1    0    0  502  503 -0.00000000000E+00 -0.00000000000E+00 -0.42951448499E+03  0.42951448499E+03  0.00000000000E+00 0.  1.
          6    1    1    2  501    0  0.25374803141E+03  0.91822107610E+02 -0.19046593967E+03  0.37286141804E+03  0.17300000000E+03 0.  1.
         -6    1    1    2    0  503 -0.25374803141E+03 -0.91822107610E+02  0.25885755704E+02  0.32158736797E+03  0.17300000000E+03 0.  1.
<mgrwt>
<rscale>  2 0.32054385E+03</rscale>
<asrwt>0</asrwt>
<pdfrwt beam="1">  1       21 0.40759124E-01 0.32054385E+03</pdfrwt>
<pdfrwt beam="2">  1       21 0.66079151E-01 0.32054385E+03</pdfrwt>
<totfact> 0.11394306E+04</totfact>
</mgrwt>
</event>
<event>
 4    2  0.3903561E+000  0.2682638E+03  0.7546771E-02  0.1102277E+00
         21   -1    0    0  503  502  0.00000000000E+00  0.00000000000E+00  0.36716398207E+02  0.36716398207E+02  0.00000000000E+00 0. -1.
         21   -1    0    0  501  503 -0.00000000000E+00 -0.00000000000E+00 -0.22866321757E+04  0.22866321757E+04  0.00000000000E+00 0. -1.
          6    1    1    2  501    0  0.15695261705E+03  0.13191797034E+03 -0.68593057495E+03  0.73652306722E+03  0.17300000000E+03 0. -1.
         -6    1    1    2    0  502 -0.15695261705E+03 -0.13191797034E+03 -0.15639852026E+04  0.15868255067E+04  0.17300000000E+03 0. -1.
<mgrwt>
<rscale>  2 0.26826382E+03</rscale>
<asrwt>0</asrwt>
<pdfrwt beam="1">  1       21 0.56486764E-02 0.26826382E+03</pdfrwt>
<pdfrwt beam="2">  1       21 0.35178958E+00 0.26826382E+03</pdfrwt>
<totfact> 0.34298032E+03</totfact>
</mgrwt>
</event>
<event>
 4    2  0.3903561E+000  0.3407362E+03  0.7546771E-02  0.1066483E+00
         21   -1    0    0  503  502  0.00000000000E+00  0.00000000000E+00  0.82209505357E+03  0.82209505357E+03  0.00000000000E+00 0.  1.
         21   -1    0    0  501  503 -0.00000000000E+00 -0.00000000000E+00 -0.14220603741E+03  0.14220603741E+03  0.00000000000E+00 0. -1.
          6    1    1    2  501    0  0.29291082775E+03 -0.19374696512E+02  0.37997235810E+03  0.51037253531E+03  0.17300000000E+03 0. -1.
         -6    1    1    2    0  502 -0.29291082775E+03  0.19374696512E+02  0.29991665807E+03  0.45392855568E+03  0.17300000000E+03 0.  1.
<mgrwt>
<rscale>  2 0.34073616E+03</rscale>
<asrwt>0</asrwt>
<pdfrwt beam="1">  1       21 0.12647616E+00 0.34073616E+03</pdfrwt>
<pdfrwt beam="2">  1       21 0.21877852E-01 0.34073616E+03</pdfrwt>
<totfact> 0.83052167E+03</totfact>
</mgrwt>
</event>
<event>
 4    2  0.3903561E+000  0.1834866E+03  0.7546771E-02  0.1164471E+00
         21   -1    0    0  503  502  0.00000000000E+00  0.00000000000E+00  0.11083580501E+04  0.11083580501E+04  0.00000000000E+00 0.  1.
         21   -1    0    0  501  503 -0.00000000000E+00 -0.00000000000E+00 -0.50969965012E+02  0.50969965012E+02  0.00000000000E+00 0.  1.
          6    1    1    2  501    0 -0.60647788598E+02  0.77570127811E+01  0.16023377629E+03  0.24360252169E+03  0.17300000000E+03 0.  1.
         -6    1    1    2    0  502  0.60647788598E+02 -0.77570127811E+01  0.89715430880E+03  0.91572549342E+03  0.17300000000E+03 0.  1.
<mgrwt>
<rscale>  2 0.18348658E+03</rscale>
<asrwt>0</asrwt>
<pdfrwt beam="1">  1       21 0.17051660E+00 0.18348658E+03</pdfrwt>
<pdfrwt beam="2">  1       21 0.78415339E-02 0.18348658E+03</pdfrwt>
<totfact> 0.26455287E+04</totfact>
</mgrwt>
</event>
<event>
 4    2  0.3903561E+000  0.1784277E+03  0.7546771E-02  0.1169333E+00
         21   -1    0    0  503  502  0.00000000000E+00  0.00000000000E+00  0.13441000017E+02  0.13441000017E+02  0.00000000000E+00 0.  1.
         21   -1    0    0  501  503 -0.00000000000E+00 -0.00000000000E+00 -0.24863522775E+04  0.24863522775E+04  0.00000000000E+00 0.  1.
          6    1    1    2  501    0 -0.14063074532E+02 -0.41348255750E+02 -0.15084527552E+04  0.15189687828E+04  0.17300000000E+03 0.  1.
         -6    1    1    2    0  502  0.14063074532E+02  0.41348255750E+02 -0.96445852225E+03  0.98082449473E+03  0.17300000000E+03 0.  1.
<mgrwt>
<rscale>  2 0.17842771E+03</rscale>
<asrwt>0</asrwt>
<pdfrwt beam="1">  1       21 0.20678453E-02 0.17842771E+03</pdfrwt>
<pdfrwt beam="2">  1       21 0.38251589E+00 0.17842771E+03</pdfrwt>
<totfact> 0.13253353E+04</totfact>
</mgrwt>
</event>
<event>
 4    2  0.3903561E+000  0.2239699E+03  0.7546771E-02  0.1130957E+00
         21   -1    0    0  501  502  0.00000000000E+00  0.00000000000E+00  0.84097280814E+02  0.84097280814E+02  0.00000000000E+00 0. -1.
         21   -1    0    0  502  503 -0.00000000000E+00 -0.00000000000E+00 -0.70936200261E+03  0.70936200261E+03  0.00000000000E+00 0.  1.
          6    1    1    2  501    0  0.54493664415E+02  0.13139240488E+03 -0.47089156698E+03  0.52144164714E+03  0.17300000000E+03 0.  1.
         -6    1    1    2    0  503 -0.54493664415E+02 -0.13139240488E+03 -0.15437315481E+03  0.27201763628E+03  0.17300000000E+03 0. -1.
<mgrwt>
<rscale>  2 0.22396992E+03</rscale>
<asrwt>0</asrwt>
<pdfrwt beam="1">  1       21 0.12938043E-01 0.22396992E+03</pdfrwt>
<pdfrwt beam="2">  1       21 0.10913262E+00 0.22396992E+03</pdfrwt>
<totfact> 0.33552848E+04</totfact>
</mgrwt>
</event>
<event>
 4    2  0.3903561E+000  0.2057741E+03  0.7546771E-02  0.1144957E+00
         21   -1    0    0  501  502  0.00000000000E+00  0.00000000000E+00  0.14796820262E+03  0.14796820262E+03  0.00000000000E+00 0. -1.
         21   -1    0    0  502  503 -0.00000000000E+00 -0.00000000000E+00 -0.33495629073E+03  0.33495629073E+03  0.00000000000E+00 0. -1.
          6    1    1    2  501    0  0.93413140025E+02  0.60728583687E+02 -0.13352674366E+01  0.20577842099E+03  0.17300000000E+03 0. -1.
         -6    1    1    2    0  503 -0.93413140025E+02 -0.60728583687E+02 -0.18565282067E+03  0.27714607237E+03  0.17300000000E+03 0. -1.
<mgrwt>
<rscale>  2 0.20577409E+03</rscale>
<asrwt>0</asrwt>
<pdfrwt beam="1">  1       21 0.22764339E-01 0.20577409E+03</pdfrwt>
<pdfrwt beam="2">  1       21 0.51531737E-01 0.20577409E+03</pdfrwt>
<totfact> 0.64358161E+04</totfact>
</mgrwt>
</event>
<event>
 4    2  0.3903561E+000  0.2336378E+03  0.7546771E-02  0.1124105E+00
         21   -1    0    0  503  502  0.00000000000E+00  0.00000000000E+00  0.26892908745E+03  0.26892908745E+03  0.00000000000E+00 0. -1.
         21   -1    0    0  501  503 -0.00000000000E+00 -0.00000000000E+00 -0.35626909975E+03  0.35626909975E+03  0.00000000000E+00 0. -1.
          6    1    1    2  501    0  0.79312082965E+02  0.13552577303E+03 -0.24871886278E+03  0.34124436165E+03  0.17300000000E+03 0. -1.
         -6    1    1    2    0  502 -0.79312082965E+02 -0.13552577303E+03  0.16137885048E+03  0.28395382555E+03  0.17300000000E+03 0. -1.
<mgrwt>
<rscale>  2 0.23363784E+03</rscale>
<asrwt>0</asrwt>
<pdfrwt beam="1">  1       21 0.41373706E-01 0.23363784E+03</pdfrwt>
<pdfrwt beam="2">  1       21 0.54810631E-01 0.23363784E+03</pdfrwt>
<totfact> 0.17257591E+04</totfact>
</mgrwt>
</event>
<event>
 4    2  0.3903561E+000  0.3536347E+03  0.7546771E-02  0.1061133E+00
         21   -1    0    0  503  502  0.00000000000E+00  0.00000000000E+00  0.63345725584E+03  0.63345725584E+03  0.00000000000E+00 0.  1.
         21   -1    0    0  501  503 -0.00000000000E+00 -0.00000000000E+00 -0.24501804545E+03  0.24501804545E+03  0.00000000000E+00 0. -1.
          6    1    1    2  501    0  0.30838438516E+03 -0.52477725845E+01  0.38781394671E+03  0.52484009506E+03  0.17300000000E+03 0.  1.
         -6    1    1    2    0  502 -0.30838438516E+03  0.52477725845E+01  0.62526367944E+00  0.35363520622E+03  0.17300000000E+03 0. -1.
<mgrwt>
<rscale>  2 0.35363465E+03</rscale>
<asrwt>0</asrwt>
<pdfrwt beam="1">  1       21 0.97454961E-01 0.35363465E+03</pdfrwt>
<pdfrwt beam="2">  1       21 0.37695084E-01 0.35363465E+03</pdfrwt>
<totfact> 0.53972886E+03</totfact>
</mgrwt>
</event>
<event>
 4    2  0.3903561E+000  0.2055651E+03  0.7546771E-02  0.1145127E+00
         21   -1    0    0  503  502  0.00000000000E+00  0.00000000000E+00  0.21330564626E+03  0.21330564626E+03  0.00000000000E+00 0. -1.
         21   -1    0    0  501  503 -0.00000000000E+00 -0.00000000000E+00 -0.43883143663E+03  0.43883143663E+03  0.00000000000E+00 0. -1.
          6    1    1    2  501    0  0.10962469693E+03  0.17619362772E+02 -0.35426532308E+03  0.40958629769E+03  0.17300000000E+03 0. -1.
         -6    1    1    2    0  502 -0.10962469693E+03 -0.17619362772E+02  0.12873953270E+03  0.24255078520E+03  0.17300000000E+03 0. -1.
<mgrwt>
<rscale>  2 0.20556511E+03</rscale>
<asrwt>0</asrwt>
<pdfrwt beam="1">  1       21 0.32816253E-01 0.20556511E+03</pdfrwt>
<pdfrwt beam="2">  1       21 0.67512528E-01 0.20556511E+03</pdfrwt>
<totfact> 0.17790594E+04</totfact>
</mgrwt>
</event>
<event>
 4    2  0.3903561E+000  0.2202134E+03  0.7546771E-02  0.1133724E+00
         21   -1    0    0  503  502  0.00000000000E+00  0.00000000000E+00  0.88546146606E+03  0.88546146606E+03  0.00000000000E+00 0.  1.
         21   -1    0    0  501  503 -0.00000000000E+00 -0.00000000000E+00 -0.68281422855E+02  0.68281422855E+02  0.00000000000E+00 0.  1.
          6    1    1    2  501    0  0.79254733241E+02 -0.11083147727E+03  0.19643597962E+03  0.29509493927E+03  0.17300000000E+03 0. -1.
         -6    1    1    2    0  502 -0.79254733241E+02  0.11083147727E+03  0.62074406359E+03  0.65864794965E+03  0.17300000000E+03 0. -1.
<mgrwt>
<rscale>  2 0.22021337E+03</rscale>
<asrwt>0</asrwt>
<pdfrwt beam="1">  1       21 0.13622483E+00 0.22021337E+03</pdfrwt>
<pdfrwt beam="2">  1       21 0.10504835E-01 0.22021337E+03</pdfrwt>
<totfact> 0.28085552E+04</totfact>
</mgrwt>
</event>
<event>
 4    2  0.3903561E+000  0.1966815E+03  0.7546771E-02  0.1152569E+00
         21   -1    0    0  503  502  0.00000000000E+00  0.00000000000E+00  0.29801502722E+03  0.29801502722E+03  0.00000000000E+00 0.  1.
         21   -1    0    0  501  503 -0.00000000000E+00 -0.00000000000E+00 -0.14626909027E+03  0.14626909027E+03  0.00000000000E+00 0.  1.
          6    1    1    2  501    0 -0.90633654794E+02  0.23240986813E+02  0.13424909463E+01  0.19668605729E+03  0.17300000000E+03 0.  1.
         -6    1    1    2    0  502  0.90633654794E+02 -0.23240986813E+02  0.15040344600E+03  0.24759806021E+03  0.17300000000E+03 0.  1.
<mgrwt>
<rscale>  2 0.19668148E+03</rscale>
<asrwt>0</asrwt>
<pdfrwt beam="1">  1       21 0.45848466E-01 0.19668148E+03</pdfrwt>
<pdfrwt beam="2">  1       21 0.22502937E-01 0.19668148E+03</pdfrwt>
<totfact> 0.84206475E+04</totfact>
</mgrwt>
</event>
<event>
 4    2  0.3903561E+000  0.1791442E+03  0.7546771E-02  0.1168634E+00
         21   -1    0    0  501  502  0.00000000000E+00  0.00000000000E+00  0.12539495141E+03  0.12539495141E+03  0.00000000000E+00 0. -1.
         21   -1    0    0  502  503 -0.00000000000E+00 -0.00000000000E+00 -0.32929189597E+03  0.32929189597E+03  0.00000000000E+00 0. -1.
          6    1    1    2  501    0 -0.46470318517E+02  0.20382611736E+01  0.53564662313E+01  0.17922426382E+03  0.17300000000E+03 0.  1.
         -6    1    1    2    0  503  0.46470318517E+02 -0.20382611736E+01 -0.20925341079E+03  0.27546258356E+03  0.17300000000E+03 0.  1.
<mgrwt>
<rscale>  2 0.17914420E+03</rscale>
<asrwt>0</asrwt>
<pdfrwt beam="1">  1       21 0.19291531E-01 0.17914420E+03</pdfrwt>
<pdfrwt beam="2">  1       21 0.50660291E-01 0.17914420E+03</pdfrwt>
<totfact> 0.92018550E+04</totfact>
</mgrwt>
</event>
<event>
 4    2  0.3903561E+000  0.1777703E+03  0.7546771E-02  0.1169979E+00
         21   -1    0    0  503  502  0.00000000000E+00  0.00000000000E+00  0.97726912442E+03  0.97726912442E+03  0.00000000000E+00 0. -1.
         21   -1    0    0  501  503 -0.00000000000E+00 -0.00000000000E+00 -0.10864923944E+03  0.10864923944E+03  0.00000000000E+00 0. -1.
          6    1    1    2  501    0  0.36067323013E+02 -0.19298469936E+02 -0.20730473626E+02  0.17897495710E+03  0.17300000000E+03 0. -1.
         -6    1    1    2    0  502 -0.36067323013E+02  0.19298469936E+02  0.88935035861E+03  0.90694340677E+03  0.17300000000E+03 0. -1.
<mgrwt>
<rscale>  2 0.17777031E+03</rscale>
<asrwt>0</asrwt>
<pdfrwt beam="1">  1       21 0.15034909E+00 0.17777031E+03</pdfrwt>
<pdfrwt beam="2">  1       21 0.16715268E-01 0.17777031E+03</pdfrwt>
<totfact> 0.96714128E+03</totfact>
</mgrwt>
</event>
<event>
 4    2  0.3903561E+000  0.2085979E+03  0.7546771E-02  0.1142681E+00
         21   -1    0    0  503  502  0.00000000000E+00  0.00000000000E+00  0.13310990752E+03  0.13310990752E+03  0.00000000000E+00 0. -1.
         21   -1    0    0  501  503 -0.00000000000E+00 -0.00000000000E+00 -0.50090629750E+03  0.50090629750E+03  0.00000000000E+00 0. -1.
          6    1    1    2  501    0 -0.94097889156E+02  0.68772683590E+02 -0.37074238862E+03  0.42539747704E+03  0.17300000000E+03 0.  1.
         -6    1    1    2    0  502  0.94097889156E+02 -0.68772683590E+02  0.29459986418E+01  0.20861872797E+03  0.17300000000E+03 0.  1.
<mgrwt>
<rscale>  2 0.20859793E+03</rscale>
<asrwt>0</asrwt>
<pdfrwt beam="1">  1       21 0.20478447E-01 0.20859793E+03</pdfrwt>
<pdfrwt beam="2">  1       21 0.77062508E-01 0.20859793E+03</pdfrwt>
<totfact> 0.32758959E+04</totfact>
</mgrwt>
</event>
<event>
 4    2  0.3903561E+000  0.1833406E+03  0.7546771E-02  0.1164609E+00
         21   -1    0    0  501  502  0.00000000000E+00  0.00000000000E+00  0.12179292982E+04  0.12179292982E+04  0.00000000000E+00 0. -1.
         21   -1    0    0  502  503 -0.00000000000E+00 -0.00000000000E+00 -0.13539046371E+03  0.13539046371E+03  0.00000000000E+00 0. -1.
          6    1    1    2  501    0  0.38858482916E+02  0.46634748097E+02  0.11450349621E+04  0.11596201300E+04  0.17300000000E+03 0. -1.
         -6    1    1    2    0  503 -0.38858482916E+02 -0.46634748097E+02 -0.62496127639E+02  0.19369963189E+03  0.17300000000E+03 0. -1.
<mgrwt>
<rscale>  2 0.18334062E+03</rscale>
<asrwt>0</asrwt>
<pdfrwt beam="1">  1       21 0.18737373E+00 0.18334062E+03</pdfrwt>
<pdfrwt beam="2">  1       21 0.20829303E-01 0.18334062E+03</pdfrwt>
<totfact> 0.35041565E+03</totfact>
</mgrwt>
</event>
<event>
 4    2  0.3903561E+000  0.1912856E+03  0.7546771E-02  0.1157307E+00
         21   -1    0    0  501  502  0.00000000000E+00  0.00000000000E+00  0.31116090797E+03  0.31116090797E+03  0.00000000000E+00 0. -1.
         21   -1    0    0  502  503 -0.00000000000E+00 -0.00000000000E+00 -0.12451727976E+03  0.12451727976E+03  0.00000000000E+00 0. -1.
          6    1    1    2  501    0  0.72617827473E+01  0.81292453236E+02  0.14469343271E+03  0.23984658828E+03  0.17300000000E+03 0. -1.
         -6    1    1    2    0  503 -0.72617827473E+01 -0.81292453236E+02  0.41950195497E+02  0.19583159945E+03  0.17300000000E+03 0. -1.
<mgrwt>
<rscale>  2 0.19128564E+03</rscale>
<asrwt>0</asrwt>
<pdfrwt beam="1">  1       21 0.47870909E-01 0.19128564E+03</pdfrwt>
<pdfrwt beam="2">  1       21 0.19156505E-01 0.19128564E+03</pdfrwt>
<totfact> 0.10439298E+05</totfact>
</mgrwt>
</event>
<event>
 4    2  0.3903561E+000  0.1980891E+03  0.7546771E-02  0.1151361E+00
         21   -1    0    0  501  502  0.00000000000E+00  0.00000000000E+00  0.21575120498E+03  0.21575120498E+03  0.00000000000E+00 0.  1.
         21   -1    0    0  502  503 -0.00000000000E+00 -0.00000000000E+00 -0.18191359058E+03  0.18191359058E+03  0.00000000000E+00 0. -1.
          6    1    1    2  501    0 -0.95615312080E+02 -0.12961358199E+02  0.19894673311E+02  0.19908561660E+03  0.17300000000E+03 0.  1.
         -6    1    1    2    0  503  0.95615312080E+02  0.12961358199E+02  0.13942941092E+02  0.19857917896E+03  0.17300000000E+03 0.  1.
<mgrwt>
<rscale>  2 0.19808908E+03</rscale>
<asrwt>0</asrwt>
<pdfrwt beam="1">  1       21 0.33192493E-01 0.19808908E+03</pdfrwt>
<pdfrwt beam="2">  1       21 0.27986706E-01 0.19808908E+03</pdfrwt>
<totfact> 0.10635250E+05</totfact>
</mgrwt>
</event>
<event>
 4    2  0.3903561E+000  0.1773016E+03  0.7546771E-02  0.1170440E+00
         21   -1    0    0  503  502  0.00000000000E+00  0.00000000000E+00  0.24971451505E+02  0.24971451505E+02  0.00000000000E+00 0. -1.
         21   -1    0    0  501  503 -0.00000000000E+00 -0.00000000000E+00 -0.13028978725E+04  0.13028978725E+04  0.00000000000E+00 0. -1.
          6    1    1    2  501    0  0.31819581959E+02  0.22234527749E+02 -0.51691698464E+03  0.54647875442E+03  0.17300000000E+03 0. -1.
         -6    1    1    2    0  502 -0.31819581959E+02 -0.22234527749E+02 -0.76100943636E+03  0.78139056959E+03  0.17300000000E+03 0. -1.
<mgrwt>
<rscale>  2 0.17730161E+03</rscale>
<asrwt>0</asrwt>
<pdfrwt beam="1">  1       21 0.38417618E-02 0.17730161E+03</pdfrwt>
<pdfrwt beam="2">  1       21 0.20044583E+00 0.17730161E+03</pdfrwt>
<totfact> 0.56484382E+04</totfact>
</mgrwt>
</event>
<event>
 4    2  0.3903561E+000  0.3083856E+03  0.7546771E-02  0.1081122E+00
         21   -1    0    0  503  502  0.00000000000E+00  0.00000000000E+00  0.14820235565E+03  0.14820235565E+03  0.00000000000E+00 0.  1.
         21   -1    0    0  501  503 -0.00000000000E+00 -0.00000000000E+00 -0.64646542023E+03  0.64646542023E+03  0.00000000000E+00 0.  1.
          6    1    1    2  501    0  0.21159398909E+03  0.14283079366E+03 -0.28324076813E+03  0.41872065218E+03  0.17300000000E+03 0.  1.
         -6    1    1    2    0  502 -0.21159398909E+03 -0.14283079366E+03 -0.21502229646E+03  0.37594712369E+03  0.17300000000E+03 0.  1.
<mgrwt>
<rscale>  2 0.30838556E+03</rscale>
<asrwt>0</asrwt>
<pdfrwt beam="1">  1       21 0.22800363E-01 0.30838556E+03</pdfrwt>
<pdfrwt beam="2">  1       21 0.99456217E-01 0.30838556E+03</pdfrwt>
<totfact> 0.14105977E+04</totfact>
</mgrwt>
</event>
<event>
 4    2  0.3903561E+000  0.1939527E+03  0.7546771E-02  0.1154944E+00
         21   -1    0    0  501  502  0.00000000000E+00  0.00000000000E+00  0.15776445931E+03  0.15776445931E+03  0.00000000000E+00 0.  1.
         21   -1    0    0  502  503 -0.00000000000E+00 -0.00000000000E+00 -0.33930509022E+03  0.33930509022E+03  0.00000000000E+00 0. -1.
          6    1    1    2  501    0 -0.60873733741E+02  0.63111319838E+02  0.44735653330E+02  0.19904504221E+03  0.17300000000E+03 0.  1.
         -6    1    1    2    0  503  0.60873733741E+02 -0.63111319838E+02 -0.22627628424E+03  0.29802450731E+03  0.17300000000E+03 0. -1.
<mgrwt>
<rscale>  2 0.19395270E+03</rscale>
<asrwt>0</asrwt>
<pdfrwt beam="1">  1       21 0.24271456E-01 0.19395270E+03</pdfrwt>
<pdfrwt beam="2">  1       21 0.52200782E-01 0.19395270E+03</pdfrwt>
<totfact> 0.55770348E+04</totfact>
</mgrwt>
</event>
<event>
 4    2  0.3903561E+000  0.1885462E+03  0.7546771E-02  0.1159779E+00
         21   -1    0    0  501  502  0.00000000000E+00  0.00000000000E+00  0.75925389949E+02  0.75925389949E+02  0.00000000000E+00 0.  1.
         21   -1    0    0  502  503 -0.00000000000E+00 -0.00000000000E+00 -0.13267131997E+04  0.13267131997E+04  0.00000000000E+00 0.  1.
          6    1    1    2  501    0 -0.39746828525E+02 -0.63567729719E+02 -0.61241959537E+02  0.19824289205E+03  0.17300000000E+03 0.  1.
         -6    1    1    2    0  503  0.39746828525E+02  0.63567729719E+02 -0.11895458502E+04  0.12043956976E+04  0.17300000000E+03 0.  1.
<mgrwt>
<rscale>  2 0.18854619E+03</rscale>
<asrwt>0</asrwt>
<pdfrwt beam="1">  1       21 0.11680830E-01 0.18854619E+03</pdfrwt>
<pdfrwt beam="2">  1       21 0.20410972E+00 0.18854619E+03</pdfrwt>
<totfact> 0.78118217E+03</totfact>
</mgrwt>
</event>
<event>
 4    2  0.3903561E+000  0.1778685E+03  0.7546771E-02  0.1169882E+00
         21   -1    0    0  501  502  0.00000000000E+00  0.00000000000E+00  0.80391380432E+03  0.80391380432E+03  0.00000000000E+00 0.  1.
         21   -1    0    0  502  503 -0.00000000000E+00 -0.00000000000E+00 -0.51575182910E+02  0.51575182910E+02  0.00000000000E+00 0.  1.
          6    1    1    2  501    0 -0.14976354502E+02  0.38521405993E+02  0.58438881649E+03  0.61085798575E+03  0.17300000000E+03 0.  1.
         -6    1    1    2    0  503  0.14976354502E+02 -0.38521405993E+02  0.16794980493E+03  0.24463100149E+03  0.17300000000E+03 0.  1.
<mgrwt>
<rscale>  2 0.17786846E+03</rscale>
<asrwt>0</asrwt>
<pdfrwt beam="1">  1       21 0.12367904E+00 0.17786846E+03</pdfrwt>
<pdfrwt beam="2">  1       21 0.79346441E-02 0.17786846E+03</pdfrwt>
<totfact> 0.60075300E+04</totfact>
</mgrwt>
</event>
<event>
 4    2  0.3903561E+000  0.1918136E+03  0.7546771E-02  0.1156836E+00
         21   -1    0    0  503  502  0.00000000000E+00  0.00000000000E+00  0.31595043899E+03  0.31595043899E+03  0.00000000000E+00 0.  1.
         21   -1    0    0  501  503 -0.00000000000E+00 -0.00000000000E+00 -0.14924306287E+03  0.14924306287E+03  0.00000000000E+00 0.  1.
          6    1    1    2  501    0  0.15663482603E+02  0.81351702585E+02 -0.25676618086E+02  0.19352450211E+03  0.17300000000E+03 0.  1.
         -6    1    1    2    0  502 -0.15663482603E+02 -0.81351702585E+02  0.19238399420E+03  0.27166899975E+03  0.17300000000E+03 0.  1.
<mgrwt>
<rscale>  2 0.19181357E+03</rscale>
<asrwt>0</asrwt>
<pdfrwt beam="1">  1       21 0.48607760E-01 0.19181357E+03</pdfrwt>
<pdfrwt beam="2">  1       21 0.22960471E-01 0.19181357E+03</pdfrwt>
<totfact> 0.71985134E+04</totfact>
</mgrwt>
</event>
<event>
 4    2  0.3903561E+000  0.2036925E+03  0.7546771E-02  0.1146660E+00
         21   -1    0    0  503  502  0.00000000000E+00  0.00000000000E+00  0.40507522958E+03  0.40507522958E+03  0.00000000000E+00 0. -1.
         21   -1    0    0  501  503 -0.00000000000E+00 -0.00000000000E+00 -0.26770001368E+03  0.26770001368E+03  0.00000000000E+00 0.  1.
          6    1    1    2  501    0 -0.10279706556E+03  0.31534388038E+02 -0.19562430511E+03  0.28241728535E+03  0.17300000000E+03 0.  1.
         -6    1    1    2    0  502  0.10279706556E+03 -0.31534388038E+02  0.33299952101E+03  0.39035795791E+03  0.17300000000E+03 0. -1.
<mgrwt>
<rscale>  2 0.20369255E+03</rscale>
<asrwt>0</asrwt>
<pdfrwt beam="1">  1       21 0.62319266E-01 0.20369255E+03</pdfrwt>
<pdfrwt beam="2">  1       21 0.41184617E-01 0.20369255E+03</pdfrwt>
<totfact> 0.13461315E+04</totfact>
</mgrwt>
</event>
<event>
 4    2  0.3903561E+000  0.1772043E+03  0.7546771E-02  0.1170537E+00
         21   -1    0    0  501  502  0.00000000000E+00  0.00000000000E+00  0.34268420890E+03  0.34268420890E+03  0.00000000000E+00 0.  1.
         21   -1    0    0  502  503 -0.00000000000E+00 -0.00000000000E+00 -0.23113607047E+03  0.23113607047E+03  0.00000000000E+00 0.  1.
          6    1    1    2  501    0 -0.33020349491E+02 -0.19545030512E+02  0.27867051686E+03  0.33024022872E+03  0.17300000000E+03 0.  1.
         -6    1    1    2    0  503  0.33020349491E+02  0.19545030512E+02 -0.16712237844E+03  0.24358005065E+03  0.17300000000E+03 0.  1.
<mgrwt>
<rscale>  2 0.17720427E+03</rscale>
<asrwt>0</asrwt>
<pdfrwt beam="1">  1       21 0.52720647E-01 0.17720427E+03</pdfrwt>
<pdfrwt beam="2">  1       21 0.35559395E-01 0.17720427E+03</pdfrwt>
<totfact> 0.26232283E+04</totfact>
</mgrwt>
</event>
<event>
 4    2  0.3903561E+000  0.1896265E+03  0.7546771E-02  0.1158799E+00
         21   -1    0    0  503  502  0.00000000000E+00  0.00000000000E+00  0.59183361505E+03  0.59183361505E+03  0.00000000000E+00 0. -1.
         21   -1    0    0  501  503 -0.00000000000E+00 -0.00000000000E+00 -0.15317936252E+03  0.15317936252E+03  0.00000000000E+00 0. -1.
          6    1    1    2  501    0 -0.47077651334E+02  0.61748610713E+02 -0.70021620839E+02  0.20214159286E+03  0.17300000000E+03 0. -1.
         -6    1    1    2    0  502  0.47077651334E+02 -0.61748610713E+02  0.50867587337E+03  0.54287138470E+03  0.17300000000E+03 0. -1.
<mgrwt>
<rscale>  2 0.18962646E+03</rscale>
<asrwt>0</asrwt>
<pdfrwt beam="1">  1       21 0.91051324E-01 0.18962646E+03</pdfrwt>
<pdfrwt beam="2">  1       21 0.23566056E-01 0.18962646E+03</pdfrwt>
<totfact> 0.17366795E+04</totfact>
</mgrwt>
</event>
<event>
 4    2  0.3903561E+000  0.3254510E+03  0.7546771E-02  0.1073168E+00
         21   -1    0    0  501  502  0.00000000000E+00  0.00000000000E+00  0.15263469711E+03  0.15263469711E+03  0.00000000000E+00 0.  1.
         21   -1    0    0  502  503 -0.00000000000E+00 -0.00000000000E+00 -0.92959744299E+03  0.92959744299E+03  0.00000000000E+00 0.  1.
          6    1    1    2  501    0 -0.24505477025E+02  0.27457026270E+03 -0.66093301699E+03  0.73671622794E+03  0.17300000000E+03 0.  1.
         -6    1    1    2    0  503  0.24505477025E+02 -0.27457026270E+03 -0.11602972888E+03  0.34551591215E+03  0.17300000000E+03 0.  1.
<mgrwt>
<rscale>  2 0.32545099E+03</rscale>
<asrwt>0</asrwt>
<pdfrwt beam="1">  1       21 0.23482262E-01 0.32545099E+03</pdfrwt>
<pdfrwt beam="2">  1       21 0.14301499E+00 0.32545099E+03</pdfrwt>
<totfact> 0.53078770E+03</totfact>
</mgrwt>
</event>
<event>
 4    2  0.3903561E+000  0.2075052E+03  0.7546771E-02  0.1143557E+00
         21   -1    0    0  501  502  0.00000000000E+00  0.00000000000E+00  0.12419918930E+03  0.12419918930E+03  0.00000000000E+00 0.  1.
         21   -1    0    0  502  503 -0.00000000000E+00 -0.00000000000E+00 -0.40947244751E+03  0.40947244751E+03  0.00000000000E+00 0.  1.
          6    1    1    2  501    0 -0.25876590898E+02 -0.11162356148E+03 -0.24712223390E+03  0.32268841925E+03  0.17300000000E+03 0.  1.
         -6    1    1    2    0  503  0.25876590898E+02  0.11162356148E+03 -0.38151024314E+02  0.21098321756E+03  0.17300000000E+03 0.  1.
<mgrwt>
<rscale>  2 0.20750522E+03</rscale>
<asrwt>0</asrwt>
<pdfrwt beam="1">  1       21 0.19107568E-01 0.20750522E+03</pdfrwt>
<pdfrwt beam="2">  1       21 0.62995761E-01 0.20750522E+03</pdfrwt>
<totfact> 0.58221655E+04</totfact>
</mgrwt>
</event>
<event>
 4    2  0.3903561E+000  0.2036289E+03  0.7546771E-02  0.1146713E+00
         21   -1    0    0  503  502  0.00000000000E+00  0.00000000000E+00  0.18018099521E+03  0.18018099521E+03  0.00000000000E+00 0.  1.
         21   -1    0    0  501  503 -0.00000000000E+00 -0.00000000000E+00 -0.25965197703E+03  0.25965197703E+03  0.00000000000E+00 0.  1.
          6    1    1    2  501    0  0.82730817504E+02  0.68493485620E+02 -0.11389164689E+03  0.23331535091E+03  0.17300000000E+03 0.  1.
         -6    1    1    2    0  502 -0.82730817504E+02 -0.68493485620E+02  0.34420665069E+02  0.20651762133E+03  0.17300000000E+03 0.  1.
<mgrwt>
<rscale>  2 0.20362894E+03</rscale>
<asrwt>0</asrwt>
<pdfrwt beam="1">  1       21 0.27720153E-01 0.20362894E+03</pdfrwt>
<pdfrwt beam="2">  1       21 0.39946458E-01 0.20362894E+03</pdfrwt>
<totfact> 0.74669153E+04</totfact>
</mgrwt>
</event>
<event>
 4    2  0.3903561E+000  0.2406530E+03  0.7546771E-02  0.1119359E+00
         21   -1    0    0  501  502  0.00000000000E+00  0.00000000000E+00  0.23032597741E+03  0.23032597741E+03  0.00000000000E+00 0. -1.
         21   -1    0    0  502  503 -0.00000000000E+00 -0.00000000000E+00 -0.29881783348E+03  0.29881783348E+03  0.00000000000E+00 0.  1.
          6    1    1    2  501    0 -0.15799631529E+03  0.54973180607E+02  0.71099014433E+02  0.25093615938E+03  0.17300000000E+03 0. -1.
         -6    1    1    2    0  503  0.15799631529E+03 -0.54973180607E+02 -0.13959087051E+03  0.27820765151E+03  0.17300000000E+03 0.  1.
<mgrwt>
<rscale>  2 0.24065304E+03</rscale>
<asrwt>0</asrwt>
<pdfrwt beam="1">  1       21 0.35434766E-01 0.24065304E+03</pdfrwt>
<pdfrwt beam="2">  1       21 0.45971974E-01 0.24065304E+03</pdfrwt>
<totfact> 0.34002651E+04</totfact>
</mgrwt>
</event>
<event>
 4    2  0.3903561E+000  0.1785041E+03  0.7546771E-02  0.1169259E+00
         21   -1    0    0  503  502  0.00000000000E+00  0.00000000000E+00  0.14952464087E+03  0.14952464087E+03  0.00000000000E+00 0.  1.
         21   -1    0    0  501  503 -0.00000000000E+00 -0.00000000000E+00 -0.76172578018E+03  0.76172578018E+03  0.00000000000E+00 0.  1.
          6    1    1    2  501    0  0.42453720471E+02 -0.11507001749E+02 -0.69277588596E+03  0.71540349289E+03  0.17300000000E+03 0.  1.
         -6    1    1    2    0  502 -0.42453720471E+02  0.11507001749E+02  0.80574746657E+02  0.19584692816E+03  0.17300000000E+03 0.  1.
<mgrwt>
<rscale>  2 0.17850414E+03</rscale>
<asrwt>0</asrwt>
<pdfrwt beam="1">  1       21 0.23003791E-01 0.17850414E+03</pdfrwt>
<pdfrwt beam="2">  1       21 0.11718858E+00 0.17850414E+03</pdfrwt>
<totfact> 0.10036842E+04</totfact>
</mgrwt>
</event>
<event>
 4    2  0.3903561E+000  0.2020066E+03  0.7546771E-02  0.1148057E+00
         21   -1    0    0  503  502  0.00000000000E+00  0.00000000000E+00  0.11010537332E+03  0.11010537332E+03  0.00000000000E+00 0. -1.
         21   -1    0    0  501  503 -0.00000000000E+00 -0.00000000000E+00 -0.89158025880E+03  0.89158025880E+03  0.00000000000E+00 0.  1.
          6    1    1    2  501    0  0.32147669936E+02  0.99217829653E+02 -0.77358493535E+03  0.79952504814E+03  0.17300000000E+03 0.  1.
         -6    1    1    2    0  502 -0.32147669936E+02 -0.99217829653E+02 -0.78899501253E+01  0.20216058398E+03  0.17300000000E+03 0. -1.
<mgrwt>
<rscale>  2 0.20200656E+03</rscale>
<asrwt>0</asrwt>
<pdfrwt beam="1">  1       21 0.16939288E-01 0.20200656E+03</pdfrwt>
<pdfrwt beam="2">  1       21 0.13716619E+00 0.20200656E+03</pdfrwt>
<totfact> 0.11765506E+04</totfact>
</mgrwt>
</event>
<event>
 4    2  0.3903561E+000  0.1765034E+03  0.7546771E-02  0.1171231E+00
         21   -1    0    0  501  502  0.00000000000E+00  0.00000000000E+00  0.61796744101E+02  0.61796744101E+02  0.00000000000E+00 0. -1.
         21   -1    0    0  502  503 -0.00000000000E+00 -0.00000000000E+00 -0.76574122845E+03  0.76574122845E+03  0.00000000000E+00 0. -1.
          6    1    1    2  501    0 -0.23069424994E+02  0.26310651776E+02 -0.11012171295E+03  0.20803903583E+03  0.17300000000E+03 0. -1.
         -6    1    1    2    0  503  0.23069424994E+02 -0.26310651776E+02 -0.59382277139E+03  0.61949893671E+03  0.17300000000E+03 0. -1.
<mgrwt>
<rscale>  2 0.17650340E+03</rscale>
<asrwt>0</asrwt>
<pdfrwt beam="1">  1       21 0.95071910E-02 0.17650340E+03</pdfrwt>
<pdfrwt beam="2">  1       21 0.11780635E+00 0.17650340E+03</pdfrwt>
<totfact> 0.49446925E+04</totfact>
</mgrwt>
</event>
<event>
 4    2  0.3903561E+000  0.1922268E+03  0.7546771E-02  0.1156468E+00
         21   -1    0    0  503  502  0.00000000000E+00  0.00000000000E+00  0.17033851856E+03  0.17033851856E+03  0.00000000000E+00 0. -1.
         21   -1    0    0  501  503 -0.00000000000E+00 -0.00000000000E+00 -0.21807647409E+03  0.21807647409E+03  0.00000000000E+00 0.  1.
          6    1    1    2  501    0  0.77611995752E+02  0.31599265078E+02 -0.37964700413E+02  0.19593992425E+03  0.17300000000E+03 0. -1.
         -6    1    1    2    0  502 -0.77611995752E+02 -0.31599265078E+02 -0.97732551170E+01  0.19247506839E+03  0.17300000000E+03 0. -1.
<mgrwt>
<rscale>  2 0.19222678E+03</rscale>
<asrwt>0</asrwt>
<pdfrwt beam="1">  1       21 0.26205926E-01 0.19222678E+03</pdfrwt>
<pdfrwt beam="2">  1       21 0.33550227E-01 0.19222678E+03</pdfrwt>
<totfact> 0.11845911E+05</totfact>
</mgrwt>
</event>
<event>
 4    2  0.3903561E+000  0.1825582E+03  0.7546771E-02  0.1165350E+00
         21   -1    0    0  501  502  0.00000000000E+00  0.00000000000E+00  0.15779507936E+03  0.15779507936E+03  0.00000000000E+00 0. -1.
         21   -1    0    0  502  503 -0.00000000000E+00 -0.00000000000E+00 -0.21137376534E+03  0.21137376534E+03  0.00000000000E+00 0. -1.
          6    1    1    2  501    0 -0.53948411362E+02  0.22092331883E+02 -0.21612237793E+02  0.18383305209E+03  0.17300000000E+03 0. -1.
         -6    1    1    2    0  503  0.53948411362E+02 -0.22092331883E+02 -0.31966448190E+02  0.18533579262E+03  0.17300000000E+03 0. -1.
<mgrwt>
<rscale>  2 0.18255822E+03</rscale>
<asrwt>0</asrwt>
<pdfrwt beam="1">  1       21 0.24276166E-01 0.18255822E+03</pdfrwt>
<pdfrwt beam="2">  1       21 0.32519041E-01 0.18255822E+03</pdfrwt>
<totfact> 0.14625031E+05</totfact>
</mgrwt>
</event>
<event>
 4    2  0.3903561E+000  0.2347883E+03  0.7546771E-02  0.1123314E+00
         21   -1    0    0  501  502  0.00000000000E+00  0.00000000000E+00  0.71795318667E+02  0.71795318667E+02  0.00000000000E+00 0.  1.
         21   -1    0    0  502  503 -0.00000000000E+00 -0.00000000000E+00 -0.10823251439E+04  0.10823251439E+04  0.00000000000E+00 0.  1.
          6    1    1    2  501    0 -0.84989773766E+02 -0.13406455557E+03 -0.19419416277E+03  0.30469154822E+03  0.17300000000E+03 0.  1.
         -6    1    1    2    0  503  0.84989773766E+02  0.13406455557E+03 -0.81633566243E+03  0.84942891431E+03  0.17300000000E+03 0.  1.
<mgrwt>
<rscale>  2 0.23478834E+03</rscale>
<asrwt>0</asrwt>
<pdfrwt beam="1">  1       21 0.11045434E-01 0.23478834E+03</pdfrwt>
<pdfrwt beam="2">  1       21 0.16651155E+00 0.23478834E+03</pdfrwt>
<totfact> 0.14926937E+04</totfact>
</mgrwt>
</event>
<event>
 4    2  0.3903561E+000  0.2002413E+03  0.7546771E-02  0.1149536E+00
         21   -1    0    0  501  502  0.00000000000E+00  0.00000000000E+00  0.44216212212E+02  0.44216212212E+02  0.00000000000E+00 0.  1.
         21   -1    0    0  502  503 -0.00000000000E+00 -0.00000000000E+00 -0.10731769456E+04  0.10731769456E+04  0.00000000000E+00 0. -1.
          6    1    1    2  501    0 -0.82476327043E+02  0.58010805396E+02 -0.73444226291E+03  0.76125031075E+03  0.17300000000E+03 0. -1.
         -6    1    1    2    0  503  0.82476327043E+02 -0.58010805396E+02 -0.29451847050E+03  0.35614284708E+03  0.17300000000E+03 0.  1.
<mgrwt>
<rscale>  2 0.20024135E+03</rscale>
<asrwt>0</asrwt>
<pdfrwt beam="1">  1       21 0.68024945E-02 0.20024135E+03</pdfrwt>
<pdfrwt beam="2">  1       21 0.16510414E+00 0.20024135E+03</pdfrwt>
<totfact> 0.36561373E+04</totfact>
</mgrwt>
</event>
<event>
 4    2  0.3903561E+000  0.1917860E+03  0.7546771E-02  0.1156860E+00
         21   -1    0    0  501  502  0.00000000000E+00  0.00000000000E+00  0.85230752038E+02  0.85230752038E+02  0.00000000000E+00 0.  1.
         21   -1    0    0  502  503 -0.00000000000E+00 -0.00000000000E+00 -0.46016900073E+03  0.46016900073E+03  0.00000000000E+00 0.  1.
          6    1    1    2  501    0 -0.50725821082E+02 -0.65419769451E+02 -0.11946945033E+03  0.22595310293E+03  0.17300000000E+03 0.  1.
         -6    1    1    2    0  503  0.50725821082E+02  0.65419769451E+02 -0.25546879836E+03  0.31944664984E+03  0.17300000000E+03 0.  1.
<mgrwt>
<rscale>  2 0.19178596E+03</rscale>
<asrwt>0</asrwt>
<pdfrwt beam="1">  1       21 0.13112423E-01 0.19178596E+03</pdfrwt>
<pdfrwt beam="2">  1       21 0.70795232E-01 0.19178596E+03</pdfrwt>
<totfact> 0.90487776E+04</totfact>
</mgrwt>
</event>
<event>
 4    2  0.3903561E+000  0.1832380E+03  0.7546771E-02  0.1164706E+00
         21   -1    0    0  503  502  0.00000000000E+00  0.00000000000E+00  0.27172747471E+03  0.27172747471E+03  0.00000000000E+00 0.  1.
         21   -1    0    0  501  503 -0.00000000000E+00 -0.00000000000E+00 -0.14251494830E+03  0.14251494830E+03  0.00000000000E+00 0.  1.
          6    1    1    2  501    0 -0.92610444134E+01 -0.59677384397E+02 -0.10918954108E+02  0.18356301564E+03  0.17300000000E+03 0.  1.
         -6    1    1    2    0  502  0.92610444134E+01  0.59677384397E+02  0.14013148052E+03  0.23067940737E+03  0.17300000000E+03 0.  1.
<mgrwt>
<rscale>  2 0.18323798E+03</rscale>
<asrwt>0</asrwt>
<pdfrwt beam="1">  1       21 0.41804227E-01 0.18323798E+03</pdfrwt>
<pdfrwt beam="2">  1       21 0.21925377E-01 0.18323798E+03</pdfrwt>
<totfact> 0.10737972E+05</totfact>
</mgrwt>
</event>
<event>
 4    2  0.3903561E+000  0.2579086E+03  0.7546771E-02  0.1108406E+00
         21   -1    0    0  501  502  0.00000000000E+00  0.00000000000E+00  0.32628163903E+02  0.32628163903E+02  0.00000000000E+00 0. -1.
         21   -1    0    0  502  503 -0.00000000000E+00 -0.00000000000E+00 -0.20418785685E+04  0.20418785685E+04  0.00000000000E+00 0. -1.
          6    1    1    2  501    0 -0.14404710386E+03  0.12585030738E+03 -0.96327460523E+03  0.99720350635E+03  0.17300000000E+03 0. -1.
         -6    1    1    2    0  503  0.14404710386E+03 -0.12585030738E+03 -0.10459757993E+04  0.10773032260E+04  0.17300000000E+03 0. -1.
<mgrwt>
<rscale>  2 0.25790864E+03</rscale>
<asrwt>0</asrwt>
<pdfrwt beam="1">  1       21 0.50197170E-02 0.25790864E+03</pdfrwt>
<pdfrwt beam="2">  1       21 0.31413520E+00 0.25790864E+03</pdfrwt>
<totfact> 0.70845977E+03</totfact>
</mgrwt>
</event>
<event>
 4    2  0.3903561E+000  0.2538501E+03  0.7546771E-02  0.1110896E+00
         21   -1    0    0  501  502  0.00000000000E+00  0.00000000000E+00  0.85170174860E+02  0.85170174860E+02  0.00000000000E+00 0.  1.
         21   -1    0    0  502  503 -0.00000000000E+00 -0.00000000000E+00 -0.10586444661E+04  0.10586444661E+04  0.00000000000E+00 0. -1.
          6    1    1    2  501    0  0.17569210540E+03  0.60358643732E+02 -0.18125561682E+03  0.31191902860E+03  0.17300000000E+03 0.  1.
         -6    1    1    2    0  503 -0.17569210540E+03 -0.60358643732E+02 -0.79221867442E+03  0.83189561237E+03  0.17300000000E+03 0. -1.
<mgrwt>
<rscale>  2 0.25385012E+03</rscale>
<asrwt>0</asrwt>
<pdfrwt beam="1">  1       21 0.13103105E-01 0.25385012E+03</pdfrwt>
<pdfrwt beam="2">  1       21 0.16286837E+00 0.25385012E+03</pdfrwt>
<totfact> 0.11531791E+04</totfact>
</mgrwt>
</event>
<event>
 4    2  0.3903561E+000  0.1866808E+03  0.7546771E-02  0.1161490E+00
         21   -1    0    0  501  502  0.00000000000E+00  0.00000000000E+00  0.31284499254E+02  0.31284499254E+02  0.00000000000E+00 0.  1.
         21   -1    0    0  502  503 -0.00000000000E+00 -0.00000000000E+00 -0.11350009809E+04  0.11350009809E+04  0.00000000000E+00 0.  1.
          6    1    1    2  501    0  0.29469349620E+02  0.63657613826E+02 -0.63125304297E+03  0.65827816204E+03  0.17300000000E+03 0.  1.
         -6    1    1    2    0  503 -0.29469349620E+02 -0.63657613826E+02 -0.47246343865E+03  0.50800731808E+03  0.17300000000E+03 0.  1.
<mgrwt>
<rscale>  2 0.18668084E+03</rscale>
<asrwt>0</asrwt>
<pdfrwt beam="1">  1       21 0.48129995E-02 0.18668084E+03</pdfrwt>
<pdfrwt beam="2">  1       21 0.17461555E+00 0.18668084E+03</pdfrwt>
<totfact> 0.57049854E+04</totfact>
</mgrwt>
</event>
<event>
 4    2  0.3903561E+000  0.2549083E+03  0.7546771E-02  0.1110242E+00
         21   -1    0    0  501  502  0.00000000000E+00  0.00000000000E+00  0.24113722122E+03  0.24113722122E+03  0.00000000000E+00 0.  1.
         21   -1    0    0  502  503 -0.00000000000E+00 -0.00000000000E+00 -0.35358183492E+03  0.35358183492E+03  0.00000000000E+00 0. -1.
          6    1    1    2  501    0 -0.14717958994E+03 -0.11570400325E+03  0.88813800247E+02  0.26993728749E+03  0.17300000000E+03 0.  1.
         -6    1    1    2    0  503  0.14717958994E+03  0.11570400325E+03 -0.20125841394E+03  0.32478176865E+03  0.17300000000E+03 0. -1.
<mgrwt>
<rscale>  2 0.25490831E+03</rscale>
<asrwt>0</asrwt>
<pdfrwt beam="1">  1       21 0.37098034E-01 0.25490831E+03</pdfrwt>
<pdfrwt beam="2">  1       21 0.54397205E-01 0.25490831E+03</pdfrwt>
<totfact> 0.21646009E+04</totfact>
</mgrwt>
</event>
<event>
 4    2  0.3903561E+000  0.1889870E+03  0.7546771E-02  0.1159378E+00
         21   -1    0    0  501  502  0.00000000000E+00  0.00000000000E+00  0.55231265214E+02  0.55231265214E+02  0.00000000000E+00 0. -1.
         21   -1    0    0  502  503 -0.00000000000E+00 -0.00000000000E+00 -0.79963487362E+03  0.79963487362E+03  0.00000000000E+00 0. -1.
          6    1    1    2  501    0 -0.74999715465E+02  0.12733230514E+02 -0.18525154363E+03  0.26463980595E+03  0.17300000000E+03 0. -1.
         -6    1    1    2    0  503  0.74999715465E+02 -0.12733230514E+02 -0.55915206479E+03  0.59022633289E+03  0.17300000000E+03 0. -1.
<mgrwt>
<rscale>  2 0.18898702E+03</rscale>
<asrwt>0</asrwt>
<pdfrwt beam="1">  1       21 0.84971184E-02 0.18898702E+03</pdfrwt>
<pdfrwt beam="2">  1       21 0.12302074E+00 0.18898702E+03</pdfrwt>
<totfact> 0.53728623E+04</totfact>
</mgrwt>
</event>
<event>
 4    2  0.3903561E+000  0.2136082E+03  0.7546771E-02  0.1138740E+00
         21   -1    0    0  501  502  0.00000000000E+00  0.00000000000E+00  0.14092232798E+04  0.14092232798E+04  0.00000000000E+00 0.  1.
         21   -1    0    0  502  503 -0.00000000000E+00 -0.00000000000E+00 -0.36826038470E+03  0.36826038470E+03  0.00000000000E+00 0.  1.
          6    1    1    2  501    0 -0.12185465587E+03 -0.29170295181E+02  0.13692542313E+04  0.13858158655E+04  0.17300000000E+03 0.  1.
         -6    1    1    2    0  503  0.12185465587E+03  0.29170295181E+02 -0.32829133622E+03  0.39166779893E+03  0.17300000000E+03 0.  1.
<mgrwt>
<rscale>  2 0.21360820E+03</rscale>
<asrwt>0</asrwt>
<pdfrwt beam="1">  1       21 0.21680358E+00 0.21360820E+03</pdfrwt>
<pdfrwt beam="2">  1       21 0.56655445E-01 0.21360820E+03</pdfrwt>
<totfact> 0.30025737E+02</totfact>
</mgrwt>
</event>
<event>
 4    2  0.3903561E+000  0.1928913E+03  0.7546771E-02  0.1155879E+00
         21   -1    0    0  503  502  0.00000000000E+00  0.00000000000E+00  0.59945707724E+03  0.59945707724E+03  0.00000000000E+00 0.  1.
         21   -1    0    0  501  503 -0.00000000000E+00 -0.00000000000E+00 -0.71453989882E+02  0.71453989882E+02  0.00000000000E+00 0. -1.
          6    1    1    2  501    0  0.71143600252E+02 -0.47081039411E+02  0.14242093978E+03  0.23977230911E+03  0.17300000000E+03 0. -1.
         -6    1    1    2    0  502 -0.71143600252E+02  0.47081039411E+02  0.38558214758E+03  0.43113875801E+03  0.17300000000E+03 0.  1.
<mgrwt>
<rscale>  2 0.19289125E+03</rscale>
<asrwt>0</asrwt>
<pdfrwt beam="1">  1       21 0.92224163E-01 0.19289125E+03</pdfrwt>
<pdfrwt beam="2">  1       21 0.10992922E-01 0.19289125E+03</pdfrwt>
<totfact> 0.68109507E+04</totfact>
</mgrwt>
</event>
<event>
 4    2  0.3903561E+000  0.2947681E+03  0.7546771E-02  0.1087886E+00
         21   -1    0    0  501  502  0.00000000000E+00  0.00000000000E+00  0.76213944658E+02  0.76213944658E+02  0.00000000000E+00 0.  1.
         21   -1    0    0  502  503 -0.00000000000E+00 -0.00000000000E+00 -0.15440564058E+04  0.15440564058E+04  0.00000000000E+00 0. -1.
          6    1    1    2  501    0 -0.77350635767E+02 -0.22577884594E+03 -0.31952432455E+03  0.43472290267E+03  0.17300000000E+03 0.  1.
         -6    1    1    2    0  503  0.77350635767E+02  0.22577884594E+03 -0.11483181366E+04  0.11855474478E+04  0.17300000000E+03 0. -1.
<mgrwt>
<rscale>  2 0.29476806E+03</rscale>
<asrwt>0</asrwt>
<pdfrwt beam="1">  1       21 0.11725222E-01 0.29476806E+03</pdfrwt>
<pdfrwt beam="2">  1       21 0.23754714E+00 0.29476806E+03</pdfrwt>
<totfact> 0.44284827E+03</totfact>
</mgrwt>
</event>
<event>
 4    2  0.3903561E+000  0.2412043E+03  0.7546771E-02  0.1118993E+00
         21   -1    0    0  503  502  0.00000000000E+00  0.00000000000E+00  0.40246913198E+03  0.40246913198E+03  0.00000000000E+00 0. -1.
         21   -1    0    0  501  503 -0.00000000000E+00 -0.00000000000E+00 -0.17691895152E+03  0.17691895152E+03  0.00000000000E+00 0. -1.
          6    1    1    2  501    0  0.16507195111E+03  0.31650559370E+02 -0.11125524118E+02  0.24146073022E+03  0.17300000000E+03 0. -1.
         -6    1    1    2    0  502 -0.16507195111E+03 -0.31650559370E+02  0.23667570458E+03  0.33792735327E+03  0.17300000000E+03 0. -1.
<mgrwt>
<rscale>  2 0.24120428E+03</rscale>
<asrwt>0</asrwt>
<pdfrwt beam="1">  1       21 0.61918328E-01 0.24120428E+03</pdfrwt>
<pdfrwt beam="2">  1       21 0.27218300E-01 0.24120428E+03</pdfrwt>
<totfact> 0.30396043E+04</totfact>
</mgrwt>
</event>
<event>
 4    2  0.3903561E+000  0.1757393E+03  0.7546771E-02  0.1171991E+00
         21   -1    0    0  501  502  0.00000000000E+00  0.00000000000E+00  0.24008514858E+02  0.24008514858E+02  0.00000000000E+00 0.  1.
         21   -1    0    0  502  503 -0.00000000000E+00 -0.00000000000E+00 -0.13294101006E+04  0.13294101006E+04  0.00000000000E+00 0.  1.
          6    1    1    2  501    0 -0.36044460226E+01 -0.30696992396E+02 -0.53096683308E+03  0.55929426531E+03  0.17300000000E+03 0.  1.
         -6    1    1    2    0  503  0.36044460226E+01  0.30696992396E+02 -0.77443475262E+03  0.79412435011E+03  0.17300000000E+03 0.  1.
<mgrwt>
<rscale>  2 0.17573929E+03</rscale>
<asrwt>0</asrwt>
<pdfrwt beam="1">  1       21 0.36936187E-02 0.17573929E+03</pdfrwt>
<pdfrwt beam="2">  1       21 0.20452457E+00 0.17573929E+03</pdfrwt>
<totfact> 0.56883976E+04</totfact>
</mgrwt>
</event>
<event>
 4    2  0.3903561E+000  0.1828380E+03  0.7546771E-02  0.1165084E+00
         21   -1    0    0  501  502  0.00000000000E+00  0.00000000000E+00  0.18727825940E+03  0.18727825940E+03  0.00000000000E+00 0.  1.
         21   -1    0    0  502  503 -0.00000000000E+00 -0.00000000000E+00 -0.25102996106E+03  0.25102996106E+03  0.00000000000E+00 0.  1.
          6    1    1    2  501    0 -0.23665141014E+02  0.54228218589E+02  0.85921754535E+02  0.20202051008E+03  0.17300000000E+03 0. -1.
         -6    1    1    2    0  503  0.23665141014E+02 -0.54228218589E+02 -0.14967345619E+03  0.23628771039E+03  0.17300000000E+03 0. -1.
<mgrwt>
<rscale>  2 0.18283801E+03</rscale>
<asrwt>0</asrwt>
<pdfrwt beam="1">  1       21 0.28812040E-01 0.18283801E+03</pdfrwt>
<pdfrwt beam="2">  1       21 0.38619994E-01 0.18283801E+03</pdfrwt>
<totfact> 0.74827123E+04</totfact>
</mgrwt>
</event>
<event>
 4    2  0.3903561E+000  0.1785550E+03  0.7546771E-02  0.1169209E+00
         21   -1    0    0  501  502  0.00000000000E+00  0.00000000000E+00  0.38242182622E+03  0.38242182622E+03  0.00000000000E+00 0. -1.
         21   -1    0    0  502  503 -0.00000000000E+00 -0.00000000000E+00 -0.18870246408E+03  0.18870246408E+03  0.00000000000E+00 0. -1.
          6    1    1    2  501    0  0.35945426890E+02 -0.25706394543E+02  0.31021146991E+03  0.35792883161E+03  0.17300000000E+03 0. -1.
         -6    1    1    2    0  503 -0.35945426890E+02  0.25706394543E+02 -0.11649210777E+03  0.21319545870E+03  0.17300000000E+03 0. -1.
<mgrwt>
<rscale>  2 0.17855501E+03</rscale>
<asrwt>0</asrwt>
<pdfrwt beam="1">  1       21 0.58834127E-01 0.17855501E+03</pdfrwt>
<pdfrwt beam="2">  1       21 0.29031148E-01 0.17855501E+03</pdfrwt>
<totfact> 0.30932345E+04</totfact>
</mgrwt>
</event>
<event>
 4    2  0.3903561E+000  0.1766569E+03  0.7546771E-02  0.1171078E+00
         21   -1    0    0  501  502  0.00000000000E+00  0.00000000000E+00  0.38682785585E+02  0.38682785585E+02  0.00000000000E+00 0.  1.
         21   -1    0    0  502  503 -0.00000000000E+00 -0.00000000000E+00 -0.83321404614E+03  0.83321404614E+03  0.00000000000E+00 0.  1.
          6    1    1    2  501    0  0.35723623090E+02 -0.15753264450E+01 -0.47494696885E+03  0.50673689635E+03  0.17300000000E+03 0.  1.
         -6    1    1    2    0  503 -0.35723623090E+02  0.15753264450E+01 -0.31958429171E+03  0.36515993538E+03  0.17300000000E+03 0.  1.
<mgrwt>
<rscale>  2 0.17665690E+03</rscale>
<asrwt>0</asrwt>
<pdfrwt beam="1">  1       21 0.59511973E-02 0.17665690E+03</pdfrwt>
<pdfrwt beam="2">  1       21 0.12818679E+00 0.17665690E+03</pdfrwt>
<totfact> 0.90204220E+04</totfact>
</mgrwt>
</event>
<event>
 4    2  0.3903561E+000  0.1863673E+03  0.7546771E-02  0.1161779E+00
         21   -1    0    0  501  502  0.00000000000E+00  0.00000000000E+00  0.21583353328E+02  0.21583353328E+02  0.00000000000E+00 0.  1.
         21   -1    0    0  502  503 -0.00000000000E+00 -0.00000000000E+00 -0.19754631329E+04  0.19754631329E+04  0.00000000000E+00 0.  1.
          6    1    1    2  501    0 -0.68028833748E+02 -0.13260827944E+02 -0.54701038272E+03  0.57788678008E+03  0.17300000000E+03 0.  1.
         -6    1    1    2    0  503  0.68028833748E+02  0.13260827944E+02 -0.14068693969E+04  0.14191597062E+04  0.17300000000E+03 0.  1.
<mgrwt>
<rscale>  2 0.18636730E+03</rscale>
<asrwt>0</asrwt>
<pdfrwt beam="1">  1       21 0.33205169E-02 0.18636730E+03</pdfrwt>
<pdfrwt beam="2">  1       21 0.30391731E+00 0.18636730E+03</pdfrwt>
<totfact> 0.17442129E+04</totfact>
</mgrwt>
</event>
<event>
 4    2  0.3903561E+000  0.1907212E+03  0.7546771E-02  0.1157813E+00
         21   -1    0    0  501  502  0.00000000000E+00  0.00000000000E+00  0.20257392215E+03  0.20257392215E+03  0.00000000000E+00 0. -1.
         21   -1    0    0  502  503 -0.00000000000E+00 -0.00000000000E+00 -0.52356647639E+03  0.52356647639E+03  0.00000000000E+00 0.  1.
          6    1    1    2  501    0  0.76201500809E+02 -0.25276271612E+02  0.13380137489E+03  0.23297503419E+03  0.17300000000E+03 0. -1.
         -6    1    1    2    0  503 -0.76201500809E+02  0.25276271612E+02 -0.45479392912E+03  0.49316536435E+03  0.17300000000E+03 0.  1.
<mgrwt>
<rscale>  2 0.19072115E+03</rscale>
<asrwt>0</asrwt>
<pdfrwt beam="1">  1       21 0.31165219E-01 0.19072115E+03</pdfrwt>
<pdfrwt beam="2">  1       21 0.80548687E-01 0.19072115E+03</pdfrwt>
<totfact> 0.13413454E+04</totfact>
</mgrwt>
</event>
<event>
 4    2  0.3903561E+000  0.1911505E+03  0.7546771E-02  0.1157428E+00
         21   -1    0    0  503  502  0.00000000000E+00  0.00000000000E+00  0.11882409510E+04  0.11882409510E+04  0.00000000000E+00 0.  1.
         21   -1    0    0  501  503 -0.00000000000E+00 -0.00000000000E+00 -0.31342747099E+02  0.31342747099E+02  0.00000000000E+00 0. -1.
          6    1    1    2  501    0  0.81083009842E+02  0.59220978217E+01  0.49459739873E+03  0.53025004721E+03  0.17300000000E+03 0. -1.
         -6    1    1    2    0  502 -0.81083009842E+02 -0.59220978217E+01  0.66230080513E+03  0.68933365086E+03  0.17300000000E+03 0. -1.
<mgrwt>
<rscale>  2 0.19115053E+03</rscale>
<asrwt>0</asrwt>
<pdfrwt beam="1">  1       21 0.18280627E+00 0.19115053E+03</pdfrwt>
<pdfrwt beam="2">  1       21 0.48219620E-02 0.19115053E+03</pdfrwt>
<totfact> 0.49863954E+04</totfact>
</mgrwt>
</event>
<event>
 4    2  0.3903561E+000  0.3227846E+03  0.7546771E-02  0.1074375E+00
         21   -1    0    0  501  502  0.00000000000E+00  0.00000000000E+00  0.68224991749E+03  0.68224991749E+03  0.00000000000E+00 0.  1.
         21   -1    0    0  502  503 -0.00000000000E+00 -0.00000000000E+00 -0.15643085356E+03  0.15643085356E+03  0.00000000000E+00 0.  1.
          6    1    1    2  501    0 -0.24537140283E+03  0.11854852218E+03  0.32753858829E+03  0.45986020078E+03  0.17300000000E+03 0.  1.
         -6    1    1    2    0  503  0.24537140283E+03 -0.11854852218E+03  0.19828047564E+03  0.37882057027E+03  0.17300000000E+03 0.  1.
<mgrwt>
<rscale>  2 0.32278457E+03</rscale>
<asrwt>0</asrwt>
<pdfrwt beam="1">  1       21 0.10496152E+00 0.32278457E+03</pdfrwt>
<pdfrwt beam="2">  1       21 0.24066286E-01 0.32278457E+03</pdfrwt>
<totfact> 0.11092799E+04</totfact>
</mgrwt>
</event>
<event>
 4    2  0.3903561E+000  0.2095545E+03  0.7546771E-02  0.1141919E+00
         21   -1    0    0  503  502  0.00000000000E+00  0.00000000000E+00  0.51866782796E+02  0.51866782796E+02  0.00000000000E+00 0.  1.
         21   -1    0    0  501  503 -0.00000000000E+00 -0.00000000000E+00 -0.15759009512E+04  0.15759009512E+04  0.00000000000E+00 0. -1.
          6    1    1    2  501    0  0.11138808809E+03  0.39708641404E+02 -0.20836609882E+03  0.29551567388E+03  0.17300000000E+03 0.  1.
         -6    1    1    2    0  502 -0.11138808809E+03 -0.39708641404E+02 -0.13156680696E+04  0.13322520601E+04  0.17300000000E+03 0. -1.
<mgrwt>
<rscale>  2 0.20955449E+03</rscale>
<asrwt>0</asrwt>
<pdfrwt beam="1">  1       21 0.79795063E-02 0.20955449E+03</pdfrwt>
<pdfrwt beam="2">  1       21 0.24244626E+00 0.20955449E+03</pdfrwt>
<totfact> 0.87434480E+03</totfact>
</mgrwt>
</event>
<event>
 4    2  0.3903561E+000  0.2380076E+03  0.7546771E-02  0.1121127E+00
         21   -1    0    0  501  502  0.00000000000E+00  0.00000000000E+00  0.75392369713E+03  0.75392369713E+03  0.00000000000E+00 0.  1.
         21   -1    0    0  502  503 -0.00000000000E+00 -0.00000000000E+00 -0.21024326948E+03  0.21024326948E+03  0.00000000000E+00 0. -1.
          6    1    1    2  501    0 -0.15751912108E+03  0.43661454405E+02  0.65829517422E+03  0.70000009465E+03  0.17300000000E+03 0.  1.
         -6    1    1    2    0  503  0.15751912108E+03 -0.43661454405E+02 -0.11461474657E+03  0.26416687196E+03  0.17300000000E+03 0. -1.
<mgrwt>
<rscale>  2 0.23800755E+03</rscale>
<asrwt>0</asrwt>
<pdfrwt beam="1">  1       21 0.11598826E+00 0.23800755E+03</pdfrwt>
<pdfrwt beam="2">  1       21 0.32345119E-01 0.23800755E+03</pdfrwt>
<totfact> 0.51052192E+03</totfact>
</mgrwt>
</event>
<event>
 4    2  0.3903561E+000  0.2356748E+03  0.7546771E-02  0.1122708E+00
         21   -1    0    0  503  502  0.00000000000E+00  0.00000000000E+00  0.71008291704E+03  0.71008291704E+03  0.00000000000E+00 0.  1.
         21   -1    0    0  501  503 -0.00000000000E+00 -0.00000000000E+00 -0.79026257371E+02  0.79026257371E+02  0.00000000000E+00 0.  1.
          6    1    1    2  501    0 -0.15992974202E+03  0.60092510586E+01  0.35538289460E+03  0.42642658836E+03  0.17300000000E+03 0.  1.
         -6    1    1    2    0  502  0.15992974202E+03 -0.60092510586E+01  0.27567376506E+03  0.36268258605E+03  0.17300000000E+03 0.  1.
<mgrwt>
<rscale>  2 0.23567485E+03</rscale>
<asrwt>0</asrwt>
<pdfrwt beam="1">  1       21 0.10924352E+00 0.23567485E+03</pdfrwt>
<pdfrwt beam="2">  1       21 0.12157886E-01 0.23567485E+03</pdfrwt>
<totfact> 0.37223807E+04</totfact>
</mgrwt>
</event>
<event>
 4    2  0.3903561E+000  0.3601862E+03  0.7546771E-02  0.1058510E+00
         21   -1    0    0  503  502  0.00000000000E+00  0.00000000000E+00  0.21266273578E+03  0.21266273578E+03  0.00000000000E+00 0. -1.
         21   -1    0    0  501  503 -0.00000000000E+00 -0.00000000000E+00 -0.88220003399E+03  0.88220003399E+03  0.00000000000E+00 0.  1.
          6    1    1    2  501    0  0.17562745984E+03  0.26260259692E+03 -0.63882442342E+03  0.73336946522E+03  0.17300000000E+03 0.  1.
         -6    1    1    2    0  502 -0.17562745984E+03 -0.26260259692E+03 -0.30712874788E+02  0.36149330456E+03  0.17300000000E+03 0. -1.
<mgrwt>
<rscale>  2 0.36018624E+03</rscale>
<asrwt>0</asrwt>
<pdfrwt beam="1">  1       21 0.32717344E-01 0.36018624E+03</pdfrwt>
<pdfrwt beam="2">  1       21 0.13572308E+00 0.36018624E+03</pdfrwt>
<totfact> 0.31299041E+03</totfact>
</mgrwt>
</event>
<event>
 4    2  0.3903561E+000  0.1835348E+03  0.7546771E-02  0.1164425E+00
         21   -1    0    0  501  502  0.00000000000E+00  0.00000000000E+00  0.51772249099E+03  0.51772249099E+03  0.00000000000E+00 0. -1.
         21   -1    0    0  502  503 -0.00000000000E+00 -0.00000000000E+00 -0.25906013480E+03  0.25906013480E+03  0.00000000000E+00 0. -1.
          6    1    1    2  501    0  0.55171863850E+02 -0.26684994769E+02  0.46542916371E+03  0.50030923431E+03  0.17300000000E+03 0. -1.
         -6    1    1    2    0  503 -0.55171863850E+02  0.26684994769E+02 -0.20676680751E+03  0.27647339148E+03  0.17300000000E+03 0. -1.
<mgrwt>
<rscale>  2 0.18353480E+03</rscale>
<asrwt>0</asrwt>
<pdfrwt beam="1">  1       21 0.79649614E-01 0.18353480E+03</pdfrwt>
<pdfrwt beam="2">  1       21 0.39855406E-01 0.18353480E+03</pdfrwt>
<totfact> 0.84837618E+03</totfact>
</mgrwt>
</event>
<event>
 4    2  0.3903561E+000  0.1783348E+03  0.7546771E-02  0.1169424E+00
         21   -1    0    0  503  502  0.00000000000E+00  0.00000000000E+00  0.11887736028E+03  0.11887736028E+03  0.00000000000E+00 0. -1.
         21   -1    0    0  501  503 -0.00000000000E+00 -0.00000000000E+00 -0.39544610271E+03  0.39544610271E+03  0.00000000000E+00 0. -1.
          6    1    1    2  501    0 -0.28846488827E+02  0.32282860391E+02 -0.28454407508E+03  0.33581041327E+03  0.17300000000E+03 0. -1.
         -6    1    1    2    0  502  0.28846488827E+02 -0.32282860391E+02  0.79753326542E+01  0.17851304973E+03  0.17300000000E+03 0. -1.
<mgrwt>
<rscale>  2 0.17833481E+03</rscale>
<asrwt>0</asrwt>
<pdfrwt beam="1">  1       21 0.18288825E-01 0.17833481E+03</pdfrwt>
<pdfrwt beam="2">  1       21 0.60837862E-01 0.17833481E+03</pdfrwt>
<totfact> 0.68990257E+04</totfact>
</mgrwt>
</event>
<event>
 4    2  0.3903561E+000  0.2149100E+03  0.7546771E-02  0.1137736E+00
         21   -1    0    0  503  502  0.00000000000E+00  0.00000000000E+00  0.11308060757E+03  0.11308060757E+03  0.00000000000E+00 0.  1.
         21   -1    0    0  501  503 -0.00000000000E+00 -0.00000000000E+00 -0.52795180417E+03  0.52795180417E+03  0.00000000000E+00 0.  1.
          6    1    1    2  501    0  0.34465630042E+02 -0.12275753683E+03 -0.35993350864E+03  0.41921166867E+03  0.17300000000E+03 0.  1.
         -6    1    1    2    0  502 -0.34465630042E+02  0.12275753683E+03 -0.54937687951E+02  0.22182074308E+03  0.17300000000E+03 0.  1.
<mgrwt>
<rscale>  2 0.21490996E+03</rscale>
<asrwt>0</asrwt>
<pdfrwt beam="1">  1       21 0.17397017E-01 0.21490996E+03</pdfrwt>
<pdfrwt beam="2">  1       21 0.81223353E-01 0.21490996E+03</pdfrwt>
<totfact> 0.39276434E+04</totfact>
</mgrwt>
</event>
<event>
 4    2  0.3903561E+000  0.2055054E+03  0.7546771E-02  0.1145175E+00
         21   -1    0    0  503  502  0.00000000000E+00  0.00000000000E+00  0.37838695762E+03  0.37838695762E+03  0.00000000000E+00 0.  1.
         21   -1    0    0  501  503 -0.00000000000E+00 -0.00000000000E+00 -0.11251836131E+03  0.11251836131E+03  0.00000000000E+00 0.  1.
          6    1    1    2  501    0  0.71670958724E+02 -0.84656618680E+02  0.11090290357E+03  0.23352071306E+03  0.17300000000E+03 0.  1.
         -6    1    1    2    0  502 -0.71670958724E+02  0.84656618680E+02  0.15496569273E+03  0.25738460586E+03  0.17300000000E+03 0.  1.
<mgrwt>
<rscale>  2 0.20550540E+03</rscale>
<asrwt>0</asrwt>
<pdfrwt beam="1">  1       21 0.58213377E-01 0.20550540E+03</pdfrwt>
<pdfrwt beam="2">  1       21 0.17310517E-01 0.20550540E+03</pdfrwt>
<totfact> 0.82959053E+04</totfact>
</mgrwt>
</event>
<event>
 4    2  0.3903561E+000  0.2344942E+03  0.7546771E-02  0.1123516E+00
         21   -1    0    0  503  502  0.00000000000E+00  0.00000000000E+00  0.18857822843E+04  0.18857822843E+04  0.00000000000E+00 0. -1.
         21   -1    0    0  501  503 -0.00000000000E+00 -0.00000000000E+00 -0.34074251201E+02  0.34074251201E+02  0.00000000000E+00 0. -1.
          6    1    1    2  501    0  0.14699521704E+03  0.58744671545E+02  0.56126937403E+03  0.60828516379E+03  0.17300000000E+03 0. -1.
         -6    1    1    2    0  502 -0.14699521704E+03 -0.58744671545E+02  0.12904386591E+04  0.13115713717E+04  0.17300000000E+03 0. -1.
<mgrwt>
<rscale>  2 0.23449420E+03</rscale>
<asrwt>0</asrwt>
<pdfrwt beam="1">  1       21 0.29012027E+00 0.23449420E+03</pdfrwt>
<pdfrwt beam="2">  1       21 0.52421940E-02 0.23449420E+03</pdfrwt>
<totfact> 0.92708033E+03</totfact>
</mgrwt>
</event>
<event>
 4    2  0.3903561E+000  0.1758427E+03  0.7546771E-02  0.1171888E+00
         21   -1    0    0  501  502  0.00000000000E+00  0.00000000000E+00  0.53345419839E+03  0.53345419839E+03  0.00000000000E+00 0. -1.
         21   -1    0    0  502  503 -0.00000000000E+00 -0.00000000000E+00 -0.85610749230E+02  0.85610749230E+02  0.00000000000E+00 0. -1.
          6    1    1    2  501    0 -0.11445289276E+02 -0.29337302619E+02  0.39982380862E+03  0.43678341304E+03  0.17300000000E+03 0. -1.
         -6    1    1    2    0  503  0.11445289276E+02  0.29337302619E+02  0.48019640547E+02  0.18228153458E+03  0.17300000000E+03 0. -1.
<mgrwt>
<rscale>  2 0.17584275E+03</rscale>
<asrwt>0</asrwt>
<pdfrwt beam="1">  1       21 0.82069875E-01 0.17584275E+03</pdfrwt>
<pdfrwt beam="2">  1       21 0.13170885E-01 0.17584275E+03</pdfrwt>
<totfact> 0.64939862E+04</totfact>
</mgrwt>
</event>
<event>
 4    2  0.3903561E+000  0.1855210E+03  0.7546771E-02  0.1162564E+00
         21   -1    0    0  503  502  0.00000000000E+00  0.00000000000E+00  0.53798507956E+03  0.53798507956E+03  0.00000000000E+00 0.  1.
         21   -1    0    0  501  503 -0.00000000000E+00 -0.00000000000E+00 -0.88035899364E+02  0.88035899364E+02  0.00000000000E+00 0.  1.
          6    1    1    2  501    0  0.26096011428E+02 -0.61709205711E+02  0.61339039067E+02  0.19539832547E+03  0.17300000000E+03 0.  1.
         -6    1    1    2    0  502 -0.26096011428E+02  0.61709205711E+02  0.38861014113E+03  0.43062265346E+03  0.17300000000E+03 0.  1.
<mgrwt>
<rscale>  2 0.18552096E+03</rscale>
<asrwt>0</asrwt>
<pdfrwt beam="1">  1       21 0.82766933E-01 0.18552096E+03</pdfrwt>
<pdfrwt beam="2">  1       21 0.13543985E-01 0.18552096E+03</pdfrwt>
<totfact> 0.60307258E+04</totfact>
</mgrwt>
</event>
<event>
 4    2  0.3903561E+000  0.1849544E+03  0.7546771E-02  0.1163092E+00
         21   -1    0    0  503  502  0.00000000000E+00  0.00000000000E+00  0.23014355456E+03  0.23014355456E+03  0.00000000000E+00 0. -1.
         21   -1    0    0  501  503 -0.00000000000E+00 -0.00000000000E+00 -0.29293209173E+03  0.29293209173E+03  0.00000000000E+00 0. -1.
          6    1    1    2  501    0 -0.55571712708E+02  0.34509589625E+02 -0.21495297138E+03  0.28357169628E+03  0.17300000000E+03 0. -1.
         -6    1    1    2    0  502  0.55571712708E+02 -0.34509589625E+02  0.15216443421E+03  0.23950395000E+03  0.17300000000E+03 0. -1.
<mgrwt>
<rscale>  2 0.18495439E+03</rscale>
<asrwt>0</asrwt>
<pdfrwt beam="1">  1       21 0.35406701E-01 0.18495439E+03</pdfrwt>
<pdfrwt beam="2">  1       21 0.45066475E-01 0.18495439E+03</pdfrwt>
<totfact> 0.36476845E+04</totfact>
</mgrwt>
</event>
<event>
 4    2  0.3903561E+000  0.1888668E+03  0.7546771E-02  0.1159487E+00
         21   -1    0    0  501  502  0.00000000000E+00  0.00000000000E+00  0.31553063678E+03  0.31553063678E+03  0.00000000000E+00 0. -1.
         21   -1    0    0  502  503 -0.00000000000E+00 -0.00000000000E+00 -0.16183658711E+03  0.16183658711E+03  0.00000000000E+00 0.  1.
          6    1    1    2  501    0 -0.48713948555E+02 -0.58039838329E+02  0.20789653679E+03  0.28087655941E+03  0.17300000000E+03 0. -1.
         -6    1    1    2    0  503  0.48713948555E+02  0.58039838329E+02 -0.54202487115E+02  0.19649066448E+03  0.17300000000E+03 0.  1.
<mgrwt>
<rscale>  2 0.18886681E+03</rscale>
<asrwt>0</asrwt>
<pdfrwt beam="1">  1       21 0.48543175E-01 0.18886681E+03</pdfrwt>
<pdfrwt beam="2">  1       21 0.24897937E-01 0.18886681E+03</pdfrwt>
<totfact> 0.61962979E+04</totfact>
</mgrwt>
</event>
<event>
 4    2  0.3903561E+000  0.2027642E+03  0.7546771E-02  0.1147428E+00
         21   -1    0    0  503  502  0.00000000000E+00  0.00000000000E+00  0.39570917957E+02  0.39570917957E+02  0.00000000000E+00 0. -1.
         21   -1    0    0  501  503 -0.00000000000E+00 -0.00000000000E+00 -0.10455916953E+04  0.10455916953E+04  0.00000000000E+00 0. -1.
          6    1    1    2  501    0  0.41087221229E+02 -0.97448243493E+02 -0.54616232511E+03  0.58258613550E+03  0.17300000000E+03 0.  1.
         -6    1    1    2    0  502 -0.41087221229E+02  0.97448243493E+02 -0.45985845228E+03  0.50257647780E+03  0.17300000000E+03 0.  1.
<mgrwt>
<rscale>  2 0.20276420E+03</rscale>
<asrwt>0</asrwt>
<pdfrwt beam="1">  1       21 0.60878337E-02 0.20276420E+03</pdfrwt>
<pdfrwt beam="2">  1       21 0.16086026E+00 0.20276420E+03</pdfrwt>
<totfact> 0.47429234E+04</totfact>
</mgrwt>
</event>
<event>
 4    2  0.3903561E+000  0.2248207E+03  0.7546771E-02  0.1130339E+00
         21   -1    0    0  501  502  0.00000000000E+00  0.00000000000E+00  0.13281603412E+04  0.13281603412E+04  0.00000000000E+00 0.  1.
         21   -1    0    0  502  503 -0.00000000000E+00 -0.00000000000E+00 -0.61100514887E+02  0.61100514887E+02  0.00000000000E+00 0. -1.
          6    1    1    2  501    0  0.18469152138E+02  0.14238764412E+03  0.10601251471E+04  0.10837018401E+04  0.17300000000E+03 0.  1.
         -6    1    1    2    0  503 -0.18469152138E+02 -0.14238764412E+03  0.20693467924E+03  0.30555901599E+03  0.17300000000E+03 0. -1.
<mgrwt>
<rscale>  2 0.22482071E+03</rscale>
<asrwt>0</asrwt>
<pdfrwt beam="1">  1       21 0.20433234E+00 0.22482071E+03</pdfrwt>
<pdfrwt beam="2">  1       21 0.94000802E-02 0.22482071E+03</pdfrwt>
<totfact> 0.11112290E+04</totfact>
</mgrwt>
</event>
<event>
 4    2  0.3903561E+000  0.2718543E+03  0.7546771E-02  0.1100223E+00
         21   -1    0    0  503  502  0.00000000000E+00  0.00000000000E+00  0.29815412406E+03  0.29815412406E+03  0.00000000000E+00 0. -1.
         21   -1    0    0  501  503 -0.00000000000E+00 -0.00000000000E+00 -0.29368214172E+03  0.29368214172E+03  0.00000000000E+00 0. -1.
          6    1    1    2  501    0 -0.10150852119E+03  0.18349870604E+03 -0.11463387901E+03  0.29503505082E+03  0.17300000000E+03 0. -1.
         -6    1    1    2    0  502  0.10150852119E+03 -0.18349870604E+03  0.11910586135E+03  0.29680121496E+03  0.17300000000E+03 0. -1.
<mgrwt>
<rscale>  2 0.27185429E+03</rscale>
<asrwt>0</asrwt>
<pdfrwt beam="1">  1       21 0.45869865E-01 0.27185429E+03</pdfrwt>
<pdfrwt beam="2">  1       21 0.45181868E-01 0.27185429E+03</pdfrwt>
<totfact> 0.20549724E+04</totfact>
</mgrwt>
</event>
<event>
 4    2  0.3903561E+000  0.1951318E+03  0.7546771E-02  0.1153913E+00
         21   -1    0    0  503  502  0.00000000000E+00  0.00000000000E+00  0.76244800541E+03  0.76244800541E+03  0.00000000000E+00 0. -1.
         21   -1    0    0  501  503 -0.00000000000E+00 -0.00000000000E+00 -0.95365670908E+02  0.95365670908E+02  0.00000000000E+00 0.  1.
          6    1    1    2  501    0 -0.69318910508E+02  0.57812742603E+02  0.37522536159E+02  0.19870673185E+03  0.17300000000E+03 0.  1.
         -6    1    1    2    0  502  0.69318910508E+02 -0.57812742603E+02  0.62955979835E+03  0.65910694448E+03  0.17300000000E+03 0. -1.
<mgrwt>
<rscale>  2 0.19513181E+03</rscale>
<asrwt>0</asrwt>
<pdfrwt beam="1">  1       21 0.11729969E+00 0.19513181E+03</pdfrwt>
<pdfrwt beam="2">  1       21 0.14671642E-01 0.19513181E+03</pdfrwt>
<totfact> 0.22778174E+04</totfact>
</mgrwt>
</event>
<event>
 4    2  0.3903561E+000  0.1816542E+03  0.7546771E-02  0.1166212E+00
         21   -1    0    0  501  502  0.00000000000E+00  0.00000000000E+00  0.28316581394E+02  0.28316581394E+02  0.00000000000E+00 0. -1.
         21   -1    0    0  502  503 -0.00000000000E+00 -0.00000000000E+00 -0.13403614312E+04  0.13403614312E+04  0.00000000000E+00 0. -1.
          6    1    1    2  501    0 -0.31245312327E+02 -0.45749081671E+02 -0.40872785626E+03  0.44727699304E+03  0.17300000000E+03 0.  1.
         -6    1    1    2    0  503  0.31245312327E+02  0.45749081671E+02 -0.90331699356E+03  0.92140101957E+03  0.17300000000E+03 0.  1.
<mgrwt>
<rscale>  2 0.18165420E+03</rscale>
<asrwt>0</asrwt>
<pdfrwt beam="1">  1       21 0.43563974E-02 0.18165420E+03</pdfrwt>
<pdfrwt beam="2">  1       21 0.20620944E+00 0.18165420E+03</pdfrwt>
<totfact> 0.41937270E+04</totfact>
</mgrwt>
</event>
<event>
 4    2  0.3903561E+000  0.1967021E+03  0.7546771E-02  0.1152552E+00
         21   -1    0    0  503  502  0.00000000000E+00  0.00000000000E+00  0.32689495218E+03  0.32689495218E+03  0.00000000000E+00 0. -1.
         21   -1    0    0  501  503 -0.00000000000E+00 -0.00000000000E+00 -0.12608202268E+03  0.12608202268E+03  0.00000000000E+00 0. -1.
          6    1    1    2  501    0 -0.33745262326E+02 -0.87315402948E+02  0.44360081329E+02  0.20164210656E+03  0.17300000000E+03 0. -1.
         -6    1    1    2    0  502  0.33745262326E+02  0.87315402948E+02  0.15645284817E+03  0.25133486830E+03  0.17300000000E+03 0. -1.
<mgrwt>
<rscale>  2 0.19670212E+03</rscale>
<asrwt>0</asrwt>
<pdfrwt beam="1">  1       21 0.50291531E-01 0.19670212E+03</pdfrwt>
<pdfrwt beam="2">  1       21 0.19397234E-01 0.19670212E+03</pdfrwt>
<totfact> 0.91848100E+04</totfact>
</mgrwt>
</event>
<event>
 4    2  0.3903561E+000  0.1845868E+03  0.7546771E-02  0.1163436E+00
         21   -1    0    0  501  502  0.00000000000E+00  0.00000000000E+00  0.16320509602E+03  0.16320509602E+03  0.00000000000E+00 0. -1.
         21   -1    0    0  502  503 -0.00000000000E+00 -0.00000000000E+00 -0.22194374568E+03  0.22194374568E+03  0.00000000000E+00 0. -1.
          6    1    1    2  501    0 -0.31590947995E+02 -0.56082962547E+02  0.17548292059E+02  0.18541906385E+03  0.17300000000E+03 0.  1.
         -6    1    1    2    0  503  0.31590947995E+02  0.56082962547E+02 -0.76286941717E+02  0.19972977785E+03  0.17300000000E+03 0.  1.
<mgrwt>
<rscale>  2 0.18458680E+03</rscale>
<asrwt>0</asrwt>
<pdfrwt beam="1">  1       21 0.25108476E-01 0.18458680E+03</pdfrwt>
<pdfrwt beam="2">  1       21 0.34145192E-01 0.18458680E+03</pdfrwt>
<totfact> 0.12449711E+05</totfact>
</mgrwt>
</event>
<event>
 4    2  0.3903561E+000  0.4958304E+03  0.7546771E-02  0.1014873E+00
         21   -1    0    0  501  502  0.00000000000E+00  0.00000000000E+00  0.53519975135E+03  0.53519975135E+03  0.00000000000E+00 0. -1.
         21   -1    0    0  502  503 -0.00000000000E+00 -0.00000000000E+00 -0.10555321996E+04  0.10555321996E+04  0.00000000000E+00 0.  1.
          6    1    1    2  501    0  0.93657827555E+02 -0.45513407312E+03  0.33758183804E+03  0.59984107108E+03  0.17300000000E+03 0. -1.
         -6    1    1    2    0  503 -0.93657827555E+02  0.45513407312E+03 -0.85791428627E+03  0.99089087984E+03  0.17300000000E+03 0.  1.
<mgrwt>
<rscale>  2 0.49583043E+03</rscale>
<asrwt>0</asrwt>
<pdfrwt beam="1">  1       21 0.82338424E-01 0.49583043E+03</pdfrwt>
<pdfrwt beam="2">  1       21 0.16238957E+00 0.49583043E+03</pdfrwt>
<totfact> 0.24965167E+02</totfact>
</mgrwt>
</event>
<event>
 4    2  0.3903561E+000  0.1910551E+03  0.7546771E-02  0.1157513E+00
         21   -1    0    0  501  502  0.00000000000E+00  0.00000000000E+00  0.31045964810E+03  0.31045964810E+03  0.00000000000E+00 0.  1.
         21   -1    0    0  502  503 -0.00000000000E+00 -0.00000000000E+00 -0.11759137566E+03  0.11759137566E+03  0.00000000000E+00 0.  1.
          6    1    1    2  501    0  0.23130094562E+01 -0.81041300014E+02  0.93846914069E+02  0.21285977920E+03  0.17300000000E+03 0.  1.
         -6    1    1    2    0  503 -0.23130094562E+01  0.81041300014E+02  0.99021358377E+02  0.21519124456E+03  0.17300000000E+03 0.  1.
<mgrwt>
<rscale>  2 0.19105508E+03</rscale>
<asrwt>0</asrwt>
<pdfrwt beam="1">  1       21 0.47763022E-01 0.19105508E+03</pdfrwt>
<pdfrwt beam="2">  1       21 0.18090981E-01 0.19105508E+03</pdfrwt>
<totfact> 0.11663505E+05</totfact>
</mgrwt>
</event>
<event>
 4    2  0.3903561E+000  0.1955505E+03  0.7546771E-02  0.1153548E+00
         21   -1    0    0  503  502  0.00000000000E+00  0.00000000000E+00  0.29999440711E+03  0.29999440711E+03  0.00000000000E+00 0.  1.
         21   -1    0    0  501  503 -0.00000000000E+00 -0.00000000000E+00 -0.13571444374E+03  0.13571444374E+03  0.00000000000E+00 0.  1.
          6    1    1    2  501    0  0.90912927634E+02 -0.67691838825E+01  0.28441650344E+02  0.19760796982E+03  0.17300000000E+03 0.  1.
         -6    1    1    2    0  502 -0.90912927634E+02  0.67691838825E+01  0.13583831303E+03  0.23810088103E+03  0.17300000000E+03 0.  1.
<mgrwt>
<rscale>  2 0.19555046E+03</rscale>
<asrwt>0</asrwt>
<pdfrwt beam="1">  1       21 0.46152986E-01 0.19555046E+03</pdfrwt>
<pdfrwt beam="2">  1       21 0.20879145E-01 0.19555046E+03</pdfrwt>
<totfact> 0.95692744E+04</totfact>
</mgrwt>
</event>
<event>
 4    2  0.3903561E+000  0.1902070E+03  0.7546771E-02  0.1158275E+00
         21   -1    0    0  503  502  0.00000000000E+00  0.00000000000E+00  0.55831541719E+02  0.55831541719E+02  0.00000000000E+00 0.  1.
         21   -1    0    0  501  503 -0.00000000000E+00 -0.00000000000E+00 -0.64922961987E+03  0.64922961987E+03  0.00000000000E+00 0.  1.
          6    1    1    2  501    0  0.57523112122E+00 -0.79053015324E+02 -0.31205547527E+03  0.36545496271E+03  0.17300000000E+03 0.  1.
         -6    1    1    2    0  502 -0.57523112122E+00  0.79053015324E+02 -0.28134260288E+03  0.33960619888E+03  0.17300000000E+03 0.  1.
<mgrwt>
<rscale>  2 0.19020702E+03</rscale>
<asrwt>0</asrwt>
<pdfrwt beam="1">  1       21 0.85894681E-02 0.19020702E+03</pdfrwt>
<pdfrwt beam="2">  1       21 0.99881478E-01 0.19020702E+03</pdfrwt>
<totfact> 0.87364420E+04</totfact>
</mgrwt>
</event>
<event>
 4    2  0.3903561E+000  0.1918401E+03  0.7546771E-02  0.1156812E+00
         21   -1    0    0  501  502  0.00000000000E+00  0.00000000000E+00  0.15538596592E+04  0.15538596592E+04  0.00000000000E+00 0.  1.
         21   -1    0    0  502  503 -0.00000000000E+00 -0.00000000000E+00 -0.23800921347E+02  0.23800921347E+02  0.00000000000E+00 0.  1.
          6    1    1    2  501    0 -0.37544680743E+02  0.73919019912E+02  0.82016345594E+03  0.84230084829E+03  0.17300000000E+03 0.  1.
         -6    1    1    2    0  503  0.37544680743E+02 -0.73919019912E+02  0.70989528194E+03  0.73535973230E+03  0.17300000000E+03 0.  1.
<mgrwt>
<rscale>  2 0.19184010E+03</rscale>
<asrwt>0</asrwt>
<pdfrwt beam="1">  1       21 0.23905525E+00 0.19184010E+03</pdfrwt>
<pdfrwt beam="2">  1       21 0.36616814E-02 0.19184010E+03</pdfrwt>
<totfact> 0.35084662E+04</totfact>
</mgrwt>
</event>
<event>
 4    2  0.3903561E+000  0.2101608E+03  0.7546771E-02  0.1141439E+00
         21   -1    0    0  503  502  0.00000000000E+00  0.00000000000E+00  0.13259056210E+03  0.13259056210E+03  0.00000000000E+00 0.  1.
         21   -1    0    0  501  503 -0.00000000000E+00 -0.00000000000E+00 -0.10488758912E+04  0.10488758912E+04  0.00000000000E+00 0.  1.
          6    1    1    2  501    0 -0.88465074324E+02  0.80078124731E+02 -0.94613621744E+03  0.96919622234E+03  0.17300000000E+03 0.  1.
         -6    1    1    2    0  502  0.88465074324E+02 -0.80078124731E+02  0.29850888315E+02  0.21227023100E+03  0.17300000000E+03 0.  1.
<mgrwt>
<rscale>  2 0.21016083E+03</rscale>
<asrwt>0</asrwt>
<pdfrwt beam="1">  1       21 0.20398548E-01 0.21016083E+03</pdfrwt>
<pdfrwt beam="2">  1       21 0.16136552E+00 0.21016083E+03</pdfrwt>
<totfact> 0.53931382E+03</totfact>
</mgrwt>
</event>
<event>
 4    2  0.3903561E+000  0.1890686E+03  0.7546771E-02  0.1159304E+00
         21   -1    0    0  503  502  0.00000000000E+00  0.00000000000E+00  0.28560217505E+03  0.28560217505E+03  0.00000000000E+00 0.  1.
         21   -1    0    0  501  503 -0.00000000000E+00 -0.00000000000E+00 -0.17155715052E+03  0.17155715052E+03  0.00000000000E+00 0. -1.
          6    1    1    2  501    0 -0.70604090994E+02  0.28861858159E+02 -0.61844906236E+02  0.19892646116E+03  0.17300000000E+03 0. -1.
         -6    1    1    2    0  502  0.70604090994E+02 -0.28861858159E+02  0.17588993077E+03  0.25823286442E+03  0.17300000000E+03 0.  1.
<mgrwt>
<rscale>  2 0.18906862E+03</rscale>
<asrwt>0</asrwt>
<pdfrwt beam="1">  1       21 0.43938796E-01 0.18906862E+03</pdfrwt>
<pdfrwt beam="2">  1       21 0.26393408E-01 0.18906862E+03</pdfrwt>
<totfact> 0.68045082E+04</totfact>
</mgrwt>
</event>
<event>
 4    2  0.3903561E+000  0.1793193E+03  0.7546771E-02  0.1168463E+00
         21   -1    0    0  501  502  0.00000000000E+00  0.00000000000E+00  0.10590365280E+03  0.10590365280E+03  0.00000000000E+00 0. -1.
         21   -1    0    0  502  503 -0.00000000000E+00 -0.00000000000E+00 -0.48596116498E+03  0.48596116498E+03  0.00000000000E+00 0.  1.
          6    1    1    2  501    0  0.12219026154E+02  0.45575254765E+02 -0.87597625075E+01  0.17953312198E+03  0.17300000000E+03 0. -1.
         -6    1    1    2    0  503 -0.12219026154E+02 -0.45575254765E+02 -0.37129774968E+03  0.41233169580E+03  0.17300000000E+03 0.  1.
<mgrwt>
<rscale>  2 0.17931929E+03</rscale>
<asrwt>0</asrwt>
<pdfrwt beam="1">  1       21 0.16292870E-01 0.17931929E+03</pdfrwt>
<pdfrwt beam="2">  1       21 0.74763256E-01 0.17931929E+03</pdfrwt>
<totfact> 0.54345663E+04</totfact>
</mgrwt>
</event>
<event>
 4    2  0.3903561E+000  0.1879665E+03  0.7546771E-02  0.1160308E+00
         21   -1    0    0  501  502  0.00000000000E+00  0.00000000000E+00  0.88686589003E+02  0.88686589003E+02  0.00000000000E+00 0.  1.
         21   -1    0    0  502  503 -0.00000000000E+00 -0.00000000000E+00 -0.39897647216E+03  0.39897647216E+03  0.00000000000E+00 0. -1.
          6    1    1    2  501    0  0.49781492690E+02  0.54075984639E+02 -0.14575693104E+03  0.23785813435E+03  0.17300000000E+03 0.  1.
         -6    1    1    2    0  503 -0.49781492690E+02 -0.54075984639E+02 -0.16453295212E+03  0.24980492682E+03  0.17300000000E+03 0. -1.
<mgrwt>
<rscale>  2 0.18796651E+03</rscale>
<asrwt>0</asrwt>
<pdfrwt beam="1">  1       21 0.13644091E-01 0.18796651E+03</pdfrwt>
<pdfrwt beam="2">  1       21 0.61380996E-01 0.18796651E+03</pdfrwt>
<totfact> 0.11514027E+05</totfact>
</mgrwt>
</event>
<event>
 4    2  0.3903561E+000  0.2460656E+03  0.7546771E-02  0.1115817E+00
         21   -1    0    0  503  502  0.00000000000E+00  0.00000000000E+00  0.10806431377E+03  0.10806431377E+03  0.00000000000E+00 0. -1.
         21   -1    0    0  501  503 -0.00000000000E+00 -0.00000000000E+00 -0.56346697093E+03  0.56346697093E+03  0.00000000000E+00 0. -1.
          6    1    1    2  501    0  0.10932149751E+03  0.13663115469E+03 -0.25288004842E+03  0.35284073055E+03  0.17300000000E+03 0. -1.
         -6    1    1    2    0  502 -0.10932149751E+03 -0.13663115469E+03 -0.20252260874E+03  0.31869055415E+03  0.17300000000E+03 0. -1.
<mgrwt>
<rscale>  2 0.24606556E+03</rscale>
<asrwt>0</asrwt>
<pdfrwt beam="1">  1       21 0.16625279E-01 0.24606556E+03</pdfrwt>
<pdfrwt beam="2">  1       21 0.86687225E-01 0.24606556E+03</pdfrwt>
<totfact> 0.36254499E+04</totfact>
</mgrwt>
</event>
<event>
 4    2  0.3903561E+000  0.2000966E+03  0.7546771E-02  0.1149658E+00
         21   -1    0    0  501  502  0.00000000000E+00  0.00000000000E+00  0.34734703582E+03  0.34734703582E+03  0.00000000000E+00 0.  1.
         21   -1    0    0  502  503 -0.00000000000E+00 -0.00000000000E+00 -0.11534309772E+03  0.11534309772E+03  0.00000000000E+00 0.  1.
          6    1    1    2  501    0 -0.10021320170E+03  0.81833510650E+01  0.11017347463E+03  0.22842251978E+03  0.17300000000E+03 0.  1.
         -6    1    1    2    0  503  0.10021320170E+03 -0.81833510650E+01  0.12183046347E+03  0.23426761377E+03  0.17300000000E+03 0.  1.
<mgrwt>
<rscale>  2 0.20009661E+03</rscale>
<asrwt>0</asrwt>
<pdfrwt beam="1">  1       21 0.53438005E-01 0.20009661E+03</pdfrwt>
<pdfrwt beam="2">  1       21 0.17745092E-01 0.20009661E+03</pdfrwt>
<totfact> 0.95256941E+04</totfact>
</mgrwt>
</event>
<event>
 4    2  0.3903561E+000  0.1843165E+03  0.7546771E-02  0.1163690E+00
         21   -1    0    0  501  502  0.00000000000E+00  0.00000000000E+00  0.66938135402E+03  0.66938135402E+03  0.00000000000E+00 0. -1.
         21   -1    0    0  502  503 -0.00000000000E+00 -0.00000000000E+00 -0.66664530223E+02  0.66664530223E+02  0.00000000000E+00 0. -1.
          6    1    1    2  501    0  0.40638657397E+01 -0.63459152509E+02  0.48116032906E+03  0.51525512253E+03  0.17300000000E+03 0. -1.
         -6    1    1    2    0  503 -0.40638657397E+01  0.63459152509E+02  0.12155649474E+03  0.22079076171E+03  0.17300000000E+03 0. -1.
<mgrwt>
<rscale>  2 0.18431652E+03</rscale>
<asrwt>0</asrwt>
<pdfrwt beam="1">  1       21 0.10298174E+00 0.18431652E+03</pdfrwt>
<pdfrwt beam="2">  1       21 0.10256082E-01 0.18431652E+03</pdfrwt>
<totfact> 0.59629566E+04</totfact>
</mgrwt>
</event>
<event>
 4    2  0.3903561E+000  0.2366060E+03  0.7546771E-02  0.1122075E+00
         21   -1    0    0  503  502  0.00000000000E+00  0.00000000000E+00  0.51736564065E+03  0.51736564065E+03  0.00000000000E+00 0.  1.
         21   -1    0    0  501  503 -0.00000000000E+00 -0.00000000000E+00 -0.10828044212E+03  0.10828044212E+03  0.00000000000E+00 0.  1.
          6    1    1    2  501    0  0.15159100998E+03 -0.55439895046E+02  0.21270752222E+03  0.31816176118E+03  0.17300000000E+03 0.  1.
         -6    1    1    2    0  502 -0.15159100998E+03  0.55439895046E+02  0.19637767631E+03  0.30748432159E+03  0.17300000000E+03 0.  1.
<mgrwt>
<rscale>  2 0.23660604E+03</rscale>
<asrwt>0</asrwt>
<pdfrwt beam="1">  1       21 0.79594713E-01 0.23660604E+03</pdfrwt>
<pdfrwt beam="2">  1       21 0.16658530E-01 0.23660604E+03</pdfrwt>
<totfact> 0.44106698E+04</totfact>
</mgrwt>
</event>
<event>
 4    2  0.3903561E+000  0.1754409E+03  0.7546771E-02  0.1172290E+00
         21   -1    0    0  501  502  0.00000000000E+00  0.00000000000E+00  0.29925331615E+03  0.29925331615E+03  0.00000000000E+00 0. -1.
         21   -1    0    0  502  503 -0.00000000000E+00 -0.00000000000E+00 -0.11480840462E+03  0.11480840462E+03  0.00000000000E+00 0. -1.
          6    1    1    2  501    0 -0.28459414109E+02  0.63696669067E+01  0.25417985498E+02  0.17727262872E+03  0.17300000000E+03 0. -1.
         -6    1    1    2    0  503  0.28459414109E+02 -0.63696669067E+01  0.15902692603E+03  0.23678909205E+03  0.17300000000E+03 0. -1.
<mgrwt>
<rscale>  2 0.17544090E+03</rscale>
<asrwt>0</asrwt>
<pdfrwt beam="1">  1       21 0.46038971E-01 0.17544090E+03</pdfrwt>
<pdfrwt beam="2">  1       21 0.17662832E-01 0.17544090E+03</pdfrwt>
<totfact> 0.13223133E+05</totfact>
</mgrwt>
</event>
<event>
 4    2  0.3903561E+000  0.2160808E+03  0.7546771E-02  0.1136839E+00
         21   -1    0    0  501  502  0.00000000000E+00  0.00000000000E+00  0.34784062747E+02  0.34784062747E+02  0.00000000000E+00 0.  1.
         21   -1    0    0  502  503 -0.00000000000E+00 -0.00000000000E+00 -0.13804650773E+04  0.13804650773E+04  0.00000000000E+00 0.  1.
          6    1    1    2  501    0  0.10645248081E+03  0.73687109407E+02 -0.79048688234E+03  0.81948790834E+03  0.17300000000E+03 0.  1.
         -6    1    1    2    0  503 -0.10645248081E+03 -0.73687109407E+02 -0.55519413222E+03  0.59576123171E+03  0.17300000000E+03 0.  1.
<mgrwt>
<rscale>  2 0.21608082E+03</rscale>
<asrwt>0</asrwt>
<pdfrwt beam="1">  1       21 0.53513938E-02 0.21608082E+03</pdfrwt>
<pdfrwt beam="2">  1       21 0.21237926E+00 0.21608082E+03</pdfrwt>
<totfact> 0.26419396E+04</totfact>
</mgrwt>
</event>
<event>
 4    2  0.3903561E+000  0.1891360E+03  0.7546771E-02  0.1159243E+00
         21   -1    0    0  501  502  0.00000000000E+00  0.00000000000E+00  0.79927064807E+03  0.79927064807E+03  0.00000000000E+00 0. -1.
         21   -1    0    0  502  503 -0.00000000000E+00 -0.00000000000E+00 -0.57758750317E+02  0.57758750317E+02  0.00000000000E+00 0. -1.
          6    1    1    2  501    0 -0.28531346914E+02  0.70918070942E+02  0.57407082044E+03  0.60442511316E+03  0.17300000000E+03 0. -1.
         -6    1    1    2    0  503  0.28531346914E+02 -0.70918070942E+02  0.16744107732E+03  0.25260428523E+03  0.17300000000E+03 0. -1.
<mgrwt>
<rscale>  2 0.18913596E+03</rscale>
<asrwt>0</asrwt>
<pdfrwt beam="1">  1       21 0.12296471E+00 0.18913596E+03</pdfrwt>
<pdfrwt beam="2">  1       21 0.88859621E-02 0.18913596E+03</pdfrwt>
<totfact> 0.49737082E+04</totfact>
</mgrwt>
</event>
<event>
 4    2  0.3903561E+000  0.2023254E+03  0.7546771E-02  0.1147792E+00
         21   -1    0    0  501  502  0.00000000000E+00  0.00000000000E+00  0.17644729783E+03  0.17644729783E+03  0.00000000000E+00 0. -1.
         21   -1    0    0  502  503 -0.00000000000E+00 -0.00000000000E+00 -0.24022550354E+03  0.24022550354E+03  0.00000000000E+00 0.  1.
          6    1    1    2  501    0  0.35353844641E+02 -0.98775907591E+02 -0.70442850088E+02  0.21423764697E+03  0.17300000000E+03 0.  1.
         -6    1    1    2    0  503 -0.35353844641E+02  0.98775907591E+02  0.66646443878E+01  0.20243515440E+03  0.17300000000E+03 0. -1.
<mgrwt>
<rscale>  2 0.20232542E+03</rscale>
<asrwt>0</asrwt>
<pdfrwt beam="1">  1       21 0.27145738E-01 0.20232542E+03</pdfrwt>
<pdfrwt beam="2">  1       21 0.36957770E-01 0.20232542E+03</pdfrwt>
<totfact> 0.90964971E+04</totfact>
</mgrwt>
</event>
<event>
 4    2  0.3903561E+000  0.2537894E+03  0.7546771E-02  0.1110933E+00
         21   -1    0    0  501  502  0.00000000000E+00  0.00000000000E+00  0.12095608446E+03  0.12095608446E+03  0.00000000000E+00 0. -1.
         21   -1    0    0  502  503 -0.00000000000E+00 -0.00000000000E+00 -0.53653110120E+03  0.53653110120E+03  0.00000000000E+00 0.  1.
          6    1    1    2  501    0 -0.15933880458E+03  0.95347830752E+02 -0.23628421246E+03  0.34675537852E+03  0.17300000000E+03 0. -1.
         -6    1    1    2    0  503  0.15933880458E+03 -0.95347830752E+02 -0.17929080428E+03  0.31073180715E+03  0.17300000000E+03 0. -1.
<mgrwt>
<rscale>  2 0.25378941E+03</rscale>
<asrwt>0</asrwt>
<pdfrwt beam="1">  1       21 0.18608628E-01 0.25378941E+03</pdfrwt>
<pdfrwt beam="2">  1       21 0.82543247E-01 0.25378941E+03</pdfrwt>
<totfact> 0.32809481E+04</totfact>
</mgrwt>
</event>
<event>
 4    2  0.3903561E+000  0.2574569E+03  0.7546771E-02  0.1108681E+00
         21   -1    0    0  503  502  0.00000000000E+00  0.00000000000E+00  0.94904056553E+03  0.94904056553E+03  0.00000000000E+00 0. -1.
         21   -1    0    0  501  503 -0.00000000000E+00 -0.00000000000E+00 -0.11957446593E+03  0.11957446593E+03  0.00000000000E+00 0.  1.
          6    1    1    2  501    0 -0.14809162059E+03 -0.12009970574E+03  0.70155765802E+02  0.26684433455E+03  0.17300000000E+03 0.  1.
         -6    1    1    2    0  502  0.14809162059E+03  0.12009970574E+03  0.75931033380E+03  0.80177069691E+03  0.17300000000E+03 0. -1.
<mgrwt>
<rscale>  2 0.25745692E+03</rscale>
<asrwt>0</asrwt>
<pdfrwt beam="1">  1       21 0.14600624E+00 0.25745692E+03</pdfrwt>
<pdfrwt beam="2">  1       21 0.18396072E-01 0.25745692E+03</pdfrwt>
<totfact> 0.82747830E+03</totfact>
</mgrwt>
</event>
<event>
 4    2  0.3903561E+000  0.2111631E+03  0.7546771E-02  0.1140648E+00
         21   -1    0    0  503  502  0.00000000000E+00  0.00000000000E+00  0.14255288802E+03  0.14255288802E+03  0.00000000000E+00 0. -1.
         21   -1    0    0  501  503 -0.00000000000E+00 -0.00000000000E+00 -0.35663445197E+03  0.35663445197E+03  0.00000000000E+00 0.  1.
          6    1    1    2  501    0 -0.33408257346E+02 -0.11638197434E+03 -0.19454982085E+03  0.28712281066E+03  0.17300000000E+03 0.  1.
         -6    1    1    2    0  502  0.33408257346E+02  0.11638197434E+03 -0.19531743107E+02  0.21206452933E+03  0.17300000000E+03 0. -1.
<mgrwt>
<rscale>  2 0.21116315E+03</rscale>
<asrwt>0</asrwt>
<pdfrwt beam="1">  1       21 0.21931214E-01 0.21116315E+03</pdfrwt>
<pdfrwt beam="2">  1       21 0.54866838E-01 0.21116315E+03</pdfrwt>
<totfact> 0.60359500E+04</totfact>
</mgrwt>
</event>
<event>
 4    2  0.3903561E+000  0.1806425E+03  0.7546771E-02  0.1167183E+00
         21   -1    0    0  503  502  0.00000000000E+00  0.00000000000E+00  0.31523646795E+03  0.31523646795E+03  0.00000000000E+00 0. -1.
         21   -1    0    0  501  503 -0.00000000000E+00 -0.00000000000E+00 -0.16682158508E+03  0.16682158508E+03  0.00000000000E+00 0. -1.
          6    1    1    2  501    0 -0.11321924107E+02  0.50739800577E+02 -0.74272420822E+02  0.19531540089E+03  0.17300000000E+03 0. -1.
         -6    1    1    2    0  502  0.11321924107E+02 -0.50739800577E+02  0.22268730369E+03  0.28674265214E+03  0.17300000000E+03 0. -1.
<mgrwt>
<rscale>  2 0.18064250E+03</rscale>
<asrwt>0</asrwt>
<pdfrwt beam="1">  1       21 0.48497918E-01 0.18064250E+03</pdfrwt>
<pdfrwt beam="2">  1       21 0.25664859E-01 0.18064250E+03</pdfrwt>
<totfact> 0.58803211E+04</totfact>
</mgrwt>
</event>
<event>
 4    2  0.3903561E+000  0.1845896E+03  0.7546771E-02  0.1163434E+00
         21   -1    0    0  503  502  0.00000000000E+00  0.00000000000E+00  0.33576191424E+03  0.33576191424E+03  0.00000000000E+00 0.  1.
         21   -1    0    0  501  503 -0.00000000000E+00 -0.00000000000E+00 -0.35017807246E+03  0.35017807246E+03  0.00000000000E+00 0.  1.
          6    1    1    2  501    0 -0.55043576106E+02  0.33384619419E+02 -0.29624100359E+03  0.34904449615E+03  0.17300000000E+03 0.  1.
         -6    1    1    2    0  502  0.55043576106E+02 -0.33384619419E+02  0.28182484537E+03  0.33689549055E+03  0.17300000000E+03 0.  1.
<mgrwt>
<rscale>  2 0.18458962E+03</rscale>
<asrwt>0</asrwt>
<pdfrwt beam="1">  1       21 0.51655680E-01 0.18458962E+03</pdfrwt>
<pdfrwt beam="2">  1       21 0.53873549E-01 0.18458962E+03</pdfrwt>
<totfact> 0.11661580E+04</totfact>
</mgrwt>
</event>
<event>
 4    2  0.3903561E+000  0.1982723E+03  0.7546771E-02  0.1151205E+00
         21   -1    0    0  501  502  0.00000000000E+00  0.00000000000E+00  0.14508110733E+04  0.14508110733E+04  0.00000000000E+00 0.  1.
         21   -1    0    0  502  503 -0.00000000000E+00 -0.00000000000E+00 -0.46310296837E+02  0.46310296837E+02  0.00000000000E+00 0. -1.
          6    1    1    2  501    0 -0.51514369007E+02 -0.82031660259E+02  0.11844142570E+04  0.12008951061E+04  0.17300000000E+03 0.  1.
         -6    1    1    2    0  503  0.51514369007E+02  0.82031660259E+02  0.22008651947E+03  0.29622626412E+03  0.17300000000E+03 0. -1.
<mgrwt>
<rscale>  2 0.19827235E+03</rscale>
<asrwt>0</asrwt>
<pdfrwt beam="1">  1       21 0.22320167E+00 0.19827235E+03</pdfrwt>
<pdfrwt beam="2">  1       21 0.71246622E-02 0.19827235E+03</pdfrwt>
<totfact> 0.14041701E+04</totfact>
</mgrwt>
</event>
<event>
 4    2  0.3903561E+000  0.5058872E+03  0.7546771E-02  0.1012254E+00
         21   -1    0    0  503  502  0.00000000000E+00  0.00000000000E+00  0.82353050625E+03  0.82353050625E+03  0.00000000000E+00 0. -1.
         21   -1    0    0  501  503 -0.00000000000E+00 -0.00000000000E+00 -0.40459216366E+03  0.40459216366E+03  0.00000000000E+00 0.  1.
          6    1    1    2  501    0 -0.47049603372E+03  0.68017058471E+02  0.50518507056E+03  0.71493621639E+03  0.17300000000E+03 0. -1.
         -6    1    1    2    0  502  0.47049603372E+03 -0.68017058471E+02 -0.86246727970E+02  0.51318645352E+03  0.17300000000E+03 0.  1.
<mgrwt>
<rscale>  2 0.50588718E+03</rscale>
<asrwt>0</asrwt>
<pdfrwt beam="1">  1       21 0.12669700E+00 0.50588718E+03</pdfrwt>
<pdfrwt beam="2">  1       21 0.62244949E-01 0.50588718E+03</pdfrwt>
<totfact> 0.91434113E+02</totfact>
</mgrwt>
</event>
<event>
 4    2  0.3903561E+000  0.1959751E+03  0.7546771E-02  0.1153180E+00
         21   -1    0    0  503  502  0.00000000000E+00  0.00000000000E+00  0.20895363948E+03  0.20895363948E+03  0.00000000000E+00 0.  1.
         21   -1    0    0  501  503 -0.00000000000E+00 -0.00000000000E+00 -0.30253225637E+03  0.30253225637E+03  0.00000000000E+00 0.  1.
          6    1    1    2  501    0 -0.10393095416E+02 -0.91483487111E+02 -0.20700211600E+03  0.28505459280E+03  0.17300000000E+03 0.  1.
         -6    1    1    2    0  502  0.10393095416E+02  0.91483487111E+02  0.11342349911E+03  0.22643130304E+03  0.17300000000E+03 0.  1.
<mgrwt>
<rscale>  2 0.19597511E+03</rscale>
<asrwt>0</asrwt>
<pdfrwt beam="1">  1       21 0.32146714E-01 0.19597511E+03</pdfrwt>
<pdfrwt beam="2">  1       21 0.46543424E-01 0.19597511E+03</pdfrwt>
<totfact> 0.41081748E+04</totfact>
</mgrwt>
</event>
<event>
 4    2  0.3903561E+000  0.2596874E+03  0.7546771E-02  0.1107331E+00
         21   -1    0    0  503  502  0.00000000000E+00  0.00000000000E+00  0.15076458767E+03  0.15076458767E+03  0.00000000000E+00 0.  1.
         21   -1    0    0  501  503 -0.00000000000E+00 -0.00000000000E+00 -0.51120081135E+03  0.51120081135E+03  0.00000000000E+00 0. -1.
          6    1    1    2  501    0  0.16272790403E+03  0.10501513588E+03 -0.29723548050E+03  0.39469796095E+03  0.17300000000E+03 0.  1.
         -6    1    1    2    0  502 -0.16272790403E+03 -0.10501513588E+03 -0.63200743176E+02  0.26726743807E+03  0.17300000000E+03 0. -1.
<mgrwt>
<rscale>  2 0.25968741E+03</rscale>
<asrwt>0</asrwt>
<pdfrwt beam="1">  1       21 0.23194552E-01 0.25968741E+03</pdfrwt>
<pdfrwt beam="2">  1       21 0.78646279E-01 0.25968741E+03</pdfrwt>
<totfact> 0.24110065E+04</totfact>
</mgrwt>
</event>
<event>
 4    2  0.3903561E+000  0.1807222E+03  0.7546771E-02  0.1167106E+00
         21   -1    0    0  501  502  0.00000000000E+00  0.00000000000E+00  0.11714918468E+04  0.11714918468E+04  0.00000000000E+00 0.  1.
         21   -1    0    0  502  503 -0.00000000000E+00 -0.00000000000E+00 -0.44407998451E+02  0.44407998451E+02  0.00000000000E+00 0.  1.
          6    1    1    2  501    0 -0.43168525292E+02 -0.29461894225E+02  0.93444021324E+03  0.95175576537E+03  0.17300000000E+03 0.  1.
         -6    1    1    2    0  503  0.43168525292E+02  0.29461894225E+02  0.19264363508E+03  0.26414407986E+03  0.17300000000E+03 0.  1.
<mgrwt>
<rscale>  2 0.18072223E+03</rscale>
<asrwt>0</asrwt>
<pdfrwt beam="1">  1       21 0.18022949E+00 0.18072223E+03</pdfrwt>
<pdfrwt beam="2">  1       21 0.68320007E-02 0.18072223E+03</pdfrwt>
<totfact> 0.28834503E+04</totfact>
</mgrwt>
</event>
<event>
 4    2  0.3903561E+000  0.2286102E+03  0.7546771E-02  0.1127622E+00
         21   -1    0    0  501  502  0.00000000000E+00  0.00000000000E+00  0.31486977993E+03  0.31486977993E+03  0.00000000000E+00 0.  1.
         21   -1    0    0  502  503 -0.00000000000E+00 -0.00000000000E+00 -0.22507523840E+03  0.22507523840E+03  0.00000000000E+00 0. -1.
          6    1    1    2  501    0 -0.32079833094E+02 -0.14596070210E+03  0.18323015669E+03  0.29297769978E+03  0.17300000000E+03 0.  1.
         -6    1    1    2    0  503  0.32079833094E+02  0.14596070210E+03 -0.93435615166E+02  0.24696731855E+03  0.17300000000E+03 0. -1.
<mgrwt>
<rscale>  2 0.22861024E+03</rscale>
<asrwt>0</asrwt>
<pdfrwt beam="1">  1       21 0.48441505E-01 0.22861024E+03</pdfrwt>
<pdfrwt beam="2">  1       21 0.34626960E-01 0.22861024E+03</pdfrwt>
<totfact> 0.32113404E+04</totfact>
</mgrwt>
</event>
<event>
 4    2  0.3903561E+000  0.2086655E+03  0.7546771E-02  0.1142627E+00
         21   -1    0    0  501  502  0.00000000000E+00  0.00000000000E+00  0.16054624866E+03  0.16054624866E+03  0.00000000000E+00 0. -1.
         21   -1    0    0  502  503 -0.00000000000E+00 -0.00000000000E+00 -0.29562008941E+03  0.29562008941E+03  0.00000000000E+00 0. -1.
          6    1    1    2  501    0  0.11065611343E+03  0.36980205830E+02 -0.19925846552E+01  0.20867506189E+03  0.17300000000E+03 0. -1.
         -6    1    1    2    0  503 -0.11065611343E+03 -0.36980205830E+02 -0.13308125609E+03  0.24749127618E+03  0.17300000000E+03 0. -1.
<mgrwt>
<rscale>  2 0.20866555E+03</rscale>
<asrwt>0</asrwt>
<pdfrwt beam="1">  1       21 0.24699423E-01 0.20866555E+03</pdfrwt>
<pdfrwt beam="2">  1       21 0.45480014E-01 0.20866555E+03</pdfrwt>
<totfact> 0.71359911E+04</totfact>
</mgrwt>
</event>
<event>
 4    2  0.3903561E+000  0.1953693E+03  0.7546771E-02  0.1153706E+00
         21   -1    0    0  503  502  0.00000000000E+00  0.00000000000E+00  0.39613761273E+02  0.39613761273E+02  0.00000000000E+00 0.  1.
         21   -1    0    0  501  503 -0.00000000000E+00 -0.00000000000E+00 -0.99350007065E+03  0.99350007065E+03  0.00000000000E+00 0.  1.
          6    1    1    2  501    0  0.78852917809E+02  0.44970672175E+02 -0.56665720061E+03  0.59939096340E+03  0.17300000000E+03 0.  1.
         -6    1    1    2    0  502 -0.78852917809E+02 -0.44970672175E+02 -0.38722910877E+03  0.43372286853E+03  0.17300000000E+03 0.  1.
<mgrwt>
<rscale>  2 0.19536925E+03</rscale>
<asrwt>0</asrwt>
<pdfrwt beam="1">  1       21 0.60944241E-02 0.19536925E+03</pdfrwt>
<pdfrwt beam="2">  1       21 0.15284618E+00 0.19536925E+03</pdfrwt>
<totfact> 0.54522733E+04</totfact>
</mgrwt>
</event>
<event>
 4    2  0.3903561E+000  0.2088617E+03  0.7546771E-02  0.1142471E+00
         21   -1    0    0  501  502  0.00000000000E+00  0.00000000000E+00  0.38908254140E+03  0.38908254140E+03  0.00000000000E+00 0. -1.
         21   -1    0    0  502  503 -0.00000000000E+00 -0.00000000000E+00 -0.15530032927E+03  0.15530032927E+03  0.00000000000E+00 0. -1.
          6    1    1    2  501    0  0.10668969146E+03  0.48078356263E+02  0.26042038251E+03  0.33382928906E+03  0.17300000000E+03 0. -1.
         -6    1    1    2    0  503 -0.10668969146E+03 -0.48078356263E+02 -0.26638170382E+02  0.21055358160E+03  0.17300000000E+03 0. -1.
<mgrwt>
<rscale>  2 0.20886172E+03</rscale>
<asrwt>0</asrwt>
<pdfrwt beam="1">  1       21 0.59858852E-01 0.20886172E+03</pdfrwt>
<pdfrwt beam="2">  1       21 0.23892358E-01 0.20886172E+03</pdfrwt>
<totfact> 0.42651989E+04</totfact>
</mgrwt>
</event>
<event>
 4    2  0.3903561E+000  0.1822115E+03  0.7546771E-02  0.1165680E+00
         21   -1    0    0  501  502  0.00000000000E+00  0.00000000000E+00  0.12851898443E+04  0.12851898443E+04  0.00000000000E+00 0. -1.
         21   -1    0    0  502  503 -0.00000000000E+00 -0.00000000000E+00 -0.12853928080E+04  0.12853928080E+04  0.00000000000E+00 0. -1.
          6    1    1    2  501    0 -0.19964487083E+02 -0.53604651356E+02  0.12722085250E+04  0.12851908693E+04  0.17300000000E+03 0. -1.
         -6    1    1    2    0  503  0.19964487083E+02  0.53604651356E+02 -0.12724114887E+04  0.12853917830E+04  0.17300000000E+03 0. -1.
<mgrwt>
<rscale>  2 0.18221152E+03</rscale>
<asrwt>0</asrwt>
<pdfrwt beam="1">  1       21 0.19772151E+00 0.18221152E+03</pdfrwt>
<pdfrwt beam="2">  1       21 0.19775274E+00 0.18221152E+03</pdfrwt>
<totfact> 0.19654159E+01</totfact>
</mgrwt>
</event>
<event>
 4    2  0.3903561E+000  0.2601910E+03  0.7546771E-02  0.1107029E+00
         21   -1    0    0  501  502  0.00000000000E+00  0.00000000000E+00  0.13665245254E+03  0.13665245254E+03  0.00000000000E+00 0.  1.
         21   -1    0    0  502  503 -0.00000000000E+00 -0.00000000000E+00 -0.24747581484E+04  0.24747581484E+04  0.00000000000E+00 0.  1.
          6    1    1    2  501    0 -0.10024660944E+03 -0.16649619288E+03 -0.13305305883E+01  0.26019441820E+03  0.17300000000E+03 0.  1.
         -6    1    1    2    0  503  0.10024660944E+03  0.16649619288E+03 -0.23367751653E+04  0.23512161827E+04  0.17300000000E+03 0.  1.
<mgrwt>
<rscale>  2 0.26019102E+03</rscale>
<asrwt>0</asrwt>
<pdfrwt beam="1">  1       21 0.21023456E-01 0.26019102E+03</pdfrwt>
<pdfrwt beam="2">  1       21 0.38073199E+00 0.26019102E+03</pdfrwt>
<totfact> 0.21819305E+02</totfact>
</mgrwt>
</event>
<event>
 4    2  0.3903561E+000  0.1786272E+03  0.7546771E-02  0.1169138E+00
         21   -1    0    0  503  502  0.00000000000E+00  0.00000000000E+00  0.21302180388E+04  0.21302180388E+04  0.00000000000E+00 0.  1.
         21   -1    0    0  501  503 -0.00000000000E+00 -0.00000000000E+00 -0.22263326691E+02  0.22263326691E+02  0.00000000000E+00 0.  1.
          6    1    1    2  501    0  0.44182047265E+02 -0.51592366670E+01  0.43834535494E+03  0.47334376643E+03  0.17300000000E+03 0.  1.
         -6    1    1    2    0  502 -0.44182047265E+02  0.51592366670E+01  0.16696093572E+04  0.16791375991E+04  0.17300000000E+03 0.  1.
<mgrwt>
<rscale>  2 0.17862718E+03</rscale>
<asrwt>0</asrwt>
<pdfrwt beam="1">  1       21 0.32772569E+00 0.17862718E+03</pdfrwt>
<pdfrwt beam="2">  1       21 0.34251288E-02 0.17862718E+03</pdfrwt>
<totfact> 0.12185422E+04</totfact>
</mgrwt>
</event>
<event>
 4    2  0.3903561E+000  0.1797827E+03  0.7546771E-02  0.1168014E+00
         21   -1    0    0  503  502  0.00000000000E+00  0.00000000000E+00  0.31701022638E+03  0.31701022638E+03  0.00000000000E+00 0.  1.
         21   -1    0    0  501  503 -0.00000000000E+00 -0.00000000000E+00 -0.15232180415E+03  0.15232180415E+03  0.00000000000E+00 0. -1.
          6    1    1    2  501    0 -0.48821552768E+02 -0.30439214464E+01 -0.52591631544E+02  0.18731708193E+03  0.17300000000E+03 0. -1.
         -6    1    1    2    0  502  0.48821552768E+02  0.30439214464E+01  0.21728005377E+03  0.28201494861E+03  0.17300000000E+03 0. -1.
<mgrwt>
<rscale>  2 0.17978267E+03</rscale>
<asrwt>0</asrwt>
<pdfrwt beam="1">  1       21 0.48770804E-01 0.17978267E+03</pdfrwt>
<pdfrwt beam="2">  1       21 0.23434124E-01 0.17978267E+03</pdfrwt>
<totfact> 0.69125150E+04</totfact>
</mgrwt>
</event>
<event>
 4    2  0.3903561E+000  0.1769913E+03  0.7546771E-02  0.1170747E+00
         21   -1    0    0  501  502  0.00000000000E+00  0.00000000000E+00  0.79657356433E+03  0.79657356433E+03  0.00000000000E+00 0.  1.
         21   -1    0    0  502  503 -0.00000000000E+00 -0.00000000000E+00 -0.41864558073E+02  0.41864558073E+02  0.00000000000E+00 0.  1.
          6    1    1    2  501    0  0.24076678201E+02  0.28587395035E+02  0.48058901064E+03  0.51214424016E+03  0.17300000000E+03 0.  1.
         -6    1    1    2    0  503 -0.24076678201E+02 -0.28587395035E+02  0.27411999562E+03  0.32629388224E+03  0.17300000000E+03 0.  1.
<mgrwt>
<rscale>  2 0.17699132E+03</rscale>
<asrwt>0</asrwt>
<pdfrwt beam="1">  1       21 0.12254977E+00 0.17699132E+03</pdfrwt>
<pdfrwt beam="2">  1       21 0.64407018E-02 0.17699132E+03</pdfrwt>
<totfact> 0.88137261E+04</totfact>
</mgrwt>
</event>
<event>
 4    2  0.3903561E+000  0.1832348E+03  0.7546771E-02  0.1164709E+00
         21   -1    0    0  501  502  0.00000000000E+00  0.00000000000E+00  0.15243221931E+03  0.15243221931E+03  0.00000000000E+00 0.  1.
         21   -1    0    0  502  503 -0.00000000000E+00 -0.00000000000E+00 -0.22735677888E+03  0.22735677888E+03  0.00000000000E+00 0.  1.
          6    1    1    2  501    0  0.59349684724E+02 -0.11117781604E+02 -0.39167264966E+01  0.18327665124E+03  0.17300000000E+03 0.  1.
         -6    1    1    2    0  503 -0.59349684724E+02  0.11117781604E+02 -0.71007833072E+02  0.19651234695E+03  0.17300000000E+03 0.  1.
<mgrwt>
<rscale>  2 0.18323480E+03</rscale>
<asrwt>0</asrwt>
<pdfrwt beam="1">  1       21 0.23451111E-01 0.18323480E+03</pdfrwt>
<pdfrwt beam="2">  1       21 0.34977966E-01 0.18323480E+03</pdfrwt>
<totfact> 0.13521503E+05</totfact>
</mgrwt>
</event>
<event>
 4    2  0.3903561E+000  0.2083912E+03  0.7546771E-02  0.1142846E+00
         21   -1    0    0  503  502  0.00000000000E+00  0.00000000000E+00  0.35805870060E+03  0.35805870060E+03  0.00000000000E+00 0. -1.
         21   -1    0    0  501  503 -0.00000000000E+00 -0.00000000000E+00 -0.47067972460E+03  0.47067972460E+03  0.00000000000E+00 0. -1.
          6    1    1    2  501    0 -0.10736347831E+03  0.44395444312E+02 -0.41332298404E+03  0.46288525694E+03  0.17300000000E+03 0. -1.
         -6    1    1    2    0  502  0.10736347831E+03 -0.44395444312E+02  0.30070196005E+03  0.36585316826E+03  0.17300000000E+03 0. -1.
<mgrwt>
<rscale>  2 0.20839115E+03</rscale>
<asrwt>0</asrwt>
<pdfrwt beam="1">  1       21 0.55085954E-01 0.20839115E+03</pdfrwt>
<pdfrwt beam="2">  1       21 0.72412265E-01 0.20839115E+03</pdfrwt>
<totfact> 0.52807580E+03</totfact>
</mgrwt>
</event>
<event>
 4    2  0.3903561E+000  0.1732259E+03  0.7546771E-02  0.1174525E+00
         21   -1    0    0  501  502  0.00000000000E+00  0.00000000000E+00  0.59928703716E+02  0.59928703716E+02  0.00000000000E+00 0. -1.
         21   -1    0    0  502  503 -0.00000000000E+00 -0.00000000000E+00 -0.52900657894E+03  0.52900657894E+03  0.00000000000E+00 0. -1.
          6    1    1    2  501    0  0.54877235927E+01  0.69362809654E+01 -0.16644126400E+03  0.24022889390E+03  0.17300000000E+03 0.  1.
         -6    1    1    2    0  503 -0.54877235927E+01 -0.69362809654E+01 -0.30263661123E+03  0.34870638876E+03  0.17300000000E+03 0.  1.
<mgrwt>
<rscale>  2 0.17322594E+03</rscale>
<asrwt>0</asrwt>
<pdfrwt beam="1">  1       21 0.92198009E-02 0.17322594E+03</pdfrwt>
<pdfrwt beam="2">  1       21 0.81385624E-01 0.17322594E+03</pdfrwt>
<totfact> 0.12476297E+05</totfact>
</mgrwt>
</event>
<event>
 4    2  0.3903561E+000  0.2046116E+03  0.7546771E-02  0.1145905E+00
         21   -1    0    0  503  502  0.00000000000E+00  0.00000000000E+00  0.63079794443E+03  0.63079794443E+03  0.00000000000E+00 0. -1.
         21   -1    0    0  501  503 -0.00000000000E+00 -0.00000000000E+00 -0.12446127624E+03  0.12446127624E+03  0.00000000000E+00 0. -1.
          6    1    1    2  501    0 -0.55990340153E+02 -0.93819020581E+02 -0.48230254191E+01  0.20466848411E+03  0.17300000000E+03 0. -1.
         -6    1    1    2    0  502  0.55990340153E+02  0.93819020581E+02  0.51115969361E+03  0.55059073656E+03  0.17300000000E+03 0. -1.
<mgrwt>
<rscale>  2 0.20461165E+03</rscale>
<asrwt>0</asrwt>
<pdfrwt beam="1">  1       21 0.97045836E-01 0.20461165E+03</pdfrwt>
<pdfrwt beam="2">  1       21 0.19147889E-01 0.20461165E+03</pdfrwt>
<totfact> 0.21900254E+04</totfact>
</mgrwt>
</event>
<event>
 4    2  0.3903561E+000  0.2144568E+03  0.7546771E-02  0.1138084E+00
         21   -1    0    0  503  502  0.00000000000E+00  0.00000000000E+00  0.11061238209E+03  0.11061238209E+03  0.00000000000E+00 0. -1.
         21   -1    0    0  501  503 -0.00000000000E+00 -0.00000000000E+00 -0.69921574251E+03  0.69921574251E+03  0.00000000000E+00 0. -1.
          6    1    1    2  501    0 -0.12299579272E+03 -0.30573851596E+02 -0.55209728028E+03  0.59228636007E+03  0.17300000000E+03 0. -1.
         -6    1    1    2    0  502  0.12299579272E+03  0.30573851596E+02 -0.36506080140E+02  0.21754176453E+03  0.17300000000E+03 0. -1.
<mgrwt>
<rscale>  2 0.21445681E+03</rscale>
<asrwt>0</asrwt>
<pdfrwt beam="1">  1       21 0.17017290E-01 0.21445681E+03</pdfrwt>
<pdfrwt beam="2">  1       21 0.10757165E+00 0.21445681E+03</pdfrwt>
<totfact> 0.21180742E+04</totfact>
</mgrwt>
</event>
<event>
 4    2  0.3903561E+000  0.2426816E+03  0.7546771E-02  0.1118019E+00
         21   -1    0    0  501  502  0.00000000000E+00  0.00000000000E+00  0.57668114661E+03  0.57668114661E+03  0.00000000000E+00 0. -1.
         21   -1    0    0  502  503 -0.00000000000E+00 -0.00000000000E+00 -0.19431639823E+03  0.19431639823E+03  0.00000000000E+00 0.  1.
          6    1    1    2  501    0 -0.14924418523E+03  0.81801750884E+02  0.45671032438E+03  0.51718340428E+03  0.17300000000E+03 0. -1.
         -6    1    1    2    0  503  0.14924418523E+03 -0.81801750884E+02 -0.74345575995E+02  0.25381414055E+03  0.17300000000E+03 0.  1.
<mgrwt>
<rscale>  2 0.24268159E+03</rscale>
<asrwt>0</asrwt>
<pdfrwt beam="1">  1       21 0.88720176E-01 0.24268159E+03</pdfrwt>
<pdfrwt beam="2">  1       21 0.29894831E-01 0.24268159E+03</pdfrwt>
<totfact> 0.11290658E+04</totfact>
</mgrwt>
</event>
<event>
 4    2  0.3903561E+000  0.1868932E+03  0.7546771E-02  0.1161294E+00
         21   -1    0    0  503  502  0.00000000000E+00  0.00000000000E+00  0.35971226264E+03  0.35971226264E+03  0.00000000000E+00 0. -1.
         21   -1    0    0  501  503 -0.00000000000E+00 -0.00000000000E+00 -0.31213569229E+03  0.31213569229E+03  0.00000000000E+00 0. -1.
          6    1    1    2  501    0 -0.68885267104E+02  0.15965212303E+02 -0.25503031051E+03  0.31617958079E+03  0.17300000000E+03 0. -1.
         -6    1    1    2    0  502  0.68885267104E+02 -0.15965212303E+02  0.30260688085E+03  0.35566837414E+03  0.17300000000E+03 0. -1.
<mgrwt>
<rscale>  2 0.18689320E+03</rscale>
<asrwt>0</asrwt>
<pdfrwt beam="1">  1       21 0.55340348E-01 0.18689320E+03</pdfrwt>
<pdfrwt beam="2">  1       21 0.48020876E-01 0.18689320E+03</pdfrwt>
<totfact> 0.12806784E+04</totfact>
</mgrwt>
</event>
<event>
 4    2  0.3903561E+000  0.1759529E+03  0.7546771E-02  0.1171778E+00
         21   -1    0    0  503  502  0.00000000000E+00  0.00000000000E+00  0.18333444640E+03  0.18333444640E+03  0.00000000000E+00 0. -1.
         21   -1    0    0  501  503 -0.00000000000E+00 -0.00000000000E+00 -0.20725629045E+03  0.20725629045E+03  0.00000000000E+00 0. -1.
          6    1    1    2  501    0 -0.30391897550E+02  0.10332059532E+02 -0.96010291198E+02  0.20044299665E+03  0.17300000000E+03 0. -1.
         -6    1    1    2    0  502  0.30391897550E+02 -0.10332059532E+02  0.72088447140E+02  0.19014774020E+03  0.17300000000E+03 0. -1.
<mgrwt>
<rscale>  2 0.17595289E+03</rscale>
<asrwt>0</asrwt>
<pdfrwt beam="1">  1       21 0.28205299E-01 0.17595289E+03</pdfrwt>
<pdfrwt beam="2">  1       21 0.31885583E-01 0.17595289E+03</pdfrwt>
<totfact> 0.11430635E+05</totfact>
</mgrwt>
</event>
<event>
 4    2  0.3903561E+000  0.1869114E+03  0.7546771E-02  0.1161277E+00
         21   -1    0    0  503  502  0.00000000000E+00  0.00000000000E+00  0.83915199778E+02  0.83915199778E+02  0.00000000000E+00 0.  1.
         21   -1    0    0  501  503 -0.00000000000E+00 -0.00000000000E+00 -0.61623347473E+03  0.61623347473E+03  0.00000000000E+00 0. -1.
          6    1    1    2  501    0 -0.27083781171E+02  0.65370732448E+02 -0.46554985654E+03  0.50166974474E+03  0.17300000000E+03 0. -1.
         -6    1    1    2    0  502  0.27083781171E+02 -0.65370732448E+02 -0.66768418406E+02  0.19847892976E+03  0.17300000000E+03 0.  1.
<mgrwt>
<rscale>  2 0.18691138E+03</rscale>
<asrwt>0</asrwt>
<pdfrwt beam="1">  1       21 0.12910031E-01 0.18691138E+03</pdfrwt>
<pdfrwt beam="2">  1       21 0.94805149E-01 0.18691138E+03</pdfrwt>
<totfact> 0.48046049E+04</totfact>
</mgrwt>
</event>
<event>
 4    2  0.3903561E+000  0.2247271E+03  0.7546771E-02  0.1130407E+00
         21   -1    0    0  503  502  0.00000000000E+00  0.00000000000E+00  0.66625898567E+02  0.66625898567E+02  0.00000000000E+00 0.  1.
         21   -1    0    0  501  503 -0.00000000000E+00 -0.00000000000E+00 -0.75974927256E+03  0.75974927256E+03  0.00000000000E+00 0.  1.
          6    1    1    2  501    0 -0.18379485394E+02  0.14225134452E+03 -0.32672006771E+03  0.39654539859E+03  0.17300000000E+03 0.  1.
         -6    1    1    2    0  502  0.18379485394E+02 -0.14225134452E+03 -0.36640330628E+03  0.42982977253E+03  0.17300000000E+03 0.  1.
<mgrwt>
<rscale>  2 0.22472706E+03</rscale>
<asrwt>0</asrwt>
<pdfrwt beam="1">  1       21 0.10250138E-01 0.22472706E+03</pdfrwt>
<pdfrwt beam="2">  1       21 0.11688451E+00 0.22472706E+03</pdfrwt>
<totfact> 0.43036282E+04</totfact>
</mgrwt>
</event>
<event>
 4    2  0.3903561E+000  0.2070406E+03  0.7546771E-02  0.1143931E+00
         21   -1    0    0  501  502  0.00000000000E+00  0.00000000000E+00  0.22270842260E+03  0.22270842260E+03  0.00000000000E+00 0.  1.
         21   -1    0    0  502  503 -0.00000000000E+00 -0.00000000000E+00 -0.19676031814E+03  0.19676031814E+03  0.00000000000E+00 0.  1.
          6    1    1    2  501    0  0.63373714801E+02 -0.94448931607E+02 -0.17977807390E+02  0.20781970544E+03  0.17300000000E+03 0.  1.
         -6    1    1    2    0  503 -0.63373714801E+02  0.94448931607E+02  0.43925911850E+02  0.21164903529E+03  0.17300000000E+03 0.  1.
<mgrwt>
<rscale>  2 0.20704064E+03</rscale>
<asrwt>0</asrwt>
<pdfrwt beam="1">  1       21 0.34262834E-01 0.20704064E+03</pdfrwt>
<pdfrwt beam="2">  1       21 0.30270818E-01 0.20704064E+03</pdfrwt>
<totfact> 0.85434709E+04</totfact>
</mgrwt>
</event>
<event>
 4    2  0.3903561E+000  0.3318584E+03  0.7546771E-02  0.1070318E+00
         21   -1    0    0  501  502  0.00000000000E+00  0.00000000000E+00  0.95841297307E+03  0.95841297307E+03  0.00000000000E+00 0. -1.
         21   -1    0    0  502  503 -0.00000000000E+00 -0.00000000000E+00 -0.23002344730E+03  0.23002344730E+03  0.00000000000E+00 0. -1.
          6    1    1    2  501    0  0.60893938849E+02 -0.27657357193E+03  0.78455859125E+03  0.85185808418E+03  0.17300000000E+03 0. -1.
         -6    1    1    2    0  503 -0.60893938849E+02  0.27657357193E+03 -0.56169065477E+02  0.33657833620E+03  0.17300000000E+03 0. -1.
<mgrwt>
<rscale>  2 0.33185842E+03</rscale>
<asrwt>0</asrwt>
<pdfrwt beam="1">  1       21 0.14744815E+00 0.33185842E+03</pdfrwt>
<pdfrwt beam="2">  1       21 0.35388223E-01 0.33185842E+03</pdfrwt>
<totfact> 0.21786780E+03</totfact>
</mgrwt>
</event>
<event>
 4    2  0.3903561E+000  0.1730114E+03  0.7546771E-02  0.1174743E+00
         21   -1    0    0  501  502  0.00000000000E+00  0.00000000000E+00  0.25051837301E+03  0.25051837301E+03  0.00000000000E+00 0. -1.
         21   -1    0    0  502  503 -0.00000000000E+00 -0.00000000000E+00 -0.13230842762E+03  0.13230842762E+03  0.00000000000E+00 0. -1.
          6    1    1    2  501    0 -0.54893568185E+00  0.19082477858E+01  0.11869824186E+03  0.20981471674E+03  0.17300000000E+03 0. -1.
         -6    1    1    2    0  503  0.54893568185E+00 -0.19082477858E+01 -0.48829647369E+00  0.17301208389E+03  0.17300000000E+03 0. -1.
<mgrwt>
<rscale>  2 0.17301139E+03</rscale>
<asrwt>0</asrwt>
<pdfrwt beam="1">  1       21 0.38541288E-01 0.17301139E+03</pdfrwt>
<pdfrwt beam="2">  1       21 0.20355143E-01 0.17301139E+03</pdfrwt>
<totfact> 0.14593980E+05</totfact>
</mgrwt>
</event>
<event>
 4    2  0.3903561E+000  0.1787668E+03  0.7546771E-02  0.1169002E+00
         21   -1    0    0  501  502  0.00000000000E+00  0.00000000000E+00  0.43291975335E+03  0.43291975335E+03  0.00000000000E+00 0.  1.
         21   -1    0    0  502  503 -0.00000000000E+00 -0.00000000000E+00 -0.82897622059E+02  0.82897622059E+02  0.00000000000E+00 0.  1.
          6    1    1    2  501    0  0.25534636560E+02 -0.37101828882E+02  0.26036285554E+03  0.31582650287E+03  0.17300000000E+03 0.  1.
         -6    1    1    2    0  503 -0.25534636560E+02  0.37101828882E+02  0.89659275750E+02  0.19999087254E+03  0.17300000000E+03 0.  1.
<mgrwt>
<rscale>  2 0.17876678E+03</rscale>
<asrwt>0</asrwt>
<pdfrwt beam="1">  1       21 0.66603037E-01 0.17876678E+03</pdfrwt>
<pdfrwt beam="2">  1       21 0.12753481E-01 0.17876678E+03</pdfrwt>
<totfact> 0.10930149E+05</totfact>
</mgrwt>
</event>
<event>
 4    2  0.3903561E+000  0.2073289E+03  0.7546771E-02  0.1143699E+00
         21   -1    0    0  503  502  0.00000000000E+00  0.00000000000E+00  0.76289713826E+02  0.76289713826E+02  0.00000000000E+00 0. -1.
         21   -1    0    0  501  503 -0.00000000000E+00 -0.00000000000E+00 -0.72761898220E+03  0.72761898220E+03  0.00000000000E+00 0. -1.
          6    1    1    2  501    0 -0.19160242300E+02 -0.11264615375E+03 -0.13473506463E+03  0.24726263058E+03  0.17300000000E+03 0. -1.
         -6    1    1    2    0  502  0.19160242300E+02  0.11264615375E+03 -0.51659420374E+03  0.55664606545E+03  0.17300000000E+03 0. -1.
<mgrwt>
<rscale>  2 0.20732890E+03</rscale>
<asrwt>0</asrwt>
<pdfrwt beam="1">  1       21 0.11736879E-01 0.20732890E+03</pdfrwt>
<pdfrwt beam="2">  1       21 0.11194138E+00 0.20732890E+03</pdfrwt>
<totfact> 0.37910844E+04</totfact>
</mgrwt>
</event>
<event>
 4    2  0.3903561E+000  0.3165668E+03  0.7546771E-02  0.1077240E+00
         21   -1    0    0  501  502  0.00000000000E+00  0.00000000000E+00  0.22305850351E+03  0.22305850351E+03  0.00000000000E+00 0.  1.
         21   -1    0    0  502  503 -0.00000000000E+00 -0.00000000000E+00 -0.51216710887E+03  0.51216710887E+03  0.00000000000E+00 0. -1.
          6    1    1    2  501    0  0.14164944362E+03  0.22410035793E+03 -0.15734090024E+02  0.31695756324E+03  0.17300000000E+03 0. -1.
         -6    1    1    2    0  503 -0.14164944362E+03 -0.22410035793E+03 -0.27337451533E+03  0.41826804914E+03  0.17300000000E+03 0.  1.
<mgrwt>
<rscale>  2 0.31656679E+03</rscale>
<asrwt>0</asrwt>
<pdfrwt beam="1">  1       21 0.34316693E-01 0.31656679E+03</pdfrwt>
<pdfrwt beam="2">  1       21 0.78794939E-01 0.31656679E+03</pdfrwt>
<totfact> 0.10891703E+04</totfact>
</mgrwt>
</event>
<event>
 4    2  0.3903561E+000  0.1928362E+03  0.7546771E-02  0.1155928E+00
         21   -1    0    0  503  502  0.00000000000E+00  0.00000000000E+00  0.12260881555E+04  0.12260881555E+04  0.00000000000E+00 0.  1.
         21   -1    0    0  501  503 -0.00000000000E+00 -0.00000000000E+00 -0.44944784907E+02  0.44944784907E+02  0.00000000000E+00 0.  1.
          6    1    1    2  501    0 -0.83067466851E+02 -0.18883782143E+02  0.22816101832E+03  0.29873609015E+03  0.17300000000E+03 0.  1.
         -6    1    1    2    0  502  0.83067466851E+02  0.18883782143E+02  0.95298235229E+03  0.97229685027E+03  0.17300000000E+03 0.  1.
<mgrwt>
<rscale>  2 0.19283620E+03</rscale>
<asrwt>0</asrwt>
<pdfrwt beam="1">  1       21 0.18862892E+00 0.19283620E+03</pdfrwt>
<pdfrwt beam="2">  1       21 0.69145832E-02 0.19283620E+03</pdfrwt>
<totfact> 0.24603502E+04</totfact>
</mgrwt>
</event>
<event>
 4    2  0.3903561E+000  0.1821342E+03  0.7546771E-02  0.1165753E+00
         21   -1    0    0  503  502  0.00000000000E+00  0.00000000000E+00  0.98327582239E+03  0.98327582239E+03  0.00000000000E+00 0.  1.
         21   -1    0    0  501  503 -0.00000000000E+00 -0.00000000000E+00 -0.25080132079E+03  0.25080132079E+03  0.00000000000E+00 0.  1.
          6    1    1    2  501    0 -0.71227032459E+01  0.56507862384E+02 -0.20780192012E+03  0.27632319739E+03  0.17300000000E+03 0.  1.
         -6    1    1    2    0  502  0.71227032459E+01 -0.56507862384E+02  0.94027642172E+03  0.95775394578E+03  0.17300000000E+03 0.  1.
<mgrwt>
<rscale>  2 0.18213421E+03</rscale>
<asrwt>0</asrwt>
<pdfrwt beam="1">  1       21 0.15127320E+00 0.18213421E+03</pdfrwt>
<pdfrwt beam="2">  1       21 0.38584819E-01 0.18213421E+03</pdfrwt>
<totfact> 0.19130892E+03</totfact>
</mgrwt>
</event>
<event>
 4    2  0.3903561E+000  0.1834512E+03  0.7546771E-02  0.1164504E+00
         21   -1    0    0  501  502  0.00000000000E+00  0.00000000000E+00  0.99632944848E+02  0.99632944848E+02  0.00000000000E+00 0. -1.
         21   -1    0    0  502  503 -0.00000000000E+00 -0.00000000000E+00 -0.44125297312E+03  0.44125297312E+03  0.00000000000E+00 0. -1.
          6    1    1    2  501    0 -0.38494192462E+02 -0.47366086772E+02 -0.39850122142E+02  0.18772954286E+03  0.17300000000E+03 0. -1.
         -6    1    1    2    0  503  0.38494192462E+02  0.47366086772E+02 -0.30176990613E+03  0.35315637510E+03  0.17300000000E+03 0. -1.
<mgrwt>
<rscale>  2 0.18345122E+03</rscale>
<asrwt>0</asrwt>
<pdfrwt beam="1">  1       21 0.15328145E-01 0.18345122E+03</pdfrwt>
<pdfrwt beam="2">  1       21 0.67885073E-01 0.18345122E+03</pdfrwt>
<totfact> 0.75042951E+04</totfact>
</mgrwt>
</event>
<event>
 4    2  0.3903561E+000  0.1982371E+03  0.7546771E-02  0.1151235E+00
         21   -1    0    0  501  502  0.00000000000E+00  0.00000000000E+00  0.21314284388E+03  0.21314284388E+03  0.00000000000E+00 0. -1.
         21   -1    0    0  502  503 -0.00000000000E+00 -0.00000000000E+00 -0.18443672355E+03  0.18443672355E+03  0.00000000000E+00 0. -1.
          6    1    1    2  501    0 -0.48551703995E+02 -0.83735778300E+02  0.10680245387E+02  0.19852459840E+03  0.17300000000E+03 0. -1.
         -6    1    1    2    0  503  0.48551703995E+02  0.83735778300E+02  0.18025874942E+02  0.19905496903E+03  0.17300000000E+03 0. -1.
<mgrwt>
<rscale>  2 0.19823710E+03</rscale>
<asrwt>0</asrwt>
<pdfrwt beam="1">  1       21 0.32791207E-01 0.19823710E+03</pdfrwt>
<pdfrwt beam="2">  1       21 0.28374880E-01 0.19823710E+03</pdfrwt>
<totfact> 0.10606058E+05</totfact>
</mgrwt>
</event>
<event>
 4    2  0.3903561E+000  0.1805082E+03  0.7546771E-02  0.1167312E+00
         21   -1    0    0  503  502  0.00000000000E+00  0.00000000000E+00  0.54026162972E+03  0.54026162972E+03  0.00000000000E+00 0.  1.
         21   -1    0    0  501  503 -0.00000000000E+00 -0.00000000000E+00 -0.12370955854E+03  0.12370955854E+03  0.00000000000E+00 0.  1.
          6    1    1    2  501    0  0.70224095976E+01 -0.51038007098E+02 -0.29386453587E+02  0.18288454298E+03  0.17300000000E+03 0.  1.
         -6    1    1    2    0  502 -0.70224095976E+01  0.51038007098E+02  0.44593852477E+03  0.48108664529E+03  0.17300000000E+03 0.  1.
<mgrwt>
<rscale>  2 0.18050815E+03</rscale>
<asrwt>0</asrwt>
<pdfrwt beam="1">  1       21 0.83117173E-01 0.18050815E+03</pdfrwt>
<pdfrwt beam="2">  1       21 0.19032240E-01 0.18050815E+03</pdfrwt>
<totfact> 0.32140822E+04</totfact>
</mgrwt>
</event>
<event>
 4    2  0.3903561E+000  0.3373304E+03  0.7546771E-02  0.1067939E+00
         21   -1    0    0  503  502  0.00000000000E+00  0.00000000000E+00  0.73216998542E+03  0.73216998542E+03  0.00000000000E+00 0. -1.
         21   -1    0    0  501  503 -0.00000000000E+00 -0.00000000000E+00 -0.23998709507E+03  0.23998709507E+03  0.00000000000E+00 0.  1.
          6    1    1    2  501    0  0.26014572971E+03 -0.12722812818E+03 -0.42458130961E+02  0.33999189721E+03  0.17300000000E+03 0.  1.
         -6    1    1    2    0  502 -0.26014572971E+03  0.12722812818E+03  0.53464102131E+03  0.63216518328E+03  0.17300000000E+03 0. -1.
<mgrwt>
<rscale>  2 0.33733040E+03</rscale>
<asrwt>0</asrwt>
<pdfrwt beam="1">  1       21 0.11264154E+00 0.33733040E+03</pdfrwt>
<pdfrwt beam="2">  1       21 0.36921092E-01 0.33733040E+03</pdfrwt>
<totfact> 0.39830381E+03</totfact>
</mgrwt>
</event>
<event>
 4    2  0.3903561E+000  0.1979656E+03  0.7546771E-02  0.1151467E+00
         21   -1    0    0  503  502  0.00000000000E+00  0.00000000000E+00  0.11214557321E+04  0.11214557321E+04  0.00000000000E+00 0. -1.
         21   -1    0    0  501  503 -0.00000000000E+00 -0.00000000000E+00 -0.35291416732E+02  0.35291416732E+02  0.00000000000E+00 0. -1.
          6    1    1    2  501    0  0.40774517482E+01 -0.96149620470E+02  0.48586121012E+03  0.52464415619E+03  0.17300000000E+03 0. -1.
         -6    1    1    2    0  502 -0.40774517482E+01  0.96149620470E+02  0.60030310520E+03  0.63210299259E+03  0.17300000000E+03 0. -1.
<mgrwt>
<rscale>  2 0.19796559E+03</rscale>
<asrwt>0</asrwt>
<pdfrwt beam="1">  1       21 0.17253162E+00 0.19796559E+03</pdfrwt>
<pdfrwt beam="2">  1       21 0.54294496E-02 0.19796559E+03</pdfrwt>
<totfact> 0.47749860E+04</totfact>
</mgrwt>
</event>
<event>
 4    2  0.3903561E+000  0.1763780E+03  0.7546771E-02  0.1171355E+00
         21   -1    0    0  501  502  0.00000000000E+00  0.00000000000E+00  0.11288945513E+04  0.11288945513E+04  0.00000000000E+00 0. -1.
         21   -1    0    0  502  503 -0.00000000000E+00 -0.00000000000E+00 -0.44018329564E+02  0.44018329564E+02  0.00000000000E+00 0. -1.
          6    1    1    2  501    0 -0.69957334788E+01  0.33634041316E+02  0.90106975714E+03  0.91816986242E+03  0.17300000000E+03 0. -1.
         -6    1    1    2    0  503  0.69957334788E+01 -0.33634041316E+02  0.18380646461E+03  0.25474301846E+03  0.17300000000E+03 0. -1.
<mgrwt>
<rscale>  2 0.17637797E+03</rscale>
<asrwt>0</asrwt>
<pdfrwt beam="1">  1       21 0.17367606E+00 0.17637797E+03</pdfrwt>
<pdfrwt beam="2">  1       21 0.67720516E-02 0.17637797E+03</pdfrwt>
<totfact> 0.32562713E+04</totfact>
</mgrwt>
</event>
<event>
 4    2  0.3903561E+000  0.1878301E+03  0.7546771E-02  0.1160433E+00
         21   -1    0    0  501  502  0.00000000000E+00  0.00000000000E+00  0.75506131939E+02  0.75506131939E+02  0.00000000000E+00 0. -1.
         21   -1    0    0  502  503 -0.00000000000E+00 -0.00000000000E+00 -0.64195461049E+03  0.64195461049E+03  0.00000000000E+00 0.  1.
          6    1    1    2  501    0 -0.68857242213E+02 -0.24694645707E+02 -0.47036557707E+03  0.50648190632E+03  0.17300000000E+03 0.  1.
         -6    1    1    2    0  503  0.68857242213E+02  0.24694645707E+02 -0.96082901482E+02  0.21097883612E+03  0.17300000000E+03 0. -1.
<mgrwt>
<rscale>  2 0.18783010E+03</rscale>
<asrwt>0</asrwt>
<pdfrwt beam="1">  1       21 0.11616328E-01 0.18783010E+03</pdfrwt>
<pdfrwt beam="2">  1       21 0.98762247E-01 0.18783010E+03</pdfrwt>
<totfact> 0.52706685E+04</totfact>
</mgrwt>
</event>
<event>
 4    2  0.3903561E+000  0.1984354E+03  0.7546771E-02  0.1151066E+00
         21   -1    0    0  503  502  0.00000000000E+00  0.00000000000E+00  0.14592397329E+04  0.14592397329E+04  0.00000000000E+00 0.  1.
         21   -1    0    0  501  503 -0.00000000000E+00 -0.00000000000E+00 -0.30247010010E+02  0.30247010010E+02  0.00000000000E+00 0.  1.
          6    1    1    2  501    0 -0.85708968306E+02 -0.45842863539E+02  0.46989821057E+03  0.51007933078E+03  0.17300000000E+03 0.  1.
         -6    1    1    2    0  502  0.85708968306E+02  0.45842863539E+02  0.95909451234E+03  0.97940741216E+03  0.17300000000E+03 0.  1.
<mgrwt>
<rscale>  2 0.19843537E+03</rscale>
<asrwt>0</asrwt>
<pdfrwt beam="1">  1       21 0.22449837E+00 0.19843537E+03</pdfrwt>
<pdfrwt beam="2">  1       21 0.46533873E-02 0.19843537E+03</pdfrwt>
<totfact> 0.28556362E+04</totfact>
</mgrwt>
</event>
<event>
 4    2  0.3903561E+000  0.1932330E+03  0.7546771E-02  0.1155577E+00
         21   -1    0    0  501  502  0.00000000000E+00  0.00000000000E+00  0.12812526711E+03  0.12812526711E+03  0.00000000000E+00 0.  1.
         21   -1    0    0  502  503 -0.00000000000E+00 -0.00000000000E+00 -0.12242628791E+04  0.12242628791E+04  0.00000000000E+00 0.  1.
          6    1    1    2  501    0  0.86035687040E+02 -0.27996415831E+01  0.42182525828E+02  0.19778357597E+03  0.17300000000E+03 0.  1.
         -6    1    1    2    0  503 -0.86035687040E+02  0.27996415831E+01 -0.11383201378E+04  0.11546045702E+04  0.17300000000E+03 0.  1.
<mgrwt>
<rscale>  2 0.19323296E+03</rscale>
<asrwt>0</asrwt>
<pdfrwt beam="1">  1       21 0.19711580E-01 0.19323296E+03</pdfrwt>
<pdfrwt beam="2">  1       21 0.18834813E+00 0.19323296E+03</pdfrwt>
<totfact> 0.37913995E+03</totfact>
</mgrwt>
</event>
<event>
 4    2  0.3903561E+000  0.2186119E+03  0.7546771E-02  0.1134922E+00
         21   -1    0    0  503  502  0.00000000000E+00  0.00000000000E+00  0.39549399967E+03  0.39549399967E+03  0.00000000000E+00 0.  1.
         21   -1    0    0  501  503 -0.00000000000E+00 -0.00000000000E+00 -0.15180406781E+03  0.15180406781E+03  0.00000000000E+00 0. -1.
          6    1    1    2  501    0  0.13358709730E+03  0.40818463965E+01 -0.17460519712E+01  0.21861889839E+03  0.17300000000E+03 0. -1.
         -6    1    1    2    0  502 -0.13358709730E+03 -0.40818463965E+01  0.24543598383E+03  0.32867916909E+03  0.17300000000E+03 0.  1.
<mgrwt>
<rscale>  2 0.21861193E+03</rscale>
<asrwt>0</asrwt>
<pdfrwt beam="1">  1       21 0.60845230E-01 0.21861193E+03</pdfrwt>
<pdfrwt beam="2">  1       21 0.23354472E-01 0.21861193E+03</pdfrwt>
<totfact> 0.42797512E+04</totfact>
</mgrwt>
</event>
<event>
 4    2  0.3903561E+000  0.2509945E+03  0.7546771E-02  0.1112678E+00
         21   -1    0    0  503  502  0.00000000000E+00  0.00000000000E+00  0.65208045053E+03  0.65208045053E+03  0.00000000000E+00 0.  1.
         21   -1    0    0  501  503 -0.00000000000E+00 -0.00000000000E+00 -0.98257441612E+02  0.98257441612E+02  0.00000000000E+00 0. -1.
          6    1    1    2  501    0  0.63730916491E+02  0.17031621583E+03  0.32547359380E+03  0.41101253430E+03  0.17300000000E+03 0.  1.
         -6    1    1    2    0  502 -0.63730916491E+02 -0.17031621583E+03  0.22834941511E+03  0.33932535784E+03  0.17300000000E+03 0. -1.
<mgrwt>
<rscale>  2 0.25099451E+03</rscale>
<asrwt>0</asrwt>
<pdfrwt beam="1">  1       21 0.10032007E+00 0.25099451E+03</pdfrwt>
<pdfrwt beam="2">  1       21 0.15116530E-01 0.25099451E+03</pdfrwt>
<totfact> 0.30575679E+04</totfact>
</mgrwt>
</event>
<event>
 4    2  0.3903561E+000  0.1849604E+03  0.7546771E-02  0.1163087E+00
         21   -1    0    0  501  502  0.00000000000E+00  0.00000000000E+00  0.56762349340E+03  0.56762349340E+03  0.00000000000E+00 0. -1.
         21   -1    0    0  502  503 -0.00000000000E+00 -0.00000000000E+00 -0.60961030577E+02  0.60961030577E+02  0.00000000000E+00 0. -1.
          6    1    1    2  501    0  0.43901547942E+02 -0.48517967200E+02  0.21985487596E+03  0.28730907667E+03  0.17300000000E+03 0. -1.
         -6    1    1    2    0  503 -0.43901547942E+02  0.48517967200E+02  0.28680758687E+03  0.34127544731E+03  0.17300000000E+03 0. -1.
<mgrwt>
<rscale>  2 0.18496037E+03</rscale>
<asrwt>0</asrwt>
<pdfrwt beam="1">  1       21 0.87326688E-01 0.18496037E+03</pdfrwt>
<pdfrwt beam="2">  1       21 0.93786205E-02 0.18496037E+03</pdfrwt>
<totfact> 0.10264574E+05</totfact>
</mgrwt>
</event>
<event>
 4    2  0.3903561E+000  0.2207389E+03  0.7546771E-02  0.1133333E+00
         21   -1    0    0  501  502  0.00000000000E+00  0.00000000000E+00  0.96029874765E+03  0.96029874765E+03  0.00000000000E+00 0.  1.
         21   -1    0    0  502  503 -0.00000000000E+00 -0.00000000000E+00 -0.55662386183E+02  0.55662386183E+02  0.00000000000E+00 0. -1.
          6    1    1    2  501    0 -0.18194419888E+02 -0.13588828316E+03  0.60337810205E+03  0.64248797378E+03  0.17300000000E+03 0. -1.
         -6    1    1    2    0  503  0.18194419888E+02  0.13588828316E+03  0.30125825942E+03  0.37347316006E+03  0.17300000000E+03 0. -1.
<mgrwt>
<rscale>  2 0.22073890E+03</rscale>
<asrwt>0</asrwt>
<pdfrwt beam="1">  1       21 0.14773826E+00 0.22073890E+03</pdfrwt>
<pdfrwt beam="2">  1       21 0.85634448E-02 0.22073890E+03</pdfrwt>
<totfact> 0.32600954E+04</totfact>
</mgrwt>
</event>
<event>
 4    2  0.3903561E+000  0.1772168E+03  0.7546771E-02  0.1170524E+00
         21   -1    0    0  503  502  0.00000000000E+00  0.00000000000E+00  0.60959736609E+03  0.60959736609E+03  0.00000000000E+00 0. -1.
         21   -1    0    0  501  503 -0.00000000000E+00 -0.00000000000E+00 -0.51607245011E+02  0.51607245011E+02  0.00000000000E+00 0. -1.
          6    1    1    2  501    0 -0.28675120497E+02  0.25583679493E+02  0.29267347364E+03  0.34214550905E+03  0.17300000000E+03 0. -1.
         -6    1    1    2    0  502  0.28675120497E+02 -0.25583679493E+02  0.26531664744E+03  0.31905910205E+03  0.17300000000E+03 0. -1.
<mgrwt>
<rscale>  2 0.17721678E+03</rscale>
<asrwt>0</asrwt>
<pdfrwt beam="1">  1       21 0.93784205E-01 0.17721678E+03</pdfrwt>
<pdfrwt beam="2">  1       21 0.79395766E-02 0.17721678E+03</pdfrwt>
<totfact> 0.11678057E+05</totfact>
</mgrwt>
</event>
<event>
 4    2  0.3903561E+000  0.2267106E+03  0.7546771E-02  0.1128977E+00
         21   -1    0    0  501  502  0.00000000000E+00  0.00000000000E+00  0.19395909784E+04  0.19395909784E+04  0.00000000000E+00 0.  1.
         21   -1    0    0  502  503 -0.00000000000E+00 -0.00000000000E+00 -0.85688816234E+02  0.85688816234E+02  0.00000000000E+00 0. -1.
          6    1    1    2  501    0 -0.31166992911E+02  0.14316879796E+03  0.17685701740E+04  0.17830418241E+04  0.17300000000E+03 0.  1.
         -6    1    1    2    0  503  0.31166992911E+02 -0.14316879796E+03  0.85331988153E+02  0.24223797051E+03  0.17300000000E+03 0. -1.
<mgrwt>
<rscale>  2 0.22671058E+03</rscale>
<asrwt>0</asrwt>
<pdfrwt beam="1">  1       21 0.29839858E+00 0.22671058E+03</pdfrwt>
<pdfrwt beam="2">  1       21 0.13182896E-01 0.22671058E+03</pdfrwt>
<totfact> 0.16591364E+03</totfact>
</mgrwt>
</event>
<event>
 4    2  0.3903561E+000  0.2533238E+03  0.7546771E-02  0.1111222E+00
         21   -1    0    0  503  502  0.00000000000E+00  0.00000000000E+00  0.57003333694E+03  0.57003333694E+03  0.00000000000E+00 0.  1.
         21   -1    0    0  501  503 -0.00000000000E+00 -0.00000000000E+00 -0.11281749535E+03  0.11281749535E+03  0.00000000000E+00 0.  1.
          6    1    1    2  501    0  0.16003769675E+03 -0.92907871821E+02  0.21286103474E+03  0.33088178726E+03  0.17300000000E+03 0.  1.
         -6    1    1    2    0  502 -0.16003769675E+03  0.92907871821E+02  0.24435480685E+03  0.35196904503E+03  0.17300000000E+03 0.  1.
<mgrwt>
<rscale>  2 0.25332378E+03</rscale>
<asrwt>0</asrwt>
<pdfrwt beam="1">  1       21 0.87697434E-01 0.25332378E+03</pdfrwt>
<pdfrwt beam="2">  1       21 0.17356538E-01 0.25332378E+03</pdfrwt>
<totfact> 0.32487685E+04</totfact>
</mgrwt>
</event>
<event>
 4    2  0.3903561E+000  0.1784066E+03  0.7546771E-02  0.1169354E+00
         21   -1    0    0  503  502  0.00000000000E+00  0.00000000000E+00  0.11170636614E+04  0.11170636614E+04  0.00000000000E+00 0.  1.
         21   -1    0    0  501  503 -0.00000000000E+00 -0.00000000000E+00 -0.38010297446E+02  0.38010297446E+02  0.00000000000E+00 0.  1.
          6    1    1    2  501    0  0.13087381558E+02  0.41576763987E+02  0.25054017211E+03  0.30756996717E+03  0.17300000000E+03 0.  1.
         -6    1    1    2    0  502 -0.13087381558E+02 -0.41576763987E+02  0.82851319182E+03  0.84750399166E+03  0.17300000000E+03 0.  1.
<mgrwt>
<rscale>  2 0.17840658E+03</rscale>
<asrwt>0</asrwt>
<pdfrwt beam="1">  1       21 0.17185592E+00 0.17840658E+03</pdfrwt>
<pdfrwt beam="2">  1       21 0.58477389E-02 0.17840658E+03</pdfrwt>
<totfact> 0.43047972E+04</totfact>
</mgrwt>
</event>
<event>
 4    2  0.3903561E+000  0.2063469E+03  0.7546771E-02  0.1144492E+00
         21   -1    0    0  503  502  0.00000000000E+00  0.00000000000E+00  0.61674485948E+03  0.61674485948E+03  0.00000000000E+00 0. -1.
         21   -1    0    0  501  503 -0.00000000000E+00 -0.00000000000E+00 -0.16089477422E+03  0.16089477422E+03  0.00000000000E+00 0.  1.
          6    1    1    2  501    0  0.10918047638E+03 -0.27012635316E+02 -0.65861667447E+02  0.21660290424E+03  0.17300000000E+03 0.  1.
         -6    1    1    2    0  502 -0.10918047638E+03  0.27012635316E+02  0.52171175271E+03  0.56103672946E+03  0.17300000000E+03 0. -1.
<mgrwt>
<rscale>  2 0.20634694E+03</rscale>
<asrwt>0</asrwt>
<pdfrwt beam="1">  1       21 0.94883823E-01 0.20634694E+03</pdfrwt>
<pdfrwt beam="2">  1       21 0.24753043E-01 0.20634694E+03</pdfrwt>
<totfact> 0.14212303E+04</totfact>
</mgrwt>
</event>
<event>
 4    2  0.3903561E+000  0.1939213E+03  0.7546771E-02  0.1154971E+00
         21   -1    0    0  501  502  0.00000000000E+00  0.00000000000E+00  0.65373486616E+03  0.65373486616E+03  0.00000000000E+00 0.  1.
         21   -1    0    0  502  503 -0.00000000000E+00 -0.00000000000E+00 -0.19839207975E+03  0.19839207975E+03  0.00000000000E+00 0.  1.
          6    1    1    2  501    0  0.81084627118E+02 -0.33192919678E+02  0.58669113951E+03  0.61790936217E+03  0.17300000000E+03 0.  1.
         -6    1    1    2    0  503 -0.81084627118E+02  0.33192919678E+02 -0.13134835310E+03  0.23421758374E+03  0.17300000000E+03 0.  1.
<mgrwt>
<rscale>  2 0.19392134E+03</rscale>
<asrwt>0</asrwt>
<pdfrwt beam="1">  1       21 0.10057459E+00 0.19392134E+03</pdfrwt>
<pdfrwt beam="2">  1       21 0.30521859E-01 0.19392134E+03</pdfrwt>
<totfact> 0.83371640E+03</totfact>
</mgrwt>
</event>
<event>
 4    2  0.3903561E+000  0.3084523E+03  0.7546771E-02  0.1081090E+00
         21   -1    0    0  501  502  0.00000000000E+00  0.00000000000E+00  0.11129110814E+04  0.11129110814E+04  0.00000000000E+00 0.  1.
         21   -1    0    0  502  503 -0.00000000000E+00 -0.00000000000E+00 -0.87216552488E+02  0.87216552488E+02  0.00000000000E+00 0.  1.
          6    1    1    2  501    0  0.73300581937E+02 -0.24462392385E+03  0.42842055899E+03  0.52790814996E+03  0.17300000000E+03 0.  1.
         -6    1    1    2    0  503 -0.73300581937E+02  0.24462392385E+03  0.59727396995E+03  0.67221948396E+03  0.17300000000E+03 0.  1.
<mgrwt>
<rscale>  2 0.30845233E+03</rscale>
<asrwt>0</asrwt>
<pdfrwt beam="1">  1       21 0.17121708E+00 0.30845233E+03</pdfrwt>
<pdfrwt beam="2">  1       21 0.13417932E-01 0.30845233E+03</pdfrwt>
<totfact> 0.93295918E+03</totfact>
</mgrwt>
</event>
<event>
 4    2  0.3903561E+000  0.2210678E+03  0.7546771E-02  0.1133089E+00
         21   -1    0    0  503  502  0.00000000000E+00  0.00000000000E+00  0.32710644813E+03  0.32710644813E+03  0.00000000000E+00 0.  1.
         21   -1    0    0  501  503 -0.00000000000E+00 -0.00000000000E+00 -0.41298939332E+03  0.41298939332E+03  0.00000000000E+00 0. -1.
          6    1    1    2  501    0 -0.68371901179E+02 -0.11944556831E+03 -0.33857202715E+03  0.40435377855E+03  0.17300000000E+03 0. -1.
         -6    1    1    2    0  502  0.68371901179E+02  0.11944556831E+03  0.25268908196E+03  0.33574206290E+03  0.17300000000E+03 0.  1.
<mgrwt>
<rscale>  2 0.22106777E+03</rscale>
<asrwt>0</asrwt>
<pdfrwt beam="1">  1       21 0.50324069E-01 0.22106777E+03</pdfrwt>
<pdfrwt beam="2">  1       21 0.63536829E-01 0.22106777E+03</pdfrwt>
<totfact> 0.84428696E+03</totfact>
</mgrwt>
</event>
<event>
 4    2  0.3903561E+000  0.1777991E+03  0.7546771E-02  0.1169950E+00
         21   -1    0    0  501  502  0.00000000000E+00  0.00000000000E+00  0.24093004608E+03  0.24093004608E+03  0.00000000000E+00 0. -1.
         21   -1    0    0  502  503 -0.00000000000E+00 -0.00000000000E+00 -0.14676859968E+03  0.14676859968E+03  0.00000000000E+00 0. -1.
          6    1    1    2  501    0  0.38565931977E+02 -0.14007304776E+02  0.11019489989E+03  0.20917803818E+03  0.17300000000E+03 0. -1.
         -6    1    1    2    0  503 -0.38565931977E+02  0.14007304776E+02 -0.16033453488E+02  0.17852060757E+03  0.17300000000E+03 0. -1.
<mgrwt>
<rscale>  2 0.17779914E+03</rscale>
<asrwt>0</asrwt>
<pdfrwt beam="1">  1       21 0.37066161E-01 0.17779914E+03</pdfrwt>
<pdfrwt beam="2">  1       21 0.22579785E-01 0.17779914E+03</pdfrwt>
<totfact> 0.12966924E+05</totfact>
</mgrwt>
</event>
<event>
 4    2  0.3903561E+000  0.2174657E+03  0.7546771E-02  0.1135787E+00
         21   -1    0    0  501  502  0.00000000000E+00  0.00000000000E+00  0.17178525172E+04  0.17178525172E+04  0.00000000000E+00 0. -1.
         21   -1    0    0  502  503 -0.00000000000E+00 -0.00000000000E+00 -0.69759148962E+02  0.69759148962E+02  0.00000000000E+00 0. -1.
          6    1    1    2  501    0  0.11024138731E+03  0.72174633565E+02  0.15194746806E+04  0.15349575389E+04  0.17300000000E+03 0. -1.
         -6    1    1    2    0  503 -0.11024138731E+03 -0.72174633565E+02  0.12861868758E+03  0.25265412722E+03  0.17300000000E+03 0. -1.
<mgrwt>
<rscale>  2 0.21746572E+03</rscale>
<asrwt>0</asrwt>
<pdfrwt beam="1">  1       21 0.26428497E+00 0.21746572E+03</pdfrwt>
<pdfrwt beam="2">  1       21 0.10732178E-01 0.21746572E+03</pdfrwt>
<totfact> 0.38272694E+03</totfact>
</mgrwt>
</event>
<event>
 4    2  0.3903561E+000  0.1817545E+03  0.7546771E-02  0.1166116E+00
         21   -1    0    0  503  502  0.00000000000E+00  0.00000000000E+00  0.97199906759E+03  0.97199906759E+03  0.00000000000E+00 0.  1.
         21   -1    0    0  501  503 -0.00000000000E+00 -0.00000000000E+00 -0.86017760785E+02  0.86017760785E+02  0.00000000000E+00 0.  1.
          6    1    1    2  501    0  0.26571477553E+02  0.48986346452E+02  0.31555597547E+02  0.18447347044E+03  0.17300000000E+03 0.  1.
         -6    1    1    2    0  502 -0.26571477553E+02 -0.48986346452E+02  0.85442570926E+03  0.87354335794E+03  0.17300000000E+03 0.  1.
<mgrwt>
<rscale>  2 0.18175452E+03</rscale>
<asrwt>0</asrwt>
<pdfrwt beam="1">  1       21 0.14953831E+00 0.18175452E+03</pdfrwt>
<pdfrwt beam="2">  1       21 0.13233502E-01 0.18175452E+03</pdfrwt>
<totfact> 0.14949259E+04</totfact>
</mgrwt>
</event>
<event>
 4    2  0.3903561E+000  0.1900705E+03  0.7546771E-02  0.1158398E+00
         21   -1    0    0  501  502  0.00000000000E+00  0.00000000000E+00  0.76679109800E+02  0.76679109800E+02  0.00000000000E+00 0.  1.
         21   -1    0    0  502  503 -0.00000000000E+00 -0.00000000000E+00 -0.48249395135E+03  0.48249395135E+03  0.00000000000E+00 0.  1.
          6    1    1    2  501    0  0.64411836140E+02 -0.45265067299E+02 -0.16002392799E+03  0.24846421972E+03  0.17300000000E+03 0.  1.
         -6    1    1    2    0  503 -0.64411836140E+02  0.45265067299E+02 -0.24579091356E+03  0.31070884143E+03  0.17300000000E+03 0.  1.
<mgrwt>
<rscale>  2 0.19007054E+03</rscale>
<asrwt>0</asrwt>
<pdfrwt beam="1">  1       21 0.11796786E-01 0.19007054E+03</pdfrwt>
<pdfrwt beam="2">  1       21 0.74229837E-01 0.19007054E+03</pdfrwt>
<totfact> 0.98535243E+04</totfact>
</mgrwt>
</event>
<event>
 4    2  0.3903561E+000  0.2732309E+03  0.7546771E-02  0.1099445E+00
         21   -1    0    0  503  502  0.00000000000E+00  0.00000000000E+00  0.23242227190E+03  0.23242227190E+03  0.00000000000E+00 0.  1.
         21   -1    0    0  501  503 -0.00000000000E+00 -0.00000000000E+00 -0.41076411127E+03  0.41076411127E+03  0.00000000000E+00 0. -1.
          6    1    1    2  501    0  0.55109565817E+00 -0.21148480485E+03  0.60993212961E+02  0.27995588656E+03  0.17300000000E+03 0.  1.
         -6    1    1    2    0  502 -0.55109565817E+00  0.21148480485E+03 -0.23933505234E+03  0.36323049661E+03  0.17300000000E+03 0. -1.
<mgrwt>
<rscale>  2 0.27323090E+03</rscale>
<asrwt>0</asrwt>
<pdfrwt beam="1">  1       21 0.35757273E-01 0.27323090E+03</pdfrwt>
<pdfrwt beam="2">  1       21 0.63194478E-01 0.27323090E+03</pdfrwt>
<totfact> 0.16729961E+04</totfact>
</mgrwt>
</event>
<event>
 4    2  0.3903561E+000  0.2225395E+03  0.7546771E-02  0.1132004E+00
         21   -1    0    0  503  502  0.00000000000E+00  0.00000000000E+00  0.17265373606E+03  0.17265373606E+03  0.00000000000E+00 0. -1.
         21   -1    0    0  501  503 -0.00000000000E+00 -0.00000000000E+00 -0.46197763947E+03  0.46197763947E+03  0.00000000000E+00 0. -1.
          6    1    1    2  501    0 -0.11460082214E+03 -0.80383371277E+02 -0.34003829695E+03  0.40638636567E+03  0.17300000000E+03 0. -1.
         -6    1    1    2    0  502  0.11460082214E+03  0.80383371277E+02  0.50714393533E+02  0.22824500986E+03  0.17300000000E+03 0. -1.
<mgrwt>
<rscale>  2 0.22253951E+03</rscale>
<asrwt>0</asrwt>
<pdfrwt beam="1">  1       21 0.26562114E-01 0.22253951E+03</pdfrwt>
<pdfrwt beam="2">  1       21 0.71073481E-01 0.22253951E+03</pdfrwt>
<totfact> 0.23760223E+04</totfact>
</mgrwt>
</event>
<event>
 4    2  0.3903561E+000  0.1830491E+03  0.7546771E-02  0.1164884E+00
         21   -1    0    0  503  502  0.00000000000E+00  0.00000000000E+00  0.58629349774E+03  0.58629349774E+03  0.00000000000E+00 0. -1.
         21   -1    0    0  501  503 -0.00000000000E+00 -0.00000000000E+00 -0.73273523170E+02  0.73273523170E+02  0.00000000000E+00 0. -1.
          6    1    1    2  501    0  0.24803276145E+02 -0.54431372113E+02  0.10181422973E+03  0.20945909900E+03  0.17300000000E+03 0.  1.
         -6    1    1    2    0  502 -0.24803276145E+02  0.54431372113E+02  0.41120574484E+03  0.45010792191E+03  0.17300000000E+03 0.  1.
<mgrwt>
<rscale>  2 0.18304911E+03</rscale>
<asrwt>0</asrwt>
<pdfrwt beam="1">  1       21 0.90198996E-01 0.18304911E+03</pdfrwt>
<pdfrwt beam="2">  1       21 0.11272850E-01 0.18304911E+03</pdfrwt>
<totfact> 0.68872038E+04</totfact>
</mgrwt>
</event>
<event>
 4    2  0.3903561E+000  0.1968894E+03  0.7546771E-02  0.1152390E+00
         21   -1    0    0  503  502  0.00000000000E+00  0.00000000000E+00  0.21475216394E+03  0.21475216394E+03  0.00000000000E+00 0. -1.
         21   -1    0    0  501  503 -0.00000000000E+00 -0.00000000000E+00 -0.19815538103E+03  0.19815538103E+03  0.00000000000E+00 0.  1.
          6    1    1    2  501    0  0.92097979741E+02 -0.18825191777E+02  0.69901982904E+02  0.20892992350E+03  0.17300000000E+03 0. -1.
         -6    1    1    2    0  502 -0.92097979741E+02  0.18825191777E+02 -0.53305199993E+02  0.20397762148E+03  0.17300000000E+03 0. -1.
<mgrwt>
<rscale>  2 0.19688937E+03</rscale>
<asrwt>0</asrwt>
<pdfrwt beam="1">  1       21 0.33038795E-01 0.19688937E+03</pdfrwt>
<pdfrwt beam="2">  1       21 0.30485443E-01 0.19688937E+03</pdfrwt>
<totfact> 0.90934428E+04</totfact>
</mgrwt>
</event>
<event>
 4    2  0.3903561E+000  0.1903726E+03  0.7546771E-02  0.1158126E+00
         21   -1    0    0  503  502  0.00000000000E+00  0.00000000000E+00  0.29502893147E+03  0.29502893147E+03  0.00000000000E+00 0.  1.
         21   -1    0    0  501  503 -0.00000000000E+00 -0.00000000000E+00 -0.17630627440E+03  0.17630627440E+03  0.00000000000E+00 0. -1.
          6    1    1    2  501    0  0.38212801407E+00 -0.79451766102E+02 -0.70416587646E+02  0.20297838549E+03  0.17300000000E+03 0. -1.
         -6    1    1    2    0  502 -0.38212801407E+00  0.79451766102E+02  0.18913924472E+03  0.26835682039E+03  0.17300000000E+03 0.  1.
<mgrwt>
<rscale>  2 0.19037261E+03</rscale>
<asrwt>0</asrwt>
<pdfrwt beam="1">  1       21 0.45389066E-01 0.19037261E+03</pdfrwt>
<pdfrwt beam="2">  1       21 0.27124042E-01 0.19037261E+03</pdfrwt>
<totfact> 0.60373014E+04</totfact>
</mgrwt>
</event>
<event>
 4    2  0.3903561E+000  0.1933553E+03  0.7546771E-02  0.1155469E+00
         21   -1    0    0  503  502  0.00000000000E+00  0.00000000000E+00  0.54922212369E+02  0.54922212369E+02  0.00000000000E+00 0.  1.
         21   -1    0    0  501  503 -0.00000000000E+00 -0.00000000000E+00 -0.97929176237E+03  0.97929176237E+03  0.00000000000E+00 0.  1.
          6    1    1    2  501    0 -0.42752979903E+02 -0.75029607869E+02 -0.74771617399E+03  0.77231194228E+03  0.17300000000E+03 0.  1.
         -6    1    1    2    0  502  0.42752979903E+02  0.75029607869E+02 -0.17665337601E+03  0.26190203245E+03  0.17300000000E+03 0.  1.
<mgrwt>
<rscale>  2 0.19335527E+03</rscale>
<asrwt>0</asrwt>
<pdfrwt beam="1">  1       21 0.84495724E-02 0.19335527E+03</pdfrwt>
<pdfrwt beam="2">  1       21 0.15066025E+00 0.19335527E+03</pdfrwt>
<totfact> 0.32219807E+04</totfact>
</mgrwt>
</event>
<event>
 4    2  0.3903561E+000  0.2710979E+03  0.7546771E-02  0.1100653E+00
         21   -1    0    0  503  502  0.00000000000E+00  0.00000000000E+00  0.13412824296E+04  0.13412824296E+04  0.00000000000E+00 0.  1.
         21   -1    0    0  501  503 -0.00000000000E+00 -0.00000000000E+00 -0.20219722361E+03  0.20219722361E+03  0.00000000000E+00 0. -1.
          6    1    1    2  501    0 -0.12092003025E+03 -0.17012766471E+03 -0.89383903789E+02  0.28545325059E+03  0.17300000000E+03 0. -1.
         -6    1    1    2    0  502  0.12092003025E+03  0.17012766471E+03  0.12284691098E+04  0.12580264027E+04  0.17300000000E+03 0.  1.
<mgrwt>
<rscale>  2 0.27109791E+03</rscale>
<asrwt>0</asrwt>
<pdfrwt beam="1">  1       21 0.20635114E+00 0.27109791E+03</pdfrwt>
<pdfrwt beam="2">  1       21 0.31107266E-01 0.27109791E+03</pdfrwt>
<totfact> 0.11269849E+03</totfact>
</mgrwt>
</event>
<event>
 4    2  0.3903561E+000  0.1820302E+03  0.7546771E-02  0.1165853E+00
         21   -1    0    0  501  502  0.00000000000E+00  0.00000000000E+00  0.75725007579E+02  0.75725007579E+02  0.00000000000E+00 0. -1.
         21   -1    0    0  502  503 -0.00000000000E+00 -0.00000000000E+00 -0.69195387579E+03  0.69195387579E+03  0.00000000000E+00 0. -1.
          6    1    1    2  501    0  0.20594497361E+02  0.52743491733E+02 -0.75382694093E+02  0.19702172421E+03  0.17300000000E+03 0. -1.
         -6    1    1    2    0  503 -0.20594497361E+02 -0.52743491733E+02 -0.54084617412E+03  0.57065715916E+03  0.17300000000E+03 0. -1.
<mgrwt>
<rscale>  2 0.18203024E+03</rscale>
<asrwt>0</asrwt>
<pdfrwt beam="1">  1       21 0.11650002E-01 0.18203024E+03</pdfrwt>
<pdfrwt beam="2">  1       21 0.10645444E+00 0.18203024E+03</pdfrwt>
<totfact> 0.43974878E+04</totfact>
</mgrwt>
</event>
<event>
 4    2  0.3903561E+000  0.2241927E+03  0.7546771E-02  0.1130795E+00
         21   -1    0    0  503  502  0.00000000000E+00  0.00000000000E+00  0.15094315881E+03  0.15094315881E+03  0.00000000000E+00 0. -1.
         21   -1    0    0  501  503 -0.00000000000E+00 -0.00000000000E+00 -0.38439166175E+03  0.38439166175E+03  0.00000000000E+00 0.  1.
          6    1    1    2  501    0 -0.10628993872E+03 -0.95056940350E+02 -0.18842349340E+02  0.22498312628E+03  0.17300000000E+03 0.  1.
         -6    1    1    2    0  502  0.10628993872E+03  0.95056940350E+02 -0.21460615359E+03  0.31035169428E+03  0.17300000000E+03 0.  1.
<mgrwt>
<rscale>  2 0.22419271E+03</rscale>
<asrwt>0</asrwt>
<pdfrwt beam="1">  1       21 0.23222025E-01 0.22419271E+03</pdfrwt>
<pdfrwt beam="2">  1       21 0.59137178E-01 0.22419271E+03</pdfrwt>
<totfact> 0.45882058E+04</totfact>
</mgrwt>
</event>
<event>
 4    2  0.3903561E+000  0.1848298E+03  0.7546771E-02  0.1163209E+00
         21   -1    0    0  503  502  0.00000000000E+00  0.00000000000E+00  0.45249740415E+03  0.45249740415E+03  0.00000000000E+00 0. -1.
         21   -1    0    0  501  503 -0.00000000000E+00 -0.00000000000E+00 -0.11122949796E+03  0.11122949796E+03  0.00000000000E+00 0.  1.
          6    1    1    2  501    0  0.62305453135E+02  0.18736929245E+02  0.10875980529E+02  0.18514947734E+03  0.17300000000E+03 0.  1.
         -6    1    1    2    0  502 -0.62305453135E+02 -0.18736929245E+02  0.33039192566E+03  0.37857742478E+03  0.17300000000E+03 0. -1.
<mgrwt>
<rscale>  2 0.18482976E+03</rscale>
<asrwt>0</asrwt>
<pdfrwt beam="1">  1       21 0.69614984E-01 0.18482976E+03</pdfrwt>
<pdfrwt beam="2">  1       21 0.17112231E-01 0.18482976E+03</pdfrwt>
<totfact> 0.58014475E+04</totfact>
</mgrwt>
</event>
<event>
 4    2  0.3903561E+000  0.1973060E+03  0.7546771E-02  0.1152032E+00
         21   -1    0    0  501  502  0.00000000000E+00  0.00000000000E+00  0.13019695892E+03  0.13019695892E+03  0.00000000000E+00 0. -1.
         21   -1    0    0  502  503 -0.00000000000E+00 -0.00000000000E+00 -0.76349044917E+03  0.76349044917E+03  0.00000000000E+00 0. -1.
          6    1    1    2  501    0 -0.86471429756E+02 -0.39030207311E+02  0.31882681635E+02  0.19986538128E+03  0.17300000000E+03 0. -1.
         -6    1    1    2    0  503  0.86471429756E+02  0.39030207311E+02 -0.66517617188E+03  0.69382202681E+03  0.17300000000E+03 0. -1.
<mgrwt>
<rscale>  2 0.19730602E+03</rscale>
<asrwt>0</asrwt>
<pdfrwt beam="1">  1       21 0.20030301E-01 0.19730602E+03</pdfrwt>
<pdfrwt beam="2">  1       21 0.11746007E+00 0.19730602E+03</pdfrwt>
<totfact> 0.12773406E+04</totfact>
</mgrwt>
</event>
<event>
 4    2  0.3903561E+000  0.2138472E+03  0.7546771E-02  0.1138555E+00
         21   -1    0    0  503  502  0.00000000000E+00  0.00000000000E+00  0.21619161664E+04  0.21619161664E+04  0.00000000000E+00 0.  1.
         21   -1    0    0  501  503 -0.00000000000E+00 -0.00000000000E+00 -0.22676070246E+02  0.22676070246E+02  0.00000000000E+00 0.  1.
          6    1    1    2  501    0  0.66809334339E+02  0.10648065312E+03  0.13527218121E+04  0.13695206890E+04  0.17300000000E+03 0.  1.
         -6    1    1    2    0  502 -0.66809334339E+02 -0.10648065312E+03  0.78651828403E+03  0.81507154763E+03  0.17300000000E+03 0.  1.
<mgrwt>
<rscale>  2 0.21384718E+03</rscale>
<asrwt>0</asrwt>
<pdfrwt beam="1">  1       21 0.33260232E+00 0.21384718E+03</pdfrwt>
<pdfrwt beam="2">  1       21 0.34886279E-02 0.21384718E+03</pdfrwt>
<totfact> 0.10641564E+04</totfact>
</mgrwt>
</event>
<event>
 4    2  0.3903561E+000  0.1869657E+03  0.7546771E-02  0.1161227E+00
         21   -1    0    0  501  502  0.00000000000E+00  0.00000000000E+00  0.49392448281E+03  0.49392448281E+03  0.00000000000E+00 0. -1.
         21   -1    0    0  502  503 -0.00000000000E+00 -0.00000000000E+00 -0.14331283322E+03  0.14331283322E+03  0.00000000000E+00 0. -1.
          6    1    1    2  501    0  0.70193936851E+02  0.10000089208E+02  0.40198880857E+03  0.44334094417E+03  0.17300000000E+03 0. -1.
         -6    1    1    2    0  503 -0.70193936851E+02 -0.10000089208E+02 -0.51377158984E+02  0.19389637186E+03  0.17300000000E+03 0. -1.
<mgrwt>
<rscale>  2 0.18696575E+03</rscale>
<asrwt>0</asrwt>
<pdfrwt beam="1">  1       21 0.75988381E-01 0.18696575E+03</pdfrwt>
<pdfrwt beam="2">  1       21 0.22048128E-01 0.18696575E+03</pdfrwt>
<totfact> 0.29775136E+04</totfact>
</mgrwt>
</event>
<event>
 4    2  0.3903561E+000  0.2033425E+03  0.7546771E-02  0.1146949E+00
         21   -1    0    0  503  502  0.00000000000E+00  0.00000000000E+00  0.28991057817E+02  0.28991057817E+02  0.00000000000E+00 0.  1.
         21   -1    0    0  501  503 -0.00000000000E+00 -0.00000000000E+00 -0.17045972775E+04  0.17045972775E+04  0.00000000000E+00 0.  1.
          6    1    1    2  501    0 -0.77486064208E+02 -0.73587221573E+02 -0.48752953859E+03  0.52823595138E+03  0.17300000000E+03 0.  1.
         -6    1    1    2    0  502  0.77486064208E+02  0.73587221573E+02 -0.11880766811E+04  0.12053523840E+04  0.17300000000E+03 0.  1.
<mgrwt>
<rscale>  2 0.20334249E+03</rscale>
<asrwt>0</asrwt>
<pdfrwt beam="1">  1       21 0.44601623E-02 0.20334249E+03</pdfrwt>
<pdfrwt beam="2">  1       21 0.26224576E+00 0.20334249E+03</pdfrwt>
<totfact> 0.18222432E+04</totfact>
</mgrwt>
</event>
<event>
 4    2  0.3903561E+000  0.2166636E+03  0.7546771E-02  0.1136395E+00
         21   -1    0    0  501  502  0.00000000000E+00  0.00000000000E+00  0.53261670067E+03  0.53261670067E+03  0.00000000000E+00 0.  1.
         21   -1    0    0  502  503 -0.00000000000E+00 -0.00000000000E+00 -0.24847540895E+03  0.24847540895E+03  0.00000000000E+00 0.  1.
          6    1    1    2  501    0 -0.72392880098E+02  0.10850514520E+03  0.45579605568E+03  0.50467131877E+03  0.17300000000E+03 0.  1.
         -6    1    1    2    0  503  0.72392880098E+02 -0.10850514520E+03 -0.17165476395E+03  0.27642079084E+03  0.17300000000E+03 0.  1.
<mgrwt>
<rscale>  2 0.21666355E+03</rscale>
<asrwt>0</asrwt>
<pdfrwt beam="1">  1       21 0.81941030E-01 0.21666355E+03</pdfrwt>
<pdfrwt beam="2">  1       21 0.38226986E-01 0.21666355E+03</pdfrwt>
<totfact> 0.84538904E+03</totfact>
</mgrwt>
</event>
<event>
 4    2  0.3903561E+000  0.1987425E+03  0.7546771E-02  0.1150804E+00
         21   -1    0    0  501  502  0.00000000000E+00  0.00000000000E+00  0.21416386375E+03  0.21416386375E+03  0.00000000000E+00 0. -1.
         21   -1    0    0  502  503 -0.00000000000E+00 -0.00000000000E+00 -0.18805250063E+03  0.18805250063E+03  0.00000000000E+00 0. -1.
          6    1    1    2  501    0  0.93200603042E+02  0.29718954595E+02  0.40962016039E+02  0.20291982512E+03  0.17300000000E+03 0. -1.
         -6    1    1    2    0  503 -0.93200603042E+02 -0.29718954595E+02 -0.14850652915E+02  0.19929653926E+03  0.17300000000E+03 0. -1.
<mgrwt>
<rscale>  2 0.19874247E+03</rscale>
<asrwt>0</asrwt>
<pdfrwt beam="1">  1       21 0.32948287E-01 0.19874247E+03</pdfrwt>
<pdfrwt beam="2">  1       21 0.28931154E-01 0.19874247E+03</pdfrwt>
<totfact> 0.10116119E+05</totfact>
</mgrwt>
</event>
<event>
 4    2  0.3903561E+000  0.1935977E+03  0.7546771E-02  0.1155256E+00
         21   -1    0    0  503  502  0.00000000000E+00  0.00000000000E+00  0.22783576292E+02  0.22783576292E+02  0.00000000000E+00 0.  1.
         21   -1    0    0  501  503 -0.00000000000E+00 -0.00000000000E+00 -0.16862040818E+04  0.16862040818E+04  0.00000000000E+00 0.  1.
          6    1    1    2  501    0 -0.43362868198E+02  0.75304145150E+02 -0.96520876639E+03  0.98443283942E+03  0.17300000000E+03 0.  1.
         -6    1    1    2    0  502  0.43362868198E+02 -0.75304145150E+02 -0.69821173911E+03  0.72455481866E+03  0.17300000000E+03 0.  1.
<mgrwt>
<rscale>  2 0.19359766E+03</rscale>
<asrwt>0</asrwt>
<pdfrwt beam="1">  1       21 0.35051665E-02 0.19359766E+03</pdfrwt>
<pdfrwt beam="2">  1       21 0.25941595E+00 0.19359766E+03</pdfrwt>
<totfact> 0.28593728E+04</totfact>
</mgrwt>
</event>
<event>
 4    2  0.3903561E+000  0.2040716E+03  0.7546771E-02  0.1146349E+00
         21   -1    0    0  501  502  0.00000000000E+00  0.00000000000E+00  0.97334872878E+02  0.97334872878E+02  0.00000000000E+00 0.  1.
         21   -1    0    0  502  503 -0.00000000000E+00 -0.00000000000E+00 -0.47385759957E+03  0.47385759957E+03  0.00000000000E+00 0.  1.
          6    1    1    2  501    0 -0.88377439019E+02 -0.62495211970E+02 -0.99275872991E+02  0.22693814621E+03  0.17300000000E+03 0.  1.
         -6    1    1    2    0  503  0.88377439019E+02  0.62495211970E+02 -0.27724685370E+03  0.34425432624E+03  0.17300000000E+03 0.  1.
<mgrwt>
<rscale>  2 0.20407161E+03</rscale>
<asrwt>0</asrwt>
<pdfrwt beam="1">  1       21 0.14974596E-01 0.20407161E+03</pdfrwt>
<pdfrwt beam="2">  1       21 0.72901169E-01 0.20407161E+03</pdfrwt>
<totfact> 0.66293707E+04</totfact>
</mgrwt>
</event>
<event>
 4    2  0.3903561E+000  0.2132685E+03  0.7546771E-02  0.1139004E+00
         21   -1    0    0  501  502  0.00000000000E+00  0.00000000000E+00  0.94718409219E+02  0.94718409219E+02  0.00000000000E+00 0. -1.
         21   -1    0    0  502  503 -0.00000000000E+00 -0.00000000000E+00 -0.50394001204E+03  0.50394001204E+03  0.00000000000E+00 0.  1.
          6    1    1    2  501    0  0.84828768094E+02  0.91424899701E+02 -0.13963767826E+03  0.25491589470E+03  0.17300000000E+03 0. -1.
         -6    1    1    2    0  503 -0.84828768094E+02 -0.91424899701E+02 -0.26958392456E+03  0.34374252655E+03  0.17300000000E+03 0. -1.
<mgrwt>
<rscale>  2 0.21326845E+03</rscale>
<asrwt>0</asrwt>
<pdfrwt beam="1">  1       21 0.14572063E-01 0.21326845E+03</pdfrwt>
<pdfrwt beam="2">  1       21 0.77529233E-01 0.21326845E+03</pdfrwt>
<totfact> 0.60447918E+04</totfact>
</mgrwt>
</event>
<event>
 4    2  0.3903561E+000  0.1844664E+03  0.7546771E-02  0.1163549E+00
         21   -1    0    0  501  502  0.00000000000E+00  0.00000000000E+00  0.48531328043E+03  0.48531328043E+03  0.00000000000E+00 0. -1.
         21   -1    0    0  502  503 -0.00000000000E+00 -0.00000000000E+00 -0.19203096725E+03  0.19203096725E+03  0.00000000000E+00 0. -1.
          6    1    1    2  501    0  0.15276259915E+01  0.64003967831E+02  0.41649197565E+03  0.45551444250E+03  0.17300000000E+03 0. -1.
         -6    1    1    2    0  503 -0.15276259915E+01 -0.64003967831E+02 -0.12320966248E+03  0.22182980518E+03  0.17300000000E+03 0. -1.
<mgrwt>
<rscale>  2 0.18446637E+03</rscale>
<asrwt>0</asrwt>
<pdfrwt beam="1">  1       21 0.74663581E-01 0.18446637E+03</pdfrwt>
<pdfrwt beam="2">  1       21 0.29543226E-01 0.18446637E+03</pdfrwt>
<totfact> 0.17721355E+04</totfact>
</mgrwt>
</event>
<event>
 4    2  0.3903561E+000  0.1759342E+03  0.7546771E-02  0.1171797E+00
         21   -1    0    0  501  502  0.00000000000E+00  0.00000000000E+00  0.94052143416E+02  0.94052143416E+02  0.00000000000E+00 0. -1.
         21   -1    0    0  502  503 -0.00000000000E+00 -0.00000000000E+00 -0.32966723162E+03  0.32966723162E+03  0.00000000000E+00 0. -1.
          6    1    1    2  501    0  0.31252661107E+02  0.68638827181E+01 -0.12657235586E+03  0.21673348376E+03  0.17300000000E+03 0.  1.
         -6    1    1    2    0  503 -0.31252661107E+02 -0.68638827181E+01 -0.10904273234E+03  0.20698589128E+03  0.17300000000E+03 0.  1.
<mgrwt>
<rscale>  2 0.17593420E+03</rscale>
<asrwt>0</asrwt>
<pdfrwt beam="1">  1       21 0.14469560E-01 0.17593420E+03</pdfrwt>
<pdfrwt beam="2">  1       21 0.50718036E-01 0.17593420E+03</pdfrwt>
<totfact> 0.15574899E+05</totfact>
</mgrwt>
</event>
<event>
 4    2  0.3903561E+000  0.1973659E+03  0.7546771E-02  0.1151981E+00
         21   -1    0    0  501  502  0.00000000000E+00  0.00000000000E+00  0.55514647882E+03  0.55514647882E+03  0.00000000000E+00 0. -1.
         21   -1    0    0  502  503 -0.00000000000E+00 -0.00000000000E+00 -0.95474261969E+02  0.95474261969E+02  0.00000000000E+00 0.  1.
          6    1    1    2  501    0 -0.34505712519E+02  0.88507879648E+02  0.39731971145E+03  0.44363976610E+03  0.17300000000E+03 0. -1.
         -6    1    1    2    0  503  0.34505712519E+02 -0.88507879648E+02  0.62352505408E+02  0.20698097470E+03  0.17300000000E+03 0.  1.
<mgrwt>
<rscale>  2 0.19736588E+03</rscale>
<asrwt>0</asrwt>
<pdfrwt beam="1">  1       21 0.85407149E-01 0.19736588E+03</pdfrwt>
<pdfrwt beam="2">  1       21 0.14688348E-01 0.19736588E+03</pdfrwt>
<totfact> 0.48189775E+04</totfact>
</mgrwt>
</event>
<event>
 4    2  0.3903561E+000  0.1766408E+03  0.7546771E-02  0.1171094E+00
         21   -1    0    0  503  502  0.00000000000E+00  0.00000000000E+00  0.15275474413E+02  0.15275474413E+02  0.00000000000E+00 0.  1.
         21   -1    0    0  501  503 -0.00000000000E+00 -0.00000000000E+00 -0.31548083259E+04  0.31548083259E+04  0.00000000000E+00 0.  1.
          6    1    1    2  501    0  0.43594478598E+01  0.35411459042E+02 -0.25108833738E+04  0.25170890514E+04  0.17300000000E+03 0.  1.
         -6    1    1    2    0  502 -0.43594478598E+01 -0.35411459042E+02 -0.62864947770E+03  0.65299474885E+03  0.17300000000E+03 0.  1.
<mgrwt>
<rscale>  2 0.17664081E+03</rscale>
<asrwt>0</asrwt>
<pdfrwt beam="1">  1       21 0.23500732E-02 0.17664081E+03</pdfrwt>
<pdfrwt beam="2">  1       21 0.48535508E+00 0.17664081E+03</pdfrwt>
<totfact> 0.23253709E+03</totfact>
</mgrwt>
</event>
<event>
 4    2  0.3903561E+000  0.2980556E+03  0.7546771E-02  0.1086217E+00
         21   -1    0    0  501  502  0.00000000000E+00  0.00000000000E+00  0.38004231995E+03  0.38004231995E+03  0.00000000000E+00 0. -1.
         21   -1    0    0  502  503 -0.00000000000E+00 -0.00000000000E+00 -0.24603876105E+03  0.24603876105E+03  0.00000000000E+00 0.  1.
          6    1    1    2  501    0 -0.13913148119E+03 -0.19887320601E+03 -0.29420187430E+01  0.29807008673E+03  0.17300000000E+03 0.  1.
         -6    1    1    2    0  503  0.13913148119E+03  0.19887320601E+03  0.13694557764E+03  0.32801099427E+03  0.17300000000E+03 0. -1.
<mgrwt>
<rscale>  2 0.29805557E+03</rscale>
<asrwt>0</asrwt>
<pdfrwt beam="1">  1       21 0.58468049E-01 0.29805557E+03</pdfrwt>
<pdfrwt beam="2">  1       21 0.37852117E-01 0.29805557E+03</pdfrwt>
<totfact> 0.17472979E+04</totfact>
</mgrwt>
</event>
<event>
 4    2  0.3903561E+000  0.4715448E+03  0.7546771E-02  0.1021485E+00
         21   -1    0    0  503  502  0.00000000000E+00  0.00000000000E+00  0.72484385642E+03  0.72484385642E+03  0.00000000000E+00 0. -1.
         21   -1    0    0  501  503 -0.00000000000E+00 -0.00000000000E+00 -0.11768272435E+04  0.11768272435E+04  0.00000000000E+00 0.  1.
          6    1    1    2  501    0 -0.10018800873E+02 -0.43854884418E+03 -0.10435617814E+04  0.11451531149E+04  0.17300000000E+03 0.  1.
         -6    1    1    2    0  502  0.10018800873E+02  0.43854884418E+03  0.59157839426E+03  0.75651798502E+03  0.17300000000E+03 0. -1.
<mgrwt>
<rscale>  2 0.47154476E+03</rscale>
<asrwt>0</asrwt>
<pdfrwt beam="1">  1       21 0.11151444E+00 0.47154476E+03</pdfrwt>
<pdfrwt beam="2">  1       21 0.18105034E+00 0.47154476E+03</pdfrwt>
<totfact> 0.89047482E+01</totfact>
</mgrwt>
</event>
<event>
 4    2  0.3903561E+000  0.2045829E+03  0.7546771E-02  0.1145929E+00
         21   -1    0    0  501  502  0.00000000000E+00  0.00000000000E+00  0.42551330466E+03  0.42551330466E+03  0.00000000000E+00 0.  1.
         21   -1    0    0  502  503 -0.00000000000E+00 -0.00000000000E+00 -0.10995510234E+03  0.10995510234E+03  0.00000000000E+00 0.  1.
          6    1    1    2  501    0  0.78406149277E+02  0.76010776989E+02  0.24471593078E+03  0.31896716013E+03  0.17300000000E+03 0.  1.
         -6    1    1    2    0  503 -0.78406149277E+02 -0.76010776989E+02  0.70842271537E+02  0.21650124688E+03  0.17300000000E+03 0.  1.
<mgrwt>
<rscale>  2 0.20458290E+03</rscale>
<asrwt>0</asrwt>
<pdfrwt beam="1">  1       21 0.65463584E-01 0.20458290E+03</pdfrwt>
<pdfrwt beam="2">  1       21 0.16916170E-01 0.20458290E+03</pdfrwt>
<totfact> 0.67193275E+04</totfact>
</mgrwt>
</event>
<event>
 4    2  0.3903561E+000  0.2115497E+03  0.7546771E-02  0.1140345E+00
         21   -1    0    0  501  502  0.00000000000E+00  0.00000000000E+00  0.18292273499E+03  0.18292273499E+03  0.00000000000E+00 0. -1.
         21   -1    0    0  502  503 -0.00000000000E+00 -0.00000000000E+00 -0.25032822193E+03  0.25032822193E+03  0.00000000000E+00 0. -1.
          6    1    1    2  501    0  0.97616509789E+02 -0.72768648972E+02 -0.10960133347E+01  0.21155250058E+03  0.17300000000E+03 0. -1.
         -6    1    1    2    0  503 -0.97616509789E+02  0.72768648972E+02 -0.66309473602E+02  0.22169845635E+03  0.17300000000E+03 0. -1.
<mgrwt>
<rscale>  2 0.21154966E+03</rscale>
<asrwt>0</asrwt>
<pdfrwt beam="1">  1       21 0.28141959E-01 0.21154966E+03</pdfrwt>
<pdfrwt beam="2">  1       21 0.38512034E-01 0.21154966E+03</pdfrwt>
<totfact> 0.77808646E+04</totfact>
</mgrwt>
</event>
<event>
 4    2  0.3903561E+000  0.1970537E+03  0.7546771E-02  0.1152249E+00
         21   -1    0    0  501  502  0.00000000000E+00  0.00000000000E+00  0.16801423912E+02  0.16801423912E+02  0.00000000000E+00 0.  1.
         21   -1    0    0  502  503 -0.00000000000E+00 -0.00000000000E+00 -0.26916385159E+04  0.26916385159E+04  0.00000000000E+00 0.  1.
          6    1    1    2  501    0  0.87703807665E+02  0.34773763512E+02 -0.82824420129E+03  0.85136280719E+03  0.17300000000E+03 0.  1.
         -6    1    1    2    0  503 -0.87703807665E+02 -0.34773763512E+02 -0.18465928907E+04  0.18570771326E+04  0.17300000000E+03 0.  1.
<mgrwt>
<rscale>  2 0.19705373E+03</rscale>
<asrwt>0</asrwt>
<pdfrwt beam="1">  1       21 0.25848350E-02 0.19705373E+03</pdfrwt>
<pdfrwt beam="2">  1       21 0.41409815E+00 0.19705373E+03</pdfrwt>
<totfact> 0.57150613E+03</totfact>
</mgrwt>
</event>
<event>
 4    2  0.3903561E+000  0.1879238E+03  0.7546771E-02  0.1160347E+00
         21   -1    0    0  503  502  0.00000000000E+00  0.00000000000E+00  0.15905049496E+03  0.15905049496E+03  0.00000000000E+00 0.  1.
         21   -1    0    0  501  503 -0.00000000000E+00 -0.00000000000E+00 -0.45540414940E+03  0.45540414940E+03  0.00000000000E+00 0.  1.
          6    1    1    2  501    0 -0.19562293556E+02  0.70736659689E+02 -0.36810439045E+03  0.41329916600E+03  0.17300000000E+03 0.  1.
         -6    1    1    2    0  502  0.19562293556E+02 -0.70736659689E+02  0.71750736009E+02  0.20115547835E+03  0.17300000000E+03 0.  1.
<mgrwt>
<rscale>  2 0.18792381E+03</rscale>
<asrwt>0</asrwt>
<pdfrwt beam="1">  1       21 0.24469307E-01 0.18792381E+03</pdfrwt>
<pdfrwt beam="2">  1       21 0.70062177E-01 0.18792381E+03</pdfrwt>
<totfact> 0.29256166E+04</totfact>
</mgrwt>
</event>
<event>
 4    2  0.3903561E+000  0.2509659E+03  0.7546771E-02  0.1112696E+00
         21   -1    0    0  503  502  0.00000000000E+00  0.00000000000E+00  0.68486500790E+02  0.68486500790E+02  0.00000000000E+00 0. -1.
         21   -1    0    0  501  503 -0.00000000000E+00 -0.00000000000E+00 -0.10369427793E+04  0.10369427793E+04  0.00000000000E+00 0.  1.
          6    1    1    2  501    0 -0.96888910310E+02 -0.15384212197E+03 -0.67011662098E+03  0.71556980453E+03  0.17300000000E+03 0.  1.
         -6    1    1    2    0  502  0.96888910310E+02  0.15384212197E+03 -0.29833965753E+03  0.38985947557E+03  0.17300000000E+03 0. -1.
<mgrwt>
<rscale>  2 0.25096585E+03</rscale>
<asrwt>0</asrwt>
<pdfrwt beam="1">  1       21 0.10536385E-01 0.25096585E+03</pdfrwt>
<pdfrwt beam="2">  1       21 0.15952966E+00 0.25096585E+03</pdfrwt>
<totfact> 0.18088622E+04</totfact>
</mgrwt>
</event>
<event>
 4    2  0.3903561E+000  0.1824105E+03  0.7546771E-02  0.1165490E+00
         21   -1    0    0  503  502  0.00000000000E+00  0.00000000000E+00  0.17117962837E+03  0.17117962837E+03  0.00000000000E+00 0.  1.
         21   -1    0    0  501  503 -0.00000000000E+00 -0.00000000000E+00 -0.38328747852E+03  0.38328747852E+03  0.00000000000E+00 0.  1.
          6    1    1    2  501    0  0.23046767206E+02 -0.53041800687E+02 -0.30068408228E+03  0.35168807691E+03  0.17300000000E+03 0.  1.
         -6    1    1    2    0  502 -0.23046767206E+02  0.53041800687E+02  0.88576232133E+02  0.20277902998E+03  0.17300000000E+03 0.  1.
<mgrwt>
<rscale>  2 0.18241049E+03</rscale>
<asrwt>0</asrwt>
<pdfrwt beam="1">  1       21 0.26335328E-01 0.18241049E+03</pdfrwt>
<pdfrwt beam="2">  1       21 0.58967304E-01 0.18241049E+03</pdfrwt>
<totfact> 0.37068353E+04</totfact>
</mgrwt>
</event>
<event>
 4    2  0.3903561E+000  0.1982191E+03  0.7546771E-02  0.1151250E+00
         21   -1    0    0  501  502  0.00000000000E+00  0.00000000000E+00  0.33371414120E+04  0.33371414120E+04  0.00000000000E+00 0. -1.
         21   -1    0    0  502  503 -0.00000000000E+00 -0.00000000000E+00 -0.22237821310E+02  0.22237821310E+02  0.00000000000E+00 0. -1.
          6    1    1    2  501    0 -0.80474388355E+02  0.53718749359E+02  0.28096634244E+04  0.28166468344E+04  0.17300000000E+03 0. -1.
         -6    1    1    2    0  503  0.80474388355E+02 -0.53718749359E+02  0.50524016627E+03  0.54273239891E+03  0.17300000000E+03 0. -1.
<mgrwt>
<rscale>  2 0.19821915E+03</rscale>
<asrwt>0</asrwt>
<pdfrwt beam="1">  1       21 0.51340597E+00 0.19821915E+03</pdfrwt>
<pdfrwt beam="2">  1       21 0.34212059E-02 0.19821915E+03</pdfrwt>
<totfact> 0.76665229E+02</totfact>
</mgrwt>
</event>
<event>
 4    2  0.3903561E+000  0.1846578E+03  0.7546771E-02  0.1163370E+00
         21   -1    0    0  503  502  0.00000000000E+00  0.00000000000E+00  0.65835403487E+02  0.65835403487E+02  0.00000000000E+00 0. -1.
         21   -1    0    0  501  503 -0.00000000000E+00 -0.00000000000E+00 -0.15757235376E+04  0.15757235376E+04  0.00000000000E+00 0.  1.
          6    1    1    2  501    0 -0.15797346343E+02  0.62609399064E+02 -0.14274340172E+04  0.14393284429E+04  0.17300000000E+03 0.  1.
         -6    1    1    2    0  502  0.15797346343E+02 -0.62609399064E+02 -0.82454116872E+02  0.20223049817E+03  0.17300000000E+03 0. -1.
<mgrwt>
<rscale>  2 0.18465777E+03</rscale>
<asrwt>0</asrwt>
<pdfrwt beam="1">  1       21 0.10128523E-01 0.18465777E+03</pdfrwt>
<pdfrwt beam="2">  1       21 0.24241901E+00 0.18465777E+03</pdfrwt>
<totfact> 0.58954973E+03</totfact>
</mgrwt>
</event>
<event>
 4    2  0.3903561E+000  0.1774693E+03  0.7546771E-02  0.1170275E+00
         21   -1    0    0  501  502  0.00000000000E+00  0.00000000000E+00  0.43657244484E+03  0.43657244484E+03  0.00000000000E+00 0. -1.
         21   -1    0    0  502  503 -0.00000000000E+00 -0.00000000000E+00 -0.76836489403E+02  0.76836489403E+02  0.00000000000E+00 0. -1.
          6    1    1    2  501    0  0.19306648515E+02 -0.34548750111E+02  0.24331738755E+03  0.30116227170E+03  0.17300000000E+03 0. -1.
         -6    1    1    2    0  503 -0.19306648515E+02  0.34548750111E+02  0.11641856788E+03  0.21224666254E+03  0.17300000000E+03 0. -1.
<mgrwt>
<rscale>  2 0.17746933E+03</rscale>
<asrwt>0</asrwt>
<pdfrwt beam="1">  1       21 0.67164990E-01 0.17746933E+03</pdfrwt>
<pdfrwt beam="2">  1       21 0.11820999E-01 0.17746933E+03</pdfrwt>
<totfact> 0.12298602E+05</totfact>
</mgrwt>
</event>
<event>
 4    2  0.3903561E+000  0.2110202E+03  0.7546771E-02  0.1140761E+00
         21   -1    0    0  501  502  0.00000000000E+00  0.00000000000E+00  0.12744725365E+03  0.12744725365E+03  0.00000000000E+00 0. -1.
         21   -1    0    0  502  503 -0.00000000000E+00 -0.00000000000E+00 -0.41451225195E+03  0.41451225195E+03  0.00000000000E+00 0.  1.
          6    1    1    2  501    0 -0.95857433643E+02 -0.73565443870E+02 -0.36130129930E+02  0.21409088819E+03  0.17300000000E+03 0. -1.
         -6    1    1    2    0  503  0.95857433643E+02  0.73565443870E+02 -0.25093486838E+03  0.32786861741E+03  0.17300000000E+03 0.  1.
<mgrwt>
<rscale>  2 0.21102019E+03</rscale>
<asrwt>0</asrwt>
<pdfrwt beam="1">  1       21 0.19607270E-01 0.21102019E+03</pdfrwt>
<pdfrwt beam="2">  1       21 0.63771115E-01 0.21102019E+03</pdfrwt>
<totfact> 0.53941355E+04</totfact>
</mgrwt>
</event>
<event>
 4    2  0.3903561E+000  0.1901470E+03  0.7546771E-02  0.1158329E+00
         21   -1    0    0  503  502  0.00000000000E+00  0.00000000000E+00  0.15234291854E+04  0.15234291854E+04  0.00000000000E+00 0. -1.
         21   -1    0    0  501  503 -0.00000000000E+00 -0.00000000000E+00 -0.24486371966E+02  0.24486371966E+02  0.00000000000E+00 0.  1.
          6    1    1    2  501    0 -0.77908363587E+02 -0.12536101672E+02  0.61373422581E+03  0.64251503243E+03  0.17300000000E+03 0.  1.
         -6    1    1    2    0  502  0.77908363587E+02  0.12536101672E+02  0.88520858765E+03  0.90540052497E+03  0.17300000000E+03 0. -1.
<mgrwt>
<rscale>  2 0.19014696E+03</rscale>
<asrwt>0</asrwt>
<pdfrwt beam="1">  1       21 0.23437365E+00 0.19014696E+03</pdfrwt>
<pdfrwt beam="2">  1       21 0.37671353E-02 0.19014696E+03</pdfrwt>
<totfact> 0.35730899E+04</totfact>
</mgrwt>
</event>
<event>
 4    2  0.3903561E+000  0.1733892E+03  0.7546771E-02  0.1174359E+00
         21   -1    0    0  503  502  0.00000000000E+00  0.00000000000E+00  0.81631216995E+02  0.81631216995E+02  0.00000000000E+00 0. -1.
         21   -1    0    0  501  503 -0.00000000000E+00 -0.00000000000E+00 -0.16894338116E+04  0.16894338116E+04  0.00000000000E+00 0. -1.
          6    1    1    2  501    0 -0.33394607839E+00  0.11606345959E+02 -0.15869869274E+04  0.15964308086E+04  0.17300000000E+03 0. -1.
         -6    1    1    2    0  502  0.33394607839E+00 -0.11606345959E+02 -0.20815667144E+02  0.17463421997E+03  0.17300000000E+03 0. -1.
<mgrwt>
<rscale>  2 0.17338921E+03</rscale>
<asrwt>0</asrwt>
<pdfrwt beam="1">  1       21 0.12558649E-01 0.17338921E+03</pdfrwt>
<pdfrwt beam="2">  1       21 0.25991289E+00 0.17338921E+03</pdfrwt>
<totfact> 0.32181724E+03</totfact>
</mgrwt>
</event>
<event>
 4    2  0.3903561E+000  0.3626815E+03  0.7546771E-02  0.1057527E+00
         21   -1    0    0  501  502  0.00000000000E+00  0.00000000000E+00  0.17553352277E+03  0.17553352277E+03  0.00000000000E+00 0. -1.
         21   -1    0    0  502  503 -0.00000000000E+00 -0.00000000000E+00 -0.10059978037E+04  0.10059978037E+04  0.00000000000E+00 0. -1.
          6    1    1    2  501    0  0.31582731030E+03 -0.43151009059E+02 -0.11684742903E+03  0.38103965828E+03  0.17300000000E+03 0. -1.
         -6    1    1    2    0  503 -0.31582731030E+03  0.43151009059E+02 -0.71361685192E+03  0.80049166820E+03  0.17300000000E+03 0. -1.
<mgrwt>
<rscale>  2 0.36268154E+03</rscale>
<asrwt>0</asrwt>
<pdfrwt beam="1">  1       21 0.27005157E-01 0.36268154E+03</pdfrwt>
<pdfrwt beam="2">  1       21 0.15476889E+00 0.36268154E+03</pdfrwt>
<totfact> 0.32173830E+03</totfact>
</mgrwt>
</event>
<event>
 4    2  0.3903561E+000  0.2556741E+03  0.7546771E-02  0.1109771E+00
         21   -1    0    0  503  502  0.00000000000E+00  0.00000000000E+00  0.45855565898E+02  0.45855565898E+02  0.00000000000E+00 0. -1.
         21   -1    0    0  501  503 -0.00000000000E+00 -0.00000000000E+00 -0.20644494741E+04  0.20644494741E+04  0.00000000000E+00 0.  1.
          6    1    1    2  501    0  0.12784015296E+03 -0.13819242559E+03 -0.15962866723E+04  0.16166324230E+04  0.17300000000E+03 0.  1.
         -6    1    1    2    0  502 -0.12784015296E+03  0.13819242559E+03 -0.42230723594E+03  0.49367261695E+03  0.17300000000E+03 0. -1.
<mgrwt>
<rscale>  2 0.25567411E+03</rscale>
<asrwt>0</asrwt>
<pdfrwt beam="1">  1       21 0.70547017E-02 0.25567411E+03</pdfrwt>
<pdfrwt beam="2">  1       21 0.31760764E+00 0.25567411E+03</pdfrwt>
<totfact> 0.37694254E+03</totfact>
</mgrwt>
</event>
<event>
 4    2  0.3903561E+000  0.2039298E+03  0.7546771E-02  0.1146465E+00
         21   -1    0    0  501  502  0.00000000000E+00  0.00000000000E+00  0.59694129896E+02  0.59694129896E+02  0.00000000000E+00 0. -1.
         21   -1    0    0  502  503 -0.00000000000E+00 -0.00000000000E+00 -0.69738160829E+03  0.69738160829E+03  0.00000000000E+00 0. -1.
          6    1    1    2  501    0 -0.45537647924E+02 -0.97901439551E+02 -0.30678886744E+03  0.36838400947E+03  0.17300000000E+03 0. -1.
         -6    1    1    2    0  503  0.45537647924E+02  0.97901439551E+02 -0.33089861095E+03  0.38869172872E+03  0.17300000000E+03 0. -1.
<mgrwt>
<rscale>  2 0.20392981E+03</rscale>
<asrwt>0</asrwt>
<pdfrwt beam="1">  1       21 0.91837120E-02 0.20392981E+03</pdfrwt>
<pdfrwt beam="2">  1       21 0.10728948E+00 0.20392981E+03</pdfrwt>
<totfact> 0.65038171E+04</totfact>
</mgrwt>
</event>
<event>
 4    2  0.3903561E+000  0.2364539E+03  0.7546771E-02  0.1122178E+00
         21   -1    0    0  503  502  0.00000000000E+00  0.00000000000E+00  0.21000684105E+03  0.21000684105E+03  0.00000000000E+00 0. -1.
         21   -1    0    0  501  503 -0.00000000000E+00 -0.00000000000E+00 -0.43433573606E+03  0.43433573606E+03  0.00000000000E+00 0. -1.
          6    1    1    2  501    0 -0.35004546748E+02  0.15734084953E+03 -0.31259467885E+03  0.39195139299E+03  0.17300000000E+03 0. -1.
         -6    1    1    2    0  502  0.35004546748E+02 -0.15734084953E+03  0.88265783838E+02  0.25239118412E+03  0.17300000000E+03 0. -1.
<mgrwt>
<rscale>  2 0.23645393E+03</rscale>
<asrwt>0</asrwt>
<pdfrwt beam="1">  1       21 0.32308745E-01 0.23645393E+03</pdfrwt>
<pdfrwt beam="2">  1       21 0.66820882E-01 0.23645393E+03</pdfrwt>
<totfact> 0.18443082E+04</totfact>
</mgrwt>
</event>
<event>
 4    2  0.3903561E+000  0.2186668E+03  0.7546771E-02  0.1134881E+00
         21   -1    0    0  501  502  0.00000000000E+00  0.00000000000E+00  0.47073162141E+03  0.47073162141E+03  0.00000000000E+00 0.  1.
         21   -1    0    0  502  503 -0.00000000000E+00 -0.00000000000E+00 -0.10799066887E+03  0.10799066887E+03  0.00000000000E+00 0. -1.
          6    1    1    2  501    0  0.13191959451E+03 -0.21985968522E+02  0.25189255150E+03  0.33356411636E+03  0.17300000000E+03 0. -1.
         -6    1    1    2    0  503 -0.13191959451E+03  0.21985968522E+02  0.11084840103E+03  0.24515817392E+03  0.17300000000E+03 0. -1.
<mgrwt>
<rscale>  2 0.21866678E+03</rscale>
<asrwt>0</asrwt>
<pdfrwt beam="1">  1       21 0.72420248E-01 0.21866678E+03</pdfrwt>
<pdfrwt beam="2">  1       21 0.16613949E-01 0.21866678E+03</pdfrwt>
<totfact> 0.55249434E+04</totfact>
</mgrwt>
</event>
<event>
 4    2  0.3903561E+000  0.4748716E+03  0.7546771E-02  0.1020554E+00
         21   -1    0    0  501  502  0.00000000000E+00  0.00000000000E+00  0.57947192933E+03  0.57947192933E+03  0.00000000000E+00 0. -1.
         21   -1    0    0  502  503 -0.00000000000E+00 -0.00000000000E+00 -0.39477568974E+03  0.39477568974E+03  0.00000000000E+00 0.  1.
          6    1    1    2  501    0  0.40662543801E+03  0.17386717751E+03  0.15048468599E+03  0.49814524284E+03  0.17300000000E+03 0.  1.
         -6    1    1    2    0  503 -0.40662543801E+03 -0.17386717751E+03  0.34211553603E+02  0.47610237623E+03  0.17300000000E+03 0. -1.
<mgrwt>
<rscale>  2 0.47487161E+03</rscale>
<asrwt>0</asrwt>
<pdfrwt beam="1">  1       21 0.89149528E-01 0.47487161E+03</pdfrwt>
<pdfrwt beam="2">  1       21 0.60734721E-01 0.47487161E+03</pdfrwt>
<totfact> 0.23267368E+03</totfact>
</mgrwt>
</event>
<event>
 4    2  0.3903561E+000  0.2039772E+03  0.7546771E-02  0.1146426E+00
         21   -1    0    0  503  502  0.00000000000E+00  0.00000000000E+00  0.51609508454E+02  0.51609508454E+02  0.00000000000E+00 0.  1.
         21   -1    0    0  501  503 -0.00000000000E+00 -0.00000000000E+00 -0.98412118876E+03  0.98412118876E+03  0.00000000000E+00 0.  1.
          6    1    1    2  501    0 -0.10702826895E+03  0.14921909426E+02 -0.68646075947E+03  0.71612505055E+03  0.17300000000E+03 0.  1.
         -6    1    1    2    0  502  0.10702826895E+03 -0.14921909426E+02 -0.24605092084E+03  0.31960564667E+03  0.17300000000E+03 0.  1.
<mgrwt>
<rscale>  2 0.20397724E+03</rscale>
<asrwt>0</asrwt>
<pdfrwt beam="1">  1       21 0.79399240E-02 0.20397724E+03</pdfrwt>
<pdfrwt beam="2">  1       21 0.15140327E+00 0.20397724E+03</pdfrwt>
<totfact> 0.35217504E+04</totfact>
</mgrwt>
</event>
<event>
 4    2  0.3903561E+000  0.3053378E+03  0.7546771E-02  0.1082602E+00
         21   -1    0    0  501  502  0.00000000000E+00  0.00000000000E+00  0.40060484422E+03  0.40060484422E+03  0.00000000000E+00 0.  1.
         21   -1    0    0  502  503 -0.00000000000E+00 -0.00000000000E+00 -0.34906001596E+03  0.34906001596E+03  0.00000000000E+00 0.  1.
          6    1    1    2  501    0  0.24288073929E+03 -0.65659323398E+02  0.24216396174E+03  0.38971089879E+03  0.17300000000E+03 0.  1.
         -6    1    1    2    0  503 -0.24288073929E+03  0.65659323398E+02 -0.19061913348E+03  0.35995396139E+03  0.17300000000E+03 0.  1.
<mgrwt>
<rscale>  2 0.30533785E+03</rscale>
<asrwt>0</asrwt>
<pdfrwt beam="1">  1       21 0.61631515E-01 0.30533785E+03</pdfrwt>
<pdfrwt beam="2">  1       21 0.53701541E-01 0.30533785E+03</pdfrwt>
<totfact> 0.75119019E+03</totfact>
</mgrwt>
</event>
<event>
 4    2  0.3903561E+000  0.1914473E+03  0.7546771E-02  0.1157162E+00
         21   -1    0    0  503  502  0.00000000000E+00  0.00000000000E+00  0.13624209913E+03  0.13624209913E+03  0.00000000000E+00 0.  1.
         21   -1    0    0  501  503 -0.00000000000E+00 -0.00000000000E+00 -0.28892493482E+03  0.28892493482E+03  0.00000000000E+00 0. -1.
          6    1    1    2  501    0 -0.74242624290E+02  0.34800920295E+02 -0.13213698472E+03  0.23262040763E+03  0.17300000000E+03 0.  1.
         -6    1    1    2    0  502  0.74242624290E+02 -0.34800920295E+02 -0.20545850973E+02  0.19254662632E+03  0.17300000000E+03 0.  1.
<mgrwt>
<rscale>  2 0.19144731E+03</rscale>
<asrwt>0</asrwt>
<pdfrwt beam="1">  1       21 0.20960323E-01 0.19144731E+03</pdfrwt>
<pdfrwt beam="2">  1       21 0.44449990E-01 0.19144731E+03</pdfrwt>
<totfact> 0.10279995E+05</totfact>
</mgrwt>
</event>
<event>
 4    2  0.3903561E+000  0.1804791E+03  0.7546771E-02  0.1167340E+00
         21   -1    0    0  501  502  0.00000000000E+00  0.00000000000E+00  0.37784866282E+03  0.37784866282E+03  0.00000000000E+00 0. -1.
         21   -1    0    0  502  503 -0.00000000000E+00 -0.00000000000E+00 -0.11092022017E+03  0.11092022017E+03  0.00000000000E+00 0. -1.
          6    1    1    2  501    0  0.50468570313E+02  0.98297004522E+01  0.24882136388E+03  0.30738375156E+03  0.17300000000E+03 0. -1.
         -6    1    1    2    0  503 -0.50468570313E+02 -0.98297004522E+01  0.18107078765E+02  0.18138513142E+03  0.17300000000E+03 0. -1.
<mgrwt>
<rscale>  2 0.18047908E+03</rscale>
<asrwt>0</asrwt>
<pdfrwt beam="1">  1       21 0.58130563E-01 0.18047908E+03</pdfrwt>
<pdfrwt beam="2">  1       21 0.17064649E-01 0.18047908E+03</pdfrwt>
<totfact> 0.86325902E+04</totfact>
</mgrwt>
</event>
<event>
 4    2  0.3903561E+000  0.2099857E+03  0.7546771E-02  0.1141577E+00
         21   -1    0    0  503  502  0.00000000000E+00  0.00000000000E+00  0.17580786520E+03  0.17580786520E+03  0.00000000000E+00 0.  1.
         21   -1    0    0  501  503 -0.00000000000E+00 -0.00000000000E+00 -0.37783876884E+03  0.37783876884E+03  0.00000000000E+00 0. -1.
          6    1    1    2  501    0  0.99436134463E+02 -0.65402210691E+02 -0.26152619902E+03  0.33539520982E+03  0.17300000000E+03 0. -1.
         -6    1    1    2    0  502 -0.99436134463E+02  0.65402210691E+02  0.59495295382E+02  0.21825142422E+03  0.17300000000E+03 0.  1.
<mgrwt>
<rscale>  2 0.20998570E+03</rscale>
<asrwt>0</asrwt>
<pdfrwt beam="1">  1       21 0.27047364E-01 0.20998570E+03</pdfrwt>
<pdfrwt beam="2">  1       21 0.58129041E-01 0.20998570E+03</pdfrwt>
<totfact> 0.35792889E+04</totfact>
</mgrwt>
</event>
<event>
 4    2  0.3903561E+000  0.1815684E+03  0.7546771E-02  0.1166294E+00
         21   -1    0    0  501  502  0.00000000000E+00  0.00000000000E+00  0.19265557472E+03  0.19265557472E+03  0.00000000000E+00 0.  1.
         21   -1    0    0  502  503 -0.00000000000E+00 -0.00000000000E+00 -0.25651337703E+03  0.25651337703E+03  0.00000000000E+00 0.  1.
          6    1    1    2  501    0 -0.44402166113E+00  0.55116982767E+02  0.97651316669E+02  0.20616221427E+03  0.17300000000E+03 0.  1.
         -6    1    1    2    0  503  0.44402166113E+00 -0.55116982767E+02 -0.16150911898E+03  0.24300673748E+03  0.17300000000E+03 0.  1.
<mgrwt>
<rscale>  2 0.18156839E+03</rscale>
<asrwt>0</asrwt>
<pdfrwt beam="1">  1       21 0.29639319E-01 0.18156839E+03</pdfrwt>
<pdfrwt beam="2">  1       21 0.39463596E-01 0.18156839E+03</pdfrwt>
<totfact> 0.67854231E+04</totfact>
</mgrwt>
</event>
<event>
 4    2  0.3903561E+000  0.1793088E+03  0.7546771E-02  0.1168474E+00
         21   -1    0    0  503  502  0.00000000000E+00  0.00000000000E+00  0.28832677622E+03  0.28832677622E+03  0.00000000000E+00 0.  1.
         21   -1    0    0  501  503 -0.00000000000E+00 -0.00000000000E+00 -0.11152422045E+03  0.11152422045E+03  0.00000000000E+00 0.  1.
          6    1    1    2  501    0 -0.19887827049E+02  0.42744669231E+02  0.90570791131E+02  0.20088479439E+03  0.17300000000E+03 0.  1.
         -6    1    1    2    0  502  0.19887827049E+02 -0.42744669231E+02  0.86231764641E+02  0.19896620227E+03  0.17300000000E+03 0.  1.
<mgrwt>
<rscale>  2 0.17930876E+03</rscale>
<asrwt>0</asrwt>
<pdfrwt beam="1">  1       21 0.44357965E-01 0.17930876E+03</pdfrwt>
<pdfrwt beam="2">  1       21 0.17157573E-01 0.17930876E+03</pdfrwt>
<totfact> 0.15033902E+05</totfact>
</mgrwt>
</event>
<event>
 4    2  0.3903561E+000  0.2161385E+03  0.7546771E-02  0.1136795E+00
         21   -1    0    0  501  502  0.00000000000E+00  0.00000000000E+00  0.32462842578E+03  0.32462842578E+03  0.00000000000E+00 0.  1.
         21   -1    0    0  502  503 -0.00000000000E+00 -0.00000000000E+00 -0.14417349818E+03  0.14417349818E+03  0.00000000000E+00 0.  1.
          6    1    1    2  501    0 -0.12108638472E+03 -0.46097085135E+02  0.10033133924E+03  0.23829022527E+03  0.17300000000E+03 0.  1.
         -6    1    1    2    0  503  0.12108638472E+03  0.46097085135E+02  0.80123588356E+02  0.23051169869E+03  0.17300000000E+03 0.  1.
<mgrwt>
<rscale>  2 0.21613851E+03</rscale>
<asrwt>0</asrwt>
<pdfrwt beam="1">  1       21 0.49942835E-01 0.21613851E+03</pdfrwt>
<pdfrwt beam="2">  1       21 0.22180538E-01 0.21613851E+03</pdfrwt>
<totfact> 0.71861792E+04</totfact>
</mgrwt>
</event>
<event>
 4    2  0.3903561E+000  0.2346665E+03  0.7546771E-02  0.1123398E+00
         21   -1    0    0  501  502  0.00000000000E+00  0.00000000000E+00  0.19219785341E+03  0.19219785341E+03  0.00000000000E+00 0.  1.
         21   -1    0    0  502  503 -0.00000000000E+00 -0.00000000000E+00 -0.39814587973E+03  0.39814587973E+03  0.00000000000E+00 0. -1.
          6    1    1    2  501    0  0.14867420316E+03 -0.55094010167E+02  0.53318407905E+02  0.24064750417E+03  0.17300000000E+03 0.  1.
         -6    1    1    2    0  503 -0.14867420316E+03  0.55094010167E+02 -0.25926643423E+03  0.34969622898E+03  0.17300000000E+03 0. -1.
<mgrwt>
<rscale>  2 0.23466651E+03</rscale>
<asrwt>0</asrwt>
<pdfrwt beam="1">  1       21 0.29568901E-01 0.23466651E+03</pdfrwt>
<pdfrwt beam="2">  1       21 0.61253211E-01 0.23466651E+03</pdfrwt>
<totfact> 0.26564085E+04</totfact>
</mgrwt>
</event>
<event>
 4    2  0.3903561E+000  0.1849176E+03  0.7546771E-02  0.1163127E+00
         21   -1    0    0  501  502  0.00000000000E+00  0.00000000000E+00  0.46257024145E+03  0.46257024145E+03  0.00000000000E+00 0.  1.
         21   -1    0    0  502  503 -0.00000000000E+00 -0.00000000000E+00 -0.74294634021E+02  0.74294634021E+02  0.00000000000E+00 0.  1.
          6    1    1    2  501    0 -0.55771337875E+02  0.33986537738E+02  0.21312588343E+03  0.28216514502E+03  0.17300000000E+03 0.  1.
         -6    1    1    2    0  503  0.55771337875E+02 -0.33986537738E+02  0.17514972400E+03  0.25469973045E+03  0.17300000000E+03 0.  1.
<mgrwt>
<rscale>  2 0.18491762E+03</rscale>
<asrwt>0</asrwt>
<pdfrwt beam="1">  1       21 0.71164651E-01 0.18491762E+03</pdfrwt>
<pdfrwt beam="2">  1       21 0.11429944E-01 0.18491762E+03</pdfrwt>
<totfact> 0.11468996E+05</totfact>
</mgrwt>
</event>
<event>
 4    2  0.3903561E+000  0.2364940E+03  0.7546771E-02  0.1122151E+00
         21   -1    0    0  501  502  0.00000000000E+00  0.00000000000E+00  0.16549928718E+04  0.16549928718E+04  0.00000000000E+00 0. -1.
         21   -1    0    0  502  503 -0.00000000000E+00 -0.00000000000E+00 -0.73149318191E+02  0.73149318191E+02  0.00000000000E+00 0.  1.
          6    1    1    2  501    0  0.15262368368E+03  0.52023121598E+02  0.14247100025E+04  0.14442049665E+04  0.17300000000E+03 0. -1.
         -6    1    1    2    0  503 -0.15262368368E+03 -0.52023121598E+02  0.15713355108E+03  0.28393722348E+03  0.17300000000E+03 0.  1.
<mgrwt>
<rscale>  2 0.23649396E+03</rscale>
<asrwt>0</asrwt>
<pdfrwt beam="1">  1       21 0.25461426E+00 0.23649396E+03</pdfrwt>
<pdfrwt beam="2">  1       21 0.11253743E-01 0.23649396E+03</pdfrwt>
<totfact> 0.39368210E+03</totfact>
</mgrwt>
</event>
<event>
 4    2  0.3903561E+000  0.1838463E+03  0.7546771E-02  0.1164132E+00
         21   -1    0    0  501  502  0.00000000000E+00  0.00000000000E+00  0.10526007917E+03  0.10526007917E+03  0.00000000000E+00 0.  1.
         21   -1    0    0  502  503 -0.00000000000E+00 -0.00000000000E+00 -0.40402095718E+03  0.40402095718E+03  0.00000000000E+00 0.  1.
          6    1    1    2  501    0  0.62183035974E+02 -0.19271002706E+01 -0.34022639840E+02  0.18696786810E+03  0.17300000000E+03 0.  1.
         -6    1    1    2    0  503 -0.62183035974E+02  0.19271002706E+01 -0.26473823818E+03  0.32231316826E+03  0.17300000000E+03 0.  1.
<mgrwt>
<rscale>  2 0.18384625E+03</rscale>
<asrwt>0</asrwt>
<pdfrwt beam="1">  1       21 0.16193858E-01 0.18384625E+03</pdfrwt>
<pdfrwt beam="2">  1       21 0.62157070E-01 0.18384625E+03</pdfrwt>
<totfact> 0.82200710E+04</totfact>
</mgrwt>
</event>
<event>
 4    2  0.3903561E+000  0.1939691E+03  0.7546771E-02  0.1154929E+00
         21   -1    0    0  503  502  0.00000000000E+00  0.00000000000E+00  0.22251091053E+03  0.22251091053E+03  0.00000000000E+00 0. -1.
         21   -1    0    0  501  503 -0.00000000000E+00 -0.00000000000E+00 -0.23720685000E+03  0.23720685000E+03  0.00000000000E+00 0.  1.
          6    1    1    2  501    0  0.16700062592E+02 -0.86116914195E+02 -0.13052508690E+03  0.23379652117E+03  0.17300000000E+03 0.  1.
         -6    1    1    2    0  502 -0.16700062592E+02  0.86116914195E+02  0.11582914743E+03  0.22592123936E+03  0.17300000000E+03 0. -1.
<mgrwt>
<rscale>  2 0.19396911E+03</rscale>
<asrwt>0</asrwt>
<pdfrwt beam="1">  1       21 0.34232448E-01 0.19396911E+03</pdfrwt>
<pdfrwt beam="2">  1       21 0.36493361E-01 0.19396911E+03</pdfrwt>
<totfact> 0.59514395E+04</totfact>
</mgrwt>
</event>
<event>
 4    2  0.3903561E+000  0.2614317E+03  0.7546771E-02  0.1106286E+00
         21   -1    0    0  503  502  0.00000000000E+00  0.00000000000E+00  0.74476974041E+03  0.74476974041E+03  0.00000000000E+00 0.  1.
         21   -1    0    0  501  503 -0.00000000000E+00 -0.00000000000E+00 -0.19228474714E+03  0.19228474714E+03  0.00000000000E+00 0.  1.
          6    1    1    2  501    0 -0.44543907003E+02 -0.19087522131E+03 -0.62508242411E+02  0.26880065128E+03  0.17300000000E+03 0.  1.
         -6    1    1    2    0  502  0.44543907003E+02  0.19087522131E+03  0.61499323568E+03  0.66825383627E+03  0.17300000000E+03 0.  1.
<mgrwt>
<rscale>  2 0.26143165E+03</rscale>
<asrwt>0</asrwt>
<pdfrwt beam="1">  1       21 0.11457996E+00 0.26143165E+03</pdfrwt>
<pdfrwt beam="2">  1       21 0.29582269E-01 0.26143165E+03</pdfrwt>
<totfact> 0.61806147E+03</totfact>
</mgrwt>
</event>
<event>
 4    2  0.3903561E+000  0.2545001E+03  0.7546771E-02  0.1110493E+00
         21   -1    0    0  503  502  0.00000000000E+00  0.00000000000E+00  0.13915429063E+03  0.13915429063E+03  0.00000000000E+00 0. -1.
         21   -1    0    0  501  503 -0.00000000000E+00 -0.00000000000E+00 -0.56877366028E+03  0.56877366028E+03  0.00000000000E+00 0. -1.
          6    1    1    2  501    0  0.11902918766E+02 -0.18627831468E+03 -0.36567007985E+03  0.44551643886E+03  0.17300000000E+03 0. -1.
         -6    1    1    2    0  502 -0.11902918766E+02  0.18627831468E+03 -0.63949289802E+02  0.26241151206E+03  0.17300000000E+03 0. -1.
<mgrwt>
<rscale>  2 0.25450008E+03</rscale>
<asrwt>0</asrwt>
<pdfrwt beam="1">  1       21 0.21408353E-01 0.25450008E+03</pdfrwt>
<pdfrwt beam="2">  1       21 0.87503639E-01 0.25450008E+03</pdfrwt>
<totfact> 0.22030050E+04</totfact>
</mgrwt>
</event>
<event>
 4    2  0.3903561E+000  0.3006022E+03  0.7546771E-02  0.1084940E+00
         21   -1    0    0  501  502  0.00000000000E+00  0.00000000000E+00  0.10018200240E+04  0.10018200240E+04  0.00000000000E+00 0.  1.
         21   -1    0    0  502  503 -0.00000000000E+00 -0.00000000000E+00 -0.28596307515E+03  0.28596307515E+03  0.00000000000E+00 0. -1.
          6    1    1    2  501    0 -0.54147158769E+02 -0.23979321257E+03  0.89068142831E+03  0.94003994932E+03  0.17300000000E+03 0.  1.
         -6    1    1    2    0  503  0.54147158769E+02  0.23979321257E+03 -0.17482447949E+03  0.34774314979E+03  0.17300000000E+03 0. -1.
<mgrwt>
<rscale>  2 0.30060223E+03</rscale>
<asrwt>0</asrwt>
<pdfrwt beam="1">  1       21 0.15412616E+00 0.30060223E+03</pdfrwt>
<pdfrwt beam="2">  1       21 0.43994320E-01 0.30060223E+03</pdfrwt>
<totfact> 0.12640222E+03</totfact>
</mgrwt>
</event>
<event>
 4    2  0.3903561E+000  0.1820670E+03  0.7546771E-02  0.1165817E+00
         21   -1    0    0  503  502  0.00000000000E+00  0.00000000000E+00  0.19042324823E+03  0.19042324823E+03  0.00000000000E+00 0. -1.
         21   -1    0    0  501  503 -0.00000000000E+00 -0.00000000000E+00 -0.18233483919E+03  0.18233483919E+03  0.00000000000E+00 0. -1.
          6    1    1    2  501    0  0.18023837760E+01  0.56711179882E+02  0.43706863564E+02  0.18723967644E+03  0.17300000000E+03 0. -1.
         -6    1    1    2    0  502 -0.18023837760E+01 -0.56711179882E+02 -0.35618454518E+02  0.18551841098E+03  0.17300000000E+03 0. -1.
<mgrwt>
<rscale>  2 0.18206704E+03</rscale>
<asrwt>0</asrwt>
<pdfrwt beam="1">  1       21 0.29295884E-01 0.18206704E+03</pdfrwt>
<pdfrwt beam="2">  1       21 0.28051514E-01 0.18206704E+03</pdfrwt>
<totfact> 0.13596805E+05</totfact>
</mgrwt>
</event>
<event>
 4    2  0.3903561E+000  0.1931882E+03  0.7546771E-02  0.1155617E+00
         21   -1    0    0  501  502  0.00000000000E+00  0.00000000000E+00  0.14770353673E+03  0.14770353673E+03  0.00000000000E+00 0. -1.
         21   -1    0    0  502  503 -0.00000000000E+00 -0.00000000000E+00 -0.36405479419E+03  0.36405479419E+03  0.00000000000E+00 0. -1.
          6    1    1    2  501    0 -0.85393460176E+02  0.10031759833E+02  0.33353447194E+02  0.19604624884E+03  0.17300000000E+03 0. -1.
         -6    1    1    2    0  503  0.85393460176E+02 -0.10031759833E+02 -0.24970470465E+03  0.31571208208E+03  0.17300000000E+03 0. -1.
<mgrwt>
<rscale>  2 0.19318820E+03</rscale>
<asrwt>0</asrwt>
<pdfrwt beam="1">  1       21 0.22723621E-01 0.19318820E+03</pdfrwt>
<pdfrwt beam="2">  1       21 0.56008429E-01 0.19318820E+03</pdfrwt>
<totfact> 0.54492822E+04</totfact>
</mgrwt>
</event>
<event>
 4    2  0.3903561E+000  0.2102067E+03  0.7546771E-02  0.1141402E+00
         21   -1    0    0  503  502  0.00000000000E+00  0.00000000000E+00  0.67945974135E+02  0.67945974135E+02  0.00000000000E+00 0. -1.
         21   -1    0    0  501  503 -0.00000000000E+00 -0.00000000000E+00 -0.65307635387E+03  0.65307635387E+03  0.00000000000E+00 0. -1.
          6    1    1    2  501    0 -0.24780764816E+02 -0.11680662922E+03 -0.31597054775E+03  0.37950528584E+03  0.17300000000E+03 0. -1.
         -6    1    1    2    0  502  0.24780764816E+02  0.11680662922E+03 -0.26915983199E+03  0.34151704217E+03  0.17300000000E+03 0. -1.
<mgrwt>
<rscale>  2 0.21020674E+03</rscale>
<asrwt>0</asrwt>
<pdfrwt beam="1">  1       21 0.10453227E-01 0.21020674E+03</pdfrwt>
<pdfrwt beam="2">  1       21 0.10047328E+00 0.21020674E+03</pdfrwt>
<totfact> 0.60386698E+04</totfact>
</mgrwt>
</event>
<event>
 4    2  0.3903561E+000  0.2123065E+03  0.7546771E-02  0.1139752E+00
         21   -1    0    0  503  502  0.00000000000E+00  0.00000000000E+00  0.22001958374E+03  0.22001958374E+03  0.00000000000E+00 0.  1.
         21   -1    0    0  501  503 -0.00000000000E+00 -0.00000000000E+00 -0.20705989018E+03  0.20705989018E+03  0.00000000000E+00 0. -1.
          6    1    1    2  501    0  0.50970772398E+02 -0.11201356741E+03 -0.15511452552E+02  0.21287241269E+03  0.17300000000E+03 0.  1.
         -6    1    1    2    0  502 -0.50970772398E+02  0.11201356741E+03  0.28471146115E+02  0.21420706124E+03  0.17300000000E+03 0. -1.
<mgrwt>
<rscale>  2 0.21230652E+03</rscale>
<asrwt>0</asrwt>
<pdfrwt beam="1">  1       21 0.33849167E-01 0.21230652E+03</pdfrwt>
<pdfrwt beam="2">  1       21 0.31855368E-01 0.21230652E+03</pdfrwt>
<totfact> 0.79013862E+04</totfact>
</mgrwt>
</event>
<event>
 4    2  0.3903561E+000  0.2214400E+03  0.7546771E-02  0.1132814E+00
         21   -1    0    0  501  502  0.00000000000E+00  0.00000000000E+00  0.28066144517E+03  0.28066144517E+03  0.00000000000E+00 0. -1.
         21   -1    0    0  502  503 -0.00000000000E+00 -0.00000000000E+00 -0.17501688901E+03  0.17501688901E+03  0.00000000000E+00 0. -1.
          6    1    1    2  501    0  0.13061865180E+03  0.45226541130E+02  0.62290058038E+02  0.23003417909E+03  0.17300000000E+03 0. -1.
         -6    1    1    2    0  503 -0.13061865180E+03 -0.45226541130E+02  0.43354498124E+02  0.22564415509E+03  0.17300000000E+03 0. -1.
<mgrwt>
<rscale>  2 0.22144000E+03</rscale>
<asrwt>0</asrwt>
<pdfrwt beam="1">  1       21 0.43178684E-01 0.22144000E+03</pdfrwt>
<pdfrwt beam="2">  1       21 0.26925675E-01 0.22144000E+03</pdfrwt>
<totfact> 0.66907715E+04</totfact>
</mgrwt>
</event>
<event>
 4    2  0.3903561E+000  0.2063098E+03  0.7546771E-02  0.1144522E+00
         21   -1    0    0  501  502  0.00000000000E+00  0.00000000000E+00  0.28452011249E+03  0.28452011249E+03  0.00000000000E+00 0.  1.
         21   -1    0    0  502  503 -0.00000000000E+00 -0.00000000000E+00 -0.20988872869E+03  0.20988872869E+03  0.00000000000E+00 0. -1.
          6    1    1    2  501    0 -0.51010113118E+02 -0.10016337201E+03  0.16980650460E+03  0.26720400771E+03  0.17300000000E+03 0.  1.
         -6    1    1    2    0  503  0.51010113118E+02  0.10016337201E+03 -0.95175120803E+02  0.22720483347E+03  0.17300000000E+03 0. -1.
<mgrwt>
<rscale>  2 0.20630980E+03</rscale>
<asrwt>0</asrwt>
<pdfrwt beam="1">  1       21 0.43772325E-01 0.20630980E+03</pdfrwt>
<pdfrwt beam="2">  1       21 0.32290573E-01 0.20630980E+03</pdfrwt>
<totfact> 0.45961314E+04</totfact>
</mgrwt>
</event>
<event>
 4    2  0.3903561E+000  0.4211161E+03  0.7546771E-02  0.1036704E+00
         21   -1    0    0  503  502  0.00000000000E+00  0.00000000000E+00  0.12781589392E+03  0.12781589392E+03  0.00000000000E+00 0. -1.
         21   -1    0    0  501  503 -0.00000000000E+00 -0.00000000000E+00 -0.16073612312E+04  0.16073612312E+04  0.00000000000E+00 0.  1.
          6    1    1    2  501    0  0.21989419026E+03 -0.31473214660E+03 -0.10606773199E+04  0.11412165246E+04  0.17300000000E+03 0. -1.
         -6    1    1    2    0  502 -0.21989419026E+03  0.31473214660E+03 -0.41886801734E+03  0.59396060052E+03  0.17300000000E+03 0.  1.
<mgrwt>
<rscale>  2 0.42111611E+03</rscale>
<asrwt>0</asrwt>
<pdfrwt beam="1">  1       21 0.19663985E-01 0.42111611E+03</pdfrwt>
<pdfrwt beam="2">  1       21 0.24728633E+00 0.42111611E+03</pdfrwt>
<totfact> 0.13786392E+03</totfact>
</mgrwt>
</event>
<event>
 4    2  0.3903561E+000  0.1901758E+03  0.7546771E-02  0.1158303E+00
         21   -1    0    0  503  502  0.00000000000E+00  0.00000000000E+00  0.57673760489E+03  0.57673760489E+03  0.00000000000E+00 0.  1.
         21   -1    0    0  501  503 -0.00000000000E+00 -0.00000000000E+00 -0.28200945422E+03  0.28200945422E+03  0.00000000000E+00 0. -1.
          6    1    1    2  501    0  0.56977714642E+02  0.54693362675E+02 -0.23127277631E+03  0.29942264602E+03  0.17300000000E+03 0. -1.
         -6    1    1    2    0  502 -0.56977714642E+02 -0.54693362675E+02  0.52600092698E+03  0.55932441309E+03  0.17300000000E+03 0.  1.
<mgrwt>
<rscale>  2 0.19017577E+03</rscale>
<asrwt>0</asrwt>
<pdfrwt beam="1">  1       21 0.88728862E-01 0.19017577E+03</pdfrwt>
<pdfrwt beam="2">  1       21 0.43386070E-01 0.19017577E+03</pdfrwt>
<totfact> 0.55551831E+03</totfact>
</mgrwt>
</event>
<event>
 4    2  0.3903561E+000  0.1746580E+03  0.7546771E-02  0.1173076E+00
         21   -1    0    0  501  502  0.00000000000E+00  0.00000000000E+00  0.35796646856E+03  0.35796646856E+03  0.00000000000E+00 0. -1.
         21   -1    0    0  502  503 -0.00000000000E+00 -0.00000000000E+00 -0.12842012705E+03  0.12842012705E+03  0.00000000000E+00 0. -1.
          6    1    1    2  501    0 -0.23813632043E+02 -0.30520161607E+01  0.25582689823E+03  0.30976249891E+03  0.17300000000E+03 0. -1.
         -6    1    1    2    0  503  0.23813632043E+02  0.30520161607E+01 -0.26280556715E+02  0.17662409670E+03  0.17300000000E+03 0. -1.
<mgrwt>
<rscale>  2 0.17465796E+03</rscale>
<asrwt>0</asrwt>
<pdfrwt beam="1">  1       21 0.55071764E-01 0.17465796E+03</pdfrwt>
<pdfrwt beam="2">  1       21 0.19756943E-01 0.17465796E+03</pdfrwt>
<totfact> 0.74023751E+04</totfact>
</mgrwt>
</event>
<event>
 4    2  0.3903561E+000  0.2789443E+03  0.7546771E-02  0.1096267E+00
         21   -1    0    0  501  502  0.00000000000E+00  0.00000000000E+00  0.10761784015E+04  0.10761784015E+04  0.00000000000E+00 0. -1.
         21   -1    0    0  502  503 -0.00000000000E+00 -0.00000000000E+00 -0.76653335177E+02  0.76653335177E+02  0.00000000000E+00 0. -1.
          6    1    1    2  501    0 -0.21332519275E+03  0.48716558842E+02  0.63709634908E+03  0.69548666340E+03  0.17300000000E+03 0. -1.
         -6    1    1    2    0  503  0.21332519275E+03 -0.48716558842E+02  0.36242871728E+03  0.45734507330E+03  0.17300000000E+03 0. -1.
<mgrwt>
<rscale>  2 0.27894433E+03</rscale>
<asrwt>0</asrwt>
<pdfrwt beam="1">  1       21 0.16556590E+00 0.27894433E+03</pdfrwt>
<pdfrwt beam="2">  1       21 0.11792822E-01 0.27894433E+03</pdfrwt>
<totfact> 0.13145180E+04</totfact>
</mgrwt>
</event>
<event>
 4    2  0.3903561E+000  0.1938952E+03  0.7546771E-02  0.1154994E+00
         21   -1    0    0  501  502  0.00000000000E+00  0.00000000000E+00  0.88611226241E+03  0.88611226241E+03  0.00000000000E+00 0. -1.
         21   -1    0    0  502  503 -0.00000000000E+00 -0.00000000000E+00 -0.42648704851E+02  0.42648704851E+02  0.00000000000E+00 0. -1.
          6    1    1    2  501    0  0.64182783966E+02  0.59555939847E+02  0.38827170875E+03  0.43399338652E+03  0.17300000000E+03 0. -1.
         -6    1    1    2    0  503 -0.64182783966E+02 -0.59555939847E+02  0.45519184881E+03  0.49476758074E+03  0.17300000000E+03 0. -1.
<mgrwt>
<rscale>  2 0.19389518E+03</rscale>
<asrwt>0</asrwt>
<pdfrwt beam="1">  1       21 0.13632495E+00 0.19389518E+03</pdfrwt>
<pdfrwt beam="2">  1       21 0.65613399E-02 0.19389518E+03</pdfrwt>
<totfact> 0.64765094E+04</totfact>
</mgrwt>
</event>
<event>
 4    2  0.3903561E+000  0.1813048E+03  0.7546771E-02  0.1166546E+00
         21   -1    0    0  501  502  0.00000000000E+00  0.00000000000E+00  0.99154144662E+02  0.99154144662E+02  0.00000000000E+00 0. -1.
         21   -1    0    0  502  503 -0.00000000000E+00 -0.00000000000E+00 -0.33169688313E+03  0.33169688313E+03  0.00000000000E+00 0. -1.
          6    1    1    2  501    0  0.84113996727E+01  0.53588031929E+02 -0.11127495395E+03  0.21272880432E+03  0.17300000000E+03 0. -1.
         -6    1    1    2    0  503 -0.84113996727E+01 -0.53588031929E+02 -0.12126778452E+03  0.21812222347E+03  0.17300000000E+03 0. -1.
<mgrwt>
<rscale>  2 0.18130480E+03</rscale>
<asrwt>0</asrwt>
<pdfrwt beam="1">  1       21 0.15254484E-01 0.18130480E+03</pdfrwt>
<pdfrwt beam="2">  1       21 0.51030290E-01 0.18130480E+03</pdfrwt>
<totfact> 0.13944810E+05</totfact>
</mgrwt>
</event>
<event>
 4    2  0.3903561E+000  0.1924004E+03  0.7546771E-02  0.1156314E+00
         21   -1    0    0  501  502  0.00000000000E+00  0.00000000000E+00  0.12799896104E+03  0.12799896104E+03  0.00000000000E+00 0.  1.
         21   -1    0    0  502  503 -0.00000000000E+00 -0.00000000000E+00 -0.71415317564E+03  0.71415317564E+03  0.00000000000E+00 0.  1.
          6    1    1    2  501    0 -0.44450840362E+02 -0.71505472523E+02  0.31735573965E+02  0.19500014478E+03  0.17300000000E+03 0.  1.
         -6    1    1    2    0  503  0.44450840362E+02  0.71505472523E+02 -0.61788978856E+03  0.64715199190E+03  0.17300000000E+03 0.  1.
<mgrwt>
<rscale>  2 0.19240039E+03</rscale>
<asrwt>0</asrwt>
<pdfrwt beam="1">  1       21 0.19692148E-01 0.19240039E+03</pdfrwt>
<pdfrwt beam="2">  1       21 0.10986972E+00 0.19240039E+03</pdfrwt>
<totfact> 0.15566519E+04</totfact>
</mgrwt>
</event>
<event>
 4    2  0.3903561E+000  0.1962511E+03  0.7546771E-02  0.1152941E+00
         21   -1    0    0  503  502  0.00000000000E+00  0.00000000000E+00  0.18524282581E+03  0.18524282581E+03  0.00000000000E+00 0. -1.
         21   -1    0    0  501  503 -0.00000000000E+00 -0.00000000000E+00 -0.28173067355E+03  0.28173067355E+03  0.00000000000E+00 0. -1.
          6    1    1    2  501    0 -0.90744585792E+02  0.18733060280E+02 -0.16775922536E+03  0.25818145769E+03  0.17300000000E+03 0. -1.
         -6    1    1    2    0  502  0.90744585792E+02 -0.18733060280E+02  0.71271377627E+02  0.20879204167E+03  0.17300000000E+03 0. -1.
<mgrwt>
<rscale>  2 0.19625113E+03</rscale>
<asrwt>0</asrwt>
<pdfrwt beam="1">  1       21 0.28498896E-01 0.19625113E+03</pdfrwt>
<pdfrwt beam="2">  1       21 0.43343180E-01 0.19625113E+03</pdfrwt>
<totfact> 0.60149948E+04</totfact>
</mgrwt>
</event>
<event>
 4    2  0.3903561E+000  0.1878776E+03  0.7546771E-02  0.1160390E+00
         21   -1    0    0  503  502  0.00000000000E+00  0.00000000000E+00  0.22096886466E+03  0.22096886466E+03  0.00000000000E+00 0.  1.
         21   -1    0    0  501  503 -0.00000000000E+00 -0.00000000000E+00 -0.26831225225E+03  0.26831225225E+03  0.00000000000E+00 0.  1.
          6    1    1    2  501    0 -0.41117356209E+02  0.60649505376E+02 -0.17929108464E+03  0.25969846460E+03  0.17300000000E+03 0.  1.
         -6    1    1    2    0  502  0.41117356209E+02 -0.60649505376E+02  0.13194769705E+03  0.22958265231E+03  0.17300000000E+03 0.  1.
<mgrwt>
<rscale>  2 0.18787762E+03</rscale>
<asrwt>0</asrwt>
<pdfrwt beam="1">  1       21 0.33995210E-01 0.18787762E+03</pdfrwt>
<pdfrwt beam="2">  1       21 0.41278808E-01 0.18787762E+03</pdfrwt>
<totfact> 0.47224601E+04</totfact>
</mgrwt>
</event>
<event>
 4    2  0.3903561E+000  0.2325063E+03  0.7546771E-02  0.1124888E+00
         21   -1    0    0  503  502  0.00000000000E+00  0.00000000000E+00  0.40078827671E+03  0.40078827671E+03  0.00000000000E+00 0.  1.
         21   -1    0    0  501  503 -0.00000000000E+00 -0.00000000000E+00 -0.13684518530E+03  0.13684518530E+03  0.00000000000E+00 0.  1.
          6    1    1    2  501    0 -0.21863933029E+02 -0.15379258483E+03  0.16416768975E+03  0.28462294545E+03  0.17300000000E+03 0.  1.
         -6    1    1    2    0  502  0.21863933029E+02  0.15379258483E+03  0.99775401651E+02  0.25301051656E+03  0.17300000000E+03 0.  1.
<mgrwt>
<rscale>  2 0.23250632E+03</rscale>
<asrwt>0</asrwt>
<pdfrwt beam="1">  1       21 0.61659735E-01 0.23250632E+03</pdfrwt>
<pdfrwt beam="2">  1       21 0.21053105E-01 0.23250632E+03</pdfrwt>
<totfact> 0.50294528E+04</totfact>
</mgrwt>
</event>
<event>
 4    2  0.3903561E+000  0.4249640E+03  0.7546771E-02  0.1035463E+00
         21   -1    0    0  501  502  0.00000000000E+00  0.00000000000E+00  0.24119637518E+04  0.24119637518E+04  0.00000000000E+00 0.  1.
         21   -1    0    0  502  503 -0.00000000000E+00 -0.00000000000E+00 -0.74918387266E+02  0.74918387266E+02  0.00000000000E+00 0.  1.
          6    1    1    2  501    0 -0.26052281328E+02  0.38728112674E+03  0.11986447272E+04  0.12717482355E+04  0.17300000000E+03 0.  1.
         -6    1    1    2    0  503  0.26052281328E+02 -0.38728112674E+03  0.11384006374E+04  0.12151339036E+04  0.17300000000E+03 0.  1.
<mgrwt>
<rscale>  2 0.42496399E+03</rscale>
<asrwt>0</asrwt>
<pdfrwt beam="1">  1       21 0.37107129E+00 0.42496399E+03</pdfrwt>
<pdfrwt beam="2">  1       21 0.11525908E-01 0.42496399E+03</pdfrwt>
<totfact> 0.65791427E+02</totfact>
</mgrwt>
</event>
<event>
 4    2  0.3903561E+000  0.2195101E+03  0.7546771E-02  0.1134249E+00
         21   -1    0    0  501  502  0.00000000000E+00  0.00000000000E+00  0.21866488733E+03  0.21866488733E+03  0.00000000000E+00 0.  1.
         21   -1    0    0  502  503 -0.00000000000E+00 -0.00000000000E+00 -0.34313941158E+03  0.34313941158E+03  0.00000000000E+00 0.  1.
          6    1    1    2  501    0  0.91036628386E+02  0.99840037586E+02  0.10579199647E+03  0.24367323885E+03  0.17300000000E+03 0.  1.
         -6    1    1    2    0  503 -0.91036628386E+02 -0.99840037586E+02 -0.23026652073E+03  0.31813106007E+03  0.17300000000E+03 0.  1.
<mgrwt>
<rscale>  2 0.21951014E+03</rscale>
<asrwt>0</asrwt>
<pdfrwt beam="1">  1       21 0.33640752E-01 0.21951014E+03</pdfrwt>
<pdfrwt beam="2">  1       21 0.52790678E-01 0.21951014E+03</pdfrwt>
<totfact> 0.28528638E+04</totfact>
</mgrwt>
</event>
<event>
 4    2  0.3903561E+000  0.1790197E+03  0.7546771E-02  0.1168755E+00
         21   -1    0    0  503  502  0.00000000000E+00  0.00000000000E+00  0.13554287168E+03  0.13554287168E+03  0.00000000000E+00 0. -1.
         21   -1    0    0  501  503 -0.00000000000E+00 -0.00000000000E+00 -0.24164618908E+03  0.24164618908E+03  0.00000000000E+00 0. -1.
          6    1    1    2  501    0 -0.38586265399E+01 -0.45871095805E+02 -0.80728076347E+02  0.19637990921E+03  0.17300000000E+03 0. -1.
         -6    1    1    2    0  502  0.38586265399E+01  0.45871095805E+02 -0.25375241049E+02  0.18080915156E+03  0.17300000000E+03 0. -1.
<mgrwt>
<rscale>  2 0.17901968E+03</rscale>
<asrwt>0</asrwt>
<pdfrwt beam="1">  1       21 0.20852749E-01 0.17901968E+03</pdfrwt>
<pdfrwt beam="2">  1       21 0.37176337E-01 0.17901968E+03</pdfrwt>
<totfact> 0.14962693E+05</totfact>
</mgrwt>
</event>
<event>
 4    2  0.3903561E+000  0.1828895E+03  0.7546771E-02  0.1165036E+00
         21   -1    0    0  503  502  0.00000000000E+00  0.00000000000E+00  0.44454598707E+03  0.44454598707E+03  0.00000000000E+00 0. -1.
         21   -1    0    0  501  503 -0.00000000000E+00 -0.00000000000E+00 -0.78388570674E+02  0.78388570674E+02  0.00000000000E+00 0.  1.
          6    1    1    2  501    0 -0.37433658687E+02  0.46024924094E+02  0.13069418436E+03  0.22478777161E+03  0.17300000000E+03 0.  1.
         -6    1    1    2    0  502  0.37433658687E+02 -0.46024924094E+02  0.23546323203E+03  0.29814678613E+03  0.17300000000E+03 0.  1.
<mgrwt>
<rscale>  2 0.18288951E+03</rscale>
<asrwt>0</asrwt>
<pdfrwt beam="1">  1       21 0.68391689E-01 0.18288951E+03</pdfrwt>
<pdfrwt beam="2">  1       21 0.12059780E-01 0.18288951E+03</pdfrwt>
<totfact> 0.11383432E+05</totfact>
</mgrwt>
</event>
<event>
 4    2  0.3903561E+000  0.1768794E+03  0.7546771E-02  0.1170858E+00
         21   -1    0    0  503  502  0.00000000000E+00  0.00000000000E+00  0.45532789209E+02  0.45532789209E+02  0.00000000000E+00 0. -1.
         21   -1    0    0  501  503 -0.00000000000E+00 -0.00000000000E+00 -0.16869449653E+04  0.16869449653E+04  0.00000000000E+00 0. -1.
          6    1    1    2  501    0  0.96439074799E+01 -0.35557263133E+02 -0.14875896232E+04  0.14980684934E+04  0.17300000000E+03 0. -1.
         -6    1    1    2    0  502 -0.96439074799E+01  0.35557263133E+02 -0.15382255292E+03  0.23440926112E+03  0.17300000000E+03 0. -1.
<mgrwt>
<rscale>  2 0.17687940E+03</rscale>
<asrwt>0</asrwt>
<pdfrwt beam="1">  1       21 0.70050457E-02 0.17687940E+03</pdfrwt>
<pdfrwt beam="2">  1       21 0.25952995E+00 0.17687940E+03</pdfrwt>
<totfact> 0.89786038E+03</totfact>
</mgrwt>
</event>
<event>
 4    2  0.3903561E+000  0.1814612E+03  0.7546771E-02  0.1166396E+00
         21   -1    0    0  503  502  0.00000000000E+00  0.00000000000E+00  0.51277831798E+03  0.51277831798E+03  0.00000000000E+00 0.  1.
         21   -1    0    0  501  503 -0.00000000000E+00 -0.00000000000E+00 -0.96685170838E+02  0.96685170838E+02  0.00000000000E+00 0.  1.
          6    1    1    2  501    0 -0.53735594488E+02  0.10566210524E+02  0.38464171705E+03  0.42529684859E+03  0.17300000000E+03 0.  1.
         -6    1    1    2    0  502  0.53735594488E+02 -0.10566210524E+02  0.31451430089E+02  0.18416664023E+03  0.17300000000E+03 0.  1.
<mgrwt>
<rscale>  2 0.18146118E+03</rscale>
<asrwt>0</asrwt>
<pdfrwt beam="1">  1       21 0.78888970E-01 0.18146118E+03</pdfrwt>
<pdfrwt beam="2">  1       21 0.14874642E-01 0.18146118E+03</pdfrwt>
<totfact> 0.56835548E+04</totfact>
</mgrwt>
</event>
<event>
 4    2  0.3903561E+000  0.1806803E+03  0.7546771E-02  0.1167146E+00
         21   -1    0    0  503  502  0.00000000000E+00  0.00000000000E+00  0.40531566249E+02  0.40531566249E+02  0.00000000000E+00 0.  1.
         21   -1    0    0  501  503 -0.00000000000E+00 -0.00000000000E+00 -0.13688136236E+04  0.13688136236E+04  0.00000000000E+00 0.  1.
          6    1    1    2  501    0  0.42459950938E+02  0.30224360127E+02 -0.11162229519E+04  0.11307515366E+04  0.17300000000E+03 0.  1.
         -6    1    1    2    0  502 -0.42459950938E+02 -0.30224360127E+02 -0.21205910548E+03  0.27859365318E+03  0.17300000000E+03 0.  1.
<mgrwt>
<rscale>  2 0.18068027E+03</rscale>
<asrwt>0</asrwt>
<pdfrwt beam="1">  1       21 0.62356253E-02 0.18068027E+03</pdfrwt>
<pdfrwt beam="2">  1       21 0.21058672E+00 0.18068027E+03</pdfrwt>
<totfact> 0.21439723E+04</totfact>
</mgrwt>
</event>
<event>
 4    2  0.3903561E+000  0.2595154E+03  0.7546771E-02  0.1107435E+00
         21   -1    0    0  503  502  0.00000000000E+00  0.00000000000E+00  0.26771878586E+03  0.26771878586E+03  0.00000000000E+00 0. -1.
         21   -1    0    0  501  503 -0.00000000000E+00 -0.00000000000E+00 -0.26893588998E+03  0.26893588998E+03  0.00000000000E+00 0. -1.
          6    1    1    2  501    0  0.19234222978E+03  0.20584065718E+02 -0.68806622018E+02  0.26848200750E+03  0.17300000000E+03 0. -1.
         -6    1    1    2    0  502 -0.19234222978E+03 -0.20584065718E+02  0.67589517903E+02  0.26817266834E+03  0.17300000000E+03 0. -1.
<mgrwt>
<rscale>  2 0.25951539E+03</rscale>
<asrwt>0</asrwt>
<pdfrwt beam="1">  1       21 0.41187505E-01 0.25951539E+03</pdfrwt>
<pdfrwt beam="2">  1       21 0.41374752E-01 0.25951539E+03</pdfrwt>
<totfact> 0.30912089E+04</totfact>
</mgrwt>
</event>
<event>
 4    2  0.3903561E+000  0.2191234E+03  0.7546771E-02  0.1134538E+00
         21   -1    0    0  503  502  0.00000000000E+00  0.00000000000E+00  0.92840223989E+02  0.92840223989E+02  0.00000000000E+00 0.  1.
         21   -1    0    0  501  503 -0.00000000000E+00 -0.00000000000E+00 -0.51889339032E+03  0.51889339032E+03  0.00000000000E+00 0.  1.
          6    1    1    2  501    0  0.49529897805E+02 -0.12503139976E+03 -0.19544802221E+03  0.29362389393E+03  0.17300000000E+03 0.  1.
         -6    1    1    2    0  502 -0.49529897805E+02  0.12503139976E+03 -0.23060514411E+03  0.31810972037E+03  0.17300000000E+03 0.  1.
<mgrwt>
<rscale>  2 0.21912339E+03</rscale>
<asrwt>0</asrwt>
<pdfrwt beam="1">  1       21 0.14283111E-01 0.21912339E+03</pdfrwt>
<pdfrwt beam="2">  1       21 0.79829753E-01 0.21912339E+03</pdfrwt>
<totfact> 0.58529446E+04</totfact>
</mgrwt>
</event>
<event>
 4    2  0.3903561E+000  0.1831137E+03  0.7546771E-02  0.1164823E+00
         21   -1    0    0  503  502  0.00000000000E+00  0.00000000000E+00  0.10199365285E+03  0.10199365285E+03  0.00000000000E+00 0. -1.
         21   -1    0    0  501  503 -0.00000000000E+00 -0.00000000000E+00 -0.43016951414E+03  0.43016951414E+03  0.00000000000E+00 0. -1.
          6    1    1    2  501    0  0.33422637087E+02  0.49845423548E+02 -0.29328451438E+03  0.34575489193E+03  0.17300000000E+03 0. -1.
         -6    1    1    2    0  502 -0.33422637087E+02 -0.49845423548E+02 -0.34891346910E+02  0.18640827505E+03  0.17300000000E+03 0. -1.
<mgrwt>
<rscale>  2 0.18311373E+03</rscale>
<asrwt>0</asrwt>
<pdfrwt beam="1">  1       21 0.15691331E-01 0.18311373E+03</pdfrwt>
<pdfrwt beam="2">  1       21 0.66179925E-01 0.18311373E+03</pdfrwt>
<totfact> 0.76026779E+04</totfact>
</mgrwt>
</event>
<event>
 4    2  0.3903561E+000  0.1932484E+03  0.7546771E-02  0.1155564E+00
         21   -1    0    0  501  502  0.00000000000E+00  0.00000000000E+00  0.71216208499E+02  0.71216208499E+02  0.00000000000E+00 0. -1.
         21   -1    0    0  502  503 -0.00000000000E+00 -0.00000000000E+00 -0.35357478421E+04  0.35357478421E+04  0.00000000000E+00 0. -1.
          6    1    1    2  501    0 -0.40160435914E+02  0.76177914995E+02 -0.67885800649E+02  0.20482533358E+03  0.17300000000E+03 0. -1.
         -6    1    1    2    0  503  0.40160435914E+02 -0.76177914995E+02 -0.33966458330E+04  0.34021387171E+04  0.17300000000E+03 0. -1.
<mgrwt>
<rscale>  2 0.19324838E+03</rscale>
<asrwt>0</asrwt>
<pdfrwt beam="1">  1       21 0.10956342E-01 0.19324838E+03</pdfrwt>
<pdfrwt beam="2">  1       21 0.54396111E+00 0.19324838E+03</pdfrwt>
<totfact> 0.62773954E+01</totfact>
</mgrwt>
</event>
<event>
 4    2  0.3903561E+000  0.1849078E+03  0.7546771E-02  0.1163136E+00
         21   -1    0    0  501  502  0.00000000000E+00  0.00000000000E+00  0.24366511445E+03  0.24366511445E+03  0.00000000000E+00 0.  1.
         21   -1    0    0  502  503 -0.00000000000E+00 -0.00000000000E+00 -0.11663605069E+04  0.11663605069E+04  0.00000000000E+00 0. -1.
          6    1    1    2  501    0  0.52004574671E+02 -0.39464349717E+02  0.19989823630E+03  0.27230537189E+03  0.17300000000E+03 0.  1.
         -6    1    1    2    0  503 -0.52004574671E+02  0.39464349717E+02 -0.11225936287E+04  0.11377202494E+04  0.17300000000E+03 0. -1.
<mgrwt>
<rscale>  2 0.18490784E+03</rscale>
<asrwt>0</asrwt>
<pdfrwt beam="1">  1       21 0.37486941E-01 0.18490784E+03</pdfrwt>
<pdfrwt beam="2">  1       21 0.17944008E+00 0.18490784E+03</pdfrwt>
<totfact> 0.12704132E+03</totfact>
</mgrwt>
</event>
<event>
 4    2  0.3903561E+000  0.2013333E+03  0.7546771E-02  0.1148619E+00
         21   -1    0    0  503  502  0.00000000000E+00  0.00000000000E+00  0.27763988070E+04  0.27763988070E+04  0.00000000000E+00 0.  1.
         21   -1    0    0  501  503 -0.00000000000E+00 -0.00000000000E+00 -0.25268980737E+02  0.25268980737E+02  0.00000000000E+00 0.  1.
          6    1    1    2  501    0 -0.45858970298E+02  0.92212027123E+02  0.46532350867E+03  0.50701190403E+03  0.17300000000E+03 0.  1.
         -6    1    1    2    0  502  0.45858970298E+02 -0.92212027123E+02  0.22858063176E+04  0.22946558837E+04  0.17300000000E+03 0.  1.
<mgrwt>
<rscale>  2 0.20133331E+03</rscale>
<asrwt>0</asrwt>
<pdfrwt beam="1">  1       21 0.42713804E+00 0.20133331E+03</pdfrwt>
<pdfrwt beam="2">  1       21 0.38875377E-02 0.20133331E+03</pdfrwt>
<totfact> 0.23818127E+03</totfact>
</mgrwt>
</event>
<event>
 4    2  0.3903561E+000  0.2514059E+03  0.7546771E-02  0.1112420E+00
         21   -1    0    0  503  502  0.00000000000E+00  0.00000000000E+00  0.29455483088E+02  0.29455483088E+02  0.00000000000E+00 0.  1.
         21   -1    0    0  501  503 -0.00000000000E+00 -0.00000000000E+00 -0.24578841365E+04  0.24578841365E+04  0.00000000000E+00 0.  1.
          6    1    1    2  501    0 -0.12922123234E+03 -0.12875479745E+03 -0.16573896901E+04  0.16763488627E+04  0.17300000000E+03 0.  1.
         -6    1    1    2    0  502  0.12922123234E+03  0.12875479745E+03 -0.77103896332E+03  0.81099075686E+03  0.17300000000E+03 0.  1.
<mgrwt>
<rscale>  2 0.25140590E+03</rscale>
<asrwt>0</asrwt>
<pdfrwt beam="1">  1       21 0.45316131E-02 0.25140590E+03</pdfrwt>
<pdfrwt beam="2">  1       21 0.37813600E+00 0.25140590E+03</pdfrwt>
<totfact> 0.35155594E+03</totfact>
</mgrwt>
</event>
<event>
 4    2  0.3903561E+000  0.1873036E+03  0.7546771E-02  0.1160916E+00
         21   -1    0    0  503  502  0.00000000000E+00  0.00000000000E+00  0.33774808977E+03  0.33774808977E+03  0.00000000000E+00 0. -1.
         21   -1    0    0  501  503 -0.00000000000E+00 -0.00000000000E+00 -0.47245859861E+03  0.47245859861E+03  0.00000000000E+00 0. -1.
          6    1    1    2  501    0 -0.10263270951E+02  0.71051347910E+02 -0.42516619595E+03  0.46459544008E+03  0.17300000000E+03 0. -1.
         -6    1    1    2    0  502  0.10263270951E+02 -0.71051347910E+02  0.29045568711E+03  0.34561124829E+03  0.17300000000E+03 0. -1.
<mgrwt>
<rscale>  2 0.18730357E+03</rscale>
<asrwt>0</asrwt>
<pdfrwt beam="1">  1       21 0.51961245E-01 0.18730357E+03</pdfrwt>
<pdfrwt beam="2">  1       21 0.72685938E-01 0.18730357E+03</pdfrwt>
<totfact> 0.60182963E+03</totfact>
</mgrwt>
</event>
<event>
 4    2  0.3903561E+000  0.2883418E+03  0.7546771E-02  0.1091218E+00
         21   -1    0    0  503  502  0.00000000000E+00  0.00000000000E+00  0.24500894898E+03  0.24500894898E+03  0.00000000000E+00 0. -1.
         21   -1    0    0  501  503 -0.00000000000E+00 -0.00000000000E+00 -0.34304029734E+03  0.34304029734E+03  0.00000000000E+00 0. -1.
          6    1    1    2  501    0  0.10176221562E+03 -0.20701795529E+03 -0.18472489857E+02  0.28893289051E+03  0.17300000000E+03 0. -1.
         -6    1    1    2    0  502 -0.10176221562E+03  0.20701795529E+03 -0.79558858505E+02  0.29911635580E+03  0.17300000000E+03 0. -1.
<mgrwt>
<rscale>  2 0.28834178E+03</rscale>
<asrwt>0</asrwt>
<pdfrwt beam="1">  1       21 0.37693684E-01 0.28834178E+03</pdfrwt>
<pdfrwt beam="2">  1       21 0.52775430E-01 0.28834178E+03</pdfrwt>
<totfact> 0.22031304E+04</totfact>
</mgrwt>
</event>
<event>
 4    2  0.3903561E+000  0.2463848E+03  0.7546771E-02  0.1115611E+00
         21   -1    0    0  503  502  0.00000000000E+00  0.00000000000E+00  0.40088297809E+03  0.40088297809E+03  0.00000000000E+00 0.  1.
         21   -1    0    0  501  503 -0.00000000000E+00 -0.00000000000E+00 -0.17664103293E+03  0.17664103293E+03  0.00000000000E+00 0.  1.
          6    1    1    2  501    0  0.64888914902E+02 -0.16299045393E+03  0.30284602799E+01  0.24640339064E+03  0.17300000000E+03 0.  1.
         -6    1    1    2    0  502 -0.64888914902E+02  0.16299045393E+03  0.22121348488E+03  0.33112062038E+03  0.17300000000E+03 0.  1.
<mgrwt>
<rscale>  2 0.24638478E+03</rscale>
<asrwt>0</asrwt>
<pdfrwt beam="1">  1       21 0.61674304E-01 0.24638478E+03</pdfrwt>
<pdfrwt beam="2">  1       21 0.27175544E-01 0.24638478E+03</pdfrwt>
<totfact> 0.30679276E+04</totfact>
</mgrwt>
</event>
<event>
 4    2  0.3903561E+000  0.2103528E+03  0.7546771E-02  0.1141287E+00
         21   -1    0    0  501  502  0.00000000000E+00  0.00000000000E+00  0.33924947135E+03  0.33924947135E+03  0.00000000000E+00 0. -1.
         21   -1    0    0  502  503 -0.00000000000E+00 -0.00000000000E+00 -0.13150294010E+03  0.13150294010E+03  0.00000000000E+00 0. -1.
          6    1    1    2  501    0  0.11076251893E+03  0.45287487138E+02  0.12513469130E+03  0.24475903060E+03  0.17300000000E+03 0. -1.
         -6    1    1    2    0  503 -0.11076251893E+03 -0.45287487138E+02  0.82611839938E+02  0.22599338085E+03  0.17300000000E+03 0. -1.
<mgrwt>
<rscale>  2 0.21035278E+03</rscale>
<asrwt>0</asrwt>
<pdfrwt beam="1">  1       21 0.52192226E-01 0.21035278E+03</pdfrwt>
<pdfrwt beam="2">  1       21 0.20231222E-01 0.21035278E+03</pdfrwt>
<totfact> 0.78097621E+04</totfact>
</mgrwt>
</event>
<event>
 4    2  0.3903561E+000  0.1732706E+03  0.7546771E-02  0.1174479E+00
         21   -1    0    0  503  502  0.00000000000E+00  0.00000000000E+00  0.25550075576E+02  0.25550075576E+02  0.00000000000E+00 0.  1.
         21   -1    0    0  501  503 -0.00000000000E+00 -0.00000000000E+00 -0.13725214572E+04  0.13725214572E+04  0.00000000000E+00 0.  1.
          6    1    1    2  501    0 -0.66561381689E+01  0.70279837703E+01 -0.93863379726E+03  0.95449258881E+03  0.17300000000E+03 0.  1.
         -6    1    1    2    0  502  0.66561381689E+01 -0.70279837703E+01 -0.40833758441E+03  0.44357894401E+03  0.17300000000E+03 0.  1.
<mgrwt>
<rscale>  2 0.17327059E+03</rscale>
<asrwt>0</asrwt>
<pdfrwt beam="1">  1       21 0.39307813E-02 0.17327059E+03</pdfrwt>
<pdfrwt beam="2">  1       21 0.21115712E+00 0.17327059E+03</pdfrwt>
<totfact> 0.46678297E+04</totfact>
</mgrwt>
</event>
<event>
 4    2  0.3903561E+000  0.1839266E+03  0.7546771E-02  0.1164056E+00
         21   -1    0    0  501  502  0.00000000000E+00  0.00000000000E+00  0.76762249102E+02  0.76762249102E+02  0.00000000000E+00 0. -1.
         21   -1    0    0  502  503 -0.00000000000E+00 -0.00000000000E+00 -0.86229850993E+03  0.86229850993E+03  0.00000000000E+00 0. -1.
          6    1    1    2  501    0 -0.60122669040E+02  0.16889870927E+02 -0.64457292969E+02  0.19489419101E+03  0.17300000000E+03 0. -1.
         -6    1    1    2    0  503  0.60122669040E+02 -0.16889870927E+02 -0.72107896786E+03  0.74416656803E+03  0.17300000000E+03 0. -1.
<mgrwt>
<rscale>  2 0.18392662E+03</rscale>
<asrwt>0</asrwt>
<pdfrwt beam="1">  1       21 0.11809577E-01 0.18392662E+03</pdfrwt>
<pdfrwt beam="2">  1       21 0.13266130E+00 0.18392662E+03</pdfrwt>
<totfact> 0.24932198E+04</totfact>
</mgrwt>
</event>
<event>
 4    2  0.3903561E+000  0.1875028E+03  0.7546771E-02  0.1160733E+00
         21   -1    0    0  501  502  0.00000000000E+00  0.00000000000E+00  0.70037231169E+02  0.70037231169E+02  0.00000000000E+00 0. -1.
         21   -1    0    0  502  503 -0.00000000000E+00 -0.00000000000E+00 -0.67121327669E+03  0.67121327669E+03  0.00000000000E+00 0. -1.
          6    1    1    2  501    0  0.96760258192E+01  0.71656734575E+02 -0.48668837067E+03  0.52155813025E+03  0.17300000000E+03 0. -1.
         -6    1    1    2    0  503 -0.96760258192E+01 -0.71656734575E+02 -0.11448767485E+03  0.21969237761E+03  0.17300000000E+03 0. -1.
<mgrwt>
<rscale>  2 0.18750283E+03</rscale>
<asrwt>0</asrwt>
<pdfrwt beam="1">  1       21 0.10774958E-01 0.18750283E+03</pdfrwt>
<pdfrwt beam="2">  1       21 0.10326359E+00 0.18750283E+03</pdfrwt>
<totfact> 0.54199617E+04</totfact>
</mgrwt>
</event>
<event>
 4    2  0.3903561E+000  0.1864648E+03  0.7546771E-02  0.1161689E+00
         21   -1    0    0  501  502  0.00000000000E+00  0.00000000000E+00  0.10596159429E+03  0.10596159429E+03  0.00000000000E+00 0. -1.
         21   -1    0    0  502  503 -0.00000000000E+00 -0.00000000000E+00 -0.33042119308E+03  0.33042119308E+03  0.00000000000E+00 0. -1.
          6    1    1    2  501    0  0.28473744898E+02  0.63477294319E+02 -0.94058524817E+02  0.20884474409E+03  0.17300000000E+03 0. -1.
         -6    1    1    2    0  503 -0.28473744898E+02 -0.63477294319E+02 -0.13040107397E+03  0.22753804327E+03  0.17300000000E+03 0. -1.
<mgrwt>
<rscale>  2 0.18646480E+03</rscale>
<asrwt>0</asrwt>
<pdfrwt beam="1">  1       21 0.16301784E-01 0.18646480E+03</pdfrwt>
<pdfrwt beam="2">  1       21 0.50834030E-01 0.18646480E+03</pdfrwt>
<totfact> 0.12430171E+05</totfact>
</mgrwt>
</event>
<event>
 4    2  0.3903561E+000  0.2771944E+03  0.7546771E-02  0.1097231E+00
         21   -1    0    0  503  502  0.00000000000E+00  0.00000000000E+00  0.40934008170E+03  0.40934008170E+03  0.00000000000E+00 0.  1.
         21   -1    0    0  501  503 -0.00000000000E+00 -0.00000000000E+00 -0.19305720379E+03  0.19305720379E+03  0.00000000000E+00 0.  1.
          6    1    1    2  501    0 -0.55967551611E+02 -0.20922568635E+03  0.58008842224E+02  0.28319918863E+03  0.17300000000E+03 0.  1.
         -6    1    1    2    0  502  0.55967551611E+02  0.20922568635E+03  0.15827403570E+03  0.31919809686E+03  0.17300000000E+03 0.  1.
<mgrwt>
<rscale>  2 0.27719443E+03</rscale>
<asrwt>0</asrwt>
<pdfrwt beam="1">  1       21 0.62975397E-01 0.27719443E+03</pdfrwt>
<pdfrwt beam="2">  1       21 0.29701108E-01 0.27719443E+03</pdfrwt>
<totfact> 0.24322020E+04</totfact>
</mgrwt>
</event>
<event>
 4    2  0.3903561E+000  0.2695995E+03  0.7546771E-02  0.1101509E+00
         21   -1    0    0  501  502  0.00000000000E+00  0.00000000000E+00  0.60673561019E+03  0.60673561019E+03  0.00000000000E+00 0.  1.
         21   -1    0    0  502  503 -0.00000000000E+00 -0.00000000000E+00 -0.12092620678E+03  0.12092620678E+03  0.00000000000E+00 0. -1.
          6    1    1    2  501    0  0.19996728236E+03 -0.52611626950E+02  0.27809385613E+03  0.38732426999E+03  0.17300000000E+03 0.  1.
         -6    1    1    2    0  503 -0.19996728236E+03  0.52611626950E+02  0.20771554728E+03  0.34033754699E+03  0.17300000000E+03 0. -1.
<mgrwt>
<rscale>  2 0.26959951E+03</rscale>
<asrwt>0</asrwt>
<pdfrwt beam="1">  1       21 0.93343938E-01 0.26959951E+03</pdfrwt>
<pdfrwt beam="2">  1       21 0.18604032E-01 0.26959951E+03</pdfrwt>
<totfact> 0.24498761E+04</totfact>
</mgrwt>
</event>
<event>
 4    2  0.3903561E+000  0.2097058E+03  0.7546771E-02  0.1141799E+00
         21   -1    0    0  501  502  0.00000000000E+00  0.00000000000E+00  0.19444801845E+03  0.19444801845E+03  0.00000000000E+00 0. -1.
         21   -1    0    0  502  503 -0.00000000000E+00 -0.00000000000E+00 -0.17299962058E+04  0.17299962058E+04  0.00000000000E+00 0. -1.
          6    1    1    2  501    0  0.80583466658E+02  0.86912680409E+02  0.12935082106E+03  0.24639022712E+03  0.17300000000E+03 0. -1.
         -6    1    1    2    0  503 -0.80583466658E+02 -0.86912680409E+02 -0.16648990084E+04  0.16780539971E+04  0.17300000000E+03 0. -1.
<mgrwt>
<rscale>  2 0.20970577E+03</rscale>
<asrwt>0</asrwt>
<pdfrwt beam="1">  1       21 0.29915079E-01 0.20970577E+03</pdfrwt>
<pdfrwt beam="2">  1       21 0.26615327E+00 0.20970577E+03</pdfrwt>
<totfact> 0.56086216E+02</totfact>
</mgrwt>
</event>
<event>
 4    2  0.3903561E+000  0.1830616E+03  0.7546771E-02  0.1164872E+00
         21   -1    0    0  503  502  0.00000000000E+00  0.00000000000E+00  0.16082052348E+03  0.16082052348E+03  0.00000000000E+00 0. -1.
         21   -1    0    0  501  503 -0.00000000000E+00 -0.00000000000E+00 -0.24449657375E+03  0.24449657375E+03  0.00000000000E+00 0. -1.
          6    1    1    2  501    0 -0.82721236776E+01 -0.59280003872E+02  0.36053561696E+02  0.18657815038E+03  0.17300000000E+03 0. -1.
         -6    1    1    2    0  502  0.82721236776E+01  0.59280003872E+02 -0.11972961197E+03  0.21873894685E+03  0.17300000000E+03 0. -1.
<mgrwt>
<rscale>  2 0.18306159E+03</rscale>
<asrwt>0</asrwt>
<pdfrwt beam="1">  1       21 0.24741619E-01 0.18306159E+03</pdfrwt>
<pdfrwt beam="2">  1       21 0.37614857E-01 0.18306159E+03</pdfrwt>
<totfact> 0.10568402E+05</totfact>
</mgrwt>
</event>
<event>
 4    2  0.3903561E+000  0.2575593E+03  0.7546771E-02  0.1108619E+00
         21   -1    0    0  501  502  0.00000000000E+00  0.00000000000E+00  0.91534507588E+02  0.91534507588E+02  0.00000000000E+00 0. -1.
         21   -1    0    0  502  503 -0.00000000000E+00 -0.00000000000E+00 -0.72475941453E+03  0.72475941453E+03  0.00000000000E+00 0.  1.
          6    1    1    2  501    0 -0.77949657726E+02 -0.17415976257E+03 -0.31355445424E+03  0.40577477473E+03  0.17300000000E+03 0. -1.
         -6    1    1    2    0  503  0.77949657726E+02  0.17415976257E+03 -0.31967045271E+03  0.41051914739E+03  0.17300000000E+03 0.  1.
<mgrwt>
<rscale>  2 0.25755926E+03</rscale>
<asrwt>0</asrwt>
<pdfrwt beam="1">  1       21 0.14082232E-01 0.25755926E+03</pdfrwt>
<pdfrwt beam="2">  1       21 0.11150145E+00 0.25755926E+03</pdfrwt>
<totfact> 0.26859871E+04</totfact>
</mgrwt>
</event>
<event>
 4    2  0.3903561E+000  0.1793867E+03  0.7546771E-02  0.1168398E+00
         21   -1    0    0  501  502  0.00000000000E+00  0.00000000000E+00  0.12476011362E+03  0.12476011362E+03  0.00000000000E+00 0. -1.
         21   -1    0    0  502  503 -0.00000000000E+00 -0.00000000000E+00 -0.32114708539E+03  0.32114708539E+03  0.00000000000E+00 0. -1.
          6    1    1    2  501    0  0.23133287016E+01  0.47384042652E+02  0.72411936982E+00  0.17938819174E+03  0.17300000000E+03 0.  1.
         -6    1    1    2    0  503 -0.23133287016E+01 -0.47384042652E+02 -0.19711109114E+03  0.26651900727E+03  0.17300000000E+03 0.  1.
<mgrwt>
<rscale>  2 0.17938673E+03</rscale>
<asrwt>0</asrwt>
<pdfrwt beam="1">  1       21 0.19193864E-01 0.17938673E+03</pdfrwt>
<pdfrwt beam="2">  1       21 0.49407243E-01 0.17938673E+03</pdfrwt>
<totfact> 0.97851796E+04</totfact>
</mgrwt>
</event>
<event>
 4    2  0.3903561E+000  0.1914728E+03  0.7546771E-02  0.1157140E+00
         21   -1    0    0  503  502  0.00000000000E+00  0.00000000000E+00  0.30330807112E+03  0.30330807112E+03  0.00000000000E+00 0. -1.
         21   -1    0    0  501  503 -0.00000000000E+00 -0.00000000000E+00 -0.15114180485E+03  0.15114180485E+03  0.00000000000E+00 0.  1.
          6    1    1    2  501    0  0.30235372150E+02  0.76280031174E+02 -0.25602548659E+02  0.19317689143E+03  0.17300000000E+03 0.  1.
         -6    1    1    2    0  502 -0.30235372150E+02 -0.76280031174E+02  0.17776881493E+03  0.26127298453E+03  0.17300000000E+03 0.  1.
<mgrwt>
<rscale>  2 0.19147277E+03</rscale>
<asrwt>0</asrwt>
<pdfrwt beam="1">  1       21 0.46662780E-01 0.19147277E+03</pdfrwt>
<pdfrwt beam="2">  1       21 0.23252585E-01 0.19147277E+03</pdfrwt>
<totfact> 0.76492199E+04</totfact>
</mgrwt>
</event>
<event>
 4    2  0.3903561E+000  0.1863696E+03  0.7546771E-02  0.1161777E+00
         21   -1    0    0  501  502  0.00000000000E+00  0.00000000000E+00  0.80866978765E+03  0.80866978765E+03  0.00000000000E+00 0.  1.
         21   -1    0    0  502  503 -0.00000000000E+00 -0.00000000000E+00 -0.16747913236E+03  0.16747913236E+03  0.00000000000E+00 0. -1.
          6    1    1    2  501    0  0.16720687600E+02  0.67268552629E+02  0.74145612063E+03  0.76451999214E+03  0.17300000000E+03 0.  1.
         -6    1    1    2    0  503 -0.16720687600E+02 -0.67268552629E+02 -0.10026546534E+03  0.21162892786E+03  0.17300000000E+03 0. -1.
<mgrwt>
<rscale>  2 0.18636963E+03</rscale>
<asrwt>0</asrwt>
<pdfrwt beam="1">  1       21 0.12441073E+00 0.18636963E+03</pdfrwt>
<pdfrwt beam="2">  1       21 0.25766021E-01 0.18636963E+03</pdfrwt>
<totfact> 0.69350019E+03</totfact>
</mgrwt>
</event>
<event>
 4    2  0.3903561E+000  0.2250317E+03  0.7546771E-02  0.1130186E+00
         21   -1    0    0  503  502  0.00000000000E+00  0.00000000000E+00  0.22292184955E+04  0.22292184955E+04  0.00000000000E+00 0. -1.
         21   -1    0    0  501  503 -0.00000000000E+00 -0.00000000000E+00 -0.22994360480E+02  0.22994360480E+02  0.00000000000E+00 0.  1.
          6    1    1    2  501    0 -0.13702727040E+03  0.43974973768E+02  0.97924603921E+03  0.10047696634E+04  0.17300000000E+03 0.  1.
         -6    1    1    2    0  502  0.13702727040E+03 -0.43974973768E+02  0.12269780958E+04  0.12474431926E+04  0.17300000000E+03 0. -1.
<mgrwt>
<rscale>  2 0.22503171E+03</rscale>
<asrwt>0</asrwt>
<pdfrwt beam="1">  1       21 0.34295652E+00 0.22503171E+03</pdfrwt>
<pdfrwt beam="2">  1       21 0.35375957E-02 0.22503171E+03</pdfrwt>
<totfact> 0.89292108E+03</totfact>
</mgrwt>
</event>
<event>
 4    2  0.3903561E+000  0.2606660E+03  0.7546771E-02  0.1106744E+00
         21   -1    0    0  503  502  0.00000000000E+00  0.00000000000E+00  0.82695490150E+03  0.82695490150E+03  0.00000000000E+00 0. -1.
         21   -1    0    0  501  503 -0.00000000000E+00 -0.00000000000E+00 -0.86807756527E+02  0.86807756527E+02  0.00000000000E+00 0.  1.
          6    1    1    2  501    0 -0.71500099668E+02  0.18139872211E+03  0.26441336285E+03  0.37129662952E+03  0.17300000000E+03 0.  1.
         -6    1    1    2    0  502  0.71500099668E+02 -0.18139872211E+03  0.47573378212E+03  0.54246602851E+03  0.17300000000E+03 0. -1.
<mgrwt>
<rscale>  2 0.26066599E+03</rscale>
<asrwt>0</asrwt>
<pdfrwt beam="1">  1       21 0.12722383E+00 0.26066599E+03</pdfrwt>
<pdfrwt beam="2">  1       21 0.13355040E-01 0.26066599E+03</pdfrwt>
<totfact> 0.21263756E+04</totfact>
</mgrwt>
</event>
<event>
 4    2  0.3903561E+000  0.2295575E+03  0.7546771E-02  0.1126952E+00
         21   -1    0    0  503  502  0.00000000000E+00  0.00000000000E+00  0.15589621378E+04  0.15589621378E+04  0.00000000000E+00 0.  1.
         21   -1    0    0  501  503 -0.00000000000E+00 -0.00000000000E+00 -0.37743056170E+02  0.37743056170E+02  0.00000000000E+00 0. -1.
          6    1    1    2  501    0  0.15039382358E+03  0.12221526578E+02  0.50264484958E+03  0.55258348935E+03  0.17300000000E+03 0.  1.
         -6    1    1    2    0  502 -0.15039382358E+03 -0.12221526578E+02  0.10185742321E+04  0.10441217047E+04  0.17300000000E+03 0.  1.
<mgrwt>
<rscale>  2 0.22955755E+03</rscale>
<asrwt>0</asrwt>
<pdfrwt beam="1">  1       21 0.23984028E+00 0.22955755E+03</pdfrwt>
<pdfrwt beam="2">  1       21 0.58066253E-02 0.22955755E+03</pdfrwt>
<totfact> 0.15444076E+04</totfact>
</mgrwt>
</event>
<event>
 4    2  0.3903561E+000  0.1888319E+03  0.7546771E-02  0.1159519E+00
         21   -1    0    0  503  502  0.00000000000E+00  0.00000000000E+00  0.58693528001E+02  0.58693528001E+02  0.00000000000E+00 0.  1.
         21   -1    0    0  501  503 -0.00000000000E+00 -0.00000000000E+00 -0.21521802413E+04  0.21521802413E+04  0.00000000000E+00 0.  1.
          6    1    1    2  501    0 -0.71533982328E+02 -0.24726337730E+02 -0.19832504926E+04  0.19922198721E+04  0.17300000000E+03 0.  1.
         -6    1    1    2    0  502  0.71533982328E+02  0.24726337730E+02 -0.11023622070E+03  0.21865389720E+03  0.17300000000E+03 0.  1.
<mgrwt>
<rscale>  2 0.18883194E+03</rscale>
<asrwt>0</asrwt>
<pdfrwt beam="1">  1       21 0.90297743E-02 0.18883194E+03</pdfrwt>
<pdfrwt beam="2">  1       21 0.33110462E+00 0.18883194E+03</pdfrwt>
<totfact> 0.22026553E+03</totfact>
</mgrwt>
</event>
<event>
 4    2  0.3903561E+000  0.2259877E+03  0.7546771E-02  0.1129496E+00
         21   -1    0    0  503  502  0.00000000000E+00  0.00000000000E+00  0.42598951114E+02  0.42598951114E+02  0.00000000000E+00 0. -1.
         21   -1    0    0  501  503 -0.00000000000E+00 -0.00000000000E+00 -0.12154920460E+04  0.12154920460E+04  0.00000000000E+00 0.  1.
          6    1    1    2  501    0  0.14205851171E+03 -0.30996917081E+02 -0.66001673596E+03  0.69763351508E+03  0.17300000000E+03 0.  1.
         -6    1    1    2    0  502 -0.14205851171E+03  0.30996917081E+02 -0.51287635890E+03  0.56045748200E+03  0.17300000000E+03 0. -1.
<mgrwt>
<rscale>  2 0.22598768E+03</rscale>
<asrwt>0</asrwt>
<pdfrwt beam="1">  1       21 0.65536853E-02 0.22598768E+03</pdfrwt>
<pdfrwt beam="2">  1       21 0.18699876E+00 0.22598768E+03</pdfrwt>
<totfact> 0.27056957E+04</totfact>
</mgrwt>
</event>
<event>
 4    2  0.3903561E+000  0.2141317E+03  0.7546771E-02  0.1138335E+00
         21   -1    0    0  503  502  0.00000000000E+00  0.00000000000E+00  0.51139163389E+03  0.51139163389E+03  0.00000000000E+00 0. -1.
         21   -1    0    0  501  503 -0.00000000000E+00 -0.00000000000E+00 -0.11944953464E+04  0.11944953464E+04  0.00000000000E+00 0.  1.
          6    1    1    2  501    0 -0.17234892300E+02 -0.12500534018E+03 -0.11618588655E+04  0.11814264260E+04  0.17300000000E+03 0.  1.
         -6    1    1    2    0  502  0.17234892300E+02  0.12500534018E+03  0.47875515297E+03  0.52446055436E+03  0.17300000000E+03 0. -1.
<mgrwt>
<rscale>  2 0.21413168E+03</rscale>
<asrwt>0</asrwt>
<pdfrwt beam="1">  1       21 0.78675637E-01 0.21413168E+03</pdfrwt>
<pdfrwt beam="2">  1       21 0.18376851E+00 0.21413168E+03</pdfrwt>
<totfact> 0.23862167E+02</totfact>
</mgrwt>
</event>
<event>
 4    2  0.3903561E+000  0.2150490E+03  0.7546771E-02  0.1137629E+00
         21   -1    0    0  501  502  0.00000000000E+00  0.00000000000E+00  0.73189344121E+03  0.73189344121E+03  0.00000000000E+00 0. -1.
         21   -1    0    0  502  503 -0.00000000000E+00 -0.00000000000E+00 -0.13346969261E+03  0.13346969261E+03  0.00000000000E+00 0. -1.
          6    1    1    2  501    0 -0.60008248135E+02 -0.11276554311E+03  0.61319163441E+03  0.64980769314E+03  0.17300000000E+03 0. -1.
         -6    1    1    2    0  503  0.60008248135E+02  0.11276554311E+03 -0.14767885810E+02  0.21555544069E+03  0.17300000000E+03 0. -1.
<mgrwt>
<rscale>  2 0.21504897E+03</rscale>
<asrwt>0</asrwt>
<pdfrwt beam="1">  1       21 0.11259899E+00 0.21504897E+03</pdfrwt>
<pdfrwt beam="2">  1       21 0.20533799E-01 0.21504897E+03</pdfrwt>
<totfact> 0.13360494E+04</totfact>
</mgrwt>
</event>
<event>
 4    2  0.3903561E+000  0.1899065E+03  0.7546771E-02  0.1158546E+00
         21   -1    0    0  503  502  0.00000000000E+00  0.00000000000E+00  0.10546893118E+03  0.10546893118E+03  0.00000000000E+00 0. -1.
         21   -1    0    0  501  503 -0.00000000000E+00 -0.00000000000E+00 -0.52940245721E+03  0.52940245721E+03  0.00000000000E+00 0. -1.
          6    1    1    2  501    0  0.54642530982E+02  0.56121907631E+02 -0.40085948764E+03  0.44356826255E+03  0.17300000000E+03 0. -1.
         -6    1    1    2    0  502 -0.54642530982E+02 -0.56121907631E+02 -0.23074038394E+02  0.19130312584E+03  0.17300000000E+03 0. -1.
<mgrwt>
<rscale>  2 0.18990649E+03</rscale>
<asrwt>0</asrwt>
<pdfrwt beam="1">  1       21 0.16225989E-01 0.18990649E+03</pdfrwt>
<pdfrwt beam="2">  1       21 0.81446532E-01 0.18990649E+03</pdfrwt>
<totfact> 0.44943586E+04</totfact>
</mgrwt>
</event>
<event>
 4    2  0.3903561E+000  0.2210724E+03  0.7546771E-02  0.1133086E+00
         21   -1    0    0  501  502  0.00000000000E+00  0.00000000000E+00  0.25956490668E+03  0.25956490668E+03  0.00000000000E+00 0. -1.
         21   -1    0    0  502  503 -0.00000000000E+00 -0.00000000000E+00 -0.20807147186E+03  0.20807147186E+03  0.00000000000E+00 0. -1.
          6    1    1    2  501    0  0.18325974838E+02 -0.13641167379E+03  0.97844524230E+02  0.24175718608E+03  0.17300000000E+03 0. -1.
         -6    1    1    2    0  503 -0.18325974838E+02  0.13641167379E+03 -0.46351089408E+02  0.22587919247E+03  0.17300000000E+03 0. -1.
<mgrwt>
<rscale>  2 0.22107235E+03</rscale>
<asrwt>0</asrwt>
<pdfrwt beam="1">  1       21 0.39933062E-01 0.22107235E+03</pdfrwt>
<pdfrwt beam="2">  1       21 0.32010996E-01 0.22107235E+03</pdfrwt>
<totfact> 0.55993379E+04</totfact>
</mgrwt>
</event>
<event>
 4    2  0.3903561E+000  0.2117614E+03  0.7546771E-02  0.1140179E+00
         21   -1    0    0  503  502  0.00000000000E+00  0.00000000000E+00  0.24849122319E+02  0.24849122319E+02  0.00000000000E+00 0.  1.
         21   -1    0    0  501  503 -0.00000000000E+00 -0.00000000000E+00 -0.25499650156E+04  0.25499650156E+04  0.00000000000E+00 0. -1.
          6    1    1    2  501    0 -0.13833670791E+02 -0.12133637986E+03 -0.19585934437E+04  0.19700079099E+04  0.17300000000E+03 0. -1.
         -6    1    1    2    0  502  0.13833670791E+02  0.12133637986E+03 -0.56652244963E+03  0.60480622802E+03  0.17300000000E+03 0. -1.
<mgrwt>
<rscale>  2 0.21176139E+03</rscale>
<asrwt>0</asrwt>
<pdfrwt beam="1">  1       21 0.38229410E-02 0.21176139E+03</pdfrwt>
<pdfrwt beam="2">  1       21 0.39230240E+00 0.21176139E+03</pdfrwt>
<totfact> 0.40084728E+03</totfact>
</mgrwt>
</event>
<event>
 4    2  0.3903561E+000  0.1739273E+03  0.7546771E-02  0.1173813E+00
         21   -1    0    0  503  502  0.00000000000E+00  0.00000000000E+00  0.19878113437E+03  0.19878113437E+03  0.00000000000E+00 0. -1.
         21   -1    0    0  501  503 -0.00000000000E+00 -0.00000000000E+00 -0.15702881460E+03  0.15702881460E+03  0.00000000000E+00 0. -1.
          6    1    1    2  501    0  0.13563456436E+02 -0.11736597935E+02  0.52134843119E+02  0.18157300721E+03  0.17300000000E+03 0. -1.
         -6    1    1    2    0  502 -0.13563456436E+02  0.11736597935E+02 -0.10382523355E+02  0.17423694176E+03  0.17300000000E+03 0. -1.
<mgrwt>
<rscale>  2 0.17392733E+03</rscale>
<asrwt>0</asrwt>
<pdfrwt beam="1">  1       21 0.30581713E-01 0.17392733E+03</pdfrwt>
<pdfrwt beam="2">  1       21 0.24158279E-01 0.17392733E+03</pdfrwt>
<totfact> 0.16692247E+05</totfact>
</mgrwt>
</event>
<event>
 4    2  0.3903561E+000  0.1994964E+03  0.7546771E-02  0.1150165E+00
         21   -1    0    0  503  502  0.00000000000E+00  0.00000000000E+00  0.75732871624E+02  0.75732871624E+02  0.00000000000E+00 0.  1.
         21   -1    0    0  501  503 -0.00000000000E+00 -0.00000000000E+00 -0.73276341147E+03  0.73276341147E+03  0.00000000000E+00 0.  1.
          6    1    1    2  501    0 -0.51217245301E+02  0.85126980716E+02 -0.54350171127E+03  0.57895847797E+03  0.17300000000E+03 0.  1.
         -6    1    1    2    0  502  0.51217245301E+02 -0.85126980716E+02 -0.11352882857E+03  0.22953780512E+03  0.17300000000E+03 0.  1.
<mgrwt>
<rscale>  2 0.19949639E+03</rscale>
<asrwt>0</asrwt>
<pdfrwt beam="1">  1       21 0.11651211E-01 0.19949639E+03</pdfrwt>
<pdfrwt beam="2">  1       21 0.11273283E+00 0.19949639E+03</pdfrwt>
<totfact> 0.37920971E+04</totfact>
</mgrwt>
</event>
<event>
 4    2  0.3903561E+000  0.1862385E+03  0.7546771E-02  0.1161898E+00
         21   -1    0    0  501  502  0.00000000000E+00  0.00000000000E+00  0.12543782367E+04  0.12543782367E+04  0.00000000000E+00 0. -1.
         21   -1    0    0  502  503 -0.00000000000E+00 -0.00000000000E+00 -0.15894101289E+03  0.15894101289E+03  0.00000000000E+00 0. -1.
          6    1    1    2  501    0 -0.56958455820E+02 -0.38878179987E+02  0.11899746275E+04  0.12044602080E+04  0.17300000000E+03 0. -1.
         -6    1    1    2    0  503  0.56958455820E+02  0.38878179987E+02 -0.94537403666E+02  0.20885904161E+03  0.17300000000E+03 0. -1.
<mgrwt>
<rscale>  2 0.18623850E+03</rscale>
<asrwt>0</asrwt>
<pdfrwt beam="1">  1       21 0.19298126E+00 0.18623850E+03</pdfrwt>
<pdfrwt beam="2">  1       21 0.24452464E-01 0.18623850E+03</pdfrwt>
<totfact> 0.23712397E+03</totfact>
</mgrwt>
</event>
<event>
 4    2  0.3903561E+000  0.1809247E+03  0.7546771E-02  0.1166911E+00
         21   -1    0    0  501  502  0.00000000000E+00  0.00000000000E+00  0.12909862889E+03  0.12909862889E+03  0.00000000000E+00 0. -1.
         21   -1    0    0  502  503 -0.00000000000E+00 -0.00000000000E+00 -0.34271176780E+03  0.34271176780E+03  0.00000000000E+00 0. -1.
          6    1    1    2  501    0 -0.16350309344E+02 -0.50372681075E+02  0.13516133645E+02  0.18142884413E+03  0.17300000000E+03 0. -1.
         -6    1    1    2    0  503  0.16350309344E+02  0.50372681075E+02 -0.22712927256E+03  0.29038155256E+03  0.17300000000E+03 0. -1.
<mgrwt>
<rscale>  2 0.18092468E+03</rscale>
<asrwt>0</asrwt>
<pdfrwt beam="1">  1       21 0.19861328E-01 0.18092468E+03</pdfrwt>
<pdfrwt beam="2">  1       21 0.52724887E-01 0.18092468E+03</pdfrwt>
<totfact> 0.80120814E+04</totfact>
</mgrwt>
</event>
<event>
 4    2  0.3903561E+000  0.2584631E+03  0.7546771E-02  0.1108070E+00
         21   -1    0    0  503  502  0.00000000000E+00  0.00000000000E+00  0.70198769589E+03  0.70198769589E+03  0.00000000000E+00 0.  1.
         21   -1    0    0  501  503 -0.00000000000E+00 -0.00000000000E+00 -0.26643690715E+03  0.26643690715E+03  0.00000000000E+00 0. -1.
          6    1    1    2  501    0 -0.19199374069E+03 -0.35434759792E+01 -0.17045042416E+03  0.30960700861E+03  0.17300000000E+03 0.  1.
         -6    1    1    2    0  502  0.19199374069E+03  0.35434759792E+01  0.60600121290E+03  0.65881759442E+03  0.17300000000E+03 0.  1.
<mgrwt>
<rscale>  2 0.25846306E+03</rscale>
<asrwt>0</asrwt>
<pdfrwt beam="1">  1       21 0.10799811E+00 0.25846306E+03</pdfrwt>
<pdfrwt beam="2">  1       21 0.40990294E-01 0.25846306E+03</pdfrwt>
<totfact> 0.37286851E+03</totfact>
</mgrwt>
</event>
<event>
 4    2  0.3903561E+000  0.2231614E+03  0.7546771E-02  0.1131548E+00
         21   -1    0    0  503  502  0.00000000000E+00  0.00000000000E+00  0.22357955878E+03  0.22357955878E+03  0.00000000000E+00 0.  1.
         21   -1    0    0  501  503 -0.00000000000E+00 -0.00000000000E+00 -0.29266118320E+03  0.29266118320E+03  0.00000000000E+00 0.  1.
          6    1    1    2  501    0 -0.10172112337E+03  0.97595301083E+02  0.91621993910E+02  0.24123768259E+03  0.17300000000E+03 0.  1.
         -6    1    1    2    0  502  0.10172112337E+03 -0.97595301083E+02 -0.16070361833E+03  0.27500305940E+03  0.17300000000E+03 0.  1.
<mgrwt>
<rscale>  2 0.22316144E+03</rscale>
<asrwt>0</asrwt>
<pdfrwt beam="1">  1       21 0.34396855E-01 0.22316144E+03</pdfrwt>
<pdfrwt beam="2">  1       21 0.45024797E-01 0.22316144E+03</pdfrwt>
<totfact> 0.37967642E+04</totfact>
</mgrwt>
</event>
<event>
 4    2  0.3903561E+000  0.2448962E+03  0.7546771E-02  0.1116573E+00
         21   -1    0    0  501  502  0.00000000000E+00  0.00000000000E+00  0.32560813427E+03  0.32560813427E+03  0.00000000000E+00 0.  1.
         21   -1    0    0  502  503 -0.00000000000E+00 -0.00000000000E+00 -0.30748425301E+03  0.30748425301E+03  0.00000000000E+00 0. -1.
          6    1    1    2  501    0 -0.15182583667E+03 -0.83630604811E+02  0.20950679251E+03  0.32228443780E+03  0.17300000000E+03 0.  1.
         -6    1    1    2    0  503  0.15182583667E+03  0.83630604811E+02 -0.19138291125E+03  0.31080794948E+03  0.17300000000E+03 0. -1.
<mgrwt>
<rscale>  2 0.24489623E+03</rscale>
<asrwt>0</asrwt>
<pdfrwt beam="1">  1       21 0.50093559E-01 0.24489623E+03</pdfrwt>
<pdfrwt beam="2">  1       21 0.47305270E-01 0.24489623E+03</pdfrwt>
<totfact> 0.15743582E+04</totfact>
</mgrwt>
</event>
<event>
 4    2  0.3903561E+000  0.1749656E+03  0.7546771E-02  0.1172766E+00
         21   -1    0    0  503  502  0.00000000000E+00  0.00000000000E+00  0.37247463817E+02  0.37247463817E+02  0.00000000000E+00 0.  1.
         21   -1    0    0  501  503 -0.00000000000E+00 -0.00000000000E+00 -0.87956799607E+03  0.87956799607E+03  0.00000000000E+00 0.  1.
          6    1    1    2  501    0  0.23756572611E+02  0.10935447736E+02 -0.53855770317E+03  0.56626615509E+03  0.17300000000E+03 0. -1.
         -6    1    1    2    0  502 -0.23756572611E+02 -0.10935447736E+02 -0.30376282909E+03  0.35054930480E+03  0.17300000000E+03 0. -1.
<mgrwt>
<rscale>  2 0.17496559E+03</rscale>
<asrwt>0</asrwt>
<pdfrwt beam="1">  1       21 0.57303798E-02 0.17496559E+03</pdfrwt>
<pdfrwt beam="2">  1       21 0.13531814E+00 0.17496559E+03</pdfrwt>
<totfact> 0.84001957E+04</totfact>
</mgrwt>
</event>
<event>
 4    2  0.3903561E+000  0.2362321E+03  0.7546771E-02  0.1122329E+00
         21   -1    0    0  501  502  0.00000000000E+00  0.00000000000E+00  0.27578282103E+03  0.27578282103E+03  0.00000000000E+00 0. -1.
         21   -1    0    0  502  503 -0.00000000000E+00 -0.00000000000E+00 -0.40029961330E+03  0.40029961330E+03  0.00000000000E+00 0. -1.
          6    1    1    2  501    0  0.11910645122E+03  0.10812142833E+03  0.17545336881E+03  0.29426089549E+03  0.17300000000E+03 0. -1.
         -6    1    1    2    0  503 -0.11910645122E+03 -0.10812142833E+03 -0.29997016108E+03  0.38182153884E+03  0.17300000000E+03 0. -1.
<mgrwt>
<rscale>  2 0.23623207E+03</rscale>
<asrwt>0</asrwt>
<pdfrwt beam="1">  1       21 0.42428127E-01 0.23623207E+03</pdfrwt>
<pdfrwt beam="2">  1       21 0.61584555E-01 0.23623207E+03</pdfrwt>
<totfact> 0.12747438E+04</totfact>
</mgrwt>
</event>
<event>
 4    2  0.3903561E+000  0.2050936E+03  0.7546771E-02  0.1145511E+00
         21   -1    0    0  503  502  0.00000000000E+00  0.00000000000E+00  0.53995999763E+03  0.53995999763E+03  0.00000000000E+00 0.  1.
         21   -1    0    0  501  503 -0.00000000000E+00 -0.00000000000E+00 -0.11915021845E+03  0.11915021845E+03  0.00000000000E+00 0.  1.
          6    1    1    2  501    0  0.10099565902E+03  0.43980447740E+02  0.16500030830E+02  0.20575629745E+03  0.17300000000E+03 0.  1.
         -6    1    1    2    0  502 -0.10099565902E+03 -0.43980447740E+02  0.40430974835E+03  0.45335391863E+03  0.17300000000E+03 0.  1.
<mgrwt>
<rscale>  2 0.20509364E+03</rscale>
<asrwt>0</asrwt>
<pdfrwt beam="1">  1       21 0.83070768E-01 0.20509364E+03</pdfrwt>
<pdfrwt beam="2">  1       21 0.18330803E-01 0.20509364E+03</pdfrwt>
<totfact> 0.34045088E+04</totfact>
</mgrwt>
</event>
<event>
 4    2  0.3903561E+000  0.1875714E+03  0.7546771E-02  0.1160670E+00
         21   -1    0    0  503  502  0.00000000000E+00  0.00000000000E+00  0.26256268363E+04  0.26256268363E+04  0.00000000000E+00 0. -1.
         21   -1    0    0  501  503 -0.00000000000E+00 -0.00000000000E+00 -0.33662751838E+02  0.33662751838E+02  0.00000000000E+00 0. -1.
          6    1    1    2  501    0  0.72117789789E+02  0.72839000908E+01  0.26438153302E+03  0.32416141937E+03  0.17300000000E+03 0. -1.
         -6    1    1    2    0  502 -0.72117789789E+02 -0.72839000908E+01  0.23275825515E+04  0.23351281688E+04  0.17300000000E+03 0. -1.
<mgrwt>
<rscale>  2 0.18757140E+03</rscale>
<asrwt>0</asrwt>
<pdfrwt beam="1">  1       21 0.40394243E+00 0.18757140E+03</pdfrwt>
<pdfrwt beam="2">  1       21 0.51788870E-02 0.18757140E+03</pdfrwt>
<totfact> 0.21022717E+03</totfact>
</mgrwt>
</event>
<event>
 4    2  0.3903561E+000  0.1896628E+03  0.7546771E-02  0.1158766E+00
         21   -1    0    0  501  502  0.00000000000E+00  0.00000000000E+00  0.54654202404E+02  0.54654202404E+02  0.00000000000E+00 0.  1.
         21   -1    0    0  502  503 -0.00000000000E+00 -0.00000000000E+00 -0.66158611359E+03  0.66158611359E+03  0.00000000000E+00 0.  1.
          6    1    1    2  501    0  0.37129931229E+02  0.68295928644E+02 -0.27774671124E+03  0.33632603418E+03  0.17300000000E+03 0.  1.
         -6    1    1    2    0  503 -0.37129931229E+02 -0.68295928644E+02 -0.32918519995E+03  0.37991428182E+03  0.17300000000E+03 0.  1.
<mgrwt>
<rscale>  2 0.18966277E+03</rscale>
<asrwt>0</asrwt>
<pdfrwt beam="1">  1       21 0.84083389E-02 0.18966277E+03</pdfrwt>
<pdfrwt beam="2">  1       21 0.10178248E+00 0.18966277E+03</pdfrwt>
<totfact> 0.86717647E+04</totfact>
</mgrwt>
</event>
<event>
 4    2  0.3903561E+000  0.1954518E+03  0.7546771E-02  0.1153634E+00
         21   -1    0    0  503  502  0.00000000000E+00  0.00000000000E+00  0.31192177367E+03  0.31192177367E+03  0.00000000000E+00 0. -1.
         21   -1    0    0  501  503 -0.00000000000E+00 -0.00000000000E+00 -0.16418160715E+03  0.16418160715E+03  0.00000000000E+00 0. -1.
          6    1    1    2  501    0 -0.12830112844E+02  0.90043319990E+02 -0.46116202908E+02  0.20081861328E+03  0.17300000000E+03 0. -1.
         -6    1    1    2    0  502  0.12830112844E+02 -0.90043319990E+02  0.19385636942E+03  0.27528476754E+03  0.17300000000E+03 0. -1.
<mgrwt>
<rscale>  2 0.19545181E+03</rscale>
<asrwt>0</asrwt>
<pdfrwt beam="1">  1       21 0.47987965E-01 0.19545181E+03</pdfrwt>
<pdfrwt beam="2">  1       21 0.25258709E-01 0.19545181E+03</pdfrwt>
<totfact> 0.61558544E+04</totfact>
</mgrwt>
</event>
<event>
 4    2  0.3903561E+000  0.2106037E+03  0.7546771E-02  0.1141089E+00
         21   -1    0    0  501  502  0.00000000000E+00  0.00000000000E+00  0.51282098413E+02  0.51282098413E+02  0.00000000000E+00 0.  1.
         21   -1    0    0  502  503 -0.00000000000E+00 -0.00000000000E+00 -0.11335654890E+04  0.11335654890E+04  0.00000000000E+00 0.  1.
          6    1    1    2  501    0  0.84963709657E+02 -0.84888738210E+02 -0.25272894867E+03  0.32897697690E+03  0.17300000000E+03 0.  1.
         -6    1    1    2    0  503 -0.84963709657E+02  0.84888738210E+02 -0.82955444187E+03  0.85587061047E+03  0.17300000000E+03 0.  1.
<mgrwt>
<rscale>  2 0.21060373E+03</rscale>
<asrwt>0</asrwt>
<pdfrwt beam="1">  1       21 0.78895533E-02 0.21060373E+03</pdfrwt>
<pdfrwt beam="2">  1       21 0.17439470E+00 0.21060373E+03</pdfrwt>
<totfact> 0.24148285E+04</totfact>
</mgrwt>
</event>
<event>
 4    2  0.3903561E+000  0.1853340E+03  0.7546771E-02  0.1162738E+00
         21   -1    0    0  503  502  0.00000000000E+00  0.00000000000E+00  0.10999692776E+04  0.10999692776E+04  0.00000000000E+00 0. -1.
         21   -1    0    0  501  503 -0.00000000000E+00 -0.00000000000E+00 -0.55559142023E+02  0.55559142023E+02  0.00000000000E+00 0. -1.
          6    1    1    2  501    0  0.58980220808E+02 -0.30676234001E+02  0.13985304747E+03  0.23218004364E+03  0.17300000000E+03 0. -1.
         -6    1    1    2    0  502 -0.58980220808E+02  0.30676234001E+02  0.90455708807E+03  0.92334837594E+03  0.17300000000E+03 0. -1.
<mgrwt>
<rscale>  2 0.18533402E+03</rscale>
<asrwt>0</asrwt>
<pdfrwt beam="1">  1       21 0.16922603E+00 0.18533402E+03</pdfrwt>
<pdfrwt beam="2">  1       21 0.85475611E-02 0.18533402E+03</pdfrwt>
<totfact> 0.23217661E+04</totfact>
</mgrwt>
</event>
<event>
 4    2  0.3903561E+000  0.1735466E+03  0.7546771E-02  0.1174199E+00
         21   -1    0    0  503  502  0.00000000000E+00  0.00000000000E+00  0.51274648964E+02  0.51274648964E+02  0.00000000000E+00 0. -1.
         21   -1    0    0  501  503 -0.00000000000E+00 -0.00000000000E+00 -0.63148952901E+03  0.63148952901E+03  0.00000000000E+00 0. -1.
          6    1    1    2  501    0 -0.18996930636E+01 -0.13630977647E+02 -0.38031766698E+03  0.41804298846E+03  0.17300000000E+03 0. -1.
         -6    1    1    2    0  502  0.18996930636E+01  0.13630977647E+02 -0.19989721307E+03  0.26472118952E+03  0.17300000000E+03 0. -1.
<mgrwt>
<rscale>  2 0.17354657E+03</rscale>
<asrwt>0</asrwt>
<pdfrwt beam="1">  1       21 0.78884076E-02 0.17354657E+03</pdfrwt>
<pdfrwt beam="2">  1       21 0.97152234E-01 0.17354657E+03</pdfrwt>
<totfact> 0.10891492E+05</totfact>
</mgrwt>
</event>
<event>
 4    2  0.3903561E+000  0.2367931E+03  0.7546771E-02  0.1121948E+00
         21   -1    0    0  503  502  0.00000000000E+00  0.00000000000E+00  0.19480741744E+03  0.19480741744E+03  0.00000000000E+00 0.  1.
         21   -1    0    0  501  503 -0.00000000000E+00 -0.00000000000E+00 -0.50205917363E+03  0.50205917363E+03  0.00000000000E+00 0.  1.
          6    1    1    2  501    0 -0.13252035344E+03 -0.92630018085E+02 -0.38123196219E+03  0.44878588806E+03  0.17300000000E+03 0.  1.
         -6    1    1    2    0  502  0.13252035344E+03  0.92630018085E+02  0.73980205995E+02  0.24808070301E+03  0.17300000000E+03 0.  1.
<mgrwt>
<rscale>  2 0.23679308E+03</rscale>
<asrwt>0</asrwt>
<pdfrwt beam="1">  1       21 0.29970372E-01 0.23679308E+03</pdfrwt>
<pdfrwt beam="2">  1       21 0.77239872E-01 0.23679308E+03</pdfrwt>
<totfact> 0.15479560E+04</totfact>
</mgrwt>
</event>
<event>
 4    2  0.3903561E+000  0.2486349E+03  0.7546771E-02  0.1114171E+00
         21   -1    0    0  503  502  0.00000000000E+00  0.00000000000E+00  0.40224888116E+02  0.40224888116E+02  0.00000000000E+00 0. -1.
         21   -1    0    0  501  503 -0.00000000000E+00 -0.00000000000E+00 -0.18430429032E+04  0.18430429032E+04  0.00000000000E+00 0.  1.
          6    1    1    2  501    0  0.41046069581E+02  0.17379743617E+03 -0.12852196787E+04  0.13090488728E+04  0.17300000000E+03 0. -1.
         -6    1    1    2    0  502 -0.41046069581E+02 -0.17379743617E+03 -0.51759833639E+03  0.57421891860E+03  0.17300000000E+03 0. -1.
<mgrwt>
<rscale>  2 0.24863493E+03</rscale>
<asrwt>0</asrwt>
<pdfrwt beam="1">  1       21 0.61884442E-02 0.24863493E+03</pdfrwt>
<pdfrwt beam="2">  1       21 0.28354507E+00 0.24863493E+03</pdfrwt>
<totfact> 0.75279812E+03</totfact>
</mgrwt>
</event>
<event>
 4    2  0.3903561E+000  0.1750241E+03  0.7546771E-02  0.1172708E+00
         21   -1    0    0  503  502  0.00000000000E+00  0.00000000000E+00  0.43054942949E+02  0.43054942949E+02  0.00000000000E+00 0. -1.
         21   -1    0    0  501  503 -0.00000000000E+00 -0.00000000000E+00 -0.73775878306E+03  0.73775878306E+03  0.00000000000E+00 0. -1.
          6    1    1    2  501    0  0.24338542798E+02 -0.10585731624E+02 -0.42101164719E+03  0.45594323051E+03  0.17300000000E+03 0. -1.
         -6    1    1    2    0  502 -0.24338542798E+02  0.10585731624E+02 -0.27369219292E+03  0.32487049550E+03  0.17300000000E+03 0. -1.
<mgrwt>
<rscale>  2 0.17502406E+03</rscale>
<asrwt>0</asrwt>
<pdfrwt beam="1">  1       21 0.66238385E-02 0.17502406E+03</pdfrwt>
<pdfrwt beam="2">  1       21 0.11350133E+00 0.17502406E+03</pdfrwt>
<totfact> 0.10147215E+05</totfact>
</mgrwt>
</event>
<event>
 4    2  0.3903561E+000  0.1924875E+03  0.7546771E-02  0.1156237E+00
         21   -1    0    0  503  502  0.00000000000E+00  0.00000000000E+00  0.11266425774E+03  0.11266425774E+03  0.00000000000E+00 0.  1.
         21   -1    0    0  501  503 -0.00000000000E+00 -0.00000000000E+00 -0.70613026904E+03  0.70613026904E+03  0.00000000000E+00 0.  1.
          6    1    1    2  501    0 -0.84382819320E+02 -0.14104028235E+01 -0.59597692181E+03  0.62629062005E+03  0.17300000000E+03 0.  1.
         -6    1    1    2    0  502  0.84382819320E+02  0.14104028235E+01  0.25109105154E+01  0.19250390672E+03  0.17300000000E+03 0.  1.
<mgrwt>
<rscale>  2 0.19248753E+03</rscale>
<asrwt>0</asrwt>
<pdfrwt beam="1">  1       21 0.17332963E-01 0.19248753E+03</pdfrwt>
<pdfrwt beam="2">  1       21 0.10863543E+00 0.19248753E+03</pdfrwt>
<totfact> 0.20265587E+04</totfact>
</mgrwt>
</event>
<event>
 4    2  0.3903561E+000  0.1833823E+03  0.7546771E-02  0.1164569E+00
         21   -1    0    0  501  502  0.00000000000E+00  0.00000000000E+00  0.45839312616E+03  0.45839312616E+03  0.00000000000E+00 0. -1.
         21   -1    0    0  502  503 -0.00000000000E+00 -0.00000000000E+00 -0.14889777593E+03  0.14889777593E+03  0.00000000000E+00 0. -1.
          6    1    1    2  501    0 -0.44337663637E+02 -0.41644193551E+02  0.37101769484E+03  0.41386374226E+03  0.17300000000E+03 0. -1.
         -6    1    1    2    0  503  0.44337663637E+02  0.41644193551E+02 -0.61522344611E+02  0.19342715983E+03  0.17300000000E+03 0. -1.
<mgrwt>
<rscale>  2 0.18338230E+03</rscale>
<asrwt>0</asrwt>
<pdfrwt beam="1">  1       21 0.70522019E-01 0.18338230E+03</pdfrwt>
<pdfrwt beam="2">  1       21 0.22907350E-01 0.18338230E+03</pdfrwt>
<totfact> 0.32760901E+04</totfact>
</mgrwt>
</event>
<event>
 4    2  0.3903561E+000  0.2746154E+03  0.7546771E-02  0.1098667E+00
         21   -1    0    0  501  502  0.00000000000E+00  0.00000000000E+00  0.13398495947E+04  0.13398495947E+04  0.00000000000E+00 0.  1.
         21   -1    0    0  502  503 -0.00000000000E+00 -0.00000000000E+00 -0.11828770843E+03  0.11828770843E+03  0.00000000000E+00 0.  1.
          6    1    1    2  501    0 -0.44412404432E+02 -0.20859568867E+03  0.11386223471E+04  0.11712704522E+04  0.17300000000E+03 0.  1.
         -6    1    1    2    0  503  0.44412404432E+02  0.20859568867E+03  0.82939539235E+02  0.28686685094E+03  0.17300000000E+03 0.  1.
<mgrwt>
<rscale>  2 0.27461541E+03</rscale>
<asrwt>0</asrwt>
<pdfrwt beam="1">  1       21 0.20613070E+00 0.27461541E+03</pdfrwt>
<pdfrwt beam="2">  1       21 0.18198110E-01 0.27461541E+03</pdfrwt>
<totfact> 0.31512599E+03</totfact>
</mgrwt>
</event>
<event>
 4    2  0.3903561E+000  0.2216123E+03  0.7546771E-02  0.1132687E+00
         21   -1    0    0  503  502  0.00000000000E+00  0.00000000000E+00  0.94114026222E+03  0.94114026222E+03  0.00000000000E+00 0. -1.
         21   -1    0    0  501  503 -0.00000000000E+00 -0.00000000000E+00 -0.12718494834E+03  0.12718494834E+03  0.00000000000E+00 0.  1.
          6    1    1    2  501    0  0.11149510961E+02 -0.13805328178E+03 -0.32173441076E+01  0.22163567291E+03  0.17300000000E+03 0.  1.
         -6    1    1    2    0  502 -0.11149510961E+02  0.13805328178E+03  0.81717265799E+03  0.84668953765E+03  0.17300000000E+03 0. -1.
<mgrwt>
<rscale>  2 0.22161232E+03</rscale>
<asrwt>0</asrwt>
<pdfrwt beam="1">  1       21 0.14479081E+00 0.22161232E+03</pdfrwt>
<pdfrwt beam="2">  1       21 0.19566916E-01 0.22161232E+03</pdfrwt>
<totfact> 0.77147703E+03</totfact>
</mgrwt>
</event>
<event>
 4    2  0.3903561E+000  0.1934464E+03  0.7546771E-02  0.1155389E+00
         21   -1    0    0  503  502  0.00000000000E+00  0.00000000000E+00  0.12784627408E+03  0.12784627408E+03  0.00000000000E+00 0. -1.
         21   -1    0    0  501  503 -0.00000000000E+00 -0.00000000000E+00 -0.33260987437E+03  0.33260987437E+03  0.00000000000E+00 0. -1.
          6    1    1    2  501    0 -0.86558155981E+02  0.42479891142E+00 -0.18212487812E+03  0.26568960471E+03  0.17300000000E+03 0. -1.
         -6    1    1    2    0  502  0.86558155981E+02 -0.42479891142E+00 -0.22638722174E+02  0.19476654375E+03  0.17300000000E+03 0. -1.
<mgrwt>
<rscale>  2 0.19344636E+03</rscale>
<asrwt>0</asrwt>
<pdfrwt beam="1">  1       21 0.19668658E-01 0.19344636E+03</pdfrwt>
<pdfrwt beam="2">  1       21 0.51170748E-01 0.19344636E+03</pdfrwt>
<totfact> 0.86436977E+04</totfact>
</mgrwt>
</event>
<event>
 4    2  0.3903561E+000  0.2425634E+03  0.7546771E-02  0.1118097E+00
         21   -1    0    0  503  502  0.00000000000E+00  0.00000000000E+00  0.24970459207E+03  0.24970459207E+03  0.00000000000E+00 0. -1.
         21   -1    0    0  501  503 -0.00000000000E+00 -0.00000000000E+00 -0.51819394953E+03  0.51819394953E+03  0.00000000000E+00 0.  1.
          6    1    1    2  501    0 -0.16850601380E+03 -0.22665243437E+02 -0.41776803000E+03  0.48308085952E+03  0.17300000000E+03 0.  1.
         -6    1    1    2    0  502  0.16850601380E+03  0.22665243437E+02  0.14927867254E+03  0.28481768207E+03  0.17300000000E+03 0. -1.
<mgrwt>
<rscale>  2 0.24256337E+03</rscale>
<asrwt>0</asrwt>
<pdfrwt beam="1">  1       21 0.38416091E-01 0.24256337E+03</pdfrwt>
<pdfrwt beam="2">  1       21 0.79722147E-01 0.24256337E+03</pdfrwt>
<totfact> 0.87673662E+03</totfact>
</mgrwt>
</event>
<event>
 4    2  0.3903561E+000  0.2997816E+03  0.7546771E-02  0.1085350E+00
         21   -1    0    0  501  502  0.00000000000E+00  0.00000000000E+00  0.61309847714E+03  0.61309847714E+03  0.00000000000E+00 0.  1.
         21   -1    0    0  502  503 -0.00000000000E+00 -0.00000000000E+00 -0.16764584306E+03  0.16764584306E+03  0.00000000000E+00 0.  1.
          6    1    1    2  501    0  0.24420839509E+03  0.17385032913E+02  0.84352165591E+02  0.31142297192E+03  0.17300000000E+03 0.  1.
         -6    1    1    2    0  503 -0.24420839509E+03 -0.17385032913E+02  0.36110046849E+03  0.46932134828E+03  0.17300000000E+03 0.  1.
<mgrwt>
<rscale>  2 0.29978155E+03</rscale>
<asrwt>0</asrwt>
<pdfrwt beam="1">  1       21 0.94322841E-01 0.29978155E+03</pdfrwt>
<pdfrwt beam="2">  1       21 0.25791669E-01 0.29978155E+03</pdfrwt>
<totfact> 0.12672562E+04</totfact>
</mgrwt>
</event>
<event>
 4    2  0.3903561E+000  0.1731966E+03  0.7546771E-02  0.1174555E+00
         21   -1    0    0  503  502  0.00000000000E+00  0.00000000000E+00  0.86306414817E+03  0.86306414817E+03  0.00000000000E+00 0. -1.
         21   -1    0    0  501  503 -0.00000000000E+00 -0.00000000000E+00 -0.55532858641E+02  0.55532858641E+02  0.00000000000E+00 0. -1.
          6    1    1    2  501    0  0.56213139047E+01  0.60377243562E+01  0.12283108684E+03  0.21233117807E+03  0.17300000000E+03 0.  1.
         -6    1    1    2    0  502 -0.56213139047E+01 -0.60377243562E+01  0.68470020270E+03  0.70626582875E+03  0.17300000000E+03 0.  1.
<mgrwt>
<rscale>  2 0.17319657E+03</rscale>
<asrwt>0</asrwt>
<pdfrwt beam="1">  1       21 0.13277909E+00 0.17319657E+03</pdfrwt>
<pdfrwt beam="2">  1       21 0.85435173E-02 0.17319657E+03</pdfrwt>
<totfact> 0.44322978E+04</totfact>
</mgrwt>
</event>
<event>
 4    2  0.3903561E+000  0.2100200E+03  0.7546771E-02  0.1141550E+00
         21   -1    0    0  503  502  0.00000000000E+00  0.00000000000E+00  0.84534161574E+03  0.84534161574E+03  0.00000000000E+00 0. -1.
         21   -1    0    0  501  503 -0.00000000000E+00 -0.00000000000E+00 -0.53539162505E+02  0.53539162505E+02  0.00000000000E+00 0.  1.
          6    1    1    2  501    0 -0.70171638618E+02  0.96204661155E+02  0.32424384429E+03  0.38631912489E+03  0.17300000000E+03 0.  1.
         -6    1    1    2    0  502  0.70171638618E+02 -0.96204661155E+02  0.46755860894E+03  0.51256165335E+03  0.17300000000E+03 0. -1.
<mgrwt>
<rscale>  2 0.21001999E+03</rscale>
<asrwt>0</asrwt>
<pdfrwt beam="1">  1       21 0.13005255E+00 0.21001999E+03</pdfrwt>
<pdfrwt beam="2">  1       21 0.82367949E-02 0.21001999E+03</pdfrwt>
<totfact> 0.48791220E+04</totfact>
</mgrwt>
</event>
<event>
 4    2  0.3903561E+000  0.1748573E+03  0.7546771E-02  0.1172875E+00
         21   -1    0    0  501  502  0.00000000000E+00  0.00000000000E+00  0.14122226558E+03  0.14122226558E+03  0.00000000000E+00 0. -1.
         21   -1    0    0  502  503 -0.00000000000E+00 -0.00000000000E+00 -0.31701540953E+03  0.31701540953E+03  0.00000000000E+00 0. -1.
          6    1    1    2  501    0 -0.21102969218E+02  0.14168764745E+02  0.41115325820E+02  0.17962616519E+03  0.17300000000E+03 0. -1.
         -6    1    1    2    0  503  0.21102969218E+02 -0.14168764745E+02 -0.21690846977E+03  0.27861150992E+03  0.17300000000E+03 0. -1.
<mgrwt>
<rscale>  2 0.17485734E+03</rscale>
<asrwt>0</asrwt>
<pdfrwt beam="1">  1       21 0.21726502E-01 0.17485734E+03</pdfrwt>
<pdfrwt beam="2">  1       21 0.48771601E-01 0.17485734E+03</pdfrwt>
<totfact> 0.79892975E+04</totfact>
</mgrwt>
</event>
<event>
 4    2  0.3903561E+000  0.2812591E+03  0.7546771E-02  0.1095003E+00
         21   -1    0    0  503  502  0.00000000000E+00  0.00000000000E+00  0.11394547396E+04  0.11394547396E+04  0.00000000000E+00 0. -1.
         21   -1    0    0  501  503 -0.00000000000E+00 -0.00000000000E+00 -0.10467235498E+03  0.10467235498E+03  0.00000000000E+00 0. -1.
          6    1    1    2  501    0  0.79989592000E+02 -0.20683168160E+03  0.15641227581E+03  0.32182523109E+03  0.17300000000E+03 0. -1.
         -6    1    1    2    0  502 -0.79989592000E+02  0.20683168160E+03  0.87837010882E+03  0.92230186350E+03  0.17300000000E+03 0. -1.
<mgrwt>
<rscale>  2 0.28125910E+03</rscale>
<asrwt>0</asrwt>
<pdfrwt beam="1">  1       21 0.17530072E+00 0.28125910E+03</pdfrwt>
<pdfrwt beam="2">  1       21 0.16103440E-01 0.28125910E+03</pdfrwt>
<totfact> 0.63373101E+03</totfact>
</mgrwt>
</event>
<event>
 4    2  0.3903561E+000  0.1812093E+03  0.7546771E-02  0.1166638E+00
         21   -1    0    0  503  502  0.00000000000E+00  0.00000000000E+00  0.19089056228E+02  0.19089056228E+02  0.00000000000E+00 0.  1.
         21   -1    0    0  501  503 -0.00000000000E+00 -0.00000000000E+00 -0.17630675706E+04  0.17630675706E+04  0.00000000000E+00 0.  1.
          6    1    1    2  501    0  0.38646962239E+02  0.37606003883E+02 -0.73302674652E+03  0.75509271638E+03  0.17300000000E+03 0.  1.
         -6    1    1    2    0  502 -0.38646962239E+02 -0.37606003883E+02 -0.10109517679E+04  0.10270639105E+04  0.17300000000E+03 0.  1.
<mgrwt>
<rscale>  2 0.18120927E+03</rscale>
<asrwt>0</asrwt>
<pdfrwt beam="1">  1       21 0.29367781E-02 0.18120927E+03</pdfrwt>
<pdfrwt beam="2">  1       21 0.27124115E+00 0.18120927E+03</pdfrwt>
<totfact> 0.33107162E+04</totfact>
</mgrwt>
</event>
<event>
 4    2  0.3903561E+000  0.1796887E+03  0.7546771E-02  0.1168105E+00
         21   -1    0    0  501  502  0.00000000000E+00  0.00000000000E+00  0.82324270029E+03  0.82324270029E+03  0.00000000000E+00 0.  1.
         21   -1    0    0  502  503 -0.00000000000E+00 -0.00000000000E+00 -0.51648841530E+02  0.51648841530E+02  0.00000000000E+00 0.  1.
          6    1    1    2  501    0 -0.37342097815E+02  0.31058008425E+02  0.60038206336E+03  0.62669502484E+03  0.17300000000E+03 0.  1.
         -6    1    1    2    0  503  0.37342097815E+02 -0.31058008425E+02  0.17121179540E+03  0.24819651698E+03  0.17300000000E+03 0.  1.
<mgrwt>
<rscale>  2 0.17968871E+03</rscale>
<asrwt>0</asrwt>
<pdfrwt beam="1">  1       21 0.12665271E+00 0.17968871E+03</pdfrwt>
<pdfrwt beam="2">  1       21 0.79459762E-02 0.17968871E+03</pdfrwt>
<totfact> 0.56421617E+04</totfact>
</mgrwt>
</event>
<event>
 4    2  0.3903561E+000  0.1772835E+03  0.7546771E-02  0.1170458E+00
         21   -1    0    0  503  502  0.00000000000E+00  0.00000000000E+00  0.49402091013E+02  0.49402091013E+02  0.00000000000E+00 0. -1.
         21   -1    0    0  501  503 -0.00000000000E+00 -0.00000000000E+00 -0.67274467726E+03  0.67274467726E+03  0.00000000000E+00 0. -1.
          6    1    1    2  501    0  0.38160467830E+02  0.66498277954E+01 -0.39583070794E+03  0.43371810068E+03  0.17300000000E+03 0.  1.
         -6    1    1    2    0  502 -0.38160467830E+02 -0.66498277954E+01 -0.22751187831E+03  0.28842866759E+03  0.17300000000E+03 0.  1.
<mgrwt>
<rscale>  2 0.17728351E+03</rscale>
<asrwt>0</asrwt>
<pdfrwt beam="1">  1       21 0.76003223E-02 0.17728351E+03</pdfrwt>
<pdfrwt beam="2">  1       21 0.10349917E+00 0.17728351E+03</pdfrwt>
<totfact> 0.99847938E+04</totfact>
</mgrwt>
</event>
<event>
 4    2  0.3903561E+000  0.1927493E+03  0.7546771E-02  0.1156005E+00
         21   -1    0    0  501  502  0.00000000000E+00  0.00000000000E+00  0.68725142817E+03  0.68725142817E+03  0.00000000000E+00 0. -1.
         21   -1    0    0  502  503 -0.00000000000E+00 -0.00000000000E+00 -0.16601795771E+03  0.16601795771E+03  0.00000000000E+00 0. -1.
          6    1    1    2  501    0  0.66086763388E+02  0.53439809523E+02  0.61097118593E+03  0.64065440260E+03  0.17300000000E+03 0. -1.
         -6    1    1    2    0  503 -0.66086763388E+02 -0.53439809523E+02 -0.89737715469E+02  0.21261498328E+03  0.17300000000E+03 0. -1.
<mgrwt>
<rscale>  2 0.19274925E+03</rscale>
<asrwt>0</asrwt>
<pdfrwt beam="1">  1       21 0.10573099E+00 0.19274925E+03</pdfrwt>
<pdfrwt beam="2">  1       21 0.25541225E-01 0.19274925E+03</pdfrwt>
<totfact> 0.10446898E+04</totfact>
</mgrwt>
</event>
<event>
 4    2  0.3903561E+000  0.2160931E+03  0.7546771E-02  0.1136830E+00
         21   -1    0    0  503  502  0.00000000000E+00  0.00000000000E+00  0.76359251993E+03  0.76359251993E+03  0.00000000000E+00 0.  1.
         21   -1    0    0  501  503 -0.00000000000E+00 -0.00000000000E+00 -0.77021888599E+02  0.77021888599E+02  0.00000000000E+00 0.  1.
          6    1    1    2  501    0 -0.10935312189E+03 -0.69347859119E+02  0.15250727059E+03  0.26448950530E+03  0.17300000000E+03 0.  1.
         -6    1    1    2    0  502  0.10935312189E+03  0.69347859119E+02  0.53406336074E+03  0.57612490322E+03  0.17300000000E+03 0.  1.
<mgrwt>
<rscale>  2 0.21609311E+03</rscale>
<asrwt>0</asrwt>
<pdfrwt beam="1">  1       21 0.11747577E+00 0.21609311E+03</pdfrwt>
<pdfrwt beam="2">  1       21 0.11849522E-01 0.21609311E+03</pdfrwt>
<totfact> 0.32965026E+04</totfact>
</mgrwt>
</event>
<event>
 4    2  0.3903561E+000  0.3235416E+03  0.7546771E-02  0.1074031E+00
         21   -1    0    0  503  502  0.00000000000E+00  0.00000000000E+00  0.12403714134E+03  0.12403714134E+03  0.00000000000E+00 0. -1.
         21   -1    0    0  501  503 -0.00000000000E+00 -0.00000000000E+00 -0.84437133316E+03  0.84437133316E+03  0.00000000000E+00 0. -1.
          6    1    1    2  501    0  0.23450668511E+03 -0.14055880283E+03 -0.37118659251E+03  0.49240090259E+03  0.17300000000E+03 0. -1.
         -6    1    1    2    0  502 -0.23450668511E+03  0.14055880283E+03 -0.34914759930E+03  0.47600757191E+03  0.17300000000E+03 0. -1.
<mgrwt>
<rscale>  2 0.32354159E+03</rscale>
<asrwt>0</asrwt>
<pdfrwt beam="1">  1       21 0.19082638E-01 0.32354159E+03</pdfrwt>
<pdfrwt beam="2">  1       21 0.12990328E+00 0.32354159E+03</pdfrwt>
<totfact> 0.10125085E+04</totfact>
</mgrwt>
</event>
<event>
 4    2  0.3903561E+000  0.2593848E+03  0.7546771E-02  0.1107513E+00
         21   -1    0    0  501  502  0.00000000000E+00  0.00000000000E+00  0.11818768322E+04  0.11818768322E+04  0.00000000000E+00 0. -1.
         21   -1    0    0  502  503 -0.00000000000E+00 -0.00000000000E+00 -0.57132966454E+02  0.57132966454E+02  0.00000000000E+00 0.  1.
          6    1    1    2  501    0 -0.17522334560E+03  0.81536719195E+02  0.59958693525E+03  0.65328780055E+03  0.17300000000E+03 0. -1.
         -6    1    1    2    0  503  0.17522334560E+03 -0.81536719195E+02  0.52515693048E+03  0.58572199809E+03  0.17300000000E+03 0.  1.
<mgrwt>
<rscale>  2 0.25938477E+03</rscale>
<asrwt>0</asrwt>
<pdfrwt beam="1">  1       21 0.18182719E+00 0.25938477E+03</pdfrwt>
<pdfrwt beam="2">  1       21 0.87896880E-02 0.25938477E+03</pdfrwt>
<totfact> 0.17231790E+04</totfact>
</mgrwt>
</event>
<event>
 4    2  0.3903561E+000  0.1874458E+03  0.7546771E-02  0.1160785E+00
         21   -1    0    0  503  502  0.00000000000E+00  0.00000000000E+00  0.82604536231E+02  0.82604536231E+02  0.00000000000E+00 0.  1.
         21   -1    0    0  501  503 -0.00000000000E+00 -0.00000000000E+00 -0.71861097843E+03  0.71861097843E+03  0.00000000000E+00 0.  1.
          6    1    1    2  501    0  0.66824123338E+02  0.27229665009E+02 -0.57392006170E+03  0.60375504580E+03  0.17300000000E+03 0.  1.
         -6    1    1    2    0  502 -0.66824123338E+02 -0.27229665009E+02 -0.62086380501E+02  0.19746046885E+03  0.17300000000E+03 0.  1.
<mgrwt>
<rscale>  2 0.18744577E+03</rscale>
<asrwt>0</asrwt>
<pdfrwt beam="1">  1       21 0.12708390E-01 0.18744577E+03</pdfrwt>
<pdfrwt beam="2">  1       21 0.11055554E+00 0.18744577E+03</pdfrwt>
<totfact> 0.34259994E+04</totfact>
</mgrwt>
</event>
<event>
 4    2  0.3903561E+000  0.2037865E+03  0.7546771E-02  0.1146583E+00
         21   -1    0    0  503  502  0.00000000000E+00  0.00000000000E+00  0.88442153013E+03  0.88442153013E+03  0.00000000000E+00 0.  1.
         21   -1    0    0  501  503 -0.00000000000E+00 -0.00000000000E+00 -0.48591147319E+02  0.48591147319E+02  0.00000000000E+00 0.  1.
          6    1    1    2  501    0  0.19265456038E+02 -0.10596587352E+03  0.50349146963E+03  0.54316901986E+03  0.17300000000E+03 0.  1.
         -6    1    1    2    0  502 -0.19265456038E+02  0.10596587352E+03  0.33233891319E+03  0.38984365759E+03  0.17300000000E+03 0.  1.
<mgrwt>
<rscale>  2 0.20378647E+03</rscale>
<asrwt>0</asrwt>
<pdfrwt beam="1">  1       21 0.13606484E+00 0.20378647E+03</pdfrwt>
<pdfrwt beam="2">  1       21 0.74755618E-02 0.20378647E+03</pdfrwt>
<totfact> 0.51668888E+04</totfact>
</mgrwt>
</event>
<event>
 4    2  0.3903561E+000  0.3263469E+03  0.7546771E-02  0.1072765E+00
         21   -1    0    0  503  502  0.00000000000E+00  0.00000000000E+00  0.33625029586E+03  0.33625029586E+03  0.00000000000E+00 0. -1.
         21   -1    0    0  501  503 -0.00000000000E+00 -0.00000000000E+00 -0.34124029904E+03  0.34124029904E+03  0.00000000000E+00 0.  1.
          6    1    1    2  501    0 -0.45245027589E+02 -0.27299485863E+03  0.88281059039E+02  0.33807669358E+03  0.17300000000E+03 0. -1.
         -6    1    1    2    0  502  0.45245027589E+02  0.27299485863E+03 -0.93271062218E+02  0.33941390132E+03  0.17300000000E+03 0.  1.
<mgrwt>
<rscale>  2 0.32634691E+03</rscale>
<asrwt>0</asrwt>
<pdfrwt beam="1">  1       21 0.51730815E-01 0.32634691E+03</pdfrwt>
<pdfrwt beam="2">  1       21 0.52498507E-01 0.32634691E+03</pdfrwt>
<totfact> 0.11386038E+04</totfact>
</mgrwt>
</event>
<event>
 4    2  0.3903561E+000  0.2155929E+03  0.7546771E-02  0.1137212E+00
         21   -1    0    0  503  502  0.00000000000E+00  0.00000000000E+00  0.53468431966E+02  0.53468431966E+02  0.00000000000E+00 0.  1.
         21   -1    0    0  501  503 -0.00000000000E+00 -0.00000000000E+00 -0.88404003584E+03  0.88404003584E+03  0.00000000000E+00 0. -1.
          6    1    1    2  501    0  0.62119337469E+01  0.12850173781E+03 -0.35476428859E+03  0.41513610443E+03  0.17300000000E+03 0. -1.
         -6    1    1    2    0  502 -0.62119337469E+01 -0.12850173781E+03 -0.47580731528E+03  0.52237236338E+03  0.17300000000E+03 0.  1.
<mgrwt>
<rscale>  2 0.21559287E+03</rscale>
<asrwt>0</asrwt>
<pdfrwt beam="1">  1       21 0.82259128E-02 0.21559287E+03</pdfrwt>
<pdfrwt beam="2">  1       21 0.13600616E+00 0.21559287E+03</pdfrwt>
<totfact> 0.43511274E+04</totfact>
</mgrwt>
</event>
<event>
 4    2  0.3903561E+000  0.2187653E+03  0.7546771E-02  0.1134807E+00
         21   -1    0    0  503  502  0.00000000000E+00  0.00000000000E+00  0.11010732482E+04  0.11010732482E+04  0.00000000000E+00 0. -1.
         21   -1    0    0  501  503 -0.00000000000E+00 -0.00000000000E+00 -0.55601817422E+02  0.55601817422E+02  0.00000000000E+00 0. -1.
          6    1    1    2  501    0  0.62703201183E+02 -0.11831125387E+03  0.25253422395E+03  0.33411342161E+03  0.17300000000E+03 0. -1.
         -6    1    1    2    0  502 -0.62703201183E+02  0.11831125387E+03  0.79293720678E+03  0.82256164397E+03  0.17300000000E+03 0. -1.
<mgrwt>
<rscale>  2 0.21876527E+03</rscale>
<asrwt>0</asrwt>
<pdfrwt beam="1">  1       21 0.16939587E+00 0.21876527E+03</pdfrwt>
<pdfrwt beam="2">  1       21 0.85541265E-02 0.21876527E+03</pdfrwt>
<totfact> 0.22608521E+04</totfact>
</mgrwt>
</event>
<event>
 4    2  0.3903561E+000  0.1938039E+03  0.7546771E-02  0.1155074E+00
         21   -1    0    0  501  502  0.00000000000E+00  0.00000000000E+00  0.59488152270E+02  0.59488152270E+02  0.00000000000E+00 0. -1.
         21   -1    0    0  502  503 -0.00000000000E+00 -0.00000000000E+00 -0.13228706633E+04  0.13228706633E+04  0.00000000000E+00 0.  1.
          6    1    1    2  501    0 -0.72841700407E+02 -0.48218829026E+02 -0.13197501076E+03  0.23447254052E+03  0.17300000000E+03 0. -1.
         -6    1    1    2    0  503  0.72841700407E+02  0.48218829026E+02 -0.11314075003E+04  0.11478862751E+04  0.17300000000E+03 0.  1.
<mgrwt>
<rscale>  2 0.19380394E+03</rscale>
<asrwt>0</asrwt>
<pdfrwt beam="1">  1       21 0.91520244E-02 0.19380394E+03</pdfrwt>
<pdfrwt beam="2">  1       21 0.20351854E+00 0.19380394E+03</pdfrwt>
<totfact> 0.12081999E+04</totfact>
</mgrwt>
</event>
<event>
 4    2  0.3903561E+000  0.2313088E+03  0.7546771E-02  0.1125722E+00
         21   -1    0    0  503  502  0.00000000000E+00  0.00000000000E+00  0.86912121897E+03  0.86912121897E+03  0.00000000000E+00 0.  1.
         21   -1    0    0  501  503 -0.00000000000E+00 -0.00000000000E+00 -0.66763097858E+02  0.66763097858E+02  0.00000000000E+00 0. -1.
          6    1    1    2  501    0 -0.12911059321E+03 -0.83097764219E+02  0.27055529308E+03  0.35595498354E+03  0.17300000000E+03 0. -1.
         -6    1    1    2    0  502  0.12911059321E+03  0.83097764219E+02  0.53180282803E+03  0.57992933328E+03  0.17300000000E+03 0.  1.
<mgrwt>
<rscale>  2 0.23130885E+03</rscale>
<asrwt>0</asrwt>
<pdfrwt beam="1">  1       21 0.13371095E+00 0.23130885E+03</pdfrwt>
<pdfrwt beam="2">  1       21 0.10271246E-01 0.23130885E+03</pdfrwt>
<totfact> 0.30471491E+04</totfact>
</mgrwt>
</event>
<event>
 4    2  0.3903561E+000  0.1761314E+03  0.7546771E-02  0.1171600E+00
         21   -1    0    0  501  502  0.00000000000E+00  0.00000000000E+00  0.17756951736E+03  0.17756951736E+03  0.00000000000E+00 0.  1.
         21   -1    0    0  502  503 -0.00000000000E+00 -0.00000000000E+00 -0.36380574355E+03  0.36380574355E+03  0.00000000000E+00 0.  1.
          6    1    1    2  501    0 -0.32188110568E+02 -0.75636171499E+01 -0.28827336871E+03  0.33782216901E+03  0.17300000000E+03 0.  1.
         -6    1    1    2    0  503  0.32188110568E+02  0.75636171499E+01  0.10203714252E+03  0.20355309190E+03  0.17300000000E+03 0.  1.
<mgrwt>
<rscale>  2 0.17613144E+03</rscale>
<asrwt>0</asrwt>
<pdfrwt beam="1">  1       21 0.27318387E-01 0.17613144E+03</pdfrwt>
<pdfrwt beam="2">  1       21 0.55970114E-01 0.17613144E+03</pdfrwt>
<totfact> 0.38731553E+04</totfact>
</mgrwt>
</event>
<event>
 4    2  0.3903561E+000  0.1882570E+03  0.7546771E-02  0.1160043E+00
         21   -1    0    0  501  502  0.00000000000E+00  0.00000000000E+00  0.31315313919E+02  0.31315313919E+02  0.00000000000E+00 0.  1.
         21   -1    0    0  502  503 -0.00000000000E+00 -0.00000000000E+00 -0.11953212615E+04  0.11953212615E+04  0.00000000000E+00 0.  1.
          6    1    1    2  501    0  0.44811571472E+02  0.59191385980E+02 -0.44054785727E+03  0.47908570388E+03  0.17300000000E+03 0.  1.
         -6    1    1    2    0  503 -0.44811571472E+02 -0.59191385980E+02 -0.72345809033E+03  0.74755087156E+03  0.17300000000E+03 0.  1.
<mgrwt>
<rscale>  2 0.18825700E+03</rscale>
<asrwt>0</asrwt>
<pdfrwt beam="1">  1       21 0.48177421E-02 0.18825700E+03</pdfrwt>
<pdfrwt beam="2">  1       21 0.18389552E+00 0.18825700E+03</pdfrwt>
<totfact> 0.49189986E+04</totfact>
</mgrwt>
</event>
<event>
 4    2  0.3903561E+000  0.1900851E+03  0.7546771E-02  0.1158385E+00
         21   -1    0    0  501  502  0.00000000000E+00  0.00000000000E+00  0.21577809313E+03  0.21577809313E+03  0.00000000000E+00 0. -1.
         21   -1    0    0  502  503 -0.00000000000E+00 -0.00000000000E+00 -0.16965155671E+03  0.16965155671E+03  0.00000000000E+00 0.  1.
          6    1    1    2  501    0  0.78475907689E+02 -0.66983572694E+01  0.11167043452E+01  0.19008835605E+03  0.17300000000E+03 0. -1.
         -6    1    1    2    0  503 -0.78475907689E+02  0.66983572694E+01  0.45009832073E+02  0.19534129379E+03  0.17300000000E+03 0. -1.
<mgrwt>
<rscale>  2 0.19008508E+03</rscale>
<asrwt>0</asrwt>
<pdfrwt beam="1">  1       21 0.33196630E-01 0.19008508E+03</pdfrwt>
<pdfrwt beam="2">  1       21 0.26100239E-01 0.19008508E+03</pdfrwt>
<totfact> 0.12199048E+05</totfact>
</mgrwt>
</event>
<event>
 4    2  0.3903561E+000  0.2137331E+03  0.7546771E-02  0.1138643E+00
         21   -1    0    0  501  502  0.00000000000E+00  0.00000000000E+00  0.65119580675E+02  0.65119580675E+02  0.00000000000E+00 0.  1.
         21   -1    0    0  502  503 -0.00000000000E+00 -0.00000000000E+00 -0.98628108761E+03  0.98628108761E+03  0.00000000000E+00 0. -1.
          6    1    1    2  501    0 -0.23107536025E+02  0.12336482949E+03 -0.17810045600E+03  0.27821145160E+03  0.17300000000E+03 0.  1.
         -6    1    1    2    0  503  0.23107536025E+02 -0.12336482949E+03 -0.74306105093E+03  0.77318921668E+03  0.17300000000E+03 0. -1.
<mgrwt>
<rscale>  2 0.21373310E+03</rscale>
<asrwt>0</asrwt>
<pdfrwt beam="1">  1       21 0.10018397E-01 0.21373310E+03</pdfrwt>
<pdfrwt beam="2">  1       21 0.15173555E+00 0.21373310E+03</pdfrwt>
<totfact> 0.23135862E+04</totfact>
</mgrwt>
</event>
<event>
 4    2  0.3903561E+000  0.1820224E+03  0.7546771E-02  0.1165860E+00
         21   -1    0    0  501  502  0.00000000000E+00  0.00000000000E+00  0.22193807908E+03  0.22193807908E+03  0.00000000000E+00 0. -1.
         21   -1    0    0  502  503 -0.00000000000E+00 -0.00000000000E+00 -0.18507946749E+03  0.18507946749E+03  0.00000000000E+00 0. -1.
          6    1    1    2  501    0  0.82445017555E+01  0.55992818818E+02  0.10792622853E+03  0.21161341728E+03  0.17300000000E+03 0. -1.
         -6    1    1    2    0  503 -0.82445017555E+01 -0.55992818818E+02 -0.71067616939E+02  0.19540412930E+03  0.17300000000E+03 0. -1.
<mgrwt>
<rscale>  2 0.18202244E+03</rscale>
<asrwt>0</asrwt>
<pdfrwt beam="1">  1       21 0.34144320E-01 0.18202244E+03</pdfrwt>
<pdfrwt beam="2">  1       21 0.28473764E-01 0.18202244E+03</pdfrwt>
<totfact> 0.97871003E+04</totfact>
</mgrwt>
</event>
<event>
 4    2  0.3903561E+000  0.2541192E+03  0.7546771E-02  0.1110729E+00
         21   -1    0    0  501  502  0.00000000000E+00  0.00000000000E+00  0.12444570776E+03  0.12444570776E+03  0.00000000000E+00 0. -1.
         21   -1    0    0  502  503 -0.00000000000E+00 -0.00000000000E+00 -0.69675592475E+03  0.69675592475E+03  0.00000000000E+00 0. -1.
          6    1    1    2  501    0 -0.13059485423E+02 -0.18567985120E+03 -0.78712882852E+02  0.26603059078E+03  0.17300000000E+03 0. -1.
         -6    1    1    2    0  503  0.13059485423E+02  0.18567985120E+03 -0.49359733414E+03  0.55517104173E+03  0.17300000000E+03 0. -1.
<mgrwt>
<rscale>  2 0.25411918E+03</rscale>
<asrwt>0</asrwt>
<pdfrwt beam="1">  1       21 0.19145493E-01 0.25411918E+03</pdfrwt>
<pdfrwt beam="2">  1       21 0.10719322E+00 0.25411918E+03</pdfrwt>
<totfact> 0.16795497E+04</totfact>
</mgrwt>
</event>
<event>
 4    2  0.3903561E+000  0.1861321E+03  0.7546771E-02  0.1161997E+00
         21   -1    0    0  503  502  0.00000000000E+00  0.00000000000E+00  0.41079812993E+03  0.41079812993E+03  0.00000000000E+00 0. -1.
         21   -1    0    0  501  503 -0.00000000000E+00 -0.00000000000E+00 -0.19034664839E+03  0.19034664839E+03  0.00000000000E+00 0. -1.
          6    1    1    2  501    0 -0.65262887580E+02 -0.21375542836E+02 -0.11408536521E+03  0.21831314409E+03  0.17300000000E+03 0. -1.
         -6    1    1    2    0  502  0.65262887580E+02  0.21375542836E+02  0.33453684676E+03  0.38283163423E+03  0.17300000000E+03 0. -1.
<mgrwt>
<rscale>  2 0.18613210E+03</rscale>
<asrwt>0</asrwt>
<pdfrwt beam="1">  1       21 0.63199712E-01 0.18613210E+03</pdfrwt>
<pdfrwt beam="2">  1       21 0.29284100E-01 0.18613210E+03</pdfrwt>
<totfact> 0.25968167E+04</totfact>
</mgrwt>
</event>
<event>
 4    2  0.3903561E+000  0.1829194E+03  0.7546771E-02  0.1165007E+00
         21   -1    0    0  501  502  0.00000000000E+00  0.00000000000E+00  0.45801645281E+03  0.45801645281E+03  0.00000000000E+00 0. -1.
         21   -1    0    0  502  503 -0.00000000000E+00 -0.00000000000E+00 -0.18577685646E+03  0.18577685646E+03  0.00000000000E+00 0. -1.
          6    1    1    2  501    0  0.14241521725E+02 -0.57686182126E+02  0.38686256083E+03  0.42792774801E+03  0.17300000000E+03 0. -1.
         -6    1    1    2    0  503 -0.14241521725E+02  0.57686182126E+02 -0.11462296448E+03  0.21586556125E+03  0.17300000000E+03 0. -1.
<mgrwt>
<rscale>  2 0.18291943E+03</rscale>
<asrwt>0</asrwt>
<pdfrwt beam="1">  1       21 0.70464069E-01 0.18291943E+03</pdfrwt>
<pdfrwt beam="2">  1       21 0.28581055E-01 0.18291943E+03</pdfrwt>
<totfact> 0.21503675E+04</totfact>
</mgrwt>
</event>
<event>
 4    2  0.3903561E+000  0.1876606E+03  0.7546771E-02  0.1160588E+00
         21   -1    0    0  503  502  0.00000000000E+00  0.00000000000E+00  0.12024516992E+02  0.12024516992E+02  0.00000000000E+00 0.  1.
         21   -1    0    0  501  503 -0.00000000000E+00 -0.00000000000E+00 -0.29478123723E+04  0.29478123723E+04  0.00000000000E+00 0.  1.
          6    1    1    2  501    0 -0.58522938316E+02  0.43157425858E+02 -0.15869814981E+04  0.15980384142E+04  0.17300000000E+03 0.  1.
         -6    1    1    2    0  502  0.58522938316E+02 -0.43157425858E+02 -0.13488063572E+04  0.13617984752E+04  0.17300000000E+03 0.  1.
<mgrwt>
<rscale>  2 0.18766059E+03</rscale>
<asrwt>0</asrwt>
<pdfrwt beam="1">  1       21 0.18499259E-02 0.18766059E+03</pdfrwt>
<pdfrwt beam="2">  1       21 0.45350956E+00 0.18766059E+03</pdfrwt>
<totfact> 0.55495635E+03</totfact>
</mgrwt>
</event>
<event>
 4    2  0.3903561E+000  0.1868732E+03  0.7546771E-02  0.1161312E+00
         21   -1    0    0  503  502  0.00000000000E+00  0.00000000000E+00  0.75460094282E+03  0.75460094282E+03  0.00000000000E+00 0.  1.
         21   -1    0    0  501  503 -0.00000000000E+00 -0.00000000000E+00 -0.83497910869E+02  0.83497910869E+02  0.00000000000E+00 0.  1.
          6    1    1    2  501    0  0.59198539445E+02 -0.38576329572E+02  0.55773403660E+02  0.19501864739E+03  0.17300000000E+03 0.  1.
         -6    1    1    2    0  502 -0.59198539445E+02  0.38576329572E+02  0.61532962829E+03  0.64308020630E+03  0.17300000000E+03 0.  1.
<mgrwt>
<rscale>  2 0.18687322E+03</rscale>
<asrwt>0</asrwt>
<pdfrwt beam="1">  1       21 0.11609245E+00 0.18687322E+03</pdfrwt>
<pdfrwt beam="2">  1       21 0.12845833E-01 0.18687322E+03</pdfrwt>
<totfact> 0.29851784E+04</totfact>
</mgrwt>
</event>
<event>
 4    2  0.3903561E+000  0.2419114E+03  0.7546771E-02  0.1118526E+00
         21   -1    0    0  503  502  0.00000000000E+00  0.00000000000E+00  0.14920692542E+03  0.14920692542E+03  0.00000000000E+00 0.  1.
         21   -1    0    0  501  503 -0.00000000000E+00 -0.00000000000E+00 -0.64860765634E+03  0.64860765634E+03  0.00000000000E+00 0. -1.
          6    1    1    2  501    0  0.15474823034E+03  0.68155112364E+02 -0.50050414145E+03  0.55590064737E+03  0.17300000000E+03 0. -1.
         -6    1    1    2    0  502 -0.15474823034E+03 -0.68155112364E+02  0.11034105333E+01  0.24191393439E+03  0.17300000000E+03 0.  1.
<mgrwt>
<rscale>  2 0.24191142E+03</rscale>
<asrwt>0</asrwt>
<pdfrwt beam="1">  1       21 0.22954912E-01 0.24191142E+03</pdfrwt>
<pdfrwt beam="2">  1       21 0.99785792E-01 0.24191142E+03</pdfrwt>
<totfact> 0.14263998E+04</totfact>
</mgrwt>
</event>
<event>
 4    2  0.3903561E+000  0.2093770E+03  0.7546771E-02  0.1142060E+00
         21   -1    0    0  501  502  0.00000000000E+00  0.00000000000E+00  0.19084704838E+03  0.19084704838E+03  0.00000000000E+00 0.  1.
         21   -1    0    0  502  503 -0.00000000000E+00 -0.00000000000E+00 -0.23775071855E+03  0.23775071855E+03  0.00000000000E+00 0. -1.
          6    1    1    2  501    0  0.99269922584E+02  0.63680521169E+02  0.15967782465E+02  0.20998499085E+03  0.17300000000E+03 0.  1.
         -6    1    1    2    0  503 -0.99269922584E+02 -0.63680521169E+02 -0.62871452641E+02  0.21861277608E+03  0.17300000000E+03 0.  1.
<mgrwt>
<rscale>  2 0.20937700E+03</rscale>
<asrwt>0</asrwt>
<pdfrwt beam="1">  1       21 0.29361084E-01 0.20937700E+03</pdfrwt>
<pdfrwt beam="2">  1       21 0.36577033E-01 0.20937700E+03</pdfrwt>
<totfact> 0.79532591E+04</totfact>
</mgrwt>
</event>
<event>
 4    2  0.3903561E+000  0.3234857E+03  0.7546771E-02  0.1074056E+00
         21   -1    0    0  503  502  0.00000000000E+00  0.00000000000E+00  0.73269702937E+03  0.73269702937E+03  0.00000000000E+00 0. -1.
         21   -1    0    0  501  503 -0.00000000000E+00 -0.00000000000E+00 -0.14305264610E+03  0.14305264610E+03  0.00000000000E+00 0.  1.
          6    1    1    2  501    0  0.24365936349E+03  0.12387129696E+03  0.31252223822E+03  0.44979232209E+03  0.17300000000E+03 0. -1.
         -6    1    1    2    0  502 -0.24365936349E+03 -0.12387129696E+03  0.27712214505E+03  0.42595735339E+03  0.17300000000E+03 0.  1.
<mgrwt>
<rscale>  2 0.32348568E+03</rscale>
<asrwt>0</asrwt>
<pdfrwt beam="1">  1       21 0.11272262E+00 0.32348568E+03</pdfrwt>
<pdfrwt beam="2">  1       21 0.22008100E-01 0.32348568E+03</pdfrwt>
<totfact> 0.11048137E+04</totfact>
</mgrwt>
</event>
<event>
 4    2  0.3903561E+000  0.3069972E+03  0.7546771E-02  0.1081794E+00
         21   -1    0    0  503  502  0.00000000000E+00  0.00000000000E+00  0.11949251911E+03  0.11949251911E+03  0.00000000000E+00 0.  1.
         21   -1    0    0  501  503 -0.00000000000E+00 -0.00000000000E+00 -0.91634962600E+03  0.91634962600E+03  0.00000000000E+00 0. -1.
          6    1    1    2  501    0 -0.25125119166E+03  0.34512450127E+02 -0.20514601347E+03  0.36923184771E+03  0.17300000000E+03 0.  1.
         -6    1    1    2    0  502  0.25125119166E+03 -0.34512450127E+02 -0.59171109342E+03  0.66661029740E+03  0.17300000000E+03 0. -1.
<mgrwt>
<rscale>  2 0.30699718E+03</rscale>
<asrwt>0</asrwt>
<pdfrwt beam="1">  1       21 0.18383464E-01 0.30699718E+03</pdfrwt>
<pdfrwt beam="2">  1       21 0.14097687E+00 0.30699718E+03</pdfrwt>
<totfact> 0.88493713E+03</totfact>
</mgrwt>
</event>
<event>
 4    2  0.3903561E+000  0.3006186E+03  0.7546771E-02  0.1084932E+00
         21   -1    0    0  503  502  0.00000000000E+00  0.00000000000E+00  0.10528809257E+04  0.10528809257E+04  0.00000000000E+00 0.  1.
         21   -1    0    0  501  503 -0.00000000000E+00 -0.00000000000E+00 -0.13320210361E+03  0.13320210361E+03  0.00000000000E+00 0.  1.
          6    1    1    2  501    0  0.21372973773E+03  0.12149952076E+03  0.10618518355E+03  0.31882099608E+03  0.17300000000E+03 0.  1.
         -6    1    1    2    0  502 -0.21372973773E+03 -0.12149952076E+03  0.81349363854E+03  0.86726203323E+03  0.17300000000E+03 0.  1.
<mgrwt>
<rscale>  2 0.30061859E+03</rscale>
<asrwt>0</asrwt>
<pdfrwt beam="1">  1       21 0.16198168E+00 0.30061859E+03</pdfrwt>
<pdfrwt beam="2">  1       21 0.20492632E-01 0.30061859E+03</pdfrwt>
<totfact> 0.49812655E+03</totfact>
</mgrwt>
</event>
<event>
 4    2  0.3903561E+000  0.2032083E+03  0.7546771E-02  0.1147060E+00
         21   -1    0    0  503  502  0.00000000000E+00  0.00000000000E+00  0.62847409666E+02  0.62847409666E+02  0.00000000000E+00 0. -1.
         21   -1    0    0  501  503 -0.00000000000E+00 -0.00000000000E+00 -0.82382769975E+03  0.82382769975E+03  0.00000000000E+00 0. -1.
          6    1    1    2  501    0  0.42515508899E+02  0.97760147832E+02 -0.18101397363E+03  0.27213907042E+03  0.17300000000E+03 0. -1.
         -6    1    1    2    0  502 -0.42515508899E+02 -0.97760147832E+02 -0.57996631645E+03  0.61453603899E+03  0.17300000000E+03 0. -1.
<mgrwt>
<rscale>  2 0.20320830E+03</rscale>
<asrwt>0</asrwt>
<pdfrwt beam="1">  1       21 0.96688317E-02 0.20320830E+03</pdfrwt>
<pdfrwt beam="2">  1       21 0.12674273E+00 0.20320830E+03</pdfrwt>
<totfact> 0.39440937E+04</totfact>
</mgrwt>
</event>
<event>
 4    2  0.3903561E+000  0.3027150E+03  0.7546771E-02  0.1083891E+00
         21   -1    0    0  501  502  0.00000000000E+00  0.00000000000E+00  0.66154418950E+02  0.66154418950E+02  0.00000000000E+00 0.  1.
         21   -1    0    0  502  503 -0.00000000000E+00 -0.00000000000E+00 -0.16342829393E+04  0.16342829393E+04  0.00000000000E+00 0.  1.
          6    1    1    2  501    0  0.24680043984E+03 -0.28229940516E+02 -0.45213279358E+03  0.54411437187E+03  0.17300000000E+03 0.  1.
         -6    1    1    2    0  503 -0.24680043984E+03  0.28229940516E+02 -0.11159957267E+04  0.11563229863E+04  0.17300000000E+03 0.  1.
<mgrwt>
<rscale>  2 0.30271503E+03</rscale>
<asrwt>0</asrwt>
<pdfrwt beam="1">  1       21 0.10177605E-01 0.30271503E+03</pdfrwt>
<pdfrwt beam="2">  1       21 0.25142810E+00 0.30271503E+03</pdfrwt>
<totfact> 0.46801712E+03</totfact>
</mgrwt>
</event>
<event>
 4    2  0.3903561E+000  0.2837405E+03  0.7546771E-02  0.1093663E+00
         21   -1    0    0  503  502  0.00000000000E+00  0.00000000000E+00  0.53851533067E+03  0.53851533067E+03  0.00000000000E+00 0.  1.
         21   -1    0    0  501  503 -0.00000000000E+00 -0.00000000000E+00 -0.15020240890E+03  0.15020240890E+03  0.00000000000E+00 0.  1.
          6    1    1    2  501    0  0.19197401459E+03 -0.11715662754E+03  0.17062813266E+03  0.33109312483E+03  0.17300000000E+03 0.  1.
         -6    1    1    2    0  502 -0.19197401459E+03  0.11715662754E+03  0.21768478911E+03  0.35762461474E+03  0.17300000000E+03 0.  1.
<mgrwt>
<rscale>  2 0.28374055E+03</rscale>
<asrwt>0</asrwt>
<pdfrwt beam="1">  1       21 0.82848512E-01 0.28374055E+03</pdfrwt>
<pdfrwt beam="2">  1       21 0.23108063E-01 0.28374055E+03</pdfrwt>
<totfact> 0.21333192E+04</totfact>
</mgrwt>
</event>
<event>
 4    2  0.3903561E+000  0.1788307E+03  0.7546771E-02  0.1168939E+00
         21   -1    0    0  503  502  0.00000000000E+00  0.00000000000E+00  0.14632880217E+03  0.14632880217E+03  0.00000000000E+00 0. -1.
         21   -1    0    0  501  503 -0.00000000000E+00 -0.00000000000E+00 -0.28549716183E+03  0.28549716183E+03  0.00000000000E+00 0. -1.
          6    1    1    2  501    0  0.21893587903E+02  0.39649745673E+02 -0.17413752148E+03  0.24960830897E+03  0.17300000000E+03 0. -1.
         -6    1    1    2    0  502 -0.21893587903E+02 -0.39649745673E+02  0.34969161814E+02  0.18221765502E+03  0.17300000000E+03 0. -1.
<mgrwt>
<rscale>  2 0.17883073E+03</rscale>
<asrwt>0</asrwt>
<pdfrwt beam="1">  1       21 0.22512124E-01 0.17883073E+03</pdfrwt>
<pdfrwt beam="2">  1       21 0.43922640E-01 0.17883073E+03</pdfrwt>
<totfact> 0.92540211E+04</totfact>
</mgrwt>
</event>
<event>
 4    2  0.3903561E+000  0.1738214E+03  0.7546771E-02  0.1173920E+00
         21   -1    0    0  501  502  0.00000000000E+00  0.00000000000E+00  0.46011862854E+02  0.46011862854E+02  0.00000000000E+00 0. -1.
         21   -1    0    0  502  503 -0.00000000000E+00 -0.00000000000E+00 -0.70044313361E+03  0.70044313361E+03  0.00000000000E+00 0. -1.
          6    1    1    2  501    0  0.16875618067E+02 -0.28641106156E+00 -0.23389645038E+03  0.29141279659E+03  0.17300000000E+03 0. -1.
         -6    1    1    2    0  503 -0.16875618067E+02  0.28641106156E+00 -0.42053482037E+03  0.45504219987E+03  0.17300000000E+03 0. -1.
<mgrwt>
<rscale>  2 0.17382137E+03</rscale>
<asrwt>0</asrwt>
<pdfrwt beam="1">  1       21 0.70787480E-02 0.17382137E+03</pdfrwt>
<pdfrwt beam="2">  1       21 0.10776048E+00 0.17382137E+03</pdfrwt>
<totfact> 0.10264930E+05</totfact>
</mgrwt>
</event>
<event>
 4    2  0.3903561E+000  0.2189193E+03  0.7546771E-02  0.1134691E+00
         21   -1    0    0  501  502  0.00000000000E+00  0.00000000000E+00  0.70650304657E+03  0.70650304657E+03  0.00000000000E+00 0. -1.
         21   -1    0    0  502  503 -0.00000000000E+00 -0.00000000000E+00 -0.37566042166E+03  0.37566042166E+03  0.00000000000E+00 0. -1.
          6    1    1    2  501    0  0.34042697899E+02 -0.12976030688E+03  0.65521973894E+03  0.69082454272E+03  0.17300000000E+03 0. -1.
         -6    1    1    2    0  503 -0.34042697899E+02  0.12976030688E+03 -0.32437711402E+03  0.39133892552E+03  0.17300000000E+03 0. -1.
<mgrwt>
<rscale>  2 0.21891926E+03</rscale>
<asrwt>0</asrwt>
<pdfrwt beam="1">  1       21 0.10869278E+00 0.21891926E+03</pdfrwt>
<pdfrwt beam="2">  1       21 0.57793911E-01 0.21891926E+03</pdfrwt>
<totfact> 0.18436999E+03</totfact>
</mgrwt>
</event>
<event>
 4    2  0.3903561E+000  0.2224690E+03  0.7546771E-02  0.1132056E+00
         21   -1    0    0  501  502  0.00000000000E+00  0.00000000000E+00  0.19685696947E+03  0.19685696947E+03  0.00000000000E+00 0.  1.
         21   -1    0    0  502  503 -0.00000000000E+00 -0.00000000000E+00 -0.38687936529E+03  0.38687936529E+03  0.00000000000E+00 0.  1.
          6    1    1    2  501    0 -0.13880869896E+03  0.17193517638E+02 -0.26771985664E+03  0.34808963443E+03  0.17300000000E+03 0.  1.
         -6    1    1    2    0  503  0.13880869896E+03 -0.17193517638E+02  0.77697460819E+02  0.23564670033E+03  0.17300000000E+03 0.  1.
<mgrwt>
<rscale>  2 0.22246904E+03</rscale>
<asrwt>0</asrwt>
<pdfrwt beam="1">  1       21 0.30285688E-01 0.22246904E+03</pdfrwt>
<pdfrwt beam="2">  1       21 0.59519901E-01 0.22246904E+03</pdfrwt>
<totfact> 0.27133550E+04</totfact>
</mgrwt>
</event>
<event>
 4    2  0.3903561E+000  0.2022287E+03  0.7546771E-02  0.1147872E+00
         21   -1    0    0  503  502  0.00000000000E+00  0.00000000000E+00  0.10344095051E+03  0.10344095051E+03  0.00000000000E+00 0.  1.
         21   -1    0    0  501  503 -0.00000000000E+00 -0.00000000000E+00 -0.71971897907E+03  0.71971897907E+03  0.00000000000E+00 0.  1.
          6    1    1    2  501    0  0.30575695931E+02 -0.10016265696E+03 -0.58444201500E+03  0.61844070041E+03  0.17300000000E+03 0.  1.
         -6    1    1    2    0  502 -0.30575695931E+02  0.10016265696E+03 -0.31836013560E+02  0.20471922917E+03  0.17300000000E+03 0.  1.
<mgrwt>
<rscale>  2 0.20222866E+03</rscale>
<asrwt>0</asrwt>
<pdfrwt beam="1">  1       21 0.15913993E-01 0.20222866E+03</pdfrwt>
<pdfrwt beam="2">  1       21 0.11072599E+00 0.20222866E+03</pdfrwt>
<totfact> 0.22501563E+04</totfact>
</mgrwt>
</event>
<event>
 4    2  0.3903561E+000  0.1769271E+03  0.7546771E-02  0.1170811E+00
         21   -1    0    0  503  502  0.00000000000E+00  0.00000000000E+00  0.52394096425E+02  0.52394096425E+02  0.00000000000E+00 0. -1.
         21   -1    0    0  501  503 -0.00000000000E+00 -0.00000000000E+00 -0.61698420392E+03  0.61698420392E+03  0.00000000000E+00 0.  1.
          6    1    1    2  501    0 -0.28898942921E+02  0.23217445309E+02 -0.34183783253E+03  0.38491077202E+03  0.17300000000E+03 0. -1.
         -6    1    1    2    0  502  0.28898942921E+02 -0.23217445309E+02 -0.22275227496E+03  0.28446752832E+03  0.17300000000E+03 0.  1.
<mgrwt>
<rscale>  2 0.17692710E+03</rscale>
<asrwt>0</asrwt>
<pdfrwt beam="1">  1       21 0.80606304E-02 0.17692710E+03</pdfrwt>
<pdfrwt beam="2">  1       21 0.94920645E-01 0.17692710E+03</pdfrwt>
<totfact> 0.11061320E+05</totfact>
</mgrwt>
</event>
<event>
 4    2  0.3903561E+000  0.4373019E+03  0.7546771E-02  0.1031578E+00
         21   -1    0    0  503  502  0.00000000000E+00  0.00000000000E+00  0.95583872529E+02  0.95583872529E+02  0.00000000000E+00 0. -1.
         21   -1    0    0  501  503 -0.00000000000E+00 -0.00000000000E+00 -0.34462974010E+04  0.34462974010E+04  0.00000000000E+00 0.  1.
          6    1    1    2  501    0 -0.29722162308E+03 -0.27011708068E+03 -0.28223319303E+04  0.28560095335E+04  0.17300000000E+03 0.  1.
         -6    1    1    2    0  502  0.29722162308E+03  0.27011708068E+03 -0.52838159810E+03  0.68587173998E+03  0.17300000000E+03 0. -1.
<mgrwt>
<rscale>  2 0.43730188E+03</rscale>
<asrwt>0</asrwt>
<pdfrwt beam="1">  1       21 0.14705211E-01 0.43730188E+03</pdfrwt>
<pdfrwt beam="2">  1       21 0.53019960E+00 0.43730188E+03</pdfrwt>
<totfact> 0.34883095E+01</totfact>
</mgrwt>
</event>
<event>
 4    2  0.3903561E+000  0.2867697E+03  0.7546771E-02  0.1092048E+00
         21   -1    0    0  501  502  0.00000000000E+00  0.00000000000E+00  0.29298395042E+03  0.29298395042E+03  0.00000000000E+00 0.  1.
         21   -1    0    0  502  503 -0.00000000000E+00 -0.00000000000E+00 -0.74165240130E+03  0.74165240130E+03  0.00000000000E+00 0.  1.
          6    1    1    2  501    0  0.17162519828E+03 -0.15117086594E+03  0.18350746019E+03  0.34045826079E+03  0.17300000000E+03 0.  1.
         -6    1    1    2    0  503 -0.17162519828E+03  0.15117086594E+03 -0.63217591107E+03  0.69417809093E+03  0.17300000000E+03 0.  1.
<mgrwt>
<rscale>  2 0.28676966E+03</rscale>
<asrwt>0</asrwt>
<pdfrwt beam="1">  1       21 0.45074454E-01 0.28676966E+03</pdfrwt>
<pdfrwt beam="2">  1       21 0.11410037E+00 0.28676966E+03</pdfrwt>
<totfact> 0.26337344E+03</totfact>
</mgrwt>
</event>
<event>
 4    2  0.3903561E+000  0.2123866E+03  0.7546771E-02  0.1139690E+00
         21   -1    0    0  503  502  0.00000000000E+00  0.00000000000E+00  0.72332364221E+02  0.72332364221E+02  0.00000000000E+00 0.  1.
         21   -1    0    0  501  503 -0.00000000000E+00 -0.00000000000E+00 -0.67300628666E+03  0.67300628666E+03  0.00000000000E+00 0. -1.
          6    1    1    2  501    0  0.10922500683E+03  0.56999643322E+02 -0.19938657053E+03  0.29131266015E+03  0.17300000000E+03 0. -1.
         -6    1    1    2    0  502 -0.10922500683E+03 -0.56999643322E+02 -0.40128735191E+03  0.45402599073E+03  0.17300000000E+03 0.  1.
<mgrwt>
<rscale>  2 0.21238658E+03</rscale>
<asrwt>0</asrwt>
<pdfrwt beam="1">  1       21 0.11128056E-01 0.21238658E+03</pdfrwt>
<pdfrwt beam="2">  1       21 0.10353943E+00 0.21238658E+03</pdfrwt>
<totfact> 0.50220135E+04</totfact>
</mgrwt>
</event>
<event>
 4    2  0.3903561E+000  0.1827638E+03  0.7546771E-02  0.1165155E+00
         21   -1    0    0  503  502  0.00000000000E+00  0.00000000000E+00  0.19679534540E+03  0.19679534540E+03  0.00000000000E+00 0. -1.
         21   -1    0    0  501  503 -0.00000000000E+00 -0.00000000000E+00 -0.33528552796E+03  0.33528552796E+03  0.00000000000E+00 0. -1.
          6    1    1    2  501    0  0.45924899879E+02  0.36939429100E+02 -0.25618777207E+03  0.31469793837E+03  0.17300000000E+03 0. -1.
         -6    1    1    2    0  502 -0.45924899879E+02 -0.36939429100E+02  0.11769758951E+03  0.21738293500E+03  0.17300000000E+03 0. -1.
<mgrwt>
<rscale>  2 0.18276383E+03</rscale>
<asrwt>0</asrwt>
<pdfrwt beam="1">  1       21 0.30276207E-01 0.18276383E+03</pdfrwt>
<pdfrwt beam="2">  1       21 0.51582389E-01 0.18276383E+03</pdfrwt>
<totfact> 0.37559097E+04</totfact>
</mgrwt>
</event>
<event>
 4    2  0.3903561E+000  0.1918981E+03  0.7546771E-02  0.1156760E+00
         21   -1    0    0  503  502  0.00000000000E+00  0.00000000000E+00  0.19038235774E+03  0.19038235774E+03  0.00000000000E+00 0. -1.
         21   -1    0    0  501  503 -0.00000000000E+00 -0.00000000000E+00 -0.23917248985E+03  0.23917248985E+03  0.00000000000E+00 0. -1.
          6    1    1    2  501    0  0.55644844436E+02 -0.61640310752E+02 -0.11832682086E+03  0.22544647515E+03  0.17300000000E+03 0. -1.
         -6    1    1    2    0  502 -0.55644844436E+02  0.61640310752E+02  0.69536688745E+02  0.20410837245E+03  0.17300000000E+03 0. -1.
<mgrwt>
<rscale>  2 0.19189809E+03</rscale>
<asrwt>0</asrwt>
<pdfrwt beam="1">  1       21 0.29289594E-01 0.19189809E+03</pdfrwt>
<pdfrwt beam="2">  1       21 0.36795768E-01 0.19189809E+03</pdfrwt>
<totfact> 0.79559359E+04</totfact>
</mgrwt>
</event>
<event>
 4    2  0.3903561E+000  0.2137451E+03  0.7546771E-02  0.1138634E+00
         21   -1    0    0  503  502  0.00000000000E+00  0.00000000000E+00  0.14435067861E+04  0.14435067861E+04  0.00000000000E+00 0.  1.
         21   -1    0    0  501  503 -0.00000000000E+00 -0.00000000000E+00 -0.33506796913E+02  0.33506796913E+02  0.00000000000E+00 0.  1.
          6    1    1    2  501    0  0.33368495936E+02  0.12101459405E+03  0.53115173640E+03  0.57254620388E+03  0.17300000000E+03 0.  1.
         -6    1    1    2    0  502 -0.33368495936E+02 -0.12101459405E+03  0.87884825280E+03  0.90446737915E+03  0.17300000000E+03 0.  1.
<mgrwt>
<rscale>  2 0.21374515E+03</rscale>
<asrwt>0</asrwt>
<pdfrwt beam="1">  1       21 0.22207792E+00 0.21374515E+03</pdfrwt>
<pdfrwt beam="2">  1       21 0.51548930E-02 0.21374515E+03</pdfrwt>
<totfact> 0.24554056E+04</totfact>
</mgrwt>
</event>
<event>
 4    2  0.3903561E+000  0.1934757E+03  0.7546771E-02  0.1155363E+00
         21   -1    0    0  501  502  0.00000000000E+00  0.00000000000E+00  0.11398103775E+03  0.11398103775E+03  0.00000000000E+00 0. -1.
         21   -1    0    0  502  503 -0.00000000000E+00 -0.00000000000E+00 -0.32845169869E+03  0.32845169869E+03  0.00000000000E+00 0. -1.
          6    1    1    2  501    0  0.25451209986E+02  0.82801389964E+02 -0.10964205197E+03  0.22238303404E+03  0.17300000000E+03 0. -1.
         -6    1    1    2    0  503 -0.25451209986E+02 -0.82801389964E+02 -0.10482860897E+03  0.22004970240E+03  0.17300000000E+03 0. -1.
<mgrwt>
<rscale>  2 0.19347567E+03</rscale>
<asrwt>0</asrwt>
<pdfrwt beam="1">  1       21 0.17535544E-01 0.19347567E+03</pdfrwt>
<pdfrwt beam="2">  1       21 0.50531030E-01 0.19347567E+03</pdfrwt>
<totfact> 0.10979630E+05</totfact>
</mgrwt>
</event>
<event>
 4    2  0.3903561E+000  0.1866101E+03  0.7546771E-02  0.1161555E+00
         21   -1    0    0  501  502  0.00000000000E+00  0.00000000000E+00  0.12159856380E+04  0.12159856380E+04  0.00000000000E+00 0. -1.
         21   -1    0    0  502  503 -0.00000000000E+00 -0.00000000000E+00 -0.37993559401E+02  0.37993559401E+02  0.00000000000E+00 0. -1.
          6    1    1    2  501    0  0.52258050814E+02 -0.46512494806E+02  0.90012595046E+03  0.91926603481E+03  0.17300000000E+03 0.  1.
         -6    1    1    2    0  503 -0.52258050814E+02  0.46512494806E+02  0.27786612811E+03  0.33471316257E+03  0.17300000000E+03 0.  1.
<mgrwt>
<rscale>  2 0.18661006E+03</rscale>
<asrwt>0</asrwt>
<pdfrwt beam="1">  1       21 0.18707468E+00 0.18661006E+03</pdfrwt>
<pdfrwt beam="2">  1       21 0.58451639E-02 0.18661006E+03</pdfrwt>
<totfact> 0.33763206E+04</totfact>
</mgrwt>
</event>
<event>
 4    2  0.3903561E+000  0.3710283E+03  0.7546771E-02  0.1054300E+00
         21   -1    0    0  503  502  0.00000000000E+00  0.00000000000E+00  0.75602426036E+03  0.75602426036E+03  0.00000000000E+00 0. -1.
         21   -1    0    0  501  503 -0.00000000000E+00 -0.00000000000E+00 -0.49067328303E+03  0.49067328303E+03  0.00000000000E+00 0. -1.
          6    1    1    2  501    0 -0.11815116070E+03  0.30622432504E+03 -0.36166178230E+03  0.51813249155E+03  0.17300000000E+03 0. -1.
         -6    1    1    2    0  502  0.11815116070E+03 -0.30622432504E+03  0.62701275963E+03  0.72856505184E+03  0.17300000000E+03 0. -1.
<mgrwt>
<rscale>  2 0.37102835E+03</rscale>
<asrwt>0</asrwt>
<pdfrwt beam="1">  1       21 0.11631142E+00 0.37102835E+03</pdfrwt>
<pdfrwt beam="2">  1       21 0.75488198E-01 0.37102835E+03</pdfrwt>
<totfact> 0.78323491E+02</totfact>
</mgrwt>
</event>
<event>
 4    2  0.3903561E+000  0.2540844E+03  0.7546771E-02  0.1110750E+00
         21   -1    0    0  501  502  0.00000000000E+00  0.00000000000E+00  0.84500097958E+02  0.84500097958E+02  0.00000000000E+00 0. -1.
         21   -1    0    0  502  503 -0.00000000000E+00 -0.00000000000E+00 -0.82995907082E+03  0.82995907082E+03  0.00000000000E+00 0.  1.
          6    1    1    2  501    0 -0.12336176708E+03 -0.13932604026E+03 -0.50161740969E+03  0.56229787193E+03  0.17300000000E+03 0. -1.
         -6    1    1    2    0  503  0.12336176708E+03  0.13932604026E+03 -0.24384156317E+03  0.35216129685E+03  0.17300000000E+03 0.  1.
<mgrwt>
<rscale>  2 0.25408438E+03</rscale>
<asrwt>0</asrwt>
<pdfrwt beam="1">  1       21 0.13000015E-01 0.25408438E+03</pdfrwt>
<pdfrwt beam="2">  1       21 0.12768602E+00 0.25408438E+03</pdfrwt>
<totfact> 0.22196833E+04</totfact>
</mgrwt>
</event>
<event>
 4    2  0.3903561E+000  0.2005191E+03  0.7546771E-02  0.1149302E+00
         21   -1    0    0  501  502  0.00000000000E+00  0.00000000000E+00  0.23109814618E+03  0.23109814618E+03  0.00000000000E+00 0.  1.
         21   -1    0    0  502  503 -0.00000000000E+00 -0.00000000000E+00 -0.22692680157E+03  0.22692680157E+03  0.00000000000E+00 0.  1.
          6    1    1    2  501    0 -0.78664304915E+02  0.63959537064E+02  0.11269978870E+03  0.23001986354E+03  0.17300000000E+03 0.  1.
         -6    1    1    2    0  503  0.78664304915E+02 -0.63959537064E+02 -0.10852844409E+03  0.22800508421E+03  0.17300000000E+03 0.  1.
<mgrwt>
<rscale>  2 0.20051906E+03</rscale>
<asrwt>0</asrwt>
<pdfrwt beam="1">  1       21 0.35553561E-01 0.20051906E+03</pdfrwt>
<pdfrwt beam="2">  1       21 0.34911816E-01 0.20051906E+03</pdfrwt>
<totfact> 0.60107389E+04</totfact>
</mgrwt>
</event>
<event>
 4    2  0.3903561E+000  0.2218896E+03  0.7546771E-02  0.1132482E+00
         21   -1    0    0  503  502  0.00000000000E+00  0.00000000000E+00  0.22253964209E+03  0.22253964209E+03  0.00000000000E+00 0. -1.
         21   -1    0    0  501  503 -0.00000000000E+00 -0.00000000000E+00 -0.26856558627E+03  0.26856558627E+03  0.00000000000E+00 0.  1.
          6    1    1    2  501    0  0.10180452673E+03 -0.94561203292E+02 -0.12608977528E+03  0.25521288028E+03  0.17300000000E+03 0. -1.
         -6    1    1    2    0  502 -0.10180452673E+03  0.94561203292E+02  0.80063831099E+02  0.23589234808E+03  0.17300000000E+03 0. -1.
<mgrwt>
<rscale>  2 0.22188957E+03</rscale>
<asrwt>0</asrwt>
<pdfrwt beam="1">  1       21 0.34236868E-01 0.22188957E+03</pdfrwt>
<pdfrwt beam="2">  1       21 0.41317782E-01 0.22188957E+03</pdfrwt>
<totfact> 0.45724074E+04</totfact>
</mgrwt>
</event>
<event>
 4    2  0.3903561E+000  0.1750453E+03  0.7546771E-02  0.1172686E+00
         21   -1    0    0  503  502  0.00000000000E+00  0.00000000000E+00  0.64909527655E+03  0.64909527655E+03  0.00000000000E+00 0.  1.
         21   -1    0    0  501  503 -0.00000000000E+00 -0.00000000000E+00 -0.10192052430E+03  0.10192052430E+03  0.00000000000E+00 0.  1.
          6    1    1    2  501    0  0.19264417368E+02 -0.18459427543E+02 -0.15449026615E+01  0.17505214928E+03  0.17300000000E+03 0.  1.
         -6    1    1    2    0  502 -0.19264417368E+02  0.18459427543E+02  0.54871965491E+03  0.57596365157E+03  0.17300000000E+03 0.  1.
<mgrwt>
<rscale>  2 0.17504533E+03</rscale>
<asrwt>0</asrwt>
<pdfrwt beam="1">  1       21 0.99860809E-01 0.17504533E+03</pdfrwt>
<pdfrwt beam="2">  1       21 0.15680081E-01 0.17504533E+03</pdfrwt>
<totfact> 0.30102454E+04</totfact>
</mgrwt>
</event>
<event>
 4    2  0.3903561E+000  0.1757736E+03  0.7546771E-02  0.1171957E+00
         21   -1    0    0  501  502  0.00000000000E+00  0.00000000000E+00  0.25124166943E+03  0.25124166943E+03  0.00000000000E+00 0.  1.
         21   -1    0    0  502  503 -0.00000000000E+00 -0.00000000000E+00 -0.16872528887E+03  0.16872528887E+03  0.00000000000E+00 0.  1.
          6    1    1    2  501    0  0.57792232536E+01  0.30560930287E+02  0.15060178894E+03  0.23146764075E+03  0.17300000000E+03 0.  1.
         -6    1    1    2    0  503 -0.57792232536E+01 -0.30560930287E+02 -0.68085408379E+02  0.18849931755E+03  0.17300000000E+03 0.  1.
<mgrwt>
<rscale>  2 0.17577363E+03</rscale>
<asrwt>0</asrwt>
<pdfrwt beam="1">  1       21 0.38652564E-01 0.17577363E+03</pdfrwt>
<pdfrwt beam="2">  1       21 0.25957737E-01 0.17577363E+03</pdfrwt>
<totfact> 0.91578464E+04</totfact>
</mgrwt>
</event>
<event>
 4    2  0.3903561E+000  0.1801076E+03  0.7546771E-02  0.1167699E+00
         21   -1    0    0  501  502  0.00000000000E+00  0.00000000000E+00  0.17984245726E+03  0.17984245726E+03  0.00000000000E+00 0.  1.
         21   -1    0    0  502  503 -0.00000000000E+00 -0.00000000000E+00 -0.35008993382E+03  0.35008993382E+03  0.00000000000E+00 0.  1.
          6    1    1    2  501    0 -0.36720419838E+02 -0.34078853362E+02  0.99362087844E+02  0.20569779284E+03  0.17300000000E+03 0.  1.
         -6    1    1    2    0  503  0.36720419838E+02  0.34078853362E+02 -0.26960956440E+03  0.32423459824E+03  0.17300000000E+03 0.  1.
<mgrwt>
<rscale>  2 0.18010763E+03</rscale>
<asrwt>0</asrwt>
<pdfrwt beam="1">  1       21 0.27668071E-01 0.18010763E+03</pdfrwt>
<pdfrwt beam="2">  1       21 0.53859989E-01 0.18010763E+03</pdfrwt>
<totfact> 0.40902984E+04</totfact>
</mgrwt>
</event>
<event>
 4    2  0.3903561E+000  0.1931667E+03  0.7546771E-02  0.1155636E+00
         21   -1    0    0  503  502  0.00000000000E+00  0.00000000000E+00  0.41602938428E+02  0.41602938428E+02  0.00000000000E+00 0.  1.
         21   -1    0    0  501  503 -0.00000000000E+00 -0.00000000000E+00 -0.14020154616E+04  0.14020154616E+04  0.00000000000E+00 0.  1.
          6    1    1    2  501    0  0.31505720876E+02 -0.79948578901E+02 -0.11134620134E+04  0.11300933771E+04  0.17300000000E+03 0.  1.
         -6    1    1    2    0  502 -0.31505720876E+02  0.79948578901E+02 -0.24695050978E+03  0.31352502292E+03  0.17300000000E+03 0.  1.
<mgrwt>
<rscale>  2 0.19316673E+03</rscale>
<asrwt>0</asrwt>
<pdfrwt beam="1">  1       21 0.64004521E-02 0.19316673E+03</pdfrwt>
<pdfrwt beam="2">  1       21 0.21569469E+00 0.19316673E+03</pdfrwt>
<totfact> 0.18866644E+04</totfact>
</mgrwt>
</event>
<event>
 4    2  0.3903561E+000  0.1879087E+03  0.7546771E-02  0.1160361E+00
         21   -1    0    0  501  502  0.00000000000E+00  0.00000000000E+00  0.57659515382E+02  0.57659515382E+02  0.00000000000E+00 0.  1.
         21   -1    0    0  502  503 -0.00000000000E+00 -0.00000000000E+00 -0.14712917896E+04  0.14712917896E+04  0.00000000000E+00 0.  1.
          6    1    1    2  501    0  0.71491578397E+02 -0.16420881318E+02 -0.12271527701E+03  0.22442978932E+03  0.17300000000E+03 0.  1.
         -6    1    1    2    0  503 -0.71491578397E+02  0.16420881318E+02 -0.12909169972E+04  0.13045215157E+04  0.17300000000E+03 0.  1.
<mgrwt>
<rscale>  2 0.18790873E+03</rscale>
<asrwt>0</asrwt>
<pdfrwt beam="1">  1       21 0.88706950E-02 0.18790873E+03</pdfrwt>
<pdfrwt beam="2">  1       21 0.22635257E+00 0.18790873E+03</pdfrwt>
<totfact> 0.92590635E+03</totfact>
</mgrwt>
</event>
<event>
 4    2  0.3903561E+000  0.2238665E+03  0.7546771E-02  0.1131033E+00
         21   -1    0    0  501  502  0.00000000000E+00  0.00000000000E+00  0.56766904340E+03  0.56766904340E+03  0.00000000000E+00 0. -1.
         21   -1    0    0  502  503 -0.00000000000E+00 -0.00000000000E+00 -0.10809444489E+03  0.10809444489E+03  0.00000000000E+00 0. -1.
          6    1    1    2  501    0 -0.10710889684E+03 -0.93353707923E+02  0.37443366074E+03  0.43625313392E+03  0.17300000000E+03 0. -1.
         -6    1    1    2    0  503  0.10710889684E+03  0.93353707923E+02  0.85140937767E+02  0.23951035437E+03  0.17300000000E+03 0. -1.
<mgrwt>
<rscale>  2 0.22386655E+03</rscale>
<asrwt>0</asrwt>
<pdfrwt beam="1">  1       21 0.87333698E-01 0.22386655E+03</pdfrwt>
<pdfrwt beam="2">  1       21 0.16629915E-01 0.22386655E+03</pdfrwt>
<totfact> 0.35988401E+04</totfact>
</mgrwt>
</event>
<event>
 4    2  0.3903561E+000  0.2274517E+03  0.7546771E-02  0.1128446E+00
         21   -1    0    0  503  502  0.00000000000E+00  0.00000000000E+00  0.72238531520E+02  0.72238531520E+02  0.00000000000E+00 0. -1.
         21   -1    0    0  501  503 -0.00000000000E+00 -0.00000000000E+00 -0.72925275478E+03  0.72925275478E+03  0.00000000000E+00 0. -1.
          6    1    1    2  501    0 -0.12987514070E+03  0.70268912303E+02 -0.38220564158E+03  0.44476445976E+03  0.17300000000E+03 0. -1.
         -6    1    1    2    0  502  0.12987514070E+03 -0.70268912303E+02 -0.27480858168E+03  0.35672682654E+03  0.17300000000E+03 0. -1.
<mgrwt>
<rscale>  2 0.22745169E+03</rscale>
<asrwt>0</asrwt>
<pdfrwt beam="1">  1       21 0.11113621E-01 0.22745169E+03</pdfrwt>
<pdfrwt beam="2">  1       21 0.11219273E+00 0.22745169E+03</pdfrwt>
<totfact> 0.41140120E+04</totfact>
</mgrwt>
</event>
<event>
 4    2  0.3903561E+000  0.2613786E+03  0.7546771E-02  0.1106318E+00
         21   -1    0    0  503  502  0.00000000000E+00  0.00000000000E+00  0.27669546183E+03  0.27669546183E+03  0.00000000000E+00 0. -1.
         21   -1    0    0  501  503 -0.00000000000E+00 -0.00000000000E+00 -0.30466815672E+03  0.30466815672E+03  0.00000000000E+00 0. -1.
          6    1    1    2  501    0 -0.18190517700E+03 -0.72803191961E+02  0.11257819356E+03  0.28459207270E+03  0.17300000000E+03 0. -1.
         -6    1    1    2    0  502  0.18190517700E+03  0.72803191961E+02 -0.14055088845E+03  0.29677154585E+03  0.17300000000E+03 0. -1.
<mgrwt>
<rscale>  2 0.26137865E+03</rscale>
<asrwt>0</asrwt>
<pdfrwt beam="1">  1       21 0.42568533E-01 0.26137865E+03</pdfrwt>
<pdfrwt beam="2">  1       21 0.46872024E-01 0.26137865E+03</pdfrwt>
<totfact> 0.22319563E+04</totfact>
</mgrwt>
</event>
<event>
 4    2  0.3903561E+000  0.2118817E+03  0.7546771E-02  0.1140084E+00
         21   -1    0    0  503  502  0.00000000000E+00  0.00000000000E+00  0.77860285902E+02  0.77860285902E+02  0.00000000000E+00 0. -1.
         21   -1    0    0  501  503 -0.00000000000E+00 -0.00000000000E+00 -0.85821914352E+03  0.85821914352E+03  0.00000000000E+00 0. -1.
          6    1    1    2  501    0  0.11866619141E+03  0.29718719520E+02 -0.65829275057E+03  0.69155130882E+03  0.17300000000E+03 0. -1.
         -6    1    1    2    0  502 -0.11866619141E+03 -0.29718719520E+02 -0.12206610704E+03  0.24452812060E+03  0.17300000000E+03 0. -1.
<mgrwt>
<rscale>  2 0.21188173E+03</rscale>
<asrwt>0</asrwt>
<pdfrwt beam="1">  1       21 0.11978505E-01 0.21188173E+03</pdfrwt>
<pdfrwt beam="2">  1       21 0.13203372E+00 0.21188173E+03</pdfrwt>
<totfact> 0.24178175E+04</totfact>
</mgrwt>
</event>
<event>
 4    2  0.3903561E+000  0.1904250E+03  0.7546771E-02  0.1158079E+00
         21   -1    0    0  503  502  0.00000000000E+00  0.00000000000E+00  0.37891108845E+03  0.37891108845E+03  0.00000000000E+00 0. -1.
         21   -1    0    0  501  503 -0.00000000000E+00 -0.00000000000E+00 -0.98162316464E+02  0.98162316464E+02  0.00000000000E+00 0. -1.
          6    1    1    2  501    0  0.26920206959E+02  0.74886584205E+02  0.10259312750E+03  0.21630313878E+03  0.17300000000E+03 0. -1.
         -6    1    1    2    0  502 -0.26920206959E+02 -0.74886584205E+02  0.17815564448E+03  0.26077026613E+03  0.17300000000E+03 0. -1.
<mgrwt>
<rscale>  2 0.19042505E+03</rscale>
<asrwt>0</asrwt>
<pdfrwt beam="1">  1       21 0.58294013E-01 0.19042505E+03</pdfrwt>
<pdfrwt beam="2">  1       21 0.15101895E-01 0.19042505E+03</pdfrwt>
<totfact> 0.10689428E+05</totfact>
</mgrwt>
</event>
<event>
 4    2  0.3903561E+000  0.2521236E+03  0.7546771E-02  0.1111970E+00
         21   -1    0    0  503  502  0.00000000000E+00  0.00000000000E+00  0.25501193939E+03  0.25501193939E+03  0.00000000000E+00 0.  1.
         21   -1    0    0  501  503 -0.00000000000E+00 -0.00000000000E+00 -0.97105125387E+03  0.97105125387E+03  0.00000000000E+00 0.  1.
          6    1    1    2  501    0  0.18316618149E+03 -0.93532538212E+01 -0.88654420480E+03  0.92169786832E+03  0.17300000000E+03 0.  1.
         -6    1    1    2    0  502 -0.18316618149E+03  0.93532538212E+01  0.17050489033E+03  0.30436532493E+03  0.17300000000E+03 0.  1.
<mgrwt>
<rscale>  2 0.25212365E+03</rscale>
<asrwt>0</asrwt>
<pdfrwt beam="1">  1       21 0.39232606E-01 0.25212365E+03</pdfrwt>
<pdfrwt beam="2">  1       21 0.14939250E+00 0.25212365E+03</pdfrwt>
<totfact> 0.17976397E+03</totfact>
</mgrwt>
</event>
<event>
 4    2  0.3903561E+000  0.1781583E+03  0.7546771E-02  0.1169597E+00
         21   -1    0    0  503  502  0.00000000000E+00  0.00000000000E+00  0.41042026897E+02  0.41042026897E+02  0.00000000000E+00 0.  1.
         21   -1    0    0  501  503 -0.00000000000E+00 -0.00000000000E+00 -0.77345417349E+03  0.77345417349E+03  0.00000000000E+00 0.  1.
          6    1    1    2  501    0  0.42268857883E+02 -0.49724993499E+01 -0.37062938160E+03  0.41122563223E+03  0.17300000000E+03 0.  1.
         -6    1    1    2    0  502 -0.42268857883E+02  0.49724993499E+01 -0.36178276500E+03  0.40327056816E+03  0.17300000000E+03 0.  1.
<mgrwt>
<rscale>  2 0.17815831E+03</rscale>
<asrwt>0</asrwt>
<pdfrwt beam="1">  1       21 0.63141583E-02 0.17815831E+03</pdfrwt>
<pdfrwt beam="2">  1       21 0.11899294E+00 0.17815831E+03</pdfrwt>
<totfact> 0.98036978E+04</totfact>
</mgrwt>
</event>
<event>
 4    2  0.3903561E+000  0.2724077E+03  0.7546771E-02  0.1099909E+00
         21   -1    0    0  501  502  0.00000000000E+00  0.00000000000E+00  0.14361020193E+03  0.14361020193E+03  0.00000000000E+00 0. -1.
         21   -1    0    0  502  503 -0.00000000000E+00 -0.00000000000E+00 -0.77214340952E+03  0.77214340952E+03  0.00000000000E+00 0.  1.
          6    1    1    2  501    0  0.19286512659E+03 -0.84142600158E+02 -0.50917431116E+02  0.27712545716E+03  0.17300000000E+03 0. -1.
         -6    1    1    2    0  503 -0.19286512659E+03  0.84142600158E+02 -0.57761577647E+03  0.63862815428E+03  0.17300000000E+03 0.  1.
<mgrwt>
<rscale>  2 0.27240766E+03</rscale>
<asrwt>0</asrwt>
<pdfrwt beam="1">  1       21 0.22093877E-01 0.27240766E+03</pdfrwt>
<pdfrwt beam="2">  1       21 0.11879130E+00 0.27240766E+03</pdfrwt>
<totfact> 0.98667305E+03</totfact>
</mgrwt>
</event>
<event>
 4    2  0.3903561E+000  0.1783711E+03  0.7546771E-02  0.1169389E+00
         21   -1    0    0  503  502  0.00000000000E+00  0.00000000000E+00  0.40664641926E+02  0.40664641926E+02  0.00000000000E+00 0. -1.
         21   -1    0    0  501  503 -0.00000000000E+00 -0.00000000000E+00 -0.16532420299E+04  0.16532420299E+04  0.00000000000E+00 0. -1.
          6    1    1    2  501    0 -0.28540843899E+02 -0.32751651586E+02 -0.14209834613E+04  0.14321348567E+04  0.17300000000E+03 0. -1.
         -6    1    1    2    0  502  0.28540843899E+02  0.32751651586E+02 -0.19159392660E+03  0.26177181507E+03  0.17300000000E+03 0. -1.
<mgrwt>
<rscale>  2 0.17837110E+03</rscale>
<asrwt>0</asrwt>
<pdfrwt beam="1">  1       21 0.62560991E-02 0.17837110E+03</pdfrwt>
<pdfrwt beam="2">  1       21 0.25434492E+00 0.17837110E+03</pdfrwt>
<totfact> 0.11670218E+04</totfact>
</mgrwt>
</event>
<event>
 4    2  0.3903561E+000  0.1943520E+03  0.7546771E-02  0.1154594E+00
         21   -1    0    0  501  502  0.00000000000E+00  0.00000000000E+00  0.20543953538E+04  0.20543953538E+04  0.00000000000E+00 0. -1.
         21   -1    0    0  502  503 -0.00000000000E+00 -0.00000000000E+00 -0.18449990221E+02  0.18449990221E+02  0.00000000000E+00 0. -1.
          6    1    1    2  501    0 -0.51916553710E+02  0.71752123489E+02  0.10788745804E+04  0.10962404189E+04  0.17300000000E+03 0. -1.
         -6    1    1    2    0  503  0.51916553710E+02 -0.71752123489E+02  0.95707078317E+03  0.97660492512E+03  0.17300000000E+03 0. -1.
<mgrwt>
<rscale>  2 0.19435199E+03</rscale>
<asrwt>0</asrwt>
<pdfrwt beam="1">  1       21 0.31606064E+00 0.19435199E+03</pdfrwt>
<pdfrwt beam="2">  1       21 0.28384617E-02 0.19435199E+03</pdfrwt>
<totfact> 0.19089831E+04</totfact>
</mgrwt>
</event>
<event>
 4    2  0.3903561E+000  0.1903438E+03  0.7546771E-02  0.1158152E+00
         21   -1    0    0  501  502  0.00000000000E+00  0.00000000000E+00  0.11580891893E+04  0.11580891893E+04  0.00000000000E+00 0. -1.
         21   -1    0    0  502  503 -0.00000000000E+00 -0.00000000000E+00 -0.38870210153E+02  0.38870210153E+02  0.00000000000E+00 0. -1.
          6    1    1    2  501    0 -0.75232357983E+02 -0.25334968523E+02  0.82398795238E+03  0.84568724360E+03  0.17300000000E+03 0. -1.
         -6    1    1    2    0  503  0.75232357983E+02  0.25334968523E+02  0.29523102681E+03  0.35127215589E+03  0.17300000000E+03 0. -1.
<mgrwt>
<rscale>  2 0.19034382E+03</rscale>
<asrwt>0</asrwt>
<pdfrwt beam="1">  1       21 0.17816754E+00 0.19034382E+03</pdfrwt>
<pdfrwt beam="2">  1       21 0.59800332E-02 0.19034382E+03</pdfrwt>
<totfact> 0.37193991E+04</totfact>
</mgrwt>
</event>
<event>
 4    2  0.3903561E+000  0.1987663E+03  0.7546771E-02  0.1150784E+00
         21   -1    0    0  503  502  0.00000000000E+00  0.00000000000E+00  0.65575609138E+02  0.65575609138E+02  0.00000000000E+00 0.  1.
         21   -1    0    0  501  503 -0.00000000000E+00 -0.00000000000E+00 -0.68413872854E+03  0.68413872854E+03  0.00000000000E+00 0.  1.
          6    1    1    2  501    0 -0.90315855571E+02  0.37710471242E+02 -0.17977451277E+03  0.26800542691E+03  0.17300000000E+03 0.  1.
         -6    1    1    2    0  502  0.90315855571E+02 -0.37710471242E+02 -0.43878860664E+03  0.48170891078E+03  0.17300000000E+03 0.  1.
<mgrwt>
<rscale>  2 0.19876628E+03</rscale>
<asrwt>0</asrwt>
<pdfrwt beam="1">  1       21 0.10088555E-01 0.19876628E+03</pdfrwt>
<pdfrwt beam="2">  1       21 0.10525211E+00 0.19876628E+03</pdfrwt>
<totfact> 0.57856423E+04</totfact>
</mgrwt>
</event>
<event>
 4    2  0.3903561E+000  0.1765663E+03  0.7546771E-02  0.1171168E+00
         21   -1    0    0  503  502  0.00000000000E+00  0.00000000000E+00  0.51830109226E+03  0.51830109226E+03  0.00000000000E+00 0. -1.
         21   -1    0    0  501  503 -0.00000000000E+00 -0.00000000000E+00 -0.66070537913E+02  0.66070537913E+02  0.00000000000E+00 0. -1.
          6    1    1    2  501    0  0.34936677068E+02  0.51085531335E+01  0.13864795376E+03  0.22449704631E+03  0.17300000000E+03 0. -1.
         -6    1    1    2    0  502 -0.34936677068E+02 -0.51085531335E+01  0.31358260059E+03  0.35987458387E+03  0.17300000000E+03 0. -1.
<mgrwt>
<rscale>  2 0.17656633E+03</rscale>
<asrwt>0</asrwt>
<pdfrwt beam="1">  1       21 0.79738627E-01 0.17656633E+03</pdfrwt>
<pdfrwt beam="2">  1       21 0.10164698E-01 0.17656633E+03</pdfrwt>
<totfact> 0.10990894E+05</totfact>
</mgrwt>
</event>
<event>
 4    2  0.3903561E+000  0.1814197E+03  0.7546771E-02  0.1166436E+00
         21   -1    0    0  503  502  0.00000000000E+00  0.00000000000E+00  0.65941961319E+03  0.65941961319E+03  0.00000000000E+00 0. -1.
         21   -1    0    0  501  503 -0.00000000000E+00 -0.00000000000E+00 -0.13692794165E+03  0.13692794165E+03  0.00000000000E+00 0. -1.
          6    1    1    2  501    0  0.24676795914E+02  0.48735609931E+02 -0.56167706358E+02  0.18991554747E+03  0.17300000000E+03 0. -1.
         -6    1    1    2    0  502 -0.24676795914E+02 -0.48735609931E+02  0.57865937790E+03  0.60643200737E+03  0.17300000000E+03 0. -1.
<mgrwt>
<rscale>  2 0.18141969E+03</rscale>
<asrwt>0</asrwt>
<pdfrwt beam="1">  1       21 0.10144917E+00 0.18141969E+03</pdfrwt>
<pdfrwt beam="2">  1       21 0.21065838E-01 0.18141969E+03</pdfrwt>
<totfact> 0.16735997E+04</totfact>
</mgrwt>
</event>
<event>
 4    2  0.3903561E+000  0.1734502E+03  0.7546771E-02  0.1174297E+00
         21   -1    0    0  503  502  0.00000000000E+00  0.00000000000E+00  0.25274982998E+03  0.25274982998E+03  0.00000000000E+00 0.  1.
         21   -1    0    0  501  503 -0.00000000000E+00 -0.00000000000E+00 -0.65385611594E+03  0.65385611594E+03  0.00000000000E+00 0.  1.
          6    1    1    2  501    0 -0.46081399711E+01 -0.11607413685E+02 -0.61052451056E+03  0.63468507545E+03  0.17300000000E+03 0.  1.
         -6    1    1    2    0  502  0.46081399711E+01  0.11607413685E+02  0.20941822460E+03  0.27192087048E+03  0.17300000000E+03 0.  1.
<mgrwt>
<rscale>  2 0.17345019E+03</rscale>
<asrwt>0</asrwt>
<pdfrwt beam="1">  1       21 0.38884590E-01 0.17345019E+03</pdfrwt>
<pdfrwt beam="2">  1       21 0.10059325E+00 0.17345019E+03</pdfrwt>
<totfact> 0.52432987E+03</totfact>
</mgrwt>
</event>
<event>
 4    2  0.3903561E+000  0.2146555E+03  0.7546771E-02  0.1137931E+00
         21   -1    0    0  501  502  0.00000000000E+00  0.00000000000E+00  0.28890216652E+03  0.28890216652E+03  0.00000000000E+00 0.  1.
         21   -1    0    0  502  503 -0.00000000000E+00 -0.00000000000E+00 -0.15990028605E+03  0.15990028605E+03  0.00000000000E+00 0. -1.
          6    1    1    2  501    0 -0.65132075923E+02 -0.10911374207E+03  0.75868395244E+02  0.22766863952E+03  0.17300000000E+03 0.  1.
         -6    1    1    2    0  503  0.65132075923E+02  0.10911374207E+03  0.53133485230E+02  0.22113381305E+03  0.17300000000E+03 0. -1.
<mgrwt>
<rscale>  2 0.21465553E+03</rscale>
<asrwt>0</asrwt>
<pdfrwt beam="1">  1       21 0.44446487E-01 0.21465553E+03</pdfrwt>
<pdfrwt beam="2">  1       21 0.24600044E-01 0.21465553E+03</pdfrwt>
<totfact> 0.75205379E+04</totfact>
</mgrwt>
</event>
<event>
 4    2  0.3903561E+000  0.1938897E+03  0.7546771E-02  0.1154999E+00
         21   -1    0    0  501  502  0.00000000000E+00  0.00000000000E+00  0.41567453617E+03  0.41567453617E+03  0.00000000000E+00 0. -1.
         21   -1    0    0  502  503 -0.00000000000E+00 -0.00000000000E+00 -0.91707967440E+02  0.91707967440E+02  0.00000000000E+00 0.  1.
          6    1    1    2  501    0  0.21483334858E+02 -0.84868572003E+02  0.19182470206E+03  0.27274516405E+03  0.17300000000E+03 0. -1.
         -6    1    1    2    0  503 -0.21483334858E+02  0.84868572003E+02  0.13214186667E+03  0.23463733956E+03  0.17300000000E+03 0.  1.
<mgrwt>
<rscale>  2 0.19388968E+03</rscale>
<asrwt>0</asrwt>
<pdfrwt beam="1">  1       21 0.63949928E-01 0.19388968E+03</pdfrwt>
<pdfrwt beam="2">  1       21 0.14108918E-01 0.19388968E+03</pdfrwt>
<totfact> 0.98957400E+04</totfact>
</mgrwt>
</event>
<event>
 4    2  0.3903561E+000  0.2191709E+03  0.7546771E-02  0.1134503E+00
         21   -1    0    0  503  502  0.00000000000E+00  0.00000000000E+00  0.37588991341E+03  0.37588991341E+03  0.00000000000E+00 0. -1.
         21   -1    0    0  501  503 -0.00000000000E+00 -0.00000000000E+00 -0.13068742962E+03  0.13068742962E+03  0.00000000000E+00 0. -1.
          6    1    1    2  501    0 -0.70133670115E+02  0.11483972058E+03  0.16029952613E+03  0.27153605872E+03  0.17300000000E+03 0. -1.
         -6    1    1    2    0  502  0.70133670115E+02 -0.11483972058E+03  0.84902957661E+02  0.23504128430E+03  0.17300000000E+03 0. -1.
<mgrwt>
<rscale>  2 0.21917092E+03</rscale>
<asrwt>0</asrwt>
<pdfrwt beam="1">  1       21 0.57829217E-01 0.21917092E+03</pdfrwt>
<pdfrwt beam="2">  1       21 0.20105759E-01 0.21917092E+03</pdfrwt>
<totfact> 0.63327916E+04</totfact>
</mgrwt>
</event>
<event>
 4    2  0.3903561E+000  0.2916837E+03  0.7546771E-02  0.1089473E+00
         21   -1    0    0  503  502  0.00000000000E+00  0.00000000000E+00  0.18440056804E+03  0.18440056804E+03  0.00000000000E+00 0.  1.
         21   -1    0    0  501  503 -0.00000000000E+00 -0.00000000000E+00 -0.27286429374E+04  0.27286429374E+04  0.00000000000E+00 0. -1.
          6    1    1    2  501    0 -0.20210816510E+02 -0.23396985923E+03 -0.25998036930E+04  0.26161151760E+04  0.17300000000E+03 0. -1.
         -6    1    1    2    0  502  0.20210816510E+02  0.23396985923E+03  0.55561323628E+02  0.29692832943E+03  0.17300000000E+03 0.  1.
<mgrwt>
<rscale>  2 0.29168369E+03</rscale>
<asrwt>0</asrwt>
<pdfrwt beam="1">  1       21 0.28369319E-01 0.29168369E+03</pdfrwt>
<pdfrwt beam="2">  1       21 0.41979121E+00 0.29168369E+03</pdfrwt>
<totfact> 0.66905006E+01</totfact>
</mgrwt>
</event>
<event>
 4    2  0.3903561E+000  0.1946554E+03  0.7546771E-02  0.1154328E+00
         21   -1    0    0  501  502  0.00000000000E+00  0.00000000000E+00  0.44976072402E+03  0.44976072402E+03  0.00000000000E+00 0.  1.
         21   -1    0    0  502  503 -0.00000000000E+00 -0.00000000000E+00 -0.86459537302E+02  0.86459537302E+02  0.00000000000E+00 0.  1.
          6    1    1    2  501    0 -0.76392888513E+02 -0.46106873762E+02  0.22454611577E+03  0.29717280382E+03  0.17300000000E+03 0.  1.
         -6    1    1    2    0  503  0.76392888513E+02  0.46106873762E+02  0.13875507095E+03  0.23904745750E+03  0.17300000000E+03 0.  1.
<mgrwt>
<rscale>  2 0.19465538E+03</rscale>
<asrwt>0</asrwt>
<pdfrwt beam="1">  1       21 0.69193956E-01 0.19465538E+03</pdfrwt>
<pdfrwt beam="2">  1       21 0.13301468E-01 0.19465538E+03</pdfrwt>
<totfact> 0.92634688E+04</totfact>
</mgrwt>
</event>
<event>
 4    2  0.3903561E+000  0.2728754E+03  0.7546771E-02  0.1099645E+00
         21   -1    0    0  501  502  0.00000000000E+00  0.00000000000E+00  0.60573072544E+03  0.60573072544E+03  0.00000000000E+00 0. -1.
         21   -1    0    0  502  503 -0.00000000000E+00 -0.00000000000E+00 -0.13982347761E+03  0.13982347761E+03  0.00000000000E+00 0.  1.
          6    1    1    2  501    0  0.18785572905E+03 -0.96136371655E+02  0.36253737914E+03  0.45375580235E+03  0.17300000000E+03 0.  1.
         -6    1    1    2    0  503 -0.18785572905E+03  0.96136371655E+02  0.10336986869E+03  0.29179840069E+03  0.17300000000E+03 0. -1.
<mgrwt>
<rscale>  2 0.27287539E+03</rscale>
<asrwt>0</asrwt>
<pdfrwt beam="1">  1       21 0.93189341E-01 0.27287539E+03</pdfrwt>
<pdfrwt beam="2">  1       21 0.21511305E-01 0.27287539E+03</pdfrwt>
<totfact> 0.18683611E+04</totfact>
</mgrwt>
</event>
<event>
 4    2  0.3903561E+000  0.1870228E+03  0.7546771E-02  0.1161174E+00
         21   -1    0    0  503  502  0.00000000000E+00  0.00000000000E+00  0.24138573996E+03  0.24138573996E+03  0.00000000000E+00 0.  1.
         21   -1    0    0  501  503 -0.00000000000E+00 -0.00000000000E+00 -0.48878500537E+03  0.48878500537E+03  0.00000000000E+00 0.  1.
          6    1    1    2  501    0 -0.56823313550E+02  0.42657302703E+02 -0.42992430452E+03  0.46884159591E+03  0.17300000000E+03 0.  1.
         -6    1    1    2    0  502  0.56823313550E+02 -0.42657302703E+02  0.18252503911E+03  0.26132914942E+03  0.17300000000E+03 0.  1.
<mgrwt>
<rscale>  2 0.18702282E+03</rscale>
<asrwt>0</asrwt>
<pdfrwt beam="1">  1       21 0.37136268E-01 0.18702282E+03</pdfrwt>
<pdfrwt beam="2">  1       21 0.75197693E-01 0.18702282E+03</pdfrwt>
<totfact> 0.11095825E+04</totfact>
</mgrwt>
</event>
<event>
 4    2  0.3903561E+000  0.1780465E+03  0.7546771E-02  0.1169707E+00
         21   -1    0    0  501  502  0.00000000000E+00  0.00000000000E+00  0.18659821927E+03  0.18659821927E+03  0.00000000000E+00 0.  1.
         21   -1    0    0  502  503 -0.00000000000E+00 -0.00000000000E+00 -0.39991156176E+03  0.39991156176E+03  0.00000000000E+00 0. -1.
          6    1    1    2  501    0  0.42030243442E+02  0.22394685822E+01  0.11575146362E+03  0.21236515230E+03  0.17300000000E+03 0.  1.
         -6    1    1    2    0  503 -0.42030243442E+02 -0.22394685822E+01 -0.32906480611E+03  0.37414462872E+03  0.17300000000E+03 0. -1.
<mgrwt>
<rscale>  2 0.17804650E+03</rscale>
<asrwt>0</asrwt>
<pdfrwt beam="1">  1       21 0.28707419E-01 0.17804650E+03</pdfrwt>
<pdfrwt beam="2">  1       21 0.61524855E-01 0.17804650E+03</pdfrwt>
<totfact> 0.28729865E+04</totfact>
</mgrwt>
</event>
<event>
 4    2  0.3903561E+000  0.1853312E+03  0.7546771E-02  0.1162741E+00
         21   -1    0    0  503  502  0.00000000000E+00  0.00000000000E+00  0.31197105415E+03  0.31197105415E+03  0.00000000000E+00 0.  1.
         21   -1    0    0  501  503 -0.00000000000E+00 -0.00000000000E+00 -0.18042499439E+03  0.18042499439E+03  0.00000000000E+00 0.  1.
          6    1    1    2  501    0 -0.49671647301E+02 -0.44174515375E+02 -0.87934292542E+02  0.20513434661E+03  0.17300000000E+03 0.  1.
         -6    1    1    2    0  502  0.49671647301E+02  0.44174515375E+02  0.21948035230E+03  0.28726170194E+03  0.17300000000E+03 0.  1.
<mgrwt>
<rscale>  2 0.18533122E+03</rscale>
<asrwt>0</asrwt>
<pdfrwt beam="1">  1       21 0.47995547E-01 0.18533122E+03</pdfrwt>
<pdfrwt beam="2">  1       21 0.27757691E-01 0.18533122E+03</pdfrwt>
<totfact> 0.51577021E+04</totfact>
</mgrwt>
</event>
<event>
 4    2  0.3903561E+000  0.1858050E+03  0.7546771E-02  0.1162300E+00
         21   -1    0    0  501  502  0.00000000000E+00  0.00000000000E+00  0.87922986505E+03  0.87922986505E+03  0.00000000000E+00 0.  1.
         21   -1    0    0  502  503 -0.00000000000E+00 -0.00000000000E+00 -0.15319848735E+03  0.15319848735E+03  0.00000000000E+00 0.  1.
          6    1    1    2  501    0 -0.56613112806E+02 -0.37275311443E+02  0.80818706172E+03  0.82927065552E+03  0.17300000000E+03 0.  1.
         -6    1    1    2    0  503  0.56613112806E+02  0.37275311443E+02 -0.82155684010E+02  0.20315769688E+03  0.17300000000E+03 0.  1.
<mgrwt>
<rscale>  2 0.18580499E+03</rscale>
<asrwt>0</asrwt>
<pdfrwt beam="1">  1       21 0.13526613E+00 0.18580499E+03</pdfrwt>
<pdfrwt beam="2">  1       21 0.23568998E-01 0.18580499E+03</pdfrwt>
<totfact> 0.66594571E+03</totfact>
</mgrwt>
</event>
<event>
 4    2  0.3903561E+000  0.5234414E+03  0.7546771E-02  0.1007835E+00
         21   -1    0    0  503  502  0.00000000000E+00  0.00000000000E+00  0.57988923897E+03  0.57988923897E+03  0.00000000000E+00 0.  1.
         21   -1    0    0  501  503 -0.00000000000E+00 -0.00000000000E+00 -0.47636082465E+03  0.47636082465E+03  0.00000000000E+00 0. -1.
          6    1    1    2  501    0 -0.47539304579E+03 -0.13440011495E+03  0.41474075023E+01  0.52345786829E+03  0.17300000000E+03 0.  1.
         -6    1    1    2    0  502  0.47539304579E+03  0.13440011495E+03  0.99381006819E+02  0.53279219533E+03  0.17300000000E+03 0. -1.
<mgrwt>
<rscale>  2 0.52344144E+03</rscale>
<asrwt>0</asrwt>
<pdfrwt beam="1">  1       21 0.89213729E-01 0.52344144E+03</pdfrwt>
<pdfrwt beam="2">  1       21 0.73286281E-01 0.52344144E+03</pdfrwt>
<totfact> 0.15005763E+03</totfact>
</mgrwt>
</event>
<event>
 4    2  0.3903561E+000  0.2263559E+03  0.7546771E-02  0.1129231E+00
         21   -1    0    0  501  502  0.00000000000E+00  0.00000000000E+00  0.18175771117E+04  0.18175771117E+04  0.00000000000E+00 0.  1.
         21   -1    0    0  502  503 -0.00000000000E+00 -0.00000000000E+00 -0.53187807363E+02  0.53187807363E+02  0.00000000000E+00 0. -1.
          6    1    1    2  501    0  0.14497930607E+03 -0.16999909314E+02  0.15234581786E+04  0.15401823977E+04  0.17300000000E+03 0.  1.
         -6    1    1    2    0  503 -0.14497930607E+03  0.16999909314E+02  0.24093112570E+03  0.33058252137E+03  0.17300000000E+03 0. -1.
<mgrwt>
<rscale>  2 0.22635591E+03</rscale>
<asrwt>0</asrwt>
<pdfrwt beam="1">  1       21 0.27962720E+00 0.22635591E+03</pdfrwt>
<pdfrwt beam="2">  1       21 0.81827410E-02 0.22635591E+03</pdfrwt>
<totfact> 0.49820300E+03</totfact>
</mgrwt>
</event>
<event>
 4    2  0.3903561E+000  0.2005351E+03  0.7546771E-02  0.1149288E+00
         21   -1    0    0  501  502  0.00000000000E+00  0.00000000000E+00  0.41738306047E+02  0.41738306047E+02  0.00000000000E+00 0. -1.
         21   -1    0    0  502  503 -0.00000000000E+00 -0.00000000000E+00 -0.15674115746E+04  0.15674115746E+04  0.00000000000E+00 0.  1.
          6    1    1    2  501    0  0.25148150732E+02  0.98249108371E+02 -0.26341619187E+03  0.33106254231E+03  0.17300000000E+03 0. -1.
         -6    1    1    2    0  503 -0.25148150732E+02 -0.98249108371E+02 -0.12622570767E+04  0.12780873383E+04  0.17300000000E+03 0.  1.
<mgrwt>
<rscale>  2 0.20053508E+03</rscale>
<asrwt>0</asrwt>
<pdfrwt beam="1">  1       21 0.64212778E-02 0.20053508E+03</pdfrwt>
<pdfrwt beam="2">  1       21 0.24114024E+00 0.20053508E+03</pdfrwt>
<totfact> 0.13072489E+04</totfact>
</mgrwt>
</event>
<event>
 4    2  0.3903561E+000  0.2133281E+03  0.7546771E-02  0.1138957E+00
         21   -1    0    0  501  502  0.00000000000E+00  0.00000000000E+00  0.22540124484E+03  0.22540124484E+03  0.00000000000E+00 0.  1.
         21   -1    0    0  502  503 -0.00000000000E+00 -0.00000000000E+00 -0.20229422528E+03  0.20229422528E+03  0.00000000000E+00 0.  1.
          6    1    1    2  501    0  0.89398429002E+02  0.87108021617E+02  0.21331756902E+01  0.21333878451E+03  0.17300000000E+03 0. -1.
         -6    1    1    2    0  503 -0.89398429002E+02 -0.87108021617E+02  0.20973843870E+02  0.21435668561E+03  0.17300000000E+03 0. -1.
<mgrwt>
<rscale>  2 0.21332812E+03</rscale>
<asrwt>0</asrwt>
<pdfrwt beam="1">  1       21 0.34677114E-01 0.21332812E+03</pdfrwt>
<pdfrwt beam="2">  1       21 0.31122189E-01 0.21332812E+03</pdfrwt>
<totfact> 0.78806405E+04</totfact>
</mgrwt>
</event>
<event>
 4    2  0.3903561E+000  0.1735701E+03  0.7546771E-02  0.1174175E+00
         21   -1    0    0  501  502  0.00000000000E+00  0.00000000000E+00  0.23955354294E+03  0.23955354294E+03  0.00000000000E+00 0.  1.
         21   -1    0    0  502  503 -0.00000000000E+00 -0.00000000000E+00 -0.23540404159E+03  0.23540404159E+03  0.00000000000E+00 0.  1.
          6    1    1    2  501    0 -0.14040240933E+02  0.66743902539E+00  0.16414665838E+03  0.23889474523E+03  0.17300000000E+03 0.  1.
         -6    1    1    2    0  503  0.14040240933E+02 -0.66743902539E+00 -0.15999715704E+03  0.23606283930E+03  0.17300000000E+03 0.  1.
<mgrwt>
<rscale>  2 0.17357008E+03</rscale>
<asrwt>0</asrwt>
<pdfrwt beam="1">  1       21 0.36854391E-01 0.17357008E+03</pdfrwt>
<pdfrwt beam="2">  1       21 0.36216006E-01 0.17357008E+03</pdfrwt>
<totfact> 0.52676924E+04</totfact>
</mgrwt>
</event>
<event>
 4    2  0.3903561E+000  0.2382462E+03  0.7546771E-02  0.1120967E+00
         21   -1    0    0  503  502  0.00000000000E+00  0.00000000000E+00  0.63419193443E+03  0.63419193443E+03  0.00000000000E+00 0.  1.
         21   -1    0    0  501  503 -0.00000000000E+00 -0.00000000000E+00 -0.28585037124E+03  0.28585037124E+03  0.00000000000E+00 0.  1.
          6    1    1    2  501    0  0.97179057691E+01  0.16351708112E+03 -0.20709021164E+03  0.31567012730E+03  0.17300000000E+03 0.  1.
         -6    1    1    2    0  502 -0.97179057691E+01 -0.16351708112E+03  0.55543177483E+03  0.60437217838E+03  0.17300000000E+03 0.  1.
<mgrwt>
<rscale>  2 0.23824625E+03</rscale>
<asrwt>0</asrwt>
<pdfrwt beam="1">  1       21 0.97567990E-01 0.23824625E+03</pdfrwt>
<pdfrwt beam="2">  1       21 0.43976980E-01 0.23824625E+03</pdfrwt>
<totfact> 0.41764260E+03</totfact>
</mgrwt>
</event>
<event>
 4    2  0.3903561E+000  0.2505111E+03  0.7546771E-02  0.1112982E+00
         21   -1    0    0  503  502  0.00000000000E+00  0.00000000000E+00  0.56087231975E+03  0.56087231975E+03  0.00000000000E+00 0. -1.
         21   -1    0    0  501  503 -0.00000000000E+00 -0.00000000000E+00 -0.13962836044E+03  0.13962836044E+03  0.00000000000E+00 0. -1.
          6    1    1    2  501    0 -0.16224510952E+03  0.80643398970E+02  0.36673334417E+03  0.44412743564E+03  0.17300000000E+03 0. -1.
         -6    1    1    2    0  502  0.16224510952E+03 -0.80643398970E+02  0.54510615137E+02  0.25637324455E+03  0.17300000000E+03 0. -1.
<mgrwt>
<rscale>  2 0.25051114E+03</rscale>
<asrwt>0</asrwt>
<pdfrwt beam="1">  1       21 0.86288048E-01 0.25051114E+03</pdfrwt>
<pdfrwt beam="2">  1       21 0.21481286E-01 0.25051114E+03</pdfrwt>
<totfact> 0.22652169E+04</totfact>
</mgrwt>
</event>
<event>
 4    2  0.3903561E+000  0.2079210E+03  0.7546771E-02  0.1143223E+00
         21   -1    0    0  503  502  0.00000000000E+00  0.00000000000E+00  0.15121854950E+03  0.15121854950E+03  0.00000000000E+00 0.  1.
         21   -1    0    0  501  503 -0.00000000000E+00 -0.00000000000E+00 -0.43107978682E+03  0.43107978682E+03  0.00000000000E+00 0.  1.
          6    1    1    2  501    0 -0.80120450179E+02  0.82963086195E+02 -0.30890146865E+03  0.37235907071E+03  0.17300000000E+03 0.  1.
         -6    1    1    2    0  502  0.80120450179E+02 -0.82963086195E+02  0.29040231330E+02  0.20993926561E+03  0.17300000000E+03 0.  1.
<mgrwt>
<rscale>  2 0.20792104E+03</rscale>
<asrwt>0</asrwt>
<pdfrwt beam="1">  1       21 0.23264393E-01 0.20792104E+03</pdfrwt>
<pdfrwt beam="2">  1       21 0.66319966E-01 0.20792104E+03</pdfrwt>
<totfact> 0.35939081E+04</totfact>
</mgrwt>
</event>
<event>
 4    2  0.3903561E+000  0.2167113E+03  0.7546771E-02  0.1136359E+00
         21   -1    0    0  503  502  0.00000000000E+00  0.00000000000E+00  0.76188857415E+03  0.76188857415E+03  0.00000000000E+00 0. -1.
         21   -1    0    0  501  503 -0.00000000000E+00 -0.00000000000E+00 -0.61704319108E+02  0.61704319108E+02  0.00000000000E+00 0.  1.
          6    1    1    2  501    0  0.87921978911E+02  0.96459979031E+02  0.33693194225E+03  0.40060820716E+03  0.17300000000E+03 0. -1.
         -6    1    1    2    0  502 -0.87921978911E+02 -0.96459979031E+02  0.36325231279E+03  0.42298468610E+03  0.17300000000E+03 0.  1.
<mgrwt>
<rscale>  2 0.21671133E+03</rscale>
<asrwt>0</asrwt>
<pdfrwt beam="1">  1       21 0.11721362E+00 0.21671133E+03</pdfrwt>
<pdfrwt beam="2">  1       21 0.94929728E-02 0.21671133E+03</pdfrwt>
<totfact> 0.49154535E+04</totfact>
</mgrwt>
</event>
<event>
 4    2  0.3903561E+000  0.2308795E+03  0.7546771E-02  0.1126022E+00
         21   -1    0    0  501  502  0.00000000000E+00  0.00000000000E+00  0.15532444031E+03  0.15532444031E+03  0.00000000000E+00 0.  1.
         21   -1    0    0  502  503 -0.00000000000E+00 -0.00000000000E+00 -0.43335413911E+03  0.43335413911E+03  0.00000000000E+00 0. -1.
          6    1    1    2  501    0 -0.13180243976E+03  0.77488547161E+02 -0.47536715704E+01  0.23092846395E+03  0.17300000000E+03 0.  1.
         -6    1    1    2    0  503  0.13180243976E+03 -0.77488547161E+02 -0.27327602722E+03  0.35775011547E+03  0.17300000000E+03 0. -1.
<mgrwt>
<rscale>  2 0.23087953E+03</rscale>
<asrwt>0</asrwt>
<pdfrwt beam="1">  1       21 0.23896068E-01 0.23087953E+03</pdfrwt>
<pdfrwt beam="2">  1       21 0.66669868E-01 0.23087953E+03</pdfrwt>
<totfact> 0.33378767E+04</totfact>
</mgrwt>
</event>
<event>
 4    2  0.3903561E+000  0.1899014E+03  0.7546771E-02  0.1158550E+00
         21   -1    0    0  501  502  0.00000000000E+00  0.00000000000E+00  0.96529464461E+02  0.96529464461E+02  0.00000000000E+00 0.  1.
         21   -1    0    0  502  503 -0.00000000000E+00 -0.00000000000E+00 -0.39911711825E+03  0.39911711825E+03  0.00000000000E+00 0. -1.
          6    1    1    2  501    0  0.21958623813E+02 -0.75175417796E+02 -0.88620086519E+02  0.20956155262E+03  0.17300000000E+03 0.  1.
         -6    1    1    2    0  503 -0.21958623813E+02  0.75175417796E+02 -0.21396756727E+03  0.28608503009E+03  0.17300000000E+03 0. -1.
<mgrwt>
<rscale>  2 0.18990135E+03</rscale>
<asrwt>0</asrwt>
<pdfrwt beam="1">  1       21 0.14850687E-01 0.18990135E+03</pdfrwt>
<pdfrwt beam="2">  1       21 0.61402632E-01 0.18990135E+03</pdfrwt>
<totfact> 0.98602456E+04</totfact>
</mgrwt>
</event>
<event>
 4    2  0.3903561E+000  0.1775765E+03  0.7546771E-02  0.1170169E+00
         21   -1    0    0  503  502  0.00000000000E+00  0.00000000000E+00  0.12770306003E+04  0.12770306003E+04  0.00000000000E+00 0.  1.
         21   -1    0    0  501  503 -0.00000000000E+00 -0.00000000000E+00 -0.32678520339E+02  0.32678520339E+02  0.00000000000E+00 0.  1.
          6    1    1    2  501    0 -0.35248301358E+02  0.19025660937E+02  0.94589759787E+03  0.96242178081E+03  0.17300000000E+03 0.  1.
         -6    1    1    2    0  502  0.35248301358E+02 -0.19025660937E+02  0.29845448208E+03  0.34728733981E+03  0.17300000000E+03 0.  1.
<mgrwt>
<rscale>  2 0.17757651E+03</rscale>
<asrwt>0</asrwt>
<pdfrwt beam="1">  1       21 0.19646621E+00 0.17757651E+03</pdfrwt>
<pdfrwt beam="2">  1       21 0.50274657E-02 0.17757651E+03</pdfrwt>
<totfact> 0.38104609E+04</totfact>
</mgrwt>
</event>
<event>
 4    2  0.3903561E+000  0.1890864E+03  0.7546771E-02  0.1159288E+00
         21   -1    0    0  501  502  0.00000000000E+00  0.00000000000E+00  0.30659114867E+02  0.30659114867E+02  0.00000000000E+00 0. -1.
         21   -1    0    0  502  503 -0.00000000000E+00 -0.00000000000E+00 -0.14881003665E+04  0.14881003665E+04  0.00000000000E+00 0. -1.
          6    1    1    2  501    0  0.75153902831E+02 -0.13287445984E+02 -0.37551671053E+03  0.42043604177E+03  0.17300000000E+03 0. -1.
         -6    1    1    2    0  503 -0.75153902831E+02  0.13287445984E+02 -0.10819245411E+04  0.10983234396E+04  0.17300000000E+03 0. -1.
<mgrwt>
<rscale>  2 0.18908640E+03</rscale>
<asrwt>0</asrwt>
<pdfrwt beam="1">  1       21 0.47167883E-02 0.18908640E+03</pdfrwt>
<pdfrwt beam="2">  1       21 0.22893845E+00 0.18908640E+03</pdfrwt>
<totfact> 0.26426089E+04</totfact>
</mgrwt>
</event>
<event>
 4    2  0.3903561E+000  0.1932460E+03  0.7546771E-02  0.1155566E+00
         21   -1    0    0  501  502  0.00000000000E+00  0.00000000000E+00  0.18510581502E+03  0.18510581502E+03  0.00000000000E+00 0.  1.
         21   -1    0    0  502  503 -0.00000000000E+00 -0.00000000000E+00 -0.20447790748E+03  0.20447790748E+03  0.00000000000E+00 0. -1.
          6    1    1    2  501    0 -0.81559910773E+02 -0.27622629588E+02  0.12836726445E+02  0.19367191396E+03  0.17300000000E+03 0.  1.
         -6    1    1    2    0  503  0.81559910773E+02  0.27622629588E+02 -0.32208818910E+02  0.19591180854E+03  0.17300000000E+03 0.  1.
<mgrwt>
<rscale>  2 0.19324603E+03</rscale>
<asrwt>0</asrwt>
<pdfrwt beam="1">  1       21 0.28477818E-01 0.19324603E+03</pdfrwt>
<pdfrwt beam="2">  1       21 0.31458140E-01 0.19324603E+03</pdfrwt>
<totfact> 0.11449961E+05</totfact>
</mgrwt>
</event>
<event>
 4    2  0.3903561E+000  0.1913481E+03  0.7546771E-02  0.1157251E+00
         21   -1    0    0  503  502  0.00000000000E+00  0.00000000000E+00  0.49744211527E+03  0.49744211527E+03  0.00000000000E+00 0.  1.
         21   -1    0    0  501  503 -0.00000000000E+00 -0.00000000000E+00 -0.74328397745E+02  0.74328397745E+02  0.00000000000E+00 0. -1.
          6    1    1    2  501    0  0.38895452974E+02  0.71918212761E+02  0.18334782558E+03  0.26501039741E+03  0.17300000000E+03 0.  1.
         -6    1    1    2    0  502 -0.38895452974E+02 -0.71918212761E+02  0.23976589194E+03  0.30676011561E+03  0.17300000000E+03 0.  1.
<mgrwt>
<rscale>  2 0.19134807E+03</rscale>
<asrwt>0</asrwt>
<pdfrwt beam="1">  1       21 0.76529554E-01 0.19134807E+03</pdfrwt>
<pdfrwt beam="2">  1       21 0.11435138E-01 0.19134807E+03</pdfrwt>
<totfact> 0.97253715E+04</totfact>
</mgrwt>
</event>
<event>
 4    2  0.3903561E+000  0.2004268E+03  0.7546771E-02  0.1149379E+00
         21   -1    0    0  503  502  0.00000000000E+00  0.00000000000E+00  0.45157146388E+02  0.45157146388E+02  0.00000000000E+00 0. -1.
         21   -1    0    0  501  503 -0.00000000000E+00 -0.00000000000E+00 -0.14300645825E+04  0.14300645825E+04  0.00000000000E+00 0. -1.
          6    1    1    2  501    0  0.10076164649E+03  0.94334429188E+01 -0.23899151844E+03  0.31190999524E+03  0.17300000000E+03 0. -1.
         -6    1    1    2    0  502 -0.10076164649E+03 -0.94334429188E+01 -0.11459159177E+04  0.11633117337E+04  0.17300000000E+03 0. -1.
<mgrwt>
<rscale>  2 0.20042679E+03</rscale>
<asrwt>0</asrwt>
<pdfrwt beam="1">  1       21 0.69472526E-02 0.20042679E+03</pdfrwt>
<pdfrwt beam="2">  1       21 0.22000996E+00 0.20042679E+03</pdfrwt>
<totfact> 0.15315630E+04</totfact>
</mgrwt>
</event>
<event>
 4    2  0.3903561E+000  0.1953487E+03  0.7546771E-02  0.1153724E+00
         21   -1    0    0  503  502  0.00000000000E+00  0.00000000000E+00  0.18288336384E+03  0.18288336384E+03  0.00000000000E+00 0. -1.
         21   -1    0    0  501  503 -0.00000000000E+00 -0.00000000000E+00 -0.21651774439E+03  0.21651774439E+03  0.00000000000E+00 0. -1.
          6    1    1    2  501    0  0.17277058342E+02 -0.89070797212E+02 -0.54852028468E+02  0.20290354528E+03  0.17300000000E+03 0. -1.
         -6    1    1    2    0  502 -0.17277058342E+02  0.89070797212E+02  0.21217647925E+02  0.19649756295E+03  0.17300000000E+03 0. -1.
<mgrwt>
<rscale>  2 0.19534867E+03</rscale>
<asrwt>0</asrwt>
<pdfrwt beam="1">  1       21 0.28135902E-01 0.19534867E+03</pdfrwt>
<pdfrwt beam="2">  1       21 0.33310422E-01 0.19534867E+03</pdfrwt>
<totfact> 0.10464630E+05</totfact>
</mgrwt>
</event>
<event>
 4    2  0.3903561E+000  0.2066927E+03  0.7546771E-02  0.1144212E+00
         21   -1    0    0  501  502  0.00000000000E+00  0.00000000000E+00  0.31166870116E+03  0.31166870116E+03  0.00000000000E+00 0.  1.
         21   -1    0    0  502  503 -0.00000000000E+00 -0.00000000000E+00 -0.24537895082E+03  0.24537895082E+03  0.00000000000E+00 0.  1.
          6    1    1    2  501    0  0.19762482293E+02 -0.11136564882E+03  0.21818531229E+03  0.30054399668E+03  0.17300000000E+03 0.  1.
         -6    1    1    2    0  503 -0.19762482293E+02  0.11136564882E+03 -0.15189556195E+03  0.25650365530E+03  0.17300000000E+03 0.  1.
<mgrwt>
<rscale>  2 0.20669268E+03</rscale>
<asrwt>0</asrwt>
<pdfrwt beam="1">  1       21 0.47949031E-01 0.20669268E+03</pdfrwt>
<pdfrwt beam="2">  1       21 0.37750608E-01 0.20669268E+03</pdfrwt>
<totfact> 0.27913082E+04</totfact>
</mgrwt>
</event>
<event>
 4    2  0.3903561E+000  0.2319861E+03  0.7546771E-02  0.1125250E+00
         21   -1    0    0  503  502  0.00000000000E+00  0.00000000000E+00  0.25114340265E+03  0.25114340265E+03  0.00000000000E+00 0. -1.
         21   -1    0    0  501  503 -0.00000000000E+00 -0.00000000000E+00 -0.22109530172E+03  0.22109530172E+03  0.00000000000E+00 0.  1.
          6    1    1    2  501    0 -0.75424170768E+02  0.13490650502E+03  0.56448720144E+02  0.23875516463E+03  0.17300000000E+03 0. -1.
         -6    1    1    2    0  502  0.75424170768E+02 -0.13490650502E+03 -0.26400619219E+02  0.23348353974E+03  0.17300000000E+03 0.  1.
<mgrwt>
<rscale>  2 0.23198614E+03</rscale>
<asrwt>0</asrwt>
<pdfrwt beam="1">  1       21 0.38637447E-01 0.23198614E+03</pdfrwt>
<pdfrwt beam="2">  1       21 0.34014662E-01 0.23198614E+03</pdfrwt>
<totfact> 0.52835318E+04</totfact>
</mgrwt>
</event>
<event>
 4    2  0.3903561E+000  0.1757757E+03  0.7546771E-02  0.1171955E+00
         21   -1    0    0  501  502  0.00000000000E+00  0.00000000000E+00  0.24810426978E+03  0.24810426978E+03  0.00000000000E+00 0.  1.
         21   -1    0    0  502  503 -0.00000000000E+00 -0.00000000000E+00 -0.12463709242E+03  0.12463709242E+03  0.00000000000E+00 0.  1.
          6    1    1    2  501    0 -0.42491855250E+01 -0.30822708421E+02  0.56339903371E+02  0.18458407202E+03  0.17300000000E+03 0.  1.
         -6    1    1    2    0  503  0.42491855250E+01  0.30822708421E+02  0.67127273993E+02  0.18815729017E+03  0.17300000000E+03 0.  1.
<mgrwt>
<rscale>  2 0.17577569E+03</rscale>
<asrwt>0</asrwt>
<pdfrwt beam="1">  1       21 0.38169888E-01 0.17577569E+03</pdfrwt>
<pdfrwt beam="2">  1       21 0.19174937E-01 0.17577569E+03</pdfrwt>
<totfact> 0.16614109E+05</totfact>
</mgrwt>
</event>
<event>
 4    2  0.3903561E+000  0.2238608E+03  0.7546771E-02  0.1131037E+00
         21   -1    0    0  501  502  0.00000000000E+00  0.00000000000E+00  0.83122549910E+03  0.83122549910E+03  0.00000000000E+00 0.  1.
         21   -1    0    0  502  503 -0.00000000000E+00 -0.00000000000E+00 -0.77275528105E+02  0.77275528105E+02  0.00000000000E+00 0.  1.
          6    1    1    2  501    0  0.10864741434E+03  0.91544542077E+02  0.16400022638E+03  0.27750628475E+03  0.17300000000E+03 0.  1.
         -6    1    1    2    0  503 -0.10864741434E+03 -0.91544542077E+02  0.58994974462E+03  0.63099474245E+03  0.17300000000E+03 0.  1.
<mgrwt>
<rscale>  2 0.22386081E+03</rscale>
<asrwt>0</asrwt>
<pdfrwt beam="1">  1       21 0.12788084E+00 0.22386081E+03</pdfrwt>
<pdfrwt beam="2">  1       21 0.11888543E-01 0.22386081E+03</pdfrwt>
<totfact> 0.26391339E+04</totfact>
</mgrwt>
</event>
<event>
 4    2  0.3903561E+000  0.1897363E+03  0.7546771E-02  0.1158699E+00
         21   -1    0    0  501  502  0.00000000000E+00  0.00000000000E+00  0.71472899258E+03  0.71472899258E+03  0.00000000000E+00 0. -1.
         21   -1    0    0  502  503 -0.00000000000E+00 -0.00000000000E+00 -0.95035472899E+02  0.95035472899E+02  0.00000000000E+00 0.  1.
          6    1    1    2  501    0 -0.69255572459E+02 -0.35700676277E+02  0.58742077101E+03  0.61730303321E+03  0.17300000000E+03 0.  1.
         -6    1    1    2    0  503  0.69255572459E+02  0.35700676277E+02  0.32272748676E+02  0.19246143227E+03  0.17300000000E+03 0.  1.
<mgrwt>
<rscale>  2 0.18973632E+03</rscale>
<asrwt>0</asrwt>
<pdfrwt beam="1">  1       21 0.10995830E+00 0.18973632E+03</pdfrwt>
<pdfrwt beam="2">  1       21 0.14620842E-01 0.18973632E+03</pdfrwt>
<totfact> 0.26912463E+04</totfact>
</mgrwt>
</event>
<event>
 4    2  0.3903561E+000  0.1760395E+03  0.7546771E-02  0.1171692E+00
         21   -1    0    0  503  502  0.00000000000E+00  0.00000000000E+00  0.78554891383E+02  0.78554891383E+02  0.00000000000E+00 0.  1.
         21   -1    0    0  501  503 -0.00000000000E+00 -0.00000000000E+00 -0.39814417677E+03  0.39814417677E+03  0.00000000000E+00 0.  1.
          6    1    1    2  501    0 -0.25511372986E+02  0.20250457471E+02 -0.18259747998E+03  0.25363704555E+03  0.17300000000E+03 0.  1.
         -6    1    1    2    0  502  0.25511372986E+02 -0.20250457471E+02 -0.13699180540E+03  0.22306202260E+03  0.17300000000E+03 0.  1.
<mgrwt>
<rscale>  2 0.17603952E+03</rscale>
<asrwt>0</asrwt>
<pdfrwt beam="1">  1       21 0.12085368E-01 0.17603952E+03</pdfrwt>
<pdfrwt beam="2">  1       21 0.61252950E-01 0.17603952E+03</pdfrwt>
<totfact> 0.14442069E+05</totfact>
</mgrwt>
</event>
<event>
 4    2  0.3903561E+000  0.1745160E+03  0.7546771E-02  0.1173219E+00
         21   -1    0    0  503  502  0.00000000000E+00  0.00000000000E+00  0.78680538076E+03  0.78680538076E+03  0.00000000000E+00 0. -1.
         21   -1    0    0  501  503 -0.00000000000E+00 -0.00000000000E+00 -0.12187671808E+03  0.12187671808E+03  0.00000000000E+00 0. -1.
          6    1    1    2  501    0  0.18525600342E+02 -0.13550936020E+02 -0.42855112440E+02  0.17970082470E+03  0.17300000000E+03 0. -1.
         -6    1    1    2    0  502 -0.18525600342E+02  0.13550936020E+02  0.70778377511E+03  0.72898127414E+03  0.17300000000E+03 0. -1.
<mgrwt>
<rscale>  2 0.17451598E+03</rscale>
<asrwt>0</asrwt>
<pdfrwt beam="1">  1       21 0.12104698E+00 0.17451598E+03</pdfrwt>
<pdfrwt beam="2">  1       21 0.18750265E-01 0.17451598E+03</pdfrwt>
<totfact> 0.13624775E+04</totfact>
</mgrwt>
</event>
<event>
 4    2  0.3903561E+000  0.1960297E+03  0.7546771E-02  0.1153133E+00
         21   -1    0    0  501  502  0.00000000000E+00  0.00000000000E+00  0.28629455319E+03  0.28629455319E+03  0.00000000000E+00 0. -1.
         21   -1    0    0  502  503 -0.00000000000E+00 -0.00000000000E+00 -0.26865836931E+03  0.26865836931E+03  0.00000000000E+00 0. -1.
          6    1    1    2  501    0 -0.69162842423E+02  0.60952111471E+02  0.20510023299E+03  0.28371422988E+03  0.17300000000E+03 0. -1.
         -6    1    1    2    0  503  0.69162842423E+02 -0.60952111471E+02 -0.18746404911E+03  0.27123869262E+03  0.17300000000E+03 0. -1.
<mgrwt>
<rscale>  2 0.19602974E+03</rscale>
<asrwt>0</asrwt>
<pdfrwt beam="1">  1       21 0.44045316E-01 0.19602974E+03</pdfrwt>
<pdfrwt beam="2">  1       21 0.41332057E-01 0.19602974E+03</pdfrwt>
<totfact> 0.27859971E+04</totfact>
</mgrwt>
</event>
<event>
 4    2  0.3903561E+000  0.1754517E+03  0.7546771E-02  0.1172279E+00
         21   -1    0    0  501  502  0.00000000000E+00  0.00000000000E+00  0.72117572126E+02  0.72117572126E+02  0.00000000000E+00 0. -1.
         21   -1    0    0  502  503 -0.00000000000E+00 -0.00000000000E+00 -0.50068395184E+03  0.50068395184E+03  0.00000000000E+00 0. -1.
          6    1    1    2  501    0  0.26921597012E+02  0.11381283676E+02 -0.10430067681E+03  0.20411256009E+03  0.17300000000E+03 0.  1.
         -6    1    1    2    0  503 -0.26921597012E+02 -0.11381283676E+02 -0.32426570290E+03  0.36868896387E+03  0.17300000000E+03 0.  1.
<mgrwt>
<rscale>  2 0.17545172E+03</rscale>
<asrwt>0</asrwt>
<pdfrwt beam="1">  1       21 0.11095011E-01 0.17545172E+03</pdfrwt>
<pdfrwt beam="2">  1       21 0.77028303E-01 0.17545172E+03</pdfrwt>
<totfact> 0.10177324E+05</totfact>
</mgrwt>
</event>
<event>
 4    2  0.3903561E+000  0.1848894E+03  0.7546771E-02  0.1163153E+00
         21   -1    0    0  503  502  0.00000000000E+00  0.00000000000E+00  0.30641512442E+03  0.30641512442E+03  0.00000000000E+00 0. -1.
         21   -1    0    0  501  503 -0.00000000000E+00 -0.00000000000E+00 -0.11158674020E+03  0.11158674020E+03  0.00000000000E+00 0. -1.
          6    1    1    2  501    0  0.41575091243E+02  0.50265446942E+02  0.10056310056E+03  0.21046862133E+03  0.17300000000E+03 0. -1.
         -6    1    1    2    0  502 -0.41575091243E+02 -0.50265446942E+02  0.94265283656E+02  0.20753324329E+03  0.17300000000E+03 0. -1.
<mgrwt>
<rscale>  2 0.18488944E+03</rscale>
<asrwt>0</asrwt>
<pdfrwt beam="1">  1       21 0.47140788E-01 0.18488944E+03</pdfrwt>
<pdfrwt beam="2">  1       21 0.17167191E-01 0.18488944E+03</pdfrwt>
<totfact> 0.13228243E+05</totfact>
</mgrwt>
</event>
<event>
 4    2  0.3903561E+000  0.1772761E+03  0.7546771E-02  0.1170466E+00
         21   -1    0    0  503  502  0.00000000000E+00  0.00000000000E+00  0.17757333998E+02  0.17757333998E+02  0.00000000000E+00 0.  1.
         21   -1    0    0  501  503 -0.00000000000E+00 -0.00000000000E+00 -0.18782165761E+04  0.18782165761E+04  0.00000000000E+00 0.  1.
          6    1    1    2  501    0  0.11498708030E+02 -0.36953800711E+02 -0.70246220966E+03  0.72448599688E+03  0.17300000000E+03 0.  1.
         -6    1    1    2    0  502 -0.11498708030E+02  0.36953800711E+02 -0.11579970324E+04  0.11714879132E+04  0.17300000000E+03 0.  1.
<mgrwt>
<rscale>  2 0.17727607E+03</rscale>
<asrwt>0</asrwt>
<pdfrwt beam="1">  1       21 0.27318985E-02 0.17727607E+03</pdfrwt>
<pdfrwt beam="2">  1       21 0.28895630E+00 0.17727607E+03</pdfrwt>
<totfact> 0.29617321E+04</totfact>
</mgrwt>
</event>
<event>
 4    2  0.3903561E+000  0.2100412E+03  0.7546771E-02  0.1141533E+00
         21   -1    0    0  503  502  0.00000000000E+00  0.00000000000E+00  0.57705419048E+02  0.57705419048E+02  0.00000000000E+00 0. -1.
         21   -1    0    0  501  503 -0.00000000000E+00 -0.00000000000E+00 -0.89480346246E+03  0.89480346246E+03  0.00000000000E+00 0.  1.
          6    1    1    2  501    0  0.10172977442E+03 -0.61962456157E+02 -0.60027200681E+03  0.63595894139E+03  0.17300000000E+03 0.  1.
         -6    1    1    2    0  502 -0.10172977442E+03  0.61962456157E+02 -0.23682603660E+03  0.31654994012E+03  0.17300000000E+03 0. -1.
<mgrwt>
<rscale>  2 0.21004117E+03</rscale>
<asrwt>0</asrwt>
<pdfrwt beam="1">  1       21 0.88777572E-02 0.21004117E+03</pdfrwt>
<pdfrwt beam="2">  1       21 0.13766206E+00 0.21004117E+03</pdfrwt>
<totfact> 0.37016089E+04</totfact>
</mgrwt>
</event>
<event>
 4    2  0.3903561E+000  0.1962146E+03  0.7546771E-02  0.1152973E+00
         21   -1    0    0  501  502  0.00000000000E+00  0.00000000000E+00  0.12108280962E+03  0.12108280962E+03  0.00000000000E+00 0. -1.
         21   -1    0    0  502  503 -0.00000000000E+00 -0.00000000000E+00 -0.37841121594E+03  0.37841121594E+03  0.00000000000E+00 0. -1.
          6    1    1    2  501    0 -0.91397671060E+02 -0.14752360536E+02 -0.28848065923E+02  0.19832392020E+03  0.17300000000E+03 0. -1.
         -6    1    1    2    0  503  0.91397671060E+02  0.14752360536E+02 -0.22848034040E+03  0.30117010537E+03  0.17300000000E+03 0. -1.
<mgrwt>
<rscale>  2 0.19621459E+03</rscale>
<asrwt>0</asrwt>
<pdfrwt beam="1">  1       21 0.18628125E-01 0.19621459E+03</pdfrwt>
<pdfrwt beam="2">  1       21 0.58217109E-01 0.19621459E+03</pdfrwt>
<totfact> 0.72716291E+04</totfact>
</mgrwt>
</event>
<event>
 4    2  0.3903561E+000  0.1962229E+03  0.7546771E-02  0.1152965E+00
         21   -1    0    0  501  502  0.00000000000E+00  0.00000000000E+00  0.28236957181E+02  0.28236957181E+02  0.00000000000E+00 0.  1.
         21   -1    0    0  502  503 -0.00000000000E+00 -0.00000000000E+00 -0.14266661640E+04  0.14266661640E+04  0.00000000000E+00 0.  1.
          6    1    1    2  501    0 -0.89752803714E+02  0.22778830324E+02 -0.85218200482E+03  0.87448133784E+03  0.17300000000E+03 0.  1.
         -6    1    1    2    0  503  0.89752803714E+02 -0.22778830324E+02 -0.54624720195E+03  0.58042178330E+03  0.17300000000E+03 0.  1.
<mgrwt>
<rscale>  2 0.19622294E+03</rscale>
<asrwt>0</asrwt>
<pdfrwt beam="1">  1       21 0.43441473E-02 0.19622294E+03</pdfrwt>
<pdfrwt beam="2">  1       21 0.21948710E+00 0.19622294E+03</pdfrwt>
<totfact> 0.34474261E+04</totfact>
</mgrwt>
</event>
<event>
 4    2  0.3903561E+000  0.1879561E+03  0.7546771E-02  0.1160318E+00
         21   -1    0    0  501  502  0.00000000000E+00  0.00000000000E+00  0.11503277188E+03  0.11503277188E+03  0.00000000000E+00 0.  1.
         21   -1    0    0  502  503 -0.00000000000E+00 -0.00000000000E+00 -0.63028602046E+03  0.63028602046E+03  0.00000000000E+00 0.  1.
          6    1    1    2  501    0  0.10733185363E+02  0.72686381693E+02  0.92213989711E+01  0.18818221369E+03  0.17300000000E+03 0.  1.
         -6    1    1    2    0  503 -0.10733185363E+02 -0.72686381693E+02 -0.52447464754E+03  0.55713657865E+03  0.17300000000E+03 0.  1.
<mgrwt>
<rscale>  2 0.18795614E+03</rscale>
<asrwt>0</asrwt>
<pdfrwt beam="1">  1       21 0.17697349E-01 0.18795614E+03</pdfrwt>
<pdfrwt beam="2">  1       21 0.96967081E-01 0.18795614E+03</pdfrwt>
<totfact> 0.25645392E+04</totfact>
</mgrwt>
</event>
<event>
 4    2  0.3903561E+000  0.2802484E+03  0.7546771E-02  0.1095553E+00
         21   -1    0    0  501  502  0.00000000000E+00  0.00000000000E+00  0.97001923515E+02  0.97001923515E+02  0.00000000000E+00 0. -1.
         21   -1    0    0  502  503 -0.00000000000E+00 -0.00000000000E+00 -0.12219090075E+04  0.12219090075E+04  0.00000000000E+00 0.  1.
          6    1    1    2  501    0 -0.18927403999E+03  0.11307288657E+03 -0.17941471943E+03  0.33275934463E+03  0.17300000000E+03 0. -1.
         -6    1    1    2    0  503  0.18927403999E+03 -0.11307288657E+03 -0.94549236459E+03  0.98615158642E+03  0.17300000000E+03 0.  1.
<mgrwt>
<rscale>  2 0.28024835E+03</rscale>
<asrwt>0</asrwt>
<pdfrwt beam="1">  1       21 0.14923374E-01 0.28024835E+03</pdfrwt>
<pdfrwt beam="2">  1       21 0.18798599E+00 0.28024835E+03</pdfrwt>
<totfact> 0.59666906E+03</totfact>
</mgrwt>
</event>
<event>
 4    2  0.3903561E+000  0.1813105E+03  0.7546771E-02  0.1166541E+00
         21   -1    0    0  501  502  0.00000000000E+00  0.00000000000E+00  0.13108364100E+03  0.13108364100E+03  0.00000000000E+00 0.  1.
         21   -1    0    0  502  503 -0.00000000000E+00 -0.00000000000E+00 -0.50358068627E+03  0.50358068627E+03  0.00000000000E+00 0.  1.
          6    1    1    2  501    0  0.50963038082E+02  0.18635519250E+02 -0.41108477426E+03  0.44929300624E+03  0.17300000000E+03 0.  1.
         -6    1    1    2    0  503 -0.50963038082E+02 -0.18635519250E+02  0.38587728994E+02  0.18537132102E+03  0.17300000000E+03 0.  1.
<mgrwt>
<rscale>  2 0.18131055E+03</rscale>
<asrwt>0</asrwt>
<pdfrwt beam="1">  1       21 0.20166714E-01 0.18131055E+03</pdfrwt>
<pdfrwt beam="2">  1       21 0.77473952E-01 0.18131055E+03</pdfrwt>
<totfact> 0.33805985E+04</totfact>
</mgrwt>
</event>
<event>
 4    2  0.3903561E+000  0.2136937E+03  0.7546771E-02  0.1138674E+00
         21   -1    0    0  503  502  0.00000000000E+00  0.00000000000E+00  0.83327197923E+02  0.83327197923E+02  0.00000000000E+00 0. -1.
         21   -1    0    0  501  503 -0.00000000000E+00 -0.00000000000E+00 -0.66929847046E+03  0.66929847046E+03  0.00000000000E+00 0. -1.
          6    1    1    2  501    0  0.10497166179E+03  0.68679973954E+02 -0.13279741042E+03  0.25159519236E+03  0.17300000000E+03 0. -1.
         -6    1    1    2    0  502 -0.10497166179E+03 -0.68679973954E+02 -0.45317386211E+03  0.50103047602E+03  0.17300000000E+03 0. -1.
<mgrwt>
<rscale>  2 0.21369368E+03</rscale>
<asrwt>0</asrwt>
<pdfrwt beam="1">  1       21 0.12819568E-01 0.21369368E+03</pdfrwt>
<pdfrwt beam="2">  1       21 0.10296900E+00 0.21369368E+03</pdfrwt>
<totfact> 0.39462715E+04</totfact>
</mgrwt>
</event>
<event>
 4    2  0.3903561E+000  0.2323228E+03  0.7546771E-02  0.1125015E+00
         21   -1    0    0  503  502  0.00000000000E+00  0.00000000000E+00  0.24914278421E+03  0.24914278421E+03  0.00000000000E+00 0. -1.
         21   -1    0    0  501  503 -0.00000000000E+00 -0.00000000000E+00 -0.21976350135E+03  0.21976350135E+03  0.00000000000E+00 0. -1.
          6    1    1    2  501    0 -0.56698932841E+02  0.14432639105E+03  0.42648236877E+02  0.23620488616E+03  0.17300000000E+03 0. -1.
         -6    1    1    2    0  502  0.56698932841E+02 -0.14432639105E+03 -0.13268954023E+02  0.23270139939E+03  0.17300000000E+03 0. -1.
<mgrwt>
<rscale>  2 0.23232278E+03</rscale>
<asrwt>0</asrwt>
<pdfrwt beam="1">  1       21 0.38329659E-01 0.23232278E+03</pdfrwt>
<pdfrwt beam="2">  1       21 0.33809769E-01 0.23232278E+03</pdfrwt>
<totfact> 0.54335581E+04</totfact>
</mgrwt>
</event>
<event>
 4    2  0.3903561E+000  0.1927220E+03  0.7546771E-02  0.1156029E+00
         21   -1    0    0  501  502  0.00000000000E+00  0.00000000000E+00  0.51648534442E+03  0.51648534442E+03  0.00000000000E+00 0.  1.
         21   -1    0    0  502  503 -0.00000000000E+00 -0.00000000000E+00 -0.20586682853E+03  0.20586682853E+03  0.00000000000E+00 0.  1.
          6    1    1    2  501    0  0.21588376268E+02 -0.82138473902E+02  0.44665190935E+03  0.48645628273E+03  0.17300000000E+03 0.  1.
         -6    1    1    2    0  503 -0.21588376268E+02  0.82138473902E+02 -0.13603339346E+03  0.23589589022E+03  0.17300000000E+03 0.  1.
<mgrwt>
<rscale>  2 0.19272205E+03</rscale>
<asrwt>0</asrwt>
<pdfrwt beam="1">  1       21 0.79459283E-01 0.19272205E+03</pdfrwt>
<pdfrwt beam="2">  1       21 0.31671820E-01 0.19272205E+03</pdfrwt>
<totfact> 0.13385437E+04</totfact>
</mgrwt>
</event>
<event>
 4    2  0.3903561E+000  0.1806373E+03  0.7546771E-02  0.1167188E+00
         21   -1    0    0  503  502  0.00000000000E+00  0.00000000000E+00  0.12873660168E+04  0.12873660168E+04  0.00000000000E+00 0. -1.
         21   -1    0    0  501  503 -0.00000000000E+00 -0.00000000000E+00 -0.31342359018E+02  0.31342359018E+02  0.00000000000E+00 0. -1.
          6    1    1    2  501    0 -0.47074608470E+02  0.22018436345E+02  0.33961553524E+03  0.38466679357E+03  0.17300000000E+03 0. -1.
         -6    1    1    2    0  502  0.47074608470E+02 -0.22018436345E+02  0.91640812258E+03  0.93404158228E+03  0.17300000000E+03 0. -1.
<mgrwt>
<rscale>  2 0.18063729E+03</rscale>
<asrwt>0</asrwt>
<pdfrwt beam="1">  1       21 0.19805627E+00 0.18063729E+03</pdfrwt>
<pdfrwt beam="2">  1       21 0.48219024E-02 0.18063729E+03</pdfrwt>
<totfact> 0.39853110E+04</totfact>
</mgrwt>
</event>
<event>
 4    2  0.3903561E+000  0.2203444E+03  0.7546771E-02  0.1133627E+00
         21   -1    0    0  501  502  0.00000000000E+00  0.00000000000E+00  0.15904885439E+03  0.15904885439E+03  0.00000000000E+00 0.  1.
         21   -1    0    0  502  503 -0.00000000000E+00 -0.00000000000E+00 -0.53607630090E+03  0.53607630090E+03  0.00000000000E+00 0. -1.
          6    1    1    2  501    0  0.13150469781E+03  0.36457477115E+02  0.39547104672E+02  0.22386515288E+03  0.17300000000E+03 0.  1.
         -6    1    1    2    0  503 -0.13150469781E+03 -0.36457477115E+02 -0.41657455119E+03  0.47126000242E+03  0.17300000000E+03 0. -1.
<mgrwt>
<rscale>  2 0.22034435E+03</rscale>
<asrwt>0</asrwt>
<pdfrwt beam="1">  1       21 0.24469054E-01 0.22034435E+03</pdfrwt>
<pdfrwt beam="2">  1       21 0.82473278E-01 0.22034435E+03</pdfrwt>
<totfact> 0.19926140E+04</totfact>
</mgrwt>
</event>
<event>
 4    2  0.3903561E+000  0.2988012E+03  0.7546771E-02  0.1085841E+00
         21   -1    0    0  501  502  0.00000000000E+00  0.00000000000E+00  0.76166952590E+03  0.76166952590E+03  0.00000000000E+00 0. -1.
         21   -1    0    0  502  503 -0.00000000000E+00 -0.00000000000E+00 -0.12017607129E+03  0.12017607129E+03  0.00000000000E+00 0. -1.
          6    1    1    2  501    0  0.21872687656E+03  0.10729269515E+03  0.38991097762E+03  0.49123593052E+03  0.17300000000E+03 0. -1.
         -6    1    1    2    0  503 -0.21872687656E+03 -0.10729269515E+03  0.25158247700E+03  0.39060966667E+03  0.17300000000E+03 0. -1.
<mgrwt>
<rscale>  2 0.29880122E+03</rscale>
<asrwt>0</asrwt>
<pdfrwt beam="1">  1       21 0.11717992E+00 0.29880122E+03</pdfrwt>
<pdfrwt beam="2">  1       21 0.18488627E-01 0.29880122E+03</pdfrwt>
<totfact> 0.14104364E+04</totfact>
</mgrwt>
</event>
<event>
 4    2  0.3903561E+000  0.1758877E+03  0.7546771E-02  0.1171843E+00
         21   -1    0    0  501  502  0.00000000000E+00  0.00000000000E+00  0.21097293041E+03  0.21097293041E+03  0.00000000000E+00 0.  1.
         21   -1    0    0  502  503 -0.00000000000E+00 -0.00000000000E+00 -0.21827979547E+03  0.21827979547E+03  0.00000000000E+00 0.  1.
          6    1    1    2  501    0  0.23415541484E+02  0.21428814367E+02  0.11930602135E+03  0.21253331127E+03  0.17300000000E+03 0.  1.
         -6    1    1    2    0  503 -0.23415541484E+02 -0.21428814367E+02 -0.12661288640E+03  0.21671941462E+03  0.17300000000E+03 0.  1.
<mgrwt>
<rscale>  2 0.17588770E+03</rscale>
<asrwt>0</asrwt>
<pdfrwt beam="1">  1       21 0.32457374E-01 0.17588770E+03</pdfrwt>
<pdfrwt beam="2">  1       21 0.33581507E-01 0.17588770E+03</pdfrwt>
<totfact> 0.78554167E+04</totfact>
</mgrwt>
</event>
<event>
 4    2  0.3903561E+000  0.2048963E+03  0.7546771E-02  0.1145672E+00
         21   -1    0    0  503  502  0.00000000000E+00  0.00000000000E+00  0.12074738016E+03  0.12074738016E+03  0.00000000000E+00 0. -1.
         21   -1    0    0  501  503 -0.00000000000E+00 -0.00000000000E+00 -0.40739955780E+03  0.40739955780E+03  0.00000000000E+00 0. -1.
          6    1    1    2  501    0 -0.69302944686E+02  0.85150502811E+02 -0.24442371290E+03  0.31894428620E+03  0.17300000000E+03 0. -1.
         -6    1    1    2    0  502  0.69302944686E+02 -0.85150502811E+02 -0.42228464733E+02  0.20920265176E+03  0.17300000000E+03 0. -1.
<mgrwt>
<rscale>  2 0.20489633E+03</rscale>
<asrwt>0</asrwt>
<pdfrwt beam="1">  1       21 0.18576520E-01 0.20489633E+03</pdfrwt>
<pdfrwt beam="2">  1       21 0.62676855E-01 0.20489633E+03</pdfrwt>
<totfact> 0.62109115E+04</totfact>
</mgrwt>
</event>
<event>
 4    2  0.3903561E+000  0.2293855E+03  0.7546771E-02  0.1127073E+00
         21   -1    0    0  501  502  0.00000000000E+00  0.00000000000E+00  0.10339745579E+04  0.10339745579E+04  0.00000000000E+00 0.  1.
         21   -1    0    0  502  503 -0.00000000000E+00 -0.00000000000E+00 -0.74643345388E+02  0.74643345388E+02  0.00000000000E+00 0.  1.
          6    1    1    2  501    0  0.15014504960E+03  0.12048684048E+02  0.79236703327E+03  0.82490194698E+03  0.17300000000E+03 0.  1.
         -6    1    1    2    0  503 -0.15014504960E+03 -0.12048684048E+02  0.16696417920E+03  0.28371595627E+03  0.17300000000E+03 0.  1.
<mgrwt>
<rscale>  2 0.22938550E+03</rscale>
<asrwt>0</asrwt>
<pdfrwt beam="1">  1       21 0.15907300E+00 0.22938550E+03</pdfrwt>
<pdfrwt beam="2">  1       21 0.11483592E-01 0.22938550E+03</pdfrwt>
<totfact> 0.15829658E+04</totfact>
</mgrwt>
</event>
<event>
 4    2  0.3903561E+000  0.2326448E+03  0.7546771E-02  0.1124792E+00
         21   -1    0    0  503  502  0.00000000000E+00  0.00000000000E+00  0.35049673545E+03  0.35049673545E+03  0.00000000000E+00 0.  1.
         21   -1    0    0  501  503 -0.00000000000E+00 -0.00000000000E+00 -0.15720622434E+03  0.15720622434E+03  0.00000000000E+00 0.  1.
          6    1    1    2  501    0 -0.11731072023E+03  0.10214097168E+03  0.13044241157E+03  0.26671858936E+03  0.17300000000E+03 0. -1.
         -6    1    1    2    0  502  0.11731072023E+03 -0.10214097168E+03  0.62848099544E+02  0.24098437043E+03  0.17300000000E+03 0. -1.
<mgrwt>
<rscale>  2 0.23264476E+03</rscale>
<asrwt>0</asrwt>
<pdfrwt beam="1">  1       21 0.53922575E-01 0.23264476E+03</pdfrwt>
<pdfrwt beam="2">  1       21 0.24185573E-01 0.23264476E+03</pdfrwt>
<totfact> 0.51515848E+04</totfact>
</mgrwt>
</event>
<event>
 4    2  0.3903561E+000  0.1781193E+03  0.7546771E-02  0.1169636E+00
         21   -1    0    0  501  502  0.00000000000E+00  0.00000000000E+00  0.20200987856E+02  0.20200987856E+02  0.00000000000E+00 0.  1.
         21   -1    0    0  502  503 -0.00000000000E+00 -0.00000000000E+00 -0.17942146207E+04  0.17942146207E+04  0.00000000000E+00 0.  1.
          6    1    1    2  501    0 -0.25536422714E+02  0.33843409229E+02 -0.56669224292E+03  0.59402574306E+03  0.17300000000E+03 0.  1.
         -6    1    1    2    0  503  0.25536422714E+02 -0.33843409229E+02 -0.12073213899E+04  0.12203898655E+04  0.17300000000E+03 0.  1.
<mgrwt>
<rscale>  2 0.17811930E+03</rscale>
<asrwt>0</asrwt>
<pdfrwt beam="1">  1       21 0.31078444E-02 0.17811930E+03</pdfrwt>
<pdfrwt beam="2">  1       21 0.27603301E+00 0.17811930E+03</pdfrwt>
<totfact> 0.28374812E+04</totfact>
</mgrwt>
</event>
<event>
 4    2  0.3903561E+000  0.1951946E+03  0.7546771E-02  0.1153858E+00
         21   -1    0    0  503  502  0.00000000000E+00  0.00000000000E+00  0.99505339492E+02  0.99505339492E+02  0.00000000000E+00 0.  1.
         21   -1    0    0  501  503 -0.00000000000E+00 -0.00000000000E+00 -0.42145250947E+03  0.42145250947E+03  0.00000000000E+00 0.  1.
          6    1    1    2  501    0  0.47059114441E+02 -0.77184048334E+02 -0.23975162536E+03  0.30916303051E+03  0.17300000000E+03 0.  1.
         -6    1    1    2    0  502 -0.47059114441E+02  0.77184048334E+02 -0.82195544614E+02  0.21179481845E+03  0.17300000000E+03 0.  1.
<mgrwt>
<rscale>  2 0.19519461E+03</rscale>
<asrwt>0</asrwt>
<pdfrwt beam="1">  1       21 0.15308514E-01 0.19519461E+03</pdfrwt>
<pdfrwt beam="2">  1       21 0.64838845E-01 0.19519461E+03</pdfrwt>
<totfact> 0.82742511E+04</totfact>
</mgrwt>
</event>
<event>
 4    2  0.3903561E+000  0.2920857E+03  0.7546771E-02  0.1089265E+00
         21   -1    0    0  503  502  0.00000000000E+00  0.00000000000E+00  0.47255662628E+03  0.47255662628E+03  0.00000000000E+00 0. -1.
         21   -1    0    0  501  503 -0.00000000000E+00 -0.00000000000E+00 -0.18070756481E+03  0.18070756481E+03  0.00000000000E+00 0.  1.
          6    1    1    2  501    0  0.20804453057E+03 -0.11001158288E+03  0.13589701353E+03  0.32215225183E+03  0.17300000000E+03 0.  1.
         -6    1    1    2    0  502 -0.20804453057E+03  0.11001158288E+03  0.15595204794E+03  0.33111193927E+03  0.17300000000E+03 0. -1.
<mgrwt>
<rscale>  2 0.29208573E+03</rscale>
<asrwt>0</asrwt>
<pdfrwt beam="1">  1       21 0.72701019E-01 0.29208573E+03</pdfrwt>
<pdfrwt beam="2">  1       21 0.27801164E-01 0.29208573E+03</pdfrwt>
<totfact> 0.20018896E+04</totfact>
</mgrwt>
</event>
<event>
 4    2  0.3903561E+000  0.2080102E+03  0.7546771E-02  0.1143151E+00
         21   -1    0    0  503  502  0.00000000000E+00  0.00000000000E+00  0.96194157709E+03  0.96194157709E+03  0.00000000000E+00 0. -1.
         21   -1    0    0  501  503 -0.00000000000E+00 -0.00000000000E+00 -0.47872163443E+02  0.47872163443E+02  0.00000000000E+00 0.  1.
          6    1    1    2  501    0  0.99024937016E+02  0.59441696823E+02  0.33293473055E+03  0.39257329033E+03  0.17300000000E+03 0.  1.
         -6    1    1    2    0  502 -0.99024937016E+02 -0.59441696823E+02  0.58113468309E+03  0.61724045020E+03  0.17300000000E+03 0. -1.
<mgrwt>
<rscale>  2 0.20801022E+03</rscale>
<asrwt>0</asrwt>
<pdfrwt beam="1">  1       21 0.14799100E+00 0.20801022E+03</pdfrwt>
<pdfrwt beam="2">  1       21 0.73649489E-02 0.20801022E+03</pdfrwt>
<totfact> 0.42521713E+04</totfact>
</mgrwt>
</event>
<event>
 4    2  0.3903561E+000  0.2800777E+03  0.7546771E-02  0.1095646E+00
         21   -1    0    0  503  502  0.00000000000E+00  0.00000000000E+00  0.51472542710E+03  0.51472542710E+03  0.00000000000E+00 0. -1.
         21   -1    0    0  501  503 -0.00000000000E+00 -0.00000000000E+00 -0.32549792325E+03  0.32549792325E+03  0.00000000000E+00 0. -1.
          6    1    1    2  501    0  0.29626116512E+01 -0.22024024276E+03 -0.21175048279E+03  0.35111509304E+03  0.17300000000E+03 0. -1.
         -6    1    1    2    0  502 -0.29626116512E+01  0.22024024276E+03  0.40097798664E+03  0.48910825731E+03  0.17300000000E+03 0. -1.
<mgrwt>
<rscale>  2 0.28007774E+03</rscale>
<asrwt>0</asrwt>
<pdfrwt beam="1">  1       21 0.79188528E-01 0.28007774E+03</pdfrwt>
<pdfrwt beam="2">  1       21 0.50076603E-01 0.28007774E+03</pdfrwt>
<totfact> 0.50457594E+03</totfact>
</mgrwt>
</event>
<event>
 4    2  0.3903561E+000  0.2537237E+03  0.7546771E-02  0.1110974E+00
         21   -1    0    0  501  502  0.00000000000E+00  0.00000000000E+00  0.32065942942E+03  0.32065942942E+03  0.00000000000E+00 0. -1.
         21   -1    0    0  502  503 -0.00000000000E+00 -0.00000000000E+00 -0.28492208323E+03  0.28492208323E+03  0.00000000000E+00 0.  1.
          6    1    1    2  501    0 -0.16985639177E+03 -0.74803198006E+02  0.18243341320E+03  0.31250226001E+03  0.17300000000E+03 0. -1.
         -6    1    1    2    0  503  0.16985639177E+03  0.74803198006E+02 -0.14669606701E+03  0.29307925265E+03  0.17300000000E+03 0.  1.
<mgrwt>
<rscale>  2 0.25372369E+03</rscale>
<asrwt>0</asrwt>
<pdfrwt beam="1">  1       21 0.49332220E-01 0.25372369E+03</pdfrwt>
<pdfrwt beam="2">  1       21 0.43834167E-01 0.25372369E+03</pdfrwt>
<totfact> 0.18952572E+04</totfact>
</mgrwt>
</event>
<event>
 4    2  0.3903561E+000  0.1764875E+03  0.7546771E-02  0.1171246E+00
         21   -1    0    0  501  502  0.00000000000E+00  0.00000000000E+00  0.36194889331E+03  0.36194889331E+03  0.00000000000E+00 0.  1.
         21   -1    0    0  502  503 -0.00000000000E+00 -0.00000000000E+00 -0.90359169663E+02  0.90359169663E+02  0.00000000000E+00 0.  1.
          6    1    1    2  501    0 -0.16429971760E+02  0.30804172167E+02  0.86441464963E+02  0.19651963734E+03  0.17300000000E+03 0.  1.
         -6    1    1    2    0  503  0.16429971760E+02 -0.30804172167E+02  0.18514825868E+03  0.25578842563E+03  0.17300000000E+03 0.  1.
<mgrwt>
<rscale>  2 0.17648751E+03</rscale>
<asrwt>0</asrwt>
<pdfrwt beam="1">  1       21 0.55684444E-01 0.17648751E+03</pdfrwt>
<pdfrwt beam="2">  1       21 0.13901411E-01 0.17648751E+03</pdfrwt>
<totfact> 0.13760330E+05</totfact>
</mgrwt>
</event>
<event>
 4    2  0.3903561E+000  0.1940540E+03  0.7546771E-02  0.1154855E+00
         21   -1    0    0  501  502  0.00000000000E+00  0.00000000000E+00  0.85418493771E+02  0.85418493771E+02  0.00000000000E+00 0. -1.
         21   -1    0    0  502  503 -0.00000000000E+00 -0.00000000000E+00 -0.10019664661E+04  0.10019664661E+04  0.00000000000E+00 0.  1.
          6    1    1    2  501    0 -0.55593137005E+02  0.68098153349E+02 -0.51407163737E+02  0.20074773188E+03  0.17300000000E+03 0. -1.
         -6    1    1    2    0  503  0.55593137005E+02 -0.68098153349E+02 -0.86514080864E+03  0.88663722804E+03  0.17300000000E+03 0.  1.
<mgrwt>
<rscale>  2 0.19405400E+03</rscale>
<asrwt>0</asrwt>
<pdfrwt beam="1">  1       21 0.13141308E-01 0.19405400E+03</pdfrwt>
<pdfrwt beam="2">  1       21 0.15414867E+00 0.19405400E+03</pdfrwt>
<totfact> 0.13850544E+04</totfact>
</mgrwt>
</event>
<event>
 4    2  0.3903561E+000  0.2641736E+03  0.7546771E-02  0.1104661E+00
         21   -1    0    0  503  502  0.00000000000E+00  0.00000000000E+00  0.16415344865E+04  0.16415344865E+04  0.00000000000E+00 0. -1.
         21   -1    0    0  501  503 -0.00000000000E+00 -0.00000000000E+00 -0.42676507968E+02  0.42676507968E+02  0.00000000000E+00 0. -1.
          6    1    1    2  501    0 -0.19365459220E+03 -0.48544587587E+02  0.85144433995E+03  0.89148479634E+03  0.17300000000E+03 0. -1.
         -6    1    1    2    0  502  0.19365459220E+03  0.48544587587E+02  0.74741363857E+03  0.79272619812E+03  0.17300000000E+03 0. -1.
<mgrwt>
<rscale>  2 0.26417358E+03</rscale>
<asrwt>0</asrwt>
<pdfrwt beam="1">  1       21 0.25254372E+00 0.26417358E+03</pdfrwt>
<pdfrwt beam="2">  1       21 0.65656179E-02 0.26417358E+03</pdfrwt>
<totfact> 0.10228717E+04</totfact>
</mgrwt>
</event>
<event>
 4    2  0.3903561E+000  0.2027705E+03  0.7546771E-02  0.1147422E+00
         21   -1    0    0  503  502  0.00000000000E+00  0.00000000000E+00  0.21810098064E+04  0.21810098064E+04  0.00000000000E+00 0. -1.
         21   -1    0    0  501  503 -0.00000000000E+00 -0.00000000000E+00 -0.59753961296E+02  0.59753961296E+02  0.00000000000E+00 0.  1.
          6    1    1    2  501    0 -0.72426004120E+02  0.77080061126E+02  0.13367837663E+03  0.24286986284E+03  0.17300000000E+03 0.  1.
         -6    1    1    2    0  502  0.72426004120E+02 -0.77080061126E+02  0.19875774685E+04  0.19978939049E+04  0.17300000000E+03 0. -1.
<mgrwt>
<rscale>  2 0.20277047E+03</rscale>
<asrwt>0</asrwt>
<pdfrwt beam="1">  1       21 0.33553991E+00 0.20277047E+03</pdfrwt>
<pdfrwt beam="2">  1       21 0.91929188E-02 0.20277047E+03</pdfrwt>
<totfact> 0.19743721E+03</totfact>
</mgrwt>
</event>
<event>
 4    2  0.3903561E+000  0.1736559E+03  0.7546771E-02  0.1174088E+00
         21   -1    0    0  503  502  0.00000000000E+00  0.00000000000E+00  0.39870190404E+03  0.39870190404E+03  0.00000000000E+00 0.  1.
         21   -1    0    0  501  503 -0.00000000000E+00 -0.00000000000E+00 -0.34601822961E+03  0.34601822961E+03  0.00000000000E+00 0.  1.
          6    1    1    2  501    0 -0.15077840430E+02  0.17795982890E+00 -0.30281461184E+03  0.34907457955E+03  0.17300000000E+03 0.  1.
         -6    1    1    2    0  502  0.15077840430E+02 -0.17795982890E+00  0.35549828627E+03  0.39564555411E+03  0.17300000000E+03 0.  1.
<mgrwt>
<rscale>  2 0.17365590E+03</rscale>
<asrwt>0</asrwt>
<pdfrwt beam="1">  1       21 0.61338755E-01 0.17365590E+03</pdfrwt>
<pdfrwt beam="2">  1       21 0.53233574E-01 0.17365590E+03</pdfrwt>
<totfact> 0.83726237E+03</totfact>
</mgrwt>
</event>
<event>
 4    2  0.3903561E+000  0.1787215E+03  0.7546771E-02  0.1169046E+00
         21   -1    0    0  501  502  0.00000000000E+00  0.00000000000E+00  0.28005827080E+03  0.28005827080E+03  0.00000000000E+00 0.  1.
         21   -1    0    0  502  503 -0.00000000000E+00 -0.00000000000E+00 -0.15563671578E+03  0.15563671578E+03  0.00000000000E+00 0.  1.
          6    1    1    2  501    0 -0.30175546322E+02  0.33193563574E+02  0.17481644012E+03  0.25000432795E+03  0.17300000000E+03 0.  1.
         -6    1    1    2    0  503  0.30175546322E+02 -0.33193563574E+02 -0.50394885098E+02  0.18569065863E+03  0.17300000000E+03 0.  1.
<mgrwt>
<rscale>  2 0.17872150E+03</rscale>
<asrwt>0</asrwt>
<pdfrwt beam="1">  1       21 0.43085888E-01 0.17872150E+03</pdfrwt>
<pdfrwt beam="2">  1       21 0.23944110E-01 0.17872150E+03</pdfrwt>
<totfact> 0.85651552E+04</totfact>
</mgrwt>
</event>
<event>
 4    2  0.3903561E+000  0.2696316E+03  0.7546771E-02  0.1101491E+00
         21   -1    0    0  503  502  0.00000000000E+00  0.00000000000E+00  0.12894481825E+03  0.12894481825E+03  0.00000000000E+00 0. -1.
         21   -1    0    0  501  503 -0.00000000000E+00 -0.00000000000E+00 -0.83542769882E+03  0.83542769882E+03  0.00000000000E+00 0.  1.
          6    1    1    2  501    0  0.14352983757E+03  0.14890058443E+03 -0.62817916926E+03  0.68360095598E+03  0.17300000000E+03 0.  1.
         -6    1    1    2    0  502 -0.14352983757E+03 -0.14890058443E+03 -0.78303711311E+02  0.28077156110E+03  0.17300000000E+03 0. -1.
<mgrwt>
<rscale>  2 0.26963160E+03</rscale>
<asrwt>0</asrwt>
<pdfrwt beam="1">  1       21 0.19837664E-01 0.26963160E+03</pdfrwt>
<pdfrwt beam="2">  1       21 0.12852734E+00 0.26963160E+03</pdfrwt>
<totfact> 0.99290493E+03</totfact>
</mgrwt>
</event>
<event>
 4    2  0.3903561E+000  0.1929084E+03  0.7546771E-02  0.1155864E+00
         21   -1    0    0  501  502  0.00000000000E+00  0.00000000000E+00  0.72542699929E+03  0.72542699929E+03  0.00000000000E+00 0.  1.
         21   -1    0    0  502  503 -0.00000000000E+00 -0.00000000000E+00 -0.51733136877E+02  0.51733136877E+02  0.00000000000E+00 0.  1.
          6    1    1    2  501    0  0.16611816165E+02 -0.83717963119E+02  0.30124856767E+03  0.35772104957E+03  0.17300000000E+03 0.  1.
         -6    1    1    2    0  503 -0.16611816165E+02  0.83717963119E+02  0.37244529474E+03  0.41943908659E+03  0.17300000000E+03 0.  1.
<mgrwt>
<rscale>  2 0.19290840E+03</rscale>
<asrwt>0</asrwt>
<pdfrwt beam="1">  1       21 0.11160415E+00 0.19290840E+03</pdfrwt>
<pdfrwt beam="2">  1       21 0.79589447E-02 0.19290840E+03</pdfrwt>
<totfact> 0.76348445E+04</totfact>
</mgrwt>
</event>
<event>
 4    2  0.3903561E+000  0.2145867E+03  0.7546771E-02  0.1137984E+00
         21   -1    0    0  501  502  0.00000000000E+00  0.00000000000E+00  0.27680752045E+03  0.27680752045E+03  0.00000000000E+00 0. -1.
         21   -1    0    0  502  503 -0.00000000000E+00 -0.00000000000E+00 -0.17268865732E+03  0.17268865732E+03  0.00000000000E+00 0.  1.
          6    1    1    2  501    0  0.19580704357E+02 -0.12543949379E+03  0.95111691335E+02  0.23472048146E+03  0.17300000000E+03 0. -1.
         -6    1    1    2    0  503 -0.19580704357E+02  0.12543949379E+03  0.90071717972E+01  0.21477569632E+03  0.17300000000E+03 0.  1.
<mgrwt>
<rscale>  2 0.21458674E+03</rscale>
<asrwt>0</asrwt>
<pdfrwt beam="1">  1       21 0.42585772E-01 0.21458674E+03</pdfrwt>
<pdfrwt beam="2">  1       21 0.26567486E-01 0.21458674E+03</pdfrwt>
<totfact> 0.70830154E+04</totfact>
</mgrwt>
</event>
<event>
 4    2  0.3903561E+000  0.2245926E+03  0.7546771E-02  0.1130505E+00
         21   -1    0    0  501  502  0.00000000000E+00  0.00000000000E+00  0.25610177076E+03  0.25610177076E+03  0.00000000000E+00 0.  1.
         21   -1    0    0  502  503 -0.00000000000E+00 -0.00000000000E+00 -0.41412860954E+03  0.41412860954E+03  0.00000000000E+00 0. -1.
          6    1    1    2  501    0  0.11124071460E+03 -0.90212649240E+02  0.16366154135E+03  0.27789731698E+03  0.17300000000E+03 0.  1.
         -6    1    1    2    0  503 -0.11124071460E+03  0.90212649240E+02 -0.32168838012E+03  0.39233306332E+03  0.17300000000E+03 0. -1.
<mgrwt>
<rscale>  2 0.22459256E+03</rscale>
<asrwt>0</asrwt>
<pdfrwt beam="1">  1       21 0.39400272E-01 0.22459256E+03</pdfrwt>
<pdfrwt beam="2">  1       21 0.63712094E-01 0.22459256E+03</pdfrwt>
<totfact> 0.13858221E+04</totfact>
</mgrwt>
</event>
<event>
 4    2  0.3903561E+000  0.1840596E+03  0.7546771E-02  0.1163931E+00
         21   -1    0    0  503  502  0.00000000000E+00  0.00000000000E+00  0.60328275725E+02  0.60328275725E+02  0.00000000000E+00 0. -1.
         21   -1    0    0  501  503 -0.00000000000E+00 -0.00000000000E+00 -0.60183476675E+03  0.60183476675E+03  0.00000000000E+00 0. -1.
          6    1    1    2  501    0 -0.62147825063E+02 -0.93048848213E+01 -0.18510587640E+03  0.26104045380E+03  0.17300000000E+03 0. -1.
         -6    1    1    2    0  502  0.62147825063E+02  0.93048848213E+01 -0.35640061462E+03  0.40112258867E+03  0.17300000000E+03 0. -1.
<mgrwt>
<rscale>  2 0.18405959E+03</rscale>
<asrwt>0</asrwt>
<pdfrwt beam="1">  1       21 0.92812731E-02 0.18405959E+03</pdfrwt>
<pdfrwt beam="2">  1       21 0.92589965E-01 0.18405959E+03</pdfrwt>
<totfact> 0.91351937E+04</totfact>
</mgrwt>
</event>
<event>
 4    2  0.3903561E+000  0.3489242E+03  0.7546771E-02  0.1063057E+00
         21   -1    0    0  503  502  0.00000000000E+00  0.00000000000E+00  0.18588685286E+03  0.18588685286E+03  0.00000000000E+00 0. -1.
         21   -1    0    0  501  503 -0.00000000000E+00 -0.00000000000E+00 -0.10722115254E+04  0.10722115254E+04  0.00000000000E+00 0. -1.
          6    1    1    2  501    0  0.43405314310E+01  0.30298558611E+03 -0.83557617153E+03  0.90550297848E+03  0.17300000000E+03 0. -1.
         -6    1    1    2    0  502 -0.43405314310E+01 -0.30298558611E+03 -0.50748501040E+02  0.35259539980E+03  0.17300000000E+03 0. -1.
<mgrwt>
<rscale>  2 0.34892421E+03</rscale>
<asrwt>0</asrwt>
<pdfrwt beam="1">  1       21 0.28597977E-01 0.34892421E+03</pdfrwt>
<pdfrwt beam="2">  1       21 0.16495562E+00 0.34892421E+03</pdfrwt>
<totfact> 0.24279322E+03</totfact>
</mgrwt>
</event>
<event>
 4    2  0.3903561E+000  0.1865604E+03  0.7546771E-02  0.1161601E+00
         21   -1    0    0  501  502  0.00000000000E+00  0.00000000000E+00  0.97073090792E+03  0.97073090792E+03  0.00000000000E+00 0. -1.
         21   -1    0    0  502  503 -0.00000000000E+00 -0.00000000000E+00 -0.37209854618E+02  0.37209854618E+02  0.00000000000E+00 0. -1.
          6    1    1    2  501    0 -0.34000686050E+02  0.60989512083E+02  0.37056548625E+03  0.41487774926E+03  0.17300000000E+03 0.  1.
         -6    1    1    2    0  503  0.34000686050E+02 -0.60989512083E+02  0.56295556706E+03  0.59306301328E+03  0.17300000000E+03 0.  1.
<mgrwt>
<rscale>  2 0.18656036E+03</rscale>
<asrwt>0</asrwt>
<pdfrwt beam="1">  1       21 0.14934320E+00 0.18656036E+03</pdfrwt>
<pdfrwt beam="2">  1       21 0.57245938E-02 0.18656036E+03</pdfrwt>
<totfact> 0.64814703E+04</totfact>
</mgrwt>
</event>
<event>
 4    2  0.3903561E+000  0.1755175E+03  0.7546771E-02  0.1172213E+00
         21   -1    0    0  503  502  0.00000000000E+00  0.00000000000E+00  0.13234872160E+03  0.13234872160E+03  0.00000000000E+00 0.  1.
         21   -1    0    0  501  503 -0.00000000000E+00 -0.00000000000E+00 -0.65596809062E+03  0.65596809062E+03  0.00000000000E+00 0.  1.
          6    1    1    2  501    0  0.29591617800E+02  0.13160053150E+01 -0.57840384463E+03  0.60444801530E+03  0.17300000000E+03 0.  1.
         -6    1    1    2    0  502 -0.29591617800E+02 -0.13160053150E+01  0.54784475617E+02  0.18386879692E+03  0.17300000000E+03 0.  1.
<mgrwt>
<rscale>  2 0.17551751E+03</rscale>
<asrwt>0</asrwt>
<pdfrwt beam="1">  1       21 0.20361342E-01 0.17551751E+03</pdfrwt>
<pdfrwt beam="2">  1       21 0.10091817E+00 0.17551751E+03</pdfrwt>
<totfact> 0.18129809E+04</totfact>
</mgrwt>
</event>
<event>
 4    2  0.3903561E+000  0.2477743E+03  0.7546771E-02  0.1114720E+00
         21   -1    0    0  503  502  0.00000000000E+00  0.00000000000E+00  0.53680634534E+02  0.53680634534E+02  0.00000000000E+00 0.  1.
         21   -1    0    0  501  503 -0.00000000000E+00 -0.00000000000E+00 -0.18984717932E+04  0.18984717932E+04  0.00000000000E+00 0.  1.
          6    1    1    2  501    0  0.44008845896E+02  0.17183230481E+03 -0.15378593132E+04  0.15576916854E+04  0.17300000000E+03 0.  1.
         -6    1    1    2    0  502 -0.44008845896E+02 -0.17183230481E+03 -0.30693184543E+03  0.39446074232E+03  0.17300000000E+03 0.  1.
<mgrwt>
<rscale>  2 0.24777433E+03</rscale>
<asrwt>0</asrwt>
<pdfrwt beam="1">  1       21 0.82585611E-02 0.24777433E+03</pdfrwt>
<pdfrwt beam="2">  1       21 0.29207252E+00 0.24777433E+03</pdfrwt>
<totfact> 0.40665487E+03</totfact>
</mgrwt>
</event>
<event>
 4    2  0.3903561E+000  0.2457362E+03  0.7546771E-02  0.1116029E+00
         21   -1    0    0  501  502  0.00000000000E+00  0.00000000000E+00  0.72795822982E+02  0.72795822982E+02  0.00000000000E+00 0.  1.
         21   -1    0    0  502  503 -0.00000000000E+00 -0.00000000000E+00 -0.89153911952E+03  0.89153911952E+03  0.00000000000E+00 0. -1.
          6    1    1    2  501    0 -0.17447921418E+03 -0.37776068574E+01 -0.53653384328E+03  0.59013119853E+03  0.17300000000E+03 0. -1.
         -6    1    1    2    0  503  0.17447921418E+03  0.37776068574E+01 -0.28220945326E+03  0.37420374397E+03  0.17300000000E+03 0.  1.
<mgrwt>
<rscale>  2 0.24573617E+03</rscale>
<asrwt>0</asrwt>
<pdfrwt beam="1">  1       21 0.11199358E-01 0.24573617E+03</pdfrwt>
<pdfrwt beam="2">  1       21 0.13715986E+00 0.24573617E+03</pdfrwt>
<totfact> 0.24279350E+04</totfact>
</mgrwt>
</event>
<event>
 4    2  0.3903561E+000  0.2081091E+03  0.7546771E-02  0.1143072E+00
         21   -1    0    0  501  502  0.00000000000E+00  0.00000000000E+00  0.78364732716E+02  0.78364732716E+02  0.00000000000E+00 0. -1.
         21   -1    0    0  502  503 -0.00000000000E+00 -0.00000000000E+00 -0.56271611835E+03  0.56271611835E+03  0.00000000000E+00 0. -1.
          6    1    1    2  501    0  0.84432921370E+02 -0.79066390888E+02 -0.19933521365E+03  0.28817345433E+03  0.17300000000E+03 0.  1.
         -6    1    1    2    0  503 -0.84432921370E+02  0.79066390888E+02 -0.28501617198E+03  0.35290739673E+03  0.17300000000E+03 0.  1.
<mgrwt>
<rscale>  2 0.20810914E+03</rscale>
<asrwt>0</asrwt>
<pdfrwt beam="1">  1       21 0.12056112E-01 0.20810914E+03</pdfrwt>
<pdfrwt beam="2">  1       21 0.86571713E-01 0.20810914E+03</pdfrwt>
<totfact> 0.66382568E+04</totfact>
</mgrwt>
</event>
<event>
 4    2  0.3903561E+000  0.3712647E+03  0.7546771E-02  0.1054210E+00
         21   -1    0    0  501  502  0.00000000000E+00  0.00000000000E+00  0.40307667396E+03  0.40307667396E+03  0.00000000000E+00 0.  1.
         21   -1    0    0  502  503 -0.00000000000E+00 -0.00000000000E+00 -0.58026168862E+03  0.58026168862E+03  0.00000000000E+00 0. -1.
          6    1    1    2  501    0 -0.22378698319E+03 -0.24047428532E+03  0.22648793122E+03  0.43489571018E+03  0.17300000000E+03 0.  1.
         -6    1    1    2    0  503  0.22378698319E+03  0.24047428532E+03 -0.40367294588E+03  0.54844265241E+03  0.17300000000E+03 0. -1.
<mgrwt>
<rscale>  2 0.37126472E+03</rscale>
<asrwt>0</asrwt>
<pdfrwt beam="1">  1       21 0.62011796E-01 0.37126472E+03</pdfrwt>
<pdfrwt beam="2">  1       21 0.89271029E-01 0.37126472E+03</pdfrwt>
<totfact> 0.23085483E+03</totfact>
</mgrwt>
</event>
<event>
 4    2  0.3903561E+000  0.2041891E+03  0.7546771E-02  0.1146252E+00
         21   -1    0    0  501  502  0.00000000000E+00  0.00000000000E+00  0.18900250909E+04  0.18900250909E+04  0.00000000000E+00 0.  1.
         21   -1    0    0  502  503 -0.00000000000E+00 -0.00000000000E+00 -0.22110774095E+02  0.22110774095E+02  0.00000000000E+00 0. -1.
          6    1    1    2  501    0 -0.69227725101E+02  0.83496719283E+02  0.88795788020E+03  0.91113246955E+03  0.17300000000E+03 0.  1.
         -6    1    1    2    0  503  0.69227725101E+02 -0.83496719283E+02  0.97995643658E+03  0.10010033954E+04  0.17300000000E+03 0.  1.
<mgrwt>
<rscale>  2 0.20418908E+03</rscale>
<asrwt>0</asrwt>
<pdfrwt beam="1">  1       21 0.29077296E+00 0.20418908E+03</pdfrwt>
<pdfrwt beam="2">  1       21 0.34016590E-02 0.20418908E+03</pdfrwt>
<totfact> 0.19596205E+04</totfact>
</mgrwt>
</event>
<event>
 4    2  0.3903561E+000  0.2466906E+03  0.7546771E-02  0.1115414E+00
         21   -1    0    0  501  502  0.00000000000E+00  0.00000000000E+00  0.97774848949E+03  0.97774848949E+03  0.00000000000E+00 0. -1.
         21   -1    0    0  502  503 -0.00000000000E+00 -0.00000000000E+00 -0.11479505767E+03  0.11479505767E+03  0.00000000000E+00 0.  1.
          6    1    1    2  501    0 -0.17440957838E+03  0.22550606251E+02  0.80109164221E+03  0.83821479950E+03  0.17300000000E+03 0. -1.
         -6    1    1    2    0  503  0.17440957838E+03 -0.22550606251E+02  0.61861789615E+02  0.25432874766E+03  0.17300000000E+03 0.  1.
<mgrwt>
<rscale>  2 0.24669056E+03</rscale>
<asrwt>0</asrwt>
<pdfrwt beam="1">  1       21 0.15042284E+00 0.24669056E+03</pdfrwt>
<pdfrwt beam="2">  1       21 0.17660779E-01 0.24669056E+03</pdfrwt>
<totfact> 0.83036358E+03</totfact>
</mgrwt>
</event>
<event>
 4    2  0.3903561E+000  0.2069256E+03  0.7546771E-02  0.1144024E+00
         21   -1    0    0  501  502  0.00000000000E+00  0.00000000000E+00  0.16251311383E+03  0.16251311383E+03  0.00000000000E+00 0. -1.
         21   -1    0    0  502  503 -0.00000000000E+00 -0.00000000000E+00 -0.26398269473E+03  0.26398269473E+03  0.00000000000E+00 0. -1.
          6    1    1    2  501    0 -0.10192264494E+02  0.11307213520E+03 -0.60083974763E+02  0.21547221175E+03  0.17300000000E+03 0. -1.
         -6    1    1    2    0  503  0.10192264494E+02 -0.11307213520E+03 -0.41385606138E+02  0.21102359681E+03  0.17300000000E+03 0. -1.
<mgrwt>
<rscale>  2 0.20692557E+03</rscale>
<asrwt>0</asrwt>
<pdfrwt beam="1">  1       21 0.25002018E-01 0.20692557E+03</pdfrwt>
<pdfrwt beam="2">  1       21 0.40612722E-01 0.20692557E+03</pdfrwt>
<totfact> 0.87935341E+04</totfact>
</mgrwt>
</event>
<event>
 4    2  0.3903561E+000  0.2745351E+03  0.7546771E-02  0.1098712E+00
         21   -1    0    0  501  502  0.00000000000E+00  0.00000000000E+00  0.14545789237E+04  0.14545789237E+04  0.00000000000E+00 0.  1.
         21   -1    0    0  502  503 -0.00000000000E+00 -0.00000000000E+00 -0.54796454516E+02  0.54796454516E+02  0.00000000000E+00 0.  1.
          6    1    1    2  501    0  0.17756764346E+03  0.11794180103E+03  0.87591796224E+03  0.91793344694E+03  0.17300000000E+03 0.  1.
         -6    1    1    2    0  503 -0.17756764346E+03 -0.11794180103E+03  0.52386450693E+03  0.59144193127E+03  0.17300000000E+03 0.  1.
<mgrwt>
<rscale>  2 0.27453513E+03</rscale>
<asrwt>0</asrwt>
<pdfrwt beam="1">  1       21 0.22378134E+00 0.27453513E+03</pdfrwt>
<pdfrwt beam="2">  1       21 0.84302249E-02 0.27453513E+03</pdfrwt>
<totfact> 0.98154283E+03</totfact>
</mgrwt>
</event>
<event>
 4    2  0.3903561E+000  0.1862829E+03  0.7546771E-02  0.1161857E+00
         21   -1    0    0  501  502  0.00000000000E+00  0.00000000000E+00  0.10655414901E+04  0.10655414901E+04  0.00000000000E+00 0. -1.
         21   -1    0    0  502  503 -0.00000000000E+00 -0.00000000000E+00 -0.32790690799E+02  0.32790690799E+02  0.00000000000E+00 0.  1.
          6    1    1    2  501    0 -0.33966104634E+02  0.60154841320E+02  0.47099961359E+03  0.50649969121E+03  0.17300000000E+03 0. -1.
         -6    1    1    2    0  503  0.33966104634E+02 -0.60154841320E+02  0.56175118572E+03  0.59183248970E+03  0.17300000000E+03 0. -1.
<mgrwt>
<rscale>  2 0.18628285E+03</rscale>
<asrwt>0</asrwt>
<pdfrwt beam="1">  1       21 0.16392943E+00 0.18628285E+03</pdfrwt>
<pdfrwt beam="2">  1       21 0.50447225E-02 0.18628285E+03</pdfrwt>
<totfact> 0.62668885E+04</totfact>
</mgrwt>
</event>
<event>
 4    2  0.3903561E+000  0.2193016E+03  0.7546771E-02  0.1134405E+00
         21   -1    0    0  503  502  0.00000000000E+00  0.00000000000E+00  0.11134064822E+03  0.11134064822E+03  0.00000000000E+00 0.  1.
         21   -1    0    0  501  503 -0.00000000000E+00 -0.00000000000E+00 -0.15529955406E+04  0.15529955406E+04  0.00000000000E+00 0. -1.
          6    1    1    2  501    0  0.13320241493E+03 -0.20525934704E+02 -0.14278581475E+04  0.14446010129E+04  0.17300000000E+03 0. -1.
         -6    1    1    2    0  502 -0.13320241493E+03  0.20525934704E+02 -0.13796744902E+02  0.21973517586E+03  0.17300000000E+03 0.  1.
<mgrwt>
<rscale>  2 0.21930161E+03</rscale>
<asrwt>0</asrwt>
<pdfrwt beam="1">  1       21 0.17129332E-01 0.21930161E+03</pdfrwt>
<pdfrwt beam="2">  1       21 0.23892238E+00 0.21930161E+03</pdfrwt>
<totfact> 0.23129958E+03</totfact>
</mgrwt>
</event>
<event>
 4    2  0.3903561E+000  0.1732591E+03  0.7546771E-02  0.1174491E+00
         21   -1    0    0  503  502  0.00000000000E+00  0.00000000000E+00  0.78109836482E+02  0.78109836482E+02  0.00000000000E+00 0.  1.
         21   -1    0    0  501  503 -0.00000000000E+00 -0.00000000000E+00 -0.48556474736E+03  0.48556474736E+03  0.00000000000E+00 0.  1.
          6    1    1    2  501    0 -0.94691986981E+01  0.19127522732E+00 -0.33242611976E+03  0.37486774655E+03  0.17300000000E+03 0.  1.
         -6    1    1    2    0  502  0.94691986981E+01 -0.19127522732E+00 -0.75028791124E+02  0.18880683729E+03  0.17300000000E+03 0.  1.
<mgrwt>
<rscale>  2 0.17325906E+03</rscale>
<asrwt>0</asrwt>
<pdfrwt beam="1">  1       21 0.12016898E-01 0.17325906E+03</pdfrwt>
<pdfrwt beam="2">  1       21 0.74702268E-01 0.17325906E+03</pdfrwt>
<totfact> 0.94632481E+04</totfact>
</mgrwt>
</event>
<event>
 4    2  0.3903561E+000  0.2238450E+03  0.7546771E-02  0.1131048E+00
         21   -1    0    0  501  502  0.00000000000E+00  0.00000000000E+00  0.10194274184E+04  0.10194274184E+04  0.00000000000E+00 0.  1.
         21   -1    0    0  502  503 -0.00000000000E+00 -0.00000000000E+00 -0.51915458699E+02  0.51915458699E+02  0.00000000000E+00 0.  1.
          6    1    1    2  501    0 -0.13805480681E+03 -0.33443555312E+02  0.60735055243E+03  0.64728764441E+03  0.17300000000E+03 0.  1.
         -6    1    1    2    0  503  0.13805480681E+03  0.33443555312E+02  0.36016140723E+03  0.42405523264E+03  0.17300000000E+03 0.  1.
<mgrwt>
<rscale>  2 0.22384504E+03</rscale>
<asrwt>0</asrwt>
<pdfrwt beam="1">  1       21 0.15683497E+00 0.22384504E+03</pdfrwt>
<pdfrwt beam="2">  1       21 0.79869944E-02 0.22384504E+03</pdfrwt>
<totfact> 0.31360574E+04</totfact>
</mgrwt>
</event>
<event>
 4    2  0.3903561E+000  0.1762487E+03  0.7546771E-02  0.1171484E+00
         21   -1    0    0  503  502  0.00000000000E+00  0.00000000000E+00  0.11299114341E+03  0.11299114341E+03  0.00000000000E+00 0.  1.
         21   -1    0    0  501  503 -0.00000000000E+00 -0.00000000000E+00 -0.29824963079E+03  0.29824963079E+03  0.00000000000E+00 0.  1.
          6    1    1    2  501    0 -0.22653457579E+02 -0.24928392754E+02 -0.15013663404E+03  0.23152669995E+03  0.17300000000E+03 0.  1.
         -6    1    1    2    0  502  0.22653457579E+02  0.24928392754E+02 -0.35121853332E+02  0.17971407426E+03  0.17300000000E+03 0.  1.
<mgrwt>
<rscale>  2 0.17624870E+03</rscale>
<asrwt>0</asrwt>
<pdfrwt beam="1">  1       21 0.17383253E-01 0.17624870E+03</pdfrwt>
<pdfrwt beam="2">  1       21 0.45884558E-01 0.17624870E+03</pdfrwt>
<totfact> 0.13707619E+05</totfact>
</mgrwt>
</event>
<event>
 4    2  0.3903561E+000  0.2306201E+03  0.7546771E-02  0.1126204E+00
         21   -1    0    0  501  502  0.00000000000E+00  0.00000000000E+00  0.13424932287E+03  0.13424932287E+03  0.00000000000E+00 0. -1.
         21   -1    0    0  502  503 -0.00000000000E+00 -0.00000000000E+00 -0.39638726722E+03  0.39638726722E+03  0.00000000000E+00 0. -1.
          6    1    1    2  501    0 -0.65201750143E+02 -0.13785997642E+03 -0.13727130715E+03  0.26838228907E+03  0.17300000000E+03 0. -1.
         -6    1    1    2    0  503  0.65201750143E+02  0.13785997642E+03 -0.12486663719E+03  0.26225430102E+03  0.17300000000E+03 0. -1.
<mgrwt>
<rscale>  2 0.23062012E+03</rscale>
<asrwt>0</asrwt>
<pdfrwt beam="1">  1       21 0.20653742E-01 0.23062012E+03</pdfrwt>
<pdfrwt beam="2">  1       21 0.60982656E-01 0.23062012E+03</pdfrwt>
<totfact> 0.53446454E+04</totfact>
</mgrwt>
</event>
<event>
 4    2  0.3903561E+000  0.2308837E+03  0.7546771E-02  0.1126019E+00
         21   -1    0    0  501  502  0.00000000000E+00  0.00000000000E+00  0.10372200393E+04  0.10372200393E+04  0.00000000000E+00 0.  1.
         21   -1    0    0  502  503 -0.00000000000E+00 -0.00000000000E+00 -0.19412204291E+03  0.19412204291E+03  0.00000000000E+00 0.  1.
          6    1    1    2  501    0  0.10225514762E+03  0.11367567077E+03  0.94946568306E+03  0.97713476892E+03  0.17300000000E+03 0.  1.
         -6    1    1    2    0  503 -0.10225514762E+03 -0.11367567077E+03 -0.10636768669E+03  0.25420731325E+03  0.17300000000E+03 0.  1.
<mgrwt>
<rscale>  2 0.23088368E+03</rscale>
<asrwt>0</asrwt>
<pdfrwt beam="1">  1       21 0.15957231E+00 0.23088368E+03</pdfrwt>
<pdfrwt beam="2">  1       21 0.29864930E-01 0.23088368E+03</pdfrwt>
<totfact> 0.26354631E+03</totfact>
</mgrwt>
</event>
<event>
 4    2  0.3903561E+000  0.2077308E+03  0.7546771E-02  0.1143376E+00
         21   -1    0    0  503  502  0.00000000000E+00  0.00000000000E+00  0.45726050009E+03  0.45726050009E+03  0.00000000000E+00 0. -1.
         21   -1    0    0  501  503 -0.00000000000E+00 -0.00000000000E+00 -0.94371535311E+02  0.94371535311E+02  0.00000000000E+00 0.  1.
          6    1    1    2  501    0 -0.96475871105E+02  0.62574016537E+02  0.18074924298E+03  0.27535865719E+03  0.17300000000E+03 0. -1.
         -6    1    1    2    0  502  0.96475871105E+02 -0.62574016537E+02  0.18213972179E+03  0.27627337820E+03  0.17300000000E+03 0.  1.
<mgrwt>
<rscale>  2 0.20773084E+03</rscale>
<asrwt>0</asrwt>
<pdfrwt beam="1">  1       21 0.70347768E-01 0.20773084E+03</pdfrwt>
<pdfrwt beam="2">  1       21 0.14518698E-01 0.20773084E+03</pdfrwt>
<totfact> 0.75780740E+04</totfact>
</mgrwt>
</event>
<event>
 4    2  0.3903561E+000  0.1760028E+03  0.7546771E-02  0.1171729E+00
         21   -1    0    0  503  502  0.00000000000E+00  0.00000000000E+00  0.48875183164E+03  0.48875183164E+03  0.00000000000E+00 0. -1.
         21   -1    0    0  501  503 -0.00000000000E+00 -0.00000000000E+00 -0.66105918231E+02  0.66105918231E+02  0.00000000000E+00 0. -1.
          6    1    1    2  501    0 -0.31006477702E+02 -0.93044918021E+01  0.15498426145E+03  0.23451459768E+03  0.17300000000E+03 0. -1.
         -6    1    1    2    0  502  0.31006477702E+02  0.93044918021E+01  0.26766165196E+03  0.32034315220E+03  0.17300000000E+03 0. -1.
<mgrwt>
<rscale>  2 0.17600277E+03</rscale>
<asrwt>0</asrwt>
<pdfrwt beam="1">  1       21 0.75192587E-01 0.17600277E+03</pdfrwt>
<pdfrwt beam="2">  1       21 0.10170142E-01 0.17600277E+03</pdfrwt>
<totfact> 0.12526722E+05</totfact>
</mgrwt>
</event>
<event>
 4    2  0.3903561E+000  0.2361461E+03  0.7546771E-02  0.1122387E+00
         21   -1    0    0  503  502  0.00000000000E+00  0.00000000000E+00  0.13207974108E+04  0.13207974108E+04  0.00000000000E+00 0.  1.
         21   -1    0    0  501  503 -0.00000000000E+00 -0.00000000000E+00 -0.13469262065E+03  0.13469262065E+03  0.00000000000E+00 0. -1.
          6    1    1    2  501    0  0.12874861602E+03  0.96227649034E+02 -0.99406751667E+01  0.23635520639E+03  0.17300000000E+03 0. -1.
         -6    1    1    2    0  502 -0.12874861602E+03 -0.96227649034E+02  0.11960454653E+04  0.12191348250E+04  0.17300000000E+03 0.  1.
<mgrwt>
<rscale>  2 0.23614607E+03</rscale>
<asrwt>0</asrwt>
<pdfrwt beam="1">  1       21 0.20319959E+00 0.23614607E+03</pdfrwt>
<pdfrwt beam="2">  1       21 0.20721942E-01 0.23614607E+03</pdfrwt>
<totfact> 0.26570020E+03</totfact>
</mgrwt>
</event>
<event>
 4    2  0.3903561E+000  0.1934201E+03  0.7546771E-02  0.1155412E+00
         21   -1    0    0  501  502  0.00000000000E+00  0.00000000000E+00  0.27880649182E+03  0.27880649182E+03  0.00000000000E+00 0. -1.
         21   -1    0    0  502  503 -0.00000000000E+00 -0.00000000000E+00 -0.13647781555E+03  0.13647781555E+03  0.00000000000E+00 0. -1.
          6    1    1    2  501    0  0.86337723895E+02 -0.53034634208E+01  0.98084499772E+02  0.21686838955E+03  0.17300000000E+03 0. -1.
         -6    1    1    2    0  503 -0.86337723895E+02  0.53034634208E+01  0.44244176494E+02  0.19841591782E+03  0.17300000000E+03 0. -1.
<mgrwt>
<rscale>  2 0.19342009E+03</rscale>
<asrwt>0</asrwt>
<pdfrwt beam="1">  1       21 0.42893306E-01 0.19342009E+03</pdfrwt>
<pdfrwt beam="2">  1       21 0.20996587E-01 0.19342009E+03</pdfrwt>
<totfact> 0.11013692E+05</totfact>
</mgrwt>
</event>
<event>
 4    2  0.3903561E+000  0.1812815E+03  0.7546771E-02  0.1166569E+00
         21   -1    0    0  501  502  0.00000000000E+00  0.00000000000E+00  0.67221533767E+03  0.67221533767E+03  0.00000000000E+00 0.  1.
         21   -1    0    0  502  503 -0.00000000000E+00 -0.00000000000E+00 -0.76040662085E+02  0.76040662085E+02  0.00000000000E+00 0.  1.
          6    1    1    2  501    0  0.53765162397E+02  0.65794807350E+01  0.52165388515E+03  0.55225515674E+03  0.17300000000E+03 0.  1.
         -6    1    1    2    0  503 -0.53765162397E+02 -0.65794807350E+01  0.74520790430E+02  0.19600084301E+03  0.17300000000E+03 0.  1.
<mgrwt>
<rscale>  2 0.18128150E+03</rscale>
<asrwt>0</asrwt>
<pdfrwt beam="1">  1       21 0.10341774E+00 0.18128150E+03</pdfrwt>
<pdfrwt beam="2">  1       21 0.11698564E-01 0.18128150E+03</pdfrwt>
<totfact> 0.46802684E+04</totfact>
</mgrwt>
</event>
<event>
 4    2  0.3903561E+000  0.2298150E+03  0.7546771E-02  0.1126770E+00
         21   -1    0    0  501  502  0.00000000000E+00  0.00000000000E+00  0.79587911474E+03  0.79587911474E+03  0.00000000000E+00 0.  1.
         21   -1    0    0  502  503 -0.00000000000E+00 -0.00000000000E+00 -0.70561881310E+02  0.70561881310E+02  0.00000000000E+00 0.  1.
          6    1    1    2  501    0 -0.49651486157E+02  0.14290092289E+03  0.25694779187E+03  0.34472759040E+03  0.17300000000E+03 0.  1.
         -6    1    1    2    0  503  0.49651486157E+02 -0.14290092289E+03  0.46836944157E+03  0.52171340565E+03  0.17300000000E+03 0.  1.
<mgrwt>
<rscale>  2 0.22981502E+03</rscale>
<asrwt>0</asrwt>
<pdfrwt beam="1">  1       21 0.12244293E+00 0.22981502E+03</pdfrwt>
<pdfrwt beam="2">  1       21 0.10855675E-01 0.22981502E+03</pdfrwt>
<totfact> 0.34529669E+04</totfact>
</mgrwt>
</event>
<event>
 4    2  0.3903561E+000  0.1860889E+03  0.7546771E-02  0.1162037E+00
         21   -1    0    0  503  502  0.00000000000E+00  0.00000000000E+00  0.10704218184E+03  0.10704218184E+03  0.00000000000E+00 0.  1.
         21   -1    0    0  501  503 -0.00000000000E+00 -0.00000000000E+00 -0.87680452178E+03  0.87680452178E+03  0.00000000000E+00 0. -1.
          6    1    1    2  501    0  0.63107468742E+02 -0.26786944402E+02 -0.77565429301E+03  0.79766451298E+03  0.17300000000E+03 0. -1.
         -6    1    1    2    0  502 -0.63107468742E+02  0.26786944402E+02  0.58919530737E+01  0.18618219064E+03  0.17300000000E+03 0.  1.
<mgrwt>
<rscale>  2 0.18608894E+03</rscale>
<asrwt>0</asrwt>
<pdfrwt beam="1">  1       21 0.16468027E-01 0.18608894E+03</pdfrwt>
<pdfrwt beam="2">  1       21 0.13489301E+00 0.18608894E+03</pdfrwt>
<totfact> 0.13079096E+04</totfact>
</mgrwt>
</event>
<event>
 4    2  0.3903561E+000  0.1735383E+03  0.7546771E-02  0.1174207E+00
         21   -1    0    0  503  502  0.00000000000E+00  0.00000000000E+00  0.48135886831E+03  0.48135886831E+03  0.00000000000E+00 0.  1.
         21   -1    0    0  501  503 -0.00000000000E+00 -0.00000000000E+00 -0.75967084753E+02  0.75967084753E+02  0.00000000000E+00 0.  1.
          6    1    1    2  501    0 -0.11970793518E+02 -0.65770953806E+01  0.85644948073E+02  0.19352161433E+03  0.17300000000E+03 0. -1.
         -6    1    1    2    0  502  0.11970793518E+02  0.65770953806E+01  0.31974683548E+03  0.36380433873E+03  0.17300000000E+03 0. -1.
<mgrwt>
<rscale>  2 0.17353835E+03</rscale>
<asrwt>0</asrwt>
<pdfrwt beam="1">  1       21 0.74055209E-01 0.17353835E+03</pdfrwt>
<pdfrwt beam="2">  1       21 0.11687244E-01 0.17353835E+03</pdfrwt>
<totfact> 0.10137393E+05</totfact>
</mgrwt>
</event>
<event>
 4    2  0.3903561E+000  0.2018963E+03  0.7546771E-02  0.1148149E+00
         21   -1    0    0  501  502  0.00000000000E+00  0.00000000000E+00  0.13708917134E+04  0.13708917134E+04  0.00000000000E+00 0.  1.
         21   -1    0    0  502  503 -0.00000000000E+00 -0.00000000000E+00 -0.98015499241E+02  0.98015499241E+02  0.00000000000E+00 0.  1.
          6    1    1    2  501    0 -0.24385553654E+02 -0.10118536976E+03  0.12494493230E+04  0.12656562507E+04  0.17300000000E+03 0.  1.
         -6    1    1    2    0  503  0.24385553654E+02  0.10118536976E+03  0.23426891140E+02  0.20325096189E+03  0.17300000000E+03 0.  1.
<mgrwt>
<rscale>  2 0.20189635E+03</rscale>
<asrwt>0</asrwt>
<pdfrwt beam="1">  1       21 0.21090640E+00 0.20189635E+03</pdfrwt>
<pdfrwt beam="2">  1       21 0.15079309E-01 0.20189635E+03</pdfrwt>
<totfact> 0.44109429E+03</totfact>
</mgrwt>
</event>
<event>
 4    2  0.3903561E+000  0.1845134E+03  0.7546771E-02  0.1163505E+00
         21   -1    0    0  503  502  0.00000000000E+00  0.00000000000E+00  0.16176797676E+03  0.16176797676E+03  0.00000000000E+00 0. -1.
         21   -1    0    0  501  503 -0.00000000000E+00 -0.00000000000E+00 -0.21696168887E+03  0.21696168887E+03  0.00000000000E+00 0. -1.
          6    1    1    2  501    0 -0.24855254212E+02 -0.59147378815E+02 -0.60385428698E+02  0.19414323599E+03  0.17300000000E+03 0. -1.
         -6    1    1    2    0  502  0.24855254212E+02  0.59147378815E+02  0.51917165876E+01  0.18458642963E+03  0.17300000000E+03 0. -1.
<mgrwt>
<rscale>  2 0.18451340E+03</rscale>
<asrwt>0</asrwt>
<pdfrwt beam="1">  1       21 0.24887381E-01 0.18451340E+03</pdfrwt>
<pdfrwt beam="2">  1       21 0.33378721E-01 0.18451340E+03</pdfrwt>
<totfact> 0.13242167E+05</totfact>
</mgrwt>
</event>
<event>
 4    2  0.3903561E+000  0.2163616E+03  0.7546771E-02  0.1136625E+00
         21   -1    0    0  503  502  0.00000000000E+00  0.00000000000E+00  0.43821199843E+02  0.43821199843E+02  0.00000000000E+00 0.  1.
         21   -1    0    0  501  503 -0.00000000000E+00 -0.00000000000E+00 -0.15368408723E+04  0.15368408723E+04  0.00000000000E+00 0.  1.
          6    1    1    2  501    0 -0.48453601317E+02  0.12056362893E+03 -0.31010669590E+03  0.37812498323E+03  0.17300000000E+03 0.  1.
         -6    1    1    2    0  502  0.48453601317E+02 -0.12056362893E+03 -0.11829129766E+04  0.12025370889E+04  0.17300000000E+03 0.  1.
<mgrwt>
<rscale>  2 0.21636160E+03</rscale>
<asrwt>0</asrwt>
<pdfrwt beam="1">  1       21 0.67417226E-02 0.21636160E+03</pdfrwt>
<pdfrwt beam="2">  1       21 0.23643707E+00 0.21636160E+03</pdfrwt>
<totfact> 0.12651905E+04</totfact>
</mgrwt>
</event>
<event>
 4    2  0.3903561E+000  0.2062775E+03  0.7546771E-02  0.1144548E+00
         21   -1    0    0  503  502  0.00000000000E+00  0.00000000000E+00  0.19335612877E+03  0.19335612877E+03  0.00000000000E+00 0.  1.
         21   -1    0    0  501  503 -0.00000000000E+00 -0.00000000000E+00 -0.49165980546E+03  0.49165980546E+03  0.00000000000E+00 0.  1.
          6    1    1    2  501    0  0.19318134361E+02 -0.11067163600E+03  0.10541462289E+03  0.23165198909E+03  0.17300000000E+03 0.  1.
         -6    1    1    2    0  502 -0.19318134361E+02  0.11067163600E+03 -0.40371829958E+03  0.45336394513E+03  0.17300000000E+03 0.  1.
<mgrwt>
<rscale>  2 0.20627749E+03</rscale>
<asrwt>0</asrwt>
<pdfrwt beam="1">  1       21 0.29747097E-01 0.20627749E+03</pdfrwt>
<pdfrwt beam="2">  1       21 0.75639970E-01 0.20627749E+03</pdfrwt>
<totfact> 0.16756811E+04</totfact>
</mgrwt>
</event>
<event>
 4    2  0.3903561E+000  0.1946345E+03  0.7546771E-02  0.1154346E+00
         21   -1    0    0  501  502  0.00000000000E+00  0.00000000000E+00  0.15445801555E+04  0.15445801555E+04  0.00000000000E+00 0.  1.
         21   -1    0    0  502  503 -0.00000000000E+00 -0.00000000000E+00 -0.24982403680E+02  0.24982403680E+02  0.00000000000E+00 0. -1.
          6    1    1    2  501    0  0.40425616380E+02  0.79494396960E+02  0.86585587333E+03  0.88746210228E+03  0.17300000000E+03 0. -1.
         -6    1    1    2    0  503 -0.40425616380E+02 -0.79494396960E+02  0.65374187846E+03  0.68210045687E+03  0.17300000000E+03 0.  1.
<mgrwt>
<rscale>  2 0.19463450E+03</rscale>
<asrwt>0</asrwt>
<pdfrwt beam="1">  1       21 0.23762764E+00 0.19463450E+03</pdfrwt>
<pdfrwt beam="2">  1       21 0.38434479E-02 0.19463450E+03</pdfrwt>
<totfact> 0.32923044E+04</totfact>
</mgrwt>
</event>
<event>
 4    2  0.3903561E+000  0.3316310E+03  0.7546771E-02  0.1070417E+00
         21   -1    0    0  503  502  0.00000000000E+00  0.00000000000E+00  0.52763452276E+03  0.52763452276E+03  0.00000000000E+00 0. -1.
         21   -1    0    0  501  503 -0.00000000000E+00 -0.00000000000E+00 -0.31121521131E+03  0.31121521131E+03  0.00000000000E+00 0.  1.
          6    1    1    2  501    0 -0.38476161400E+02 -0.28030291544E+03  0.34924013435E+03  0.48160960418E+03  0.17300000000E+03 0. -1.
         -6    1    1    2    0  502  0.38476161400E+02  0.28030291544E+03 -0.13282082290E+03  0.35724012988E+03  0.17300000000E+03 0.  1.
<mgrwt>
<rscale>  2 0.33163103E+03</rscale>
<asrwt>0</asrwt>
<pdfrwt beam="1">  1       21 0.81174542E-01 0.33163103E+03</pdfrwt>
<pdfrwt beam="2">  1       21 0.47879263E-01 0.33163103E+03</pdfrwt>
<totfact> 0.51064462E+03</totfact>
</mgrwt>
</event>
<event>
 4    2  0.3903561E+000  0.3305538E+03  0.7546771E-02  0.1070892E+00
         21   -1    0    0  501  502  0.00000000000E+00  0.00000000000E+00  0.25950571077E+03  0.25950571077E+03  0.00000000000E+00 0. -1.
         21   -1    0    0  502  503 -0.00000000000E+00 -0.00000000000E+00 -0.45243305270E+03  0.45243305270E+03  0.00000000000E+00 0.  1.
          6    1    1    2  501    0  0.28135423058E+03  0.13290114835E+02 -0.27165962916E+01  0.33056498622E+03  0.17300000000E+03 0. -1.
         -6    1    1    2    0  503 -0.28135423058E+03 -0.13290114835E+02 -0.19021074564E+03  0.38137377725E+03  0.17300000000E+03 0.  1.
<mgrwt>
<rscale>  2 0.33055382E+03</rscale>
<asrwt>0</asrwt>
<pdfrwt beam="1">  1       21 0.39923956E-01 0.33055382E+03</pdfrwt>
<pdfrwt beam="2">  1       21 0.69605085E-01 0.33055382E+03</pdfrwt>
<totfact> 0.10547641E+04</totfact>
</mgrwt>
</event>
<event>
 4    2  0.3903561E+000  0.1752974E+03  0.7546771E-02  0.1172433E+00
         21   -1    0    0  503  502  0.00000000000E+00  0.00000000000E+00  0.55335014362E+03  0.55335014362E+03  0.00000000000E+00 0.  1.
         21   -1    0    0  501  503 -0.00000000000E+00 -0.00000000000E+00 -0.55758005842E+02  0.55758005842E+02  0.00000000000E+00 0.  1.
          6    1    1    2  501    0  0.77578601946E+01  0.27202574210E+02  0.26814506416E+03  0.32036064033E+03  0.17300000000E+03 0.  1.
         -6    1    1    2    0  502 -0.77578601946E+01 -0.27202574210E+02  0.22944707361E+03  0.28874750913E+03  0.17300000000E+03 0.  1.
<mgrwt>
<rscale>  2 0.17529736E+03</rscale>
<asrwt>0</asrwt>
<pdfrwt beam="1">  1       21 0.85130788E-01 0.17529736E+03</pdfrwt>
<pdfrwt beam="2">  1       21 0.85781551E-02 0.17529736E+03</pdfrwt>
<totfact> 0.12768380E+05</totfact>
</mgrwt>
</event>
<event>
 4    2  0.3903561E+000  0.3080714E+03  0.7546771E-02  0.1081274E+00
         21   -1    0    0  501  502  0.00000000000E+00  0.00000000000E+00  0.18420766245E+03  0.18420766245E+03  0.00000000000E+00 0. -1.
         21   -1    0    0  502  503 -0.00000000000E+00 -0.00000000000E+00 -0.60988536521E+03  0.60988536521E+03  0.00000000000E+00 0. -1.
          6    1    1    2  501    0  0.20490500521E+03 -0.15163421926E+03 -0.36926389735E+03  0.48089897432E+03  0.17300000000E+03 0. -1.
         -6    1    1    2    0  503 -0.20490500521E+03  0.15163421926E+03 -0.56413805407E+02  0.31319405335E+03  0.17300000000E+03 0. -1.
<mgrwt>
<rscale>  2 0.30807142E+03</rscale>
<asrwt>0</asrwt>
<pdfrwt beam="1">  1       21 0.28339640E-01 0.30807142E+03</pdfrwt>
<pdfrwt beam="2">  1       21 0.93828520E-01 0.30807142E+03</pdfrwt>
<totfact> 0.10642409E+04</totfact>
</mgrwt>
</event>
<event>
 4    2  0.3903561E+000  0.2130657E+03  0.7546771E-02  0.1139161E+00
         21   -1    0    0  501  502  0.00000000000E+00  0.00000000000E+00  0.65929570618E+03  0.65929570618E+03  0.00000000000E+00 0. -1.
         21   -1    0    0  502  503 -0.00000000000E+00 -0.00000000000E+00 -0.70866542975E+02  0.70866542975E+02  0.00000000000E+00 0.  1.
          6    1    1    2  501    0  0.92787575090E+02  0.82815698081E+02  0.35569574409E+03  0.41462806984E+03  0.17300000000E+03 0. -1.
         -6    1    1    2    0  503 -0.92787575090E+02 -0.82815698081E+02  0.23273341912E+03  0.31553417931E+03  0.17300000000E+03 0.  1.
<mgrwt>
<rscale>  2 0.21306566E+03</rscale>
<asrwt>0</asrwt>
<pdfrwt beam="1">  1       21 0.10143010E+00 0.21306566E+03</pdfrwt>
<pdfrwt beam="2">  1       21 0.10902545E-01 0.21306566E+03</pdfrwt>
<totfact> 0.54703051E+04</totfact>
</mgrwt>
</event>
<event>
 4    2  0.3903561E+000  0.1902325E+03  0.7546771E-02  0.1158252E+00
         21   -1    0    0  503  502  0.00000000000E+00  0.00000000000E+00  0.83138116241E+03  0.83138116241E+03  0.00000000000E+00 0.  1.
         21   -1    0    0  501  503 -0.00000000000E+00 -0.00000000000E+00 -0.63244477922E+02  0.63244477922E+02  0.00000000000E+00 0.  1.
          6    1    1    2  501    0  0.23719007965E+02  0.75477169050E+02  0.13431331300E+03  0.23287005054E+03  0.17300000000E+03 0.  1.
         -6    1    1    2    0  502 -0.23719007965E+02 -0.75477169050E+02  0.63382337149E+03  0.66175558980E+03  0.17300000000E+03 0.  1.
<mgrwt>
<rscale>  2 0.19023247E+03</rscale>
<asrwt>0</asrwt>
<pdfrwt beam="1">  1       21 0.12790479E+00 0.19023247E+03</pdfrwt>
<pdfrwt beam="2">  1       21 0.97299203E-02 0.19023247E+03</pdfrwt>
<totfact> 0.38402263E+04</totfact>
</mgrwt>
</event>
<event>
 4    2  0.3903561E+000  0.2038797E+03  0.7546771E-02  0.1146506E+00
         21   -1    0    0  501  502  0.00000000000E+00  0.00000000000E+00  0.14501263763E+04  0.14501263763E+04  0.00000000000E+00 0.  1.
         21   -1    0    0  502  503 -0.00000000000E+00 -0.00000000000E+00 -0.30924515748E+02  0.30924515748E+02  0.00000000000E+00 0.  1.
          6    1    1    2  501    0  0.93088871673E+02  0.54519801338E+02  0.50940392999E+03  0.54868871927E+03  0.17300000000E+03 0.  1.
         -6    1    1    2    0  503 -0.93088871673E+02 -0.54519801338E+02  0.90979793054E+03  0.93236217276E+03  0.17300000000E+03 0.  1.
<mgrwt>
<rscale>  2 0.20387974E+03</rscale>
<asrwt>0</asrwt>
<pdfrwt beam="1">  1       21 0.22309631E+00 0.20387974E+03</pdfrwt>
<pdfrwt beam="2">  1       21 0.47576189E-02 0.20387974E+03</pdfrwt>
<totfact> 0.27937711E+04</totfact>
</mgrwt>
</event>
<event>
 4    2  0.3903561E+000  0.2699824E+03  0.7546771E-02  0.1101290E+00
         21   -1    0    0  501  502  0.00000000000E+00  0.00000000000E+00  0.24556808531E+03  0.24556808531E+03  0.00000000000E+00 0. -1.
         21   -1    0    0  502  503 -0.00000000000E+00 -0.00000000000E+00 -0.33430423941E+03  0.33430423941E+03  0.00000000000E+00 0. -1.
          6    1    1    2  501    0 -0.25734147017E+02  0.20566776725E+03 -0.14144884462E+03  0.30479214631E+03  0.17300000000E+03 0. -1.
         -6    1    1    2    0  503  0.25734147017E+02 -0.20566776725E+03  0.52712690511E+02  0.27508017840E+03  0.17300000000E+03 0. -1.
<mgrwt>
<rscale>  2 0.26998236E+03</rscale>
<asrwt>0</asrwt>
<pdfrwt beam="1">  1       21 0.37779706E-01 0.26998236E+03</pdfrwt>
<pdfrwt beam="2">  1       21 0.51431421E-01 0.26998236E+03</pdfrwt>
<totfact> 0.23339760E+04</totfact>
</mgrwt>
</event>
<event>
 4    2  0.3903561E+000  0.1765124E+03  0.7546771E-02  0.1171222E+00
         21   -1    0    0  501  502  0.00000000000E+00  0.00000000000E+00  0.16434167193E+03  0.16434167193E+03  0.00000000000E+00 0.  1.
         21   -1    0    0  502  503 -0.00000000000E+00 -0.00000000000E+00 -0.18977011498E+03  0.18977011498E+03  0.00000000000E+00 0.  1.
          6    1    1    2  501    0 -0.57647338050E+01 -0.34560120796E+02 -0.71768952715E+01  0.17665826313E+03  0.17300000000E+03 0. -1.
         -6    1    1    2    0  503  0.57647338050E+01  0.34560120796E+02 -0.18251547777E+02  0.17745352378E+03  0.17300000000E+03 0. -1.
<mgrwt>
<rscale>  2 0.17651242E+03</rscale>
<asrwt>0</asrwt>
<pdfrwt beam="1">  1       21 0.25283334E-01 0.17651242E+03</pdfrwt>
<pdfrwt beam="2">  1       21 0.29195402E-01 0.17651242E+03</pdfrwt>
<totfact> 0.16738039E+05</totfact>
</mgrwt>
</event>
<event>
 4    2  0.3903561E+000  0.1988557E+03  0.7546771E-02  0.1150708E+00
         21   -1    0    0  501  502  0.00000000000E+00  0.00000000000E+00  0.17397028593E+03  0.17397028593E+03  0.00000000000E+00 0. -1.
         21   -1    0    0  502  503 -0.00000000000E+00 -0.00000000000E+00 -0.25226067161E+03  0.25226067161E+03  0.00000000000E+00 0. -1.
          6    1    1    2  501    0 -0.86025609048E+01 -0.97675889609E+02  0.27891329918E+02  0.20080216570E+03  0.17300000000E+03 0. -1.
         -6    1    1    2    0  503  0.86025609048E+01  0.97675889609E+02 -0.10618171559E+03  0.22542879184E+03  0.17300000000E+03 0. -1.
<mgrwt>
<rscale>  2 0.19885569E+03</rscale>
<asrwt>0</asrwt>
<pdfrwt beam="1">  1       21 0.26764660E-01 0.19885569E+03</pdfrwt>
<pdfrwt beam="2">  1       21 0.38809334E-01 0.19885569E+03</pdfrwt>
<totfact> 0.84866312E+04</totfact>
</mgrwt>
</event>
<event>
 4    2  0.3903561E+000  0.2133724E+03  0.7546771E-02  0.1138923E+00
         21   -1    0    0  501  502  0.00000000000E+00  0.00000000000E+00  0.17294725202E+03  0.17294725202E+03  0.00000000000E+00 0. -1.
         21   -1    0    0  502  503 -0.00000000000E+00 -0.00000000000E+00 -0.75697797539E+03  0.75697797539E+03  0.00000000000E+00 0. -1.
          6    1    1    2  501    0  0.12311480053E+03 -0.21013016708E+02  0.83494815567E+02  0.22912700672E+03  0.17300000000E+03 0. -1.
         -6    1    1    2    0  503 -0.12311480053E+03  0.21013016708E+02 -0.66752553894E+03  0.70079822069E+03  0.17300000000E+03 0. -1.
<mgrwt>
<rscale>  2 0.21337245E+03</rscale>
<asrwt>0</asrwt>
<pdfrwt beam="1">  1       21 0.26607270E-01 0.21337245E+03</pdfrwt>
<pdfrwt beam="2">  1       21 0.11645815E+00 0.21337245E+03</pdfrwt>
<totfact> 0.75263618E+03</totfact>
</mgrwt>
</event>
<event>
 4    2  0.3903561E+000  0.1984950E+03  0.7546771E-02  0.1151015E+00
         21   -1    0    0  503  502  0.00000000000E+00  0.00000000000E+00  0.17102581476E+03  0.17102581476E+03  0.00000000000E+00 0.  1.
         21   -1    0    0  501  503 -0.00000000000E+00 -0.00000000000E+00 -0.29769704092E+03  0.29769704092E+03  0.00000000000E+00 0. -1.
          6    1    1    2  501    0 -0.50895927151E+02 -0.82950944721E+02 -0.17478407267E+03  0.26448010641E+03  0.17300000000E+03 0. -1.
         -6    1    1    2    0  502  0.50895927151E+02  0.82950944721E+02  0.48112846510E+02  0.20424274927E+03  0.17300000000E+03 0.  1.
<mgrwt>
<rscale>  2 0.19849497E+03</rscale>
<asrwt>0</asrwt>
<pdfrwt beam="1">  1       21 0.26311664E-01 0.19849497E+03</pdfrwt>
<pdfrwt beam="2">  1       21 0.45799545E-01 0.19849497E+03</pdfrwt>
<totfact> 0.62599389E+04</totfact>
</mgrwt>
</event>
<event>
 4    2  0.3903561E+000  0.2705173E+03  0.7546771E-02  0.1100984E+00
         21   -1    0    0  503  502  0.00000000000E+00  0.00000000000E+00  0.91571218541E+03  0.91571218541E+03  0.00000000000E+00 0.  1.
         21   -1    0    0  501  503 -0.00000000000E+00 -0.00000000000E+00 -0.19391517003E+03  0.19391517003E+03  0.00000000000E+00 0. -1.
          6    1    1    2  501    0 -0.12334923998E+03 -0.16743824094E+03 -0.64497156046E+02  0.27809977107E+03  0.17300000000E+03 0. -1.
         -6    1    1    2    0  502  0.12334923998E+03  0.16743824094E+03  0.78629417143E+03  0.83152758436E+03  0.17300000000E+03 0.  1.
<mgrwt>
<rscale>  2 0.27051728E+03</rscale>
<asrwt>0</asrwt>
<pdfrwt beam="1">  1       21 0.14087879E+00 0.27051728E+03</pdfrwt>
<pdfrwt beam="2">  1       21 0.29833104E-01 0.27051728E+03</pdfrwt>
<totfact> 0.35779530E+03</totfact>
</mgrwt>
</event>
<event>
 4    2  0.3903561E+000  0.1785034E+03  0.7546771E-02  0.1169259E+00
         21   -1    0    0  501  502  0.00000000000E+00  0.00000000000E+00  0.22689615769E+03  0.22689615769E+03  0.00000000000E+00 0. -1.
         21   -1    0    0  502  503 -0.00000000000E+00 -0.00000000000E+00 -0.14356643172E+03  0.14356643172E+03  0.00000000000E+00 0. -1.
          6    1    1    2  501    0  0.37712901034E+02 -0.22631649025E+02  0.14294819275E+02  0.17907483436E+03  0.17300000000E+03 0. -1.
         -6    1    1    2    0  503 -0.37712901034E+02  0.22631649025E+02  0.69034906701E+02  0.19138775506E+03  0.17300000000E+03 0. -1.
<mgrwt>
<rscale>  2 0.17850337E+03</rscale>
<asrwt>0</asrwt>
<pdfrwt beam="1">  1       21 0.34907101E-01 0.17850337E+03</pdfrwt>
<pdfrwt beam="2">  1       21 0.22087143E-01 0.17850337E+03</pdfrwt>
<totfact> 0.15226098E+05</totfact>
</mgrwt>
</event>
<event>
 4    2  0.3903561E+000  0.2078755E+03  0.7546771E-02  0.1143259E+00
         21   -1    0    0  501  502  0.00000000000E+00  0.00000000000E+00  0.35821917257E+03  0.35821917257E+03  0.00000000000E+00 0.  1.
         21   -1    0    0  502  503 -0.00000000000E+00 -0.00000000000E+00 -0.23677451771E+03  0.23677451771E+03  0.00000000000E+00 0. -1.
          6    1    1    2  501    0  0.95094759016E+02 -0.65117021761E+02  0.26908162267E+03  0.34002523344E+03  0.17300000000E+03 0.  1.
         -6    1    1    2    0  503 -0.95094759016E+02  0.65117021761E+02 -0.14763696781E+03  0.25496845683E+03  0.17300000000E+03 0. -1.
<mgrwt>
<rscale>  2 0.20787554E+03</rscale>
<asrwt>0</asrwt>
<pdfrwt beam="1">  1       21 0.55110642E-01 0.20787554E+03</pdfrwt>
<pdfrwt beam="2">  1       21 0.36426849E-01 0.20787554E+03</pdfrwt>
<totfact> 0.22374162E+04</totfact>
</mgrwt>
</event>
<event>
 4    2  0.3903561E+000  0.2004897E+03  0.7546771E-02  0.1149327E+00
         21   -1    0    0  503  502  0.00000000000E+00  0.00000000000E+00  0.24322255688E+03  0.24322255688E+03  0.00000000000E+00 0. -1.
         21   -1    0    0  501  503 -0.00000000000E+00 -0.00000000000E+00 -0.18601407976E+03  0.18601407976E+03  0.00000000000E+00 0.  1.
          6    1    1    2  501    0  0.10021835952E+03 -0.14946362617E+02 -0.43075430029E+02  0.20506488245E+03  0.17300000000E+03 0. -1.
         -6    1    1    2    0  502 -0.10021835952E+03  0.14946362617E+02  0.10028390715E+03  0.22417175418E+03  0.17300000000E+03 0. -1.
<mgrwt>
<rscale>  2 0.20048968E+03</rscale>
<asrwt>0</asrwt>
<pdfrwt beam="1">  1       21 0.37418855E-01 0.20048968E+03</pdfrwt>
<pdfrwt beam="2">  1       21 0.28617551E-01 0.20048968E+03</pdfrwt>
<totfact> 0.80179078E+04</totfact>
</mgrwt>
</event>
<event>
 4    2  0.3903561E+000  0.1830007E+03  0.7546771E-02  0.1164930E+00
         21   -1    0    0  501  502  0.00000000000E+00  0.00000000000E+00  0.24032844818E+02  0.24032844818E+02  0.00000000000E+00 0.  1.
         21   -1    0    0  502  503 -0.00000000000E+00 -0.00000000000E+00 -0.15119046864E+04  0.15119046864E+04  0.00000000000E+00 0. -1.
          6    1    1    2  501    0 -0.40553700761E+02  0.43768375478E+02 -0.95886918600E+03  0.97617590075E+03  0.17300000000E+03 0. -1.
         -6    1    1    2    0  503  0.40553700761E+02 -0.43768375478E+02 -0.52900265560E+03  0.55976163049E+03  0.17300000000E+03 0.  1.
<mgrwt>
<rscale>  2 0.18300075E+03</rscale>
<asrwt>0</asrwt>
<pdfrwt beam="1">  1       21 0.36973606E-02 0.18300075E+03</pdfrwt>
<pdfrwt beam="2">  1       21 0.23260073E+00 0.18300075E+03</pdfrwt>
<totfact> 0.37986936E+04</totfact>
</mgrwt>
</event>
<event>
 4    2  0.3903561E+000  0.2098392E+03  0.7546771E-02  0.1141693E+00
         21   -1    0    0  503  502  0.00000000000E+00  0.00000000000E+00  0.38502191942E+03  0.38502191942E+03  0.00000000000E+00 0. -1.
         21   -1    0    0  501  503 -0.00000000000E+00 -0.00000000000E+00 -0.12847411466E+03  0.12847411466E+03  0.00000000000E+00 0.  1.
          6    1    1    2  501    0  0.11289180883E+03 -0.36863630229E+02  0.43185394025E+02  0.21423693890E+03  0.17300000000E+03 0. -1.
         -6    1    1    2    0  502 -0.11289180883E+03  0.36863630229E+02  0.21336241073E+03  0.29925909518E+03  0.17300000000E+03 0.  1.
<mgrwt>
<rscale>  2 0.20983919E+03</rscale>
<asrwt>0</asrwt>
<pdfrwt beam="1">  1       21 0.59234141E-01 0.20983919E+03</pdfrwt>
<pdfrwt beam="2">  1       21 0.19765249E-01 0.20983919E+03</pdfrwt>
<totfact> 0.62358987E+04</totfact>
</mgrwt>
</event>
<event>
 4    2  0.3903561E+000  0.1754753E+03  0.7546771E-02  0.1172255E+00
         21   -1    0    0  503  502  0.00000000000E+00  0.00000000000E+00  0.15317128340E+03  0.15317128340E+03  0.00000000000E+00 0.  1.
         21   -1    0    0  501  503 -0.00000000000E+00 -0.00000000000E+00 -0.25874098440E+03  0.25874098440E+03  0.00000000000E+00 0.  1.
          6    1    1    2  501    0  0.16041493981E+02  0.24601979124E+02 -0.15005555782E+03  0.23088581017E+03  0.17300000000E+03 0.  1.
         -6    1    1    2    0  502 -0.16041493981E+02 -0.24601979124E+02  0.44485856815E+02  0.18102645763E+03  0.17300000000E+03 0.  1.
<mgrwt>
<rscale>  2 0.17547532E+03</rscale>
<asrwt>0</asrwt>
<pdfrwt beam="1">  1       21 0.23564813E-01 0.17547532E+03</pdfrwt>
<pdfrwt beam="2">  1       21 0.39806305E-01 0.17547532E+03</pdfrwt>
<totfact> 0.10377509E+05</totfact>
</mgrwt>
</event>
<event>
 4    2  0.3903561E+000  0.2933667E+03  0.7546771E-02  0.1088604E+00
         21   -1    0    0  503  502  0.00000000000E+00  0.00000000000E+00  0.36901669799E+02  0.36901669799E+02  0.00000000000E+00 0. -1.
         21   -1    0    0  501  503 -0.00000000000E+00 -0.00000000000E+00 -0.30991593421E+04  0.30991593421E+04  0.00000000000E+00 0.  1.
          6    1    1    2  501    0  0.13394704712E+02  0.23654942164E+03 -0.23111449770E+04  0.23296899261E+04  0.17300000000E+03 0.  1.
         -6    1    1    2    0  502 -0.13394704712E+02 -0.23654942164E+03 -0.75111269528E+03  0.80637108579E+03  0.17300000000E+03 0. -1.
<mgrwt>
<rscale>  2 0.29336674E+03</rscale>
<asrwt>0</asrwt>
<pdfrwt beam="1">  1       21 0.56771779E-02 0.29336674E+03</pdfrwt>
<pdfrwt beam="2">  1       21 0.47679392E+00 0.29336674E+03</pdfrwt>
<totfact> 0.52054852E+02</totfact>
</mgrwt>
</event>
<event>
 4    2  0.3903561E+000  0.1732706E+03  0.7546771E-02  0.1174479E+00
         21   -1    0    0  503  502  0.00000000000E+00  0.00000000000E+00  0.34774585061E+03  0.34774585061E+03  0.00000000000E+00 0.  1.
         21   -1    0    0  501  503 -0.00000000000E+00 -0.00000000000E+00 -0.95464017849E+02  0.95464017849E+02  0.00000000000E+00 0.  1.
          6    1    1    2  501    0  0.49670537733E+01  0.83085358476E+01  0.57613063017E+02  0.18259783247E+03  0.17300000000E+03 0. -1.
         -6    1    1    2    0  502 -0.49670537733E+01 -0.83085358476E+01  0.19466876974E+03  0.26061203599E+03  0.17300000000E+03 0. -1.
<mgrwt>
<rscale>  2 0.17327061E+03</rscale>
<asrwt>0</asrwt>
<pdfrwt beam="1">  1       21 0.53499361E-01 0.17327061E+03</pdfrwt>
<pdfrwt beam="2">  1       21 0.14686772E-01 0.17327061E+03</pdfrwt>
<totfact> 0.13569942E+05</totfact>
</mgrwt>
</event>
<event>
 4    2  0.3903561E+000  0.1752401E+03  0.7546771E-02  0.1172491E+00
         21   -1    0    0  501  502  0.00000000000E+00  0.00000000000E+00  0.24834554733E+03  0.24834554733E+03  0.00000000000E+00 0.  1.
         21   -1    0    0  502  503 -0.00000000000E+00 -0.00000000000E+00 -0.13439014337E+03  0.13439014337E+03  0.00000000000E+00 0.  1.
          6    1    1    2  501    0 -0.12450073058E+02  0.25001618080E+02  0.11106508614E+03  0.20747177781E+03  0.17300000000E+03 0.  1.
         -6    1    1    2    0  503  0.12450073058E+02 -0.25001618080E+02  0.28903178234E+01  0.17526391289E+03  0.17300000000E+03 0.  1.
<mgrwt>
<rscale>  2 0.17524008E+03</rscale>
<asrwt>0</asrwt>
<pdfrwt beam="1">  1       21 0.38207007E-01 0.17524008E+03</pdfrwt>
<pdfrwt beam="2">  1       21 0.20675407E-01 0.17524008E+03</pdfrwt>
<totfact> 0.14413069E+05</totfact>
</mgrwt>
</event>
<event>
 4    2  0.3903561E+000  0.3485953E+03  0.7546771E-02  0.1063193E+00
         21   -1    0    0  503  502  0.00000000000E+00  0.00000000000E+00  0.36906199873E+03  0.36906199873E+03  0.00000000000E+00 0. -1.
         21   -1    0    0  501  503 -0.00000000000E+00 -0.00000000000E+00 -0.33665663021E+03  0.33665663021E+03  0.00000000000E+00 0. -1.
          6    1    1    2  501    0 -0.48283618074E+02  0.29876140405E+03  0.68492737199E+02  0.35526038249E+03  0.17300000000E+03 0. -1.
         -6    1    1    2    0  502  0.48283618074E+02 -0.29876140405E+03 -0.36087368686E+02  0.35045824644E+03  0.17300000000E+03 0. -1.
<mgrwt>
<rscale>  2 0.34859530E+03</rscale>
<asrwt>0</asrwt>
<pdfrwt beam="1">  1       21 0.56778769E-01 0.34859530E+03</pdfrwt>
<pdfrwt beam="2">  1       21 0.51793328E-01 0.34859530E+03</pdfrwt>
<totfact> 0.95172156E+03</totfact>
</mgrwt>
</event>
<event>
 4    2  0.3903561E+000  0.2386144E+03  0.7546771E-02  0.1120719E+00
         21   -1    0    0  501  502  0.00000000000E+00  0.00000000000E+00  0.76172113435E+03  0.76172113435E+03  0.00000000000E+00 0.  1.
         21   -1    0    0  502  503 -0.00000000000E+00 -0.00000000000E+00 -0.77623682979E+02  0.77623682979E+02  0.00000000000E+00 0.  1.
          6    1    1    2  501    0  0.16178926575E+03  0.28845909060E+02  0.42283012882E+03  0.48551227669E+03  0.17300000000E+03 0.  1.
         -6    1    1    2    0  503 -0.16178926575E+03 -0.28845909060E+02  0.26126732255E+03  0.35383254064E+03  0.17300000000E+03 0.  1.
<mgrwt>
<rscale>  2 0.23861444E+03</rscale>
<asrwt>0</asrwt>
<pdfrwt beam="1">  1       21 0.11718786E+00 0.23861444E+03</pdfrwt>
<pdfrwt beam="2">  1       21 0.11942106E-01 0.23861444E+03</pdfrwt>
<totfact> 0.32328098E+04</totfact>
</mgrwt>
</event>
<event>
 4    2  0.3903561E+000  0.2775743E+03  0.7546771E-02  0.1097021E+00
         21   -1    0    0  501  502  0.00000000000E+00  0.00000000000E+00  0.85099182451E+03  0.85099182451E+03  0.00000000000E+00 0.  1.
         21   -1    0    0  502  503 -0.00000000000E+00 -0.00000000000E+00 -0.67319743561E+03  0.67319743561E+03  0.00000000000E+00 0.  1.
          6    1    1    2  501    0  0.21701310254E+03 -0.48793424126E+01  0.79789500348E+03  0.84479816005E+03  0.17300000000E+03 0.  1.
         -6    1    1    2    0  503 -0.21701310254E+03  0.48793424126E+01 -0.62010061458E+03  0.67939110007E+03  0.17300000000E+03 0.  1.
<mgrwt>
<rscale>  2 0.27757430E+03</rscale>
<asrwt>0</asrwt>
<pdfrwt beam="1">  1       21 0.13092182E+00 0.27757430E+03</pdfrwt>
<pdfrwt beam="2">  1       21 0.10356884E+00 0.27757430E+03</pdfrwt>
<totfact> 0.29437100E+02</totfact>
</mgrwt>
</event>
<event>
 4    2  0.3903561E+000  0.2500827E+03  0.7546771E-02  0.1113253E+00
         21   -1    0    0  501  502  0.00000000000E+00  0.00000000000E+00  0.50603267837E+03  0.50603267837E+03  0.00000000000E+00 0.  1.
         21   -1    0    0  502  503 -0.00000000000E+00 -0.00000000000E+00 -0.25379365185E+03  0.25379365185E+03  0.00000000000E+00 0.  1.
          6    1    1    2  501    0 -0.33860934827E+02 -0.17738602155E+03  0.39823481373E+03  0.47024709506E+03  0.17300000000E+03 0.  1.
         -6    1    1    2    0  503  0.33860934827E+02  0.17738602155E+03 -0.14599578721E+03  0.28957923515E+03  0.17300000000E+03 0.  1.
<mgrwt>
<rscale>  2 0.25008271E+03</rscale>
<asrwt>0</asrwt>
<pdfrwt beam="1">  1       21 0.77851181E-01 0.25008271E+03</pdfrwt>
<pdfrwt beam="2">  1       21 0.39045177E-01 0.25008271E+03</pdfrwt>
<totfact> 0.89153237E+03</totfact>
</mgrwt>
</event>
<event>
 4    2  0.3903561E+000  0.2215089E+03  0.7546771E-02  0.1132763E+00
         21   -1    0    0  501  502  0.00000000000E+00  0.00000000000E+00  0.25132496491E+03  0.25132496491E+03  0.00000000000E+00 0.  1.
         21   -1    0    0  502  503 -0.00000000000E+00 -0.00000000000E+00 -0.19805018985E+03  0.19805018985E+03  0.00000000000E+00 0.  1.
          6    1    1    2  501    0  0.10605113454E+03  0.88827716379E+02  0.53448841060E+02  0.22786615577E+03  0.17300000000E+03 0.  1.
         -6    1    1    2    0  503 -0.10605113454E+03 -0.88827716379E+02 -0.17406599519E+00  0.22150899899E+03  0.17300000000E+03 0.  1.
<mgrwt>
<rscale>  2 0.22150893E+03</rscale>
<asrwt>0</asrwt>
<pdfrwt beam="1">  1       21 0.38665379E-01 0.22150893E+03</pdfrwt>
<pdfrwt beam="2">  1       21 0.30469260E-01 0.22150893E+03</pdfrwt>
<totfact> 0.65841233E+04</totfact>
</mgrwt>
</event>
<event>
 4    2  0.3903561E+000  0.1896742E+03  0.7546771E-02  0.1158756E+00
         21   -1    0    0  501  502  0.00000000000E+00  0.00000000000E+00  0.27793181698E+03  0.27793181698E+03  0.00000000000E+00 0. -1.
         21   -1    0    0  502  503 -0.00000000000E+00 -0.00000000000E+00 -0.15151461856E+03  0.15151461856E+03  0.00000000000E+00 0.  1.
          6    1    1    2  501    0  0.69829287156E+01 -0.77450162620E+02  0.14516261084E+03  0.23884822078E+03  0.17300000000E+03 0. -1.
         -6    1    1    2    0  503 -0.69829287156E+01  0.77450162620E+02 -0.18745412416E+02  0.19059821476E+03  0.17300000000E+03 0.  1.
<mgrwt>
<rscale>  2 0.18967417E+03</rscale>
<asrwt>0</asrwt>
<pdfrwt beam="1">  1       21 0.42758741E-01 0.18967417E+03</pdfrwt>
<pdfrwt beam="2">  1       21 0.23309941E-01 0.18967417E+03</pdfrwt>
<totfact> 0.91141770E+04</totfact>
</mgrwt>
</event>
<event>
 4    2  0.3903561E+000  0.1921820E+03  0.7546771E-02  0.1156508E+00
         21   -1    0    0  503  502  0.00000000000E+00  0.00000000000E+00  0.21726488307E+03  0.21726488307E+03  0.00000000000E+00 0.  1.
         21   -1    0    0  501  503 -0.00000000000E+00 -0.00000000000E+00 -0.27295740404E+03  0.27295740404E+03  0.00000000000E+00 0.  1.
          6    1    1    2  501    0  0.66998474360E+02 -0.50160878729E+02 -0.17838743094E+03  0.26221362443E+03  0.17300000000E+03 0. -1.
         -6    1    1    2    0  502 -0.66998474360E+02  0.50160878729E+02  0.12269490998E+03  0.22800866268E+03  0.17300000000E+03 0. -1.
<mgrwt>
<rscale>  2 0.19218197E+03</rscale>
<asrwt>0</asrwt>
<pdfrwt beam="1">  1       21 0.33425367E-01 0.19218197E+03</pdfrwt>
<pdfrwt beam="2">  1       21 0.41993447E-01 0.19218197E+03</pdfrwt>
<totfact> 0.47061302E+04</totfact>
</mgrwt>
</event>
<event>
 4    2  0.3903561E+000  0.1934270E+03  0.7546771E-02  0.1155406E+00
         21   -1    0    0  503  502  0.00000000000E+00  0.00000000000E+00  0.26327472939E+03  0.26327472939E+03  0.00000000000E+00 0.  1.
         21   -1    0    0  501  503 -0.00000000000E+00 -0.00000000000E+00 -0.19204538939E+03  0.19204538939E+03  0.00000000000E+00 0.  1.
          6    1    1    2  501    0 -0.86133775506E+02  0.81220006821E+01 -0.80473710588E+02  0.20949943263E+03  0.17300000000E+03 0.  1.
         -6    1    1    2    0  502  0.86133775506E+02 -0.81220006821E+01  0.15170305059E+03  0.24582068615E+03  0.17300000000E+03 0.  1.
<mgrwt>
<rscale>  2 0.19342697E+03</rscale>
<asrwt>0</asrwt>
<pdfrwt beam="1">  1       21 0.40503805E-01 0.19342697E+03</pdfrwt>
<pdfrwt beam="2">  1       21 0.29545444E-01 0.19342697E+03</pdfrwt>
<totfact> 0.64454168E+04</totfact>
</mgrwt>
</event>
<event>
 4    2  0.3903561E+000  0.1734012E+03  0.7546771E-02  0.1174347E+00
         21   -1    0    0  501  502  0.00000000000E+00  0.00000000000E+00  0.53142476764E+02  0.53142476764E+02  0.00000000000E+00 0.  1.
         21   -1    0    0  502  503 -0.00000000000E+00 -0.00000000000E+00 -0.80577057420E+03  0.80577057420E+03  0.00000000000E+00 0.  1.
          6    1    1    2  501    0  0.10810629765E+02  0.47015669690E+01 -0.14194882885E+03  0.22409249086E+03  0.17300000000E+03 0.  1.
         -6    1    1    2    0  503 -0.10810629765E+02 -0.47015669690E+01 -0.61067926859E+03  0.63482056011E+03  0.17300000000E+03 0.  1.
<mgrwt>
<rscale>  2 0.17340120E+03</rscale>
<asrwt>0</asrwt>
<pdfrwt beam="1">  1       21 0.81757654E-02 0.17340120E+03</pdfrwt>
<pdfrwt beam="2">  1       21 0.12396471E+00 0.17340120E+03</pdfrwt>
<totfact> 0.56837034E+04</totfact>
</mgrwt>
</event>
<event>
 4    2  0.3903561E+000  0.2269680E+03  0.7546771E-02  0.1128792E+00
         21   -1    0    0  501  502  0.00000000000E+00  0.00000000000E+00  0.94953496388E+02  0.94953496388E+02  0.00000000000E+00 0. -1.
         21   -1    0    0  502  503 -0.00000000000E+00 -0.00000000000E+00 -0.83993764792E+03  0.83993764792E+03  0.00000000000E+00 0. -1.
          6    1    1    2  501    0 -0.11746552716E+03 -0.88245924605E+02 -0.94336087113E+02  0.24579216955E+03  0.17300000000E+03 0. -1.
         -6    1    1    2    0  503  0.11746552716E+03  0.88245924605E+02 -0.65064806441E+03  0.68909897475E+03  0.17300000000E+03 0. -1.
<mgrwt>
<rscale>  2 0.22696804E+03</rscale>
<asrwt>0</asrwt>
<pdfrwt beam="1">  1       21 0.14608230E-01 0.22696804E+03</pdfrwt>
<pdfrwt beam="2">  1       21 0.12922118E+00 0.22696804E+03</pdfrwt>
<totfact> 0.17676270E+04</totfact>
</mgrwt>
</event>
<event>
 4    2  0.3903561E+000  0.1852772E+03  0.7546771E-02  0.1162791E+00
         21   -1    0    0  503  502  0.00000000000E+00  0.00000000000E+00  0.43203517922E+02  0.43203517922E+02  0.00000000000E+00 0.  1.
         21   -1    0    0  501  503 -0.00000000000E+00 -0.00000000000E+00 -0.11339202113E+04  0.11339202113E+04  0.00000000000E+00 0.  1.
          6    1    1    2  501    0 -0.60172227178E+02  0.27891918339E+02 -0.86734159258E+03  0.88690985690E+03  0.17300000000E+03 0.  1.
         -6    1    1    2    0  502  0.60172227178E+02 -0.27891918339E+02 -0.22337510077E+03  0.29021387230E+03  0.17300000000E+03 0.  1.
<mgrwt>
<rscale>  2 0.18527724E+03</rscale>
<asrwt>0</asrwt>
<pdfrwt beam="1">  1       21 0.66466948E-02 0.18527724E+03</pdfrwt>
<pdfrwt beam="2">  1       21 0.17444927E+00 0.18527724E+03</pdfrwt>
<totfact> 0.33016788E+04</totfact>
</mgrwt>
</event>
<event>
 4    2  0.3903561E+000  0.1797169E+03  0.7546771E-02  0.1168077E+00
         21   -1    0    0  503  502  0.00000000000E+00  0.00000000000E+00  0.76129024510E+02  0.76129024510E+02  0.00000000000E+00 0. -1.
         21   -1    0    0  501  503 -0.00000000000E+00 -0.00000000000E+00 -0.42440994657E+03  0.42440994657E+03  0.00000000000E+00 0. -1.
          6    1    1    2  501    0  0.28860660741E+02  0.39194917325E+02 -0.16937067417E+03  0.24695061157E+03  0.17300000000E+03 0.  1.
         -6    1    1    2    0  502 -0.28860660741E+02 -0.39194917325E+02 -0.17891024789E+03  0.25358835952E+03  0.17300000000E+03 0.  1.
<mgrwt>
<rscale>  2 0.17971694E+03</rscale>
<asrwt>0</asrwt>
<pdfrwt beam="1">  1       21 0.11712158E-01 0.17971694E+03</pdfrwt>
<pdfrwt beam="2">  1       21 0.65293836E-01 0.17971694E+03</pdfrwt>
<totfact> 0.13286257E+05</totfact>
</mgrwt>
</event>
<event>
 4    2  0.3903561E+000  0.3096343E+03  0.7546771E-02  0.1080521E+00
         21   -1    0    0  501  502  0.00000000000E+00  0.00000000000E+00  0.96749733802E+03  0.96749733802E+03  0.00000000000E+00 0.  1.
         21   -1    0    0  502  503 -0.00000000000E+00 -0.00000000000E+00 -0.21372073319E+03  0.21372073319E+03  0.00000000000E+00 0. -1.
          6    1    1    2  501    0 -0.16022479622E+02  0.25629612768E+03  0.80942129466E+03  0.86662348062E+03  0.17300000000E+03 0.  1.
         -6    1    1    2    0  503  0.16022479622E+02 -0.25629612768E+03 -0.55644689833E+02  0.31459459058E+03  0.17300000000E+03 0. -1.
<mgrwt>
<rscale>  2 0.30963434E+03</rscale>
<asrwt>0</asrwt>
<pdfrwt beam="1">  1       21 0.14884574E+00 0.30963434E+03</pdfrwt>
<pdfrwt beam="2">  1       21 0.32880113E-01 0.30963434E+03</pdfrwt>
<totfact> 0.24924162E+03</totfact>
</mgrwt>
</event>
<event>
 4    2  0.3903561E+000  0.2565666E+03  0.7546771E-02  0.1109224E+00
         21   -1    0    0  503  502  0.00000000000E+00  0.00000000000E+00  0.61771927685E+03  0.61771927685E+03  0.00000000000E+00 0.  1.
         21   -1    0    0  501  503 -0.00000000000E+00 -0.00000000000E+00 -0.17452239892E+03  0.17452239892E+03  0.00000000000E+00 0. -1.
          6    1    1    2  501    0 -0.17581350340E+03  0.70618913121E+02 -0.25588090311E+02  0.25783942529E+03  0.17300000000E+03 0. -1.
         -6    1    1    2    0  502  0.17581350340E+03 -0.70618913121E+02  0.46878496824E+03  0.53440225048E+03  0.17300000000E+03 0.  1.
<mgrwt>
<rscale>  2 0.25656660E+03</rscale>
<asrwt>0</asrwt>
<pdfrwt beam="1">  1       21 0.95033733E-01 0.25656660E+03</pdfrwt>
<pdfrwt beam="2">  1       21 0.26849600E-01 0.25656660E+03</pdfrwt>
<totfact> 0.11760831E+04</totfact>
</mgrwt>
</event>
<event>
 4    2  0.3903561E+000  0.2418859E+03  0.7546771E-02  0.1118543E+00
         21   -1    0    0  501  502  0.00000000000E+00  0.00000000000E+00  0.20682319010E+03  0.20682319010E+03  0.00000000000E+00 0.  1.
         21   -1    0    0  502  503 -0.00000000000E+00 -0.00000000000E+00 -0.32638841816E+03  0.32638841816E+03  0.00000000000E+00 0. -1.
          6    1    1    2  501    0 -0.14150989237E+03  0.92491801836E+02  0.37542558992E+02  0.24478199848E+03  0.17300000000E+03 0.  1.
         -6    1    1    2    0  503  0.14150989237E+03 -0.92491801836E+02 -0.15710778705E+03  0.28842960978E+03  0.17300000000E+03 0. -1.
<mgrwt>
<rscale>  2 0.24188589E+03</rscale>
<asrwt>0</asrwt>
<pdfrwt beam="1">  1       21 0.31818952E-01 0.24188589E+03</pdfrwt>
<pdfrwt beam="2">  1       21 0.50213603E-01 0.24188589E+03</pdfrwt>
<totfact> 0.35010261E+04</totfact>
</mgrwt>
</event>
<event>
 4    2  0.3903561E+000  0.2119951E+03  0.7546771E-02  0.1139996E+00
         21   -1    0    0  501  502  0.00000000000E+00  0.00000000000E+00  0.52144319159E+03  0.52144319159E+03  0.00000000000E+00 0.  1.
         21   -1    0    0  502  503 -0.00000000000E+00 -0.00000000000E+00 -0.11033148751E+03  0.11033148751E+03  0.00000000000E+00 0.  1.
          6    1    1    2  501    0  0.29117436518E+01 -0.12249265707E+03  0.35332583382E+03  0.41204499042E+03  0.17300000000E+03 0.  1.
         -6    1    1    2    0  503 -0.29117436518E+01  0.12249265707E+03  0.57785870252E+02  0.21972968868E+03  0.17300000000E+03 0.  1.
<mgrwt>
<rscale>  2 0.21199512E+03</rscale>
<asrwt>0</asrwt>
<pdfrwt beam="1">  1       21 0.80222028E-01 0.21199512E+03</pdfrwt>
<pdfrwt beam="2">  1       21 0.16974075E-01 0.21199512E+03</pdfrwt>
<totfact> 0.42337139E+04</totfact>
</mgrwt>
</event>
<event>
 4    2  0.3903561E+000  0.2240407E+03  0.7546771E-02  0.1130906E+00
         21   -1    0    0  503  502  0.00000000000E+00  0.00000000000E+00  0.14397951512E+03  0.14397951512E+03  0.00000000000E+00 0. -1.
         21   -1    0    0  501  503 -0.00000000000E+00 -0.00000000000E+00 -0.35843089270E+03  0.35843089270E+03  0.00000000000E+00 0. -1.
          6    1    1    2  501    0  0.13563559835E+03 -0.43222707398E+02 -0.14878496449E+03  0.26894457353E+03  0.17300000000E+03 0. -1.
         -6    1    1    2    0  502 -0.13563559835E+03  0.43222707398E+02 -0.65666413080E+02  0.23346583429E+03  0.17300000000E+03 0. -1.
<mgrwt>
<rscale>  2 0.22404066E+03</rscale>
<asrwt>0</asrwt>
<pdfrwt beam="1">  1       21 0.22150695E-01 0.22404066E+03</pdfrwt>
<pdfrwt beam="2">  1       21 0.55143214E-01 0.22404066E+03</pdfrwt>
<totfact> 0.58277123E+04</totfact>
</mgrwt>
</event>
<event>
 4    2  0.3903561E+000  0.1982522E+03  0.7546771E-02  0.1151222E+00
         21   -1    0    0  501  502  0.00000000000E+00  0.00000000000E+00  0.15138887022E+02  0.15138887022E+02  0.00000000000E+00 0. -1.
         21   -1    0    0  502  503 -0.00000000000E+00 -0.00000000000E+00 -0.30404003864E+04  0.30404003864E+04  0.00000000000E+00 0. -1.
          6    1    1    2  501    0 -0.92478388667E+02  0.28682099571E+02 -0.92868691471E+03  0.94961218440E+03  0.17300000000E+03 0. -1.
         -6    1    1    2    0  503  0.92478388667E+02 -0.28682099571E+02 -0.20965745847E+04  0.21059270891E+04  0.17300000000E+03 0. -1.
<mgrwt>
<rscale>  2 0.19825215E+03</rscale>
<asrwt>0</asrwt>
<pdfrwt beam="1">  1       21 0.23290614E-02 0.19825215E+03</pdfrwt>
<pdfrwt beam="2">  1       21 0.46775353E+00 0.19825215E+03</pdfrwt>
<totfact> 0.30117948E+03</totfact>
</mgrwt>
</event>
<event>
 4    2  0.3903561E+000  0.2192689E+03  0.7546771E-02  0.1134429E+00
         21   -1    0    0  503  502  0.00000000000E+00  0.00000000000E+00  0.52978228147E+02  0.52978228147E+02  0.00000000000E+00 0. -1.
         21   -1    0    0  501  503 -0.00000000000E+00 -0.00000000000E+00 -0.93373678763E+03  0.93373678763E+03  0.00000000000E+00 0. -1.
          6    1    1    2  501    0  0.10904763640E+03 -0.79110445058E+02 -0.52304619911E+03  0.56714740229E+03  0.17300000000E+03 0. -1.
         -6    1    1    2    0  502 -0.10904763640E+03  0.79110445058E+02 -0.35771236037E+03  0.41956761349E+03  0.17300000000E+03 0. -1.
<mgrwt>
<rscale>  2 0.21926890E+03</rscale>
<asrwt>0</asrwt>
<pdfrwt beam="1">  1       21 0.81504973E-02 0.21926890E+03</pdfrwt>
<pdfrwt beam="2">  1       21 0.14365180E+00 0.21926890E+03</pdfrwt>
<totfact> 0.38294511E+04</totfact>
</mgrwt>
</event>
<event>
 4    2  0.3903561E+000  0.1843369E+03  0.7546771E-02  0.1163671E+00
         21   -1    0    0  501  502  0.00000000000E+00  0.00000000000E+00  0.21974121363E+03  0.21974121363E+03  0.00000000000E+00 0.  1.
         21   -1    0    0  502  503 -0.00000000000E+00 -0.00000000000E+00 -0.29444391017E+03  0.29444391017E+03  0.00000000000E+00 0.  1.
          6    1    1    2  501    0  0.93807662490E+01  0.62952984901E+02  0.13980342578E+03  0.23135486799E+03  0.17300000000E+03 0.  1.
         -6    1    1    2    0  503 -0.93807662490E+01 -0.62952984901E+02 -0.21450612233E+03  0.28283025581E+03  0.17300000000E+03 0.  1.
<mgrwt>
<rscale>  2 0.18433686E+03</rscale>
<asrwt>0</asrwt>
<pdfrwt beam="1">  1       21 0.33806341E-01 0.18433686E+03</pdfrwt>
<pdfrwt beam="2">  1       21 0.45299063E-01 0.18433686E+03</pdfrwt>
<totfact> 0.39567263E+04</totfact>
</mgrwt>
</event>
<event>
 4    2  0.3903561E+000  0.2120149E+03  0.7546771E-02  0.1139980E+00
         21   -1    0    0  503  502  0.00000000000E+00  0.00000000000E+00  0.41552461242E+03  0.41552461242E+03  0.00000000000E+00 0.  1.
         21   -1    0    0  501  503 -0.00000000000E+00 -0.00000000000E+00 -0.10964193245E+03  0.10964193245E+03  0.00000000000E+00 0.  1.
          6    1    1    2  501    0  0.75314102361E+02  0.96690776493E+02  0.12259217507E+03  0.24490643450E+03  0.17300000000E+03 0.  1.
         -6    1    1    2    0  502 -0.75314102361E+02 -0.96690776493E+02  0.18329050490E+03  0.28026011036E+03  0.17300000000E+03 0.  1.
<mgrwt>
<rscale>  2 0.21201491E+03</rscale>
<asrwt>0</asrwt>
<pdfrwt beam="1">  1       21 0.63926863E-01 0.21201491E+03</pdfrwt>
<pdfrwt beam="2">  1       21 0.16867990E-01 0.21201491E+03</pdfrwt>
<totfact> 0.70902898E+04</totfact>
</mgrwt>
</event>
<event>
 4    2  0.3903561E+000  0.2617788E+03  0.7546771E-02  0.1106079E+00
         21   -1    0    0  503  502  0.00000000000E+00  0.00000000000E+00  0.26981581096E+03  0.26981581096E+03  0.00000000000E+00 0.  1.
         21   -1    0    0  501  503 -0.00000000000E+00 -0.00000000000E+00 -0.27280321382E+03  0.27280321382E+03  0.00000000000E+00 0.  1.
          6    1    1    2  501    0 -0.13298105598E+03  0.14462075841E+03 -0.72758344088E+02  0.27170186169E+03  0.17300000000E+03 0.  1.
         -6    1    1    2    0  502  0.13298105598E+03 -0.14462075841E+03  0.69770941237E+02  0.27091716309E+03  0.17300000000E+03 0.  1.
<mgrwt>
<rscale>  2 0.26177877E+03</rscale>
<asrwt>0</asrwt>
<pdfrwt beam="1">  1       21 0.41510125E-01 0.26177877E+03</pdfrwt>
<pdfrwt beam="2">  1       21 0.41969725E-01 0.26177877E+03</pdfrwt>
<totfact> 0.29518330E+04</totfact>
</mgrwt>
</event>
<event>
 4    2  0.3903561E+000  0.2455362E+03  0.7546771E-02  0.1116159E+00
         21   -1    0    0  501  502  0.00000000000E+00  0.00000000000E+00  0.69268282677E+03  0.69268282677E+03  0.00000000000E+00 0. -1.
         21   -1    0    0  502  503 -0.00000000000E+00 -0.00000000000E+00 -0.13130925156E+03  0.13130925156E+03  0.00000000000E+00 0.  1.
          6    1    1    2  501    0  0.16942758200E+03 -0.40661191881E+02  0.51991822135E+03  0.57498086486E+03  0.17300000000E+03 0. -1.
         -6    1    1    2    0  503 -0.16942758200E+03  0.40661191881E+02  0.41455353864E+02  0.24901121346E+03  0.17300000000E+03 0.  1.
<mgrwt>
<rscale>  2 0.24553623E+03</rscale>
<asrwt>0</asrwt>
<pdfrwt beam="1">  1       21 0.10656659E+00 0.24553623E+03</pdfrwt>
<pdfrwt beam="2">  1       21 0.20201424E-01 0.24553623E+03</pdfrwt>
<totfact> 0.15472678E+04</totfact>
</mgrwt>
</event>
<event>
 4    2  0.3903561E+000  0.1800375E+03  0.7546771E-02  0.1167767E+00
         21   -1    0    0  503  502  0.00000000000E+00  0.00000000000E+00  0.96342372973E+02  0.96342372973E+02  0.00000000000E+00 0. -1.
         21   -1    0    0  501  503 -0.00000000000E+00 -0.00000000000E+00 -0.12210227181E+04  0.12210227181E+04  0.00000000000E+00 0. -1.
          6    1    1    2  501    0 -0.41298468362E+02 -0.27909412133E+02 -0.11229792013E+04  0.11373195617E+04  0.17300000000E+03 0. -1.
         -6    1    1    2    0  502  0.41298468362E+02  0.27909412133E+02 -0.17011438341E+01  0.18004552942E+03  0.17300000000E+03 0. -1.
<mgrwt>
<rscale>  2 0.18003749E+03</rscale>
<asrwt>0</asrwt>
<pdfrwt beam="1">  1       21 0.14821905E-01 0.18003749E+03</pdfrwt>
<pdfrwt beam="2">  1       21 0.18784964E+00 0.18003749E+03</pdfrwt>
<totfact> 0.65338467E+03</totfact>
</mgrwt>
</event>
<event>
 4    2  0.3903561E+000  0.2047727E+03  0.7546771E-02  0.1145774E+00
         21   -1    0    0  503  502  0.00000000000E+00  0.00000000000E+00  0.50178472132E+03  0.50178472132E+03  0.00000000000E+00 0.  1.
         21   -1    0    0  501  503 -0.00000000000E+00 -0.00000000000E+00 -0.12239586861E+03  0.12239586861E+03  0.00000000000E+00 0.  1.
          6    1    1    2  501    0 -0.10558841514E+03 -0.29221994989E+02  0.13908853517E+02  0.20524447522E+03  0.17300000000E+03 0.  1.
         -6    1    1    2    0  502  0.10558841514E+03  0.29221994989E+02  0.36547999919E+03  0.41893611472E+03  0.17300000000E+03 0.  1.
<mgrwt>
<rscale>  2 0.20477265E+03</rscale>
<asrwt>0</asrwt>
<pdfrwt beam="1">  1       21 0.77197648E-01 0.20477265E+03</pdfrwt>
<pdfrwt beam="2">  1       21 0.18830134E-01 0.20477265E+03</pdfrwt>
<totfact> 0.38244025E+04</totfact>
</mgrwt>
</event>
<event>
 4    2  0.3903561E+000  0.2142950E+03  0.7546771E-02  0.1138209E+00
         21   -1    0    0  501  502  0.00000000000E+00  0.00000000000E+00  0.66962300681E+03  0.66962300681E+03  0.00000000000E+00 0. -1.
         21   -1    0    0  502  503 -0.00000000000E+00 -0.00000000000E+00 -0.12341225683E+03  0.12341225683E+03  0.00000000000E+00 0. -1.
          6    1    1    2  501    0  0.11821706152E+03 -0.44923124457E+02  0.53740934983E+03  0.57855956481E+03  0.17300000000E+03 0. -1.
         -6    1    1    2    0  503 -0.11821706152E+03  0.44923124457E+02  0.88014001552E+01  0.21447569883E+03  0.17300000000E+03 0. -1.
<mgrwt>
<rscale>  2 0.21429503E+03</rscale>
<asrwt>0</asrwt>
<pdfrwt beam="1">  1       21 0.10301892E+00 0.21429503E+03</pdfrwt>
<pdfrwt beam="2">  1       21 0.18986501E-01 0.21429503E+03</pdfrwt>
<totfact> 0.19191087E+04</totfact>
</mgrwt>
</event>
<event>
 4    2  0.3903561E+000  0.2310356E+03  0.7546771E-02  0.1125913E+00
         21   -1    0    0  503  502  0.00000000000E+00  0.00000000000E+00  0.74002468564E+03  0.74002468564E+03  0.00000000000E+00 0. -1.
         21   -1    0    0  501  503 -0.00000000000E+00 -0.00000000000E+00 -0.15446842551E+03  0.15446842551E+03  0.00000000000E+00 0.  1.
          6    1    1    2  501    0  0.11880936630E+03  0.96606292549E+02 -0.33757326467E+02  0.23348875427E+03  0.17300000000E+03 0.  1.
         -6    1    1    2    0  502 -0.11880936630E+03 -0.96606292549E+02  0.61931358660E+03  0.66100435689E+03  0.17300000000E+03 0. -1.
<mgrwt>
<rscale>  2 0.23103558E+03</rscale>
<asrwt>0</asrwt>
<pdfrwt beam="1">  1       21 0.11384995E+00 0.23103558E+03</pdfrwt>
<pdfrwt beam="2">  1       21 0.23764374E-01 0.23103558E+03</pdfrwt>
<totfact> 0.97640069E+03</totfact>
</mgrwt>
</event>
<event>
 4    2  0.3903561E+000  0.2137437E+03  0.7546771E-02  0.1138635E+00
         21   -1    0    0  501  502  0.00000000000E+00  0.00000000000E+00  0.88063712979E+03  0.88063712979E+03  0.00000000000E+00 0.  1.
         21   -1    0    0  502  503 -0.00000000000E+00 -0.00000000000E+00 -0.62575475347E+02  0.62575475347E+02  0.00000000000E+00 0. -1.
          6    1    1    2  501    0  0.11390487296E+03  0.52754499080E+02  0.60401657011E+03  0.64072019964E+03  0.17300000000E+03 0.  1.
         -6    1    1    2    0  503 -0.11390487296E+03 -0.52754499080E+02  0.21404508433E+03  0.30249240550E+03  0.17300000000E+03 0. -1.
<mgrwt>
<rscale>  2 0.21374367E+03</rscale>
<asrwt>0</asrwt>
<pdfrwt beam="1">  1       21 0.13548263E+00 0.21374367E+03</pdfrwt>
<pdfrwt beam="2">  1       21 0.96269968E-02 0.21374367E+03</pdfrwt>
<totfact> 0.33365769E+04</totfact>
</mgrwt>
</event>
<event>
 4    2  0.3903561E+000  0.1799381E+03  0.7546771E-02  0.1167863E+00
         21   -1    0    0  501  502  0.00000000000E+00  0.00000000000E+00  0.32249925556E+03  0.32249925556E+03  0.00000000000E+00 0.  1.
         21   -1    0    0  502  503 -0.00000000000E+00 -0.00000000000E+00 -0.16497826341E+03  0.16497826341E+03  0.00000000000E+00 0.  1.
          6    1    1    2  501    0 -0.15082737151E+00  0.49484375963E+02  0.23125946772E+03  0.29301649719E+03  0.17300000000E+03 0.  1.
         -6    1    1    2    0  503  0.15082737151E+00 -0.49484375963E+02 -0.73738475577E+02  0.19446102179E+03  0.17300000000E+03 0.  1.
<mgrwt>
<rscale>  2 0.17993812E+03</rscale>
<asrwt>0</asrwt>
<pdfrwt beam="1">  1       21 0.49615270E-01 0.17993812E+03</pdfrwt>
<pdfrwt beam="2">  1       21 0.25381271E-01 0.17993812E+03</pdfrwt>
<totfact> 0.57309384E+04</totfact>
</mgrwt>
</event>
<event>
 4    2  0.3903561E+000  0.2217589E+03  0.7546771E-02  0.1132578E+00
         21   -1    0    0  501  502  0.00000000000E+00  0.00000000000E+00  0.18705543413E+04  0.18705543413E+04  0.00000000000E+00 0. -1.
         21   -1    0    0  502  503 -0.00000000000E+00 -0.00000000000E+00 -0.32007022711E+02  0.32007022711E+02  0.00000000000E+00 0.  1.
          6    1    1    2  501    0 -0.68226200725E+01 -0.13856934045E+03  0.13213126953E+04  0.13397926141E+04  0.17300000000E+03 0. -1.
         -6    1    1    2    0  503  0.68226200725E+01  0.13856934045E+03  0.51723462332E+03  0.56276874986E+03  0.17300000000E+03 0.  1.
<mgrwt>
<rscale>  2 0.22175890E+03</rscale>
<asrwt>0</asrwt>
<pdfrwt beam="1">  1       21 0.28777751E+00 0.22175890E+03</pdfrwt>
<pdfrwt beam="2">  1       21 0.49241588E-02 0.22175890E+03</pdfrwt>
<totfact> 0.10767459E+04</totfact>
</mgrwt>
</event>
<event>
 4    2  0.3903561E+000  0.2092959E+03  0.7546771E-02  0.1142125E+00
         21   -1    0    0  501  502  0.00000000000E+00  0.00000000000E+00  0.67094437309E+02  0.67094437309E+02  0.00000000000E+00 0.  1.
         21   -1    0    0  502  503 -0.00000000000E+00 -0.00000000000E+00 -0.12126105077E+04  0.12126105077E+04  0.00000000000E+00 0.  1.
          6    1    1    2  501    0 -0.72446980663E+02  0.92882841793E+02 -0.13803996926E+03  0.25071860804E+03  0.17300000000E+03 0.  1.
         -6    1    1    2    0  503  0.72446980663E+02 -0.92882841793E+02 -0.10074761012E+04  0.10289863370E+04  0.17300000000E+03 0.  1.
<mgrwt>
<rscale>  2 0.20929593E+03</rscale>
<asrwt>0</asrwt>
<pdfrwt beam="1">  1       21 0.10322223E-01 0.20929593E+03</pdfrwt>
<pdfrwt beam="2">  1       21 0.18655544E+00 0.20929593E+03</pdfrwt>
<totfact> 0.12449076E+04</totfact>
</mgrwt>
</event>
<event>
 4    2  0.3903561E+000  0.2364722E+03  0.7546771E-02  0.1122166E+00
         21   -1    0    0  501  502  0.00000000000E+00  0.00000000000E+00  0.19957795119E+03  0.19957795119E+03  0.00000000000E+00 0.  1.
         21   -1    0    0  502  503 -0.00000000000E+00 -0.00000000000E+00 -0.45457882408E+03  0.45457882408E+03  0.00000000000E+00 0.  1.
          6    1    1    2  501    0  0.12295492770E+03  0.10426967994E+03  0.75086168318E+02  0.24810685817E+03  0.17300000000E+03 0.  1.
         -6    1    1    2    0  503 -0.12295492770E+03 -0.10426967994E+03 -0.33008704121E+03  0.40604991709E+03  0.17300000000E+03 0.  1.
<mgrwt>
<rscale>  2 0.23647216E+03</rscale>
<asrwt>0</asrwt>
<pdfrwt beam="1">  1       21 0.30704300E-01 0.23647216E+03</pdfrwt>
<pdfrwt beam="2">  1       21 0.69935203E-01 0.23647216E+03</pdfrwt>
<totfact> 0.18438699E+04</totfact>
</mgrwt>
</event>
<event>
 4    2  0.3903561E+000  0.1854163E+03  0.7546771E-02  0.1162662E+00
         21   -1    0    0  503  502  0.00000000000E+00  0.00000000000E+00  0.97624987766E+02  0.97624987766E+02  0.00000000000E+00 0.  1.
         21   -1    0    0  501  503 -0.00000000000E+00 -0.00000000000E+00 -0.46143010148E+03  0.46143010148E+03  0.00000000000E+00 0.  1.
          6    1    1    2  501    0 -0.55659403144E+02 -0.36772837618E+02 -0.31793126218E+03  0.36804822811E+03  0.17300000000E+03 0. -1.
         -6    1    1    2    0  502  0.55659403144E+02  0.36772837618E+02 -0.45873851531E+02  0.19100686113E+03  0.17300000000E+03 0. -1.
<mgrwt>
<rscale>  2 0.18541632E+03</rscale>
<asrwt>0</asrwt>
<pdfrwt beam="1">  1       21 0.15019229E-01 0.18541632E+03</pdfrwt>
<pdfrwt beam="2">  1       21 0.70989246E-01 0.18541632E+03</pdfrwt>
<totfact> 0.70524876E+04</totfact>
</mgrwt>
</event>
<event>
 4    2  0.3903561E+000  0.2332077E+03  0.7546771E-02  0.1124402E+00
         21   -1    0    0  503  502  0.00000000000E+00  0.00000000000E+00  0.89630390115E+02  0.89630390115E+02  0.00000000000E+00 0.  1.
         21   -1    0    0  501  503 -0.00000000000E+00 -0.00000000000E+00 -0.61357700593E+03  0.61357700593E+03  0.00000000000E+00 0.  1.
          6    1    1    2  501    0  0.44347625056E+02 -0.14996703645E+03 -0.29898294908E+03  0.37917888616E+03  0.17300000000E+03 0.  1.
         -6    1    1    2    0  502 -0.44347625056E+02  0.14996703645E+03 -0.22496366674E+03  0.32402850989E+03  0.17300000000E+03 0.  1.
<mgrwt>
<rscale>  2 0.23320768E+03</rscale>
<asrwt>0</asrwt>
<pdfrwt beam="1">  1       21 0.13789291E-01 0.23320768E+03</pdfrwt>
<pdfrwt beam="2">  1       21 0.94396459E-01 0.23320768E+03</pdfrwt>
<totfact> 0.42108550E+04</totfact>
</mgrwt>
</event>
<event>
 4    2  0.3903561E+000  0.2576678E+03  0.7546771E-02  0.1108553E+00
         21   -1    0    0  501  502  0.00000000000E+00  0.00000000000E+00  0.32090160545E+03  0.32090160545E+03  0.00000000000E+00 0. -1.
         21   -1    0    0  502  503 -0.00000000000E+00 -0.00000000000E+00 -0.49855466940E+03  0.49855466940E+03  0.00000000000E+00 0.  1.
          6    1    1    2  501    0 -0.19095197015E+03  0.10213125482E+01  0.22455842161E+03  0.34178821322E+03  0.17300000000E+03 0.  1.
         -6    1    1    2    0  503  0.19095197015E+03 -0.10213125482E+01 -0.40221148555E+03  0.47766806162E+03  0.17300000000E+03 0.  1.
<mgrwt>
<rscale>  2 0.25766781E+03</rscale>
<asrwt>0</asrwt>
<pdfrwt beam="1">  1       21 0.49369478E-01 0.25766781E+03</pdfrwt>
<pdfrwt beam="2">  1       21 0.76700718E-01 0.25766781E+03</pdfrwt>
<totfact> 0.56610680E+03</totfact>
</mgrwt>
</event>
<event>
 4    2  0.3903561E+000  0.2651853E+03  0.7546771E-02  0.1104067E+00
         21   -1    0    0  501  502  0.00000000000E+00  0.00000000000E+00  0.74914948655E+02  0.74914948655E+02  0.00000000000E+00 0.  1.
         21   -1    0    0  502  503 -0.00000000000E+00 -0.00000000000E+00 -0.94001609106E+03  0.94001609106E+03  0.00000000000E+00 0.  1.
          6    1    1    2  501    0  0.19989864293E+03 -0.20851753337E+02 -0.41362039343E+03  0.49132992268E+03  0.17300000000E+03 0.  1.
         -6    1    1    2    0  503 -0.19989864293E+03  0.20851753337E+02 -0.45148074898E+03  0.52360111704E+03  0.17300000000E+03 0.  1.
<mgrwt>
<rscale>  2 0.26518534E+03</rscale>
<asrwt>0</asrwt>
<pdfrwt beam="1">  1       21 0.11525377E-01 0.26518534E+03</pdfrwt>
<pdfrwt beam="2">  1       21 0.14461785E+00 0.26518534E+03</pdfrwt>
<totfact> 0.19880984E+04</totfact>
</mgrwt>
</event>
<event>
 4    2  0.3903561E+000  0.1909420E+03  0.7546771E-02  0.1157614E+00
         21   -1    0    0  501  502  0.00000000000E+00  0.00000000000E+00  0.38064721904E+03  0.38064721904E+03  0.00000000000E+00 0.  1.
         21   -1    0    0  502  503 -0.00000000000E+00 -0.00000000000E+00 -0.39710981663E+03  0.39710981663E+03  0.00000000000E+00 0.  1.
          6    1    1    2  501    0 -0.52743723936E+02 -0.61220559397E+02  0.33051831712E+03  0.38170828555E+03  0.17300000000E+03 0.  1.
         -6    1    1    2    0  503  0.52743723936E+02  0.61220559397E+02 -0.34698091470E+03  0.39604875012E+03  0.17300000000E+03 0.  1.
<mgrwt>
<rscale>  2 0.19094203E+03</rscale>
<asrwt>0</asrwt>
<pdfrwt beam="1">  1       21 0.58561111E-01 0.19094203E+03</pdfrwt>
<pdfrwt beam="2">  1       21 0.61093818E-01 0.19094203E+03</pdfrwt>
<totfact> 0.68121601E+03</totfact>
</mgrwt>
</event>
<event>
 4    2  0.3903561E+000  0.2064216E+03  0.7546771E-02  0.1144431E+00
         21   -1    0    0  501  502  0.00000000000E+00  0.00000000000E+00  0.12455145279E+04  0.12455145279E+04  0.00000000000E+00 0. -1.
         21   -1    0    0  502  503 -0.00000000000E+00 -0.00000000000E+00 -0.49319892678E+02  0.49319892678E+02  0.00000000000E+00 0.  1.
          6    1    1    2  501    0 -0.77008048134E+02 -0.82162348124E+02  0.95643640919E+03  0.97845822381E+03  0.17300000000E+03 0. -1.
         -6    1    1    2    0  503  0.77008048134E+02  0.82162348124E+02  0.23975822602E+03  0.31637619676E+03  0.17300000000E+03 0.  1.
<mgrwt>
<rscale>  2 0.20642163E+03</rscale>
<asrwt>0</asrwt>
<pdfrwt beam="1">  1       21 0.19161760E+00 0.20642163E+03</pdfrwt>
<pdfrwt beam="2">  1       21 0.75876767E-02 0.20642163E+03</pdfrwt>
<totfact> 0.19821269E+04</totfact>
</mgrwt>
</event>
<event>
 4    2  0.3903561E+000  0.1822073E+03  0.7546771E-02  0.1165684E+00
         21   -1    0    0  503  502  0.00000000000E+00  0.00000000000E+00  0.46328218109E+03  0.46328218109E+03  0.00000000000E+00 0.  1.
         21   -1    0    0  501  503 -0.00000000000E+00 -0.00000000000E+00 -0.97735983007E+02  0.97735983007E+02  0.00000000000E+00 0.  1.
          6    1    1    2  501    0  0.29962480260E+01  0.57109616845E+02  0.37886666079E+02  0.18610450103E+03  0.17300000000E+03 0.  1.
         -6    1    1    2    0  502 -0.29962480260E+01 -0.57109616845E+02  0.32765953200E+03  0.37491366306E+03  0.17300000000E+03 0.  1.
<mgrwt>
<rscale>  2 0.18220726E+03</rscale>
<asrwt>0</asrwt>
<pdfrwt beam="1">  1       21 0.71274180E-01 0.18220726E+03</pdfrwt>
<pdfrwt beam="2">  1       21 0.15036305E-01 0.18220726E+03</pdfrwt>
<totfact> 0.69856832E+04</totfact>
</mgrwt>
</event>
<event>
 4    2  0.3903561E+000  0.2047207E+03  0.7546771E-02  0.1145816E+00
         21   -1    0    0  503  502  0.00000000000E+00  0.00000000000E+00  0.56256289322E+02  0.56256289322E+02  0.00000000000E+00 0. -1.
         21   -1    0    0  501  503 -0.00000000000E+00 -0.00000000000E+00 -0.79395654495E+03  0.79395654495E+03  0.00000000000E+00 0.  1.
          6    1    1    2  501    0 -0.81213285130E+02  0.73389268949E+02 -0.47441818038E+03  0.51670416328E+03  0.17300000000E+03 0. -1.
         -6    1    1    2    0  502  0.81213285130E+02 -0.73389268949E+02 -0.26328207525E+03  0.33350867099E+03  0.17300000000E+03 0. -1.
<mgrwt>
<rscale>  2 0.20472074E+03</rscale>
<asrwt>0</asrwt>
<pdfrwt beam="1">  1       21 0.86548137E-02 0.20472074E+03</pdfrwt>
<pdfrwt beam="2">  1       21 0.12214716E+00 0.20472074E+03</pdfrwt>
<totfact> 0.52526522E+04</totfact>
</mgrwt>
</event>
<event>
 4    2  0.3903561E+000  0.1900798E+03  0.7546771E-02  0.1158389E+00
         21   -1    0    0  503  502  0.00000000000E+00  0.00000000000E+00  0.18279582897E+03  0.18279582897E+03  0.00000000000E+00 0.  1.
         21   -1    0    0  501  503 -0.00000000000E+00 -0.00000000000E+00 -0.19888905959E+03  0.19888905959E+03  0.00000000000E+00 0. -1.
          6    1    1    2  501    0  0.23309039083E+02  0.75219779314E+02 -0.23085434798E+02  0.19147653591E+03  0.17300000000E+03 0.  1.
         -6    1    1    2    0  502 -0.23309039083E+02 -0.75219779314E+02  0.69922041761E+01  0.19020835266E+03  0.17300000000E+03 0. -1.
<mgrwt>
<rscale>  2 0.19007979E+03</rscale>
<asrwt>0</asrwt>
<pdfrwt beam="1">  1       21 0.28122435E-01 0.19007979E+03</pdfrwt>
<pdfrwt beam="2">  1       21 0.30598317E-01 0.19007979E+03</pdfrwt>
<totfact> 0.12398655E+05</totfact>
</mgrwt>
</event>
<event>
 4    2  0.3903561E+000  0.2102058E+03  0.7546771E-02  0.1141403E+00
         21   -1    0    0  503  502  0.00000000000E+00  0.00000000000E+00  0.13336303934E+03  0.13336303934E+03  0.00000000000E+00 0. -1.
         21   -1    0    0  501  503 -0.00000000000E+00 -0.00000000000E+00 -0.34229246257E+03  0.34229246257E+03  0.00000000000E+00 0.  1.
          6    1    1    2  501    0  0.16430175478E+02  0.11826882879E+03 -0.14703663265E+03  0.25652726535E+03  0.17300000000E+03 0.  1.
         -6    1    1    2    0  502 -0.16430175478E+02 -0.11826882879E+03 -0.61892790592E+02  0.21912823656E+03  0.17300000000E+03 0. -1.
<mgrwt>
<rscale>  2 0.21020577E+03</rscale>
<asrwt>0</asrwt>
<pdfrwt beam="1">  1       21 0.20517391E-01 0.21020577E+03</pdfrwt>
<pdfrwt beam="2">  1       21 0.52660378E-01 0.21020577E+03</pdfrwt>
<totfact> 0.74656039E+04</totfact>
</mgrwt>
</event>
<event>
 4    2  0.3903561E+000  0.2431950E+03  0.7546771E-02  0.1117683E+00
         21   -1    0    0  501  502  0.00000000000E+00  0.00000000000E+00  0.32619022575E+03  0.32619022575E+03  0.00000000000E+00 0.  1.
         21   -1    0    0  502  503 -0.00000000000E+00 -0.00000000000E+00 -0.18979277928E+03  0.18979277928E+03  0.00000000000E+00 0.  1.
          6    1    1    2  501    0 -0.16909356086E+03  0.24943586743E+02  0.12271884500E+03  0.27240361554E+03  0.17300000000E+03 0.  1.
         -6    1    1    2    0  503  0.16909356086E+03 -0.24943586743E+02  0.13678601473E+02  0.24357938948E+03  0.17300000000E+03 0.  1.
<mgrwt>
<rscale>  2 0.24319501E+03</rscale>
<asrwt>0</asrwt>
<pdfrwt beam="1">  1       21 0.50183111E-01 0.24319501E+03</pdfrwt>
<pdfrwt beam="2">  1       21 0.29198889E-01 0.24319501E+03</pdfrwt>
<totfact> 0.41474165E+04</totfact>
</mgrwt>
</event>
<event>
 4    2  0.3903561E+000  0.1970814E+03  0.7546771E-02  0.1152225E+00
         21   -1    0    0  503  502  0.00000000000E+00  0.00000000000E+00  0.62421126668E+02  0.62421126668E+02  0.00000000000E+00 0. -1.
         21   -1    0    0  501  503 -0.00000000000E+00 -0.00000000000E+00 -0.10134146729E+04  0.10134146729E+04  0.00000000000E+00 0. -1.
          6    1    1    2  501    0  0.24292810594E+02  0.91224735941E+02 -0.80969661752E+03  0.83333648998E+03  0.17300000000E+03 0. -1.
         -6    1    1    2    0  502 -0.24292810594E+02 -0.91224735941E+02 -0.14129692873E+03  0.24249930961E+03  0.17300000000E+03 0. -1.
<mgrwt>
<rscale>  2 0.19708144E+03</rscale>
<asrwt>0</asrwt>
<pdfrwt beam="1">  1       21 0.96032500E-02 0.19708144E+03</pdfrwt>
<pdfrwt beam="2">  1       21 0.15590995E+00 0.19708144E+03</pdfrwt>
<totfact> 0.23446797E+04</totfact>
</mgrwt>
</event>
<event>
 4    2  0.3903561E+000  0.2333054E+03  0.7546771E-02  0.1124335E+00
         21   -1    0    0  503  502  0.00000000000E+00  0.00000000000E+00  0.62958773621E+03  0.62958773621E+03  0.00000000000E+00 0.  1.
         21   -1    0    0  501  503 -0.00000000000E+00 -0.00000000000E+00 -0.98781705921E+02  0.98781705921E+02  0.00000000000E+00 0. -1.
          6    1    1    2  501    0 -0.45002366269E+02 -0.14992393288E+03  0.13675708814E+03  0.27043280085E+03  0.17300000000E+03 0. -1.
         -6    1    1    2    0  502  0.45002366269E+02  0.14992393288E+03  0.39404894214E+03  0.45793664128E+03  0.17300000000E+03 0.  1.
<mgrwt>
<rscale>  2 0.23330538E+03</rscale>
<asrwt>0</asrwt>
<pdfrwt beam="1">  1       21 0.96859649E-01 0.23330538E+03</pdfrwt>
<pdfrwt beam="2">  1       21 0.15197186E-01 0.23330538E+03</pdfrwt>
<totfact> 0.33187011E+04</totfact>
</mgrwt>
</event>
<event>
 4    2  0.3903561E+000  0.2290972E+03  0.7546771E-02  0.1127277E+00
         21   -1    0    0  501  502  0.00000000000E+00  0.00000000000E+00  0.13618566517E+03  0.13618566517E+03  0.00000000000E+00 0.  1.
         21   -1    0    0  502  503 -0.00000000000E+00 -0.00000000000E+00 -0.57091130880E+03  0.57091130880E+03  0.00000000000E+00 0. -1.
          6    1    1    2  501    0 -0.12661107383E+03 -0.80784576636E+02 -0.41889930086E+03  0.47745380520E+03  0.17300000000E+03 0.  1.
         -6    1    1    2    0  503  0.12661107383E+03  0.80784576636E+02 -0.15826342770E+02  0.22964316877E+03  0.17300000000E+03 0. -1.
<mgrwt>
<rscale>  2 0.22909717E+03</rscale>
<asrwt>0</asrwt>
<pdfrwt beam="1">  1       21 0.20951641E-01 0.22909717E+03</pdfrwt>
<pdfrwt beam="2">  1       21 0.87832509E-01 0.22909717E+03</pdfrwt>
<totfact> 0.23035312E+04</totfact>
</mgrwt>
</event>
<event>
 4    2  0.3903561E+000  0.2277532E+03  0.7546771E-02  0.1128231E+00
         21   -1    0    0  501  502  0.00000000000E+00  0.00000000000E+00  0.55585801248E+03  0.55585801248E+03  0.00000000000E+00 0. -1.
         21   -1    0    0  502  503 -0.00000000000E+00 -0.00000000000E+00 -0.16621446521E+03  0.16621446521E+03  0.00000000000E+00 0. -1.
          6    1    1    2  501    0  0.12412043827E+03  0.80849331832E+02  0.43391647194E+03  0.49005612156E+03  0.17300000000E+03 0. -1.
         -6    1    1    2    0  503 -0.12412043827E+03 -0.80849331832E+02 -0.44272924670E+02  0.23201635613E+03  0.17300000000E+03 0. -1.
<mgrwt>
<rscale>  2 0.22775315E+03</rscale>
<asrwt>0</asrwt>
<pdfrwt beam="1">  1       21 0.85516616E-01 0.22775315E+03</pdfrwt>
<pdfrwt beam="2">  1       21 0.25571456E-01 0.22775315E+03</pdfrwt>
<totfact> 0.16783479E+04</totfact>
</mgrwt>
</event>
<event>
 4    2  0.3903561E+000  0.2163349E+03  0.7546771E-02  0.1136645E+00
         21   -1    0    0  501  502  0.00000000000E+00  0.00000000000E+00  0.11595246706E+03  0.11595246706E+03  0.00000000000E+00 0.  1.
         21   -1    0    0  502  503 -0.00000000000E+00 -0.00000000000E+00 -0.48068759687E+03  0.48068759687E+03  0.00000000000E+00 0.  1.
          6    1    1    2  501    0 -0.12776496593E+03 -0.23406889923E+02 -0.62917597710E+02  0.22529845342E+03  0.17300000000E+03 0.  1.
         -6    1    1    2    0  503  0.12776496593E+03  0.23406889923E+02 -0.30181753209E+03  0.37134161051E+03  0.17300000000E+03 0.  1.
<mgrwt>
<rscale>  2 0.21633485E+03</rscale>
<asrwt>0</asrwt>
<pdfrwt beam="1">  1       21 0.17838841E-01 0.21633485E+03</pdfrwt>
<pdfrwt beam="2">  1       21 0.73951937E-01 0.21633485E+03</pdfrwt>
<totfact> 0.46287569E+04</totfact>
</mgrwt>
</event>
<event>
 4    2  0.3903561E+000  0.2615171E+03  0.7546771E-02  0.1106235E+00
         21   -1    0    0  501  502  0.00000000000E+00  0.00000000000E+00  0.13499445244E+04  0.13499445244E+04  0.00000000000E+00 0.  1.
         21   -1    0    0  502  503 -0.00000000000E+00 -0.00000000000E+00 -0.50891979416E+02  0.50891979416E+02  0.00000000000E+00 0.  1.
          6    1    1    2  501    0  0.18515472220E+03 -0.64652134561E+02  0.60246309755E+03  0.65677465966E+03  0.17300000000E+03 0. -1.
         -6    1    1    2    0  503 -0.18515472220E+03  0.64652134561E+02  0.69658944744E+03  0.74406184416E+03  0.17300000000E+03 0. -1.
<mgrwt>
<rscale>  2 0.26151705E+03</rscale>
<asrwt>0</asrwt>
<pdfrwt beam="1">  1       21 0.20768375E+00 0.26151705E+03</pdfrwt>
<pdfrwt beam="2">  1       21 0.78295363E-02 0.26151705E+03</pdfrwt>
<totfact> 0.14229766E+04</totfact>
</mgrwt>
</event>
<event>
 4    2  0.3903561E+000  0.3669721E+03  0.7546771E-02  0.1055857E+00
         21   -1    0    0  503  502  0.00000000000E+00  0.00000000000E+00  0.10559292074E+03  0.10559292074E+03  0.00000000000E+00 0.  1.
         21   -1    0    0  501  503 -0.00000000000E+00 -0.00000000000E+00 -0.12936669322E+04  0.12936669322E+04  0.00000000000E+00 0. -1.
          6    1    1    2  501    0  0.14101927057E+03 -0.29129548084E+03 -0.51079920686E+03  0.62895494399E+03  0.17300000000E+03 0. -1.
         -6    1    1    2    0  502 -0.14101927057E+03  0.29129548084E+03 -0.67727480464E+03  0.77030490900E+03  0.17300000000E+03 0.  1.
<mgrwt>
<rscale>  2 0.36697206E+03</rscale>
<asrwt>0</asrwt>
<pdfrwt beam="1">  1       21 0.16245066E-01 0.36697206E+03</pdfrwt>
<pdfrwt beam="2">  1       21 0.19902567E+00 0.36697206E+03</pdfrwt>
<totfact> 0.41043452E+03</totfact>
</mgrwt>
</event>
<event>
 4    2  0.3903561E+000  0.1768246E+03  0.7546771E-02  0.1170912E+00
         21   -1    0    0  501  502  0.00000000000E+00  0.00000000000E+00  0.76580159678E+02  0.76580159678E+02  0.00000000000E+00 0.  1.
         21   -1    0    0  502  503 -0.00000000000E+00 -0.00000000000E+00 -0.41643327805E+03  0.41643327805E+03  0.00000000000E+00 0.  1.
          6    1    1    2  501    0 -0.98931697449E+01  0.35214337345E+02 -0.20439739868E+03  0.27026879389E+03  0.17300000000E+03 0.  1.
         -6    1    1    2    0  503  0.98931697449E+01 -0.35214337345E+02 -0.13545571969E+03  0.22274464384E+03  0.17300000000E+03 0.  1.
<mgrwt>
<rscale>  2 0.17682456E+03</rscale>
<asrwt>0</asrwt>
<pdfrwt beam="1">  1       21 0.11781563E-01 0.17682456E+03</pdfrwt>
<pdfrwt beam="2">  1       21 0.64066659E-01 0.17682456E+03</pdfrwt>
<totfact> 0.13713719E+05</totfact>
</mgrwt>
</event>
<event>
 4    2  0.3903561E+000  0.1908059E+03  0.7546771E-02  0.1157736E+00
         21   -1    0    0  503  502  0.00000000000E+00  0.00000000000E+00  0.31138773720E+03  0.31138773720E+03  0.00000000000E+00 0. -1.
         21   -1    0    0  501  503 -0.00000000000E+00 -0.00000000000E+00 -0.18032286590E+03  0.18032286590E+03  0.00000000000E+00 0. -1.
          6    1    1    2  501    0 -0.15794507045E+02  0.78920308352E+02 -0.80253262424E+02  0.20699629865E+03  0.17300000000E+03 0.  1.
         -6    1    1    2    0  502  0.15794507045E+02 -0.78920308352E+02  0.21131813372E+03  0.28471430446E+03  0.17300000000E+03 0.  1.
<mgrwt>
<rscale>  2 0.19080587E+03</rscale>
<asrwt>0</asrwt>
<pdfrwt beam="1">  1       21 0.47905806E-01 0.19080587E+03</pdfrwt>
<pdfrwt beam="2">  1       21 0.27741979E-01 0.19080587E+03</pdfrwt>
<totfact> 0.51704538E+04</totfact>
</mgrwt>
</event>
<event>
 4    2  0.3903561E+000  0.1814433E+03  0.7546771E-02  0.1166413E+00
         21   -1    0    0  501  502  0.00000000000E+00  0.00000000000E+00  0.68762855945E+02  0.68762855945E+02  0.00000000000E+00 0. -1.
         21   -1    0    0  502  503 -0.00000000000E+00 -0.00000000000E+00 -0.11285968083E+04  0.11285968083E+04  0.00000000000E+00 0. -1.
          6    1    1    2  501    0  0.54107440827E+02 -0.80668152711E+01 -0.75637031503E+02  0.19657733643E+03  0.17300000000E+03 0. -1.
         -6    1    1    2    0  503 -0.54107440827E+02  0.80668152711E+01 -0.98419692088E+03  0.10007823278E+04  0.17300000000E+03 0. -1.
<mgrwt>
<rscale>  2 0.18144335E+03</rscale>
<asrwt>0</asrwt>
<pdfrwt beam="1">  1       21 0.10578902E-01 0.18144335E+03</pdfrwt>
<pdfrwt beam="2">  1       21 0.17363026E+00 0.18144335E+03</pdfrwt>
<totfact> 0.14910078E+04</totfact>
</mgrwt>
</event>
<event>
 4    2  0.3903561E+000  0.1923546E+03  0.7546771E-02  0.1156355E+00
         21   -1    0    0  503  502  0.00000000000E+00  0.00000000000E+00  0.57486602528E+03  0.57486602528E+03  0.00000000000E+00 0.  1.
         21   -1    0    0  501  503 -0.00000000000E+00 -0.00000000000E+00 -0.25200654510E+03  0.25200654510E+03  0.00000000000E+00 0.  1.
          6    1    1    2  501    0 -0.67434915384E+02  0.50237705641E+02 -0.19532446916E+03  0.27413854733E+03  0.17300000000E+03 0.  1.
         -6    1    1    2    0  502  0.67434915384E+02 -0.50237705641E+02  0.51818394934E+03  0.55273402305E+03  0.17300000000E+03 0.  1.
<mgrwt>
<rscale>  2 0.19235461E+03</rscale>
<asrwt>0</asrwt>
<pdfrwt beam="1">  1       21 0.88440927E-01 0.19235461E+03</pdfrwt>
<pdfrwt beam="2">  1       21 0.38770238E-01 0.19235461E+03</pdfrwt>
<totfact> 0.70189198E+03</totfact>
</mgrwt>
</event>
<event>
 4    2  0.3903561E+000  0.1736284E+03  0.7546771E-02  0.1174116E+00
         21   -1    0    0  503  502  0.00000000000E+00  0.00000000000E+00  0.16567823071E+03  0.16567823071E+03  0.00000000000E+00 0. -1.
         21   -1    0    0  501  503 -0.00000000000E+00 -0.00000000000E+00 -0.19351488147E+03  0.19351488147E+03  0.00000000000E+00 0. -1.
          6    1    1    2  501    0  0.70685537720E+01 -0.12955461589E+02 -0.57804107478E+02  0.18299760457E+03  0.17300000000E+03 0. -1.
         -6    1    1    2    0  502 -0.70685537720E+01  0.12955461589E+02  0.29967456722E+02  0.17619550760E+03  0.17300000000E+03 0. -1.
<mgrwt>
<rscale>  2 0.17362836E+03</rscale>
<asrwt>0</asrwt>
<pdfrwt beam="1">  1       21 0.25488959E-01 0.17362836E+03</pdfrwt>
<pdfrwt beam="2">  1       21 0.29771520E-01 0.17362836E+03</pdfrwt>
<totfact> 0.15882957E+05</totfact>
</mgrwt>
</event>
<event>
 4    2  0.3903561E+000  0.2178982E+03  0.7546771E-02  0.1135460E+00
         21   -1    0    0  501  502  0.00000000000E+00  0.00000000000E+00  0.30381937274E+03  0.30381937274E+03  0.00000000000E+00 0. -1.
         21   -1    0    0  502  503 -0.00000000000E+00 -0.00000000000E+00 -0.23126354749E+03  0.23126354749E+03  0.00000000000E+00 0.  1.
          6    1    1    2  501    0  0.11946834115E+03 -0.57253494644E+02  0.18862436789E+03  0.28819923551E+03  0.17300000000E+03 0. -1.
         -6    1    1    2    0  503 -0.11946834115E+03  0.57253494644E+02 -0.11606854264E+03  0.24688368471E+03  0.17300000000E+03 0.  1.
<mgrwt>
<rscale>  2 0.21789825E+03</rscale>
<asrwt>0</asrwt>
<pdfrwt beam="1">  1       21 0.46741442E-01 0.21789825E+03</pdfrwt>
<pdfrwt beam="2">  1       21 0.35579008E-01 0.21789825E+03</pdfrwt>
<totfact> 0.32940119E+04</totfact>
</mgrwt>
</event>
<event>
 4    2  0.3903561E+000  0.3271804E+03  0.7546771E-02  0.1072391E+00
         21   -1    0    0  503  502  0.00000000000E+00  0.00000000000E+00  0.11884545049E+03  0.11884545049E+03  0.00000000000E+00 0.  1.
         21   -1    0    0  501  503 -0.00000000000E+00 -0.00000000000E+00 -0.17503101479E+04  0.17503101479E+04  0.00000000000E+00 0.  1.
          6    1    1    2  501    0  0.23470688210E+03 -0.14842739079E+03 -0.14668530967E+04  0.15028988716E+04  0.17300000000E+03 0.  1.
         -6    1    1    2    0  502 -0.23470688210E+03  0.14842739079E+03 -0.16461160065E+03  0.36625672678E+03  0.17300000000E+03 0.  1.
<mgrwt>
<rscale>  2 0.32718039E+03</rscale>
<asrwt>0</asrwt>
<pdfrwt beam="1">  1       21 0.18283915E-01 0.32718039E+03</pdfrwt>
<pdfrwt beam="2">  1       21 0.26927849E+00 0.32718039E+03</pdfrwt>
<totfact> 0.12328709E+03</totfact>
</mgrwt>
</event>
<event>
 4    2  0.3903561E+000  0.1806812E+03  0.7546771E-02  0.1167145E+00
         21   -1    0    0  503  502  0.00000000000E+00  0.00000000000E+00  0.24532238065E+02  0.24532238065E+02  0.00000000000E+00 0.  1.
         21   -1    0    0  501  503 -0.00000000000E+00 -0.00000000000E+00 -0.13362262553E+04  0.13362262553E+04  0.00000000000E+00 0. -1.
          6    1    1    2  501    0  0.50213617590E+02  0.13974393282E+02 -0.61219582744E+03  0.63830198354E+03  0.17300000000E+03 0.  1.
         -6    1    1    2    0  502 -0.50213617590E+02 -0.13974393282E+02 -0.69949818977E+03  0.72245650980E+03  0.17300000000E+03 0. -1.
<mgrwt>
<rscale>  2 0.18068119E+03</rscale>
<asrwt>0</asrwt>
<pdfrwt beam="1">  1       21 0.37741892E-02 0.18068119E+03</pdfrwt>
<pdfrwt beam="2">  1       21 0.20557334E+00 0.18068119E+03</pdfrwt>
<totfact> 0.53862009E+04</totfact>
</mgrwt>
</event>
<event>
 4    2  0.3903561E+000  0.1772706E+03  0.7546771E-02  0.1170471E+00
         21   -1    0    0  503  502  0.00000000000E+00  0.00000000000E+00  0.10095611316E+04  0.10095611316E+04  0.00000000000E+00 0. -1.
         21   -1    0    0  501  503 -0.00000000000E+00 -0.00000000000E+00 -0.33926254500E+02  0.33926254500E+02  0.00000000000E+00 0. -1.
          6    1    1    2  501    0 -0.20190940475E+02  0.32987733452E+02  0.33795567969E+03  0.38162665797E+03  0.17300000000E+03 0. -1.
         -6    1    1    2    0  502  0.20190940475E+02 -0.32987733452E+02  0.63767919739E+03  0.66186072811E+03  0.17300000000E+03 0. -1.
<mgrwt>
<rscale>  2 0.17727060E+03</rscale>
<asrwt>0</asrwt>
<pdfrwt beam="1">  1       21 0.15531707E+00 0.17727060E+03</pdfrwt>
<pdfrwt beam="2">  1       21 0.52194245E-02 0.17727060E+03</pdfrwt>
<totfact> 0.68731094E+04</totfact>
</mgrwt>
</event>
<event>
 4    2  0.3903561E+000  0.1738387E+03  0.7546771E-02  0.1173903E+00
         21   -1    0    0  503  502  0.00000000000E+00  0.00000000000E+00  0.39936200255E+03  0.39936200255E+03  0.00000000000E+00 0.  1.
         21   -1    0    0  501  503 -0.00000000000E+00 -0.00000000000E+00 -0.78097240940E+02  0.78097240940E+02  0.00000000000E+00 0.  1.
          6    1    1    2  501    0 -0.17009390262E+02 -0.12510315458E+01  0.11854918801E+03  0.21041338934E+03  0.17300000000E+03 0.  1.
         -6    1    1    2    0  502  0.17009390262E+02  0.12510315458E+01  0.20271557360E+03  0.26704585414E+03  0.17300000000E+03 0.  1.
<mgrwt>
<rscale>  2 0.17383867E+03</rscale>
<asrwt>0</asrwt>
<pdfrwt beam="1">  1       21 0.61440307E-01 0.17383867E+03</pdfrwt>
<pdfrwt beam="2">  1       21 0.12014960E-01 0.17383867E+03</pdfrwt>
<totfact> 0.14509213E+05</totfact>
</mgrwt>
</event>
<event>
 4    2  0.3903561E+000  0.2231007E+03  0.7546771E-02  0.1131592E+00
         21   -1    0    0  503  502  0.00000000000E+00  0.00000000000E+00  0.41085172221E+03  0.41085172221E+03  0.00000000000E+00 0.  1.
         21   -1    0    0  501  503 -0.00000000000E+00 -0.00000000000E+00 -0.12192724795E+03  0.12192724795E+03  0.00000000000E+00 0. -1.
          6    1    1    2  501    0 -0.11506674380E+03 -0.81268450598E+02  0.16575682071E+03  0.27793747535E+03  0.17300000000E+03 0. -1.
         -6    1    1    2    0  502  0.11506674380E+03  0.81268450598E+02  0.12316765354E+03  0.25484149480E+03  0.17300000000E+03 0.  1.
<mgrwt>
<rscale>  2 0.22310069E+03</rscale>
<asrwt>0</asrwt>
<pdfrwt beam="1">  1       21 0.63207957E-01 0.22310069E+03</pdfrwt>
<pdfrwt beam="2">  1       21 0.18758038E-01 0.22310069E+03</pdfrwt>
<totfact> 0.59407838E+04</totfact>
</mgrwt>
</event>
<event>
 4    2  0.3903561E+000  0.2047353E+03  0.7546771E-02  0.1145804E+00
         21   -1    0    0  501  502  0.00000000000E+00  0.00000000000E+00  0.36864330160E+03  0.36864330160E+03  0.00000000000E+00 0.  1.
         21   -1    0    0  502  503 -0.00000000000E+00 -0.00000000000E+00 -0.13501222195E+03  0.13501222195E+03  0.00000000000E+00 0.  1.
          6    1    1    2  501    0 -0.10927715115E+03 -0.67853058692E+01  0.16773653170E+02  0.20542125396E+03  0.17300000000E+03 0.  1.
         -6    1    1    2    0  503  0.10927715115E+03  0.67853058692E+01  0.21685742648E+03  0.29823426959E+03  0.17300000000E+03 0.  1.
<mgrwt>
<rscale>  2 0.20473528E+03</rscale>
<asrwt>0</asrwt>
<pdfrwt beam="1">  1       21 0.56714354E-01 0.20473528E+03</pdfrwt>
<pdfrwt beam="2">  1       21 0.20771111E-01 0.20473528E+03</pdfrwt>
<totfact> 0.62501738E+04</totfact>
</mgrwt>
</event>
<event>
 4    2  0.3903561E+000  0.1770697E+03  0.7546771E-02  0.1170670E+00
         21   -1    0    0  501  502  0.00000000000E+00  0.00000000000E+00  0.71136473163E+02  0.71136473163E+02  0.00000000000E+00 0. -1.
         21   -1    0    0  502  503 -0.00000000000E+00 -0.00000000000E+00 -0.44393707986E+03  0.44393707986E+03  0.00000000000E+00 0. -1.
          6    1    1    2  501    0  0.32758304423E+02 -0.18750243276E+02 -0.20820795934E+03  0.27332075015E+03  0.17300000000E+03 0. -1.
         -6    1    1    2    0  503 -0.32758304423E+02  0.18750243276E+02 -0.16459264736E+03  0.24175280287E+03  0.17300000000E+03 0. -1.
<mgrwt>
<rscale>  2 0.17706970E+03</rscale>
<asrwt>0</asrwt>
<pdfrwt beam="1">  1       21 0.10944073E-01 0.17706970E+03</pdfrwt>
<pdfrwt beam="2">  1       21 0.68298012E-01 0.17706970E+03</pdfrwt>
<totfact> 0.13601051E+05</totfact>
</mgrwt>
</event>
<event>
 4    2  0.3903561E+000  0.1879044E+03  0.7546771E-02  0.1160365E+00
         21   -1    0    0  503  502  0.00000000000E+00  0.00000000000E+00  0.44434148728E+03  0.44434148728E+03  0.00000000000E+00 0.  1.
         21   -1    0    0  501  503 -0.00000000000E+00 -0.00000000000E+00 -0.11303144883E+03  0.11303144883E+03  0.00000000000E+00 0.  1.
          6    1    1    2  501    0  0.70521801898E+02 -0.20142580179E+02  0.13778207272E+02  0.18840882961E+03  0.17300000000E+03 0.  1.
         -6    1    1    2    0  502 -0.70521801898E+02  0.20142580179E+02  0.31753183117E+03  0.36896410650E+03  0.17300000000E+03 0.  1.
<mgrwt>
<rscale>  2 0.18790436E+03</rscale>
<asrwt>0</asrwt>
<pdfrwt beam="1">  1       21 0.68360228E-01 0.18790436E+03</pdfrwt>
<pdfrwt beam="2">  1       21 0.17389454E-01 0.18790436E+03</pdfrwt>
<totfact> 0.58538558E+04</totfact>
</mgrwt>
</event>
<event>
 4    2  0.3903561E+000  0.3081652E+03  0.7546771E-02  0.1081229E+00
         21   -1    0    0  501  502  0.00000000000E+00  0.00000000000E+00  0.44644488346E+03  0.44644488346E+03  0.00000000000E+00 0.  1.
         21   -1    0    0  502  503 -0.00000000000E+00 -0.00000000000E+00 -0.21909273508E+03  0.21909273508E+03  0.00000000000E+00 0. -1.
          6    1    1    2  501    0  0.11614703426E+03 -0.22703882358E+03  0.56902826153E+02  0.31337468405E+03  0.17300000000E+03 0. -1.
         -6    1    1    2    0  503 -0.11614703426E+03  0.22703882358E+03  0.17044932223E+03  0.35216293449E+03  0.17300000000E+03 0.  1.
<mgrwt>
<rscale>  2 0.30816515E+03</rscale>
<asrwt>0</asrwt>
<pdfrwt beam="1">  1       21 0.68683828E-01 0.30816515E+03</pdfrwt>
<pdfrwt beam="2">  1       21 0.33706575E-01 0.30816515E+03</pdfrwt>
<totfact> 0.15437775E+04</totfact>
</mgrwt>
</event>
<event>
 4    2  0.3903561E+000  0.2139301E+03  0.7546771E-02  0.1138491E+00
         21   -1    0    0  501  502  0.00000000000E+00  0.00000000000E+00  0.32305160724E+03  0.32305160724E+03  0.00000000000E+00 0. -1.
         21   -1    0    0  502  503 -0.00000000000E+00 -0.00000000000E+00 -0.14555870091E+03  0.14555870091E+03  0.00000000000E+00 0. -1.
          6    1    1    2  501    0  0.29386530015E+02  0.12236634106E+03  0.12705310363E+03  0.24881434990E+03  0.17300000000E+03 0. -1.
         -6    1    1    2    0  503 -0.29386530015E+02 -0.12236634106E+03  0.50439802698E+02  0.21979595826E+03  0.17300000000E+03 0. -1.
<mgrwt>
<rscale>  2 0.21393010E+03</rscale>
<asrwt>0</asrwt>
<pdfrwt beam="1">  1       21 0.49700247E-01 0.21393010E+03</pdfrwt>
<pdfrwt beam="2">  1       21 0.22393646E-01 0.21393010E+03</pdfrwt>
<totfact> 0.71361047E+04</totfact>
</mgrwt>
</event>
<event>
 4    2  0.3903561E+000  0.1794463E+03  0.7546771E-02  0.1168340E+00
         21   -1    0    0  501  502  0.00000000000E+00  0.00000000000E+00  0.11431830564E+03  0.11431830564E+03  0.00000000000E+00 0. -1.
         21   -1    0    0  502  503 -0.00000000000E+00 -0.00000000000E+00 -0.40035438338E+03  0.40035438338E+03  0.00000000000E+00 0. -1.
          6    1    1    2  501    0 -0.28130719260E+01  0.47582148616E+02 -0.29107839545E+01  0.17946990529E+03  0.17300000000E+03 0. -1.
         -6    1    1    2    0  503  0.28130719260E+01 -0.47582148616E+02 -0.28312529378E+03  0.33520278373E+03  0.17300000000E+03 0. -1.
<mgrwt>
<rscale>  2 0.17944630E+03</rscale>
<asrwt>0</asrwt>
<pdfrwt beam="1">  1       21 0.17587432E-01 0.17944630E+03</pdfrwt>
<pdfrwt beam="2">  1       21 0.61592982E-01 0.17944630E+03</pdfrwt>
<totfact> 0.72175495E+04</totfact>
</mgrwt>
</event>
<event>
 4    2  0.3903561E+000  0.1842093E+03  0.7546771E-02  0.1163790E+00
         21   -1    0    0  501  502  0.00000000000E+00  0.00000000000E+00  0.52635192822E+02  0.52635192822E+02  0.00000000000E+00 0. -1.
         21   -1    0    0  502  503 -0.00000000000E+00 -0.00000000000E+00 -0.64974559037E+03  0.64974559037E+03  0.00000000000E+00 0. -1.
          6    1    1    2  501    0  0.31702664813E+02 -0.54763042144E+02 -0.26755758713E+03  0.32483859403E+03  0.17300000000E+03 0. -1.
         -6    1    1    2    0  503 -0.31702664813E+02  0.54763042144E+02 -0.32955281041E+03  0.37754218916E+03  0.17300000000E+03 0. -1.
<mgrwt>
<rscale>  2 0.18420926E+03</rscale>
<asrwt>0</asrwt>
<pdfrwt beam="1">  1       21 0.80977220E-02 0.18420926E+03</pdfrwt>
<pdfrwt beam="2">  1       21 0.99960859E-01 0.18420926E+03</pdfrwt>
<totfact> 0.96884180E+04</totfact>
</mgrwt>
</event>
<event>
 4    2  0.3903561E+000  0.1939625E+03  0.7546771E-02  0.1154935E+00
         21   -1    0    0  501  502  0.00000000000E+00  0.00000000000E+00  0.92534861906E+03  0.92534861906E+03  0.00000000000E+00 0. -1.
         21   -1    0    0  502  503 -0.00000000000E+00 -0.00000000000E+00 -0.74093454014E+02  0.74093454014E+02  0.00000000000E+00 0. -1.
          6    1    1    2  501    0 -0.87699238279E+02  0.11357108446E+01  0.76132731473E+03  0.78564669311E+03  0.17300000000E+03 0. -1.
         -6    1    1    2    0  503  0.87699238279E+02 -0.11357108446E+01  0.89927850319E+02  0.21379537997E+03  0.17300000000E+03 0. -1.
<mgrwt>
<rscale>  2 0.19396249E+03</rscale>
<asrwt>0</asrwt>
<pdfrwt beam="1">  1       21 0.14236132E+00 0.19396249E+03</pdfrwt>
<pdfrwt beam="2">  1       21 0.11398994E-01 0.19396249E+03</pdfrwt>
<totfact> 0.22022199E+04</totfact>
</mgrwt>
</event>
<event>
 4    2  0.3903561E+000  0.2467247E+03  0.7546771E-02  0.1115392E+00
         21   -1    0    0  503  502  0.00000000000E+00  0.00000000000E+00  0.24855873444E+03  0.24855873444E+03  0.00000000000E+00 0.  1.
         21   -1    0    0  501  503 -0.00000000000E+00 -0.00000000000E+00 -0.24569989991E+03  0.24569989991E+03  0.00000000000E+00 0. -1.
          6    1    1    2  501    0 -0.10761809388E+03  0.13914900005E+03 -0.12633457476E+02  0.24704797630E+03  0.17300000000E+03 0. -1.
         -6    1    1    2    0  502  0.10761809388E+03 -0.13914900005E+03  0.15492292007E+02  0.24721065806E+03  0.17300000000E+03 0.  1.
<mgrwt>
<rscale>  2 0.24672474E+03</rscale>
<asrwt>0</asrwt>
<pdfrwt beam="1">  1       21 0.38239805E-01 0.24672474E+03</pdfrwt>
<pdfrwt beam="2">  1       21 0.37799985E-01 0.24672474E+03</pdfrwt>
<totfact> 0.43414128E+04</totfact>
</mgrwt>
</event>
<event>
 4    2  0.3903561E+000  0.1769919E+03  0.7546771E-02  0.1170746E+00
         21   -1    0    0  503  502  0.00000000000E+00  0.00000000000E+00  0.11510358293E+03  0.11510358293E+03  0.00000000000E+00 0. -1.
         21   -1    0    0  501  503 -0.00000000000E+00 -0.00000000000E+00 -0.65346393023E+03  0.65346393023E+03  0.00000000000E+00 0. -1.
          6    1    1    2  501    0 -0.58031429355E+01 -0.36925224173E+02 -0.56272812063E+03  0.58990599793E+03  0.17300000000E+03 0. -1.
         -6    1    1    2    0  502  0.58031429355E+01  0.36925224173E+02  0.24367773328E+02  0.17866151523E+03  0.17300000000E+03 0. -1.
<mgrwt>
<rscale>  2 0.17699195E+03</rscale>
<asrwt>0</asrwt>
<pdfrwt beam="1">  1       21 0.17708244E-01 0.17699195E+03</pdfrwt>
<pdfrwt beam="2">  1       21 0.10053291E+00 0.17699195E+03</pdfrwt>
<totfact> 0.23679244E+04</totfact>
</mgrwt>
</event>
<event>
 4    2  0.3903561E+000  0.1730453E+03  0.7546771E-02  0.1174709E+00
         21   -1    0    0  503  502  0.00000000000E+00  0.00000000000E+00  0.12509275065E+03  0.12509275065E+03  0.00000000000E+00 0.  1.
         21   -1    0    0  501  503 -0.00000000000E+00 -0.00000000000E+00 -0.46144255762E+03  0.46144255762E+03  0.00000000000E+00 0.  1.
          6    1    1    2  501    0 -0.29585531026E+01  0.26326114567E+01 -0.37161809460E+03  0.40993254557E+03  0.17300000000E+03 0.  1.
         -6    1    1    2    0  502  0.29585531026E+01 -0.26326114567E+01  0.35268287636E+02  0.17660276270E+03  0.17300000000E+03 0.  1.
<mgrwt>
<rscale>  2 0.17304532E+03</rscale>
<asrwt>0</asrwt>
<pdfrwt beam="1">  1       21 0.19245039E-01 0.17304532E+03</pdfrwt>
<pdfrwt beam="2">  1       21 0.70991162E-01 0.17304532E+03</pdfrwt>
<totfact> 0.44987277E+04</totfact>
</mgrwt>
</event>
<event>
 4    2  0.3903561E+000  0.1853220E+03  0.7546771E-02  0.1162750E+00
         21   -1    0    0  501  502  0.00000000000E+00  0.00000000000E+00  0.24842919300E+02  0.24842919300E+02  0.00000000000E+00 0. -1.
         21   -1    0    0  502  503 -0.00000000000E+00 -0.00000000000E+00 -0.17570548221E+04  0.17570548221E+04  0.00000000000E+00 0. -1.
          6    1    1    2  501    0 -0.65010901394E+02  0.13741964960E+02 -0.45472615904E+03  0.49103985441E+03  0.17300000000E+03 0. -1.
         -6    1    1    2    0  503  0.65010901394E+02 -0.13741964960E+02 -0.12774857437E+04  0.12908578870E+04  0.17300000000E+03 0. -1.
<mgrwt>
<rscale>  2 0.18532204E+03</rscale>
<asrwt>0</asrwt>
<pdfrwt beam="1">  1       21 0.38219872E-02 0.18532204E+03</pdfrwt>
<pdfrwt beam="2">  1       21 0.27031615E+00 0.18532204E+03</pdfrwt>
<totfact> 0.21553516E+04</totfact>
</mgrwt>
</event>
<event>
 4    2  0.3903561E+000  0.1810643E+03  0.7546771E-02  0.1166777E+00
         21   -1    0    0  501  502  0.00000000000E+00  0.00000000000E+00  0.42472053604E+03  0.42472053604E+03  0.00000000000E+00 0.  1.
         21   -1    0    0  502  503 -0.00000000000E+00 -0.00000000000E+00 -0.16998586205E+03  0.16998586205E+03  0.00000000000E+00 0.  1.
          6    1    1    2  501    0  0.45431397507E+02  0.28129314228E+02  0.34706731450E+03  0.39145879859E+03  0.17300000000E+03 0.  1.
         -6    1    1    2    0  503 -0.45431397507E+02 -0.28129314228E+02 -0.92332640507E+02  0.20324759950E+03  0.17300000000E+03 0.  1.
<mgrwt>
<rscale>  2 0.18106427E+03</rscale>
<asrwt>0</asrwt>
<pdfrwt beam="1">  1       21 0.65341620E-01 0.18106427E+03</pdfrwt>
<pdfrwt beam="2">  1       21 0.26151671E-01 0.18106427E+03</pdfrwt>
<totfact> 0.30131550E+04</totfact>
</mgrwt>
</event>
<event>
 4    2  0.3903561E+000  0.1912308E+03  0.7546771E-02  0.1157356E+00
         21   -1    0    0  501  502  0.00000000000E+00  0.00000000000E+00  0.89550436650E+03  0.89550436650E+03  0.00000000000E+00 0. -1.
         21   -1    0    0  502  503 -0.00000000000E+00 -0.00000000000E+00 -0.10252985542E+03  0.10252985542E+03  0.00000000000E+00 0. -1.
          6    1    1    2  501    0  0.53689168117E+02 -0.61300012763E+02  0.78357519536E+03  0.80657256656E+03  0.17300000000E+03 0. -1.
         -6    1    1    2    0  503 -0.53689168117E+02  0.61300012763E+02  0.93993157238E+01  0.19146165536E+03  0.17300000000E+03 0. -1.
<mgrwt>
<rscale>  2 0.19123080E+03</rscale>
<asrwt>0</asrwt>
<pdfrwt beam="1">  1       21 0.13776990E+00 0.19123080E+03</pdfrwt>
<pdfrwt beam="2">  1       21 0.15773825E-01 0.19123080E+03</pdfrwt>
<totfact> 0.13361318E+04</totfact>
</mgrwt>
</event>
<event>
 4    2  0.3903561E+000  0.1917773E+03  0.7546771E-02  0.1156868E+00
         21   -1    0    0  501  502  0.00000000000E+00  0.00000000000E+00  0.24721319816E+03  0.24721319816E+03  0.00000000000E+00 0. -1.
         21   -1    0    0  502  503 -0.00000000000E+00 -0.00000000000E+00 -0.15056859836E+03  0.15056859836E+03  0.00000000000E+00 0. -1.
          6    1    1    2  501    0 -0.51269215152E+02  0.64969131165E+02  0.70045072512E+02  0.20416863767E+03  0.17300000000E+03 0. -1.
         -6    1    1    2    0  503  0.51269215152E+02 -0.64969131165E+02  0.26599527281E+02  0.19361315885E+03  0.17300000000E+03 0. -1.
<mgrwt>
<rscale>  2 0.19177727E+03</rscale>
<asrwt>0</asrwt>
<pdfrwt beam="1">  1       21 0.38032800E-01 0.19177727E+03</pdfrwt>
<pdfrwt beam="2">  1       21 0.23164400E-01 0.19177727E+03</pdfrwt>
<totfact> 0.11678674E+05</totfact>
</mgrwt>
</event>
<event>
 4    2  0.3903561E+000  0.1753968E+03  0.7546771E-02  0.1172334E+00
         21   -1    0    0  501  502  0.00000000000E+00  0.00000000000E+00  0.24462216350E+03  0.24462216350E+03  0.00000000000E+00 0. -1.
         21   -1    0    0  502  503 -0.00000000000E+00 -0.00000000000E+00 -0.14086491402E+03  0.14086491402E+03  0.00000000000E+00 0. -1.
          6    1    1    2  501    0  0.27581060563E+02  0.86207190543E+01  0.11499136881E+03  0.20973089090E+03  0.17300000000E+03 0. -1.
         -6    1    1    2    0  503 -0.27581060563E+02 -0.86207190543E+01 -0.11234119331E+02  0.17575618662E+03  0.17300000000E+03 0. -1.
<mgrwt>
<rscale>  2 0.17539678E+03</rscale>
<asrwt>0</asrwt>
<pdfrwt beam="1">  1       21 0.37634179E-01 0.17539678E+03</pdfrwt>
<pdfrwt beam="2">  1       21 0.21671525E-01 0.17539678E+03</pdfrwt>
<totfact> 0.13600929E+05</totfact>
</mgrwt>
</event>
<event>
 4    2  0.3903561E+000  0.2484359E+03  0.7546771E-02  0.1114297E+00
         21   -1    0    0  501  502  0.00000000000E+00  0.00000000000E+00  0.65308203068E+02  0.65308203068E+02  0.00000000000E+00 0.  1.
         21   -1    0    0  502  503 -0.00000000000E+00 -0.00000000000E+00 -0.19245945324E+04  0.19245945324E+04  0.00000000000E+00 0. -1.
          6    1    1    2  501    0  0.13596601314E+03 -0.11534564272E+03 -0.21983430811E+03  0.33173407580E+03  0.17300000000E+03 0.  1.
         -6    1    1    2    0  503 -0.13596601314E+03  0.11534564272E+03 -0.16394520213E+04  0.16581686597E+04  0.17300000000E+03 0. -1.
<mgrwt>
<rscale>  2 0.24843585E+03</rscale>
<asrwt>0</asrwt>
<pdfrwt beam="1">  1       21 0.10047416E-01 0.24843585E+03</pdfrwt>
<pdfrwt beam="2">  1       21 0.29609145E+00 0.24843585E+03</pdfrwt>
<totfact> 0.27237299E+03</totfact>
</mgrwt>
</event>
<event>
 4    2  0.3903561E+000  0.1867294E+03  0.7546771E-02  0.1161445E+00
         21   -1    0    0  503  502  0.00000000000E+00  0.00000000000E+00  0.15758356903E+04  0.15758356903E+04  0.00000000000E+00 0. -1.
         21   -1    0    0  501  503 -0.00000000000E+00 -0.00000000000E+00 -0.24738078417E+02  0.24738078417E+02  0.00000000000E+00 0. -1.
          6    1    1    2  501    0 -0.61738341104E+02  0.33574316266E+02  0.51552839320E+03  0.54830409599E+03  0.17300000000E+03 0. -1.
         -6    1    1    2    0  502  0.61738341104E+02 -0.33574316266E+02  0.10355692187E+04  0.10522696727E+04  0.17300000000E+03 0. -1.
<mgrwt>
<rscale>  2 0.18672937E+03</rscale>
<asrwt>0</asrwt>
<pdfrwt beam="1">  1       21 0.24243618E+00 0.18672937E+03</pdfrwt>
<pdfrwt beam="2">  1       21 0.38058595E-02 0.18672937E+03</pdfrwt>
<totfact> 0.31536408E+04</totfact>
</mgrwt>
</event>
<event>
 4    2  0.3903561E+000  0.3462585E+03  0.7546771E-02  0.1064161E+00
         21   -1    0    0  501  502  0.00000000000E+00  0.00000000000E+00  0.73303347148E+03  0.73303347148E+03  0.00000000000E+00 0. -1.
         21   -1    0    0  502  503 -0.00000000000E+00 -0.00000000000E+00 -0.16406639514E+03  0.16406639514E+03  0.00000000000E+00 0.  1.
          6    1    1    2  501    0  0.29990728639E+03  0.46464911929E+01  0.30940287911E+03  0.46435451102E+03  0.17300000000E+03 0. -1.
         -6    1    1    2    0  503 -0.29990728639E+03 -0.46464911929E+01  0.25956419723E+03  0.43274535560E+03  0.17300000000E+03 0.  1.
<mgrwt>
<rscale>  2 0.34625853E+03</rscale>
<asrwt>0</asrwt>
<pdfrwt beam="1">  1       21 0.11277438E+00 0.34625853E+03</pdfrwt>
<pdfrwt beam="2">  1       21 0.25240984E-01 0.34625853E+03</pdfrwt>
<totfact> 0.83987322E+03</totfact>
</mgrwt>
</event>
<event>
 4    2  0.3903561E+000  0.2577734E+03  0.7546771E-02  0.1108488E+00
         21   -1    0    0  501  502  0.00000000000E+00  0.00000000000E+00  0.44536509845E+03  0.44536509845E+03  0.00000000000E+00 0. -1.
         21   -1    0    0  502  503 -0.00000000000E+00 -0.00000000000E+00 -0.24544566967E+03  0.24544566967E+03  0.00000000000E+00 0. -1.
          6    1    1    2  501    0 -0.18167756756E+03 -0.59257004020E+02  0.31625587544E+03  0.40800111499E+03  0.17300000000E+03 0. -1.
         -6    1    1    2    0  503  0.18167756756E+03  0.59257004020E+02 -0.11633644666E+03  0.28280965313E+03  0.17300000000E+03 0. -1.
<mgrwt>
<rscale>  2 0.25777341E+03</rscale>
<asrwt>0</asrwt>
<pdfrwt beam="1">  1       21 0.68517708E-01 0.25777341E+03</pdfrwt>
<pdfrwt beam="2">  1       21 0.37760872E-01 0.25777341E+03</pdfrwt>
<totfact> 0.12643034E+04</totfact>
</mgrwt>
</event>
<event>
 4    2  0.3903561E+000  0.2126704E+03  0.7546771E-02  0.1139469E+00
         21   -1    0    0  503  502  0.00000000000E+00  0.00000000000E+00  0.34001735884E+03  0.34001735884E+03  0.00000000000E+00 0.  1.
         21   -1    0    0  501  503 -0.00000000000E+00 -0.00000000000E+00 -0.16108720893E+03  0.16108720893E+03  0.00000000000E+00 0.  1.
          6    1    1    2  501    0 -0.12217727736E+03 -0.19298400782E+02 -0.15121612786E+02  0.21320736045E+03  0.17300000000E+03 0.  1.
         -6    1    1    2    0  502  0.12217727736E+03  0.19298400782E+02  0.19405176270E+03  0.28789720732E+03  0.17300000000E+03 0.  1.
<mgrwt>
<rscale>  2 0.21267044E+03</rscale>
<asrwt>0</asrwt>
<pdfrwt beam="1">  1       21 0.52310363E-01 0.21267044E+03</pdfrwt>
<pdfrwt beam="2">  1       21 0.24782648E-01 0.21267044E+03</pdfrwt>
<totfact> 0.52887453E+04</totfact>
</mgrwt>
</event>
<event>
 4    2  0.3903561E+000  0.2005093E+03  0.7546771E-02  0.1149310E+00
         21   -1    0    0  501  502  0.00000000000E+00  0.00000000000E+00  0.11814786518E+03  0.11814786518E+03  0.00000000000E+00 0.  1.
         21   -1    0    0  502  503 -0.00000000000E+00 -0.00000000000E+00 -0.46146070406E+03  0.46146070406E+03  0.00000000000E+00 0.  1.
          6    1    1    2  501    0 -0.95266722709E+02 -0.34630012289E+02 -0.23150210878E+02  0.20184132003E+03  0.17300000000E+03 0.  1.
         -6    1    1    2    0  503  0.95266722709E+02  0.34630012289E+02 -0.32016262800E+03  0.37776724921E+03  0.17300000000E+03 0.  1.
<mgrwt>
<rscale>  2 0.20050932E+03</rscale>
<asrwt>0</asrwt>
<pdfrwt beam="1">  1       21 0.18176595E-01 0.20050932E+03</pdfrwt>
<pdfrwt beam="2">  1       21 0.70993954E-01 0.20050932E+03</pdfrwt>
<totfact> 0.49331766E+04</totfact>
</mgrwt>
</event>
<event>
 4    2  0.3903561E+000  0.3954550E+03  0.7546771E-02  0.1045365E+00
         21   -1    0    0  503  502  0.00000000000E+00  0.00000000000E+00  0.67939467711E+02  0.67939467711E+02  0.00000000000E+00 0.  1.
         21   -1    0    0  501  503 -0.00000000000E+00 -0.00000000000E+00 -0.33677132159E+04  0.33677132159E+04  0.00000000000E+00 0.  1.
          6    1    1    2  501    0 -0.34080682579E+03 -0.10152038530E+03 -0.26163110600E+04  0.26460287686E+04  0.17300000000E+03 0.  1.
         -6    1    1    2    0  502  0.34080682579E+03  0.10152038530E+03 -0.68346268817E+03  0.78962391507E+03  0.17300000000E+03 0.  1.
<mgrwt>
<rscale>  2 0.39545503E+03</rscale>
<asrwt>0</asrwt>
<pdfrwt beam="1">  1       21 0.10452226E-01 0.39545503E+03</pdfrwt>
<pdfrwt beam="2">  1       21 0.51810973E+00 0.39545503E+03</pdfrwt>
<totfact> 0.82385354E+01</totfact>
</mgrwt>
</event>
<event>
 4    2  0.3903561E+000  0.1979388E+03  0.7546771E-02  0.1151490E+00
         21   -1    0    0  503  502  0.00000000000E+00  0.00000000000E+00  0.16390695661E+04  0.16390695661E+04  0.00000000000E+00 0. -1.
         21   -1    0    0  501  503 -0.00000000000E+00 -0.00000000000E+00 -0.48961653671E+02  0.48961653671E+02  0.00000000000E+00 0.  1.
          6    1    1    2  501    0  0.29360469380E+01  0.96136083144E+02  0.19125054809E+03  0.27523905791E+03  0.17300000000E+03 0.  1.
         -6    1    1    2    0  502 -0.29360469380E+01 -0.96136083144E+02  0.13988573643E+04  0.14127921619E+04  0.17300000000E+03 0. -1.
<mgrwt>
<rscale>  2 0.19793880E+03</rscale>
<asrwt>0</asrwt>
<pdfrwt beam="1">  1       21 0.25216451E+00 0.19793880E+03</pdfrwt>
<pdfrwt beam="2">  1       21 0.75325634E-02 0.19793880E+03</pdfrwt>
<totfact> 0.85595169E+03</totfact>
</mgrwt>
</event>
<event>
 4    2  0.3903561E+000  0.2250949E+03  0.7546771E-02  0.1130141E+00
         21   -1    0    0  503  502  0.00000000000E+00  0.00000000000E+00  0.15179202632E+03  0.15179202632E+03  0.00000000000E+00 0.  1.
         21   -1    0    0  501  503 -0.00000000000E+00 -0.00000000000E+00 -0.38320147846E+03  0.38320147846E+03  0.00000000000E+00 0. -1.
          6    1    1    2  501    0  0.11902382116E+03 -0.81068167870E+02 -0.21175270590E+03  0.30904194910E+03  0.17300000000E+03 0. -1.
         -6    1    1    2    0  502 -0.11902382116E+03  0.81068167870E+02 -0.19656746241E+02  0.22595155569E+03  0.17300000000E+03 0.  1.
<mgrwt>
<rscale>  2 0.22509491E+03</rscale>
<asrwt>0</asrwt>
<pdfrwt beam="1">  1       21 0.23352620E-01 0.22509491E+03</pdfrwt>
<pdfrwt beam="2">  1       21 0.58954073E-01 0.22509491E+03</pdfrwt>
<totfact> 0.45680221E+04</totfact>
</mgrwt>
</event>
<event>
 4    2  0.3903561E+000  0.1982889E+03  0.7546771E-02  0.1151191E+00
         21   -1    0    0  501  502  0.00000000000E+00  0.00000000000E+00  0.84514254918E+02  0.84514254918E+02  0.00000000000E+00 0. -1.
         21   -1    0    0  502  503 -0.00000000000E+00 -0.00000000000E+00 -0.62041102357E+03  0.62041102357E+03  0.00000000000E+00 0. -1.
          6    1    1    2  501    0 -0.63384752331E+02  0.73292963614E+02 -0.44422471063E+03  0.48647104629E+03  0.17300000000E+03 0. -1.
         -6    1    1    2    0  503  0.63384752331E+02 -0.73292963614E+02 -0.91672058023E+02  0.21845423220E+03  0.17300000000E+03 0. -1.
<mgrwt>
<rscale>  2 0.19828889E+03</rscale>
<asrwt>0</asrwt>
<pdfrwt beam="1">  1       21 0.13002194E-01 0.19828889E+03</pdfrwt>
<pdfrwt beam="2">  1       21 0.95447846E-01 0.19828889E+03</pdfrwt>
<totfact> 0.46421387E+04</totfact>
</mgrwt>
</event>
<event>
 4    2  0.3903561E+000  0.3037708E+03  0.7546771E-02  0.1083371E+00
         21   -1    0    0  503  502  0.00000000000E+00  0.00000000000E+00  0.90745521719E+03  0.90745521719E+03  0.00000000000E+00 0. -1.
         21   -1    0    0  501  503 -0.00000000000E+00 -0.00000000000E+00 -0.10257908607E+03  0.10257908607E+03  0.00000000000E+00 0.  1.
          6    1    1    2  501    0 -0.22740979457E+03  0.10311383857E+03  0.35535062829E+03  0.46749411483E+03  0.17300000000E+03 0. -1.
         -6    1    1    2    0  502  0.22740979457E+03 -0.10311383857E+03  0.44952550282E+03  0.54254018843E+03  0.17300000000E+03 0.  1.
<mgrwt>
<rscale>  2 0.30377077E+03</rscale>
<asrwt>0</asrwt>
<pdfrwt beam="1">  1       21 0.13960849E+00 0.30377077E+03</pdfrwt>
<pdfrwt beam="2">  1       21 0.15781398E-01 0.30377077E+03</pdfrwt>
<totfact> 0.12077478E+04</totfact>
</mgrwt>
</event>
<event>
 4    2  0.3903561E+000  0.2379501E+03  0.7546771E-02  0.1121166E+00
         21   -1    0    0  503  502  0.00000000000E+00  0.00000000000E+00  0.20784399134E+03  0.20784399134E+03  0.00000000000E+00 0.  1.
         21   -1    0    0  501  503 -0.00000000000E+00 -0.00000000000E+00 -0.58826467661E+03  0.58826467661E+03  0.00000000000E+00 0. -1.
          6    1    1    2  501    0 -0.86510216193E+02  0.13859007493E+03 -0.48188241563E+03  0.53742989205E+03  0.17300000000E+03 0. -1.
         -6    1    1    2    0  502  0.86510216193E+02 -0.13859007493E+03  0.10146173035E+03  0.25867877590E+03  0.17300000000E+03 0.  1.
<mgrwt>
<rscale>  2 0.23795005E+03</rscale>
<asrwt>0</asrwt>
<pdfrwt beam="1">  1       21 0.31975999E-01 0.23795005E+03</pdfrwt>
<pdfrwt beam="2">  1       21 0.90502258E-01 0.23795005E+03</pdfrwt>
<totfact> 0.94695340E+03</totfact>
</mgrwt>
</event>
<event>
 4    2  0.3903561E+000  0.1857196E+03  0.7546771E-02  0.1162380E+00
         21   -1    0    0  501  502  0.00000000000E+00  0.00000000000E+00  0.32414217320E+03  0.32414217320E+03  0.00000000000E+00 0.  1.
         21   -1    0    0  502  503 -0.00000000000E+00 -0.00000000000E+00 -0.10755855722E+03  0.10755855722E+03  0.00000000000E+00 0.  1.
          6    1    1    2  501    0  0.59764045387E+02  0.31480660748E+02  0.13060289021E+03  0.22704380206E+03  0.17300000000E+03 0.  1.
         -6    1    1    2    0  503 -0.59764045387E+02 -0.31480660748E+02  0.85980725773E+02  0.20465692836E+03  0.17300000000E+03 0.  1.
<mgrwt>
<rscale>  2 0.18571961E+03</rscale>
<asrwt>0</asrwt>
<pdfrwt beam="1">  1       21 0.49868026E-01 0.18571961E+03</pdfrwt>
<pdfrwt beam="2">  1       21 0.16547470E-01 0.18571961E+03</pdfrwt>
<totfact> 0.12590922E+05</totfact>
</mgrwt>
</event>
<event>
 4    2  0.3903561E+000  0.2352225E+03  0.7546771E-02  0.1123017E+00
         21   -1    0    0  503  502  0.00000000000E+00  0.00000000000E+00  0.61073363312E+02  0.61073363312E+02  0.00000000000E+00 0.  1.
         21   -1    0    0  501  503 -0.00000000000E+00 -0.00000000000E+00 -0.12671762684E+04  0.12671762684E+04  0.00000000000E+00 0. -1.
          6    1    1    2  501    0 -0.15025428674E+03  0.53144091523E+02 -0.95763499562E+03  0.98610061859E+03  0.17300000000E+03 0. -1.
         -6    1    1    2    0  502  0.15025428674E+03 -0.53144091523E+02 -0.24846790947E+03  0.34214901313E+03  0.17300000000E+03 0.  1.
<mgrwt>
<rscale>  2 0.23522254E+03</rscale>
<asrwt>0</asrwt>
<pdfrwt beam="1">  1       21 0.93959031E-02 0.23522254E+03</pdfrwt>
<pdfrwt beam="2">  1       21 0.19495017E+00 0.23522254E+03</pdfrwt>
<totfact> 0.12697482E+04</totfact>
</mgrwt>
</event>
<event>
 4    2  0.3903561E+000  0.1730255E+03  0.7546771E-02  0.1174729E+00
         21   -1    0    0  501  502  0.00000000000E+00  0.00000000000E+00  0.40001163725E+03  0.40001163725E+03  0.00000000000E+00 0.  1.
         21   -1    0    0  502  503 -0.00000000000E+00 -0.00000000000E+00 -0.10773300626E+03  0.10773300626E+03  0.00000000000E+00 0.  1.
          6    1    1    2  501    0  0.11484075532E+00 -0.29711457326E+01  0.28641317318E+03  0.33461970454E+03  0.17300000000E+03 0.  1.
         -6    1    1    2    0  503 -0.11484075532E+00  0.29711457326E+01  0.58654578068E+01  0.17312493896E+03  0.17300000000E+03 0.  1.
<mgrwt>
<rscale>  2 0.17302555E+03</rscale>
<asrwt>0</asrwt>
<pdfrwt beam="1">  1       21 0.61540251E-01 0.17302555E+03</pdfrwt>
<pdfrwt beam="2">  1       21 0.16574309E-01 0.17302555E+03</pdfrwt>
<totfact> 0.80858588E+04</totfact>
</mgrwt>
</event>
<event>
 4    2  0.3903561E+000  0.1913091E+03  0.7546771E-02  0.1157286E+00
         21   -1    0    0  501  502  0.00000000000E+00  0.00000000000E+00  0.13494188852E+04  0.13494188852E+04  0.00000000000E+00 0. -1.
         21   -1    0    0  502  503 -0.00000000000E+00 -0.00000000000E+00 -0.33872908898E+02  0.33872908898E+02  0.00000000000E+00 0. -1.
          6    1    1    2  501    0 -0.53913062786E+02  0.61347945726E+02  0.96654130308E+03  0.98529248416E+03  0.17300000000E+03 0. -1.
         -6    1    1    2    0  503  0.53913062786E+02 -0.61347945726E+02  0.34900467326E+03  0.39799930997E+03  0.17300000000E+03 0. -1.
<mgrwt>
<rscale>  2 0.19130914E+03</rscale>
<asrwt>0</asrwt>
<pdfrwt beam="1">  1       21 0.20760286E+00 0.19130914E+03</pdfrwt>
<pdfrwt beam="2">  1       21 0.52112178E-02 0.19130914E+03</pdfrwt>
<totfact> 0.30152620E+04</totfact>
</mgrwt>
</event>
<event>
 4    2  0.3903561E+000  0.2721682E+03  0.7546771E-02  0.1100045E+00
         21   -1    0    0  501  502  0.00000000000E+00  0.00000000000E+00  0.77563603711E+02  0.77563603711E+02  0.00000000000E+00 0. -1.
         21   -1    0    0  502  503 -0.00000000000E+00 -0.00000000000E+00 -0.10850156725E+04  0.10850156725E+04  0.00000000000E+00 0.  1.
          6    1    1    2  501    0  0.13329859969E+02 -0.20968746055E+03 -0.30252813499E+03  0.40693831072E+03  0.17300000000E+03 0. -1.
         -6    1    1    2    0  503 -0.13329859969E+02  0.20968746055E+03 -0.70492393385E+03  0.75564096553E+03  0.17300000000E+03 0.  1.
<mgrwt>
<rscale>  2 0.27216818E+03</rscale>
<asrwt>0</asrwt>
<pdfrwt beam="1">  1       21 0.11932863E-01 0.27216818E+03</pdfrwt>
<pdfrwt beam="2">  1       21 0.16692548E+00 0.27216818E+03</pdfrwt>
<totfact> 0.12626735E+04</totfact>
</mgrwt>
</event>
<event>
 4    2  0.3903561E+000  0.1808503E+03  0.7546771E-02  0.1166983E+00
         21   -1    0    0  503  502  0.00000000000E+00  0.00000000000E+00  0.12289782643E+04  0.12289782643E+04  0.00000000000E+00 0. -1.
         21   -1    0    0  501  503 -0.00000000000E+00 -0.00000000000E+00 -0.28012718911E+02  0.28012718911E+02  0.00000000000E+00 0. -1.
          6    1    1    2  501    0  0.47982909958E+02  0.21805550952E+02  0.74097086097E+03  0.76272187493E+03  0.17300000000E+03 0. -1.
         -6    1    1    2    0  502 -0.47982909958E+02 -0.21805550952E+02  0.45999468440E+03  0.49426910826E+03  0.17300000000E+03 0. -1.
<mgrwt>
<rscale>  2 0.18085033E+03</rscale>
<asrwt>0</asrwt>
<pdfrwt beam="1">  1       21 0.18907354E+00 0.18085033E+03</pdfrwt>
<pdfrwt beam="2">  1       21 0.43096500E-02 0.18085033E+03</pdfrwt>
<totfact> 0.55091088E+04</totfact>
</mgrwt>
</event>
<event>
 4    2  0.3903561E+000  0.2977308E+03  0.7546771E-02  0.1086380E+00
         21   -1    0    0  503  502  0.00000000000E+00  0.00000000000E+00  0.23740193990E+03  0.23740193990E+03  0.00000000000E+00 0.  1.
         21   -1    0    0  501  503 -0.00000000000E+00 -0.00000000000E+00 -0.13682630400E+04  0.13682630400E+04  0.00000000000E+00 0. -1.
          6    1    1    2  501    0  0.21984860972E+03 -0.10188833285E+03 -0.12500099878E+04  0.12849780594E+04  0.17300000000E+03 0. -1.
         -6    1    1    2    0  502 -0.21984860972E+03  0.10188833285E+03  0.11914888767E+03  0.32068692053E+03  0.17300000000E+03 0.  1.
<mgrwt>
<rscale>  2 0.29773082E+03</rscale>
<asrwt>0</asrwt>
<pdfrwt beam="1">  1       21 0.36523375E-01 0.29773082E+03</pdfrwt>
<pdfrwt beam="2">  1       21 0.21050201E+00 0.29773082E+03</pdfrwt>
<totfact> 0.75394066E+02</totfact>
</mgrwt>
</event>
<event>
 4    2  0.3903561E+000  0.2067610E+03  0.7546771E-02  0.1144157E+00
         21   -1    0    0  503  502  0.00000000000E+00  0.00000000000E+00  0.14041906639E+03  0.14041906639E+03  0.00000000000E+00 0. -1.
         21   -1    0    0  501  503 -0.00000000000E+00 -0.00000000000E+00 -0.41180246675E+03  0.41180246675E+03  0.00000000000E+00 0. -1.
          6    1    1    2  501    0  0.10704600363E+03  0.36908729448E+02 -0.27666986391E+03  0.34539298603E+03  0.17300000000E+03 0. -1.
         -6    1    1    2    0  502 -0.10704600363E+03 -0.36908729448E+02  0.52864635498E+01  0.20682854711E+03  0.17300000000E+03 0. -1.
<mgrwt>
<rscale>  2 0.20676098E+03</rscale>
<asrwt>0</asrwt>
<pdfrwt beam="1">  1       21 0.21602933E-01 0.20676098E+03</pdfrwt>
<pdfrwt beam="2">  1       21 0.63354226E-01 0.20676098E+03</pdfrwt>
<totfact> 0.45708568E+04</totfact>
</mgrwt>
</event>
<event>
 4    2  0.3903561E+000  0.1864141E+03  0.7546771E-02  0.1161736E+00
         21   -1    0    0  501  502  0.00000000000E+00  0.00000000000E+00  0.63181983640E+03  0.63181983640E+03  0.00000000000E+00 0. -1.
         21   -1    0    0  502  503 -0.00000000000E+00 -0.00000000000E+00 -0.19542618139E+03  0.19542618139E+03  0.00000000000E+00 0. -1.
          6    1    1    2  501    0  0.54687766441E+02  0.42784064814E+02  0.56881710115E+03  0.59858426521E+03  0.17300000000E+03 0. -1.
         -6    1    1    2    0  503 -0.54687766441E+02 -0.42784064814E+02 -0.13242344614E+03  0.22866175257E+03  0.17300000000E+03 0. -1.
<mgrwt>
<rscale>  2 0.18641413E+03</rscale>
<asrwt>0</asrwt>
<pdfrwt beam="1">  1       21 0.97203051E-01 0.18641413E+03</pdfrwt>
<pdfrwt beam="2">  1       21 0.30065567E-01 0.18641413E+03</pdfrwt>
<totfact> 0.93559950E+03</totfact>
</mgrwt>
</event>
<event>
 4    2  0.3903561E+000  0.2464877E+03  0.7546771E-02  0.1115545E+00
         21   -1    0    0  501  502  0.00000000000E+00  0.00000000000E+00  0.17343661398E+04  0.17343661398E+04  0.00000000000E+00 0.  1.
         21   -1    0    0  502  503 -0.00000000000E+00 -0.00000000000E+00 -0.44494944038E+02  0.44494944038E+02  0.00000000000E+00 0.  1.
          6    1    1    2  501    0  0.35070779354E+02  0.17203846335E+03  0.12551377346E+04  0.12791117720E+04  0.17300000000E+03 0.  1.
         -6    1    1    2    0  503 -0.35070779354E+02 -0.17203846335E+03  0.43473346117E+03  0.49974931185E+03  0.17300000000E+03 0.  1.
<mgrwt>
<rscale>  2 0.24648771E+03</rscale>
<asrwt>0</asrwt>
<pdfrwt beam="1">  1       21 0.26682551E+00 0.24648771E+03</pdfrwt>
<pdfrwt beam="2">  1       21 0.68453774E-02 0.24648771E+03</pdfrwt>
<totfact> 0.79365550E+03</totfact>
</mgrwt>
</event>
<event>
 4    2  0.3903561E+000  0.2815791E+03  0.7546771E-02  0.1094830E+00
         21   -1    0    0  503  502  0.00000000000E+00  0.00000000000E+00  0.91810544665E+02  0.91810544665E+02  0.00000000000E+00 0.  1.
         21   -1    0    0  501  503 -0.00000000000E+00 -0.00000000000E+00 -0.88235133073E+03  0.88235133073E+03  0.00000000000E+00 0.  1.
          6    1    1    2  501    0  0.60270617814E+02 -0.21383460988E+03 -0.46629308297E+03  0.54471646476E+03  0.17300000000E+03 0.  1.
         -6    1    1    2    0  502 -0.60270617814E+02  0.21383460988E+03 -0.32424770310E+03  0.42944541064E+03  0.17300000000E+03 0.  1.
<mgrwt>
<rscale>  2 0.28157910E+03</rscale>
<asrwt>0</asrwt>
<pdfrwt beam="1">  1       21 0.14124699E-01 0.28157910E+03</pdfrwt>
<pdfrwt beam="2">  1       21 0.13574636E+00 0.28157910E+03</pdfrwt>
<totfact> 0.16098580E+04</totfact>
</mgrwt>
</event>
<event>
 4    2  0.3903561E+000  0.2092486E+03  0.7546771E-02  0.1142162E+00
         21   -1    0    0  503  502  0.00000000000E+00  0.00000000000E+00  0.35074994644E+03  0.35074994644E+03  0.00000000000E+00 0. -1.
         21   -1    0    0  501  503 -0.00000000000E+00 -0.00000000000E+00 -0.18555809688E+03  0.18555809688E+03  0.00000000000E+00 0.  1.
          6    1    1    2  501    0 -0.85015756630E+02  0.81414378415E+02 -0.70805850818E+02  0.22090370843E+03  0.17300000000E+03 0.  1.
         -6    1    1    2    0  502  0.85015756630E+02 -0.81414378415E+02  0.23599770037E+03  0.31540433489E+03  0.17300000000E+03 0. -1.
<mgrwt>
<rscale>  2 0.20924861E+03</rscale>
<asrwt>0</asrwt>
<pdfrwt beam="1">  1       21 0.53961530E-01 0.20924861E+03</pdfrwt>
<pdfrwt beam="2">  1       21 0.28547400E-01 0.20924861E+03</pdfrwt>
<totfact> 0.37781820E+04</totfact>
</mgrwt>
</event>
<event>
 4    2  0.3903561E+000  0.2459940E+03  0.7546771E-02  0.1115863E+00
         21   -1    0    0  503  502  0.00000000000E+00  0.00000000000E+00  0.20232657032E+03  0.20232657032E+03  0.00000000000E+00 0. -1.
         21   -1    0    0  501  503 -0.00000000000E+00 -0.00000000000E+00 -0.30912418983E+03  0.30912418983E+03  0.00000000000E+00 0.  1.
          6    1    1    2  501    0  0.13902540973E+03 -0.10609419162E+03 -0.99481233558E+02  0.26534799391E+03  0.17300000000E+03 0. -1.
         -6    1    1    2    0  502 -0.13902540973E+03  0.10609419162E+03 -0.73163859465E+01  0.24610276623E+03  0.17300000000E+03 0.  1.
<mgrwt>
<rscale>  2 0.24599399E+03</rscale>
<asrwt>0</asrwt>
<pdfrwt beam="1">  1       21 0.31127165E-01 0.24599399E+03</pdfrwt>
<pdfrwt beam="2">  1       21 0.47557567E-01 0.24599399E+03</pdfrwt>
<totfact> 0.40886424E+04</totfact>
</mgrwt>
</event>
<event>
 4    2  0.3903561E+000  0.2014320E+03  0.7546771E-02  0.1148536E+00
         21   -1    0    0  501  502  0.00000000000E+00  0.00000000000E+00  0.31404786301E+03  0.31404786301E+03  0.00000000000E+00 0. -1.
         21   -1    0    0  502  503 -0.00000000000E+00 -0.00000000000E+00 -0.64848686727E+03  0.64848686727E+03  0.00000000000E+00 0.  1.
          6    1    1    2  501    0  0.51673318345E+02 -0.89306941066E+02  0.26344557199E+03  0.33162996088E+03  0.17300000000E+03 0. -1.
         -6    1    1    2    0  503 -0.51673318345E+02  0.89306941066E+02 -0.59788457624E+03  0.63090476941E+03  0.17300000000E+03 0.  1.
<mgrwt>
<rscale>  2 0.20143203E+03</rscale>
<asrwt>0</asrwt>
<pdfrwt beam="1">  1       21 0.48315056E-01 0.20143203E+03</pdfrwt>
<pdfrwt beam="2">  1       21 0.99767209E-01 0.20143203E+03</pdfrwt>
<totfact> 0.33531567E+03</totfact>
</mgrwt>
</event>
<event>
 4    2  0.3903561E+000  0.2352974E+03  0.7546771E-02  0.1122966E+00
         21   -1    0    0  503  502  0.00000000000E+00  0.00000000000E+00  0.76878825992E+03  0.76878825992E+03  0.00000000000E+00 0.  1.
         21   -1    0    0  501  503 -0.00000000000E+00 -0.00000000000E+00 -0.25781912930E+03  0.25781912930E+03  0.00000000000E+00 0. -1.
          6    1    1    2  501    0  0.52951937315E+02  0.15043915040E+03 -0.18027171226E+03  0.29641649056E+03  0.17300000000E+03 0. -1.
         -6    1    1    2    0  502 -0.52951937315E+02 -0.15043915040E+03  0.69124084287E+03  0.73019089866E+03  0.17300000000E+03 0.  1.
<mgrwt>
<rscale>  2 0.23529736E+03</rscale>
<asrwt>0</asrwt>
<pdfrwt beam="1">  1       21 0.11827512E+00 0.23529736E+03</pdfrwt>
<pdfrwt beam="2">  1       21 0.39664482E-01 0.23529736E+03</pdfrwt>
<totfact> 0.32410305E+03</totfact>
</mgrwt>
</event>
<event>
 4    2  0.3903561E+000  0.4123123E+03  0.7546771E-02  0.1039598E+00
         21   -1    0    0  503  502  0.00000000000E+00  0.00000000000E+00  0.46990284170E+03  0.46990284170E+03  0.00000000000E+00 0. -1.
         21   -1    0    0  501  503 -0.00000000000E+00 -0.00000000000E+00 -0.36215185529E+03  0.36215185529E+03  0.00000000000E+00 0. -1.
          6    1    1    2  501    0  0.37414589114E+03  0.93441187110E+01  0.40544863755E+02  0.41430103353E+03  0.17300000000E+03 0. -1.
         -6    1    1    2    0  502 -0.37414589114E+03 -0.93441187110E+01  0.67206122661E+02  0.41775366346E+03  0.17300000000E+03 0. -1.
<mgrwt>
<rscale>  2 0.41231233E+03</rscale>
<asrwt>0</asrwt>
<pdfrwt beam="1">  1       21 0.72292745E-01 0.41231233E+03</pdfrwt>
<pdfrwt beam="2">  1       21 0.55715670E-01 0.41231233E+03</pdfrwt>
<totfact> 0.46609182E+03</totfact>
</mgrwt>
</event>
<event>
 4    2  0.3903561E+000  0.2211228E+03  0.7546771E-02  0.1133049E+00
         21   -1    0    0  503  502  0.00000000000E+00  0.00000000000E+00  0.10294154568E+04  0.10294154568E+04  0.00000000000E+00 0.  1.
         21   -1    0    0  501  503 -0.00000000000E+00 -0.00000000000E+00 -0.61012203459E+02  0.61012203459E+02  0.00000000000E+00 0.  1.
          6    1    1    2  501    0 -0.72812329419E+02 -0.11689594514E+03  0.22760447451E+03  0.31733120572E+03  0.17300000000E+03 0.  1.
         -6    1    1    2    0  502  0.72812329419E+02  0.11689594514E+03  0.74079877881E+03  0.77309645452E+03  0.17300000000E+03 0.  1.
<mgrwt>
<rscale>  2 0.22112281E+03</rscale>
<asrwt>0</asrwt>
<pdfrwt beam="1">  1       21 0.15837160E+00 0.22112281E+03</pdfrwt>
<pdfrwt beam="2">  1       21 0.93864936E-02 0.22112281E+03</pdfrwt>
<totfact> 0.23044581E+04</totfact>
</mgrwt>
</event>
<event>
 4    2  0.3903561E+000  0.2234753E+03  0.7546771E-02  0.1131318E+00
         21   -1    0    0  503  502  0.00000000000E+00  0.00000000000E+00  0.32239234010E+03  0.32239234010E+03  0.00000000000E+00 0. -1.
         21   -1    0    0  501  503 -0.00000000000E+00 -0.00000000000E+00 -0.22468502668E+03  0.22468502668E+03  0.00000000000E+00 0. -1.
          6    1    1    2  501    0  0.13996053122E+03 -0.20573237405E+02 -0.10358228493E+03  0.24631382046E+03  0.17300000000E+03 0. -1.
         -6    1    1    2    0  502 -0.13996053122E+03  0.20573237405E+02  0.20128959835E+03  0.30076354633E+03  0.17300000000E+03 0. -1.
<mgrwt>
<rscale>  2 0.22347530E+03</rscale>
<asrwt>0</asrwt>
<pdfrwt beam="1">  1       21 0.49598822E-01 0.22347530E+03</pdfrwt>
<pdfrwt beam="2">  1       21 0.34566927E-01 0.22347530E+03</pdfrwt>
<totfact> 0.30751693E+04</totfact>
</mgrwt>
</event>
<event>
 4    2  0.3903561E+000  0.2237846E+03  0.7546771E-02  0.1131093E+00
         21   -1    0    0  501  502  0.00000000000E+00  0.00000000000E+00  0.12915286440E+03  0.12915286440E+03  0.00000000000E+00 0. -1.
         21   -1    0    0  502  503 -0.00000000000E+00 -0.00000000000E+00 -0.39222939068E+03  0.39222939068E+03  0.00000000000E+00 0.  1.
          6    1    1    2  501    0  0.10427080425E+03 -0.96323083276E+02 -0.10369162898E+03  0.24664040811E+03  0.17300000000E+03 0. -1.
         -6    1    1    2    0  503 -0.10427080425E+03  0.96323083276E+02 -0.15938489730E+03  0.27474184697E+03  0.17300000000E+03 0.  1.
<mgrwt>
<rscale>  2 0.22378458E+03</rscale>
<asrwt>0</asrwt>
<pdfrwt beam="1">  1       21 0.19869672E-01 0.22378458E+03</pdfrwt>
<pdfrwt beam="2">  1       21 0.60342982E-01 0.22378458E+03</pdfrwt>
<totfact> 0.58970282E+04</totfact>
</mgrwt>
</event>
<event>
 4    2  0.3903561E+000  0.2131205E+03  0.7546771E-02  0.1139118E+00
         21   -1    0    0  501  502  0.00000000000E+00  0.00000000000E+00  0.65935963413E+03  0.65935963413E+03  0.00000000000E+00 0.  1.
         21   -1    0    0  502  503 -0.00000000000E+00 -0.00000000000E+00 -0.13422197054E+03  0.13422197054E+03  0.00000000000E+00 0. -1.
          6    1    1    2  501    0 -0.12389014759E+03 -0.11941298723E+02  0.53940791264E+03  0.57998384417E+03  0.17300000000E+03 0.  1.
         -6    1    1    2    0  503  0.12389014759E+03  0.11941298723E+02 -0.14270249051E+02  0.21359776050E+03  0.17300000000E+03 0. -1.
<mgrwt>
<rscale>  2 0.21312054E+03</rscale>
<asrwt>0</asrwt>
<pdfrwt beam="1">  1       21 0.10143994E+00 0.21312054E+03</pdfrwt>
<pdfrwt beam="2">  1       21 0.20649534E-01 0.21312054E+03</pdfrwt>
<totfact> 0.17031868E+04</totfact>
</mgrwt>
</event>
<event>
 4    2  0.3903561E+000  0.1834131E+03  0.7546771E-02  0.1164540E+00
         21   -1    0    0  501  502  0.00000000000E+00  0.00000000000E+00  0.71371286231E+03  0.71371286231E+03  0.00000000000E+00 0. -1.
         21   -1    0    0  502  503 -0.00000000000E+00 -0.00000000000E+00 -0.50276139826E+02  0.50276139826E+02  0.00000000000E+00 0. -1.
          6    1    1    2  501    0  0.52398286493E+02  0.31077299710E+02  0.42721013468E+03  0.46491814135E+03  0.17300000000E+03 0.  1.
         -6    1    1    2    0  503 -0.52398286493E+02 -0.31077299710E+02  0.23622658780E+03  0.29907086078E+03  0.17300000000E+03 0.  1.
<mgrwt>
<rscale>  2 0.18341314E+03</rscale>
<asrwt>0</asrwt>
<pdfrwt beam="1">  1       21 0.10980197E+00 0.18341314E+03</pdfrwt>
<pdfrwt beam="2">  1       21 0.77347913E-02 0.18341314E+03</pdfrwt>
<totfact> 0.83810581E+04</totfact>
</mgrwt>
</event>
<event>
 4    2  0.3903561E+000  0.2028043E+03  0.7546771E-02  0.1147394E+00
         21   -1    0    0  503  502  0.00000000000E+00  0.00000000000E+00  0.59994586537E+03  0.59994586537E+03  0.00000000000E+00 0. -1.
         21   -1    0    0  501  503 -0.00000000000E+00 -0.00000000000E+00 -0.69896408887E+02  0.69896408887E+02  0.00000000000E+00 0.  1.
          6    1    1    2  501    0 -0.10492235845E+03  0.13852829968E+02  0.21863614215E+03  0.29821362285E+03  0.17300000000E+03 0.  1.
         -6    1    1    2    0  502  0.10492235845E+03 -0.13852829968E+02  0.31141331434E+03  0.37162865141E+03  0.17300000000E+03 0. -1.
<mgrwt>
<rscale>  2 0.20280434E+03</rscale>
<asrwt>0</asrwt>
<pdfrwt beam="1">  1       21 0.92299360E-01 0.20280434E+03</pdfrwt>
<pdfrwt beam="2">  1       21 0.10753294E-01 0.20280434E+03</pdfrwt>
<totfact> 0.70363465E+04</totfact>
</mgrwt>
</event>
<event>
 4    2  0.3903561E+000  0.2616415E+03  0.7546771E-02  0.1106161E+00
         21   -1    0    0  501  502  0.00000000000E+00  0.00000000000E+00  0.22287199821E+03  0.22287199821E+03  0.00000000000E+00 0. -1.
         21   -1    0    0  502  503 -0.00000000000E+00 -0.00000000000E+00 -0.49378345817E+03  0.49378345817E+03  0.00000000000E+00 0. -1.
          6    1    1    2  501    0  0.14527570192E+03 -0.13199333499E+03 -0.35574886822E+03  0.44160335969E+03  0.17300000000E+03 0. -1.
         -6    1    1    2    0  503 -0.14527570192E+03  0.13199333499E+03  0.84837408258E+02  0.27505209668E+03  0.17300000000E+03 0. -1.
<mgrwt>
<rscale>  2 0.26164149E+03</rscale>
<asrwt>0</asrwt>
<pdfrwt beam="1">  1       21 0.34288000E-01 0.26164149E+03</pdfrwt>
<pdfrwt beam="2">  1       21 0.75966685E-01 0.26164149E+03</pdfrwt>
<totfact> 0.12159126E+04</totfact>
</mgrwt>
</event>
<event>
 4    2  0.3903561E+000  0.1998341E+03  0.7546771E-02  0.1149879E+00
         21   -1    0    0  503  502  0.00000000000E+00  0.00000000000E+00  0.47440745927E+03  0.47440745927E+03  0.00000000000E+00 0.  1.
         21   -1    0    0  501  503 -0.00000000000E+00 -0.00000000000E+00 -0.15586085041E+03  0.15586085041E+03  0.00000000000E+00 0.  1.
          6    1    1    2  501    0 -0.66879991056E+02  0.74375732869E+02 -0.54444595582E+02  0.20711807461E+03  0.17300000000E+03 0.  1.
         -6    1    1    2    0  502  0.66879991056E+02 -0.74375732869E+02  0.37299120444E+03  0.42315023507E+03  0.17300000000E+03 0.  1.
<mgrwt>
<rscale>  2 0.19983414E+03</rscale>
<asrwt>0</asrwt>
<pdfrwt beam="1">  1       21 0.72985762E-01 0.19983414E+03</pdfrwt>
<pdfrwt beam="2">  1       21 0.23978593E-01 0.19983414E+03</pdfrwt>
<totfact> 0.27590962E+04</totfact>
</mgrwt>
</event>
<event>
 4    2  0.3903561E+000  0.1875409E+03  0.7546771E-02  0.1160698E+00
         21   -1    0    0  503  502  0.00000000000E+00  0.00000000000E+00  0.71288088309E+02  0.71288088309E+02  0.00000000000E+00 0.  1.
         21   -1    0    0  501  503 -0.00000000000E+00 -0.00000000000E+00 -0.58147475216E+03  0.58147475216E+03  0.00000000000E+00 0.  1.
          6    1    1    2  501    0  0.72404451860E+02  0.42357146445E+00 -0.38213712237E+03  0.42567636105E+03  0.17300000000E+03 0.  1.
         -6    1    1    2    0  502 -0.72404451860E+02 -0.42357146445E+00 -0.12804954148E+03  0.22708647942E+03  0.17300000000E+03 0.  1.
<mgrwt>
<rscale>  2 0.18754089E+03</rscale>
<asrwt>0</asrwt>
<pdfrwt beam="1">  1       21 0.10967399E-01 0.18754089E+03</pdfrwt>
<pdfrwt beam="2">  1       21 0.89457652E-01 0.18754089E+03</pdfrwt>
<totfact> 0.73564970E+04</totfact>
</mgrwt>
</event>
<event>
 4    2  0.3903561E+000  0.2040141E+03  0.7546771E-02  0.1146396E+00
         21   -1    0    0  501  502  0.00000000000E+00  0.00000000000E+00  0.25805465018E+03  0.25805465018E+03  0.00000000000E+00 0.  1.
         21   -1    0    0  502  503 -0.00000000000E+00 -0.00000000000E+00 -0.21453683899E+03  0.21453683899E+03  0.00000000000E+00 0.  1.
          6    1    1    2  501    0  0.36281285890E+02 -0.10186481121E+03  0.13947875916E+03  0.24713578398E+03  0.17300000000E+03 0.  1.
         -6    1    1    2    0  503 -0.36281285890E+02  0.10186481121E+03 -0.95960947964E+02  0.22545570519E+03  0.17300000000E+03 0.  1.
<mgrwt>
<rscale>  2 0.20401415E+03</rscale>
<asrwt>0</asrwt>
<pdfrwt beam="1">  1       21 0.39700715E-01 0.20401415E+03</pdfrwt>
<pdfrwt beam="2">  1       21 0.33005668E-01 0.20401415E+03</pdfrwt>
<totfact> 0.53754348E+04</totfact>
</mgrwt>
</event>
<event>
 4    2  0.3903561E+000  0.1817673E+03  0.7546771E-02  0.1166104E+00
         21   -1    0    0  503  502  0.00000000000E+00  0.00000000000E+00  0.62798953265E+02  0.62798953265E+02  0.00000000000E+00 0. -1.
         21   -1    0    0  501  503 -0.00000000000E+00 -0.00000000000E+00 -0.53898182363E+03  0.53898182363E+03  0.00000000000E+00 0. -1.
          6    1    1    2  501    0 -0.47849755772E+02  0.28648462071E+02 -0.28458511878E+03  0.33768035675E+03  0.17300000000E+03 0. -1.
         -6    1    1    2    0  502  0.47849755772E+02 -0.28648462071E+02 -0.19159775159E+03  0.26410042014E+03  0.17300000000E+03 0. -1.
<mgrwt>
<rscale>  2 0.18176725E+03</rscale>
<asrwt>0</asrwt>
<pdfrwt beam="1">  1       21 0.96613776E-02 0.18176725E+03</pdfrwt>
<pdfrwt beam="2">  1       21 0.82920279E-01 0.18176725E+03</pdfrwt>
<totfact> 0.10979273E+05</totfact>
</mgrwt>
</event>
<event>
 4    2  0.3903561E+000  0.2127419E+03  0.7546771E-02  0.1139413E+00
         21   -1    0    0  503  502  0.00000000000E+00  0.00000000000E+00  0.69814911978E+03  0.69814911978E+03  0.00000000000E+00 0. -1.
         21   -1    0    0  501  503 -0.00000000000E+00 -0.00000000000E+00 -0.70698287214E+02  0.70698287214E+02  0.00000000000E+00 0. -1.
          6    1    1    2  501    0 -0.19291929664E+02  0.12230265030E+03  0.42450547135E+03  0.47483050874E+03  0.17300000000E+03 0. -1.
         -6    1    1    2    0  502  0.19291929664E+02 -0.12230265030E+03  0.20294536121E+03  0.29401689825E+03  0.17300000000E+03 0. -1.
<mgrwt>
<rscale>  2 0.21274190E+03</rscale>
<asrwt>0</asrwt>
<pdfrwt beam="1">  1       21 0.10740755E+00 0.21274190E+03</pdfrwt>
<pdfrwt beam="2">  1       21 0.10876660E-01 0.21274190E+03</pdfrwt>
<totfact> 0.47873689E+04</totfact>
</mgrwt>
</event>
<event>
 4    2  0.3903561E+000  0.3100488E+03  0.7546771E-02  0.1080323E+00
         21   -1    0    0  503  502  0.00000000000E+00  0.00000000000E+00  0.21954865056E+04  0.21954865056E+04  0.00000000000E+00 0.  1.
         21   -1    0    0  501  503 -0.00000000000E+00 -0.00000000000E+00 -0.58688720250E+02  0.58688720250E+02  0.00000000000E+00 0. -1.
          6    1    1    2  501    0  0.19036868916E+03  0.17309244162E+03  0.16363644908E+04  0.16654786033E+04  0.17300000000E+03 0.  1.
         -6    1    1    2    0  502 -0.19036868916E+03 -0.17309244162E+03  0.50043329458E+03  0.58869662262E+03  0.17300000000E+03 0. -1.
<mgrwt>
<rscale>  2 0.31004876E+03</rscale>
<asrwt>0</asrwt>
<pdfrwt beam="1">  1       21 0.33776709E+00 0.31004876E+03</pdfrwt>
<pdfrwt beam="2">  1       21 0.90290356E-02 0.31004876E+03</pdfrwt>
<totfact> 0.17705013E+03</totfact>
</mgrwt>
</event>
<event>
 4    2  0.3903561E+000  0.2094566E+03  0.7546771E-02  0.1141997E+00
         21   -1    0    0  503  502  0.00000000000E+00  0.00000000000E+00  0.34132754791E+02  0.34132754791E+02  0.00000000000E+00 0. -1.
         21   -1    0    0  501  503 -0.00000000000E+00 -0.00000000000E+00 -0.20325233914E+04  0.20325233914E+04  0.00000000000E+00 0.  1.
          6    1    1    2  501    0 -0.64877470995E+02  0.98660909247E+02 -0.16257156888E+04  0.16391533064E+04  0.17300000000E+03 0. -1.
         -6    1    1    2    0  502  0.64877470995E+02 -0.98660909247E+02 -0.37267494781E+03  0.42750283974E+03  0.17300000000E+03 0. -1.
<mgrwt>
<rscale>  2 0.20945659E+03</rscale>
<asrwt>0</asrwt>
<pdfrwt beam="1">  1       21 0.52511912E-02 0.20945659E+03</pdfrwt>
<pdfrwt beam="2">  1       21 0.31269602E+00 0.20945659E+03</pdfrwt>
<totfact> 0.70074485E+03</totfact>
</mgrwt>
</event>
<event>
 4    2  0.3903561E+000  0.1884065E+03  0.7546771E-02  0.1159906E+00
         21   -1    0    0  501  502  0.00000000000E+00  0.00000000000E+00  0.24439786236E+03  0.24439786236E+03  0.00000000000E+00 0. -1.
         21   -1    0    0  502  503 -0.00000000000E+00 -0.00000000000E+00 -0.36400700457E+03  0.36400700457E+03  0.00000000000E+00 0. -1.
          6    1    1    2  501    0  0.57653931874E+02 -0.47371123544E+02  0.17602380950E+03  0.25783983539E+03  0.17300000000E+03 0. -1.
         -6    1    1    2    0  503 -0.57653931874E+02  0.47371123544E+02 -0.29563295170E+03  0.35056503154E+03  0.17300000000E+03 0. -1.
<mgrwt>
<rscale>  2 0.18840647E+03</rscale>
<asrwt>0</asrwt>
<pdfrwt beam="1">  1       21 0.37599671E-01 0.18840647E+03</pdfrwt>
<pdfrwt beam="2">  1       21 0.56001078E-01 0.18840647E+03</pdfrwt>
<totfact> 0.20532235E+04</totfact>
</mgrwt>
</event>
<event>
 4    2  0.3903561E+000  0.1949287E+03  0.7546771E-02  0.1154090E+00
         21   -1    0    0  501  502  0.00000000000E+00  0.00000000000E+00  0.86634465850E+02  0.86634465850E+02  0.00000000000E+00 0.  1.
         21   -1    0    0  502  503 -0.00000000000E+00 -0.00000000000E+00 -0.72470494672E+03  0.72470494672E+03  0.00000000000E+00 0. -1.
          6    1    1    2  501    0 -0.38961596271E+02  0.80933187187E+02 -0.64140606663E+02  0.20521014642E+03  0.17300000000E+03 0.  1.
         -6    1    1    2    0  503  0.38961596271E+02 -0.80933187187E+02 -0.57392987420E+03  0.60612926614E+03  0.17300000000E+03 0. -1.
<mgrwt>
<rscale>  2 0.19492867E+03</rscale>
<asrwt>0</asrwt>
<pdfrwt beam="1">  1       21 0.13328380E-01 0.19492867E+03</pdfrwt>
<pdfrwt beam="2">  1       21 0.11149307E+00 0.19492867E+03</pdfrwt>
<totfact> 0.30678885E+04</totfact>
</mgrwt>
</event>
<event>
 4    2  0.3903561E+000  0.2249971E+03  0.7546771E-02  0.1130211E+00
         21   -1    0    0  501  502  0.00000000000E+00  0.00000000000E+00  0.11554698981E+04  0.11554698981E+04  0.00000000000E+00 0.  1.
         21   -1    0    0  502  503 -0.00000000000E+00 -0.00000000000E+00 -0.20443942487E+03  0.20443942487E+03  0.00000000000E+00 0. -1.
          6    1    1    2  501    0 -0.11444630790E+03  0.87159189395E+02  0.10782235811E+04  0.11014489423E+04  0.17300000000E+03 0.  1.
         -6    1    1    2    0  503  0.11444630790E+03 -0.87159189395E+02 -0.12719310786E+03  0.25846038067E+03  0.17300000000E+03 0. -1.
<mgrwt>
<rscale>  2 0.22499707E+03</rscale>
<asrwt>0</asrwt>
<pdfrwt beam="1">  1       21 0.17776460E+00 0.22499707E+03</pdfrwt>
<pdfrwt beam="2">  1       21 0.31452220E-01 0.22499707E+03</pdfrwt>
<totfact> 0.17751848E+03</totfact>
</mgrwt>
</event>
<event>
 4    2  0.3903561E+000  0.2472325E+03  0.7546771E-02  0.1115066E+00
         21   -1    0    0  503  502  0.00000000000E+00  0.00000000000E+00  0.10279070835E+03  0.10279070835E+03  0.00000000000E+00 0.  1.
         21   -1    0    0  501  503 -0.00000000000E+00 -0.00000000000E+00 -0.92778747409E+03  0.92778747409E+03  0.00000000000E+00 0.  1.
          6    1    1    2  501    0  0.16605502809E+03 -0.60171711445E+02 -0.10372335769E+03  0.26810901168E+03  0.17300000000E+03 0.  1.
         -6    1    1    2    0  502 -0.16605502809E+03  0.60171711445E+02 -0.72127340804E+03  0.76246917076E+03  0.17300000000E+03 0.  1.
<mgrwt>
<rscale>  2 0.24723250E+03</rscale>
<asrwt>0</asrwt>
<pdfrwt beam="1">  1       21 0.15813955E-01 0.24723250E+03</pdfrwt>
<pdfrwt beam="2">  1       21 0.14273653E+00 0.24723250E+03</pdfrwt>
<totfact> 0.11692550E+04</totfact>
</mgrwt>
</event>
<event>
 4    2  0.3903561E+000  0.1796282E+03  0.7546771E-02  0.1168163E+00
         21   -1    0    0  501  502  0.00000000000E+00  0.00000000000E+00  0.47275130252E+03  0.47275130252E+03  0.00000000000E+00 0.  1.
         21   -1    0    0  502  503 -0.00000000000E+00 -0.00000000000E+00 -0.11338924080E+03  0.11338924080E+03  0.00000000000E+00 0.  1.
          6    1    1    2  501    0  0.12746026663E+02 -0.46634901881E+02  0.36458779724E+03  0.40643638760E+03  0.17300000000E+03 0.  1.
         -6    1    1    2    0  503 -0.12746026663E+02  0.46634901881E+02 -0.52257355169E+01  0.17970415571E+03  0.17300000000E+03 0.  1.
<mgrwt>
<rscale>  2 0.17962816E+03</rscale>
<asrwt>0</asrwt>
<pdfrwt beam="1">  1       21 0.72730969E-01 0.17962816E+03</pdfrwt>
<pdfrwt beam="2">  1       21 0.17444499E-01 0.17962816E+03</pdfrwt>
<totfact> 0.50962399E+04</totfact>
</mgrwt>
</event>
<event>
 4    2  0.3903561E+000  0.1821522E+03  0.7546771E-02  0.1165736E+00
         21   -1    0    0  503  502  0.00000000000E+00  0.00000000000E+00  0.10641016490E+03  0.10641016490E+03  0.00000000000E+00 0.  1.
         21   -1    0    0  501  503 -0.00000000000E+00 -0.00000000000E+00 -0.41357887322E+03  0.41357887322E+03  0.00000000000E+00 0.  1.
          6    1    1    2  501    0  0.49252030066E+02  0.28716856888E+02 -0.28255746755E+03  0.33618171099E+03  0.17300000000E+03 0.  1.
         -6    1    1    2    0  502 -0.49252030066E+02 -0.28716856888E+02 -0.24611240764E+02  0.18380732713E+03  0.17300000000E+03 0.  1.
<mgrwt>
<rscale>  2 0.18215219E+03</rscale>
<asrwt>0</asrwt>
<pdfrwt beam="1">  1       21 0.16370794E-01 0.18215219E+03</pdfrwt>
<pdfrwt beam="2">  1       21 0.63627520E-01 0.18215219E+03</pdfrwt>
<totfact> 0.76664694E+04</totfact>
</mgrwt>
</event>
<event>
 4    2  0.3903561E+000  0.2416273E+03  0.7546771E-02  0.1118713E+00
         21   -1    0    0  501  502  0.00000000000E+00  0.00000000000E+00  0.27608662041E+03  0.27608662041E+03  0.00000000000E+00 0.  1.
         21   -1    0    0  502  503 -0.00000000000E+00 -0.00000000000E+00 -0.24188637050E+03  0.24188637050E+03  0.00000000000E+00 0.  1.
          6    1    1    2  501    0 -0.65672316956E+02 -0.15537663201E+03  0.10894026269E+03  0.26505043260E+03  0.17300000000E+03 0.  1.
         -6    1    1    2    0  503  0.65672316956E+02  0.15537663201E+03 -0.74740012781E+02  0.25292255830E+03  0.17300000000E+03 0.  1.
<mgrwt>
<rscale>  2 0.24162730E+03</rscale>
<asrwt>0</asrwt>
<pdfrwt beam="1">  1       21 0.42474865E-01 0.24162730E+03</pdfrwt>
<pdfrwt beam="2">  1       21 0.37213288E-01 0.24162730E+03</pdfrwt>
<totfact> 0.36262988E+04</totfact>
</mgrwt>
</event>
<event>
 4    2  0.3903561E+000  0.2333978E+03  0.7546771E-02  0.1124271E+00
         21   -1    0    0  501  502  0.00000000000E+00  0.00000000000E+00  0.94090473170E+02  0.94090473170E+02  0.00000000000E+00 0.  1.
         21   -1    0    0  502  503 -0.00000000000E+00 -0.00000000000E+00 -0.10417948613E+04  0.10417948613E+04  0.00000000000E+00 0. -1.
          6    1    1    2  501    0  0.14299445315E+03 -0.64016544221E+02 -0.95299043088E+02  0.25210402452E+03  0.17300000000E+03 0.  1.
         -6    1    1    2    0  503 -0.14299445315E+03  0.64016544221E+02 -0.85240534505E+03  0.88378130996E+03  0.17300000000E+03 0. -1.
<mgrwt>
<rscale>  2 0.23339780E+03</rscale>
<asrwt>0</asrwt>
<pdfrwt beam="1">  1       21 0.14475457E-01 0.23339780E+03</pdfrwt>
<pdfrwt beam="2">  1       21 0.16027613E+00 0.23339780E+03</pdfrwt>
<totfact> 0.10180395E+04</totfact>
</mgrwt>
</event>
<event>
 4    2  0.3903561E+000  0.3312404E+03  0.7546771E-02  0.1070589E+00
         21   -1    0    0  503  502  0.00000000000E+00  0.00000000000E+00  0.34621600539E+03  0.34621600539E+03  0.00000000000E+00 0. -1.
         21   -1    0    0  501  503 -0.00000000000E+00 -0.00000000000E+00 -0.50772957822E+03  0.50772957822E+03  0.00000000000E+00 0.  1.
          6    1    1    2  501    0  0.20176407488E+03  0.19769285023E+03 -0.34251029227E+03  0.47648033040E+03  0.17300000000E+03 0.  1.
         -6    1    1    2    0  502 -0.20176407488E+03 -0.19769285023E+03  0.18099671944E+03  0.37746525322E+03  0.17300000000E+03 0. -1.
<mgrwt>
<rscale>  2 0.33124040E+03</rscale>
<asrwt>0</asrwt>
<pdfrwt beam="1">  1       21 0.53264001E-01 0.33124040E+03</pdfrwt>
<pdfrwt beam="2">  1       21 0.78112243E-01 0.33124040E+03</pdfrwt>
<totfact> 0.44515895E+03</totfact>
</mgrwt>
</event>
<event>
 4    2  0.3903561E+000  0.2073301E+03  0.7546771E-02  0.1143698E+00
         21   -1    0    0  503  502  0.00000000000E+00  0.00000000000E+00  0.22860524284E+03  0.22860524284E+03  0.00000000000E+00 0.  1.
         21   -1    0    0  501  503 -0.00000000000E+00 -0.00000000000E+00 -0.27868433766E+03  0.27868433766E+03  0.00000000000E+00 0. -1.
          6    1    1    2  501    0 -0.71008209802E+02  0.89524384678E+02 -0.16970074004E+03  0.26792559132E+03  0.17300000000E+03 0. -1.
         -6    1    1    2    0  502  0.71008209802E+02 -0.89524384678E+02  0.11962164522E+03  0.23936398918E+03  0.17300000000E+03 0. -1.
<mgrwt>
<rscale>  2 0.20733013E+03</rscale>
<asrwt>0</asrwt>
<pdfrwt beam="1">  1       21 0.35170037E-01 0.20733013E+03</pdfrwt>
<pdfrwt beam="2">  1       21 0.42874514E-01 0.20733013E+03</pdfrwt>
<totfact> 0.40473390E+04</totfact>
</mgrwt>
</event>
<event>
 4    2  0.3903561E+000  0.1844074E+03  0.7546771E-02  0.1163604E+00
         21   -1    0    0  503  502  0.00000000000E+00  0.00000000000E+00  0.13082425371E+03  0.13082425371E+03  0.00000000000E+00 0.  1.
         21   -1    0    0  501  503 -0.00000000000E+00 -0.00000000000E+00 -0.32791937128E+03  0.32791937128E+03  0.00000000000E+00 0.  1.
          6    1    1    2  501    0  0.13952442402E+02  0.62308959287E+02 -0.20298454886E+03  0.27424223623E+03  0.17300000000E+03 0.  1.
         -6    1    1    2    0  502 -0.13952442402E+02 -0.62308959287E+02  0.58894312880E+01  0.18450138877E+03  0.17300000000E+03 0.  1.
<mgrwt>
<rscale>  2 0.18440737E+03</rscale>
<asrwt>0</asrwt>
<pdfrwt beam="1">  1       21 0.20126809E-01 0.18440737E+03</pdfrwt>
<pdfrwt beam="2">  1       21 0.50449133E-01 0.18440737E+03</pdfrwt>
<totfact> 0.85597017E+04</totfact>
</mgrwt>
</event>
<event>
 4    2  0.3903561E+000  0.1871277E+03  0.7546771E-02  0.1161078E+00
         21   -1    0    0  503  502  0.00000000000E+00  0.00000000000E+00  0.67956155486E+02  0.67956155486E+02  0.00000000000E+00 0.  1.
         21   -1    0    0  501  503 -0.00000000000E+00 -0.00000000000E+00 -0.86871437122E+03  0.86871437122E+03  0.00000000000E+00 0. -1.
          6    1    1    2  501    0 -0.33010345241E+02 -0.63230487596E+02 -0.69910286767E+03  0.72371375352E+03  0.17300000000E+03 0. -1.
         -6    1    1    2    0  502  0.33010345241E+02  0.63230487596E+02 -0.10165534807E+03  0.21295677318E+03  0.17300000000E+03 0.  1.
<mgrwt>
<rscale>  2 0.18712770E+03</rscale>
<asrwt>0</asrwt>
<pdfrwt beam="1">  1       21 0.10454794E-01 0.18712770E+03</pdfrwt>
<pdfrwt beam="2">  1       21 0.13364836E+00 0.18712770E+03</pdfrwt>
<totfact> 0.30327395E+04</totfact>
</mgrwt>
</event>
<event>
 4    2  0.3903561E+000  0.1782250E+03  0.7546771E-02  0.1169532E+00
         21   -1    0    0  501  502  0.00000000000E+00  0.00000000000E+00  0.93423629854E+02  0.93423629854E+02  0.00000000000E+00 0.  1.
         21   -1    0    0  502  503 -0.00000000000E+00 -0.00000000000E+00 -0.35927811292E+03  0.35927811292E+03  0.00000000000E+00 0.  1.
          6    1    1    2  501    0 -0.91349571113E+01 -0.41853269056E+02 -0.18535796580E+03  0.25714143785E+03  0.17300000000E+03 0.  1.
         -6    1    1    2    0  503  0.91349571113E+01  0.41853269056E+02 -0.80496517265E+02  0.19556030493E+03  0.17300000000E+03 0.  1.
<mgrwt>
<rscale>  2 0.17822498E+03</rscale>
<asrwt>0</asrwt>
<pdfrwt beam="1">  1       21 0.14372866E-01 0.17822498E+03</pdfrwt>
<pdfrwt beam="2">  1       21 0.55273555E-01 0.17822498E+03</pdfrwt>
<totfact> 0.13151145E+05</totfact>
</mgrwt>
</event>
<event>
 4    2  0.3903561E+000  0.3488565E+03  0.7546771E-02  0.1063085E+00
         21   -1    0    0  503  502  0.00000000000E+00  0.00000000000E+00  0.13753684068E+03  0.13753684068E+03  0.00000000000E+00 0. -1.
         21   -1    0    0  501  503 -0.00000000000E+00 -0.00000000000E+00 -0.11802586273E+04  0.11802586273E+04  0.00000000000E+00 0.  1.
          6    1    1    2  501    0  0.38799782758E+02 -0.30044375706E+03 -0.85099604854E+03  0.91972558349E+03  0.17300000000E+03 0.  1.
         -6    1    1    2    0  502 -0.38799782758E+02  0.30044375706E+03 -0.19172573808E+03  0.39806988450E+03  0.17300000000E+03 0. -1.
<mgrwt>
<rscale>  2 0.34885652E+03</rscale>
<asrwt>0</asrwt>
<pdfrwt beam="1">  1       21 0.21159514E-01 0.34885652E+03</pdfrwt>
<pdfrwt beam="2">  1       21 0.18157825E+00 0.34885652E+03</pdfrwt>
<totfact> 0.33077436E+03</totfact>
</mgrwt>
</event>
<event>
 4    2  0.3903561E+000  0.2071856E+03  0.7546771E-02  0.1143814E+00
         21   -1    0    0  503  502  0.00000000000E+00  0.00000000000E+00  0.59038969498E+03  0.59038969498E+03  0.00000000000E+00 0. -1.
         21   -1    0    0  501  503 -0.00000000000E+00 -0.00000000000E+00 -0.10483706367E+03  0.10483706367E+03  0.00000000000E+00 0.  1.
          6    1    1    2  501    0  0.11399919199E+03  0.10229312769E+01  0.50338557221E+02  0.21321311523E+03  0.17300000000E+03 0.  1.
         -6    1    1    2    0  502 -0.11399919199E+03 -0.10229312769E+01  0.43521407409E+03  0.48201364342E+03  0.17300000000E+03 0. -1.
<mgrwt>
<rscale>  2 0.20718557E+03</rscale>
<asrwt>0</asrwt>
<pdfrwt beam="1">  1       21 0.90829182E-01 0.20718557E+03</pdfrwt>
<pdfrwt beam="2">  1       21 0.16128779E-01 0.20718557E+03</pdfrwt>
<totfact> 0.35060337E+04</totfact>
</mgrwt>
</event>
<event>
 4    2  0.3903561E+000  0.2047432E+03  0.7546771E-02  0.1145798E+00
         21   -1    0    0  501  502  0.00000000000E+00  0.00000000000E+00  0.24693383087E+03  0.24693383087E+03  0.00000000000E+00 0. -1.
         21   -1    0    0  502  503 -0.00000000000E+00 -0.00000000000E+00 -0.17185010489E+03  0.17185010489E+03  0.00000000000E+00 0. -1.
          6    1    1    2  501    0  0.10545749016E+03 -0.29487122400E+02  0.60627879958E+02  0.21353105733E+03  0.17300000000E+03 0. -1.
         -6    1    1    2    0  503 -0.10545749016E+03  0.29487122400E+02  0.14455846031E+02  0.20525287843E+03  0.17300000000E+03 0. -1.
<mgrwt>
<rscale>  2 0.20474319E+03</rscale>
<asrwt>0</asrwt>
<pdfrwt beam="1">  1       21 0.37989820E-01 0.20474319E+03</pdfrwt>
<pdfrwt beam="2">  1       21 0.26438478E-01 0.20474319E+03</pdfrwt>
<totfact> 0.90477700E+04</totfact>
</mgrwt>
</event>
<event>
 4    2  0.3903561E+000  0.1731934E+03  0.7546771E-02  0.1174558E+00
         21   -1    0    0  503  502  0.00000000000E+00  0.00000000000E+00  0.25631622920E+03  0.25631622920E+03  0.00000000000E+00 0.  1.
         21   -1    0    0  501  503 -0.00000000000E+00 -0.00000000000E+00 -0.30471712950E+03  0.30471712950E+03  0.00000000000E+00 0.  1.
          6    1    1    2  501    0  0.50795269390E+01  0.64151965514E+01 -0.24435659161E+03  0.29950976646E+03  0.17300000000E+03 0.  1.
         -6    1    1    2    0  502 -0.50795269390E+01 -0.64151965514E+01  0.19595569131E+03  0.26152359224E+03  0.17300000000E+03 0.  1.
<mgrwt>
<rscale>  2 0.17319341E+03</rscale>
<asrwt>0</asrwt>
<pdfrwt beam="1">  1       21 0.39433266E-01 0.17319341E+03</pdfrwt>
<pdfrwt beam="2">  1       21 0.46879558E-01 0.17319341E+03</pdfrwt>
<totfact> 0.27299926E+04</totfact>
</mgrwt>
</event>
<event>
 4    2  0.3903561E+000  0.3118162E+03  0.7546771E-02  0.1079479E+00
         21   -1    0    0  501  502  0.00000000000E+00  0.00000000000E+00  0.73223226687E+03  0.73223226687E+03  0.00000000000E+00 0.  1.
         21   -1    0    0  502  503 -0.00000000000E+00 -0.00000000000E+00 -0.18926464559E+03  0.18926464559E+03  0.00000000000E+00 0. -1.
          6    1    1    2  501    0  0.13506621965E+03  0.22148913131E+03  0.52317955400E+03  0.60905349905E+03  0.17300000000E+03 0.  1.
         -6    1    1    2    0  503 -0.13506621965E+03 -0.22148913131E+03  0.19788067279E+02  0.31244341341E+03  0.17300000000E+03 0. -1.
<mgrwt>
<rscale>  2 0.31181616E+03</rscale>
<asrwt>0</asrwt>
<pdfrwt beam="1">  1       21 0.11265112E+00 0.31181616E+03</pdfrwt>
<pdfrwt beam="2">  1       21 0.29117638E-01 0.31181616E+03</pdfrwt>
<totfact> 0.64724021E+03</totfact>
</mgrwt>
</event>
<event>
 4    2  0.3903561E+000  0.1801009E+03  0.7546771E-02  0.1167705E+00
         21   -1    0    0  501  502  0.00000000000E+00  0.00000000000E+00  0.25409521677E+03  0.25409521677E+03  0.00000000000E+00 0.  1.
         21   -1    0    0  502  503 -0.00000000000E+00 -0.00000000000E+00 -0.12984472552E+03  0.12984472552E+03  0.00000000000E+00 0.  1.
          6    1    1    2  501    0 -0.49195211837E+02  0.93366548752E+01  0.87058981455E+02  0.20003901680E+03  0.17300000000E+03 0. -1.
         -6    1    1    2    0  503  0.49195211837E+02 -0.93366548752E+01  0.37191509791E+02  0.18390092548E+03  0.17300000000E+03 0. -1.
<mgrwt>
<rscale>  2 0.18010092E+03</rscale>
<asrwt>0</asrwt>
<pdfrwt beam="1">  1       21 0.39091572E-01 0.18010092E+03</pdfrwt>
<pdfrwt beam="2">  1       21 0.19976112E-01 0.18010092E+03</pdfrwt>
<totfact> 0.14655743E+05</totfact>
</mgrwt>
</event>
<event>
 4    2  0.3903561E+000  0.1791302E+03  0.7546771E-02  0.1168647E+00
         21   -1    0    0  501  502  0.00000000000E+00  0.00000000000E+00  0.69545706805E+02  0.69545706805E+02  0.00000000000E+00 0.  1.
         21   -1    0    0  502  503 -0.00000000000E+00 -0.00000000000E+00 -0.73891459151E+03  0.73891459151E+03  0.00000000000E+00 0. -1.
          6    1    1    2  501    0  0.41989261334E+02 -0.19888237783E+02 -0.86951979926E+02  0.19911877582E+03  0.17300000000E+03 0.  1.
         -6    1    1    2    0  503 -0.41989261334E+02  0.19888237783E+02 -0.58241690478E+03  0.60934152250E+03  0.17300000000E+03 0. -1.
<mgrwt>
<rscale>  2 0.17913023E+03</rscale>
<asrwt>0</asrwt>
<pdfrwt beam="1">  1       21 0.10699339E-01 0.17913023E+03</pdfrwt>
<pdfrwt beam="2">  1       21 0.11367917E+00 0.17913023E+03</pdfrwt>
<totfact> 0.43723108E+04</totfact>
</mgrwt>
</event>
<event>
 4    2  0.3903561E+000  0.1871520E+03  0.7546771E-02  0.1161055E+00
         21   -1    0    0  501  502  0.00000000000E+00  0.00000000000E+00  0.10469161050E+03  0.10469161050E+03  0.00000000000E+00 0. -1.
         21   -1    0    0  502  503 -0.00000000000E+00 -0.00000000000E+00 -0.35831973745E+03  0.35831973745E+03  0.00000000000E+00 0. -1.
          6    1    1    2  501    0 -0.53206845154E+02  0.47601503839E+02 -0.18642495095E+03  0.26415929640E+03  0.17300000000E+03 0. -1.
         -6    1    1    2    0  503  0.53206845154E+02 -0.47601503839E+02 -0.67203175999E+02  0.19885205154E+03  0.17300000000E+03 0. -1.
<mgrwt>
<rscale>  2 0.18715200E+03</rscale>
<asrwt>0</asrwt>
<pdfrwt beam="1">  1       21 0.16106402E-01 0.18715200E+03</pdfrwt>
<pdfrwt beam="2">  1       21 0.55126113E-01 0.18715200E+03</pdfrwt>
<totfact> 0.10714720E+05</totfact>
</mgrwt>
</event>
<event>
 4    2  0.3903561E+000  0.2150302E+03  0.7546771E-02  0.1137643E+00
         21   -1    0    0  503  502  0.00000000000E+00  0.00000000000E+00  0.35181466007E+03  0.35181466007E+03  0.00000000000E+00 0.  1.
         21   -1    0    0  501  503 -0.00000000000E+00 -0.00000000000E+00 -0.13477811891E+03  0.13477811891E+03  0.00000000000E+00 0.  1.
          6    1    1    2  501    0  0.12768063494E+03 -0.25797297866E+01  0.70155417164E+02  0.22618528268E+03  0.17300000000E+03 0.  1.
         -6    1    1    2    0  502 -0.12768063494E+03  0.25797297866E+01  0.14688112399E+03  0.26040749630E+03  0.17300000000E+03 0.  1.
<mgrwt>
<rscale>  2 0.21503023E+03</rscale>
<asrwt>0</asrwt>
<pdfrwt beam="1">  1       21 0.54125332E-01 0.21503023E+03</pdfrwt>
<pdfrwt beam="2">  1       21 0.20735095E-01 0.21503023E+03</pdfrwt>
<totfact> 0.68930536E+04</totfact>
</mgrwt>
</event>
<event>
 4    2  0.3903561E+000  0.2396216E+03  0.7546771E-02  0.1120045E+00
         21   -1    0    0  501  502  0.00000000000E+00  0.00000000000E+00  0.66603978232E+03  0.66603978232E+03  0.00000000000E+00 0.  1.
         21   -1    0    0  502  503 -0.00000000000E+00 -0.00000000000E+00 -0.40128402733E+03  0.40128402733E+03  0.00000000000E+00 0. -1.
          6    1    1    2  501    0 -0.99431581093E+02  0.13267584459E+03  0.60525397772E+03  0.65096151699E+03  0.17300000000E+03 0.  1.
         -6    1    1    2    0  503  0.99431581093E+02 -0.13267584459E+03 -0.34049822273E+03  0.41636229265E+03  0.17300000000E+03 0. -1.
<mgrwt>
<rscale>  2 0.23962162E+03</rscale>
<asrwt>0</asrwt>
<pdfrwt beam="1">  1       21 0.10246766E+00 0.23962162E+03</pdfrwt>
<pdfrwt beam="2">  1       21 0.61736004E-01 0.23962162E+03</pdfrwt>
<totfact> 0.18138366E+03</totfact>
</mgrwt>
</event>
<event>
 4    2  0.3903561E+000  0.1943033E+03  0.7546771E-02  0.1154636E+00
         21   -1    0    0  501  502  0.00000000000E+00  0.00000000000E+00  0.18704933892E+03  0.18704933892E+03  0.00000000000E+00 0. -1.
         21   -1    0    0  502  503 -0.00000000000E+00 -0.00000000000E+00 -0.61371269080E+03  0.61371269080E+03  0.00000000000E+00 0.  1.
          6    1    1    2  501    0  0.57684323848E+02  0.67061743343E+02  0.11466784663E+03  0.22561576560E+03  0.17300000000E+03 0. -1.
         -6    1    1    2    0  503 -0.57684323848E+02 -0.67061743343E+02 -0.54133119852E+03  0.57514626412E+03  0.17300000000E+03 0.  1.
<mgrwt>
<rscale>  2 0.19430326E+03</rscale>
<asrwt>0</asrwt>
<pdfrwt beam="1">  1       21 0.28776822E-01 0.19430326E+03</pdfrwt>
<pdfrwt beam="2">  1       21 0.94417335E-01 0.19430326E+03</pdfrwt>
<totfact> 0.10846809E+04</totfact>
</mgrwt>
</event>
<event>
 4    2  0.3903561E+000  0.1905255E+03  0.7546771E-02  0.1157988E+00
         21   -1    0    0  501  502  0.00000000000E+00  0.00000000000E+00  0.32468191738E+03  0.32468191738E+03  0.00000000000E+00 0.  1.
         21   -1    0    0  502  503 -0.00000000000E+00 -0.00000000000E+00 -0.26386603679E+03  0.26386603679E+03  0.00000000000E+00 0.  1.
          6    1    1    2  501    0 -0.76517338643E+02 -0.22717368439E+02  0.25380313888E+03  0.31735786621E+03  0.17300000000E+03 0.  1.
         -6    1    1    2    0  503  0.76517338643E+02  0.22717368439E+02 -0.19298725830E+03  0.27119008796E+03  0.17300000000E+03 0.  1.
<mgrwt>
<rscale>  2 0.19052554E+03</rscale>
<asrwt>0</asrwt>
<pdfrwt beam="1">  1       21 0.49951064E-01 0.19052554E+03</pdfrwt>
<pdfrwt beam="2">  1       21 0.40594775E-01 0.19052554E+03</pdfrwt>
<totfact> 0.22350663E+04</totfact>
</mgrwt>
</event>
<event>
 4    2  0.3903561E+000  0.1987791E+03  0.7546771E-02  0.1150773E+00
         21   -1    0    0  503  502  0.00000000000E+00  0.00000000000E+00  0.14694625900E+04  0.14694625900E+04  0.00000000000E+00 0.  1.
         21   -1    0    0  501  503 -0.00000000000E+00 -0.00000000000E+00 -0.50853997635E+02  0.50853997635E+02  0.00000000000E+00 0.  1.
          6    1    1    2  501    0  0.37528182730E+02 -0.90419957173E+02  0.18747850825E+03  0.27324224455E+03  0.17300000000E+03 0.  1.
         -6    1    1    2    0  502 -0.37528182730E+02  0.90419957173E+02  0.12311300841E+04  0.12470743430E+04  0.17300000000E+03 0.  1.
<mgrwt>
<rscale>  2 0.19877911E+03</rscale>
<asrwt>0</asrwt>
<pdfrwt beam="1">  1       21 0.22607114E+00 0.19877911E+03</pdfrwt>
<pdfrwt beam="2">  1       21 0.78236931E-02 0.19877911E+03</pdfrwt>
<totfact> 0.11461325E+04</totfact>
</mgrwt>
</event>
<event>
 4    2  0.3903561E+000  0.2389734E+03  0.7546771E-02  0.1120479E+00
         21   -1    0    0  501  502  0.00000000000E+00  0.00000000000E+00  0.57621917758E+03  0.57621917758E+03  0.00000000000E+00 0.  1.
         21   -1    0    0  502  503 -0.00000000000E+00 -0.00000000000E+00 -0.11607197952E+03  0.11607197952E+03  0.00000000000E+00 0.  1.
          6    1    1    2  501    0 -0.49636850918E+02 -0.15721151790E+03  0.97745756973E+02  0.25819084286E+03  0.17300000000E+03 0.  1.
         -6    1    1    2    0  503  0.49636850918E+02  0.15721151790E+03  0.36240144109E+03  0.43410031425E+03  0.17300000000E+03 0.  1.
<mgrwt>
<rscale>  2 0.23897338E+03</rscale>
<asrwt>0</asrwt>
<pdfrwt beam="1">  1       21 0.88649103E-01 0.23897338E+03</pdfrwt>
<pdfrwt beam="2">  1       21 0.17857228E-01 0.23897338E+03</pdfrwt>
<totfact> 0.30252300E+04</totfact>
</mgrwt>
</event>
<event>
 4    2  0.3903561E+000  0.2366709E+03  0.7546771E-02  0.1122031E+00
         21   -1    0    0  501  502  0.00000000000E+00  0.00000000000E+00  0.11420835406E+03  0.11420835406E+03  0.00000000000E+00 0.  1.
         21   -1    0    0  502  503 -0.00000000000E+00 -0.00000000000E+00 -0.64141743024E+03  0.64141743024E+03  0.00000000000E+00 0. -1.
          6    1    1    2  501    0 -0.16116040600E+03  0.10555372457E+02 -0.44690054300E+03  0.50570068982E+03  0.17300000000E+03 0. -1.
         -6    1    1    2    0  503  0.16116040600E+03 -0.10555372457E+02 -0.80308533177E+02  0.24992509448E+03  0.17300000000E+03 0.  1.
<mgrwt>
<rscale>  2 0.23667085E+03</rscale>
<asrwt>0</asrwt>
<pdfrwt beam="1">  1       21 0.17570516E-01 0.23667085E+03</pdfrwt>
<pdfrwt beam="2">  1       21 0.98679603E-01 0.23667085E+03</pdfrwt>
<totfact> 0.24265514E+04</totfact>
</mgrwt>
</event>
<event>
 4    2  0.3903561E+000  0.2902849E+03  0.7546771E-02  0.1090200E+00
         21   -1    0    0  503  502  0.00000000000E+00  0.00000000000E+00  0.24479575569E+03  0.24479575569E+03  0.00000000000E+00 0. -1.
         21   -1    0    0  501  503 -0.00000000000E+00 -0.00000000000E+00 -0.42559166441E+03  0.42559166441E+03  0.00000000000E+00 0.  1.
          6    1    1    2  501    0  0.17979998879E+03  0.14835193006E+03  0.56162558795E+02  0.29566799646E+03  0.17300000000E+03 0. -1.
         -6    1    1    2    0  502 -0.17979998879E+03 -0.14835193006E+03 -0.23695846752E+03  0.37471942363E+03  0.17300000000E+03 0.  1.
<mgrwt>
<rscale>  2 0.29028491E+03</rscale>
<asrwt>0</asrwt>
<pdfrwt beam="1">  1       21 0.37660885E-01 0.29028491E+03</pdfrwt>
<pdfrwt beam="2">  1       21 0.65475641E-01 0.29028491E+03</pdfrwt>
<totfact> 0.13835776E+04</totfact>
</mgrwt>
</event>
<event>
 4    2  0.3903561E+000  0.1746422E+03  0.7546771E-02  0.1173091E+00
         21   -1    0    0  501  502  0.00000000000E+00  0.00000000000E+00  0.28718543086E+03  0.28718543086E+03  0.00000000000E+00 0.  1.
         21   -1    0    0  502  503 -0.00000000000E+00 -0.00000000000E+00 -0.17637782070E+03  0.17637782070E+03  0.00000000000E+00 0.  1.
          6    1    1    2  501    0  0.22434303187E+02 -0.82226222699E+01  0.20160406934E+03  0.26672853288E+03  0.17300000000E+03 0.  1.
         -6    1    1    2    0  503 -0.22434303187E+02  0.82226222699E+01 -0.90796459188E+02  0.19683471868E+03  0.17300000000E+03 0.  1.
<mgrwt>
<rscale>  2 0.17464223E+03</rscale>
<asrwt>0</asrwt>
<pdfrwt beam="1">  1       21 0.44182374E-01 0.17464223E+03</pdfrwt>
<pdfrwt beam="2">  1       21 0.27135049E-01 0.17464223E+03</pdfrwt>
<totfact> 0.64197737E+04</totfact>
</mgrwt>
</event>
<event>
 4    2  0.3903561E+000  0.2861647E+03  0.7546771E-02  0.1092369E+00
         21   -1    0    0  503  502  0.00000000000E+00  0.00000000000E+00  0.44859246954E+02  0.44859246954E+02  0.00000000000E+00 0.  1.
         21   -1    0    0  501  503 -0.00000000000E+00 -0.00000000000E+00 -0.18623179706E+04  0.18623179706E+04  0.00000000000E+00 0. -1.
          6    1    1    2  501    0  0.22606589302E+03 -0.29248346398E+02 -0.10428216201E+04  0.10813728243E+04  0.17300000000E+03 0.  1.
         -6    1    1    2    0  502 -0.22606589302E+03  0.29248346398E+02 -0.77463710355E+03  0.82580439327E+03  0.17300000000E+03 0. -1.
<mgrwt>
<rscale>  2 0.28616473E+03</rscale>
<asrwt>0</asrwt>
<pdfrwt beam="1">  1       21 0.69014216E-02 0.28616473E+03</pdfrwt>
<pdfrwt beam="2">  1       21 0.28651050E+00 0.28616473E+03</pdfrwt>
<totfact> 0.58120240E+03</totfact>
</mgrwt>
</event>
<event>
 4    2  0.3903561E+000  0.2237895E+03  0.7546771E-02  0.1131089E+00
         21   -1    0    0  503  502  0.00000000000E+00  0.00000000000E+00  0.43195685944E+03  0.43195685944E+03  0.00000000000E+00 0. -1.
         21   -1    0    0  501  503 -0.00000000000E+00 -0.00000000000E+00 -0.15873542363E+03  0.15873542363E+03  0.00000000000E+00 0.  1.
          6    1    1    2  501    0 -0.80173404420E+02 -0.11715353896E+03 -0.16739862688E+02  0.22441468194E+03  0.17300000000E+03 0.  1.
         -6    1    1    2    0  502  0.80173404420E+02  0.11715353896E+03  0.28996129850E+03  0.36627760114E+03  0.17300000000E+03 0. -1.
<mgrwt>
<rscale>  2 0.22378947E+03</rscale>
<asrwt>0</asrwt>
<pdfrwt beam="1">  1       21 0.66454901E-01 0.22378947E+03</pdfrwt>
<pdfrwt beam="2">  1       21 0.24420835E-01 0.22378947E+03</pdfrwt>
<totfact> 0.32360859E+04</totfact>
</mgrwt>
</event>
<event>
 4    2  0.3903561E+000  0.1980583E+03  0.7546771E-02  0.1151388E+00
         21   -1    0    0  503  502  0.00000000000E+00  0.00000000000E+00  0.24199691793E+03  0.24199691793E+03  0.00000000000E+00 0. -1.
         21   -1    0    0  501  503 -0.00000000000E+00 -0.00000000000E+00 -0.19541396866E+03  0.19541396866E+03  0.00000000000E+00 0. -1.
          6    1    1    2  501    0  0.74889100549E+02 -0.60742894886E+02 -0.67013520975E+02  0.20908823174E+03  0.17300000000E+03 0. -1.
         -6    1    1    2    0  502 -0.74889100549E+02  0.60742894886E+02  0.11359647024E+03  0.22832265484E+03  0.17300000000E+03 0. -1.
<mgrwt>
<rscale>  2 0.19805827E+03</rscale>
<asrwt>0</asrwt>
<pdfrwt beam="1">  1       21 0.37230295E-01 0.19805827E+03</pdfrwt>
<pdfrwt beam="2">  1       21 0.30063688E-01 0.19805827E+03</pdfrwt>
<totfact> 0.73665689E+04</totfact>
</mgrwt>
</event>
<event>
 4    2  0.3903561E+000  0.1992507E+03  0.7546771E-02  0.1150373E+00
         21   -1    0    0  501  502  0.00000000000E+00  0.00000000000E+00  0.84347552716E+02  0.84347552716E+02  0.00000000000E+00 0. -1.
         21   -1    0    0  502  503 -0.00000000000E+00 -0.00000000000E+00 -0.69858704371E+03  0.69858704371E+03  0.00000000000E+00 0. -1.
          6    1    1    2  501    0 -0.51460678739E+02 -0.84401741273E+02 -0.53071491286E+03  0.56688550354E+03  0.17300000000E+03 0. -1.
         -6    1    1    2    0  503  0.51460678739E+02  0.84401741273E+02 -0.83524578132E+02  0.21604909289E+03  0.17300000000E+03 0. -1.
<mgrwt>
<rscale>  2 0.19925073E+03</rscale>
<asrwt>0</asrwt>
<pdfrwt beam="1">  1       21 0.12976546E-01 0.19925073E+03</pdfrwt>
<pdfrwt beam="2">  1       21 0.10747493E+00 0.19925073E+03</pdfrwt>
<totfact> 0.35097343E+04</totfact>
</mgrwt>
</event>
<event>
 4    2  0.3903561E+000  0.2932840E+03  0.7546771E-02  0.1088647E+00
         21   -1    0    0  503  502  0.00000000000E+00  0.00000000000E+00  0.38165650547E+03  0.38165650547E+03  0.00000000000E+00 0. -1.
         21   -1    0    0  501  503 -0.00000000000E+00 -0.00000000000E+00 -0.45276978727E+03  0.45276978727E+03  0.00000000000E+00 0.  1.
          6    1    1    2  501    0 -0.12053769653E+03 -0.20385570655E+03 -0.33122877226E+03  0.44241155608E+03  0.17300000000E+03 0.  1.
         -6    1    1    2    0  502  0.12053769653E+03  0.20385570655E+03  0.26011549046E+03  0.39201473666E+03  0.17300000000E+03 0. -1.
<mgrwt>
<rscale>  2 0.29328397E+03</rscale>
<asrwt>0</asrwt>
<pdfrwt beam="1">  1       21 0.58716385E-01 0.29328397E+03</pdfrwt>
<pdfrwt beam="2">  1       21 0.69656891E-01 0.29328397E+03</pdfrwt>
<totfact> 0.47635567E+03</totfact>
</mgrwt>
</event>
<event>
 4    2  0.3903561E+000  0.1735623E+03  0.7546771E-02  0.1174183E+00
         21   -1    0    0  503  502  0.00000000000E+00  0.00000000000E+00  0.11667588198E+04  0.11667588198E+04  0.00000000000E+00 0.  1.
         21   -1    0    0  501  503 -0.00000000000E+00 -0.00000000000E+00 -0.27444267765E+02  0.27444267765E+02  0.00000000000E+00 0.  1.
          6    1    1    2  501    0  0.13916096461E+02 -0.11006614622E+01  0.71498963237E+03  0.73575406461E+03  0.17300000000E+03 0. -1.
         -6    1    1    2    0  502 -0.13916096461E+02  0.11006614622E+01  0.42432491963E+03  0.45844902292E+03  0.17300000000E+03 0. -1.
<mgrwt>
<rscale>  2 0.17356229E+03</rscale>
<asrwt>0</asrwt>
<pdfrwt beam="1">  1       21 0.17950132E+00 0.17356229E+03</pdfrwt>
<pdfrwt beam="2">  1       21 0.42221959E-02 0.17356229E+03</pdfrwt>
<totfact> 0.66369550E+04</totfact>
</mgrwt>
</event>
<event>
 4    2  0.3903561E+000  0.2373200E+03  0.7546771E-02  0.1121591E+00
         21   -1    0    0  503  502  0.00000000000E+00  0.00000000000E+00  0.16678684542E+03  0.16678684542E+03  0.00000000000E+00 0. -1.
         21   -1    0    0  501  503 -0.00000000000E+00 -0.00000000000E+00 -0.34378693652E+03  0.34378693652E+03  0.00000000000E+00 0. -1.
          6    1    1    2  501    0 -0.73299797775E+02 -0.14497900243E+03 -0.54478415300E+02  0.24349264718E+03  0.17300000000E+03 0. -1.
         -6    1    1    2    0  502  0.73299797775E+02  0.14497900243E+03 -0.12252167580E+03  0.26708113475E+03  0.17300000000E+03 0. -1.
<mgrwt>
<rscale>  2 0.23731998E+03</rscale>
<asrwt>0</asrwt>
<pdfrwt beam="1">  1       21 0.25659515E-01 0.23731998E+03</pdfrwt>
<pdfrwt beam="2">  1       21 0.52890297E-01 0.23731998E+03</pdfrwt>
<totfact> 0.47817958E+04</totfact>
</mgrwt>
</event>
<event>
 4    2  0.3903561E+000  0.1784589E+03  0.7546771E-02  0.1169303E+00
         21   -1    0    0  501  502  0.00000000000E+00  0.00000000000E+00  0.29415464944E+03  0.29415464944E+03  0.00000000000E+00 0.  1.
         21   -1    0    0  502  503 -0.00000000000E+00 -0.00000000000E+00 -0.12288138613E+03  0.12288138613E+03  0.00000000000E+00 0.  1.
          6    1    1    2  501    0 -0.43624863732E+02 -0.39310631284E+01  0.13729225607E+02  0.17898623866E+03  0.17300000000E+03 0.  1.
         -6    1    1    2    0  503  0.43624863732E+02  0.39310631284E+01  0.15754403771E+03  0.23804979691E+03  0.17300000000E+03 0.  1.
<mgrwt>
<rscale>  2 0.17845891E+03</rscale>
<asrwt>0</asrwt>
<pdfrwt beam="1">  1       21 0.45254561E-01 0.17845891E+03</pdfrwt>
<pdfrwt beam="2">  1       21 0.18904829E-01 0.17845891E+03</pdfrwt>
<totfact> 0.12068648E+05</totfact>
</mgrwt>
</event>
<event>
 4    2  0.3903561E+000  0.2170676E+03  0.7546771E-02  0.1136088E+00
         21   -1    0    0  501  502  0.00000000000E+00  0.00000000000E+00  0.45859998024E+03  0.45859998024E+03  0.00000000000E+00 0.  1.
         21   -1    0    0  502  503 -0.00000000000E+00 -0.00000000000E+00 -0.23177530528E+03  0.23177530528E+03  0.00000000000E+00 0. -1.
          6    1    1    2  501    0  0.11662129040E+03  0.59906673143E+02  0.37096700829E+03  0.42980792931E+03  0.17300000000E+03 0.  1.
         -6    1    1    2    0  503 -0.11662129040E+03 -0.59906673143E+02 -0.14414233333E+03  0.26056735620E+03  0.17300000000E+03 0. -1.
<mgrwt>
<rscale>  2 0.21706758E+03</rscale>
<asrwt>0</asrwt>
<pdfrwt beam="1">  1       21 0.70553843E-01 0.21706758E+03</pdfrwt>
<pdfrwt beam="2">  1       21 0.35657739E-01 0.21706758E+03</pdfrwt>
<totfact> 0.13596688E+04</totfact>
</mgrwt>
</event>
<event>
 4    2  0.3903561E+000  0.2417036E+03  0.7546771E-02  0.1118663E+00
         21   -1    0    0  501  502  0.00000000000E+00  0.00000000000E+00  0.15230971013E+04  0.15230971013E+04  0.00000000000E+00 0.  1.
         21   -1    0    0  502  503 -0.00000000000E+00 -0.00000000000E+00 -0.39158282699E+02  0.39158282699E+02  0.00000000000E+00 0.  1.
          6    1    1    2  501    0  0.13905453973E+03  0.95684112463E+02  0.85374555952E+03  0.88730045351E+03  0.17300000000E+03 0.  1.
         -6    1    1    2    0  503 -0.13905453973E+03 -0.95684112463E+02  0.63019325906E+03  0.67495493047E+03  0.17300000000E+03 0.  1.
<mgrwt>
<rscale>  2 0.24170357E+03</rscale>
<asrwt>0</asrwt>
<pdfrwt beam="1">  1       21 0.23432259E+00 0.24170357E+03</pdfrwt>
<pdfrwt beam="2">  1       21 0.60243524E-02 0.24170357E+03</pdfrwt>
<totfact> 0.15515759E+04</totfact>
</mgrwt>
</event>
<event>
 4    2  0.3903561E+000  0.1762189E+03  0.7546771E-02  0.1171513E+00
         21   -1    0    0  501  502  0.00000000000E+00  0.00000000000E+00  0.13037345112E+04  0.13037345112E+04  0.00000000000E+00 0. -1.
         21   -1    0    0  502  503 -0.00000000000E+00 -0.00000000000E+00 -0.29316941367E+02  0.29316941367E+02  0.00000000000E+00 0.  1.
          6    1    1    2  501    0  0.26372147429E+02  0.20702793932E+02  0.92586073602E+03  0.94248140477E+03  0.17300000000E+03 0. -1.
         -6    1    1    2    0  503 -0.26372147429E+02 -0.20702793932E+02  0.34855683380E+03  0.39057004779E+03  0.17300000000E+03 0.  1.
<mgrwt>
<rscale>  2 0.17621889E+03</rscale>
<asrwt>0</asrwt>
<pdfrwt beam="1">  1       21 0.20057449E+00 0.17621889E+03</pdfrwt>
<pdfrwt beam="2">  1       21 0.45102997E-02 0.17621889E+03</pdfrwt>
<totfact> 0.43113116E+04</totfact>
</mgrwt>
</event>
<event>
 4    2  0.3903561E+000  0.1755019E+03  0.7546771E-02  0.1172229E+00
         21   -1    0    0  503  502  0.00000000000E+00  0.00000000000E+00  0.14124700773E+03  0.14124700773E+03  0.00000000000E+00 0. -1.
         21   -1    0    0  501  503 -0.00000000000E+00 -0.00000000000E+00 -0.41391320925E+03  0.41391320925E+03  0.00000000000E+00 0. -1.
          6    1    1    2  501    0 -0.94384667224E+00  0.29513377118E+02 -0.32727193794E+03  0.37135946419E+03  0.17300000000E+03 0. -1.
         -6    1    1    2    0  502  0.94384667224E+00 -0.29513377118E+02  0.54605736425E+02  0.18380075279E+03  0.17300000000E+03 0. -1.
<mgrwt>
<rscale>  2 0.17550194E+03</rscale>
<asrwt>0</asrwt>
<pdfrwt beam="1">  1       21 0.21730309E-01 0.17550194E+03</pdfrwt>
<pdfrwt beam="2">  1       21 0.63678954E-01 0.17550194E+03</pdfrwt>
<totfact> 0.45406915E+04</totfact>
</mgrwt>
</event>
<event>
 4    2  0.3903561E+000  0.1895976E+03  0.7546771E-02  0.1158825E+00
         21   -1    0    0  503  502  0.00000000000E+00  0.00000000000E+00  0.22614579860E+03  0.22614579860E+03  0.00000000000E+00 0.  1.
         21   -1    0    0  501  503 -0.00000000000E+00 -0.00000000000E+00 -0.16005753503E+03  0.16005753503E+03  0.00000000000E+00 0.  1.
          6    1    1    2  501    0  0.51789861447E+02  0.57758481061E+02  0.17024709971E+02  0.19036037569E+03  0.17300000000E+03 0.  1.
         -6    1    1    2    0  502 -0.51789861447E+02 -0.57758481061E+02  0.49063553599E+02  0.19584295794E+03  0.17300000000E+03 0.  1.
<mgrwt>
<rscale>  2 0.18959755E+03</rscale>
<asrwt>0</asrwt>
<pdfrwt beam="1">  1       21 0.34791661E-01 0.18959755E+03</pdfrwt>
<pdfrwt beam="2">  1       21 0.24624236E-01 0.18959755E+03</pdfrwt>
<totfact> 0.12428573E+05</totfact>
</mgrwt>
</event>
<event>
 4    2  0.3903561E+000  0.1791319E+03  0.7546771E-02  0.1168646E+00
         21   -1    0    0  501  502  0.00000000000E+00  0.00000000000E+00  0.99466866682E+03  0.99466866682E+03  0.00000000000E+00 0. -1.
         21   -1    0    0  502  503 -0.00000000000E+00 -0.00000000000E+00 -0.60333870455E+02  0.60333870455E+02  0.00000000000E+00 0. -1.
          6    1    1    2  501    0 -0.29819117732E+02  0.35637834011E+02  0.82699321557E+03  0.84617138547E+03  0.17300000000E+03 0. -1.
         -6    1    1    2    0  503  0.29819117732E+02 -0.35637834011E+02  0.10734158079E+03  0.20883115180E+03  0.17300000000E+03 0. -1.
<mgrwt>
<rscale>  2 0.17913189E+03</rscale>
<asrwt>0</asrwt>
<pdfrwt beam="1">  1       21 0.15302594E+00 0.17913189E+03</pdfrwt>
<pdfrwt beam="2">  1       21 0.92821346E-02 0.17913189E+03</pdfrwt>
<totfact> 0.26467619E+04</totfact>
</mgrwt>
</event>
<event>
 4    2  0.3903561E+000  0.2572376E+03  0.7546771E-02  0.1108814E+00
         21   -1    0    0  503  502  0.00000000000E+00  0.00000000000E+00  0.51502702753E+03  0.51502702753E+03  0.00000000000E+00 0.  1.
         21   -1    0    0  501  503 -0.00000000000E+00 -0.00000000000E+00 -0.20092519229E+03  0.20092519229E+03  0.00000000000E+00 0.  1.
          6    1    1    2  501    0 -0.17578565766E+03 -0.73086086033E+02 -0.57899709965E+02  0.26367318754E+03  0.17300000000E+03 0.  1.
         -6    1    1    2    0  502  0.17578565766E+03  0.73086086033E+02  0.37200154520E+03  0.45227903228E+03  0.17300000000E+03 0.  1.
<mgrwt>
<rscale>  2 0.25723758E+03</rscale>
<asrwt>0</asrwt>
<pdfrwt beam="1">  1       21 0.79234927E-01 0.25723758E+03</pdfrwt>
<pdfrwt beam="2">  1       21 0.30911568E-01 0.25723758E+03</pdfrwt>
<totfact> 0.13603877E+04</totfact>
</mgrwt>
</event>
<event>
 4    2  0.3903561E+000  0.2922881E+03  0.7546771E-02  0.1089161E+00
         21   -1    0    0  503  502  0.00000000000E+00  0.00000000000E+00  0.64423038330E+03  0.64423038330E+03  0.00000000000E+00 0.  1.
         21   -1    0    0  501  503 -0.00000000000E+00 -0.00000000000E+00 -0.14740153442E+03  0.14740153442E+03  0.00000000000E+00 0. -1.
          6    1    1    2  501    0 -0.16056289196E+03  0.17240326169E+03  0.12303462028E+03  0.31712748967E+03  0.17300000000E+03 0.  1.
         -6    1    1    2    0  502  0.16056289196E+03 -0.17240326169E+03  0.37379422860E+03  0.47450442806E+03  0.17300000000E+03 0.  1.
<mgrwt>
<rscale>  2 0.29228809E+03</rscale>
<asrwt>0</asrwt>
<pdfrwt beam="1">  1       21 0.99112365E-01 0.29228809E+03</pdfrwt>
<pdfrwt beam="2">  1       21 0.22677160E-01 0.29228809E+03</pdfrwt>
<totfact> 0.14472245E+04</totfact>
</mgrwt>
</event>
<event>
 4    2  0.3903561E+000  0.1798935E+03  0.7546771E-02  0.1167906E+00
         21   -1    0    0  501  502  0.00000000000E+00  0.00000000000E+00  0.37605798077E+03  0.37605798077E+03  0.00000000000E+00 0.  1.
         21   -1    0    0  502  503 -0.00000000000E+00 -0.00000000000E+00 -0.14098882690E+03  0.14098882690E+03  0.00000000000E+00 0.  1.
          6    1    1    2  501    0 -0.14064490862E-02  0.49322096447E+02  0.27890630427E+03  0.33188913174E+03  0.17300000000E+03 0.  1.
         -6    1    1    2    0  503  0.14064490862E-02 -0.49322096447E+02 -0.43837150407E+02  0.18515767593E+03  0.17300000000E+03 0.  1.
<mgrwt>
<rscale>  2 0.17989349E+03</rscale>
<asrwt>0</asrwt>
<pdfrwt beam="1">  1       21 0.57855074E-01 0.17989349E+03</pdfrwt>
<pdfrwt beam="2">  1       21 0.21690589E-01 0.17989349E+03</pdfrwt>
<totfact> 0.55860388E+04</totfact>
</mgrwt>
</event>
<event>
 4    2  0.3903561E+000  0.2206454E+03  0.7546771E-02  0.1133403E+00
         21   -1    0    0  503  502  0.00000000000E+00  0.00000000000E+00  0.73881133074E+02  0.73881133074E+02  0.00000000000E+00 0.  1.
         21   -1    0    0  501  503 -0.00000000000E+00 -0.00000000000E+00 -0.69812676371E+03  0.69812676371E+03  0.00000000000E+00 0. -1.
          6    1    1    2  501    0 -0.25341196402E+02  0.13458539866E+03 -0.40355653438E+03  0.45993725899E+03  0.17300000000E+03 0. -1.
         -6    1    1    2    0  502  0.25341196402E+02 -0.13458539866E+03 -0.22068909625E+03  0.31207063779E+03  0.17300000000E+03 0.  1.
<mgrwt>
<rscale>  2 0.22064543E+03</rscale>
<asrwt>0</asrwt>
<pdfrwt beam="1">  1       21 0.11366328E-01 0.22064543E+03</pdfrwt>
<pdfrwt beam="2">  1       21 0.10740412E+00 0.22064543E+03</pdfrwt>
<totfact> 0.44086913E+04</totfact>
</mgrwt>
</event>
<event>
 4    2  0.3903561E+000  0.1792117E+03  0.7546771E-02  0.1168568E+00
         21   -1    0    0  503  502  0.00000000000E+00  0.00000000000E+00  0.35852121170E+03  0.35852121170E+03  0.00000000000E+00 0. -1.
         21   -1    0    0  501  503 -0.00000000000E+00 -0.00000000000E+00 -0.95262807534E+02  0.95262807534E+02  0.00000000000E+00 0. -1.
          6    1    1    2  501    0  0.27609273509E+02  0.37756439606E+02  0.18703901651E+03  0.25903747685E+03  0.17300000000E+03 0. -1.
         -6    1    1    2    0  502 -0.27609273509E+02 -0.37756439606E+02  0.76219387653E+02  0.19474654238E+03  0.17300000000E+03 0. -1.
<mgrwt>
<rscale>  2 0.17921166E+03</rscale>
<asrwt>0</asrwt>
<pdfrwt beam="1">  1       21 0.55157109E-01 0.17921166E+03</pdfrwt>
<pdfrwt beam="2">  1       21 0.14655817E-01 0.17921166E+03</pdfrwt>
<totfact> 0.12746705E+05</totfact>
</mgrwt>
</event>
<event>
 4    2  0.3903561E+000  0.1864693E+03  0.7546771E-02  0.1161685E+00
         21   -1    0    0  501  502  0.00000000000E+00  0.00000000000E+00  0.10861756898E+03  0.10861756898E+03  0.00000000000E+00 0. -1.
         21   -1    0    0  502  503 -0.00000000000E+00 -0.00000000000E+00 -0.61458944461E+03  0.61458944461E+03  0.00000000000E+00 0. -1.
          6    1    1    2  501    0 -0.20009309096E+01  0.69554226916E+02 -0.26868501827E+01  0.18648864140E+03  0.17300000000E+03 0. -1.
         -6    1    1    2    0  503  0.20009309096E+01 -0.69554226916E+02 -0.50328502545E+03  0.53671837219E+03  0.17300000000E+03 0. -1.
<mgrwt>
<rscale>  2 0.18646928E+03</rscale>
<asrwt>0</asrwt>
<pdfrwt beam="1">  1       21 0.16710395E-01 0.18646928E+03</pdfrwt>
<pdfrwt beam="2">  1       21 0.94552224E-01 0.18646928E+03</pdfrwt>
<totfact> 0.30262154E+04</totfact>
</mgrwt>
</event>
<event>
 4    2  0.3903561E+000  0.1941852E+03  0.7546771E-02  0.1154740E+00
         21   -1    0    0  503  502  0.00000000000E+00  0.00000000000E+00  0.30420202690E+03  0.30420202690E+03  0.00000000000E+00 0. -1.
         21   -1    0    0  501  503 -0.00000000000E+00 -0.00000000000E+00 -0.18183829734E+03  0.18183829734E+03  0.00000000000E+00 0. -1.
          6    1    1    2  501    0 -0.85441570374E+02 -0.21877804430E+02 -0.75928291041E+02  0.20850181211E+03  0.17300000000E+03 0. -1.
         -6    1    1    2    0  502  0.85441570374E+02  0.21877804430E+02  0.19829202060E+03  0.27753851212E+03  0.17300000000E+03 0. -1.
<mgrwt>
<rscale>  2 0.19418522E+03</rscale>
<asrwt>0</asrwt>
<pdfrwt beam="1">  1       21 0.46800312E-01 0.19418522E+03</pdfrwt>
<pdfrwt beam="2">  1       21 0.27975123E-01 0.19418522E+03</pdfrwt>
<totfact> 0.53308543E+04</totfact>
</mgrwt>
</event>
<event>
 4    2  0.3903561E+000  0.2630717E+03  0.7546771E-02  0.1105312E+00
         21   -1    0    0  501  502  0.00000000000E+00  0.00000000000E+00  0.51086548301E+03  0.51086548301E+03  0.00000000000E+00 0.  1.
         21   -1    0    0  502  503 -0.00000000000E+00 -0.00000000000E+00 -0.19061795960E+03  0.19061795960E+03  0.00000000000E+00 0. -1.
          6    1    1    2  501    0 -0.19738580436E+03  0.17792627567E+02  0.34878031324E+03  0.43686890512E+03  0.17300000000E+03 0.  1.
         -6    1    1    2    0  503  0.19738580436E+03 -0.17792627567E+02 -0.28532789829E+02  0.26461453750E+03  0.17300000000E+03 0. -1.
<mgrwt>
<rscale>  2 0.26307173E+03</rscale>
<asrwt>0</asrwt>
<pdfrwt beam="1">  1       21 0.78594689E-01 0.26307173E+03</pdfrwt>
<pdfrwt beam="2">  1       21 0.29325840E-01 0.26307173E+03</pdfrwt>
<totfact> 0.15322304E+04</totfact>
</mgrwt>
</event>
<event>
 4    2  0.3903561E+000  0.1767551E+03  0.7546771E-02  0.1170981E+00
         21   -1    0    0  503  502  0.00000000000E+00  0.00000000000E+00  0.33539587485E+03  0.33539587485E+03  0.00000000000E+00 0. -1.
         21   -1    0    0  501  503 -0.00000000000E+00 -0.00000000000E+00 -0.12491069183E+03  0.12491069183E+03  0.00000000000E+00 0. -1.
          6    1    1    2  501    0 -0.13259344284E+02  0.33727860688E+02 -0.10810626242E+02  0.17708542695E+03  0.17300000000E+03 0. -1.
         -6    1    1    2    0  502  0.13259344284E+02 -0.33727860688E+02  0.22129580926E+03  0.28322113973E+03  0.17300000000E+03 0. -1.
<mgrwt>
<rscale>  2 0.17675514E+03</rscale>
<asrwt>0</asrwt>
<pdfrwt beam="1">  1       21 0.51599365E-01 0.17675514E+03</pdfrwt>
<pdfrwt beam="2">  1       21 0.19217030E-01 0.17675514E+03</pdfrwt>
<totfact> 0.89281904E+04</totfact>
</mgrwt>
</event>
<event>
 4    2  0.3903561E+000  0.2231830E+03  0.7546771E-02  0.1131532E+00
         21   -1    0    0  503  502  0.00000000000E+00  0.00000000000E+00  0.25343478890E+04  0.25343478890E+04  0.00000000000E+00 0. -1.
         21   -1    0    0  501  503 -0.00000000000E+00 -0.00000000000E+00 -0.22491143616E+02  0.22491143616E+02  0.00000000000E+00 0.  1.
          6    1    1    2  501    0 -0.56897469507E+02 -0.12901288914E+03  0.17099650549E+04  0.17244683635E+04  0.17300000000E+03 0. -1.
         -6    1    1    2    0  502  0.56897469507E+02  0.12901288914E+03  0.80189169047E+03  0.83237066914E+03  0.17300000000E+03 0.  1.
<mgrwt>
<rscale>  2 0.22318299E+03</rscale>
<asrwt>0</asrwt>
<pdfrwt beam="1">  1       21 0.38989945E+00 0.22318299E+03</pdfrwt>
<pdfrwt beam="2">  1       21 0.34601779E-02 0.22318299E+03</pdfrwt>
<totfact> 0.48327147E+03</totfact>
</mgrwt>
</event>
<event>
 4    2  0.3903561E+000  0.1751182E+03  0.7546771E-02  0.1172613E+00
         21   -1    0    0  501  502  0.00000000000E+00  0.00000000000E+00  0.10667875730E+03  0.10667875730E+03  0.00000000000E+00 0. -1.
         21   -1    0    0  502  503 -0.00000000000E+00 -0.00000000000E+00 -0.34414671218E+03  0.34414671218E+03  0.00000000000E+00 0. -1.
          6    1    1    2  501    0  0.19874936247E+02 -0.18502828758E+02 -0.27253252943E+02  0.17722614807E+03  0.17300000000E+03 0. -1.
         -6    1    1    2    0  503 -0.19874936247E+02  0.18502828758E+02 -0.21021470194E+03  0.27359932141E+03  0.17300000000E+03 0. -1.
<mgrwt>
<rscale>  2 0.17511815E+03</rscale>
<asrwt>0</asrwt>
<pdfrwt beam="1">  1       21 0.16412116E-01 0.17511815E+03</pdfrwt>
<pdfrwt beam="2">  1       21 0.52945649E-01 0.17511815E+03</pdfrwt>
<totfact> 0.11321390E+05</totfact>
</mgrwt>
</event>
<event>
 4    2  0.3903561E+000  0.2155855E+03  0.7546771E-02  0.1137218E+00
         21   -1    0    0  501  502  0.00000000000E+00  0.00000000000E+00  0.29179694046E+03  0.29179694046E+03  0.00000000000E+00 0. -1.
         21   -1    0    0  502  503 -0.00000000000E+00 -0.00000000000E+00 -0.16933616365E+03  0.16933616365E+03  0.00000000000E+00 0.  1.
          6    1    1    2  501    0 -0.31312492464E+02 -0.12477038375E+03  0.11742044944E+03  0.24548866123E+03  0.17300000000E+03 0. -1.
         -6    1    1    2    0  503  0.31312492464E+02  0.12477038375E+03  0.50403273718E+01  0.21564444288E+03  0.17300000000E+03 0.  1.
<mgrwt>
<rscale>  2 0.21558553E+03</rscale>
<asrwt>0</asrwt>
<pdfrwt beam="1">  1       21 0.44891837E-01 0.21558553E+03</pdfrwt>
<pdfrwt beam="2">  1       21 0.26051717E-01 0.21558553E+03</pdfrwt>
<totfact> 0.65985182E+04</totfact>
</mgrwt>
</event>
<event>
 4    2  0.3903561E+000  0.2027286E+03  0.7546771E-02  0.1147457E+00
         21   -1    0    0  501  502  0.00000000000E+00  0.00000000000E+00  0.61429740821E+03  0.61429740821E+03  0.00000000000E+00 0.  1.
         21   -1    0    0  502  503 -0.00000000000E+00 -0.00000000000E+00 -0.17414137178E+03  0.17414137178E+03  0.00000000000E+00 0.  1.
          6    1    1    2  501    0  0.65770969362E+02 -0.82728879873E+02  0.52943526840E+03  0.56692203291E+03  0.17300000000E+03 0.  1.
         -6    1    1    2    0  503 -0.65770969362E+02  0.82728879873E+02 -0.89279231969E+02  0.22151674708E+03  0.17300000000E+03 0.  1.
<mgrwt>
<rscale>  2 0.20272861E+03</rscale>
<asrwt>0</asrwt>
<pdfrwt beam="1">  1       21 0.94507293E-01 0.20272861E+03</pdfrwt>
<pdfrwt beam="2">  1       21 0.26790981E-01 0.20272861E+03</pdfrwt>
<totfact> 0.12355058E+04</totfact>
</mgrwt>
</event>
<event>
 4    2  0.3903561E+000  0.2007042E+03  0.7546771E-02  0.1149146E+00
         21   -1    0    0  503  502  0.00000000000E+00  0.00000000000E+00  0.34146358699E+02  0.34146358699E+02  0.00000000000E+00 0. -1.
         21   -1    0    0  501  503 -0.00000000000E+00 -0.00000000000E+00 -0.13055820351E+04  0.13055820351E+04  0.00000000000E+00 0.  1.
          6    1    1    2  501    0  0.78104735917E+02  0.65213560952E+02 -0.42770900920E+03  0.47245862767E+03  0.17300000000E+03 0. -1.
         -6    1    1    2    0  502 -0.78104735917E+02 -0.65213560952E+02 -0.84372666722E+03  0.86726976615E+03  0.17300000000E+03 0.  1.
<mgrwt>
<rscale>  2 0.20070416E+03</rscale>
<asrwt>0</asrwt>
<pdfrwt beam="1">  1       21 0.52532856E-02 0.20070416E+03</pdfrwt>
<pdfrwt beam="2">  1       21 0.20085879E+00 0.20070416E+03</pdfrwt>
<totfact> 0.32606752E+04</totfact>
</mgrwt>
</event>
<event>
 4    2  0.3903561E+000  0.2160487E+03  0.7546771E-02  0.1136864E+00
         21   -1    0    0  501  502  0.00000000000E+00  0.00000000000E+00  0.52495551464E+03  0.52495551464E+03  0.00000000000E+00 0. -1.
         21   -1    0    0  502  503 -0.00000000000E+00 -0.00000000000E+00 -0.20234571475E+03  0.20234571475E+03  0.00000000000E+00 0. -1.
          6    1    1    2  501    0 -0.40428784820E+02  0.12293723091E+03  0.43357525514E+03  0.48442187323E+03  0.17300000000E+03 0. -1.
         -6    1    1    2    0  503  0.40428784820E+02 -0.12293723091E+03 -0.11096545526E+03  0.24287935616E+03  0.17300000000E+03 0. -1.
<mgrwt>
<rscale>  2 0.21604872E+03</rscale>
<asrwt>0</asrwt>
<pdfrwt beam="1">  1       21 0.80762387E-01 0.21604872E+03</pdfrwt>
<pdfrwt beam="2">  1       21 0.31130110E-01 0.21604872E+03</pdfrwt>
<totfact> 0.13145555E+04</totfact>
</mgrwt>
</event>
<event>
 4    2  0.3903561E+000  0.2245194E+03  0.7546771E-02  0.1130558E+00
         21   -1    0    0  501  502  0.00000000000E+00  0.00000000000E+00  0.62864408604E+03  0.62864408604E+03  0.00000000000E+00 0. -1.
         21   -1    0    0  502  503 -0.00000000000E+00 -0.00000000000E+00 -0.83226395392E+02  0.83226395392E+02  0.00000000000E+00 0. -1.
          6    1    1    2  501    0 -0.32645907291E+02 -0.13933486030E+03  0.34073066194E+03  0.40805188707E+03  0.17300000000E+03 0. -1.
         -6    1    1    2    0  503  0.32645907291E+02  0.13933486030E+03  0.20468702871E+03  0.30381859436E+03  0.17300000000E+03 0. -1.
<mgrwt>
<rscale>  2 0.22451939E+03</rscale>
<asrwt>0</asrwt>
<pdfrwt beam="1">  1       21 0.96714472E-01 0.22451939E+03</pdfrwt>
<pdfrwt beam="2">  1       21 0.12804061E-01 0.22451939E+03</pdfrwt>
<totfact> 0.45667225E+04</totfact>
</mgrwt>
</event>
<event>
 4    2  0.3903561E+000  0.2049560E+03  0.7546771E-02  0.1145624E+00
         21   -1    0    0  503  502  0.00000000000E+00  0.00000000000E+00  0.98025344971E+02  0.98025344971E+02  0.00000000000E+00 0. -1.
         21   -1    0    0  501  503 -0.00000000000E+00 -0.00000000000E+00 -0.89526440120E+03  0.89526440120E+03  0.00000000000E+00 0. -1.
          6    1    1    2  501    0 -0.88773984726E+02 -0.64785485664E+02 -0.75721463391E+03  0.78446222428E+03  0.17300000000E+03 0. -1.
         -6    1    1    2    0  502  0.88773984726E+02  0.64785485664E+02 -0.40024422319E+02  0.20882752189E+03  0.17300000000E+03 0. -1.
<mgrwt>
<rscale>  2 0.20495604E+03</rscale>
<asrwt>0</asrwt>
<pdfrwt beam="1">  1       21 0.15080821E-01 0.20495604E+03</pdfrwt>
<pdfrwt beam="2">  1       21 0.13773299E+00 0.20495604E+03</pdfrwt>
<totfact> 0.14374715E+04</totfact>
</mgrwt>
</event>
<event>
 4    2  0.3903561E+000  0.1739097E+03  0.7546771E-02  0.1173831E+00
         21   -1    0    0  503  502  0.00000000000E+00  0.00000000000E+00  0.32280222932E+03  0.32280222932E+03  0.00000000000E+00 0. -1.
         21   -1    0    0  501  503 -0.00000000000E+00 -0.00000000000E+00 -0.10836780986E+03  0.10836780986E+03  0.00000000000E+00 0. -1.
          6    1    1    2  501    0  0.12584105413E+02 -0.12539118747E+02  0.27886408556E+02  0.17613131746E+03  0.17300000000E+03 0. -1.
         -6    1    1    2    0  502 -0.12584105413E+02  0.12539118747E+02  0.18654801090E+03  0.25503872173E+03  0.17300000000E+03 0. -1.
<mgrwt>
<rscale>  2 0.17390972E+03</rscale>
<asrwt>0</asrwt>
<pdfrwt beam="1">  1       21 0.49661881E-01 0.17390972E+03</pdfrwt>
<pdfrwt beam="2">  1       21 0.16671971E-01 0.17390972E+03</pdfrwt>
<totfact> 0.12579248E+05</totfact>
</mgrwt>
</event>
<event>
 4    2  0.3903561E+000  0.2278709E+03  0.7546771E-02  0.1128147E+00
         21   -1    0    0  503  502  0.00000000000E+00  0.00000000000E+00  0.54669436787E+03  0.54669436787E+03  0.00000000000E+00 0. -1.
         21   -1    0    0  501  503 -0.00000000000E+00 -0.00000000000E+00 -0.96147287958E+02  0.96147287958E+02  0.00000000000E+00 0. -1.
          6    1    1    2  501    0  0.13805999720E+03 -0.54180957324E+02  0.18986094282E+03  0.29660127540E+03  0.17300000000E+03 0. -1.
         -6    1    1    2    0  502 -0.13805999720E+03  0.54180957324E+02  0.26068613710E+03  0.34624038043E+03  0.17300000000E+03 0. -1.
<mgrwt>
<rscale>  2 0.22787088E+03</rscale>
<asrwt>0</asrwt>
<pdfrwt beam="1">  1       21 0.84106824E-01 0.22787088E+03</pdfrwt>
<pdfrwt beam="2">  1       21 0.14791891E-01 0.22787088E+03</pdfrwt>
<totfact> 0.48560783E+04</totfact>
</mgrwt>
</event>
<event>
 4    2  0.3903561E+000  0.2914900E+03  0.7546771E-02  0.1089574E+00
         21   -1    0    0  501  502  0.00000000000E+00  0.00000000000E+00  0.93470475679E+03  0.93470475679E+03  0.00000000000E+00 0.  1.
         21   -1    0    0  502  503 -0.00000000000E+00 -0.00000000000E+00 -0.16817537315E+03  0.16817537315E+03  0.00000000000E+00 0.  1.
          6    1    1    2  501    0 -0.21561827947E+03  0.92445416971E+02  0.75705880333E+03  0.81123635844E+03  0.17300000000E+03 0.  1.
         -6    1    1    2    0  503  0.21561827947E+03 -0.92445416971E+02  0.94705803108E+01  0.29164377150E+03  0.17300000000E+03 0.  1.
<mgrwt>
<rscale>  2 0.29148996E+03</rscale>
<asrwt>0</asrwt>
<pdfrwt beam="1">  1       21 0.14380073E+00 0.29148996E+03</pdfrwt>
<pdfrwt beam="2">  1       21 0.25873135E-01 0.29148996E+03</pdfrwt>
<totfact> 0.44183660E+03</totfact>
</mgrwt>
</event>
<event>
 4    2  0.3903561E+000  0.1849380E+03  0.7546771E-02  0.1163108E+00
         21   -1    0    0  503  502  0.00000000000E+00  0.00000000000E+00  0.14782080645E+04  0.14782080645E+04  0.00000000000E+00 0. -1.
         21   -1    0    0  501  503 -0.00000000000E+00 -0.00000000000E+00 -0.74283599583E+02  0.74283599583E+02  0.00000000000E+00 0. -1.
          6    1    1    2  501    0 -0.44970586569E+02  0.47441613754E+02  0.57853762731E+02  0.19377594854E+03  0.17300000000E+03 0. -1.
         -6    1    1    2    0  502  0.44970586569E+02 -0.47441613754E+02  0.13460707022E+04  0.13587157156E+04  0.17300000000E+03 0. -1.
<mgrwt>
<rscale>  2 0.18493799E+03</rscale>
<asrwt>0</asrwt>
<pdfrwt beam="1">  1       21 0.22741660E+00 0.18493799E+03</pdfrwt>
<pdfrwt beam="2">  1       21 0.11428247E-01 0.18493799E+03</pdfrwt>
<totfact> 0.58486427E+03</totfact>
</mgrwt>
</event>
<event>
 4    2  0.3903561E+000  0.2291392E+03  0.7546771E-02  0.1127247E+00
         21   -1    0    0  503  502  0.00000000000E+00  0.00000000000E+00  0.31977879098E+03  0.31977879098E+03  0.00000000000E+00 0. -1.
         21   -1    0    0  501  503 -0.00000000000E+00 -0.00000000000E+00 -0.24689026847E+03  0.24689026847E+03  0.00000000000E+00 0.  1.
          6    1    1    2  501    0  0.79183484650E+02  0.12769400592E+03 -0.12753860942E+03  0.26224202616E+03  0.17300000000E+03 0.  1.
         -6    1    1    2    0  502 -0.79183484650E+02 -0.12769400592E+03  0.20042713193E+03  0.30442703330E+03  0.17300000000E+03 0. -1.
<mgrwt>
<rscale>  2 0.22913922E+03</rscale>
<asrwt>0</asrwt>
<pdfrwt beam="1">  1       21 0.49196737E-01 0.22913922E+03</pdfrwt>
<pdfrwt beam="2">  1       21 0.37983118E-01 0.22913922E+03</pdfrwt>
<totfact> 0.25829578E+04</totfact>
</mgrwt>
</event>
<event>
 4    2  0.3903561E+000  0.1767964E+03  0.7546771E-02  0.1170940E+00
         21   -1    0    0  503  502  0.00000000000E+00  0.00000000000E+00  0.79711660663E+03  0.79711660663E+03  0.00000000000E+00 0.  1.
         21   -1    0    0  501  503 -0.00000000000E+00 -0.00000000000E+00 -0.66653272101E+02  0.66653272101E+02  0.00000000000E+00 0.  1.
          6    1    1    2  501    0  0.60265826068E+01 -0.35939713645E+02  0.88119872189E+02  0.19754010881E+03  0.17300000000E+03 0.  1.
         -6    1    1    2    0  502 -0.60265826068E+01  0.35939713645E+02  0.64234346234E+03  0.66622976992E+03  0.17300000000E+03 0.  1.
<mgrwt>
<rscale>  2 0.17679644E+03</rscale>
<asrwt>0</asrwt>
<pdfrwt beam="1">  1       21 0.12263332E+00 0.17679644E+03</pdfrwt>
<pdfrwt beam="2">  1       21 0.10254350E-01 0.17679644E+03</pdfrwt>
<totfact> 0.39182423E+04</totfact>
</mgrwt>
</event>
<event>
 4    2  0.3903561E+000  0.2079600E+03  0.7546771E-02  0.1143192E+00
         21   -1    0    0  503  502  0.00000000000E+00  0.00000000000E+00  0.12540081980E+03  0.12540081980E+03  0.00000000000E+00 0. -1.
         21   -1    0    0  501  503 -0.00000000000E+00 -0.00000000000E+00 -0.55079741748E+03  0.55079741748E+03  0.00000000000E+00 0. -1.
          6    1    1    2  501    0  0.10031654107E+03  0.57052263910E+02 -0.41942754007E+03  0.46815257192E+03  0.17300000000E+03 0. -1.
         -6    1    1    2    0  502 -0.10031654107E+03 -0.57052263910E+02 -0.59690576136E+01  0.20804566537E+03  0.17300000000E+03 0. -1.
<mgrwt>
<rscale>  2 0.20796002E+03</rscale>
<asrwt>0</asrwt>
<pdfrwt beam="1">  1       21 0.19292434E-01 0.20796002E+03</pdfrwt>
<pdfrwt beam="2">  1       21 0.84738063E-01 0.20796002E+03</pdfrwt>
<totfact> 0.29535896E+04</totfact>
</mgrwt>
</event>
<event>
 4    2  0.3903561E+000  0.1755212E+03  0.7546771E-02  0.1172209E+00
         21   -1    0    0  503  502  0.00000000000E+00  0.00000000000E+00  0.25651207223E+03  0.25651207223E+03  0.00000000000E+00 0.  1.
         21   -1    0    0  501  503 -0.00000000000E+00 -0.00000000000E+00 -0.18391589020E+04  0.18391589020E+04  0.00000000000E+00 0.  1.
          6    1    1    2  501    0 -0.71379375836E+01 -0.28770350981E+02 -0.18043680184E+04  0.18128848913E+04  0.17300000000E+03 0.  1.
         -6    1    1    2    0  502  0.71379375836E+01  0.28770350981E+02  0.22172118859E+03  0.28278608297E+03  0.17300000000E+03 0.  1.
<mgrwt>
<rscale>  2 0.17552118E+03</rscale>
<asrwt>0</asrwt>
<pdfrwt beam="1">  1       21 0.39463398E-01 0.17552118E+03</pdfrwt>
<pdfrwt beam="2">  1       21 0.28294751E+00 0.17552118E+03</pdfrwt>
<totfact> 0.27204616E+02</totfact>
</mgrwt>
</event>
<event>
 4    2  0.3903561E+000  0.1811083E+03  0.7546771E-02  0.1166735E+00
         21   -1    0    0  503  502  0.00000000000E+00  0.00000000000E+00  0.17725922993E+03  0.17725922993E+03  0.00000000000E+00 0. -1.
         21   -1    0    0  501  503 -0.00000000000E+00 -0.00000000000E+00 -0.18978089255E+03  0.18978089255E+03  0.00000000000E+00 0. -1.
          6    1    1    2  501    0  0.42302956341E+02 -0.32888628364E+02 -0.35264139717E+02  0.18450951613E+03  0.17300000000E+03 0. -1.
         -6    1    1    2    0  502 -0.42302956341E+02  0.32888628364E+02  0.22742477092E+02  0.18253060635E+03  0.17300000000E+03 0. -1.
<mgrwt>
<rscale>  2 0.18110826E+03</rscale>
<asrwt>0</asrwt>
<pdfrwt beam="1">  1       21 0.27270651E-01 0.18110826E+03</pdfrwt>
<pdfrwt beam="2">  1       21 0.29197060E-01 0.18110826E+03</pdfrwt>
<totfact> 0.14456610E+05</totfact>
</mgrwt>
</event>
<event>
 4    2  0.3903561E+000  0.2343460E+03  0.7546771E-02  0.1123618E+00
         21   -1    0    0  501  502  0.00000000000E+00  0.00000000000E+00  0.62407074027E+03  0.62407074027E+03  0.00000000000E+00 0.  1.
         21   -1    0    0  502  503 -0.00000000000E+00 -0.00000000000E+00 -0.11918563633E+03  0.11918563633E+03  0.00000000000E+00 0.  1.
          6    1    1    2  501    0  0.75456220256E+02 -0.13890787543E+03  0.44253990513E+03  0.50075903053E+03  0.17300000000E+03 0.  1.
         -6    1    1    2    0  503 -0.75456220256E+02  0.13890787543E+03  0.62345198814E+02  0.24249734606E+03  0.17300000000E+03 0.  1.
<mgrwt>
<rscale>  2 0.23434598E+03</rscale>
<asrwt>0</asrwt>
<pdfrwt beam="1">  1       21 0.96010881E-01 0.23434598E+03</pdfrwt>
<pdfrwt beam="2">  1       21 0.18336252E-01 0.23434598E+03</pdfrwt>
<totfact> 0.23948800E+04</totfact>
</mgrwt>
</event>
<event>
 4    2  0.3903561E+000  0.1974694E+03  0.7546771E-02  0.1151892E+00
         21   -1    0    0  503  502  0.00000000000E+00  0.00000000000E+00  0.13784762772E+04  0.13784762772E+04  0.00000000000E+00 0. -1.
         21   -1    0    0  501  503 -0.00000000000E+00 -0.00000000000E+00 -0.12750491073E+03  0.12750491073E+03  0.00000000000E+00 0.  1.
          6    1    1    2  501    0 -0.94653446496E+02 -0.10290557950E+02 -0.38745422947E+02  0.20123463498E+03  0.17300000000E+03 0.  1.
         -6    1    1    2    0  502  0.94653446496E+02  0.10290557950E+02  0.12897167895E+04  0.13047465530E+04  0.17300000000E+03 0. -1.
<mgrwt>
<rscale>  2 0.19746942E+03</rscale>
<asrwt>0</asrwt>
<pdfrwt beam="1">  1       21 0.21207326E+00 0.19746942E+03</pdfrwt>
<pdfrwt beam="2">  1       21 0.19616141E-01 0.19746942E+03</pdfrwt>
<totfact> 0.26822777E+03</totfact>
</mgrwt>
</event>
<event>
 4    2  0.3903561E+000  0.1756181E+03  0.7546771E-02  0.1172113E+00
         21   -1    0    0  501  502  0.00000000000E+00  0.00000000000E+00  0.46356546854E+03  0.46356546854E+03  0.00000000000E+00 0.  1.
         21   -1    0    0  502  503 -0.00000000000E+00 -0.00000000000E+00 -0.99705993616E+02  0.99705993616E+02  0.00000000000E+00 0.  1.
          6    1    1    2  501    0 -0.24585542462E+02 -0.17557707024E+02  0.34438322724E+03  0.38657667956E+03  0.17300000000E+03 0.  1.
         -6    1    1    2    0  503  0.24585542462E+02  0.17557707024E+02  0.19476247686E+02  0.17669478260E+03  0.17300000000E+03 0.  1.
<mgrwt>
<rscale>  2 0.17561811E+03</rscale>
<asrwt>0</asrwt>
<pdfrwt beam="1">  1       21 0.71317763E-01 0.17561811E+03</pdfrwt>
<pdfrwt beam="2">  1       21 0.15339384E-01 0.17561811E+03</pdfrwt>
<totfact> 0.67474536E+04</totfact>
</mgrwt>
</event>
<event>
 4    2  0.3903561E+000  0.1940273E+03  0.7546771E-02  0.1154878E+00
         21   -1    0    0  501  502  0.00000000000E+00  0.00000000000E+00  0.13780500666E+03  0.13780500666E+03  0.00000000000E+00 0. -1.
         21   -1    0    0  502  503 -0.00000000000E+00 -0.00000000000E+00 -0.11544568455E+04  0.11544568455E+04  0.00000000000E+00 0. -1.
          6    1    1    2  501    0  0.71117782179E+02 -0.51573779639E+02  0.56202785011E+02  0.20200333347E+03  0.17300000000E+03 0. -1.
         -6    1    1    2    0  503 -0.71117782179E+02  0.51573779639E+02 -0.10728546239E+04  0.10902585187E+04  0.17300000000E+03 0. -1.
<mgrwt>
<rscale>  2 0.19402730E+03</rscale>
<asrwt>0</asrwt>
<pdfrwt beam="1">  1       21 0.21200772E-01 0.19402730E+03</pdfrwt>
<pdfrwt beam="2">  1       21 0.17760873E+00 0.19402730E+03</pdfrwt>
<totfact> 0.39052529E+03</totfact>
</mgrwt>
</event>
<event>
 4    2  0.3903561E+000  0.1808194E+03  0.7546771E-02  0.1167012E+00
         21   -1    0    0  501  502  0.00000000000E+00  0.00000000000E+00  0.29768878733E+02  0.29768878733E+02  0.00000000000E+00 0.  1.
         21   -1    0    0  502  503 -0.00000000000E+00 -0.00000000000E+00 -0.11796323490E+04  0.11796323490E+04  0.00000000000E+00 0.  1.
          6    1    1    2  501    0  0.43663335506E+02  0.29328474569E+02 -0.73369684517E+03  0.75564985734E+03  0.17300000000E+03 0.  1.
         -6    1    1    2    0  503 -0.43663335506E+02 -0.29328474569E+02 -0.41616662511E+03  0.45375137041E+03  0.17300000000E+03 0.  1.
<mgrwt>
<rscale>  2 0.18081937E+03</rscale>
<asrwt>0</asrwt>
<pdfrwt beam="1">  1       21 0.45798273E-02 0.18081937E+03</pdfrwt>
<pdfrwt beam="2">  1       21 0.18148191E+00 0.18081937E+03</pdfrwt>
<totfact> 0.55879799E+04</totfact>
</mgrwt>
</event>
<event>
 4    2  0.3903561E+000  0.1826073E+03  0.7546771E-02  0.1165303E+00
         21   -1    0    0  503  502  0.00000000000E+00  0.00000000000E+00  0.65883791533E+02  0.65883791533E+02  0.00000000000E+00 0. -1.
         21   -1    0    0  501  503 -0.00000000000E+00 -0.00000000000E+00 -0.50885505959E+03  0.50885505959E+03  0.00000000000E+00 0. -1.
          6    1    1    2  501    0 -0.21679692455E+02 -0.54280885717E+02 -0.24253514903E+03  0.30359302056E+03  0.17300000000E+03 0.  1.
         -6    1    1    2    0  502  0.21679692455E+02  0.54280885717E+02 -0.20043611903E+03  0.27114583056E+03  0.17300000000E+03 0.  1.
<mgrwt>
<rscale>  2 0.18260729E+03</rscale>
<asrwt>0</asrwt>
<pdfrwt beam="1">  1       21 0.10135968E-01 0.18260729E+03</pdfrwt>
<pdfrwt beam="2">  1       21 0.78285394E-01 0.18260729E+03</pdfrwt>
<totfact> 0.11485883E+05</totfact>
</mgrwt>
</event>
<event>
 4    2  0.3903561E+000  0.1798643E+03  0.7546771E-02  0.1167934E+00
         21   -1    0    0  503  502  0.00000000000E+00  0.00000000000E+00  0.49030038151E+03  0.49030038151E+03  0.00000000000E+00 0. -1.
         21   -1    0    0  501  503 -0.00000000000E+00 -0.00000000000E+00 -0.26295937020E+03  0.26295937020E+03  0.00000000000E+00 0. -1.
          6    1    1    2  501    0 -0.18703421065E+02 -0.45522997435E+02 -0.21229995488E+03  0.27824886719E+03  0.17300000000E+03 0. -1.
         -6    1    1    2    0  502  0.18703421065E+02  0.45522997435E+02  0.43964096619E+03  0.47501088452E+03  0.17300000000E+03 0. -1.
<mgrwt>
<rscale>  2 0.17986429E+03</rscale>
<asrwt>0</asrwt>
<pdfrwt beam="1">  1       21 0.75430828E-01 0.17986429E+03</pdfrwt>
<pdfrwt beam="2">  1       21 0.40455288E-01 0.17986429E+03</pdfrwt>
<totfact> 0.93251999E+03</totfact>
</mgrwt>
</event>
<event>
 4    2  0.3903561E+000  0.2236144E+03  0.7546771E-02  0.1131217E+00
         21   -1    0    0  503  502  0.00000000000E+00  0.00000000000E+00  0.92140045952E+02  0.92140045952E+02  0.00000000000E+00 0.  1.
         21   -1    0    0  501  503 -0.00000000000E+00 -0.00000000000E+00 -0.92923977218E+03  0.92923977218E+03  0.00000000000E+00 0.  1.
          6    1    1    2  501    0 -0.12740842024E+03  0.61979668137E+02 -0.74792945132E+03  0.78064194671E+03  0.17300000000E+03 0.  1.
         -6    1    1    2    0  502  0.12740842024E+03 -0.61979668137E+02 -0.89170274907E+02  0.24073787142E+03  0.17300000000E+03 0.  1.
<mgrwt>
<rscale>  2 0.22361437E+03</rscale>
<asrwt>0</asrwt>
<pdfrwt beam="1">  1       21 0.14175391E-01 0.22361437E+03</pdfrwt>
<pdfrwt beam="2">  1       21 0.14295997E+00 0.22361437E+03</pdfrwt>
<totfact> 0.14429637E+04</totfact>
</mgrwt>
</event>
<event>
 4    2  0.3903561E+000  0.2986352E+03  0.7546771E-02  0.1085925E+00
         21   -1    0    0  501  502  0.00000000000E+00  0.00000000000E+00  0.62500789705E+03  0.62500789705E+03  0.00000000000E+00 0. -1.
         21   -1    0    0  502  503 -0.00000000000E+00 -0.00000000000E+00 -0.35287327134E+03  0.35287327134E+03  0.00000000000E+00 0.  1.
          6    1    1    2  501    0 -0.71139637042E+02  0.23279416956E+03  0.51341769388E+03  0.59395345081E+03  0.17300000000E+03 0. -1.
         -6    1    1    2    0  503  0.71139637042E+02 -0.23279416956E+03 -0.24128306817E+03  0.38392771758E+03  0.17300000000E+03 0.  1.
<mgrwt>
<rscale>  2 0.29863518E+03</rscale>
<asrwt>0</asrwt>
<pdfrwt beam="1">  1       21 0.96155061E-01 0.29863518E+03</pdfrwt>
<pdfrwt beam="2">  1       21 0.54288196E-01 0.29863518E+03</pdfrwt>
<totfact> 0.26791713E+03</totfact>
</mgrwt>
</event>
<event>
 4    2  0.3903561E+000  0.3143037E+03  0.7546771E-02  0.1078301E+00
         21   -1    0    0  503  502  0.00000000000E+00  0.00000000000E+00  0.22360933711E+03  0.22360933711E+03  0.00000000000E+00 0. -1.
         21   -1    0    0  501  503 -0.00000000000E+00 -0.00000000000E+00 -0.44639501420E+03  0.44639501420E+03  0.00000000000E+00 0. -1.
          6    1    1    2  501    0 -0.23736946700E+03  0.11186389989E+03 -0.77341442405E+02  0.32367961733E+03  0.17300000000E+03 0. -1.
         -6    1    1    2    0  502  0.23736946700E+03 -0.11186389989E+03 -0.14544423469E+03  0.34632473398E+03  0.17300000000E+03 0. -1.
<mgrwt>
<rscale>  2 0.31430367E+03</rscale>
<asrwt>0</asrwt>
<pdfrwt beam="1">  1       21 0.34401437E-01 0.31430367E+03</pdfrwt>
<pdfrwt beam="2">  1       21 0.68676156E-01 0.31430367E+03</pdfrwt>
<totfact> 0.14787027E+04</totfact>
</mgrwt>
</event>
<event>
 4    2  0.3903561E+000  0.2226940E+03  0.7546771E-02  0.1131890E+00
         21   -1    0    0  501  502  0.00000000000E+00  0.00000000000E+00  0.99689924174E+03  0.99689924174E+03  0.00000000000E+00 0. -1.
         21   -1    0    0  502  503 -0.00000000000E+00 -0.00000000000E+00 -0.72805839210E+02  0.72805839210E+02  0.00000000000E+00 0. -1.
          6    1    1    2  501    0  0.70884758971E+02 -0.12099152524E+03  0.76304987773E+03  0.79488220142E+03  0.17300000000E+03 0. -1.
         -6    1    1    2    0  503 -0.70884758971E+02  0.12099152524E+03  0.16104352481E+03  0.27482287953E+03  0.17300000000E+03 0. -1.
<mgrwt>
<rscale>  2 0.22269396E+03</rscale>
<asrwt>0</asrwt>
<pdfrwt beam="1">  1       21 0.15336910E+00 0.22269396E+03</pdfrwt>
<pdfrwt beam="2">  1       21 0.11200899E-01 0.22269396E+03</pdfrwt>
<totfact> 0.18336495E+04</totfact>
</mgrwt>
</event>
<event>
 4    2  0.3903561E+000  0.1990200E+03  0.7546771E-02  0.1150568E+00
         21   -1    0    0  501  502  0.00000000000E+00  0.00000000000E+00  0.12919409884E+04  0.12919409884E+04  0.00000000000E+00 0.  1.
         21   -1    0    0  502  503 -0.00000000000E+00 -0.00000000000E+00 -0.47180722060E+02  0.47180722060E+02  0.00000000000E+00 0.  1.
          6    1    1    2  501    0  0.12818364948E+02  0.97548227868E+02  0.22615497471E+03  0.30125577144E+03  0.17300000000E+03 0.  1.
         -6    1    1    2    0  503 -0.12818364948E+02 -0.97548227868E+02  0.10186052917E+04  0.10378659390E+04  0.17300000000E+03 0.  1.
<mgrwt>
<rscale>  2 0.19902002E+03</rscale>
<asrwt>0</asrwt>
<pdfrwt beam="1">  1       21 0.19876013E+00 0.19902002E+03</pdfrwt>
<pdfrwt beam="2">  1       21 0.72585736E-02 0.19902002E+03</pdfrwt>
<totfact> 0.19335034E+04</totfact>
</mgrwt>
</event>
<event>
 4    2  0.3903561E+000  0.2133544E+03  0.7546771E-02  0.1138937E+00
         21   -1    0    0  503  502  0.00000000000E+00  0.00000000000E+00  0.34086589711E+03  0.34086589711E+03  0.00000000000E+00 0. -1.
         21   -1    0    0  501  503 -0.00000000000E+00 -0.00000000000E+00 -0.17738620571E+03  0.17738620571E+03  0.00000000000E+00 0.  1.
          6    1    1    2  501    0  0.10692899910E+03 -0.64477152963E+02  0.21056608994E+03  0.29976356072E+03  0.17300000000E+03 0. -1.
         -6    1    1    2    0  502 -0.10692899910E+03  0.64477152963E+02 -0.47086398537E+02  0.21848854210E+03  0.17300000000E+03 0.  1.
<mgrwt>
<rscale>  2 0.21335443E+03</rscale>
<asrwt>0</asrwt>
<pdfrwt beam="1">  1       21 0.52440907E-01 0.21335443E+03</pdfrwt>
<pdfrwt beam="2">  1       21 0.27290185E-01 0.21335443E+03</pdfrwt>
<totfact> 0.43701237E+04</totfact>
</mgrwt>
</event>
<event>
 4    2  0.3903561E+000  0.1984977E+03  0.7546771E-02  0.1151013E+00
         21   -1    0    0  503  502  0.00000000000E+00  0.00000000000E+00  0.61680882883E+03  0.61680882883E+03  0.00000000000E+00 0. -1.
         21   -1    0    0  501  503 -0.00000000000E+00 -0.00000000000E+00 -0.76437922294E+02  0.76437922294E+02  0.00000000000E+00 0. -1.
          6    1    1    2  501    0  0.95277191567E+02 -0.19864225439E+02  0.12968620375E+03  0.23710723761E+03  0.17300000000E+03 0. -1.
         -6    1    1    2    0  502 -0.95277191567E+02  0.19864225439E+02  0.41068470278E+03  0.45613951351E+03  0.17300000000E+03 0. -1.
<mgrwt>
<rscale>  2 0.19849768E+03</rscale>
<asrwt>0</asrwt>
<pdfrwt beam="1">  1       21 0.94893662E-01 0.19849768E+03</pdfrwt>
<pdfrwt beam="2">  1       21 0.11759681E-01 0.19849768E+03</pdfrwt>
<totfact> 0.56346564E+04</totfact>
</mgrwt>
</event>
<event>
 4    2  0.3903561E+000  0.2077988E+03  0.7546771E-02  0.1143321E+00
         21   -1    0    0  501  502  0.00000000000E+00  0.00000000000E+00  0.12007693724E+04  0.12007693724E+04  0.00000000000E+00 0.  1.
         21   -1    0    0  502  503 -0.00000000000E+00 -0.00000000000E+00 -0.46900499267E+02  0.46900499267E+02  0.00000000000E+00 0.  1.
          6    1    1    2  501    0  0.35190514262E+01  0.11506075645E+03  0.87822674554E+03  0.90247580465E+03  0.17300000000E+03 0.  1.
         -6    1    1    2    0  503 -0.35190514262E+01 -0.11506075645E+03  0.27564212757E+03  0.34519406700E+03  0.17300000000E+03 0.  1.
<mgrwt>
<rscale>  2 0.20779885E+03</rscale>
<asrwt>0</asrwt>
<pdfrwt beam="1">  1       21 0.18473373E+00 0.20779885E+03</pdfrwt>
<pdfrwt beam="2">  1       21 0.72154624E-02 0.20779885E+03</pdfrwt>
<totfact> 0.24009467E+04</totfact>
</mgrwt>
</event>
<event>
 4    2  0.3903561E+000  0.2910965E+03  0.7546771E-02  0.1089778E+00
         21   -1    0    0  501  502  0.00000000000E+00  0.00000000000E+00  0.98830064523E+03  0.98830064523E+03  0.00000000000E+00 0.  1.
         21   -1    0    0  502  503 -0.00000000000E+00 -0.00000000000E+00 -0.30863373047E+03  0.30863373047E+03  0.00000000000E+00 0. -1.
          6    1    1    2  501    0 -0.41702988727E+02  0.23036719208E+03  0.89091384744E+03  0.93726445895E+03  0.17300000000E+03 0.  1.
         -6    1    1    2    0  503  0.41702988727E+02 -0.23036719208E+03 -0.21124693267E+03  0.35966991675E+03  0.17300000000E+03 0. -1.
<mgrwt>
<rscale>  2 0.29109652E+03</rscale>
<asrwt>0</asrwt>
<pdfrwt beam="1">  1       21 0.15204625E+00 0.29109652E+03</pdfrwt>
<pdfrwt beam="2">  1       21 0.47482113E-01 0.29109652E+03</pdfrwt>
<totfact> 0.11258044E+03</totfact>
</mgrwt>
</event>
<event>
 4    2  0.3903561E+000  0.2570656E+03  0.7546771E-02  0.1108919E+00
         21   -1    0    0  503  502  0.00000000000E+00  0.00000000000E+00  0.11129317170E+03  0.11129317170E+03  0.00000000000E+00 0. -1.
         21   -1    0    0  501  503 -0.00000000000E+00 -0.00000000000E+00 -0.72218538821E+03  0.72218538821E+03  0.00000000000E+00 0. -1.
          6    1    1    2  501    0  0.55611804514E+01  0.19005998337E+03 -0.48117611546E+03  0.54553934606E+03  0.17300000000E+03 0. -1.
         -6    1    1    2    0  502 -0.55611804514E+01 -0.19005998337E+03 -0.12971610105E+03  0.28793921386E+03  0.17300000000E+03 0. -1.
<mgrwt>
<rscale>  2 0.25706560E+03</rscale>
<asrwt>0</asrwt>
<pdfrwt beam="1">  1       21 0.17122026E-01 0.25706560E+03</pdfrwt>
<pdfrwt beam="2">  1       21 0.11110544E+00 0.25706560E+03</pdfrwt>
<totfact> 0.18920828E+04</totfact>
</mgrwt>
</event>
<event>
 4    2  0.3903561E+000  0.1956748E+03  0.7546771E-02  0.1153440E+00
         21   -1    0    0  503  502  0.00000000000E+00  0.00000000000E+00  0.89208219670E+03  0.89208219670E+03  0.00000000000E+00 0. -1.
         21   -1    0    0  501  503 -0.00000000000E+00 -0.00000000000E+00 -0.15374962027E+03  0.15374962027E+03  0.00000000000E+00 0. -1.
          6    1    1    2  501    0  0.25093940866E+02 -0.87919867046E+02 -0.74801828367E+02  0.20948489782E+03  0.17300000000E+03 0. -1.
         -6    1    1    2    0  502 -0.25093940866E+02  0.87919867046E+02  0.81313440480E+03  0.83634691914E+03  0.17300000000E+03 0. -1.
<mgrwt>
<rscale>  2 0.19567475E+03</rscale>
<asrwt>0</asrwt>
<pdfrwt beam="1">  1       21 0.13724341E+00 0.19567475E+03</pdfrwt>
<pdfrwt beam="2">  1       21 0.23653788E-01 0.19567475E+03</pdfrwt>
<totfact> 0.63238773E+03</totfact>
</mgrwt>
</event>
<event>
 4    2  0.3903561E+000  0.1952050E+03  0.7546771E-02  0.1153849E+00
         21   -1    0    0  503  502  0.00000000000E+00  0.00000000000E+00  0.11164555200E+03  0.11164555200E+03  0.00000000000E+00 0.  1.
         21   -1    0    0  501  503 -0.00000000000E+00 -0.00000000000E+00 -0.36344003379E+03  0.36344003379E+03  0.00000000000E+00 0.  1.
          6    1    1    2  501    0 -0.70537960207E+02 -0.56571844641E+02 -0.18452237098E+03  0.26861400341E+03  0.17300000000E+03 0.  1.
         -6    1    1    2    0  502  0.70537960207E+02  0.56571844641E+02 -0.67272110807E+02  0.20647158238E+03  0.17300000000E+03 0.  1.
<mgrwt>
<rscale>  2 0.19520496E+03</rscale>
<asrwt>0</asrwt>
<pdfrwt beam="1">  1       21 0.17176239E-01 0.19520496E+03</pdfrwt>
<pdfrwt beam="2">  1       21 0.55913850E-01 0.19520496E+03</pdfrwt>
<totfact> 0.92109860E+04</totfact>
</mgrwt>
</event>
<event>
 4    2  0.3903561E+000  0.2248347E+03  0.7546771E-02  0.1130329E+00
         21   -1    0    0  503  502  0.00000000000E+00  0.00000000000E+00  0.38906416275E+03  0.38906416275E+03  0.00000000000E+00 0. -1.
         21   -1    0    0  501  503 -0.00000000000E+00 -0.00000000000E+00 -0.13985253188E+03  0.13985253188E+03  0.00000000000E+00 0.  1.
          6    1    1    2  501    0  0.98197891616E+02  0.10477976187E+03  0.54159142233E+02  0.23126572833E+03  0.17300000000E+03 0.  1.
         -6    1    1    2    0  502 -0.98197891616E+02 -0.10477976187E+03  0.19505248863E+03  0.29765096630E+03  0.17300000000E+03 0. -1.
<mgrwt>
<rscale>  2 0.22483466E+03</rscale>
<asrwt>0</asrwt>
<pdfrwt beam="1">  1       21 0.59856024E-01 0.22483466E+03</pdfrwt>
<pdfrwt beam="2">  1       21 0.21515774E-01 0.22483466E+03</pdfrwt>
<totfact> 0.51644012E+04</totfact>
</mgrwt>
</event>
<event>
 4    2  0.3903561E+000  0.2091898E+03  0.7546771E-02  0.1142209E+00
         21   -1    0    0  503  502  0.00000000000E+00  0.00000000000E+00  0.13636519092E+03  0.13636519092E+03  0.00000000000E+00 0. -1.
         21   -1    0    0  501  503 -0.00000000000E+00 -0.00000000000E+00 -0.33868269496E+03  0.33868269496E+03  0.00000000000E+00 0. -1.
          6    1    1    2  501    0 -0.29280842514E+02  0.11390340600E+03 -0.15557658790E+03  0.26069988174E+03  0.17300000000E+03 0. -1.
         -6    1    1    2    0  502  0.29280842514E+02 -0.11390340600E+03 -0.46740916135E+02  0.21434800414E+03  0.17300000000E+03 0. -1.
<mgrwt>
<rscale>  2 0.20918976E+03</rscale>
<asrwt>0</asrwt>
<pdfrwt beam="1">  1       21 0.20979260E-01 0.20918976E+03</pdfrwt>
<pdfrwt beam="2">  1       21 0.52105029E-01 0.20918976E+03</pdfrwt>
<totfact> 0.73245990E+04</totfact>
</mgrwt>
</event>
<event>
 4    2  0.3903561E+000  0.2149963E+03  0.7546771E-02  0.1137669E+00
         21   -1    0    0  501  502  0.00000000000E+00  0.00000000000E+00  0.23946274437E+03  0.23946274437E+03  0.00000000000E+00 0.  1.
         21   -1    0    0  502  503 -0.00000000000E+00 -0.00000000000E+00 -0.29208325759E+03  0.29208325759E+03  0.00000000000E+00 0. -1.
          6    1    1    2  501    0 -0.12700625310E+03 -0.12798764253E+02  0.12846188661E+03  0.25045129867E+03  0.17300000000E+03 0.  1.
         -6    1    1    2    0  503  0.12700625310E+03  0.12798764253E+02 -0.18108239983E+03  0.28109470330E+03  0.17300000000E+03 0. -1.
<mgrwt>
<rscale>  2 0.21499627E+03</rscale>
<asrwt>0</asrwt>
<pdfrwt beam="1">  1       21 0.36840422E-01 0.21499627E+03</pdfrwt>
<pdfrwt beam="2">  1       21 0.44935886E-01 0.21499627E+03</pdfrwt>
<totfact> 0.33376513E+04</totfact>
</mgrwt>
</event>
<event>
 4    2  0.3903561E+000  0.1955152E+03  0.7546771E-02  0.1153579E+00
         21   -1    0    0  503  502  0.00000000000E+00  0.00000000000E+00  0.39973617565E+02  0.39973617565E+02  0.00000000000E+00 0.  1.
         21   -1    0    0  501  503 -0.00000000000E+00 -0.00000000000E+00 -0.10690888306E+04  0.10690888306E+04  0.00000000000E+00 0.  1.
          6    1    1    2  501    0 -0.90509425192E+02  0.10257669078E+02 -0.33442978593E+03  0.38738799354E+03  0.17300000000E+03 0.  1.
         -6    1    1    2    0  502  0.90509425192E+02 -0.10257669078E+02 -0.69468542714E+03  0.72167445465E+03  0.17300000000E+03 0.  1.
<mgrwt>
<rscale>  2 0.19551515E+03</rscale>
<asrwt>0</asrwt>
<pdfrwt beam="1">  1       21 0.61497874E-02 0.19551515E+03</pdfrwt>
<pdfrwt beam="2">  1       21 0.16447520E+00 0.19551515E+03</pdfrwt>
<totfact> 0.44074507E+04</totfact>
</mgrwt>
</event>
<event>
 4    2  0.3903561E+000  0.1882872E+03  0.7546771E-02  0.1160015E+00
         21   -1    0    0  503  502  0.00000000000E+00  0.00000000000E+00  0.17697809713E+03  0.17697809713E+03  0.00000000000E+00 0.  1.
         21   -1    0    0  501  503 -0.00000000000E+00 -0.00000000000E+00 -0.26803196665E+03  0.26803196665E+03  0.00000000000E+00 0.  1.
          6    1    1    2  501    0 -0.34058278178E+02 -0.66053809483E+02 -0.15736316576E+03  0.24538793368E+03  0.17300000000E+03 0.  1.
         -6    1    1    2    0  502  0.34058278178E+02  0.66053809483E+02  0.66309296231E+02  0.19962213010E+03  0.17300000000E+03 0.  1.
<mgrwt>
<rscale>  2 0.18828721E+03</rscale>
<asrwt>0</asrwt>
<pdfrwt beam="1">  1       21 0.27227400E-01 0.18828721E+03</pdfrwt>
<pdfrwt beam="2">  1       21 0.41235687E-01 0.18828721E+03</pdfrwt>
<totfact> 0.72967196E+04</totfact>
</mgrwt>
</event>
<event>
 4    2  0.3903561E+000  0.1850849E+03  0.7546771E-02  0.1162971E+00
         21   -1    0    0  503  502  0.00000000000E+00  0.00000000000E+00  0.13822461384E+03  0.13822461384E+03  0.00000000000E+00 0. -1.
         21   -1    0    0  501  503 -0.00000000000E+00 -0.00000000000E+00 -0.35553179798E+03  0.35553179798E+03  0.00000000000E+00 0. -1.
          6    1    1    2  501    0 -0.57208958551E+02  0.32474020501E+02 -0.24453241708E+03  0.30667984927E+03  0.17300000000E+03 0. -1.
         -6    1    1    2    0  502  0.57208958551E+02 -0.32474020501E+02  0.27225232944E+02  0.18707656255E+03  0.17300000000E+03 0. -1.
<mgrwt>
<rscale>  2 0.18508492E+03</rscale>
<asrwt>0</asrwt>
<pdfrwt beam="1">  1       21 0.21265325E-01 0.18508492E+03</pdfrwt>
<pdfrwt beam="2">  1       21 0.54697200E-01 0.18508492E+03</pdfrwt>
<totfact> 0.65151567E+04</totfact>
</mgrwt>
</event>
<event>
 4    2  0.3903561E+000  0.1953657E+03  0.7546771E-02  0.1153709E+00
         21   -1    0    0  501  502  0.00000000000E+00  0.00000000000E+00  0.43212942980E+03  0.43212942980E+03  0.00000000000E+00 0. -1.
         21   -1    0    0  502  503 -0.00000000000E+00 -0.00000000000E+00 -0.94022479803E+02  0.94022479803E+02  0.00000000000E+00 0.  1.
          6    1    1    2  501    0  0.52967051364E+02 -0.73710578227E+02  0.23381442778E+03  0.30469155635E+03  0.17300000000E+03 0. -1.
         -6    1    1    2    0  503 -0.52967051364E+02  0.73710578227E+02  0.10429252222E+03  0.22146035325E+03  0.17300000000E+03 0.  1.
<mgrwt>
<rscale>  2 0.19536570E+03</rscale>
<asrwt>0</asrwt>
<pdfrwt beam="1">  1       21 0.66481449E-01 0.19536570E+03</pdfrwt>
<pdfrwt beam="2">  1       21 0.14464997E-01 0.19536570E+03</pdfrwt>
<totfact> 0.86857085E+04</totfact>
</mgrwt>
</event>
<event>
 4    2  0.3903561E+000  0.1899886E+03  0.7546771E-02  0.1158472E+00
         21   -1    0    0  501  502  0.00000000000E+00  0.00000000000E+00  0.41602916152E+02  0.41602916152E+02  0.00000000000E+00 0.  1.
         21   -1    0    0  502  503 -0.00000000000E+00 -0.00000000000E+00 -0.10147893738E+04  0.10147893738E+04  0.00000000000E+00 0.  1.
          6    1    1    2  501    0  0.78500183007E+02 -0.20972775903E+01 -0.28544765125E+03  0.34289362623E+03  0.17300000000E+03 0.  1.
         -6    1    1    2    0  503 -0.78500183007E+02  0.20972775903E+01 -0.68773880635E+03  0.71349866368E+03  0.17300000000E+03 0.  1.
<mgrwt>
<rscale>  2 0.18998862E+03</rscale>
<asrwt>0</asrwt>
<pdfrwt beam="1">  1       21 0.64004492E-02 0.18998862E+03</pdfrwt>
<pdfrwt beam="2">  1       21 0.15612143E+00 0.18998862E+03</pdfrwt>
<totfact> 0.47523868E+04</totfact>
</mgrwt>
</event>
<event>
 4    2  0.3903561E+000  0.2197500E+03  0.7546771E-02  0.1134070E+00
         21   -1    0    0  501  502  0.00000000000E+00  0.00000000000E+00  0.18048387399E+04  0.18048387399E+04  0.00000000000E+00 0. -1.
         21   -1    0    0  502  503 -0.00000000000E+00 -0.00000000000E+00 -0.26975497980E+02  0.26975497980E+02  0.00000000000E+00 0. -1.
          6    1    1    2  501    0  0.63950042651E+02 -0.11946321156E+03  0.97157169805E+03  0.99611326229E+03  0.17300000000E+03 0. -1.
         -6    1    1    2    0  503 -0.63950042651E+02  0.11946321156E+03  0.80629154385E+03  0.83570097556E+03  0.17300000000E+03 0. -1.
<mgrwt>
<rscale>  2 0.21975001E+03</rscale>
<asrwt>0</asrwt>
<pdfrwt beam="1">  1       21 0.27766740E+00 0.21975001E+03</pdfrwt>
<pdfrwt beam="2">  1       21 0.41500780E-02 0.21975001E+03</pdfrwt>
<totfact> 0.16492794E+04</totfact>
</mgrwt>
</event>
<event>
 4    2  0.3903561E+000  0.2097152E+03  0.7546771E-02  0.1141792E+00
         21   -1    0    0  501  502  0.00000000000E+00  0.00000000000E+00  0.14123396720E+03  0.14123396720E+03  0.00000000000E+00 0.  1.
         21   -1    0    0  502  503 -0.00000000000E+00 -0.00000000000E+00 -0.38655834622E+03  0.38655834622E+03  0.00000000000E+00 0. -1.
          6    1    1    2  501    0 -0.10144651639E+03 -0.61319308002E+02 -0.63004675397E+01  0.20980979270E+03  0.17300000000E+03 0.  1.
         -6    1    1    2    0  503  0.10144651639E+03  0.61319308002E+02 -0.23902391149E+03  0.31798252072E+03  0.17300000000E+03 0. -1.
<mgrwt>
<rscale>  2 0.20971517E+03</rscale>
<asrwt>0</asrwt>
<pdfrwt beam="1">  1       21 0.21728302E-01 0.20971517E+03</pdfrwt>
<pdfrwt beam="2">  1       21 0.59470515E-01 0.20971517E+03</pdfrwt>
<totfact> 0.51758290E+04</totfact>
</mgrwt>
</event>
<event>
 4    2  0.3903561E+000  0.1780134E+03  0.7546771E-02  0.1169740E+00
         21   -1    0    0  503  502  0.00000000000E+00  0.00000000000E+00  0.82716512628E+03  0.82716512628E+03  0.00000000000E+00 0. -1.
         21   -1    0    0  501  503 -0.00000000000E+00 -0.00000000000E+00 -0.91225149434E+02  0.91225149434E+02  0.00000000000E+00 0. -1.
          6    1    1    2  501    0 -0.34344627972E+02  0.24087929419E+02  0.18242654718E+02  0.17894573553E+03  0.17300000000E+03 0. -1.
         -6    1    1    2    0  502  0.34344627972E+02 -0.24087929419E+02  0.71769732213E+03  0.73944454018E+03  0.17300000000E+03 0. -1.
<mgrwt>
<rscale>  2 0.17801343E+03</rscale>
<asrwt>0</asrwt>
<pdfrwt beam="1">  1       21 0.12725617E+00 0.17801343E+03</pdfrwt>
<pdfrwt beam="2">  1       21 0.14034639E-01 0.17801343E+03</pdfrwt>
<totfact> 0.20381674E+04</totfact>
</mgrwt>
</event>
<event>
 4    2  0.3903561E+000  0.2649587E+03  0.7546771E-02  0.1104200E+00
         21   -1    0    0  503  502  0.00000000000E+00  0.00000000000E+00  0.31676352477E+03  0.31676352477E+03  0.00000000000E+00 0.  1.
         21   -1    0    0  501  503 -0.00000000000E+00 -0.00000000000E+00 -0.22594998966E+03  0.22594998966E+03  0.00000000000E+00 0. -1.
          6    1    1    2  501    0  0.67176727813E+02  0.18910691758E+03  0.82943803846E+02  0.27763791822E+03  0.17300000000E+03 0.  1.
         -6    1    1    2    0  502 -0.67176727813E+02 -0.18910691758E+03  0.78697312585E+01  0.26507559621E+03  0.17300000000E+03 0. -1.
<mgrwt>
<rscale>  2 0.26495875E+03</rscale>
<asrwt>0</asrwt>
<pdfrwt beam="1">  1       21 0.48732850E-01 0.26495875E+03</pdfrwt>
<pdfrwt beam="2">  1       21 0.34761537E-01 0.26495875E+03</pdfrwt>
<totfact> 0.30966016E+04</totfact>
</mgrwt>
</event>
<event>
 4    2  0.3903561E+000  0.1971585E+03  0.7546771E-02  0.1152159E+00
         21   -1    0    0  503  502  0.00000000000E+00  0.00000000000E+00  0.88133796770E+03  0.88133796770E+03  0.00000000000E+00 0. -1.
         21   -1    0    0  501  503 -0.00000000000E+00 -0.00000000000E+00 -0.44368016569E+02  0.44368016569E+02  0.00000000000E+00 0. -1.
          6    1    1    2  501    0  0.18788790782E+02  0.92679270029E+02  0.45411764739E+03  0.49506999851E+03  0.17300000000E+03 0. -1.
         -6    1    1    2    0  502 -0.18788790782E+02 -0.92679270029E+02  0.38285230374E+03  0.43063598576E+03  0.17300000000E+03 0. -1.
<mgrwt>
<rscale>  2 0.19715848E+03</rscale>
<asrwt>0</asrwt>
<pdfrwt beam="1">  1       21 0.13559044E+00 0.19715848E+03</pdfrwt>
<pdfrwt beam="2">  1       21 0.68258494E-02 0.19715848E+03</pdfrwt>
<totfact> 0.61233049E+04</totfact>
</mgrwt>
</event>
<event>
 4    2  0.3903561E+000  0.3063343E+03  0.7546771E-02  0.1082116E+00
         21   -1    0    0  503  502  0.00000000000E+00  0.00000000000E+00  0.37694857873E+03  0.37694857873E+03  0.00000000000E+00 0.  1.
         21   -1    0    0  501  503 -0.00000000000E+00 -0.00000000000E+00 -0.25256729903E+03  0.25256729903E+03  0.00000000000E+00 0. -1.
          6    1    1    2  501    0 -0.96556362516E+02  0.23364199951E+03  0.24513214509E+02  0.30731354145E+03  0.17300000000E+03 0. -1.
         -6    1    1    2    0  502  0.96556362516E+02 -0.23364199951E+03  0.99868065190E+02  0.32220233630E+03  0.17300000000E+03 0.  1.
<mgrwt>
<rscale>  2 0.30633432E+03</rscale>
<asrwt>0</asrwt>
<pdfrwt beam="1">  1       21 0.57992089E-01 0.30633432E+03</pdfrwt>
<pdfrwt beam="2">  1       21 0.38856507E-01 0.30633432E+03</pdfrwt>
<totfact> 0.16807223E+04</totfact>
</mgrwt>
</event>
<event>
 4    2  0.3903561E+000  0.1760054E+03  0.7546771E-02  0.1171726E+00
         21   -1    0    0  503  502  0.00000000000E+00  0.00000000000E+00  0.11203361497E+04  0.11203361497E+04  0.00000000000E+00 0.  1.
         21   -1    0    0  501  503 -0.00000000000E+00 -0.00000000000E+00 -0.29340612784E+02  0.29340612784E+02  0.00000000000E+00 0.  1.
          6    1    1    2  501    0 -0.26719351925E+02  0.18302700803E+02  0.40753485117E+03  0.44391729809E+03  0.17300000000E+03 0.  1.
         -6    1    1    2    0  502  0.26719351925E+02 -0.18302700803E+02  0.68346068574E+03  0.70575946439E+03  0.17300000000E+03 0.  1.
<mgrwt>
<rscale>  2 0.17600543E+03</rscale>
<asrwt>0</asrwt>
<pdfrwt beam="1">  1       21 0.17235937E+00 0.17600543E+03</pdfrwt>
<pdfrwt beam="2">  1       21 0.45139413E-02 0.17600543E+03</pdfrwt>
<totfact> 0.66316718E+04</totfact>
</mgrwt>
</event>
<event>
 4    2  0.3903561E+000  0.2487434E+03  0.7546771E-02  0.1114102E+00
         21   -1    0    0  503  502  0.00000000000E+00  0.00000000000E+00  0.11555784944E+03  0.11555784944E+03  0.00000000000E+00 0. -1.
         21   -1    0    0  501  503 -0.00000000000E+00 -0.00000000000E+00 -0.14560315262E+04  0.14560315262E+04  0.00000000000E+00 0. -1.
          6    1    1    2  501    0 -0.90962163120E+02 -0.15385116391E+03 -0.12950630287E+04  0.13187348271E+04  0.17300000000E+03 0. -1.
         -6    1    1    2    0  502  0.90962163120E+02  0.15385116391E+03 -0.45410647975E+02  0.25285454851E+03  0.17300000000E+03 0. -1.
<mgrwt>
<rscale>  2 0.24874343E+03</rscale>
<asrwt>0</asrwt>
<pdfrwt beam="1">  1       21 0.17778129E-01 0.24874343E+03</pdfrwt>
<pdfrwt beam="2">  1       21 0.22400487E+00 0.24874343E+03</pdfrwt>
<totfact> 0.25907522E+03</totfact>
</mgrwt>
</event>
<event>
 4    2  0.3903561E+000  0.2138717E+03  0.7546771E-02  0.1138536E+00
         21   -1    0    0  501  502  0.00000000000E+00  0.00000000000E+00  0.23010659487E+03  0.23010659487E+03  0.00000000000E+00 0. -1.
         21   -1    0    0  502  503 -0.00000000000E+00 -0.00000000000E+00 -0.23838846414E+03  0.23838846414E+03  0.00000000000E+00 0.  1.
          6    1    1    2  501    0 -0.12069100594E+03 -0.35295525030E+02  0.91339501190E+02  0.23255966434E+03  0.17300000000E+03 0. -1.
         -6    1    1    2    0  503  0.12069100594E+03  0.35295525030E+02 -0.99621370459E+02  0.23593539466E+03  0.17300000000E+03 0.  1.
<mgrwt>
<rscale>  2 0.21387167E+03</rscale>
<asrwt>0</asrwt>
<pdfrwt beam="1">  1       21 0.35401015E-01 0.21387167E+03</pdfrwt>
<pdfrwt beam="2">  1       21 0.36675148E-01 0.21387167E+03</pdfrwt>
<totfact> 0.54616163E+04</totfact>
</mgrwt>
</event>
<event>
 4    2  0.3903561E+000  0.2029784E+03  0.7546771E-02  0.1147250E+00
         21   -1    0    0  503  502  0.00000000000E+00  0.00000000000E+00  0.22119280649E+03  0.22119280649E+03  0.00000000000E+00 0. -1.
         21   -1    0    0  501  503 -0.00000000000E+00 -0.00000000000E+00 -0.18626688786E+03  0.18626688786E+03  0.00000000000E+00 0. -1.
          6    1    1    2  501    0  0.86583085943E+02  0.61437657494E+02  0.16635808280E+02  0.20365894689E+03  0.17300000000E+03 0. -1.
         -6    1    1    2    0  502 -0.86583085943E+02 -0.61437657494E+02  0.18290110344E+02  0.20380074746E+03  0.17300000000E+03 0. -1.
<mgrwt>
<rscale>  2 0.20297836E+03</rscale>
<asrwt>0</asrwt>
<pdfrwt beam="1">  1       21 0.34029662E-01 0.20297836E+03</pdfrwt>
<pdfrwt beam="2">  1       21 0.28656444E-01 0.20297836E+03</pdfrwt>
<totfact> 0.96515087E+04</totfact>
</mgrwt>
</event>
<event>
 4    2  0.3903561E+000  0.2130685E+03  0.7546771E-02  0.1139159E+00
         21   -1    0    0  503  502  0.00000000000E+00  0.00000000000E+00  0.16005327025E+03  0.16005327025E+03  0.00000000000E+00 0. -1.
         21   -1    0    0  501  503 -0.00000000000E+00 -0.00000000000E+00 -0.33244304014E+03  0.33244304014E+03  0.00000000000E+00 0.  1.
          6    1    1    2  501    0 -0.10456320556E+03  0.67347884401E+02 -0.18053981467E+03  0.27927195737E+03  0.17300000000E+03 0.  1.
         -6    1    1    2    0  502  0.10456320556E+03 -0.67347884401E+02  0.81500447917E+01  0.21322435302E+03  0.17300000000E+03 0.  1.
<mgrwt>
<rscale>  2 0.21306854E+03</rscale>
<asrwt>0</asrwt>
<pdfrwt beam="1">  1       21 0.24623580E-01 0.21306854E+03</pdfrwt>
<pdfrwt beam="2">  1       21 0.51145082E-01 0.21306854E+03</pdfrwt>
<totfact> 0.56127378E+04</totfact>
</mgrwt>
</event>
<event>
 4    2  0.3903561E+000  0.1991962E+03  0.7546771E-02  0.1150419E+00
         21   -1    0    0  503  502  0.00000000000E+00  0.00000000000E+00  0.38825026578E+02  0.38825026578E+02  0.00000000000E+00 0. -1.
         21   -1    0    0  501  503 -0.00000000000E+00 -0.00000000000E+00 -0.10538353528E+04  0.10538353528E+04  0.00000000000E+00 0. -1.
          6    1    1    2  501    0  0.93995799503E+02 -0.30247817344E+02 -0.60246283189E+03  0.63453967928E+03  0.17300000000E+03 0. -1.
         -6    1    1    2    0  502 -0.93995799503E+02  0.30247817344E+02 -0.41254749438E+03  0.45812070014E+03  0.17300000000E+03 0. -1.
<mgrwt>
<rscale>  2 0.19919624E+03</rscale>
<asrwt>0</asrwt>
<pdfrwt beam="1">  1       21 0.59730808E-02 0.19919624E+03</pdfrwt>
<pdfrwt beam="2">  1       21 0.16212852E+00 0.19919624E+03</pdfrwt>
<totfact> 0.48070417E+04</totfact>
</mgrwt>
</event>
<event>
 4    2  0.3903561E+000  0.2429780E+03  0.7546771E-02  0.1117825E+00
         21   -1    0    0  501  502  0.00000000000E+00  0.00000000000E+00  0.47598677213E+02  0.47598677213E+02  0.00000000000E+00 0. -1.
         21   -1    0    0  502  503 -0.00000000000E+00 -0.00000000000E+00 -0.20288522224E+04  0.20288522224E+04  0.00000000000E+00 0.  1.
          6    1    1    2  501    0 -0.55546457968E+02  0.16131931196E+03 -0.34337698709E+03  0.42064959844E+03  0.17300000000E+03 0. -1.
         -6    1    1    2    0  503  0.55546457968E+02 -0.16131931196E+03 -0.16378765581E+04  0.16558013011E+04  0.17300000000E+03 0.  1.
<mgrwt>
<rscale>  2 0.24297804E+03</rscale>
<asrwt>0</asrwt>
<pdfrwt beam="1">  1       21 0.73228723E-02 0.24297804E+03</pdfrwt>
<pdfrwt beam="2">  1       21 0.31213116E+00 0.24297804E+03</pdfrwt>
<totfact> 0.38487702E+03</totfact>
</mgrwt>
</event>
<event>
 4    2  0.3903561E+000  0.1901829E+03  0.7546771E-02  0.1158296E+00
         21   -1    0    0  501  502  0.00000000000E+00  0.00000000000E+00  0.12078035784E+03  0.12078035784E+03  0.00000000000E+00 0.  1.
         21   -1    0    0  502  503 -0.00000000000E+00 -0.00000000000E+00 -0.37797534088E+03  0.37797534088E+03  0.00000000000E+00 0.  1.
          6    1    1    2  501    0 -0.75317514864E+02 -0.23828716621E+02 -0.24225248503E+03  0.30798669173E+03  0.17300000000E+03 0.  1.
         -6    1    1    2    0  503  0.75317514864E+02  0.23828716621E+02 -0.14942498011E+02  0.19076900699E+03  0.17300000000E+03 0.  1.
<mgrwt>
<rscale>  2 0.19018290E+03</rscale>
<asrwt>0</asrwt>
<pdfrwt beam="1">  1       21 0.18581594E-01 0.19018290E+03</pdfrwt>
<pdfrwt beam="2">  1       21 0.58150052E-01 0.19018290E+03</pdfrwt>
<totfact> 0.73426869E+04</totfact>
</mgrwt>
</event>
<event>
 4    2  0.3903561E+000  0.1780029E+03  0.7546771E-02  0.1169750E+00
         21   -1    0    0  501  502  0.00000000000E+00  0.00000000000E+00  0.19812482559E+03  0.19812482559E+03  0.00000000000E+00 0.  1.
         21   -1    0    0  502  503 -0.00000000000E+00 -0.00000000000E+00 -0.16337281879E+03  0.16337281879E+03  0.00000000000E+00 0.  1.
          6    1    1    2  501    0  0.41847706066E+02  0.21947736437E+01  0.43635023462E+02  0.18327319173E+03  0.17300000000E+03 0. -1.
         -6    1    1    2    0  503 -0.41847706066E+02 -0.21947736437E+01 -0.88830166634E+01  0.17822445264E+03  0.17300000000E+03 0. -1.
<mgrwt>
<rscale>  2 0.17800294E+03</rscale>
<asrwt>0</asrwt>
<pdfrwt beam="1">  1       21 0.30480742E-01 0.17800294E+03</pdfrwt>
<pdfrwt beam="2">  1       21 0.25134280E-01 0.17800294E+03</pdfrwt>
<totfact> 0.15560573E+05</totfact>
</mgrwt>
</event>
<event>
 4    2  0.3903561E+000  0.1861685E+03  0.7546771E-02  0.1161963E+00
         21   -1    0    0  501  502  0.00000000000E+00  0.00000000000E+00  0.22629128842E+03  0.22629128842E+03  0.00000000000E+00 0.  1.
         21   -1    0    0  502  503 -0.00000000000E+00 -0.00000000000E+00 -0.79476885156E+03  0.79476885156E+03  0.00000000000E+00 0.  1.
          6    1    1    2  501    0  0.40093648743E+02 -0.55876675760E+02  0.17446908309E+03  0.25514341951E+03  0.17300000000E+03 0.  1.
         -6    1    1    2    0  503 -0.40093648743E+02  0.55876675760E+02 -0.74294664623E+03  0.76591672048E+03  0.17300000000E+03 0.  1.
<mgrwt>
<rscale>  2 0.18616848E+03</rscale>
<asrwt>0</asrwt>
<pdfrwt beam="1">  1       21 0.34814044E-01 0.18616848E+03</pdfrwt>
<pdfrwt beam="2">  1       21 0.12227213E+00 0.18616848E+03</pdfrwt>
<totfact> 0.40306868E+03</totfact>
</mgrwt>
</event>
<event>
 4    2  0.3903561E+000  0.1845265E+03  0.7546771E-02  0.1163493E+00
         21   -1    0    0  503  502  0.00000000000E+00  0.00000000000E+00  0.59227319502E+03  0.59227319502E+03  0.00000000000E+00 0. -1.
         21   -1    0    0  501  503 -0.00000000000E+00 -0.00000000000E+00 -0.63196856085E+02  0.63196856085E+02  0.00000000000E+00 0.  1.
          6    1    1    2  501    0  0.54613394246E+02 -0.33740102626E+02  0.16605574851E+03  0.24824288302E+03  0.17300000000E+03 0.  1.
         -6    1    1    2    0  502 -0.54613394246E+02  0.33740102626E+02  0.36302059042E+03  0.40722716808E+03  0.17300000000E+03 0. -1.
<mgrwt>
<rscale>  2 0.18452647E+03</rscale>
<asrwt>0</asrwt>
<pdfrwt beam="1">  1       21 0.91118949E-01 0.18452647E+03</pdfrwt>
<pdfrwt beam="2">  1       21 0.97225936E-02 0.18452647E+03</pdfrwt>
<totfact> 0.87356622E+04</totfact>
</mgrwt>
</event>
<event>
 4    2  0.3903561E+000  0.2466302E+03  0.7546771E-02  0.1115453E+00
         21   -1    0    0  503  502  0.00000000000E+00  0.00000000000E+00  0.13942157724E+03  0.13942157724E+03  0.00000000000E+00 0. -1.
         21   -1    0    0  501  503 -0.00000000000E+00 -0.00000000000E+00 -0.78146628725E+03  0.78146628725E+03  0.00000000000E+00 0. -1.
          6    1    1    2  501    0 -0.14093674430E+02 -0.17521081132E+03 -0.62704258561E+03  0.67380179892E+03  0.17300000000E+03 0. -1.
         -6    1    1    2    0  502  0.14093674430E+02  0.17521081132E+03 -0.15002124398E+02  0.24708606557E+03  0.17300000000E+03 0. -1.
<mgrwt>
<rscale>  2 0.24663021E+03</rscale>
<asrwt>0</asrwt>
<pdfrwt beam="1">  1       21 0.21449473E-01 0.24663021E+03</pdfrwt>
<pdfrwt beam="2">  1       21 0.12022558E+00 0.24663021E+03</pdfrwt>
<totfact> 0.10272881E+04</totfact>
</mgrwt>
</event>
<event>
 4    2  0.3903561E+000  0.2028517E+03  0.7546771E-02  0.1147355E+00
         21   -1    0    0  503  502  0.00000000000E+00  0.00000000000E+00  0.47206897061E+03  0.47206897061E+03  0.00000000000E+00 0. -1.
         21   -1    0    0  501  503 -0.00000000000E+00 -0.00000000000E+00 -0.90097369957E+02  0.90097369957E+02  0.00000000000E+00 0. -1.
          6    1    1    2  501    0 -0.36097914615E+02 -0.99582945603E+02  0.24167811557E+03  0.31552675645E+03  0.17300000000E+03 0.  1.
         -6    1    1    2    0  502  0.36097914615E+02  0.99582945603E+02  0.14029348509E+03  0.24663958412E+03  0.17300000000E+03 0.  1.
<mgrwt>
<rscale>  2 0.20285173E+03</rscale>
<asrwt>0</asrwt>
<pdfrwt beam="1">  1       21 0.72625994E-01 0.20285173E+03</pdfrwt>
<pdfrwt beam="2">  1       21 0.13861134E-01 0.20285173E+03</pdfrwt>
<totfact> 0.76974622E+04</totfact>
</mgrwt>
</event>
<event>
 4    2  0.3903561E+000  0.3691329E+03  0.7546771E-02  0.1055025E+00
         21   -1    0    0  501  502  0.00000000000E+00  0.00000000000E+00  0.39057113300E+03  0.39057113300E+03  0.00000000000E+00 0. -1.
         21   -1    0    0  502  503 -0.00000000000E+00 -0.00000000000E+00 -0.41381436867E+03  0.41381436867E+03  0.00000000000E+00 0.  1.
          6    1    1    2  501    0 -0.14441866505E+03 -0.29235827169E+03  0.14770833307E+03  0.39758880957E+03  0.17300000000E+03 0. -1.
         -6    1    1    2    0  503  0.14441866505E+03  0.29235827169E+03 -0.17095156875E+03  0.40679669209E+03  0.17300000000E+03 0.  1.
<mgrwt>
<rscale>  2 0.36913292E+03</rscale>
<asrwt>0</asrwt>
<pdfrwt beam="1">  1       21 0.60087867E-01 0.36913292E+03</pdfrwt>
<pdfrwt beam="2">  1       21 0.63663749E-01 0.36913292E+03</pdfrwt>
<totfact> 0.53413718E+03</totfact>
</mgrwt>
</event>
<event>
 4    2  0.3903561E+000  0.2121625E+03  0.7546771E-02  0.1139865E+00
         21   -1    0    0  501  502  0.00000000000E+00  0.00000000000E+00  0.45365898496E+03  0.45365898496E+03  0.00000000000E+00 0. -1.
         21   -1    0    0  502  503 -0.00000000000E+00 -0.00000000000E+00 -0.10036589433E+03  0.10036589433E+03  0.00000000000E+00 0.  1.
          6    1    1    2  501    0 -0.23346984447E+02  0.12057705410E+03  0.20622105947E+03  0.29587164958E+03  0.17300000000E+03 0. -1.
         -6    1    1    2    0  503  0.23346984447E+02 -0.12057705410E+03  0.14707203116E+03  0.25815322971E+03  0.17300000000E+03 0. -1.
<mgrwt>
<rscale>  2 0.21216246E+03</rscale>
<asrwt>0</asrwt>
<pdfrwt beam="1">  1       21 0.69793689E-01 0.21216246E+03</pdfrwt>
<pdfrwt beam="2">  1       21 0.15440907E-01 0.21216246E+03</pdfrwt>
<totfact> 0.68789349E+04</totfact>
</mgrwt>
</event>
<event>
 4    2  0.3903561E+000  0.2511018E+03  0.7546771E-02  0.1112610E+00
         21   -1    0    0  503  502  0.00000000000E+00  0.00000000000E+00  0.76272661142E+02  0.76272661142E+02  0.00000000000E+00 0. -1.
         21   -1    0    0  501  503 -0.00000000000E+00 -0.00000000000E+00 -0.85719826026E+03  0.85719826026E+03  0.00000000000E+00 0.  1.
          6    1    1    2  501    0 -0.12310899258E+03  0.13404215386E+03 -0.30237827315E+03  0.39304547210E+03  0.17300000000E+03 0. -1.
         -6    1    1    2    0  502  0.12310899258E+03 -0.13404215386E+03 -0.47854732597E+03  0.54042544930E+03  0.17300000000E+03 0.  1.
<mgrwt>
<rscale>  2 0.25110182E+03</rscale>
<asrwt>0</asrwt>
<pdfrwt beam="1">  1       21 0.11734255E-01 0.25110182E+03</pdfrwt>
<pdfrwt beam="2">  1       21 0.13187666E+00 0.25110182E+03</pdfrwt>
<totfact> 0.24631553E+04</totfact>
</mgrwt>
</event>
<event>
 4    2  0.3903561E+000  0.2038469E+03  0.7546771E-02  0.1146533E+00
         21   -1    0    0  501  502  0.00000000000E+00  0.00000000000E+00  0.10491871111E+04  0.10491871111E+04  0.00000000000E+00 0. -1.
         21   -1    0    0  502  503 -0.00000000000E+00 -0.00000000000E+00 -0.50926325191E+02  0.50926325191E+02  0.00000000000E+00 0.  1.
          6    1    1    2  501    0  0.43997772061E+02  0.98431497042E+02  0.75847406097E+03  0.78538937140E+03  0.17300000000E+03 0. -1.
         -6    1    1    2    0  503 -0.43997772061E+02 -0.98431497042E+02  0.23978672492E+03  0.31472406486E+03  0.17300000000E+03 0.  1.
<mgrwt>
<rscale>  2 0.20384691E+03</rscale>
<asrwt>0</asrwt>
<pdfrwt beam="1">  1       21 0.16141338E+00 0.20384691E+03</pdfrwt>
<pdfrwt beam="2">  1       21 0.78348201E-02 0.20384691E+03</pdfrwt>
<totfact> 0.30366247E+04</totfact>
</mgrwt>
</event>
<event>
 4    2  0.3903561E+000  0.2243893E+03  0.7546771E-02  0.1130652E+00
         21   -1    0    0  501  502  0.00000000000E+00  0.00000000000E+00  0.59168916464E+02  0.59168916464E+02  0.00000000000E+00 0.  1.
         21   -1    0    0  502  503 -0.00000000000E+00 -0.00000000000E+00 -0.87263475811E+03  0.87263475811E+03  0.00000000000E+00 0. -1.
          6    1    1    2  501    0  0.13282220831E+03 -0.52723874278E+02 -0.48015512123E+03  0.52999951546E+03  0.17300000000E+03 0.  1.
         -6    1    1    2    0  503 -0.13282220831E+03  0.52723874278E+02 -0.33331072041E+03  0.40180415912E+03  0.17300000000E+03 0.  1.
<mgrwt>
<rscale>  2 0.22438927E+03</rscale>
<asrwt>0</asrwt>
<pdfrwt beam="1">  1       21 0.91029110E-02 0.22438927E+03</pdfrwt>
<pdfrwt beam="2">  1       21 0.13425149E+00 0.22438927E+03</pdfrwt>
<totfact> 0.37480279E+04</totfact>
</mgrwt>
</event>
<event>
 4    2  0.3903561E+000  0.1817582E+03  0.7546771E-02  0.1166112E+00
         21   -1    0    0  503  502  0.00000000000E+00  0.00000000000E+00  0.58985022709E+03  0.58985022709E+03  0.00000000000E+00 0.  1.
         21   -1    0    0  501  503 -0.00000000000E+00 -0.00000000000E+00 -0.12330285769E+03  0.12330285769E+03  0.00000000000E+00 0. -1.
          6    1    1    2  501    0 -0.35079727252E+02 -0.43318188870E+02 -0.30152330840E+02  0.18424227475E+03  0.17300000000E+03 0. -1.
         -6    1    1    2    0  502  0.35079727252E+02  0.43318188870E+02  0.49669970024E+03  0.52891081003E+03  0.17300000000E+03 0.  1.
<mgrwt>
<rscale>  2 0.18175823E+03</rscale>
<asrwt>0</asrwt>
<pdfrwt beam="1">  1       21 0.90746187E-01 0.18175823E+03</pdfrwt>
<pdfrwt beam="2">  1       21 0.18969671E-01 0.18175823E+03</pdfrwt>
<totfact> 0.26419940E+04</totfact>
</mgrwt>
</event>
<event>
 4    2  0.3903561E+000  0.2200201E+03  0.7546771E-02  0.1133868E+00
         21   -1    0    0  503  502  0.00000000000E+00  0.00000000000E+00  0.44132380195E+03  0.44132380195E+03  0.00000000000E+00 0. -1.
         21   -1    0    0  501  503 -0.00000000000E+00 -0.00000000000E+00 -0.13605365673E+03  0.13605365673E+03  0.00000000000E+00 0.  1.
          6    1    1    2  501    0  0.11645460673E+03  0.70129617718E+02  0.27971500277E+03  0.35587823969E+03  0.17300000000E+03 0. -1.
         -6    1    1    2    0  502 -0.11645460673E+03 -0.70129617718E+02  0.25555142449E+02  0.22149921899E+03  0.17300000000E+03 0.  1.
<mgrwt>
<rscale>  2 0.22002009E+03</rscale>
<asrwt>0</asrwt>
<pdfrwt beam="1">  1       21 0.67895969E-01 0.22002009E+03</pdfrwt>
<pdfrwt beam="2">  1       21 0.20931332E-01 0.22002009E+03</pdfrwt>
<totfact> 0.41431645E+04</totfact>
</mgrwt>
</event>
<event>
 4    2  0.3903561E+000  0.2189429E+03  0.7546771E-02  0.1134674E+00
         21   -1    0    0  503  502  0.00000000000E+00  0.00000000000E+00  0.36238094316E+02  0.36238094316E+02  0.00000000000E+00 0. -1.
         21   -1    0    0  501  503 -0.00000000000E+00 -0.00000000000E+00 -0.13459898688E+04  0.13459898688E+04  0.00000000000E+00 0.  1.
          6    1    1    2  501    0 -0.55094565274E+02  0.12235848080E+03 -0.74557672688E+03  0.77705898400E+03  0.17300000000E+03 0.  1.
         -6    1    1    2    0  502  0.55094565274E+02 -0.12235848080E+03 -0.56417504760E+03  0.60516897911E+03  0.17300000000E+03 0.  1.
<mgrwt>
<rscale>  2 0.21894294E+03</rscale>
<asrwt>0</asrwt>
<pdfrwt beam="1">  1       21 0.55750919E-02 0.21894294E+03</pdfrwt>
<pdfrwt beam="2">  1       21 0.20707535E+00 0.21894294E+03</pdfrwt>
<totfact> 0.26554526E+04</totfact>
</mgrwt>
</event>
<event>
 4    2  0.3903561E+000  0.1844621E+03  0.7546771E-02  0.1163553E+00
         21   -1    0    0  501  502  0.00000000000E+00  0.00000000000E+00  0.71738944346E+02  0.71738944346E+02  0.00000000000E+00 0. -1.
         21   -1    0    0  502  503 -0.00000000000E+00 -0.00000000000E+00 -0.51058925175E+03  0.51058925175E+03  0.00000000000E+00 0. -1.
          6    1    1    2  501    0  0.52816879216E+02 -0.36161111873E+02 -0.14180902042E+03  0.23267154320E+03  0.17300000000E+03 0. -1.
         -6    1    1    2    0  503 -0.52816879216E+02  0.36161111873E+02 -0.29704128698E+03  0.34965665289E+03  0.17300000000E+03 0. -1.
<mgrwt>
<rscale>  2 0.18446205E+03</rscale>
<asrwt>0</asrwt>
<pdfrwt beam="1">  1       21 0.11036760E-01 0.18446205E+03</pdfrwt>
<pdfrwt beam="2">  1       21 0.78552194E-01 0.18446205E+03</pdfrwt>
<totfact> 0.97957192E+04</totfact>
</mgrwt>
</event>
<event>
 4    2  0.3903561E+000  0.2418279E+03  0.7546771E-02  0.1118581E+00
         21   -1    0    0  501  502  0.00000000000E+00  0.00000000000E+00  0.92304378092E+03  0.92304378092E+03  0.00000000000E+00 0. -1.
         21   -1    0    0  502  503 -0.00000000000E+00 -0.00000000000E+00 -0.16402481300E+03  0.16402481300E+03  0.00000000000E+00 0. -1.
          6    1    1    2  501    0  0.16634435891E+03 -0.29686263246E+02  0.80532238416E+03  0.84084770464E+03  0.17300000000E+03 0. -1.
         -6    1    1    2    0  503 -0.16634435891E+03  0.29686263246E+02 -0.46303416243E+02  0.24622088929E+03  0.17300000000E+03 0. -1.
<mgrwt>
<rscale>  2 0.24182787E+03</rscale>
<asrwt>0</asrwt>
<pdfrwt beam="1">  1       21 0.14200673E+00 0.24182787E+03</pdfrwt>
<pdfrwt beam="2">  1       21 0.25234587E-01 0.24182787E+03</pdfrwt>
<totfact> 0.49423729E+03</totfact>
</mgrwt>
</event>
<event>
 4    2  0.3903561E+000  0.2010412E+03  0.7546771E-02  0.1148863E+00
         21   -1    0    0  503  502  0.00000000000E+00  0.00000000000E+00  0.13118182829E+04  0.13118182829E+04  0.00000000000E+00 0.  1.
         21   -1    0    0  501  503 -0.00000000000E+00 -0.00000000000E+00 -0.86465215297E+02  0.86465215297E+02  0.00000000000E+00 0.  1.
          6    1    1    2  501    0 -0.20990728694E-01 -0.10241378046E+03  0.51762786921E+02  0.20759809483E+03  0.17300000000E+03 0.  1.
         -6    1    1    2    0  502  0.20990728694E-01  0.10241378046E+03  0.11735902807E+04  0.11906854033E+04  0.17300000000E+03 0.  1.
<mgrwt>
<rscale>  2 0.20104125E+03</rscale>
<asrwt>0</asrwt>
<pdfrwt beam="1">  1       21 0.20181818E+00 0.20104125E+03</pdfrwt>
<pdfrwt beam="2">  1       21 0.13302342E-01 0.20104125E+03</pdfrwt>
<totfact> 0.63270668E+03</totfact>
</mgrwt>
</event>
<event>
 4    2  0.3903561E+000  0.2087342E+03  0.7546771E-02  0.1142572E+00
         21   -1    0    0  501  502  0.00000000000E+00  0.00000000000E+00  0.67683289318E+03  0.67683289318E+03  0.00000000000E+00 0. -1.
         21   -1    0    0  502  503 -0.00000000000E+00 -0.00000000000E+00 -0.68143564860E+02  0.68143564860E+02  0.00000000000E+00 0. -1.
          6    1    1    2  501    0 -0.11676576934E+03 -0.25923727170E+01  0.39196122346E+03  0.44407608130E+03  0.17300000000E+03 0. -1.
         -6    1    1    2    0  503  0.11676576934E+03  0.25923727170E+01  0.21672810486E+03  0.30090037674E+03  0.17300000000E+03 0. -1.
<mgrwt>
<rscale>  2 0.20873420E+03</rscale>
<asrwt>0</asrwt>
<pdfrwt beam="1">  1       21 0.10412813E+00 0.20873420E+03</pdfrwt>
<pdfrwt beam="2">  1       21 0.10483626E-01 0.20873420E+03</pdfrwt>
<totfact> 0.55187593E+04</totfact>
</mgrwt>
</event>
<event>
 4    2  0.3903561E+000  0.1972992E+03  0.7546771E-02  0.1152038E+00
         21   -1    0    0  501  502  0.00000000000E+00  0.00000000000E+00  0.14787096378E+03  0.14787096378E+03  0.00000000000E+00 0.  1.
         21   -1    0    0  502  503 -0.00000000000E+00 -0.00000000000E+00 -0.26741166205E+03  0.26741166205E+03  0.00000000000E+00 0.  1.
          6    1    1    2  501    0  0.85892263524E+02  0.40255594114E+02 -0.85674550341E+02  0.21509793669E+03  0.17300000000E+03 0. -1.
         -6    1    1    2    0  503 -0.85892263524E+02 -0.40255594114E+02 -0.33866147935E+02  0.20018468914E+03  0.17300000000E+03 0. -1.
<mgrwt>
<rscale>  2 0.19729925E+03</rscale>
<asrwt>0</asrwt>
<pdfrwt beam="1">  1       21 0.22749379E-01 0.19729925E+03</pdfrwt>
<pdfrwt beam="2">  1       21 0.41140255E-01 0.19729925E+03</pdfrwt>
<totfact> 0.10292103E+05</totfact>
</mgrwt>
</event>
<event>
 4    2  0.3903561E+000  0.1784854E+03  0.7546771E-02  0.1169277E+00
         21   -1    0    0  503  502  0.00000000000E+00  0.00000000000E+00  0.16852637980E+02  0.16852637980E+02  0.00000000000E+00 0. -1.
         21   -1    0    0  501  503 -0.00000000000E+00 -0.00000000000E+00 -0.19208612628E+04  0.19208612628E+04  0.00000000000E+00 0. -1.
          6    1    1    2  501    0  0.40809510618E+02 -0.16205191522E+02 -0.10741543627E+04  0.10888822798E+04  0.17300000000E+03 0. -1.
         -6    1    1    2    0  502 -0.40809510618E+02  0.16205191522E+02 -0.82985426211E+03  0.84883162095E+03  0.17300000000E+03 0. -1.
<mgrwt>
<rscale>  2 0.17848536E+03</rscale>
<asrwt>0</asrwt>
<pdfrwt beam="1">  1       21 0.25927148E-02 0.17848536E+03</pdfrwt>
<pdfrwt beam="2">  1       21 0.29551698E+00 0.17848536E+03</pdfrwt>
<totfact> 0.29564171E+04</totfact>
</mgrwt>
</event>
<event>
 4    2  0.3903561E+000  0.2023637E+03  0.7546771E-02  0.1147760E+00
         21   -1    0    0  501  502  0.00000000000E+00  0.00000000000E+00  0.28013216662E+03  0.28013216662E+03  0.00000000000E+00 0.  1.
         21   -1    0    0  502  503 -0.00000000000E+00 -0.00000000000E+00 -0.14628215732E+03  0.14628215732E+03  0.00000000000E+00 0.  1.
          6    1    1    2  501    0 -0.85108827990E+01 -0.10464043880E+03  0.72426181930E+02  0.21493396285E+03  0.17300000000E+03 0.  1.
         -6    1    1    2    0  503  0.85108827990E+01  0.10464043880E+03  0.61423827364E+02  0.21148036109E+03  0.17300000000E+03 0.  1.
<mgrwt>
<rscale>  2 0.20236367E+03</rscale>
<asrwt>0</asrwt>
<pdfrwt beam="1">  1       21 0.43097256E-01 0.20236367E+03</pdfrwt>
<pdfrwt beam="2">  1       21 0.22504947E-01 0.20236367E+03</pdfrwt>
<totfact> 0.95361639E+04</totfact>
</mgrwt>
</event>
<event>
 4    2  0.3903561E+000  0.1787619E+03  0.7546771E-02  0.1169007E+00
         21   -1    0    0  501  502  0.00000000000E+00  0.00000000000E+00  0.65460323527E+03  0.65460323527E+03  0.00000000000E+00 0. -1.
         21   -1    0    0  502  503 -0.00000000000E+00 -0.00000000000E+00 -0.13894276066E+03  0.13894276066E+03  0.00000000000E+00 0. -1.
          6    1    1    2  501    0  0.21252095062E+02 -0.39688212757E+02  0.57738733846E+03  0.60442695538E+03  0.17300000000E+03 0. -1.
         -6    1    1    2    0  503 -0.21252095062E+02  0.39688212757E+02 -0.61726863856E+02  0.18911904055E+03  0.17300000000E+03 0. -1.
<mgrwt>
<rscale>  2 0.17876187E+03</rscale>
<asrwt>0</asrwt>
<pdfrwt beam="1">  1       21 0.10070819E+00 0.17876187E+03</pdfrwt>
<pdfrwt beam="2">  1       21 0.21375810E-01 0.17876187E+03</pdfrwt>
<totfact> 0.16599286E+04</totfact>
</mgrwt>
</event>
<event>
 4    2  0.3903561E+000  0.1903172E+03  0.7546771E-02  0.1158176E+00
         21   -1    0    0  503  502  0.00000000000E+00  0.00000000000E+00  0.40654544863E+02  0.40654544863E+02  0.00000000000E+00 0.  1.
         21   -1    0    0  501  503 -0.00000000000E+00 -0.00000000000E+00 -0.90043466453E+03  0.90043466453E+03  0.00000000000E+00 0.  1.
          6    1    1    2  501    0 -0.23507285612E+02  0.75756532194E+02 -0.47821591000E+03  0.51469515369E+03  0.17300000000E+03 0.  1.
         -6    1    1    2    0  502  0.23507285612E+02 -0.75756532194E+02 -0.38156420966E+03  0.42639405570E+03  0.17300000000E+03 0.  1.
<mgrwt>
<rscale>  2 0.19031722E+03</rscale>
<asrwt>0</asrwt>
<pdfrwt beam="1">  1       21 0.62545455E-02 0.19031722E+03</pdfrwt>
<pdfrwt beam="2">  1       21 0.13852841E+00 0.19031722E+03</pdfrwt>
<totfact> 0.67604130E+04</totfact>
</mgrwt>
</event>
<event>
 4    2  0.3903561E+000  0.2113952E+03  0.7546771E-02  0.1140466E+00
         21   -1    0    0  501  502  0.00000000000E+00  0.00000000000E+00  0.40641061050E+03  0.40641061050E+03  0.00000000000E+00 0. -1.
         21   -1    0    0  502  503 -0.00000000000E+00 -0.00000000000E+00 -0.11011972731E+03  0.11011972731E+03  0.00000000000E+00 0. -1.
          6    1    1    2  501    0  0.62400636982E+02 -0.10423582212E+03  0.15805435161E+03  0.26394909391E+03  0.17300000000E+03 0. -1.
         -6    1    1    2    0  503 -0.62400636982E+02  0.10423582212E+03  0.13823653157E+03  0.25258124390E+03  0.17300000000E+03 0. -1.
<mgrwt>
<rscale>  2 0.21139524E+03</rscale>
<asrwt>0</asrwt>
<pdfrwt beam="1">  1       21 0.62524708E-01 0.21139524E+03</pdfrwt>
<pdfrwt beam="2">  1       21 0.16941497E-01 0.21139524E+03</pdfrwt>
<totfact> 0.73826692E+04</totfact>
</mgrwt>
</event>
<event>
 4    2  0.3903561E+000  0.2034328E+03  0.7546771E-02  0.1146875E+00
         21   -1    0    0  503  502  0.00000000000E+00  0.00000000000E+00  0.12739727682E+03  0.12739727682E+03  0.00000000000E+00 0.  1.
         21   -1    0    0  501  503 -0.00000000000E+00 -0.00000000000E+00 -0.75570189234E+03  0.75570189234E+03  0.00000000000E+00 0.  1.
          6    1    1    2  501    0 -0.34185918794E+02  0.10142606711E+03 -0.64755457544E+03  0.67875757992E+03  0.17300000000E+03 0.  1.
         -6    1    1    2    0  502  0.34185918794E+02 -0.10142606711E+03  0.19249959916E+02  0.20434158923E+03  0.17300000000E+03 0.  1.
<mgrwt>
<rscale>  2 0.20343285E+03</rscale>
<asrwt>0</asrwt>
<pdfrwt beam="1">  1       21 0.19599581E-01 0.20343285E+03</pdfrwt>
<pdfrwt beam="2">  1       21 0.11626183E+00 0.20343285E+03</pdfrwt>
<totfact> 0.13583848E+04</totfact>
</mgrwt>
</event>
<event>
 4    2  0.3903561E+000  0.2483262E+03  0.7546771E-02  0.1114367E+00
         21   -1    0    0  501  502  0.00000000000E+00  0.00000000000E+00  0.58204167876E+03  0.58204167876E+03  0.00000000000E+00 0. -1.
         21   -1    0    0  502  503 -0.00000000000E+00 -0.00000000000E+00 -0.10940645592E+03  0.10940645592E+03  0.00000000000E+00 0.  1.
          6    1    1    2  501    0 -0.98624606921E+02  0.14835802367E+03  0.29778923222E+03  0.38774262482E+03  0.17300000000E+03 0. -1.
         -6    1    1    2    0  503  0.98624606921E+02 -0.14835802367E+03  0.17484599063E+03  0.30370550986E+03  0.17300000000E+03 0.  1.
<mgrwt>
<rscale>  2 0.24832623E+03</rscale>
<asrwt>0</asrwt>
<pdfrwt beam="1">  1       21 0.89544872E-01 0.24832623E+03</pdfrwt>
<pdfrwt beam="2">  1       21 0.16831763E-01 0.24832623E+03</pdfrwt>
<totfact> 0.32834562E+04</totfact>
</mgrwt>
</event>
<event>
 4    2  0.3903561E+000  0.1808649E+03  0.7546771E-02  0.1166969E+00
         21   -1    0    0  503  502  0.00000000000E+00  0.00000000000E+00  0.22198451510E+03  0.22198451510E+03  0.00000000000E+00 0. -1.
         21   -1    0    0  501  503 -0.00000000000E+00 -0.00000000000E+00 -0.18593976800E+03  0.18593976800E+03  0.00000000000E+00 0. -1.
          6    1    1    2  501    0 -0.11962655048E+02  0.51380894131E+02  0.11092574622E+03  0.21217121052E+03  0.17300000000E+03 0. -1.
         -6    1    1    2    0  502  0.11962655048E+02 -0.51380894131E+02 -0.74880999117E+02  0.19575307258E+03  0.17300000000E+03 0. -1.
<mgrwt>
<rscale>  2 0.18086487E+03</rscale>
<asrwt>0</asrwt>
<pdfrwt beam="1">  1       21 0.34151464E-01 0.18086487E+03</pdfrwt>
<pdfrwt beam="2">  1       21 0.28606118E-01 0.18086487E+03</pdfrwt>
<totfact> 0.96999568E+04</totfact>
</mgrwt>
</event>
<event>
 4    2  0.3903561E+000  0.2117308E+03  0.7546771E-02  0.1140203E+00
         21   -1    0    0  501  502  0.00000000000E+00  0.00000000000E+00  0.61071289802E+02  0.61071289802E+02  0.00000000000E+00 0. -1.
         21   -1    0    0  502  503 -0.00000000000E+00 -0.00000000000E+00 -0.74085596315E+03  0.74085596315E+03  0.00000000000E+00 0. -1.
          6    1    1    2  501    0  0.90700001375E+02  0.81697129008E+02 -0.30148578020E+03  0.36840682241E+03  0.17300000000E+03 0. -1.
         -6    1    1    2    0  503 -0.90700001375E+02 -0.81697129008E+02 -0.37829889315E+03  0.43352043054E+03  0.17300000000E+03 0. -1.
<mgrwt>
<rscale>  2 0.21173075E+03</rscale>
<asrwt>0</asrwt>
<pdfrwt beam="1">  1       21 0.93955827E-02 0.21173075E+03</pdfrwt>
<pdfrwt beam="2">  1       21 0.11397784E+00 0.21173075E+03</pdfrwt>
<totfact> 0.53740752E+04</totfact>
</mgrwt>
</event>
<event>
 4    2  0.3903561E+000  0.2649519E+03  0.7546771E-02  0.1104204E+00
         21   -1    0    0  503  502  0.00000000000E+00  0.00000000000E+00  0.15597697766E+04  0.15597697766E+04  0.00000000000E+00 0. -1.
         21   -1    0    0  501  503 -0.00000000000E+00 -0.00000000000E+00 -0.63900183995E+02  0.63900183995E+02  0.00000000000E+00 0. -1.
          6    1    1    2  501    0  0.19866307005E+03  0.28345721343E+02  0.11893803184E+04  0.12185339704E+04  0.17300000000E+03 0. -1.
         -6    1    1    2    0  502 -0.19866307005E+03 -0.28345721343E+02  0.30648927423E+03  0.40513599018E+03  0.17300000000E+03 0. -1.
<mgrwt>
<rscale>  2 0.26495187E+03</rscale>
<asrwt>0</asrwt>
<pdfrwt beam="1">  1       21 0.23996455E+00 0.26495187E+03</pdfrwt>
<pdfrwt beam="2">  1       21 0.98307987E-02 0.26495187E+03</pdfrwt>
<totfact> 0.59924066E+03</totfact>
</mgrwt>
</event>
<event>
 4    2  0.3903561E+000  0.2030153E+03  0.7546771E-02  0.1147220E+00
         21   -1    0    0  501  502  0.00000000000E+00  0.00000000000E+00  0.16921911642E+04  0.16921911642E+04  0.00000000000E+00 0. -1.
         21   -1    0    0  502  503 -0.00000000000E+00 -0.00000000000E+00 -0.19301967404E+03  0.19301967404E+03  0.00000000000E+00 0. -1.
          6    1    1    2  501    0 -0.35267324795E+02 -0.10021197364E+03  0.16307152769E+04  0.16433038484E+04  0.17300000000E+03 0. -1.
         -6    1    1    2    0  503  0.35267324795E+02  0.10021197364E+03 -0.13154378679E+03  0.24190698978E+03  0.17300000000E+03 0. -1.
<mgrwt>
<rscale>  2 0.20301533E+03</rscale>
<asrwt>0</asrwt>
<pdfrwt beam="1">  1       21 0.26033709E+00 0.20301533E+03</pdfrwt>
<pdfrwt beam="2">  1       21 0.29695336E-01 0.20301533E+03</pdfrwt>
<totfact> 0.62044364E+02</totfact>
</mgrwt>
</event>
<event>
 4    2  0.3903561E+000  0.1990364E+03  0.7546771E-02  0.1150555E+00
         21   -1    0    0  503  502  0.00000000000E+00  0.00000000000E+00  0.86479037863E+03  0.86479037863E+03  0.00000000000E+00 0. -1.
         21   -1    0    0  501  503 -0.00000000000E+00 -0.00000000000E+00 -0.11970308181E+03  0.11970308181E+03  0.00000000000E+00 0. -1.
          6    1    1    2  501    0 -0.97602451263E+02 -0.12658681499E+02 -0.14209617003E+02  0.19954296261E+03  0.17300000000E+03 0. -1.
         -6    1    1    2    0  502  0.97602451263E+02  0.12658681499E+02  0.75929691383E+03  0.78495049784E+03  0.17300000000E+03 0. -1.
<mgrwt>
<rscale>  2 0.19903638E+03</rscale>
<asrwt>0</asrwt>
<pdfrwt beam="1">  1       21 0.13304467E+00 0.19903638E+03</pdfrwt>
<pdfrwt beam="2">  1       21 0.18415859E-01 0.19903638E+03</pdfrwt>
<totfact> 0.10921058E+04</totfact>
</mgrwt>
</event>
<event>
 4    2  0.3903561E+000  0.1742869E+03  0.7546771E-02  0.1173450E+00
         21   -1    0    0  501  502  0.00000000000E+00  0.00000000000E+00  0.12343504674E+03  0.12343504674E+03  0.00000000000E+00 0. -1.
         21   -1    0    0  502  503 -0.00000000000E+00 -0.00000000000E+00 -0.95183295503E+03  0.95183295503E+03  0.00000000000E+00 0. -1.
          6    1    1    2  501    0  0.44599918086E+01  0.20664574414E+02  0.48746867075E+02  0.18097561497E+03  0.17300000000E+03 0. -1.
         -6    1    1    2    0  503 -0.44599918086E+01 -0.20664574414E+02 -0.87714477536E+03  0.89429238681E+03  0.17300000000E+03 0. -1.
<mgrwt>
<rscale>  2 0.17428688E+03</rscale>
<asrwt>0</asrwt>
<pdfrwt beam="1">  1       21 0.18990007E-01 0.17428688E+03</pdfrwt>
<pdfrwt beam="2">  1       21 0.14643584E+00 0.17428688E+03</pdfrwt>
<totfact> 0.82135685E+03</totfact>
</mgrwt>
</event>
<event>
 4    2  0.3903561E+000  0.2101625E+03  0.7546771E-02  0.1141437E+00
         21   -1    0    0  501  502  0.00000000000E+00  0.00000000000E+00  0.86042004750E+03  0.86042004750E+03  0.00000000000E+00 0. -1.
         21   -1    0    0  502  503 -0.00000000000E+00 -0.00000000000E+00 -0.78953448182E+02  0.78953448182E+02  0.00000000000E+00 0.  1.
          6    1    1    2  501    0  0.20807210878E+02 -0.11750028904E+03  0.66853521281E+03  0.70079068824E+03  0.17300000000E+03 0. -1.
         -6    1    1    2    0  503 -0.20807210878E+02  0.11750028904E+03  0.11293138650E+03  0.23858280744E+03  0.17300000000E+03 0.  1.
<mgrwt>
<rscale>  2 0.21016246E+03</rscale>
<asrwt>0</asrwt>
<pdfrwt beam="1">  1       21 0.13237231E+00 0.21016246E+03</pdfrwt>
<pdfrwt beam="2">  1       21 0.12146685E-01 0.21016246E+03</pdfrwt>
<totfact> 0.23452424E+04</totfact>
</mgrwt>
</event>
<event>
 4    2  0.3903561E+000  0.2058260E+03  0.7546771E-02  0.1144915E+00
         21   -1    0    0  501  502  0.00000000000E+00  0.00000000000E+00  0.87322625525E+02  0.87322625525E+02  0.00000000000E+00 0. -1.
         21   -1    0    0  502  503 -0.00000000000E+00 -0.00000000000E+00 -0.49462146001E+03  0.49462146001E+03  0.00000000000E+00 0.  1.
          6    1    1    2  501    0  0.88995486668E+02  0.67194876973E+02 -0.24391944765E+03  0.31915677195E+03  0.17300000000E+03 0.  1.
         -6    1    1    2    0  503 -0.88995486668E+02 -0.67194876973E+02 -0.16337938683E+03  0.26278731358E+03  0.17300000000E+03 0.  1.
<mgrwt>
<rscale>  2 0.20582601E+03</rscale>
<asrwt>0</asrwt>
<pdfrwt beam="1">  1       21 0.13434250E-01 0.20582601E+03</pdfrwt>
<pdfrwt beam="2">  1       21 0.76095609E-01 0.20582601E+03</pdfrwt>
<totfact> 0.73301533E+04</totfact>
</mgrwt>
</event>
<event>
 4    2  0.3903561E+000  0.1741982E+03  0.7546771E-02  0.1173539E+00
         21   -1    0    0  501  502  0.00000000000E+00  0.00000000000E+00  0.32825049334E+03  0.32825049334E+03  0.00000000000E+00 0.  1.
         21   -1    0    0  502  503 -0.00000000000E+00 -0.00000000000E+00 -0.15583143321E+03  0.15583143321E+03  0.00000000000E+00 0.  1.
          6    1    1    2  501    0  0.12085314026E+02 -0.16429972681E+02  0.24057875702E+03  0.29702379896E+03  0.17300000000E+03 0.  1.
         -6    1    1    2    0  503 -0.12085314026E+02  0.16429972681E+02 -0.68159696889E+02  0.18705812759E+03  0.17300000000E+03 0.  1.
<mgrwt>
<rscale>  2 0.17419816E+03</rscale>
<asrwt>0</asrwt>
<pdfrwt beam="1">  1       21 0.50500076E-01 0.17419816E+03</pdfrwt>
<pdfrwt beam="2">  1       21 0.23974067E-01 0.17419816E+03</pdfrwt>
<totfact> 0.61736067E+04</totfact>
</mgrwt>
</event>
<event>
 4    2  0.3903561E+000  0.1825249E+03  0.7546771E-02  0.1165382E+00
         21   -1    0    0  503  502  0.00000000000E+00  0.00000000000E+00  0.15427355875E+03  0.15427355875E+03  0.00000000000E+00 0. -1.
         21   -1    0    0  501  503 -0.00000000000E+00 -0.00000000000E+00 -0.31558602804E+03  0.31558602804E+03  0.00000000000E+00 0. -1.
          6    1    1    2  501    0  0.57846489791E+02 -0.63354118822E+01 -0.21266042431E+03  0.28024954932E+03  0.17300000000E+03 0. -1.
         -6    1    1    2    0  502 -0.57846489791E+02  0.63354118822E+01  0.51347955016E+02  0.18961003747E+03  0.17300000000E+03 0. -1.
<mgrwt>
<rscale>  2 0.18252494E+03</rscale>
<asrwt>0</asrwt>
<pdfrwt beam="1">  1       21 0.23734394E-01 0.18252494E+03</pdfrwt>
<pdfrwt beam="2">  1       21 0.48551696E-01 0.18252494E+03</pdfrwt>
<totfact> 0.68029144E+04</totfact>
</mgrwt>
</event>
<event>
 4    2  0.3903561E+000  0.2290723E+03  0.7546771E-02  0.1127294E+00
         21   -1    0    0  503  502  0.00000000000E+00  0.00000000000E+00  0.33793301064E+02  0.33793301064E+02  0.00000000000E+00 0. -1.
         21   -1    0    0  501  503 -0.00000000000E+00 -0.00000000000E+00 -0.16778270094E+04  0.16778270094E+04  0.00000000000E+00 0. -1.
          6    1    1    2  501    0  0.12378838209E+03  0.84979633781E+02 -0.10556383316E+04  0.10802066418E+04  0.17300000000E+03 0. -1.
         -6    1    1    2    0  502 -0.12378838209E+03 -0.84979633781E+02 -0.58839537673E+03  0.63141366873E+03  0.17300000000E+03 0. -1.
<mgrwt>
<rscale>  2 0.22907226E+03</rscale>
<asrwt>0</asrwt>
<pdfrwt beam="1">  1       21 0.51989676E-02 0.22907226E+03</pdfrwt>
<pdfrwt beam="2">  1       21 0.25812732E+00 0.22907226E+03</pdfrwt>
<totfact> 0.14531426E+04</totfact>
</mgrwt>
</event>
<event>
 4    2  0.3903561E+000  0.2314879E+03  0.7546771E-02  0.1125597E+00
         21   -1    0    0  503  502  0.00000000000E+00  0.00000000000E+00  0.60120984014E+03  0.60120984014E+03  0.00000000000E+00 0.  1.
         21   -1    0    0  501  503 -0.00000000000E+00 -0.00000000000E+00 -0.28284319571E+03  0.28284319571E+03  0.00000000000E+00 0.  1.
          6    1    1    2  501    0 -0.29529965069E+01 -0.15378203027E+03 -0.20662498841E+03  0.31029102284E+03  0.17300000000E+03 0.  1.
         -6    1    1    2    0  502  0.29529965069E+01  0.15378203027E+03  0.52499163283E+03  0.57376201301E+03  0.17300000000E+03 0.  1.
<mgrwt>
<rscale>  2 0.23148787E+03</rscale>
<asrwt>0</asrwt>
<pdfrwt beam="1">  1       21 0.92493821E-01 0.23148787E+03</pdfrwt>
<pdfrwt beam="2">  1       21 0.43514338E-01 0.23148787E+03</pdfrwt>
<totfact> 0.48623166E+03</totfact>
</mgrwt>
</event>
<event>
 4    2  0.3903561E+000  0.2321513E+03  0.7546771E-02  0.1125135E+00
         21   -1    0    0  503  502  0.00000000000E+00  0.00000000000E+00  0.12125947862E+04  0.12125947862E+04  0.00000000000E+00 0. -1.
         21   -1    0    0  501  503 -0.00000000000E+00 -0.00000000000E+00 -0.53840483044E+02  0.53840483044E+02  0.00000000000E+00 0.  1.
          6    1    1    2  501    0  0.11650828656E+03 -0.10193643025E+03  0.31486253756E+03  0.39119385758E+03  0.17300000000E+03 0. -1.
         -6    1    1    2    0  502 -0.11650828656E+03  0.10193643025E+03  0.84389176561E+03  0.87524141167E+03  0.17300000000E+03 0. -1.
<mgrwt>
<rscale>  2 0.23215128E+03</rscale>
<asrwt>0</asrwt>
<pdfrwt beam="1">  1       21 0.18655302E+00 0.23215128E+03</pdfrwt>
<pdfrwt beam="2">  1       21 0.82831521E-02 0.23215128E+03</pdfrwt>
<totfact> 0.18057622E+04</totfact>
</mgrwt>
</event>
<event>
 4    2  0.3903561E+000  0.2126589E+03  0.7546771E-02  0.1139478E+00
         21   -1    0    0  501  502  0.00000000000E+00  0.00000000000E+00  0.22632000456E+03  0.22632000456E+03  0.00000000000E+00 0. -1.
         21   -1    0    0  502  503 -0.00000000000E+00 -0.00000000000E+00 -0.20324170713E+03  0.20324170713E+03  0.00000000000E+00 0. -1.
          6    1    1    2  501    0  0.66967084629E+01 -0.12349067707E+03 -0.16319620507E+02  0.21328413734E+03  0.17300000000E+03 0. -1.
         -6    1    1    2    0  503 -0.66967084629E+01  0.12349067707E+03  0.39397917936E+02  0.21627757435E+03  0.17300000000E+03 0. -1.
<mgrwt>
<rscale>  2 0.21265887E+03</rscale>
<asrwt>0</asrwt>
<pdfrwt beam="1">  1       21 0.34818462E-01 0.21265887E+03</pdfrwt>
<pdfrwt beam="2">  1       21 0.31267955E-01 0.21265887E+03</pdfrwt>
<totfact> 0.77479408E+04</totfact>
</mgrwt>
</event>
<event>
 4    2  0.3903561E+000  0.3026111E+03  0.7546771E-02  0.1083943E+00
         21   -1    0    0  501  502  0.00000000000E+00  0.00000000000E+00  0.48285942600E+03  0.48285942600E+03  0.00000000000E+00 0.  1.
         21   -1    0    0  502  503 -0.00000000000E+00 -0.00000000000E+00 -0.20683495533E+03  0.20683495533E+03  0.00000000000E+00 0. -1.
          6    1    1    2  501    0 -0.23560037628E+03  0.78338580256E+02  0.38606743909E+02  0.30506384764E+03  0.17300000000E+03 0.  1.
         -6    1    1    2    0  503  0.23560037628E+03 -0.78338580256E+02  0.23741772676E+03  0.38463053369E+03  0.17300000000E+03 0. -1.
<mgrwt>
<rscale>  2 0.30261109E+03</rscale>
<asrwt>0</asrwt>
<pdfrwt beam="1">  1       21 0.74286065E-01 0.30261109E+03</pdfrwt>
<pdfrwt beam="2">  1       21 0.31820762E-01 0.30261109E+03</pdfrwt>
<totfact> 0.14557846E+04</totfact>
</mgrwt>
</event>
<event>
 4    2  0.3903561E+000  0.1765727E+03  0.7546771E-02  0.1171162E+00
         21   -1    0    0  503  502  0.00000000000E+00  0.00000000000E+00  0.33726536222E+02  0.33726536222E+02  0.00000000000E+00 0.  1.
         21   -1    0    0  501  503 -0.00000000000E+00 -0.00000000000E+00 -0.96052069538E+03  0.96052069538E+03  0.00000000000E+00 0.  1.
          6    1    1    2  501    0  0.35310625759E+02  0.14370686853E+01 -0.55975640384E+03  0.58694559978E+03  0.17300000000E+03 0. -1.
         -6    1    1    2    0  502 -0.35310625759E+02 -0.14370686853E+01 -0.36703775532E+03  0.40730163183E+03  0.17300000000E+03 0. -1.
<mgrwt>
<rscale>  2 0.17657266E+03</rscale>
<asrwt>0</asrwt>
<pdfrwt beam="1">  1       21 0.51886991E-02 0.17657266E+03</pdfrwt>
<pdfrwt beam="2">  1       21 0.14777238E+00 0.17657266E+03</pdfrwt>
<totfact> 0.79169424E+04</totfact>
</mgrwt>
</event>
<event>
 4    2  0.3903561E+000  0.1808090E+03  0.7546771E-02  0.1167022E+00
         21   -1    0    0  503  502  0.00000000000E+00  0.00000000000E+00  0.51280033087E+02  0.51280033087E+02  0.00000000000E+00 0. -1.
         21   -1    0    0  501  503 -0.00000000000E+00 -0.00000000000E+00 -0.96359363590E+03  0.96359363590E+03  0.00000000000E+00 0. -1.
          6    1    1    2  501    0  0.52536557861E+02 -0.16703451758E+01 -0.75134231195E+03  0.77279178935E+03  0.17300000000E+03 0. -1.
         -6    1    1    2    0  502 -0.52536557861E+02  0.16703451758E+01 -0.16097129086E+03  0.24208187963E+03  0.17300000000E+03 0. -1.
<mgrwt>
<rscale>  2 0.18080896E+03</rscale>
<asrwt>0</asrwt>
<pdfrwt beam="1">  1       21 0.78892358E-02 0.18080896E+03</pdfrwt>
<pdfrwt beam="2">  1       21 0.14824518E+00 0.18080896E+03</pdfrwt>
<totfact> 0.38170694E+04</totfact>
</mgrwt>
</event>
<event>
 4    2  0.3903561E+000  0.2948594E+03  0.7546771E-02  0.1087839E+00
         21   -1    0    0  501  502  0.00000000000E+00  0.00000000000E+00  0.53196719204E+02  0.53196719204E+02  0.00000000000E+00 0.  1.
         21   -1    0    0  502  503 -0.00000000000E+00 -0.00000000000E+00 -0.18733356437E+04  0.18733356437E+04  0.00000000000E+00 0.  1.
          6    1    1    2  501    0  0.19005826816E+03  0.14453681795E+03 -0.56601691309E+03  0.63821405731E+03  0.17300000000E+03 0.  1.
         -6    1    1    2    0  503 -0.19005826816E+03 -0.14453681795E+03 -0.12541220114E+04  0.12883183056E+04  0.17300000000E+03 0.  1.
<mgrwt>
<rscale>  2 0.29485935E+03</rscale>
<asrwt>0</asrwt>
<pdfrwt beam="1">  1       21 0.81841122E-02 0.29485935E+03</pdfrwt>
<pdfrwt beam="2">  1       21 0.28820543E+00 0.29485935E+03</pdfrwt>
<totfact> 0.41882577E+03</totfact>
</mgrwt>
</event>
<event>
 4    2  0.3903561E+000  0.1774280E+03  0.7546771E-02  0.1170316E+00
         21   -1    0    0  503  502  0.00000000000E+00  0.00000000000E+00  0.24139741458E+02  0.24139741458E+02  0.00000000000E+00 0. -1.
         21   -1    0    0  501  503 -0.00000000000E+00 -0.00000000000E+00 -0.17159056457E+04  0.17159056457E+04  0.00000000000E+00 0. -1.
          6    1    1    2  501    0 -0.38828048135E+02 -0.66404263429E+01 -0.12720976016E+04  0.12844115464E+04  0.17300000000E+03 0. -1.
         -6    1    1    2    0  502  0.38828048135E+02  0.66404263429E+01 -0.41966830266E+03  0.45563384076E+03  0.17300000000E+03 0. -1.
<mgrwt>
<rscale>  2 0.17742805E+03</rscale>
<asrwt>0</asrwt>
<pdfrwt beam="1">  1       21 0.37138061E-02 0.17742805E+03</pdfrwt>
<pdfrwt beam="2">  1       21 0.26398551E+00 0.17742805E+03</pdfrwt>
<totfact> 0.24783426E+04</totfact>
</mgrwt>
</event>
<event>
 4    2  0.3903561E+000  0.1905324E+03  0.7546771E-02  0.1157982E+00
         21   -1    0    0  501  502  0.00000000000E+00  0.00000000000E+00  0.18311402710E+02  0.18311402710E+02  0.00000000000E+00 0.  1.
         21   -1    0    0  502  503 -0.00000000000E+00 -0.00000000000E+00 -0.21288138407E+04  0.21288138407E+04  0.00000000000E+00 0.  1.
          6    1    1    2  501    0  0.44436772594E+02  0.66324608669E+02 -0.13366894164E+04  0.13502004209E+04  0.17300000000E+03 0.  1.
         -6    1    1    2    0  503 -0.44436772594E+02 -0.66324608669E+02 -0.77381302154E+03  0.79692482254E+03  0.17300000000E+03 0.  1.
<mgrwt>
<rscale>  2 0.19053236E+03</rscale>
<asrwt>0</asrwt>
<pdfrwt beam="1">  1       21 0.28171398E-02 0.19053236E+03</pdfrwt>
<pdfrwt beam="2">  1       21 0.32750972E+00 0.19053236E+03</pdfrwt>
<totfact> 0.16660066E+04</totfact>
</mgrwt>
</event>
<event>
 4    2  0.3903561E+000  0.3065489E+03  0.7546771E-02  0.1082012E+00
         21   -1    0    0  503  502  0.00000000000E+00  0.00000000000E+00  0.42425329473E+03  0.42425329473E+03  0.00000000000E+00 0. -1.
         21   -1    0    0  501  503 -0.00000000000E+00 -0.00000000000E+00 -0.23113531365E+03  0.23113531365E+03  0.00000000000E+00 0. -1.
          6    1    1    2  501    0 -0.16676803774E+03 -0.19034615986E+03  0.29653533747E+02  0.30797982247E+03  0.17300000000E+03 0. -1.
         -6    1    1    2    0  502  0.16676803774E+03  0.19034615986E+03  0.16346444733E+03  0.34740878591E+03  0.17300000000E+03 0. -1.
<mgrwt>
<rscale>  2 0.30654892E+03</rscale>
<asrwt>0</asrwt>
<pdfrwt beam="1">  1       21 0.65269737E-01 0.30654892E+03</pdfrwt>
<pdfrwt beam="2">  1       21 0.35559279E-01 0.30654892E+03</pdfrwt>
<totfact> 0.15535161E+04</totfact>
</mgrwt>
</event>
<event>
 4    2  0.3903561E+000  0.1745102E+03  0.7546771E-02  0.1173224E+00
         21   -1    0    0  503  502  0.00000000000E+00  0.00000000000E+00  0.15021833566E+03  0.15021833566E+03  0.00000000000E+00 0.  1.
         21   -1    0    0  501  503 -0.00000000000E+00 -0.00000000000E+00 -0.55024522017E+03  0.55024522017E+03  0.00000000000E+00 0.  1.
          6    1    1    2  501    0 -0.37861208342E+01 -0.22594052158E+02 -0.47834603404E+03  0.50918440096E+03  0.17300000000E+03 0.  1.
         -6    1    1    2    0  502  0.37861208342E+01  0.22594052158E+02  0.78319149528E+02  0.19127915487E+03  0.17300000000E+03 0.  1.
<mgrwt>
<rscale>  2 0.17451025E+03</rscale>
<asrwt>0</asrwt>
<pdfrwt beam="1">  1       21 0.23110513E-01 0.17451025E+03</pdfrwt>
<pdfrwt beam="2">  1       21 0.84653112E-01 0.17451025E+03</pdfrwt>
<totfact> 0.21508140E+04</totfact>
</mgrwt>
</event>
<event>
 4    2  0.3903561E+000  0.1944522E+03  0.7546771E-02  0.1154506E+00
         21   -1    0    0  501  502  0.00000000000E+00  0.00000000000E+00  0.44539511754E+02  0.44539511754E+02  0.00000000000E+00 0.  1.
         21   -1    0    0  502  503 -0.00000000000E+00 -0.00000000000E+00 -0.15349002391E+04  0.15349002391E+04  0.00000000000E+00 0.  1.
          6    1    1    2  501    0 -0.42015631068E+02 -0.78213411621E+02 -0.12731154036E+04  0.12878798398E+04  0.17300000000E+03 0.  1.
         -6    1    1    2    0  503  0.42015631068E+02  0.78213411621E+02 -0.21724532373E+03  0.29155991099E+03  0.17300000000E+03 0.  1.
<mgrwt>
<rscale>  2 0.19445218E+03</rscale>
<asrwt>0</asrwt>
<pdfrwt beam="1">  1       21 0.68522330E-02 0.19445218E+03</pdfrwt>
<pdfrwt beam="2">  1       21 0.23613849E+00 0.19445218E+03</pdfrwt>
<totfact> 0.12587673E+04</totfact>
</mgrwt>
</event>
<event>
 4    2  0.3903561E+000  0.1778713E+03  0.7546771E-02  0.1169879E+00
         21   -1    0    0  501  502  0.00000000000E+00  0.00000000000E+00  0.97460164046E+02  0.97460164046E+02  0.00000000000E+00 0. -1.
         21   -1    0    0  502  503 -0.00000000000E+00 -0.00000000000E+00 -0.32804568579E+03  0.32804568579E+03  0.00000000000E+00 0. -1.
          6    1    1    2  501    0  0.16448313481E+02  0.37929420163E+02 -0.93573438430E+02  0.20098302493E+03  0.17300000000E+03 0. -1.
         -6    1    1    2    0  503 -0.16448313481E+02 -0.37929420163E+02 -0.13701208331E+03  0.22452282491E+03  0.17300000000E+03 0. -1.
<mgrwt>
<rscale>  2 0.17787127E+03</rscale>
<asrwt>0</asrwt>
<pdfrwt beam="1">  1       21 0.14993871E-01 0.17787127E+03</pdfrwt>
<pdfrwt beam="2">  1       21 0.50468567E-01 0.17787127E+03</pdfrwt>
<totfact> 0.14742021E+05</totfact>
</mgrwt>
</event>
<event>
 4    2  0.3903561E+000  0.2219214E+03  0.7546771E-02  0.1132459E+00
         21   -1    0    0  501  502  0.00000000000E+00  0.00000000000E+00  0.29112116928E+03  0.29112116928E+03  0.00000000000E+00 0.  1.
         21   -1    0    0  502  503 -0.00000000000E+00 -0.00000000000E+00 -0.30814912729E+03  0.30814912729E+03  0.00000000000E+00 0. -1.
          6    1    1    2  501    0 -0.48094862771E+02 -0.13041079076E+03  0.19271309896E+03  0.29391738411E+03  0.17300000000E+03 0.  1.
         -6    1    1    2    0  503  0.48094862771E+02  0.13041079076E+03 -0.20974105697E+03  0.30535291246E+03  0.17300000000E+03 0. -1.
<mgrwt>
<rscale>  2 0.22192136E+03</rscale>
<asrwt>0</asrwt>
<pdfrwt beam="1">  1       21 0.44787872E-01 0.22192136E+03</pdfrwt>
<pdfrwt beam="2">  1       21 0.47407558E-01 0.22192136E+03</pdfrwt>
<totfact> 0.20021492E+04</totfact>
</mgrwt>
</event>
<event>
 4    2  0.3903561E+000  0.1827235E+03  0.7546771E-02  0.1165193E+00
         21   -1    0    0  501  502  0.00000000000E+00  0.00000000000E+00  0.45666844429E+03  0.45666844429E+03  0.00000000000E+00 0. -1.
         21   -1    0    0  502  503 -0.00000000000E+00 -0.00000000000E+00 -0.21122975878E+03  0.21122975878E+03  0.00000000000E+00 0. -1.
          6    1    1    2  501    0  0.55355071364E+02  0.19866971822E+02  0.39275909775E+03  0.43318308988E+03  0.17300000000E+03 0. -1.
         -6    1    1    2    0  503 -0.55355071364E+02 -0.19866971822E+02 -0.14732041224E+03  0.23471511318E+03  0.17300000000E+03 0. -1.
<mgrwt>
<rscale>  2 0.18272351E+03</rscale>
<asrwt>0</asrwt>
<pdfrwt beam="1">  1       21 0.70256683E-01 0.18272351E+03</pdfrwt>
<pdfrwt beam="2">  1       21 0.32496886E-01 0.18272351E+03</pdfrwt>
<totfact> 0.16851803E+04</totfact>
</mgrwt>
</event>
