<event>
 4    3  0.9203887E-001  0.8437030E+02  0.7546771E-02  0.1317088E+00
          2   -1    0    0  501    0  0.00000000000E+00  0.00000000000E+00  0.39890360585E+03  0.39890360585E+03  0.00000000000E+00 0. -1.
         -2   -1    0    0    0  501 -0.00000000000E+00 -0.00000000000E+00 -0.18547226355E+02  0.18547226355E+02  0.00000000000E+00 0.  1.
         24    1    1    2    0    0 -0.16581730294E+02 -0.19395221440E+02  0.14955775627E+03  0.17171449213E+03  0.80419002446E+02 0.  1.
        -24    1    1    2    0    0  0.16581730294E+02  0.19395221440E+02  0.23079862323E+03  0.24573634007E+03  0.80419002446E+02 0. -1.
<mgrwt>
<rscale>  0 0.84370292E+02</rscale>
<asrwt>0</asrwt>
<pdfrwt beam="1">  1        2 0.61369779E-01 0.84370302E+02</pdfrwt>
<pdfrwt beam="2">  1       -2 0.28534197E-02 0.84370302E+02</pdfrwt>
<totfact> 0.32225781E+04</totfact>
</mgrwt>
</event>
<event>
 4    3  0.9203887E-001  0.8662134E+02  0.7546771E-02  0.1311246E+00
         -3   -1    0    0    0  501 -0.00000000000E+00  0.00000000000E+00  0.84238320758E+03  0.84238320758E+03  0.00000000000E+00 0.  1.
          3   -1    0    0  501    0  0.00000000000E+00 -0.00000000000E+00 -0.32572682170E+02  0.32572682170E+02  0.00000000000E+00 0. -1.
         24    1    1    2    0    0  0.94276942425E+01  0.30775944925E+02  0.77780089288E+03  0.78260940777E+03  0.80419002446E+02 0.  1.
        -24    1    1    2    0    0 -0.94276942425E+01 -0.30775944925E+02  0.32009632523E+02  0.92346481976E+02  0.80419002446E+02 0. -1.
<mgrwt>
<rscale>  0 0.86621338E+02</rscale>
<asrwt>0</asrwt>
<pdfrwt beam="1">  1        3 0.50111825E-02 0.86621338E+02</pdfrwt>
<pdfrwt beam="2">  1       -3 0.12959740E+00 0.86621338E+02</pdfrwt>
<totfact> 0.24466212E+02</totfact>
</mgrwt>
</event>
<event>
 4    3  0.9203887E-001  0.8621201E+02  0.7546771E-02  0.1312293E+00
         -2   -1    0    0    0  501 -0.00000000000E+00  0.00000000000E+00  0.37666308073E+01  0.37666308073E+01  0.00000000000E+00 0.  1.
          2   -1    0    0  501    0  0.00000000000E+00 -0.00000000000E+00 -0.19732508395E+04  0.19732508395E+04  0.00000000000E+00 0. -1.
         24    1    1    2    0    0  0.27573349013E+02  0.14317885813E+02 -0.98469323162E+03  0.98846004865E+03  0.80419002446E+02 0. -1.
        -24    1    1    2    0    0 -0.27573349013E+02 -0.14317885813E+02 -0.98479097704E+03  0.98855742162E+03  0.80419002446E+02 0.  0.
<mgrwt>
<rscale>  0 0.86212002E+02</rscale>
<asrwt>0</asrwt>
<pdfrwt beam="1">  1        2 0.30357725E+00 0.86212013E+02</pdfrwt>
<pdfrwt beam="2">  1       -2 0.57948129E-03 0.86212013E+02</pdfrwt>
<totfact> 0.33622684E+04</totfact>
</mgrwt>
</event>
<event>
 4    3  0.9203887E-001  0.9273380E+02  0.7546771E-02  0.1296363E+00
         -1   -1    0    0    0  501 -0.00000000000E+00  0.00000000000E+00  0.73281129888E+02  0.73281129888E+02  0.00000000000E+00 0.  1.
          1   -1    0    0  501    0  0.00000000000E+00 -0.00000000000E+00 -0.12069164163E+03  0.12069164163E+03  0.00000000000E+00 0. -1.
         24    1    1    2    0    0  0.43758042698E+02 -0.14750276054E+02 -0.39842939671E+02  0.10093073239E+03  0.80419002446E+02 0.  1.
        -24    1    1    2    0    0 -0.43758042698E+02  0.14750276054E+02 -0.75675720730E+01  0.93042039133E+02  0.80419002446E+02 0.  0.
<mgrwt>
<rscale>  0 0.92733786E+02</rscale>
<asrwt>0</asrwt>
<pdfrwt beam="1">  1        1 0.18567945E-01 0.92733797E+02</pdfrwt>
<pdfrwt beam="2">  1       -1 0.11274020E-01 0.92733797E+02</pdfrwt>
<totfact> 0.12823170E+04</totfact>
</mgrwt>
</event>
<event>
 4    3  0.9203887E-001  0.1196725E+03  0.7546771E-02  0.1243638E+00
          2   -1    0    0  501    0  0.00000000000E+00  0.00000000000E+00  0.84176119332E+03  0.84176119332E+03  0.00000000000E+00 0. -1.
         -2   -1    0    0    0  501 -0.00000000000E+00 -0.00000000000E+00 -0.29757438241E+02  0.29757438241E+02  0.00000000000E+00 0.  1.
         24    1    1    2    0    0 -0.87171554871E+02  0.15981934021E+02  0.69116699862E+03  0.70145088077E+03  0.80419002446E+02 0. -1.
        -24    1    1    2    0    0  0.87171554871E+02 -0.15981934021E+02  0.12083675646E+03  0.17006775079E+03  0.80419002446E+02 0.  1.
<mgrwt>
<rscale>  0 0.11967255E+03</rscale>
<asrwt>0</asrwt>
<pdfrwt beam="1">  1        2 0.12950170E+00 0.11967255E+03</pdfrwt>
<pdfrwt beam="2">  1       -2 0.45780681E-02 0.11967255E+03</pdfrwt>
<totfact> 0.71412080E+03</totfact>
</mgrwt>
</event>
<event>
 4    3  0.9203887E-001  0.9194627E+02  0.7546771E-02  0.1298206E+00
          1   -1    0    0  501    0  0.00000000000E+00  0.00000000000E+00  0.72653794650E+02  0.72653794650E+02  0.00000000000E+00 0. -1.
         -1   -1    0    0    0  501 -0.00000000000E+00 -0.00000000000E+00 -0.21136426479E+03  0.21136426479E+03  0.00000000000E+00 0.  1.
         24    1    1    2    0    0 -0.36455247248E+02 -0.25649881921E+02 -0.16456201881E+03  0.18850669877E+03  0.80419002446E+02 0.  1.
        -24    1    1    2    0    0  0.36455247248E+02  0.25649881921E+02  0.25851548663E+02  0.95511360671E+02  0.80419002446E+02 0. -1.
<mgrwt>
<rscale>  0 0.91946275E+02</rscale>
<asrwt>0</asrwt>
<pdfrwt beam="1">  1        1 0.11177507E-01 0.91946275E+02</pdfrwt>
<pdfrwt beam="2">  1       -1 0.32517579E-01 0.91946275E+02</pdfrwt>
<totfact> 0.45654721E+03</totfact>
</mgrwt>
</event>
<event>
 4    3  0.9203887E-001  0.8145834E+02  0.7546771E-02  0.1324963E+00
          4   -1    0    0  501    0  0.00000000000E+00  0.00000000000E+00  0.34323664476E+02  0.34323664476E+02  0.00000000000E+00 0. -1.
         -4   -1    0    0    0  501 -0.00000000000E+00 -0.00000000000E+00 -0.44860481986E+03  0.44860481986E+03  0.00000000000E+00 0.  1.
         24    1    1    2    0    0  0.17014581280E+01 -0.12858874210E+02 -0.24988936847E+02  0.85205096824E+02  0.80419002446E+02 0. -1.
        -24    1    1    2    0    0 -0.17014581280E+01  0.12858874210E+02 -0.38929221854E+03  0.39772338752E+03  0.80419002446E+02 0.  0.
<mgrwt>
<rscale>  0 0.81458342E+02</rscale>
<asrwt>0</asrwt>
<pdfrwt beam="1">  1        4 0.52805636E-02 0.81458342E+02</pdfrwt>
<pdfrwt beam="2">  1       -4 0.69016128E-01 0.81458342E+02</pdfrwt>
<totfact> 0.63510371E+02</totfact>
</mgrwt>
</event>
<event>
 4    3  0.9203887E-001  0.8367774E+02  0.7546771E-02  0.1318927E+00
         -1   -1    0    0    0  501 -0.00000000000E+00  0.00000000000E+00  0.39285302721E+02  0.39285302721E+02  0.00000000000E+00 0.  1.
          1   -1    0    0  501    0  0.00000000000E+00 -0.00000000000E+00 -0.33035878243E+03  0.33035878243E+03  0.00000000000E+00 0. -1.
         24    1    1    2    0    0  0.23045593277E+02  0.19101168228E+01 -0.20118331089E+02  0.86062251400E+02  0.80419002446E+02 0.  0.
        -24    1    1    2    0    0 -0.23045593277E+02 -0.19101168228E+01 -0.27095514862E+03  0.28358183375E+03  0.80419002446E+02 0.  0.
<mgrwt>
<rscale>  0 0.83677738E+02</rscale>
<asrwt>0</asrwt>
<pdfrwt beam="1">  1        1 0.50824426E-01 0.83677738E+02</pdfrwt>
<pdfrwt beam="2">  1       -1 0.60438929E-02 0.83677738E+02</pdfrwt>
<totfact> 0.93321418E+03</totfact>
</mgrwt>
</event>
<event>
 4    3  0.9203887E-001  0.1127233E+03  0.7546771E-02  0.1255608E+00
         -1   -1    0    0    0  501 -0.00000000000E+00  0.00000000000E+00  0.20878507144E+02  0.20878507144E+02  0.00000000000E+00 0.  1.
          1   -1    0    0  501    0  0.00000000000E+00 -0.00000000000E+00 -0.16052250215E+04  0.16052250215E+04  0.00000000000E+00 0. -1.
         24    1    1    2    0    0 -0.12279679032E+02 -0.78029091793E+02 -0.15152843986E+03  0.18885818416E+03  0.80419002446E+02 0.  1.
        -24    1    1    2    0    0  0.12279679032E+02  0.78029091793E+02 -0.14328180745E+04  0.14372453445E+04  0.80419002446E+02 0. -1.
<mgrwt>
<rscale>  0 0.11272331E+03</rscale>
<asrwt>0</asrwt>
<pdfrwt beam="1">  1        1 0.24695776E+00 0.11272331E+03</pdfrwt>
<pdfrwt beam="2">  1       -1 0.32120772E-02 0.11272331E+03</pdfrwt>
<totfact> 0.20746733E+03</totfact>
</mgrwt>
</event>
<event>
 4    3  0.9203887E-001  0.1275738E+03  0.7546771E-02  0.1231101E+00
         -2   -1    0    0    0  501 -0.00000000000E+00  0.00000000000E+00  0.10873497588E+02  0.10873497588E+02  0.00000000000E+00 0.  1.
          2   -1    0    0  501    0  0.00000000000E+00 -0.00000000000E+00 -0.18421687541E+04  0.18421687541E+04  0.00000000000E+00 0. -1.
         24    1    1    2    0    0 -0.76777420315E+02 -0.62554730861E+02 -0.13168407288E+04  0.13230058909E+04  0.80419002446E+02 0. -1.
        -24    1    1    2    0    0  0.76777420315E+02  0.62554730861E+02 -0.51445452780E+03  0.53003636078E+03  0.80419002446E+02 0.  1.
<mgrwt>
<rscale>  0 0.12757383E+03</rscale>
<asrwt>0</asrwt>
<pdfrwt beam="1">  1        2 0.28341040E+00 0.12757383E+03</pdfrwt>
<pdfrwt beam="2">  1       -2 0.16728468E-02 0.12757383E+03</pdfrwt>
<totfact> 0.88644126E+03</totfact>
</mgrwt>
</event>
<event>
 4    3  0.9203887E-001  0.8560121E+02  0.7546771E-02  0.1313868E+00
          1   -1    0    0  501    0  0.00000000000E+00  0.00000000000E+00  0.40977140944E+03  0.40977140944E+03  0.00000000000E+00 0. -1.
         -1   -1    0    0    0  501 -0.00000000000E+00 -0.00000000000E+00 -0.33006557613E+02  0.33006557613E+02  0.00000000000E+00 0.  1.
         24    1    1    2    0    0 -0.19907436517E+02  0.21541696292E+02  0.38518871807E+02  0.93868366064E+02  0.80419002446E+02 0.  1.
        -24    1    1    2    0    0  0.19907436517E+02 -0.21541696292E+02  0.33824598002E+03  0.34890960098E+03  0.80419002446E+02 0. -1.
<mgrwt>
<rscale>  0 0.85601207E+02</rscale>
<asrwt>0</asrwt>
<pdfrwt beam="1">  1        1 0.63041752E-01 0.85601207E+02</pdfrwt>
<pdfrwt beam="2">  1       -1 0.50779322E-02 0.85601207E+02</pdfrwt>
<totfact> 0.92575039E+03</totfact>
</mgrwt>
</event>
<event>
 4    3  0.9203887E-001  0.1273644E+03  0.7546771E-02  0.1231420E+00
          2   -1    0    0  501    0  0.00000000000E+00  0.00000000000E+00  0.10844805630E+03  0.10844805630E+03  0.00000000000E+00 0. -1.
         -2   -1    0    0    0  501 -0.00000000000E+00 -0.00000000000E+00 -0.15841017326E+03  0.15841017326E+03  0.00000000000E+00 0.  1.
         24    1    1    2    0    0 -0.98184937994E+02  0.10685829969E+02  0.65209381720E+01  0.12753120246E+03  0.80419002446E+02 0. -1.
        -24    1    1    2    0    0  0.98184937994E+02 -0.10685829969E+02 -0.56483055123E+02  0.13932702710E+03  0.80419002446E+02 0.  1.
<mgrwt>
<rscale>  0 0.12736438E+03</rscale>
<asrwt>0</asrwt>
<pdfrwt beam="1">  1        2 0.16684316E-01 0.12736438E+03</pdfrwt>
<pdfrwt beam="2">  1       -2 0.24370796E-01 0.12736438E+03</pdfrwt>
<totfact> 0.48492732E+03</totfact>
</mgrwt>
</event>
<event>
 4    3  0.9203887E-001  0.1500129E+03  0.7546771E-02  0.1200457E+00
         -2   -1    0    0    0  501 -0.00000000000E+00  0.00000000000E+00  0.11519626537E+03  0.11519626537E+03  0.00000000000E+00 0.  1.
          2   -1    0    0  501    0  0.00000000000E+00 -0.00000000000E+00 -0.19877929794E+03  0.19877929794E+03  0.00000000000E+00 0. -1.
         24    1    1    2    0    0  0.74691097228E+02 -0.10226382500E+03 -0.21178979764E+02  0.15150054471E+03  0.80419002446E+02 0. -1.
        -24    1    1    2    0    0 -0.74691097228E+02  0.10226382500E+03 -0.62404052812E+02  0.16247501860E+03  0.80419002446E+02 0.  1.
<mgrwt>
<rscale>  0 0.15001290E+03</rscale>
<asrwt>0</asrwt>
<pdfrwt beam="1">  1        2 0.30581430E-01 0.15001292E+03</pdfrwt>
<pdfrwt beam="2">  1       -2 0.17722503E-01 0.15001292E+03</pdfrwt>
<totfact> 0.42814448E+03</totfact>
</mgrwt>
</event>
<event>
 4    3  0.9203887E-001  0.1128948E+03  0.7546771E-02  0.1255301E+00
          1   -1    0    0  501    0  0.00000000000E+00  0.00000000000E+00  0.63587541569E+02  0.63587541569E+02  0.00000000000E+00 0. -1.
         -1   -1    0    0    0  501 -0.00000000000E+00 -0.00000000000E+00 -0.31574900274E+03  0.31574900274E+03  0.00000000000E+00 0.  1.
         24    1    1    2    0    0 -0.77402067000E+02 -0.16939548832E+02 -0.24070128014E+03  0.26586152505E+03  0.80419002446E+02 0.  1.
        -24    1    1    2    0    0  0.77402067000E+02  0.16939548832E+02 -0.11460181031E+02  0.11347501925E+03  0.80419002446E+02 0. -1.
<mgrwt>
<rscale>  0 0.11289484E+03</rscale>
<asrwt>0</asrwt>
<pdfrwt beam="1">  1        1 0.97826991E-02 0.11289484E+03</pdfrwt>
<pdfrwt beam="2">  1       -1 0.48576768E-01 0.11289484E+03</pdfrwt>
<totfact> 0.27405903E+03</totfact>
</mgrwt>
</event>
<event>
 4    3  0.9203887E-001  0.9224305E+02  0.7546771E-02  0.1297509E+00
          1   -1    0    0  501    0  0.00000000000E+00  0.00000000000E+00  0.30595315725E+03  0.30595315725E+03  0.00000000000E+00 0. -1.
         -1   -1    0    0    0  501 -0.00000000000E+00 -0.00000000000E+00 -0.33455777609E+02  0.33455777609E+02  0.00000000000E+00 0.  1.
         24    1    1    2    0    0 -0.39487695366E+02 -0.21961020959E+02  0.66539259041E+02  0.11373765197E+03  0.80419002446E+02 0.  0.
        -24    1    1    2    0    0  0.39487695366E+02  0.21961020959E+02  0.20595812060E+03  0.22567128289E+03  0.80419002446E+02 0.  0.
<mgrwt>
<rscale>  0 0.92243051E+02</rscale>
<asrwt>0</asrwt>
<pdfrwt beam="1">  1        1 0.47069715E-01 0.92243051E+02</pdfrwt>
<pdfrwt beam="2">  1       -1 0.51470429E-02 0.92243051E+02</pdfrwt>
<totfact> 0.13091063E+04</totfact>
</mgrwt>
</event>
<event>
 4    3  0.9203887E-001  0.1460375E+03  0.7546771E-02  0.1205428E+00
          2   -1    0    0  501    0  0.00000000000E+00  0.00000000000E+00  0.67428831391E+03  0.67428831391E+03  0.00000000000E+00 0. -1.
         -2   -1    0    0    0  501 -0.00000000000E+00 -0.00000000000E+00 -0.83285783434E+02  0.83285783434E+02  0.00000000000E+00 0.  1.
         24    1    1    2    0    0 -0.98882057414E+02  0.71288676085E+02  0.59381556037E+03  0.61150950304E+03  0.80419002446E+02 0. -1.
        -24    1    1    2    0    0  0.98882057414E+02 -0.71288676085E+02 -0.28130298979E+01  0.14606459430E+03  0.80419002446E+02 0.  1.
<mgrwt>
<rscale>  0 0.14603750E+03</rscale>
<asrwt>0</asrwt>
<pdfrwt beam="1">  1        2 0.10373666E+00 0.14603750E+03</pdfrwt>
<pdfrwt beam="2">  1       -2 0.12813198E-01 0.14603750E+03</pdfrwt>
<totfact> 0.19267674E+03</totfact>
</mgrwt>
</event>
<event>
 4    3  0.9203887E-001  0.8734806E+02  0.7546771E-02  0.1309404E+00
          1   -1    0    0  501    0  0.00000000000E+00  0.00000000000E+00  0.11233035965E+03  0.11233035965E+03  0.00000000000E+00 0. -1.
         -1   -1    0    0    0  501 -0.00000000000E+00 -0.00000000000E+00 -0.13821095161E+03  0.13821095161E+03  0.00000000000E+00 0.  1.
         24    1    1    2    0    0 -0.53880751582E+01 -0.33666543279E+02 -0.10227540750E+03  0.13449885659E+03  0.80419002446E+02 0.  0.
        -24    1    1    2    0    0  0.53880751582E+01  0.33666543279E+02  0.76394815538E+02  0.11604245467E+03  0.80419002446E+02 0.  0.
<mgrwt>
<rscale>  0 0.87348059E+02</rscale>
<asrwt>0</asrwt>
<pdfrwt beam="1">  1        1 0.17281594E-01 0.87348059E+02</pdfrwt>
<pdfrwt beam="2">  1       -1 0.21263223E-01 0.87348059E+02</pdfrwt>
<totfact> 0.52065799E+03</totfact>
</mgrwt>
</event>
<event>
 4    3  0.9203887E-001  0.8199607E+02  0.7546771E-02  0.1323480E+00
          1   -1    0    0  501    0  0.00000000000E+00  0.00000000000E+00  0.18998879380E+02  0.18998879380E+02  0.00000000000E+00 0. -1.
         -1   -1    0    0    0  501 -0.00000000000E+00 -0.00000000000E+00 -0.57670735607E+03  0.57670735607E+03  0.00000000000E+00 0.  1.
         24    1    1    2    0    0  0.11792431621E+02  0.10820272574E+02 -0.46399711347E+03  0.47118645673E+03  0.80419002446E+02 0.  1.
        -24    1    1    2    0    0 -0.11792431621E+02 -0.10820272574E+02 -0.93711363225E+02  0.12451977873E+03  0.80419002446E+02 0. -1.
<mgrwt>
<rscale>  0 0.81996071E+02</rscale>
<asrwt>0</asrwt>
<pdfrwt beam="1">  1        1 0.29229048E-02 0.81996071E+02</pdfrwt>
<pdfrwt beam="2">  1       -1 0.88724199E-01 0.81996071E+02</pdfrwt>
<totfact> 0.42658059E+03</totfact>
</mgrwt>
</event>
<event>
 4    3  0.9203887E-001  0.1138294E+03  0.7546771E-02  0.1253638E+00
          2   -1    0    0  501    0  0.00000000000E+00  0.00000000000E+00  0.18891337695E+03  0.18891337695E+03  0.00000000000E+00 0. -1.
         -2   -1    0    0    0  501 -0.00000000000E+00 -0.00000000000E+00 -0.73107784746E+02  0.73107784746E+02  0.00000000000E+00 0.  1.
         24    1    1    2    0    0 -0.26471081202E+02  0.76086795224E+02  0.90478793907E+02  0.14540820695E+03  0.80419002446E+02 0. -1.
        -24    1    1    2    0    0  0.26471081202E+02 -0.76086795224E+02  0.25326798294E+02  0.11661295474E+03  0.80419002446E+02 0.  1.
<mgrwt>
<rscale>  0 0.11382941E+03</rscale>
<asrwt>0</asrwt>
<pdfrwt beam="1">  1        2 0.29063596E-01 0.11382941E+03</pdfrwt>
<pdfrwt beam="2">  1       -2 0.11247352E-01 0.11382941E+03</pdfrwt>
<totfact> 0.92861713E+03</totfact>
</mgrwt>
</event>
<event>
 4    3  0.9203887E-001  0.8612787E+02  0.7546771E-02  0.1312509E+00
          2   -1    0    0  501    0  0.00000000000E+00  0.00000000000E+00  0.68645362114E+03  0.68645362114E+03  0.00000000000E+00 0. -1.
         -2   -1    0    0    0  501 -0.00000000000E+00 -0.00000000000E+00 -0.79562538792E+02  0.79562538792E+02  0.00000000000E+00 0.  1.
         24    1    1    2    0    0  0.29127967995E+02  0.10117053172E+02  0.65949451798E+03  0.66509475151E+03  0.80419002446E+02 0. -1.
        -24    1    1    2    0    0 -0.29127967995E+02 -0.10117053172E+02 -0.52603435629E+02  0.10092140843E+03  0.80419002446E+02 0.  1.
<mgrwt>
<rscale>  0 0.86127866E+02</rscale>
<asrwt>0</asrwt>
<pdfrwt beam="1">  1        2 0.10560825E+00 0.86127866E+02</pdfrwt>
<pdfrwt beam="2">  1       -2 0.12240391E-01 0.86127866E+02</pdfrwt>
<totfact> 0.20014837E+03</totfact>
</mgrwt>
</event>
<event>
 4    3  0.9203887E-001  0.1085885E+03  0.7546771E-02  0.1263206E+00
          4   -1    0    0  501    0  0.00000000000E+00  0.00000000000E+00  0.27265055894E+02  0.27265055894E+02  0.00000000000E+00 0. -1.
         -4   -1    0    0    0  501 -0.00000000000E+00 -0.00000000000E+00 -0.77893635081E+03  0.77893635081E+03  0.00000000000E+00 0.  1.
         24    1    1    2    0    0 -0.68650410495E+02  0.24725779858E+02 -0.10699813001E+03  0.15244690496E+03  0.80419002446E+02 0. -1.
        -24    1    1    2    0    0  0.68650410495E+02 -0.24725779858E+02 -0.64467316490E+03  0.65375450175E+03  0.80419002446E+02 0.  1.
<mgrwt>
<rscale>  0 0.10858848E+03</rscale>
<asrwt>0</asrwt>
<pdfrwt beam="1">  1        4 0.41946243E-02 0.10858848E+03</pdfrwt>
<pdfrwt beam="2">  1       -4 0.11983635E+00 0.10858848E+03</pdfrwt>
<totfact> 0.28226889E+02</totfact>
</mgrwt>
</event>
<event>
 4    3  0.9203887E-001  0.8156708E+02  0.7546771E-02  0.1324662E+00
          2   -1    0    0  501    0  0.00000000000E+00  0.00000000000E+00  0.16339019064E+02  0.16339019064E+02  0.00000000000E+00 0. -1.
         -2   -1    0    0    0  501 -0.00000000000E+00 -0.00000000000E+00 -0.47136174305E+03  0.47136174305E+03  0.00000000000E+00 0.  1.
         24    1    1    2    0    0 -0.11957354567E+02 -0.65567812781E+01 -0.31748129107E+03  0.32779193987E+03  0.80419002446E+02 0.  1.
        -24    1    1    2    0    0  0.11957354567E+02  0.65567812781E+01 -0.13754143292E+03  0.15990882225E+03  0.80419002446E+02 0.  0.
<mgrwt>
<rscale>  0 0.81567073E+02</rscale>
<asrwt>0</asrwt>
<pdfrwt beam="1">  1        2 0.25136954E-02 0.81567083E+02</pdfrwt>
<pdfrwt beam="2">  1       -2 0.72517186E-01 0.81567083E+02</pdfrwt>
<totfact> 0.63112840E+03</totfact>
</mgrwt>
</event>
<event>
 4    3  0.9203887E-001  0.8513736E+02  0.7546771E-02  0.1315074E+00
         -1   -1    0    0    0  501 -0.00000000000E+00  0.00000000000E+00  0.31845441702E+03  0.31845441702E+03  0.00000000000E+00 0.  1.
          1   -1    0    0  501    0  0.00000000000E+00 -0.00000000000E+00 -0.22767517201E+02  0.22767517201E+02  0.00000000000E+00 0. -1.
         24    1    1    2    0    0  0.50704939738E+01  0.27485270532E+02  0.14497431580E+03  0.16812471027E+03  0.80419002446E+02 0. -1.
        -24    1    1    2    0    0 -0.50704939738E+01 -0.27485270532E+02  0.15071258401E+03  0.17309722395E+03  0.80419002446E+02 0.  1.
<mgrwt>
<rscale>  0 0.85137347E+02</rscale>
<asrwt>0</asrwt>
<pdfrwt beam="1">  1        1 0.35026952E-02 0.85137357E+02</pdfrwt>
<pdfrwt beam="2">  1       -1 0.48992984E-01 0.85137357E+02</pdfrwt>
<totfact> 0.10496212E+04</totfact>
</mgrwt>
</event>
<event>
 4    3  0.9203887E-001  0.1106367E+03  0.7546771E-02  0.1259395E+00
          1   -1    0    0  501    0  0.00000000000E+00  0.00000000000E+00  0.11935853266E+03  0.11935853266E+03  0.00000000000E+00 0. -1.
         -1   -1    0    0    0  501 -0.00000000000E+00 -0.00000000000E+00 -0.35318159845E+03  0.35318159845E+03  0.00000000000E+00 0.  1.
         24    1    1    2    0    0 -0.25784276214E+02  0.71473306636E+02 -0.31594480648E+03  0.33475602931E+03  0.80419002446E+02 0.  1.
        -24    1    1    2    0    0  0.25784276214E+02 -0.71473306636E+02  0.82121740689E+02  0.13778410180E+03  0.80419002446E+02 0. -1.
<mgrwt>
<rscale>  0 0.11063670E+03</rscale>
<asrwt>0</asrwt>
<pdfrwt beam="1">  1        1 0.18362851E-01 0.11063670E+03</pdfrwt>
<pdfrwt beam="2">  1       -1 0.54335631E-01 0.11063670E+03</pdfrwt>
<totfact> 0.98695315E+02</totfact>
</mgrwt>
</event>
<event>
 4    3  0.9203887E-001  0.9638224E+02  0.7546771E-02  0.1288093E+00
          2   -1    0    0  501    0  0.00000000000E+00  0.00000000000E+00  0.59865779949E+03  0.59865779949E+03  0.00000000000E+00 0. -1.
         -2   -1    0    0    0  501 -0.00000000000E+00 -0.00000000000E+00 -0.15837596303E+02  0.15837596303E+02  0.00000000000E+00 0.  1.
         24    1    1    2    0    0 -0.25643536893E+02 -0.46526641890E+02  0.33510589085E+03  0.34869111464E+03  0.80419002446E+02 0. -1.
        -24    1    1    2    0    0  0.25643536893E+02  0.46526641890E+02  0.24771431234E+03  0.26580428116E+03  0.80419002446E+02 0.  1.
<mgrwt>
<rscale>  0 0.96382236E+02</rscale>
<asrwt>0</asrwt>
<pdfrwt beam="1">  1        2 0.92101183E-01 0.96382236E+02</pdfrwt>
<pdfrwt beam="2">  1       -2 0.24365537E-02 0.96382236E+02</pdfrwt>
<totfact> 0.26519599E+04</totfact>
</mgrwt>
</event>
<event>
 4    3  0.9203887E-001  0.8109834E+02  0.7546771E-02  0.1325963E+00
         -1   -1    0    0    0  501 -0.00000000000E+00  0.00000000000E+00  0.92402850296E+02  0.92402850296E+02  0.00000000000E+00 0.  1.
          1   -1    0    0  501    0  0.00000000000E+00 -0.00000000000E+00 -0.39732531562E+03  0.39732531562E+03  0.00000000000E+00 0. -1.
         24    1    1    2    0    0  0.80172264630E+01 -0.67416291512E+01  0.69388880850E+02  0.10673217989E+03  0.80419002446E+02 0.  1.
        -24    1    1    2    0    0 -0.80172264630E+01  0.67416291512E+01 -0.37431134617E+03  0.38299598602E+03  0.80419002446E+02 0. -1.
<mgrwt>
<rscale>  0 0.81098344E+02</rscale>
<asrwt>0</asrwt>
<pdfrwt beam="1">  1        1 0.61126971E-01 0.81098344E+02</pdfrwt>
<pdfrwt beam="2">  1       -1 0.14215823E-01 0.81098344E+02</pdfrwt>
<totfact> 0.20559411E+03</totfact>
</mgrwt>
</event>
<event>
 4    3  0.9203887E-001  0.1629693E+03  0.7546771E-02  0.1185385E+00
          4   -1    0    0  501    0  0.00000000000E+00  0.00000000000E+00  0.11067870430E+04  0.11067870430E+04  0.00000000000E+00 0. -1.
         -4   -1    0    0    0  501 -0.00000000000E+00 -0.00000000000E+00 -0.31367141818E+02  0.31367141818E+02  0.00000000000E+00 0.  1.
         24    1    1    2    0    0  0.12743821540E+03 -0.62058717309E+02  0.81356866908E+03  0.82973066618E+03  0.80419002446E+02 0.  0.
        -24    1    1    2    0    0 -0.12743821540E+03  0.62058717309E+02  0.26185123206E+03  0.30842351860E+03  0.80419002446E+02 0.  1.
<mgrwt>
<rscale>  0 0.16296932E+03</rscale>
<asrwt>0</asrwt>
<pdfrwt beam="1">  1        4 0.17027490E+00 0.16296932E+03</pdfrwt>
<pdfrwt beam="2">  1       -4 0.48257150E-02 0.16296932E+03</pdfrwt>
<totfact> 0.99681489E+01</totfact>
</mgrwt>
</event>
<event>
 4    3  0.9203887E-001  0.8202056E+02  0.7546771E-02  0.1323413E+00
         -1   -1    0    0    0  501 -0.00000000000E+00  0.00000000000E+00  0.37897771660E+02  0.37897771660E+02  0.00000000000E+00 0.  1.
          1   -1    0    0  501    0  0.00000000000E+00 -0.00000000000E+00 -0.26906367281E+03  0.26906367281E+03  0.00000000000E+00 0. -1.
         24    1    1    2    0    0  0.13405333552E+02 -0.89695469515E+01 -0.26055640794E+02  0.86059677618E+02  0.80419002446E+02 0.  1.
        -24    1    1    2    0    0 -0.13405333552E+02  0.89695469515E+01 -0.20511026035E+03  0.22090176685E+03  0.80419002446E+02 0. -1.
<mgrwt>
<rscale>  0 0.82020557E+02</rscale>
<asrwt>0</asrwt>
<pdfrwt beam="1">  1        1 0.41394412E-01 0.82020557E+02</pdfrwt>
<pdfrwt beam="2">  1       -1 0.58304264E-02 0.82020557E+02</pdfrwt>
<totfact> 0.12607245E+04</totfact>
</mgrwt>
</event>
<event>
 4    3  0.9203887E-001  0.8161716E+02  0.7546771E-02  0.1324524E+00
         -1   -1    0    0    0  501 -0.00000000000E+00  0.00000000000E+00  0.17984265012E+02  0.17984265012E+02  0.00000000000E+00 0.  1.
          1   -1    0    0  501    0  0.00000000000E+00 -0.00000000000E+00 -0.40623888657E+03  0.40623888657E+03  0.00000000000E+00 0. -1.
         24    1    1    2    0    0  0.23326872930E+01  0.13736954625E+02 -0.13112530156E+03  0.15445130629E+03  0.80419002446E+02 0.  0.
        -24    1    1    2    0    0 -0.23326872930E+01 -0.13736954625E+02 -0.25712932000E+03  0.26977184529E+03  0.80419002446E+02 0.  0.
<mgrwt>
<rscale>  0 0.81617163E+02</rscale>
<asrwt>0</asrwt>
<pdfrwt beam="1">  1        1 0.62498290E-01 0.81617163E+02</pdfrwt>
<pdfrwt beam="2">  1       -1 0.27668100E-02 0.81617163E+02</pdfrwt>
<totfact> 0.22416389E+04</totfact>
</mgrwt>
</event>
<event>
 4    3  0.9203887E-001  0.8441236E+02  0.7546771E-02  0.1316976E+00
          1   -1    0    0  501    0  0.00000000000E+00  0.00000000000E+00  0.50231238021E+03  0.50231238021E+03  0.00000000000E+00 0. -1.
         -1   -1    0    0    0  501 -0.00000000000E+00 -0.00000000000E+00 -0.14857151288E+02  0.14857151288E+02  0.00000000000E+00 0.  1.
         24    1    1    2    0    0 -0.18024923509E+02 -0.18257417721E+02  0.18873874981E+03  0.20675532110E+03  0.80419002446E+02 0.  1.
        -24    1    1    2    0    0  0.18024923509E+02  0.18257417721E+02  0.29871647912E+03  0.31041421040E+03  0.80419002446E+02 0. -1.
<mgrwt>
<rscale>  0 0.84412364E+02</rscale>
<asrwt>0</asrwt>
<pdfrwt beam="1">  1        1 0.77278815E-01 0.84412364E+02</pdfrwt>
<pdfrwt beam="2">  1       -1 0.22857160E-02 0.84412364E+02</pdfrwt>
<totfact> 0.22633845E+04</totfact>
</mgrwt>
</event>
<event>
 4    3  0.9203887E-001  0.1051234E+03  0.7546771E-02  0.1269877E+00
         -2   -1    0    0    0  501 -0.00000000000E+00  0.00000000000E+00  0.58406614025E+03  0.58406614025E+03  0.00000000000E+00 0.  1.
          2   -1    0    0  501    0  0.00000000000E+00 -0.00000000000E+00 -0.32330432893E+02  0.32330432893E+02  0.00000000000E+00 0. -1.
         24    1    1    2    0    0 -0.67690602931E+02  0.13001310185E+01  0.77379525928E+02  0.13053166303E+03  0.80419002446E+02 0. -1.
        -24    1    1    2    0    0  0.67690602931E+02 -0.13001310185E+01  0.47435618143E+03  0.48586491011E+03  0.80419002446E+02 0.  1.
<mgrwt>
<rscale>  0 0.10512338E+03</rscale>
<asrwt>0</asrwt>
<pdfrwt beam="1">  1        2 0.49739132E-02 0.10512338E+03</pdfrwt>
<pdfrwt beam="2">  1       -2 0.89856322E-01 0.10512338E+03</pdfrwt>
<totfact> 0.16474993E+03</totfact>
</mgrwt>
</event>
<event>
 4    3  0.9203887E-001  0.9667105E+02  0.7546771E-02  0.1287456E+00
          1   -1    0    0  501    0  0.00000000000E+00  0.00000000000E+00  0.30943364511E+04  0.30943364511E+04  0.00000000000E+00 0. -1.
         -1   -1    0    0    0  501 -0.00000000000E+00 -0.00000000000E+00 -0.16241274089E+02  0.16241274089E+02  0.00000000000E+00 0.  1.
         24    1    1    2    0    0 -0.53316792206E+02  0.59494574226E+01  0.13579592625E+03  0.16669080933E+03  0.80419002446E+02 0.  1.
        -24    1    1    2    0    0  0.53316792206E+02 -0.59494574226E+01  0.29422992508E+04  0.29438869159E+04  0.80419002446E+02 0. -1.
<mgrwt>
<rscale>  0 0.96671052E+02</rscale>
<asrwt>0</asrwt>
<pdfrwt beam="1">  1        1 0.47605129E+00 0.96671052E+02</pdfrwt>
<pdfrwt beam="2">  1       -1 0.24986600E-02 0.96671052E+02</pdfrwt>
<totfact> 0.32536369E+02</totfact>
</mgrwt>
</event>
<event>
 4    3  0.9203887E-001  0.8395232E+02  0.7546771E-02  0.1318195E+00
         -2   -1    0    0    0  501 -0.00000000000E+00  0.00000000000E+00  0.66002701118E+01  0.66002701118E+01  0.00000000000E+00 0.  1.
          2   -1    0    0  501    0  0.00000000000E+00 -0.00000000000E+00 -0.10679975038E+04  0.10679975038E+04  0.00000000000E+00 0. -1.
         24    1    1    2    0    0  0.21732005250E+02 -0.10416007715E+02 -0.52403944604E+03  0.53072151853E+03  0.80419002446E+02 0.  0.
        -24    1    1    2    0    0 -0.21732005250E+02  0.10416007715E+02 -0.53735778762E+03  0.54387625536E+03  0.80419002446E+02 0.  1.
<mgrwt>
<rscale>  0 0.83952314E+02</rscale>
<asrwt>0</asrwt>
<pdfrwt beam="1">  1        2 0.16430726E+00 0.83952324E+02</pdfrwt>
<pdfrwt beam="2">  1       -2 0.10154264E-02 0.83952324E+02</pdfrwt>
<totfact> 0.44690060E+04</totfact>
</mgrwt>
</event>
<event>
 4    3  0.9203887E-001  0.1044550E+03  0.7546771E-02  0.1271197E+00
         -1   -1    0    0    0  501 -0.00000000000E+00  0.00000000000E+00  0.11918964024E+03  0.11918964024E+03  0.00000000000E+00 0.  1.
          1   -1    0    0  501    0  0.00000000000E+00 -0.00000000000E+00 -0.55764895867E+03  0.55764895867E+03  0.00000000000E+00 0. -1.
         24    1    1    2    0    0 -0.60973982592E+01  0.66381134957E+02  0.90168340700E+02  0.13798977847E+03  0.80419002446E+02 0.  1.
        -24    1    1    2    0    0  0.60973982592E+01 -0.66381134957E+02 -0.52862765912E+03  0.53884882044E+03  0.80419002446E+02 0. -1.
<mgrwt>
<rscale>  0 0.10445501E+03</rscale>
<asrwt>0</asrwt>
<pdfrwt beam="1">  1        1 0.85792146E-01 0.10445501E+03</pdfrwt>
<pdfrwt beam="2">  1       -1 0.18336868E-01 0.10445501E+03</pdfrwt>
<totfact> 0.90341274E+02</totfact>
</mgrwt>
</event>
<event>
 4    3  0.9203887E-001  0.1058283E+03  0.7546771E-02  0.1268496E+00
          1   -1    0    0  501    0  0.00000000000E+00  0.00000000000E+00  0.27249312527E+03  0.27249312527E+03  0.00000000000E+00 0. -1.
         -1   -1    0    0    0  501 -0.00000000000E+00 -0.00000000000E+00 -0.79752026855E+02  0.79752026855E+02  0.00000000000E+00 0.  1.
         24    1    1    2    0    0  0.15587788371E+02 -0.67003215663E+02 -0.26239772419E+02  0.10903280087E+03  0.80419002446E+02 0. -1.
        -24    1    1    2    0    0 -0.15587788371E+02  0.67003215663E+02  0.21898087083E+03  0.24321235125E+03  0.80419002446E+02 0.  0.
<mgrwt>
<rscale>  0 0.10582829E+03</rscale>
<asrwt>0</asrwt>
<pdfrwt beam="1">  1        1 0.41922019E-01 0.10582829E+03</pdfrwt>
<pdfrwt beam="2">  1       -1 0.12269543E-01 0.10582829E+03</pdfrwt>
<totfact> 0.41526808E+03</totfact>
</mgrwt>
</event>
<event>
 4    3  0.9203887E-001  0.9666598E+02  0.7546771E-02  0.1287467E+00
         -1   -1    0    0    0  501 -0.00000000000E+00  0.00000000000E+00  0.83117088098E+02  0.83117088098E+02  0.00000000000E+00 0.  1.
          1   -1    0    0  501    0  0.00000000000E+00 -0.00000000000E+00 -0.34831856418E+03  0.34831856418E+03  0.00000000000E+00 0. -1.
         24    1    1    2    0    0 -0.20178798130E+02  0.49698215231E+02  0.44923300011E+02  0.10659463087E+03  0.80419002446E+02 0.  1.
        -24    1    1    2    0    0  0.20178798130E+02 -0.49698215231E+02 -0.31012477609E+03  0.32484102141E+03  0.80419002446E+02 0. -1.
<mgrwt>
<rscale>  0 0.96665984E+02</rscale>
<asrwt>0</asrwt>
<pdfrwt beam="1">  1        1 0.53587472E-01 0.96665984E+02</pdfrwt>
<pdfrwt beam="2">  1       -1 0.12787244E-01 0.96665984E+02</pdfrwt>
<totfact> 0.28691838E+03</totfact>
</mgrwt>
</event>
<event>
 4    3  0.9203887E-001  0.8892183E+02  0.7546771E-02  0.1305484E+00
         -2   -1    0    0    0  501 -0.00000000000E+00  0.00000000000E+00  0.28440622651E+02  0.28440622651E+02  0.00000000000E+00 0.  1.
          2   -1    0    0  501    0  0.00000000000E+00 -0.00000000000E+00 -0.39905916274E+03  0.39905916274E+03  0.00000000000E+00 0. -1.
         24    1    1    2    0    0  0.41049121660E+01  0.37723014750E+02 -0.30302874405E+03  0.31580613012E+03  0.80419002446E+02 0. -1.
        -24    1    1    2    0    0 -0.41049121660E+01 -0.37723014750E+02 -0.67589796045E+02  0.11169365528E+03  0.80419002446E+02 0.  1.
<mgrwt>
<rscale>  0 0.88921831E+02</rscale>
<asrwt>0</asrwt>
<pdfrwt beam="1">  1        2 0.61393714E-01 0.88921831E+02</pdfrwt>
<pdfrwt beam="2">  1       -2 0.43754806E-02 0.88921831E+02</pdfrwt>
<totfact> 0.17347645E+04</totfact>
</mgrwt>
</event>
<event>
 4    3  0.9203887E-001  0.8276435E+02  0.7546771E-02  0.1321385E+00
          2   -1    0    0  501    0  0.00000000000E+00  0.00000000000E+00  0.41621716377E+03  0.41621716377E+03  0.00000000000E+00 0. -1.
         -2   -1    0    0    0  501 -0.00000000000E+00 -0.00000000000E+00 -0.43595847092E+02  0.43595847092E+02  0.00000000000E+00 0.  1.
         24    1    1    2    0    0  0.18857849010E+02 -0.52060473885E+01  0.36770325686E+03  0.37690266974E+03  0.80419002446E+02 0. -1.
        -24    1    1    2    0    0 -0.18857849010E+02  0.52060473885E+01  0.49180598231E+01  0.82910341125E+02  0.80419002446E+02 0.  1.
<mgrwt>
<rscale>  0 0.82764348E+02</rscale>
<asrwt>0</asrwt>
<pdfrwt beam="1">  1        2 0.64033407E-01 0.82764348E+02</pdfrwt>
<pdfrwt beam="2">  1       -2 0.67070537E-02 0.82764348E+02</pdfrwt>
<totfact> 0.87253103E+03</totfact>
</mgrwt>
</event>
<event>
 4    3  0.9203887E-001  0.8478398E+02  0.7546771E-02  0.1315998E+00
         -2   -1    0    0    0  501 -0.00000000000E+00  0.00000000000E+00  0.34569879317E+03  0.34569879317E+03  0.00000000000E+00 0.  1.
          2   -1    0    0  501    0  0.00000000000E+00 -0.00000000000E+00 -0.22625529264E+02  0.22625529264E+02  0.00000000000E+00 0. -1.
         24    1    1    2    0    0  0.70146270872E+01  0.25921068345E+02  0.10913373764E+03  0.13819730613E+03  0.80419002446E+02 0. -1.
        -24    1    1    2    0    0 -0.70146270872E+01 -0.25921068345E+02  0.21393952627E+03  0.23012701630E+03  0.80419002446E+02 0.  1.
<mgrwt>
<rscale>  0 0.84783977E+02</rscale>
<asrwt>0</asrwt>
<pdfrwt beam="1">  1        2 0.34808509E-02 0.84783977E+02</pdfrwt>
<pdfrwt beam="2">  1       -2 0.53184426E-01 0.84783977E+02</pdfrwt>
<totfact> 0.77769779E+03</totfact>
</mgrwt>
</event>
<event>
 4    3  0.9203887E-001  0.8634809E+02  0.7546771E-02  0.1311944E+00
         -1   -1    0    0    0  501 -0.00000000000E+00  0.00000000000E+00  0.12782290658E+02  0.12782290658E+02  0.00000000000E+00 0.  1.
          1   -1    0    0  501    0  0.00000000000E+00 -0.00000000000E+00 -0.22907399622E+04  0.22907399622E+04  0.00000000000E+00 0. -1.
         24    1    1    2    0    0  0.31072469422E+02 -0.48247304105E+01 -0.14461247591E+03  0.16843028386E+03  0.80419002446E+02 0.  1.
        -24    1    1    2    0    0 -0.31072469422E+02  0.48247304105E+01 -0.21333451956E+04  0.21350919690E+04  0.80419002446E+02 0. -1.
<mgrwt>
<rscale>  0 0.86348088E+02</rscale>
<asrwt>0</asrwt>
<pdfrwt beam="1">  1        1 0.35242185E+00 0.86348088E+02</pdfrwt>
<pdfrwt beam="2">  1       -1 0.19665045E-02 0.86348088E+02</pdfrwt>
<totfact> 0.15519313E+03</totfact>
</mgrwt>
</event>
<event>
 4    3  0.9203887E-001  0.1415857E+03  0.7546771E-02  0.1211211E+00
         -2   -1    0    0    0  501 -0.00000000000E+00  0.00000000000E+00  0.19020934016E+02  0.19020934016E+02  0.00000000000E+00 0.  1.
          2   -1    0    0  501    0  0.00000000000E+00 -0.00000000000E+00 -0.14338076731E+04  0.14338076731E+04  0.00000000000E+00 0. -1.
         24    1    1    2    0    0 -0.98124629321E+02 -0.62855872401E+02 -0.10813035040E+04  0.10905337167E+04  0.80419002446E+02 0. -1.
        -24    1    1    2    0    0  0.98124629321E+02  0.62855872401E+02 -0.33348323509E+03  0.36229489040E+03  0.80419002446E+02 0.  1.
<mgrwt>
<rscale>  0 0.14158573E+03</rscale>
<asrwt>0</asrwt>
<pdfrwt beam="1">  1        2 0.22058573E+00 0.14158573E+03</pdfrwt>
<pdfrwt beam="2">  1       -2 0.29262984E-02 0.14158573E+03</pdfrwt>
<totfact> 0.63963715E+03</totfact>
</mgrwt>
</event>
<event>
 4    3  0.9203887E-001  0.1350990E+03  0.7546771E-02  0.1220080E+00
          1   -1    0    0  501    0  0.00000000000E+00  0.00000000000E+00  0.18823947069E+04  0.18823947069E+04  0.00000000000E+00 0. -1.
         -1   -1    0    0    0  501 -0.00000000000E+00 -0.00000000000E+00 -0.15959324491E+02  0.15959324491E+02  0.00000000000E+00 0.  1.
         24    1    1    2    0    0 -0.10852211322E+03 -0.27334643870E+01  0.33859466705E+03  0.36455189671E+03  0.80419002446E+02 0.  1.
        -24    1    1    2    0    0  0.10852211322E+03  0.27334643870E+01  0.15278407153E+04  0.15338021347E+04  0.80419002446E+02 0. -1.
<mgrwt>
<rscale>  0 0.13509899E+03</rscale>
<asrwt>0</asrwt>
<pdfrwt beam="1">  1        1 0.28959901E+00 0.13509899E+03</pdfrwt>
<pdfrwt beam="2">  1       -1 0.24552822E-02 0.13509899E+03</pdfrwt>
<totfact> 0.20435957E+03</totfact>
</mgrwt>
</event>
<event>
 4    3  0.9203887E-001  0.8336160E+02  0.7546771E-02  0.1319774E+00
         -1   -1    0    0    0  501 -0.00000000000E+00  0.00000000000E+00  0.24702925650E+02  0.24702925650E+02  0.00000000000E+00 0.  1.
          1   -1    0    0  501    0  0.00000000000E+00 -0.00000000000E+00 -0.51205635795E+03  0.51205635795E+03  0.00000000000E+00 0. -1.
         24    1    1    2    0    0  0.22178554481E+01  0.21840825951E+02 -0.63516451920E+02  0.10480217641E+03  0.80419002446E+02 0.  1.
        -24    1    1    2    0    0 -0.22178554481E+01 -0.21840825951E+02 -0.42383698038E+03  0.43195710720E+03  0.80419002446E+02 0. -1.
<mgrwt>
<rscale>  0 0.83361601E+02</rscale>
<asrwt>0</asrwt>
<pdfrwt beam="1">  1        1 0.78777898E-01 0.83361601E+02</pdfrwt>
<pdfrwt beam="2">  1       -1 0.38004502E-02 0.83361601E+02</pdfrwt>
<totfact> 0.10624222E+04</totfact>
</mgrwt>
</event>
<event>
 4    3  0.9203887E-001  0.1884318E+03  0.7546771E-02  0.1159883E+00
          1   -1    0    0  501    0  0.00000000000E+00  0.00000000000E+00  0.31467143954E+03  0.31467143954E+03  0.00000000000E+00 0. -1.
         -1   -1    0    0    0  501 -0.00000000000E+00 -0.00000000000E+00 -0.26239189968E+03  0.26239189968E+03  0.00000000000E+00 0.  1.
         24    1    1    2    0    0 -0.78219197079E+02  0.15139706044E+03 -0.19169080735E+03  0.26879712476E+03  0.80419002446E+02 0.  1.
        -24    1    1    2    0    0  0.78219197079E+02 -0.15139706044E+03  0.24397034721E+03  0.30826621446E+03  0.80419002446E+02 0. -1.
<mgrwt>
<rscale>  0 0.18843176E+03</rscale>
<asrwt>0</asrwt>
<pdfrwt beam="1">  1        1 0.48410990E-01 0.18843176E+03</pdfrwt>
<pdfrwt beam="2">  1       -1 0.40367985E-01 0.18843176E+03</pdfrwt>
<totfact> 0.50442645E+02</totfact>
</mgrwt>
</event>
<event>
 4    3  0.9203887E-001  0.1040755E+03  0.7546771E-02  0.1271952E+00
          2   -1    0    0  501    0  0.00000000000E+00  0.00000000000E+00  0.12008991463E+04  0.12008991463E+04  0.00000000000E+00 0. -1.
         -2   -1    0    0    0  501 -0.00000000000E+00 -0.00000000000E+00 -0.14071466922E+02  0.14071466922E+02  0.00000000000E+00 0.  1.
         24    1    1    2    0    0 -0.61043581376E+02  0.25262086450E+02  0.95740367449E+03  0.96304387425E+03  0.80419002446E+02 0. -1.
        -24    1    1    2    0    0  0.61043581376E+02 -0.25262086450E+02  0.22942400489E+03  0.25192673898E+03  0.80419002446E+02 0.  1.
<mgrwt>
<rscale>  0 0.10407549E+03</rscale>
<asrwt>0</asrwt>
<pdfrwt beam="1">  1        2 0.18475363E+00 0.10407549E+03</pdfrwt>
<pdfrwt beam="2">  1       -2 0.21648420E-02 0.10407549E+03</pdfrwt>
<totfact> 0.13029866E+04</totfact>
</mgrwt>
</event>
<event>
 4    3  0.9203887E-001  0.8316256E+02  0.7546771E-02  0.1320309E+00
         -2   -1    0    0    0  501 -0.00000000000E+00  0.00000000000E+00  0.38719347052E+01  0.38719347052E+01  0.00000000000E+00 0.  1.
          2   -1    0    0  501    0  0.00000000000E+00 -0.00000000000E+00 -0.23609643534E+04  0.23609643534E+04  0.00000000000E+00 0. -1.
         24    1    1    2    0    0 -0.98686595531E+01 -0.18745814126E+02 -0.17619576940E+04  0.17639191952E+04  0.80419002446E+02 0. -1.
        -24    1    1    2    0    0  0.98686595531E+01  0.18745814126E+02 -0.59513472478E+03  0.60091709293E+03  0.80419002446E+02 0.  1.
<mgrwt>
<rscale>  0 0.83162563E+02</rscale>
<asrwt>0</asrwt>
<pdfrwt beam="1">  1        2 0.36322479E+00 0.83162563E+02</pdfrwt>
<pdfrwt beam="2">  1       -2 0.59568307E-03 0.83162563E+02</pdfrwt>
<totfact> 0.20535398E+04</totfact>
</mgrwt>
</event>
<event>
 4    3  0.9203887E-001  0.8500754E+02  0.7546771E-02  0.1315413E+00
         -2   -1    0    0    0  501 -0.00000000000E+00  0.00000000000E+00  0.41113114532E+04  0.41113114532E+04  0.00000000000E+00 0.  1.
          2   -1    0    0  501    0  0.00000000000E+00 -0.00000000000E+00 -0.18568824779E+01  0.18568824779E+01  0.00000000000E+00 0. -1.
         24    1    1    2    0    0  0.22695464664E+02 -0.15619923421E+02  0.15793238673E+04  0.15816099898E+04  0.80419002446E+02 0. -1.
        -24    1    1    2    0    0 -0.22695464664E+02  0.15619923421E+02  0.25301307035E+04  0.25315583459E+04  0.80419002446E+02 0.  1.
<mgrwt>
<rscale>  0 0.85007541E+02</rscale>
<asrwt>0</asrwt>
<pdfrwt beam="1">  1        2 0.28567752E-03 0.85007541E+02</pdfrwt>
<pdfrwt beam="2">  1       -2 0.63250217E+00 0.85007541E+02</pdfrwt>
<totfact> 0.36575331E+01</totfact>
</mgrwt>
</event>
<event>
 4    3  0.9203887E-001  0.1043979E+03  0.7546771E-02  0.1271310E+00
          2   -1    0    0  501    0  0.00000000000E+00  0.00000000000E+00  0.23619835243E+04  0.23619835243E+04  0.00000000000E+00 0. -1.
         -2   -1    0    0    0  501 -0.00000000000E+00 -0.00000000000E+00 -0.13423066326E+02  0.13423066326E+02  0.00000000000E+00 0.  1.
         24    1    1    2    0    0 -0.32463474452E+01 -0.66491853823E+02  0.21364227787E+04  0.21389719986E+04  0.80419002446E+02 0. -1.
        -24    1    1    2    0    0  0.32463474452E+01  0.66491853823E+02  0.21213767931E+03  0.23643459208E+03  0.80419002446E+02 0.  1.
<mgrwt>
<rscale>  0 0.10439790E+03</rscale>
<asrwt>0</asrwt>
<pdfrwt beam="1">  1        2 0.36338175E+00 0.10439790E+03</pdfrwt>
<pdfrwt beam="2">  1       -2 0.20650890E-02 0.10439790E+03</pdfrwt>
<totfact> 0.35320880E+03</totfact>
</mgrwt>
</event>
<event>
 4    3  0.9203887E-001  0.9509810E+02  0.7546771E-02  0.1290955E+00
         -2   -1    0    0    0  501 -0.00000000000E+00  0.00000000000E+00  0.39618223350E+01  0.39618223350E+01  0.00000000000E+00 0.  1.
          2   -1    0    0  501    0  0.00000000000E+00 -0.00000000000E+00 -0.30530978442E+04  0.30530978442E+04  0.00000000000E+00 0. -1.
         24    1    1    2    0    0 -0.40927390022E+02 -0.30023029689E+02 -0.22923912511E+04  0.22943629394E+04  0.80419002446E+02 0. -1.
        -24    1    1    2    0    0  0.40927390022E+02  0.30023029689E+02 -0.75674477080E+03  0.76269672718E+03  0.80419002446E+02 0.  1.
<mgrwt>
<rscale>  0 0.95098105E+02</rscale>
<asrwt>0</asrwt>
<pdfrwt beam="1">  1        2 0.46970724E+00 0.95098105E+02</pdfrwt>
<pdfrwt beam="2">  1       -2 0.60951129E-03 0.95098105E+02</pdfrwt>
<totfact> 0.84219153E+03</totfact>
</mgrwt>
</event>
<event>
 4    3  0.9203887E-001  0.1008217E+03  0.7546771E-02  0.1278577E+00
          2   -1    0    0  501    0  0.00000000000E+00  0.00000000000E+00  0.14252021804E+04  0.14252021804E+04  0.00000000000E+00 0. -1.
         -2   -1    0    0    0  501 -0.00000000000E+00 -0.00000000000E+00 -0.13142816590E+02  0.13142816590E+02  0.00000000000E+00 0.  1.
         24    1    1    2    0    0  0.45571054133E+02 -0.40262615582E+02  0.11923737141E+04  0.11966286346E+04  0.80419002446E+02 0. -1.
        -24    1    1    2    0    0 -0.45571054133E+02  0.40262615582E+02  0.21968564970E+03  0.24171636235E+03  0.80419002446E+02 0.  1.
<mgrwt>
<rscale>  0 0.10082170E+03</rscale>
<asrwt>0</asrwt>
<pdfrwt beam="1">  1        2 0.21926175E+00 0.10082170E+03</pdfrwt>
<pdfrwt beam="2">  1       -2 0.20219729E-02 0.10082170E+03</pdfrwt>
<totfact> 0.10908362E+04</totfact>
</mgrwt>
</event>
<event>
 4    3  0.9203887E-001  0.8189816E+02  0.7546771E-02  0.1323749E+00
          1   -1    0    0  501    0  0.00000000000E+00  0.00000000000E+00  0.10577366640E+02  0.10577366640E+02  0.00000000000E+00 0. -1.
         -1   -1    0    0    0  501 -0.00000000000E+00 -0.00000000000E+00 -0.64365751724E+03  0.64365751724E+03  0.00000000000E+00 0.  1.
         24    1    1    2    0    0 -0.15260172040E+02  0.26870514160E+01 -0.35636151356E+03  0.36565125105E+03  0.80419002446E+02 0. -1.
        -24    1    1    2    0    0  0.15260172040E+02 -0.26870514160E+01 -0.27671863705E+03  0.28858363283E+03  0.80419002446E+02 0.  0.
<mgrwt>
<rscale>  0 0.81898163E+02</rscale>
<asrwt>0</asrwt>
<pdfrwt beam="1">  1        1 0.16272869E-02 0.81898163E+02</pdfrwt>
<pdfrwt beam="2">  1       -1 0.99024251E-01 0.81898163E+02</pdfrwt>
<totfact> 0.75446186E+03</totfact>
</mgrwt>
</event>
<event>
 4    3  0.9203887E-001  0.1131121E+03  0.7546771E-02  0.1254913E+00
          2   -1    0    0  501    0  0.00000000000E+00  0.00000000000E+00  0.22715027424E+03  0.22715027424E+03  0.00000000000E+00 0. -1.
         -2   -1    0    0    0  501 -0.00000000000E+00 -0.00000000000E+00 -0.95220237838E+02  0.95220237838E+02  0.00000000000E+00 0.  1.
         24    1    1    2    0    0 -0.37598262927E+02 -0.70096333331E+02  0.16898142301E+03  0.20334468913E+03  0.80419002446E+02 0.  0.
        -24    1    1    2    0    0  0.37598262927E+02  0.70096333331E+02 -0.37051386615E+02  0.11902582294E+03  0.80419002446E+02 0. -1.
<mgrwt>
<rscale>  0 0.11311207E+03</rscale>
<asrwt>0</asrwt>
<pdfrwt beam="1">  1        2 0.34946196E-01 0.11311207E+03</pdfrwt>
<pdfrwt beam="2">  1       -2 0.14649267E-01 0.11311207E+03</pdfrwt>
<totfact> 0.49902687E+03</totfact>
</mgrwt>
</event>
<event>
 4    3  0.9203887E-001  0.8463126E+02  0.7546771E-02  0.1316400E+00
          4   -1    0    0  501    0  0.00000000000E+00  0.00000000000E+00  0.69248894735E+03  0.69248894735E+03  0.00000000000E+00 0. -1.
         -4   -1    0    0    0  501 -0.00000000000E+00 -0.00000000000E+00 -0.21284593669E+02  0.21284593669E+02  0.00000000000E+00 0.  1.
         24    1    1    2    0    0 -0.58439399375E+01 -0.25711536498E+02  0.59148255485E+03  0.59750653836E+03  0.80419002446E+02 0. -1.
        -24    1    1    2    0    0  0.58439399375E+01  0.25711536498E+02  0.79721798833E+02  0.11626700266E+03  0.80419002446E+02 0.  1.
<mgrwt>
<rscale>  0 0.84631263E+02</rscale>
<asrwt>0</asrwt>
<pdfrwt beam="1">  1        4 0.10653674E+00 0.84631263E+02</pdfrwt>
<pdfrwt beam="2">  1       -4 0.32745534E-02 0.84631263E+02</pdfrwt>
<totfact> 0.51982652E+02</totfact>
</mgrwt>
</event>
<event>
 4    3  0.9203887E-001  0.9998066E+02  0.7546771E-02  0.1280337E+00
          3   -1    0    0  501    0  0.00000000000E+00  0.00000000000E+00  0.12860981226E+03  0.12860981226E+03  0.00000000000E+00 0. -1.
         -3   -1    0    0    0  501 -0.00000000000E+00 -0.00000000000E+00 -0.89439908425E+02  0.89439908425E+02  0.00000000000E+00 0.  1.
         24    1    1    2    0    0 -0.57926673461E+02  0.13168815914E+02 -0.19873369846E+02  0.10193666658E+03  0.80419002446E+02 0.  1.
        -24    1    1    2    0    0  0.57926673461E+02 -0.13168815914E+02  0.59043273677E+02  0.11611305410E+03  0.80419002446E+02 0. -1.
<mgrwt>
<rscale>  0 0.99980664E+02</rscale>
<asrwt>0</asrwt>
<pdfrwt beam="1">  1        3 0.19786125E-01 0.99980664E+02</pdfrwt>
<pdfrwt beam="2">  1       -3 0.13759986E-01 0.99980664E+02</pdfrwt>
<totfact> 0.21303805E+03</totfact>
</mgrwt>
</event>
<event>
 4    3  0.9203887E-001  0.9137030E+02  0.7546771E-02  0.1299567E+00
          3   -1    0    0  501    0  0.00000000000E+00  0.00000000000E+00  0.47143800690E+03  0.47143800690E+03  0.00000000000E+00 0. -1.
         -3   -1    0    0    0  501 -0.00000000000E+00 -0.00000000000E+00 -0.30470368871E+02  0.30470368871E+02  0.00000000000E+00 0.  1.
         24    1    1    2    0    0 -0.13770010365E+02  0.41130314535E+02  0.58074803764E+02  0.10826455905E+03  0.80419002446E+02 0.  1.
        -24    1    1    2    0    0  0.13770010365E+02 -0.41130314535E+02  0.38289283427E+03  0.39364381673E+03  0.80419002446E+02 0. -1.
<mgrwt>
<rscale>  0 0.91370301E+02</rscale>
<asrwt>0</asrwt>
<pdfrwt beam="1">  1        3 0.72528919E-01 0.91370301E+02</pdfrwt>
<pdfrwt beam="2">  1       -3 0.46877494E-02 0.91370301E+02</pdfrwt>
<totfact> 0.10043533E+03</totfact>
</mgrwt>
</event>
<event>
 4    3  0.9203887E-001  0.9304936E+02  0.7546771E-02  0.1295631E+00
          2   -1    0    0  501    0  0.00000000000E+00  0.00000000000E+00  0.82556462468E+03  0.82556462468E+03  0.00000000000E+00 0. -1.
         -2   -1    0    0    0  501 -0.00000000000E+00 -0.00000000000E+00 -0.13673573160E+02  0.13673573160E+02  0.00000000000E+00 0.  1.
         24    1    1    2    0    0 -0.46269543391E+02 -0.70779129692E+01  0.60849725867E+03  0.61557054613E+03  0.80419002446E+02 0. -1.
        -24    1    1    2    0    0  0.46269543391E+02  0.70779129692E+01  0.20339379284E+03  0.22366765170E+03  0.80419002446E+02 0.  1.
<mgrwt>
<rscale>  0 0.93049360E+02</rscale>
<asrwt>0</asrwt>
<pdfrwt beam="1">  1        2 0.12700990E+00 0.93049360E+02</pdfrwt>
<pdfrwt beam="2">  1       -2 0.21036273E-02 0.93049360E+02</pdfrwt>
<totfact> 0.22406587E+04</totfact>
</mgrwt>
</event>
<event>
 4    3  0.9203887E-001  0.1147086E+03  0.7546771E-02  0.1252091E+00
          2   -1    0    0  501    0  0.00000000000E+00  0.00000000000E+00  0.23064969505E+04  0.23064969505E+04  0.00000000000E+00 0. -1.
         -2   -1    0    0    0  501 -0.00000000000E+00 -0.00000000000E+00 -0.57477156875E+01  0.57477156875E+01  0.00000000000E+00 0.  1.
         24    1    1    2    0    0  0.57715861477E+02  0.57963012791E+02  0.10504464945E+04  0.10566910074E+04  0.80419002446E+02 0.  1.
        -24    1    1    2    0    0 -0.57715861477E+02 -0.57963012791E+02  0.12503027404E+04  0.12555536588E+04  0.80419002446E+02 0. -1.
<mgrwt>
<rscale>  0 0.11470855E+03</rscale>
<asrwt>0</asrwt>
<pdfrwt beam="1">  1        2 0.35484495E+00 0.11470856E+03</pdfrwt>
<pdfrwt beam="2">  1       -2 0.88426579E-03 0.11470856E+03</pdfrwt>
<totfact> 0.12728187E+04</totfact>
</mgrwt>
</event>
<event>
 4    3  0.9203887E-001  0.8346602E+02  0.7546771E-02  0.1319493E+00
         -2   -1    0    0    0  501 -0.00000000000E+00  0.00000000000E+00  0.11647713951E+02  0.11647713951E+02  0.00000000000E+00 0.  1.
          2   -1    0    0  501    0  0.00000000000E+00 -0.00000000000E+00 -0.79627651640E+03  0.79627651640E+03  0.00000000000E+00 0. -1.
         24    1    1    2    0    0  0.22209640066E+02 -0.24683760265E+01 -0.59383865650E+03  0.59967568477E+03  0.80419002446E+02 0. -1.
        -24    1    1    2    0    0 -0.22209640066E+02  0.24683760265E+01 -0.19079014595E+03  0.20824854558E+03  0.80419002446E+02 0.  1.
<mgrwt>
<rscale>  0 0.83466023E+02</rscale>
<asrwt>0</asrwt>
<pdfrwt beam="1">  1        2 0.12250412E+00 0.83466023E+02</pdfrwt>
<pdfrwt beam="2">  1       -2 0.17919554E-02 0.83466023E+02</pdfrwt>
<totfact> 0.29162539E+04</totfact>
</mgrwt>
</event>
<event>
 4    3  0.9203887E-001  0.8277614E+02  0.7546771E-02  0.1321353E+00
         -2   -1    0    0    0  501 -0.00000000000E+00  0.00000000000E+00  0.20339618931E+02  0.20339618931E+02  0.00000000000E+00 0.  1.
          2   -1    0    0  501    0  0.00000000000E+00 -0.00000000000E+00 -0.68191761821E+03  0.68191761821E+03  0.00000000000E+00 0. -1.
         24    1    1    2    0    0 -0.91251563763E+01  0.17361021996E+02 -0.58055726020E+03  0.58642870146E+03  0.80419002446E+02 0. -1.
        -24    1    1    2    0    0  0.91251563763E+01 -0.17361021996E+02 -0.81020739075E+02  0.11582853568E+03  0.80419002446E+02 0.  1.
<mgrwt>
<rscale>  0 0.82776141E+02</rscale>
<asrwt>0</asrwt>
<pdfrwt beam="1">  1        2 0.10491040E+00 0.82776141E+02</pdfrwt>
<pdfrwt beam="2">  1       -2 0.31291724E-02 0.82776141E+02</pdfrwt>
<totfact> 0.15684525E+04</totfact>
</mgrwt>
</event>
<event>
 4    3  0.9203887E-001  0.8683743E+02  0.7546771E-02  0.1310696E+00
         -2   -1    0    0    0  501 -0.00000000000E+00  0.00000000000E+00  0.14046084746E+02  0.14046084746E+02  0.00000000000E+00 0.  1.
          2   -1    0    0  501    0  0.00000000000E+00 -0.00000000000E+00 -0.73683233883E+03  0.73683233883E+03  0.00000000000E+00 0. -1.
         24    1    1    2    0    0  0.30983127355E+01 -0.32617853114E+02 -0.55698168279E+03  0.56371032881E+03  0.80419002446E+02 0. -1.
        -24    1    1    2    0    0 -0.30983127355E+01  0.32617853114E+02 -0.16580457129E+03  0.18716809477E+03  0.80419002446E+02 0.  1.
<mgrwt>
<rscale>  0 0.86837433E+02</rscale>
<asrwt>0</asrwt>
<pdfrwt beam="1">  1        2 0.11335888E+00 0.86837433E+02</pdfrwt>
<pdfrwt beam="2">  1       -2 0.21609350E-02 0.86837433E+02</pdfrwt>
<totfact> 0.24572042E+04</totfact>
</mgrwt>
</event>
<event>
 4    3  0.9203887E-001  0.1559832E+03  0.7546771E-02  0.1193308E+00
         -2   -1    0    0    0  501 -0.00000000000E+00  0.00000000000E+00  0.67964310143E+03  0.67964310143E+03  0.00000000000E+00 0.  1.
          2   -1    0    0  501    0  0.00000000000E+00 -0.00000000000E+00 -0.39439230976E+02  0.39439230976E+02  0.00000000000E+00 0. -1.
         24    1    1    2    0    0 -0.81954761235E+02  0.10557915400E+03  0.21087489649E+03  0.26229559388E+03  0.80419002446E+02 0. -1.
        -24    1    1    2    0    0  0.81954761235E+02 -0.10557915400E+03  0.42932897397E+03  0.45678673852E+03  0.80419002446E+02 0.  1.
<mgrwt>
<rscale>  0 0.15598319E+03</rscale>
<asrwt>0</asrwt>
<pdfrwt beam="1">  1        2 0.60675745E-02 0.15598319E+03</pdfrwt>
<pdfrwt beam="2">  1       -2 0.10456047E+00 0.15598319E+03</pdfrwt>
<totfact> 0.92035274E+02</totfact>
</mgrwt>
</event>
<event>
 4    3  0.9203887E-001  0.8271567E+02  0.7546771E-02  0.1321517E+00
         -1   -1    0    0    0  501 -0.00000000000E+00  0.00000000000E+00  0.44991155129E+03  0.44991155129E+03  0.00000000000E+00 0.  1.
          1   -1    0    0  501    0  0.00000000000E+00 -0.00000000000E+00 -0.29965281172E+02  0.29965281172E+02  0.00000000000E+00 0. -1.
         24    1    1    2    0    0 -0.94467084022E+01  0.16894570028E+02  0.37835912535E+03  0.38729512066E+03  0.80419002446E+02 0.  1.
        -24    1    1    2    0    0  0.94467084022E+01 -0.16894570028E+02  0.41587144766E+02  0.92581711802E+02  0.80419002446E+02 0. -1.
<mgrwt>
<rscale>  0 0.82715674E+02</rscale>
<asrwt>0</asrwt>
<pdfrwt beam="1">  1        1 0.46100436E-02 0.82715674E+02</pdfrwt>
<pdfrwt beam="2">  1       -1 0.69217157E-01 0.82715674E+02</pdfrwt>
<totfact> 0.37867074E+03</totfact>
</mgrwt>
</event>
<event>
 4    3  0.9203887E-001  0.9686514E+02  0.7546771E-02  0.1287030E+00
          2   -1    0    0  501    0  0.00000000000E+00  0.00000000000E+00  0.28129207844E+03  0.28129207844E+03  0.00000000000E+00 0. -1.
         -2   -1    0    0    0  501 -0.00000000000E+00 -0.00000000000E+00 -0.52016280083E+02  0.52016280083E+02  0.00000000000E+00 0.  1.
         24    1    1    2    0    0 -0.16359591448E+02  0.51458760407E+02  0.21445442062E+03  0.23531586163E+03  0.80419002446E+02 0.  1.
        -24    1    1    2    0    0  0.16359591448E+02 -0.51458760407E+02  0.14821377732E+02  0.97992496892E+02  0.80419002446E+02 0.  1.
<mgrwt>
<rscale>  0 0.96865144E+02</rscale>
<asrwt>0</asrwt>
<pdfrwt beam="1">  1        2 0.43275703E-01 0.96865144E+02</pdfrwt>
<pdfrwt beam="2">  1       -2 0.80025048E-02 0.96865144E+02</pdfrwt>
<totfact> 0.10190345E+04</totfact>
</mgrwt>
</event>
<event>
 4    3  0.9203887E-001  0.8807183E+02  0.7546771E-02  0.1307589E+00
          4   -1    0    0  501    0  0.00000000000E+00  0.00000000000E+00  0.25388485882E+03  0.25388485882E+03  0.00000000000E+00 0. -1.
         -4   -1    0    0    0  501 -0.00000000000E+00 -0.00000000000E+00 -0.38148148469E+02  0.38148148469E+02  0.00000000000E+00 0.  1.
         24    1    1    2    0    0 -0.15311984363E+01  0.35876002877E+02  0.17302619469E+03  0.19415126101E+03  0.80419002446E+02 0. -1.
        -24    1    1    2    0    0  0.15311984363E+01 -0.35876002877E+02  0.42710515662E+02  0.97881746274E+02  0.80419002446E+02 0.  1.
<mgrwt>
<rscale>  0 0.88071835E+02</rscale>
<asrwt>0</asrwt>
<pdfrwt beam="1">  1        4 0.39059208E-01 0.88071835E+02</pdfrwt>
<pdfrwt beam="2">  1       -4 0.58689461E-02 0.88071835E+02</pdfrwt>
<totfact> 0.17380073E+03</totfact>
</mgrwt>
</event>
<event>
 4    3  0.9203887E-001  0.9169368E+02  0.7546771E-02  0.1298801E+00
          2   -1    0    0  501    0  0.00000000000E+00  0.00000000000E+00  0.18543680133E+03  0.18543680133E+03  0.00000000000E+00 0. -1.
         -2   -1    0    0    0  501 -0.00000000000E+00 -0.00000000000E+00 -0.59964234133E+02  0.59964234133E+02  0.00000000000E+00 0.  1.
         24    1    1    2    0    0 -0.43228019327E+02 -0.84766811618E+01  0.12333098372E+03  0.15368234537E+03  0.80419002446E+02 0. -1.
        -24    1    1    2    0    0  0.43228019327E+02  0.84766811618E+01  0.21415834769E+01  0.91718690094E+02  0.80419002446E+02 0.  1.
<mgrwt>
<rscale>  0 0.91693684E+02</rscale>
<asrwt>0</asrwt>
<pdfrwt beam="1">  1        2 0.28528738E-01 0.91693684E+02</pdfrwt>
<pdfrwt beam="2">  1       -2 0.92252669E-02 0.91693684E+02</pdfrwt>
<totfact> 0.12668625E+04</totfact>
</mgrwt>
</event>
<event>
 4    3  0.9203887E-001  0.9077446E+02  0.7546771E-02  0.1300987E+00
         -2   -1    0    0    0  501 -0.00000000000E+00  0.00000000000E+00  0.52013227294E+02  0.52013227294E+02  0.00000000000E+00 0.  1.
          2   -1    0    0  501    0  0.00000000000E+00 -0.00000000000E+00 -0.19406708243E+03  0.19406708243E+03  0.00000000000E+00 0. -1.
         24    1    1    2    0    0 -0.18350641807E+01 -0.42064470590E+02 -0.12375902002E+03  0.15348061160E+03  0.80419002446E+02 0. -1.
        -24    1    1    2    0    0  0.18350641807E+01  0.42064470590E+02 -0.18294835118E+02  0.92599698125E+02  0.80419002446E+02 0.  1.
<mgrwt>
<rscale>  0 0.90774463E+02</rscale>
<asrwt>0</asrwt>
<pdfrwt beam="1">  1        2 0.29856473E-01 0.90774463E+02</pdfrwt>
<pdfrwt beam="2">  1       -2 0.80020353E-02 0.90774463E+02</pdfrwt>
<totfact> 0.14998707E+04</totfact>
</mgrwt>
</event>
<event>
 4    3  0.9203887E-001  0.8887650E+02  0.7546771E-02  0.1305595E+00
          2   -1    0    0  501    0  0.00000000000E+00  0.00000000000E+00  0.29931562419E+03  0.29931562419E+03  0.00000000000E+00 0. -1.
         -2   -1    0    0    0  501 -0.00000000000E+00 -0.00000000000E+00 -0.28643666484E+02  0.28643666484E+02  0.00000000000E+00 0.  1.
         24    1    1    2    0    0  0.55752462426E+01  0.37426305341E+02  0.89342948600E+02  0.12602059404E+03  0.80419002446E+02 0.  1.
        -24    1    1    2    0    0 -0.55752462426E+01 -0.37426305341E+02  0.18132900911E+03  0.20193869664E+03  0.80419002446E+02 0. -1.
<mgrwt>
<rscale>  0 0.88876485E+02</rscale>
<asrwt>0</asrwt>
<pdfrwt beam="1">  1        2 0.46048555E-01 0.88876496E+02</pdfrwt>
<pdfrwt beam="2">  1       -2 0.44067181E-02 0.88876496E+02</pdfrwt>
<totfact> 0.23193069E+04</totfact>
</mgrwt>
</event>
<event>
 4    3  0.9203887E-001  0.1079462E+03  0.7546771E-02  0.1264421E+00
          1   -1    0    0  501    0  0.00000000000E+00  0.00000000000E+00  0.80569879465E+03  0.80569879465E+03  0.00000000000E+00 0. -1.
         -1   -1    0    0    0  501 -0.00000000000E+00 -0.00000000000E+00 -0.14634086132E+02  0.14634086132E+02  0.00000000000E+00 0.  1.
         24    1    1    2    0    0  0.11602697657E+02  0.71067079420E+02  0.43995431348E+03  0.45300349477E+03  0.80419002446E+02 0.  1.
        -24    1    1    2    0    0 -0.11602697657E+02 -0.71067079420E+02  0.35111039504E+03  0.36732938601E+03  0.80419002446E+02 0. -1.
<mgrwt>
<rscale>  0 0.10794615E+03</rscale>
<asrwt>0</asrwt>
<pdfrwt beam="1">  1        1 0.12395363E+00 0.10794616E+03</pdfrwt>
<pdfrwt beam="2">  1       -1 0.22513985E-02 0.10794616E+03</pdfrwt>
<totfact> 0.12360406E+04</totfact>
</mgrwt>
</event>
<event>
 4    3  0.9203887E-001  0.8750966E+02  0.7546771E-02  0.1308997E+00
          2   -1    0    0  501    0  0.00000000000E+00  0.00000000000E+00  0.95413223425E+03  0.95413223425E+03  0.00000000000E+00 0. -1.
         -2   -1    0    0    0  501 -0.00000000000E+00 -0.00000000000E+00 -0.35684353154E+02  0.35684353154E+02  0.00000000000E+00 0.  1.
         24    1    1    2    0    0 -0.33133370610E+02  0.96387251349E+01  0.89493476725E+03  0.89920307987E+03  0.80419002446E+02 0. -1.
        -24    1    1    2    0    0  0.33133370610E+02 -0.96387251349E+01  0.23513113852E+02  0.90613507534E+02  0.80419002446E+02 0.  1.
<mgrwt>
<rscale>  0 0.87509664E+02</rscale>
<asrwt>0</asrwt>
<pdfrwt beam="1">  1        2 0.14678956E+00 0.87509664E+02</pdfrwt>
<pdfrwt beam="2">  1       -2 0.54899012E-02 0.87509664E+02</pdfrwt>
<totfact> 0.45636269E+03</totfact>
</mgrwt>
</event>
<event>
 4    3  0.9203887E-001  0.9540177E+02  0.7546771E-02  0.1290274E+00
         -2   -1    0    0    0  501 -0.00000000000E+00  0.00000000000E+00  0.29149665306E+02  0.29149665306E+02  0.00000000000E+00 0.  1.
          2   -1    0    0  501    0  0.00000000000E+00 -0.00000000000E+00 -0.16744609722E+04  0.16744609722E+04  0.00000000000E+00 0. -1.
         24    1    1    2    0    0 -0.49344495688E+02  0.14121016972E+02 -0.15909500578E+04  0.15938078883E+04  0.80419002446E+02 0. -1.
        -24    1    1    2    0    0  0.49344495688E+02 -0.14121016972E+02 -0.54361249049E+02  0.10980274918E+03  0.80419002446E+02 0.  1.
<mgrwt>
<rscale>  0 0.95401773E+02</rscale>
<asrwt>0</asrwt>
<pdfrwt beam="1">  1        2 0.25760941E+00 0.95401773E+02</pdfrwt>
<pdfrwt beam="2">  1       -2 0.44845634E-02 0.95401773E+02</pdfrwt>
<totfact> 0.25423369E+03</totfact>
</mgrwt>
</event>
<event>
 4    3  0.9203887E-001  0.1054221E+03  0.7546771E-02  0.1269290E+00
          1   -1    0    0  501    0  0.00000000000E+00  0.00000000000E+00  0.35160597718E+03  0.35160597718E+03  0.00000000000E+00 0. -1.
         -1   -1    0    0    0  501 -0.00000000000E+00 -0.00000000000E+00 -0.39609678887E+02  0.39609678887E+02  0.00000000000E+00 0.  1.
         24    1    1    2    0    0 -0.31136076682E+01  0.68094779269E+02  0.68084358314E+02  0.12549617252E+03  0.80419002446E+02 0.  1.
        -24    1    1    2    0    0  0.31136076682E+01 -0.68094779269E+02  0.24391193998E+03  0.26571948354E+03  0.80419002446E+02 0. -1.
<mgrwt>
<rscale>  0 0.10542205E+03</rscale>
<asrwt>0</asrwt>
<pdfrwt beam="1">  1        1 0.54093225E-01 0.10542205E+03</pdfrwt>
<pdfrwt beam="2">  1       -1 0.60937970E-02 0.10542205E+03</pdfrwt>
<totfact> 0.87029546E+03</totfact>
</mgrwt>
</event>
<event>
 4    3  0.9203887E-001  0.8329619E+02  0.7546771E-02  0.1319949E+00
         -2   -1    0    0    0  501 -0.00000000000E+00  0.00000000000E+00  0.17546563985E+02  0.17546563985E+02  0.00000000000E+00 0.  1.
          2   -1    0    0  501    0  0.00000000000E+00 -0.00000000000E+00 -0.13911816918E+04  0.13911816918E+04  0.00000000000E+00 0. -1.
         24    1    1    2    0    0  0.78634934999E+01  0.20228813681E+02 -0.12827308889E+04  0.12854325298E+04  0.80419002446E+02 0. -1.
        -24    1    1    2    0    0 -0.78634934999E+01 -0.20228813681E+02 -0.90904238909E+02  0.12329572596E+03  0.80419002446E+02 0.  1.
<mgrwt>
<rscale>  0 0.83296191E+02</rscale>
<asrwt>0</asrwt>
<pdfrwt beam="1">  1        2 0.21402800E+00 0.83296191E+02</pdfrwt>
<pdfrwt beam="2">  1       -2 0.26994708E-02 0.83296191E+02</pdfrwt>
<totfact> 0.74135527E+03</totfact>
</mgrwt>
</event>
<event>
 4    3  0.9203887E-001  0.1025612E+03  0.7546771E-02  0.1275001E+00
         -2   -1    0    0    0  501 -0.00000000000E+00  0.00000000000E+00  0.44228755557E+02  0.44228755557E+02  0.00000000000E+00 0.  1.
          2   -1    0    0  501    0  0.00000000000E+00 -0.00000000000E+00 -0.86749172252E+03  0.86749172252E+03  0.00000000000E+00 0. -1.
         24    1    1    2    0    0 -0.60583058297E+02 -0.19526110176E+02 -0.80000868504E+03  0.80655606626E+03  0.80419002446E+02 0. -1.
        -24    1    1    2    0    0  0.60583058297E+02  0.19526110176E+02 -0.23254281930E+02  0.10516441182E+03  0.80419002446E+02 0.  1.
<mgrwt>
<rscale>  0 0.10256116E+03</rscale>
<asrwt>0</asrwt>
<pdfrwt beam="1">  1        2 0.13346025E+00 0.10256116E+03</pdfrwt>
<pdfrwt beam="2">  1       -2 0.68044247E-02 0.10256116E+03</pdfrwt>
<totfact> 0.37624819E+03</totfact>
</mgrwt>
</event>
<event>
 4    3  0.9203887E-001  0.8725979E+02  0.7546771E-02  0.1309627E+00
         -2   -1    0    0    0  501 -0.00000000000E+00  0.00000000000E+00  0.39882005699E+02  0.39882005699E+02  0.00000000000E+00 0.  1.
          2   -1    0    0  501    0  0.00000000000E+00 -0.00000000000E+00 -0.87827683346E+03  0.87827683346E+03  0.00000000000E+00 0. -1.
         24    1    1    2    0    0 -0.26726786832E+02 -0.20802265646E+02 -0.82532570793E+03  0.82992577711E+03  0.80419002446E+02 0. -1.
        -24    1    1    2    0    0  0.26726786832E+02  0.20802265646E+02 -0.13069119828E+02  0.88233062045E+02  0.80419002446E+02 0.  1.
<mgrwt>
<rscale>  0 0.87259792E+02</rscale>
<asrwt>0</asrwt>
<pdfrwt beam="1">  1        2 0.13511952E+00 0.87259792E+02</pdfrwt>
<pdfrwt beam="2">  1       -2 0.61356928E-02 0.87259792E+02</pdfrwt>
<totfact> 0.42997399E+03</totfact>
</mgrwt>
</event>
<event>
 4    3  0.9203887E-001  0.9836704E+02  0.7546771E-02  0.1283768E+00
         -2   -1    0    0    0  501 -0.00000000000E+00  0.00000000000E+00  0.84970164311E+02  0.84970164311E+02  0.00000000000E+00 0.  1.
          2   -1    0    0  501    0  0.00000000000E+00 -0.00000000000E+00 -0.29859822207E+03  0.29859822207E+03  0.00000000000E+00 0. -1.
         24    1    1    2    0    0 -0.32490371063E+02 -0.46402949473E+02 -0.25765822841E+03  0.27579673050E+03  0.80419002446E+02 0. -1.
        -24    1    1    2    0    0  0.32490371063E+02  0.46402949473E+02  0.44030170645E+02  0.10777165589E+03  0.80419002446E+02 0.  1.
<mgrwt>
<rscale>  0 0.98367037E+02</rscale>
<asrwt>0</asrwt>
<pdfrwt beam="1">  1        2 0.45938187E-01 0.98367037E+02</pdfrwt>
<pdfrwt beam="2">  1       -2 0.13072333E-01 0.98367037E+02</pdfrwt>
<totfact> 0.44524804E+03</totfact>
</mgrwt>
</event>
<event>
 4    3  0.9203887E-001  0.8441719E+02  0.7546771E-02  0.1316964E+00
          2   -1    0    0  501    0  0.00000000000E+00  0.00000000000E+00  0.23384888952E+04  0.23384888952E+04  0.00000000000E+00 0. -1.
         -2   -1    0    0    0  501 -0.00000000000E+00 -0.00000000000E+00 -0.31643420291E+01  0.31643420291E+01  0.00000000000E+00 0.  1.
         24    1    1    2    0    0  0.88515638730E+01 -0.24097629890E+02  0.13927621334E+04  0.13953181079E+04  0.80419002446E+02 0. -1.
        -24    1    1    2    0    0 -0.88515638730E+01  0.24097629890E+02  0.94256241978E+03  0.94633512937E+03  0.80419002446E+02 0.  1.
<mgrwt>
<rscale>  0 0.84417190E+02</rscale>
<asrwt>0</asrwt>
<pdfrwt beam="1">  1        2 0.35976614E+00 0.84417190E+02</pdfrwt>
<pdfrwt beam="2">  1       -2 0.48682372E-03 0.84417190E+02</pdfrwt>
<totfact> 0.27995893E+04</totfact>
</mgrwt>
</event>
<event>
 4    3  0.9203887E-001  0.1113713E+03  0.7546771E-02  0.1258051E+00
          2   -1    0    0  501    0  0.00000000000E+00  0.00000000000E+00  0.15592194200E+04  0.15592194200E+04  0.00000000000E+00 0. -1.
         -2   -1    0    0    0  501 -0.00000000000E+00 -0.00000000000E+00 -0.10392076675E+02  0.10392076675E+02  0.00000000000E+00 0.  1.
         24    1    1    2    0    0  0.19418279785E+02 -0.74560540439E+02  0.11544694658E+04  0.11598289992E+04  0.80419002446E+02 0. -1.
        -24    1    1    2    0    0 -0.19418279785E+02  0.74560540439E+02  0.39435787748E+03  0.40978249751E+03  0.80419002446E+02 0.  1.
<mgrwt>
<rscale>  0 0.11137127E+03</rscale>
<asrwt>0</asrwt>
<pdfrwt beam="1">  1        2 0.23987973E+00 0.11137127E+03</pdfrwt>
<pdfrwt beam="2">  1       -2 0.15987823E-02 0.11137127E+03</pdfrwt>
<totfact> 0.13112666E+04</totfact>
</mgrwt>
</event>
<event>
 4    3  0.9203887E-001  0.8885513E+02  0.7546771E-02  0.1305648E+00
          2   -1    0    0  501    0  0.00000000000E+00  0.00000000000E+00  0.12445147569E+04  0.12445147569E+04  0.00000000000E+00 0. -1.
         -2   -1    0    0    0  501 -0.00000000000E+00 -0.00000000000E+00 -0.75048943048E+01  0.75048943048E+01  0.00000000000E+00 0.  1.
         24    1    1    2    0    0  0.18810842918E+02  0.32774527634E+02  0.86471194415E+03  0.86926519531E+03  0.80419002446E+02 0. -1.
        -24    1    1    2    0    0 -0.18810842918E+02 -0.32774527634E+02  0.37229791849E+03  0.38275445594E+03  0.80419002446E+02 0.  1.
<mgrwt>
<rscale>  0 0.88855126E+02</rscale>
<asrwt>0</asrwt>
<pdfrwt beam="1">  1        2 0.19146365E+00 0.88855126E+02</pdfrwt>
<pdfrwt beam="2">  1       -2 0.11546001E-02 0.88855126E+02</pdfrwt>
<totfact> 0.29968271E+04</totfact>
</mgrwt>
</event>
<event>
 4    3  0.9203887E-001  0.1078088E+03  0.7546771E-02  0.1264682E+00
         -2   -1    0    0    0  501 -0.00000000000E+00  0.00000000000E+00  0.38253871813E+02  0.38253871813E+02  0.00000000000E+00 0.  1.
          2   -1    0    0  501    0  0.00000000000E+00 -0.00000000000E+00 -0.85641359757E+03  0.85641359757E+03  0.00000000000E+00 0. -1.
         24    1    1    2    0    0  0.46694957940E+02  0.54544457467E+02 -0.76840554791E+03  0.77593158136E+03  0.80419002446E+02 0. -1.
        -24    1    1    2    0    0 -0.46694957940E+02 -0.54544457467E+02 -0.49754177848E+02  0.11873588803E+03  0.80419002446E+02 0.  1.
<mgrwt>
<rscale>  0 0.10780878E+03</rscale>
<asrwt>0</asrwt>
<pdfrwt beam="1">  1        2 0.13175593E+00 0.10780878E+03</pdfrwt>
<pdfrwt beam="2">  1       -2 0.58852115E-02 0.10780878E+03</pdfrwt>
<totfact> 0.47722219E+03</totfact>
</mgrwt>
</event>
<event>
 4    3  0.9203887E-001  0.1172009E+03  0.7546771E-02  0.1247787E+00
         -3   -1    0    0    0  501 -0.00000000000E+00  0.00000000000E+00  0.38153157248E+02  0.38153157248E+02  0.00000000000E+00 0.  1.
          3   -1    0    0  501    0  0.00000000000E+00 -0.00000000000E+00 -0.36737125267E+03  0.36737125267E+03  0.00000000000E+00 0. -1.
         24    1    1    2    0    0  0.18610578165E+01 -0.85237207820E+02 -0.13593492829E+03  0.17948360877E+03  0.80419002446E+02 0. -1.
        -24    1    1    2    0    0 -0.18610578165E+01  0.85237207820E+02 -0.19328316713E+03  0.22604080115E+03  0.80419002446E+02 0.  1.
<mgrwt>
<rscale>  0 0.11720094E+03</rscale>
<asrwt>0</asrwt>
<pdfrwt beam="1">  1        3 0.56518655E-01 0.11720094E+03</pdfrwt>
<pdfrwt beam="2">  1       -3 0.58697164E-02 0.11720094E+03</pdfrwt>
<totfact> 0.12342843E+03</totfact>
</mgrwt>
</event>
<event>
 4    3  0.9203887E-001  0.8928448E+02  0.7546771E-02  0.1304594E+00
          1   -1    0    0  501    0  0.00000000000E+00  0.00000000000E+00  0.10894801071E+04  0.10894801071E+04  0.00000000000E+00 0. -1.
         -1   -1    0    0    0  501 -0.00000000000E+00 -0.00000000000E+00 -0.85500373187E+01  0.85500373187E+01  0.00000000000E+00 0.  1.
         24    1    1    2    0    0  0.30406158547E+02 -0.24082527089E+02  0.33197295156E+03  0.34376992177E+03  0.80419002446E+02 0. -1.
        -24    1    1    2    0    0 -0.30406158547E+02  0.24082527089E+02  0.74895711819E+03  0.75426022262E+03  0.80419002446E+02 0.  1.
<mgrwt>
<rscale>  0 0.89284481E+02</rscale>
<asrwt>0</asrwt>
<pdfrwt beam="1">  1        1 0.16761221E+00 0.89284481E+02</pdfrwt>
<pdfrwt beam="2">  1       -1 0.13153912E-02 0.89284481E+02</pdfrwt>
<totfact> 0.16124253E+04</totfact>
</mgrwt>
</event>
<event>
 4    3  0.9203887E-001  0.8086082E+02  0.7546771E-02  0.1326626E+00
          2   -1    0    0  501    0  0.00000000000E+00  0.00000000000E+00  0.47440269652E+03  0.47440269652E+03  0.00000000000E+00 0. -1.
         -2   -1    0    0    0  501 -0.00000000000E+00 -0.00000000000E+00 -0.24738386881E+02  0.24738386881E+02  0.00000000000E+00 0.  1.
         24    1    1    2    0    0  0.65420354532E+01 -0.53345932215E+01  0.39091726415E+03  0.39919265960E+03  0.80419002446E+02 0. -1.
        -24    1    1    2    0    0 -0.65420354532E+01  0.53345932215E+01  0.58747045491E+02  0.99948423804E+02  0.80419002446E+02 0.  0.
<mgrwt>
<rscale>  0 0.80860819E+02</rscale>
<asrwt>0</asrwt>
<pdfrwt beam="1">  1        2 0.72985024E-01 0.80860819E+02</pdfrwt>
<pdfrwt beam="2">  1       -2 0.38059060E-02 0.80860819E+02</pdfrwt>
<totfact> 0.17561047E+04</totfact>
</mgrwt>
</event>
<event>
 4    3  0.9203887E-001  0.8083979E+02  0.7546771E-02  0.1326685E+00
         -3   -1    0    0    0  501 -0.00000000000E+00  0.00000000000E+00  0.89795209725E+03  0.89795209725E+03  0.00000000000E+00 0.  1.
          3   -1    0    0  501    0  0.00000000000E+00 -0.00000000000E+00 -0.72965612469E+01  0.72965612469E+01  0.00000000000E+00 0. -1.
         24    1    1    2    0    0  0.78982295779E+01 -0.23397525978E+01  0.46830869942E+03  0.47523479500E+03  0.80419002446E+02 0.  0.
        -24    1    1    2    0    0 -0.78982295779E+01  0.23397525978E+01  0.42234683658E+03  0.43001386350E+03  0.80419002446E+02 0.  0.
<mgrwt>
<rscale>  0 0.80839795E+02</rscale>
<asrwt>0</asrwt>
<pdfrwt beam="1">  1        3 0.11225486E-02 0.80839795E+02</pdfrwt>
<pdfrwt beam="2">  1       -3 0.13814639E+00 0.80839795E+02</pdfrwt>
<totfact> 0.20097640E+03</totfact>
</mgrwt>
</event>
<event>
 4    3  0.9203887E-001  0.8728410E+02  0.7546771E-02  0.1309565E+00
          2   -1    0    0  501    0  0.00000000000E+00  0.00000000000E+00  0.57057758043E+02  0.57057758043E+02  0.00000000000E+00 0. -1.
         -2   -1    0    0    0  501 -0.00000000000E+00 -0.00000000000E+00 -0.14776728296E+03  0.14776728296E+03  0.00000000000E+00 0.  1.
         24    1    1    2    0    0 -0.33702178965E+02 -0.39320395313E+01 -0.13557723136E+02  0.88330773872E+02  0.80419002446E+02 0. -1.
        -24    1    1    2    0    0  0.33702178965E+02  0.39320395313E+01 -0.77151801783E+02  0.11649426713E+03  0.80419002446E+02 0.  1.
<mgrwt>
<rscale>  0 0.87284098E+02</rscale>
<asrwt>0</asrwt>
<pdfrwt beam="1">  1        2 0.87781166E-02 0.87284098E+02</pdfrwt>
<pdfrwt beam="2">  1       -2 0.22733428E-01 0.87284098E+02</pdfrwt>
<totfact> 0.11376793E+04</totfact>
</mgrwt>
</event>
<event>
 4    3  0.9203887E-001  0.8191436E+02  0.7546771E-02  0.1323705E+00
         -1   -1    0    0    0  501 -0.00000000000E+00  0.00000000000E+00  0.12756790791E+02  0.12756790791E+02  0.00000000000E+00 0.  1.
          1   -1    0    0  501    0  0.00000000000E+00 -0.00000000000E+00 -0.52930759107E+03  0.52930759107E+03  0.00000000000E+00 0. -1.
         24    1    1    2    0    0 -0.12699322414E+02  0.90262295289E+01 -0.23682229815E+03  0.25058883148E+03  0.80419002446E+02 0.  0.
        -24    1    1    2    0    0  0.12699322414E+02 -0.90262295289E+01 -0.27972850213E+03  0.29147555038E+03  0.80419002446E+02 0.  0.
<mgrwt>
<rscale>  0 0.81914355E+02</rscale>
<asrwt>0</asrwt>
<pdfrwt beam="1">  1        1 0.81431936E-01 0.81914355E+02</pdfrwt>
<pdfrwt beam="2">  1       -1 0.19625832E-02 0.81914355E+02</pdfrwt>
<totfact> 0.26204154E+04</totfact>
</mgrwt>
</event>
<event>
 4    3  0.9203887E-001  0.8967397E+02  0.7546771E-02  0.1303643E+00
          1   -1    0    0  501    0  0.00000000000E+00  0.00000000000E+00  0.93366430959E+03  0.93366430959E+03  0.00000000000E+00 0. -1.
         -1   -1    0    0    0  501 -0.00000000000E+00 -0.00000000000E+00 -0.97563811870E+01  0.97563811870E+01  0.00000000000E+00 0.  1.
         24    1    1    2    0    0  0.20439015927E+02 -0.34006629390E+02  0.30045362860E+03  0.31355031989E+03  0.80419002446E+02 0.  1.
        -24    1    1    2    0    0 -0.20439015927E+02  0.34006629390E+02  0.62345429980E+03  0.62987037088E+03  0.80419002446E+02 0. -1.
<mgrwt>
<rscale>  0 0.89673966E+02</rscale>
<asrwt>0</asrwt>
<pdfrwt beam="1">  1        1 0.14364059E+00 0.89673966E+02</pdfrwt>
<pdfrwt beam="2">  1       -1 0.15009825E-02 0.89673966E+02</pdfrwt>
<totfact> 0.17302679E+04</totfact>
</mgrwt>
</event>
<event>
 4    3  0.9203887E-001  0.8758698E+02  0.7546771E-02  0.1308803E+00
         -2   -1    0    0    0  501 -0.00000000000E+00  0.00000000000E+00  0.84902315334E+01  0.84902315334E+01  0.00000000000E+00 0.  1.
          2   -1    0    0  501    0  0.00000000000E+00 -0.00000000000E+00 -0.10427877193E+04  0.10427877193E+04  0.00000000000E+00 0. -1.
         24    1    1    2    0    0  0.34500992498E+02  0.37341403037E+01 -0.70921198823E+03  0.71459997375E+03  0.80419002446E+02 0. -1.
        -24    1    1    2    0    0 -0.34500992498E+02 -0.37341403037E+01 -0.32508549957E+03  0.33667797711E+03  0.80419002446E+02 0.  1.
<mgrwt>
<rscale>  0 0.87586975E+02</rscale>
<asrwt>0</asrwt>
<pdfrwt beam="1">  1        2 0.16042884E+00 0.87586975E+02</pdfrwt>
<pdfrwt beam="2">  1       -2 0.13061898E-02 0.87586975E+02</pdfrwt>
<totfact> 0.32475998E+04</totfact>
</mgrwt>
</event>
<event>
 4    3  0.9203887E-001  0.8253484E+02  0.7546771E-02  0.1322008E+00
         -2   -1    0    0    0  501 -0.00000000000E+00  0.00000000000E+00  0.28563768645E+02  0.28563768645E+02  0.00000000000E+00 0.  1.
          2   -1    0    0  501    0  0.00000000000E+00 -0.00000000000E+00 -0.24953911968E+03  0.24953911968E+03  0.00000000000E+00 0. -1.
         24    1    1    2    0    0 -0.16692081284E+02 -0.81337506512E+01 -0.13975543910E+03  0.16230706143E+03  0.80419002446E+02 0.  0.
        -24    1    1    2    0    0  0.16692081284E+02  0.81337506512E+01 -0.81219911932E+02  0.11579582689E+03  0.80419002446E+02 0. -1.
<mgrwt>
<rscale>  0 0.82534838E+02</rscale>
<asrwt>0</asrwt>
<pdfrwt beam="1">  1        2 0.38390634E-01 0.82534838E+02</pdfrwt>
<pdfrwt beam="2">  1       -2 0.43944259E-02 0.82534838E+02</pdfrwt>
<totfact> 0.27921895E+04</totfact>
</mgrwt>
</event>
<event>
 4    3  0.9203887E-001  0.8473896E+02  0.7546771E-02  0.1316117E+00
         -1   -1    0    0    0  501 -0.00000000000E+00  0.00000000000E+00  0.30114293618E+02  0.30114293618E+02  0.00000000000E+00 0.  1.
          1   -1    0    0  501    0  0.00000000000E+00 -0.00000000000E+00 -0.31340650541E+03  0.31340650541E+03  0.00000000000E+00 0. -1.
         24    1    1    2    0    0 -0.21639709378E+01 -0.26623156546E+02 -0.57646029742E+02  0.10248783310E+03  0.80419002446E+02 0.  1.
        -24    1    1    2    0    0  0.21639709378E+01  0.26623156546E+02 -0.22564618205E+03  0.24103296593E+03  0.80419002446E+02 0. -1.
<mgrwt>
<rscale>  0 0.84738959E+02</rscale>
<asrwt>0</asrwt>
<pdfrwt beam="1">  1        1 0.48216386E-01 0.84738959E+02</pdfrwt>
<pdfrwt beam="2">  1       -1 0.46329682E-02 0.84738959E+02</pdfrwt>
<totfact> 0.14701751E+04</totfact>
</mgrwt>
</event>
<event>
 4    3  0.9203887E-001  0.1049997E+03  0.7546771E-02  0.1270120E+00
         -1   -1    0    0    0  501 -0.00000000000E+00  0.00000000000E+00  0.20238424092E+03  0.20238424092E+03  0.00000000000E+00 0.  1.
          1   -1    0    0  501    0  0.00000000000E+00 -0.00000000000E+00 -0.58028909088E+02  0.58028909088E+02  0.00000000000E+00 0. -1.
         24    1    1    2    0    0 -0.77443246647E+01  0.67065164408E+02  0.39955835998E+02  0.11234498487E+03  0.80419002446E+02 0.  1.
        -24    1    1    2    0    0  0.77443246647E+01 -0.67065164408E+02  0.10439949583E+03  0.14806816513E+03  0.80419002446E+02 0.  0.
<mgrwt>
<rscale>  0 0.10499966E+03</rscale>
<asrwt>0</asrwt>
<pdfrwt beam="1">  1        1 0.89275246E-02 0.10499968E+03</pdfrwt>
<pdfrwt beam="2">  1       -1 0.31136037E-01 0.10499968E+03</pdfrwt>
<totfact> 0.66638974E+03</totfact>
</mgrwt>
</event>
<event>
 4    3  0.9203887E-001  0.8592591E+02  0.7546771E-02  0.1313029E+00
         -2   -1    0    0    0  501 -0.00000000000E+00  0.00000000000E+00  0.70364142030E+01  0.70364142030E+01  0.00000000000E+00 0.  1.
          2   -1    0    0  501    0  0.00000000000E+00 -0.00000000000E+00 -0.13931506389E+04  0.13931506389E+04  0.00000000000E+00 0. -1.
         24    1    1    2    0    0  0.29465354643E+02 -0.69165811827E+01 -0.10408704093E+04  0.10444110643E+04  0.80419002446E+02 0. -1.
        -24    1    1    2    0    0 -0.29465354643E+02  0.69165811827E+01 -0.34524381540E+03  0.35577598886E+03  0.80419002446E+02 0.  1.
<mgrwt>
<rscale>  0 0.85925911E+02</rscale>
<asrwt>0</asrwt>
<pdfrwt beam="1">  1        2 0.21433074E+00 0.85925911E+02</pdfrwt>
<pdfrwt beam="2">  1       -2 0.10825259E-02 0.85925911E+02</pdfrwt>
<totfact> 0.27343883E+04</totfact>
</mgrwt>
</event>
<event>
 4    3  0.9203887E-001  0.1101397E+03  0.7546771E-02  0.1260311E+00
          1   -1    0    0  501    0  0.00000000000E+00  0.00000000000E+00  0.32120836472E+03  0.32120836472E+03  0.00000000000E+00 0. -1.
         -1   -1    0    0    0  501 -0.00000000000E+00 -0.00000000000E+00 -0.63804725953E+03  0.63804725953E+03  0.00000000000E+00 0.  1.
         24    1    1    2    0    0 -0.75248230705E+02 -0.11152738312E+01 -0.62363617946E+03  0.63328732843E+03  0.80419002446E+02 0.  1.
        -24    1    1    2    0    0  0.75248230705E+02  0.11152738312E+01  0.30679728465E+03  0.32596829583E+03  0.80419002446E+02 0. -1.
<mgrwt>
<rscale>  0 0.11013971E+03</rscale>
<asrwt>0</asrwt>
<pdfrwt beam="1">  1        1 0.49416672E-01 0.11013971E+03</pdfrwt>
<pdfrwt beam="2">  1       -1 0.98161116E-01 0.11013971E+03</pdfrwt>
<totfact> 0.88892218E+01</totfact>
</mgrwt>
</event>
<event>
 4    3  0.9203887E-001  0.1274295E+03  0.7546771E-02  0.1231321E+00
          1   -1    0    0  501    0  0.00000000000E+00  0.00000000000E+00  0.45800054002E+03  0.45800054002E+03  0.00000000000E+00 0. -1.
         -1   -1    0    0    0  501 -0.00000000000E+00 -0.00000000000E+00 -0.75294811222E+02  0.75294811222E+02  0.00000000000E+00 0.  1.
         24    1    1    2    0    0 -0.85475687873E+02 -0.49648400148E+02 -0.26086366091E+01  0.12745617990E+03  0.80419002446E+02 0.  1.
        -24    1    1    2    0    0  0.85475687873E+02  0.49648400148E+02  0.38531436540E+03  0.40583917134E+03  0.80419002446E+02 0. -1.
<mgrwt>
<rscale>  0 0.12742948E+03</rscale>
<asrwt>0</asrwt>
<pdfrwt beam="1">  1        1 0.70461620E-01 0.12742948E+03</pdfrwt>
<pdfrwt beam="2">  1       -1 0.11583817E-01 0.12742948E+03</pdfrwt>
<totfact> 0.23974358E+03</totfact>
</mgrwt>
</event>
<event>
 4    3  0.9203887E-001  0.8661718E+02  0.7546771E-02  0.1311257E+00
         -2   -1    0    0    0  501 -0.00000000000E+00  0.00000000000E+00  0.66997329767E+01  0.66997329767E+01  0.00000000000E+00 0.  1.
          2   -1    0    0  501    0  0.00000000000E+00 -0.00000000000E+00 -0.13268354485E+04  0.13268354485E+04  0.00000000000E+00 0. -1.
         24    1    1    2    0    0  0.40371917154E+01  0.31922111023E+02 -0.92343457964E+03  0.92748798317E+03  0.80419002446E+02 0. -1.
        -24    1    1    2    0    0 -0.40371917154E+01 -0.31922111023E+02 -0.39670113583E+03  0.40604719826E+03  0.80419002446E+02 0.  1.
<mgrwt>
<rscale>  0 0.86617181E+02</rscale>
<asrwt>0</asrwt>
<pdfrwt beam="1">  1        2 0.20412848E+00 0.86617181E+02</pdfrwt>
<pdfrwt beam="2">  1       -2 0.10307284E-02 0.86617181E+02</pdfrwt>
<totfact> 0.31757144E+04</totfact>
</mgrwt>
</event>
<event>
 4    3  0.9203887E-001  0.8670183E+02  0.7546771E-02  0.1311041E+00
          3   -1    0    0  501    0  0.00000000000E+00  0.00000000000E+00  0.15746530930E+03  0.15746530930E+03  0.00000000000E+00 0. -1.
         -3   -1    0    0    0  501 -0.00000000000E+00 -0.00000000000E+00 -0.49436535102E+02  0.49436535102E+02  0.00000000000E+00 0.  1.
         24    1    1    2    0    0  0.23596821273E+02  0.22207622057E+02  0.73185429415E+02  0.11346061645E+03  0.80419002446E+02 0.  1.
        -24    1    1    2    0    0 -0.23596821273E+02 -0.22207622057E+02  0.34843344782E+02  0.93441227954E+02  0.80419002446E+02 0.  0.
<mgrwt>
<rscale>  0 0.86701824E+02</rscale>
<asrwt>0</asrwt>
<pdfrwt beam="1">  1        3 0.24225432E-01 0.86701835E+02</pdfrwt>
<pdfrwt beam="2">  1       -3 0.76056208E-02 0.86701835E+02</pdfrwt>
<totfact> 0.38310881E+03</totfact>
</mgrwt>
</event>
<event>
 4    3  0.9203887E-001  0.9181372E+02  0.7546771E-02  0.1298518E+00
          3   -1    0    0  501    0  0.00000000000E+00  0.00000000000E+00  0.16519712246E+03  0.16519712246E+03  0.00000000000E+00 0. -1.
         -3   -1    0    0    0  501 -0.00000000000E+00 -0.00000000000E+00 -0.83623304888E+02  0.83623304888E+02  0.00000000000E+00 0.  1.
         24    1    1    2    0    0 -0.40866885260E+02  0.17100878814E+02 -0.36885484633E+02  0.98945931185E+02  0.80419002446E+02 0.  1.
        -24    1    1    2    0    0  0.40866885260E+02 -0.17100878814E+02  0.11845930221E+03  0.14987449617E+03  0.80419002446E+02 0. -1.
<mgrwt>
<rscale>  0 0.91813715E+02</rscale>
<asrwt>0</asrwt>
<pdfrwt beam="1">  1        3 0.25414942E-01 0.91813715E+02</pdfrwt>
<pdfrwt beam="2">  1       -3 0.12865124E-01 0.91813715E+02</pdfrwt>
<totfact> 0.15064208E+03</totfact>
</mgrwt>
</event>
<event>
 4    3  0.9203887E-001  0.8502950E+02  0.7546771E-02  0.1315355E+00
          1   -1    0    0  501    0  0.00000000000E+00  0.00000000000E+00  0.22189807822E+03  0.22189807822E+03  0.00000000000E+00 0. -1.
         -1   -1    0    0    0  501 -0.00000000000E+00 -0.00000000000E+00 -0.32835285139E+02  0.32835285139E+02  0.00000000000E+00 0.  1.
         24    1    1    2    0    0 -0.91752209932E+01 -0.26050231944E+02  0.83358145263E+02  0.11907390814E+03  0.80419002446E+02 0.  1.
        -24    1    1    2    0    0  0.91752209932E+01  0.26050231944E+02  0.10570464782E+03  0.13565945522E+03  0.80419002446E+02 0. -1.
<mgrwt>
<rscale>  0 0.85029496E+02</rscale>
<asrwt>0</asrwt>
<pdfrwt beam="1">  1        1 0.34138165E-01 0.85029496E+02</pdfrwt>
<pdfrwt beam="2">  1       -1 0.50515825E-02 0.85029496E+02</pdfrwt>
<totfact> 0.19739103E+04</totfact>
</mgrwt>
</event>
<event>
 4    3  0.9203887E-001  0.1029251E+03  0.7546771E-02  0.1274262E+00
          2   -1    0    0  501    0  0.00000000000E+00  0.00000000000E+00  0.82288902162E+03  0.82288902162E+03  0.00000000000E+00 0. -1.
         -2   -1    0    0    0  501 -0.00000000000E+00 -0.00000000000E+00 -0.28227408751E+02  0.28227408751E+02  0.00000000000E+00 0.  1.
         24    1    1    2    0    0 -0.15549861593E+02  0.62326271624E+02  0.71118717729E+03  0.71859639536E+03  0.80419002446E+02 0. -1.
        -24    1    1    2    0    0  0.15549861593E+02 -0.62326271624E+02  0.83474435586E+02  0.13252003502E+03  0.80419002446E+02 0.  1.
<mgrwt>
<rscale>  0 0.10292511E+03</rscale>
<asrwt>0</asrwt>
<pdfrwt beam="1">  1        2 0.12659829E+00 0.10292511E+03</pdfrwt>
<pdfrwt beam="2">  1       -2 0.43426789E-02 0.10292511E+03</pdfrwt>
<totfact> 0.78780883E+03</totfact>
</mgrwt>
</event>
<event>
 4    3  0.9203887E-001  0.8534894E+02  0.7546771E-02  0.1314523E+00
         -2   -1    0    0    0  501 -0.00000000000E+00  0.00000000000E+00  0.26419619300E+02  0.26419619300E+02  0.00000000000E+00 0.  1.
          2   -1    0    0  501    0  0.00000000000E+00 -0.00000000000E+00 -0.53538799973E+03  0.53538799973E+03  0.00000000000E+00 0. -1.
         24    1    1    2    0    0 -0.28238893491E+02  0.44486631392E+01 -0.45011252672E+03  0.45813287196E+03  0.80419002446E+02 0. -1.
        -24    1    1    2    0    0  0.28238893491E+02 -0.44486631392E+01 -0.58855853716E+02  0.10367474707E+03  0.80419002446E+02 0.  1.
<mgrwt>
<rscale>  0 0.85348941E+02</rscale>
<asrwt>0</asrwt>
<pdfrwt beam="1">  1        2 0.82367383E-01 0.85348941E+02</pdfrwt>
<pdfrwt beam="2">  1       -2 0.40645569E-02 0.85348941E+02</pdfrwt>
<totfact> 0.14070460E+04</totfact>
</mgrwt>
</event>
<event>
 4    3  0.9203887E-001  0.1000685E+03  0.7546771E-02  0.1280152E+00
         -2   -1    0    0    0  501 -0.00000000000E+00  0.00000000000E+00  0.45965167242E+02  0.45965167242E+02  0.00000000000E+00 0.  1.
          2   -1    0    0  501    0  0.00000000000E+00 -0.00000000000E+00 -0.66458454007E+03  0.66458454007E+03  0.00000000000E+00 0. -1.
         24    1    1    2    0    0  0.51452517208E+02  0.29985375753E+02 -0.60059066442E+03  0.60887013922E+03  0.80419002446E+02 0. -1.
        -24    1    1    2    0    0 -0.51452517208E+02 -0.29985375753E+02 -0.18028708403E+02  0.10167956809E+03  0.80419002446E+02 0.  1.
<mgrwt>
<rscale>  0 0.10006848E+03</rscale>
<asrwt>0</asrwt>
<pdfrwt beam="1">  1        2 0.10224376E+00 0.10006848E+03</pdfrwt>
<pdfrwt beam="2">  1       -2 0.70715652E-02 0.10006848E+03</pdfrwt>
<totfact> 0.48890310E+03</totfact>
</mgrwt>
</event>
<event>
 4    3  0.9203887E-001  0.9023324E+02  0.7546771E-02  0.1302288E+00
          2   -1    0    0  501    0  0.00000000000E+00  0.00000000000E+00  0.26935031193E+03  0.26935031193E+03  0.00000000000E+00 0. -1.
         -2   -1    0    0    0  501 -0.00000000000E+00 -0.00000000000E+00 -0.30601229282E+02  0.30601229282E+02  0.00000000000E+00 0.  1.
         24    1    1    2    0    0  0.21091041186E+02  0.35071159654E+02  0.10282083160E+03  0.13679969891E+03  0.80419002446E+02 0. -1.
        -24    1    1    2    0    0 -0.21091041186E+02 -0.35071159654E+02  0.13592825105E+03  0.16315184230E+03  0.80419002446E+02 0.  0.
<mgrwt>
<rscale>  0 0.90233233E+02</rscale>
<asrwt>0</asrwt>
<pdfrwt beam="1">  1        2 0.41438508E-01 0.90233244E+02</pdfrwt>
<pdfrwt beam="2">  1       -2 0.47078816E-02 0.90233244E+02</pdfrwt>
<totfact> 0.23524445E+04</totfact>
</mgrwt>
</event>
<event>
 4    3  0.9203887E-001  0.1101928E+03  0.7546771E-02  0.1260213E+00
          2   -1    0    0  501    0  0.00000000000E+00  0.00000000000E+00  0.12889766008E+04  0.12889766008E+04  0.00000000000E+00 0. -1.
         -2   -1    0    0    0  501 -0.00000000000E+00 -0.00000000000E+00 -0.15443646428E+02  0.15443646428E+02  0.00000000000E+00 0.  1.
         24    1    1    2    0    0 -0.41731726920E+02  0.62719287435E+02  0.10440847453E+04  0.10498835256E+04  0.80419002446E+02 0.  0.
        -24    1    1    2    0    0  0.41731726920E+02 -0.62719287435E+02  0.22944820913E+03  0.25453672166E+03  0.80419002446E+02 0.  1.
<mgrwt>
<rscale>  0 0.11019284E+03</rscale>
<asrwt>0</asrwt>
<pdfrwt beam="1">  1        2 0.19830401E+00 0.11019284E+03</pdfrwt>
<pdfrwt beam="2">  1       -2 0.23759466E-02 0.11019284E+03</pdfrwt>
<totfact> 0.10239385E+04</totfact>
</mgrwt>
</event>
<event>
 4    3  0.9203887E-001  0.8196368E+02  0.7546771E-02  0.1323569E+00
          2   -1    0    0  501    0  0.00000000000E+00  0.00000000000E+00  0.64181892843E+02  0.64181892843E+02  0.00000000000E+00 0. -1.
         -2   -1    0    0    0  501 -0.00000000000E+00 -0.00000000000E+00 -0.11281642723E+04  0.11281642723E+04  0.00000000000E+00 0.  1.
         24    1    1    2    0    0 -0.13932203930E+02 -0.75314220748E+01  0.35852082765E+02  0.89461815417E+02  0.80419002446E+02 0. -1.
        -24    1    1    2    0    0  0.13932203930E+02  0.75314220748E+01 -0.10998344622E+04  0.11028843497E+04  0.80419002446E+02 0.  1.
<mgrwt>
<rscale>  0 0.81963678E+02</rscale>
<asrwt>0</asrwt>
<pdfrwt beam="1">  1        2 0.98741372E-02 0.81963678E+02</pdfrwt>
<pdfrwt beam="2">  1       -2 0.17356374E+00 0.81963678E+02</pdfrwt>
<totfact> 0.14031491E+02</totfact>
</mgrwt>
</event>
<event>
 4    3  0.9203887E-001  0.1023240E+03  0.7546771E-02  0.1275484E+00
         -2   -1    0    0    0  501 -0.00000000000E+00  0.00000000000E+00  0.45746895861E+02  0.45746895861E+02  0.00000000000E+00 0.  1.
          2   -1    0    0  501    0  0.00000000000E+00 -0.00000000000E+00 -0.96907733349E+03  0.96907733349E+03  0.00000000000E+00 0. -1.
         24    1    1    2    0    0 -0.57898257687E+02 -0.25510127700E+02 -0.90512850672E+03  0.91089395897E+03  0.80419002446E+02 0. -1.
        -24    1    1    2    0    0  0.57898257687E+02  0.25510127700E+02 -0.18201930911E+02  0.10393027038E+03  0.80419002446E+02 0.  1.
<mgrwt>
<rscale>  0 0.10232395E+03</rscale>
<asrwt>0</asrwt>
<pdfrwt beam="1">  1        2 0.14908880E+00 0.10232395E+03</pdfrwt>
<pdfrwt beam="2">  1       -2 0.70379848E-02 0.10232395E+03</pdfrwt>
<totfact> 0.30944549E+03</totfact>
</mgrwt>
</event>
<event>
 4    3  0.9203887E-001  0.8178762E+02  0.7546771E-02  0.1324054E+00
         -2   -1    0    0    0  501 -0.00000000000E+00  0.00000000000E+00  0.66669637793E+01  0.66669637793E+01  0.00000000000E+00 0.  1.
          2   -1    0    0  501    0  0.00000000000E+00 -0.00000000000E+00 -0.10118830784E+04  0.10118830784E+04  0.00000000000E+00 0. -1.
         24    1    1    2    0    0  0.14890686473E+02  0.51609382674E+00 -0.54940932715E+03  0.55546361142E+03  0.80419002446E+02 0. -1.
        -24    1    1    2    0    0 -0.14890686473E+02 -0.51609382674E+00 -0.45580678752E+03  0.46308643081E+03  0.80419002446E+02 0.  1.
<mgrwt>
<rscale>  0 0.81787620E+02</rscale>
<asrwt>0</asrwt>
<pdfrwt beam="1">  1        2 0.15567424E+00 0.81787620E+02</pdfrwt>
<pdfrwt beam="2">  1       -2 0.10256872E-02 0.81787620E+02</pdfrwt>
<totfact> 0.47309227E+04</totfact>
</mgrwt>
</event>
<event>
 4    3  0.9203887E-001  0.8264639E+02  0.7546771E-02  0.1321705E+00
         -2   -1    0    0    0  501 -0.00000000000E+00  0.00000000000E+00  0.48876240252E+02  0.48876240252E+02  0.00000000000E+00 0.  1.
          2   -1    0    0  501    0  0.00000000000E+00 -0.00000000000E+00 -0.23921723841E+03  0.23921723841E+03  0.00000000000E+00 0. -1.
         24    1    1    2    0    0  0.10391169227E+02 -0.15976022836E+02 -0.18805612620E+03  0.20541551124E+03  0.80419002446E+02 0. -1.
        -24    1    1    2    0    0 -0.10391169227E+02  0.15976022836E+02 -0.22848719666E+01  0.82677967427E+02  0.80419002446E+02 0.  0.
<mgrwt>
<rscale>  0 0.82646389E+02</rscale>
<asrwt>0</asrwt>
<pdfrwt beam="1">  1        2 0.36802652E-01 0.82646389E+02</pdfrwt>
<pdfrwt beam="2">  1       -2 0.75194216E-02 0.82646389E+02</pdfrwt>
<totfact> 0.13087367E+04</totfact>
</mgrwt>
</event>
<event>
 4    3  0.9203887E-001  0.8373965E+02  0.7546771E-02  0.1318762E+00
          2   -1    0    0  501    0  0.00000000000E+00  0.00000000000E+00  0.14350361864E+04  0.14350361864E+04  0.00000000000E+00 0. -1.
         -2   -1    0    0    0  501 -0.00000000000E+00 -0.00000000000E+00 -0.77521067805E+01  0.77521067805E+01  0.00000000000E+00 0.  1.
         24    1    1    2    0    0  0.11708259148E+02 -0.20199739579E+02  0.11522431720E+04  0.11552820678E+04  0.80419002446E+02 0. -1.
        -24    1    1    2    0    0 -0.11708259148E+02  0.20199739579E+02  0.27504090757E+03  0.28750622533E+03  0.80419002446E+02 0.  0.
<mgrwt>
<rscale>  0 0.83739649E+02</rscale>
<asrwt>0</asrwt>
<pdfrwt beam="1">  1        2 0.22077459E+00 0.83739649E+02</pdfrwt>
<pdfrwt beam="2">  1       -2 0.11926330E-02 0.83739649E+02</pdfrwt>
<totfact> 0.22635103E+04</totfact>
</mgrwt>
</event>
<event>
 4    3  0.9203887E-001  0.8670798E+02  0.7546771E-02  0.1311025E+00
         -2   -1    0    0    0  501 -0.00000000000E+00  0.00000000000E+00  0.63154124048E+03  0.63154124048E+03  0.00000000000E+00 0.  1.
          2   -1    0    0  501    0  0.00000000000E+00 -0.00000000000E+00 -0.16831670596E+02  0.16831670596E+02  0.00000000000E+00 0. -1.
         24    1    1    2    0    0  0.51981854981E+01 -0.32000584973E+02  0.13195718516E+03  0.15789545035E+03  0.80419002446E+02 0. -1.
        -24    1    1    2    0    0 -0.51981854981E+01  0.32000584973E+02  0.48275238473E+03  0.49047746073E+03  0.80419002446E+02 0.  1.
<mgrwt>
<rscale>  0 0.86707984E+02</rscale>
<asrwt>0</asrwt>
<pdfrwt beam="1">  1        2 0.25894883E-02 0.86707984E+02</pdfrwt>
<pdfrwt beam="2">  1       -2 0.97160173E-01 0.86707984E+02</pdfrwt>
<totfact> 0.32151830E+03</totfact>
</mgrwt>
</event>
<event>
 4    3  0.9203887E-001  0.8195876E+02  0.7546771E-02  0.1323583E+00
         -1   -1    0    0    0  501 -0.00000000000E+00  0.00000000000E+00  0.24827681885E+02  0.24827681885E+02  0.00000000000E+00 0.  1.
          1   -1    0    0  501    0  0.00000000000E+00 -0.00000000000E+00 -0.33931109697E+03  0.33931109697E+03  0.00000000000E+00 0. -1.
         24    1    1    2    0    0  0.13727145131E+02 -0.78477880695E+01 -0.75282934379E+02  0.11128682965E+03  0.80419002446E+02 0.  0.
        -24    1    1    2    0    0 -0.13727145131E+02  0.78477880695E+01 -0.23920048070E+03  0.25285194920E+03  0.80419002446E+02 0. -1.
<mgrwt>
<rscale>  0 0.81958759E+02</rscale>
<asrwt>0</asrwt>
<pdfrwt beam="1">  1        1 0.52201707E-01 0.81958759E+02</pdfrwt>
<pdfrwt beam="2">  1       -1 0.38196434E-02 0.81958759E+02</pdfrwt>
<totfact> 0.17595734E+04</totfact>
</mgrwt>
</event>
<event>
 4    3  0.9203887E-001  0.9289165E+02  0.7546771E-02  0.1295996E+00
         -1   -1    0    0    0  501 -0.00000000000E+00  0.00000000000E+00  0.46440158276E+01  0.46440158276E+01  0.00000000000E+00 0.  1.
          1   -1    0    0  501    0  0.00000000000E+00 -0.00000000000E+00 -0.20412302715E+04  0.20412302715E+04  0.00000000000E+00 0. -1.
         24    1    1    2    0    0 -0.42565277171E+02 -0.18703892200E+02 -0.13247235613E+04  0.13279764185E+04  0.80419002446E+02 0.  1.
        -24    1    1    2    0    0  0.42565277171E+02  0.18703892200E+02 -0.71186269441E+03  0.71789786882E+03  0.80419002446E+02 0.  0.
<mgrwt>
<rscale>  0 0.92891639E+02</rscale>
<asrwt>0</asrwt>
<pdfrwt beam="1">  1        1 0.31403580E+00 0.92891650E+02</pdfrwt>
<pdfrwt beam="2">  1       -1 0.71446312E-03 0.92891650E+02</pdfrwt>
<totfact> 0.93414210E+03</totfact>
</mgrwt>
</event>
<event>
 4    3  0.9203887E-001  0.9953300E+02  0.7546771E-02  0.1281281E+00
         -2   -1    0    0    0  501 -0.00000000000E+00  0.00000000000E+00  0.18131855608E+03  0.18131855608E+03  0.00000000000E+00 0.  1.
          2   -1    0    0  501    0  0.00000000000E+00 -0.00000000000E+00 -0.70111915510E+02  0.70111915510E+02  0.00000000000E+00 0. -1.
         24    1    1    2    0    0 -0.50108385040E+02 -0.30475443853E+02 -0.34571759315E+01  0.99593026609E+02  0.80419002446E+02 0. -1.
        -24    1    1    2    0    0  0.50108385040E+02  0.30475443853E+02  0.11466381650E+03  0.15183744498E+03  0.80419002446E+02 0.  1.
<mgrwt>
<rscale>  0 0.99533004E+02</rscale>
<asrwt>0</asrwt>
<pdfrwt beam="1">  1        2 0.10786449E-01 0.99533004E+02</pdfrwt>
<pdfrwt beam="2">  1       -2 0.27895162E-01 0.99533004E+02</pdfrwt>
<totfact> 0.62871861E+03</totfact>
</mgrwt>
</event>
<event>
 4    3  0.9203887E-001  0.8464489E+02  0.7546771E-02  0.1316364E+00
         -1   -1    0    0    0  501 -0.00000000000E+00  0.00000000000E+00  0.25526504852E+02  0.25526504852E+02  0.00000000000E+00 0.  1.
          1   -1    0    0  501    0  0.00000000000E+00 -0.00000000000E+00 -0.33382663132E+03  0.33382663132E+03  0.00000000000E+00 0. -1.
         24    1    1    2    0    0 -0.26408385364E+02 -0.37253962392E+00 -0.82457795496E+02  0.11816956290E+03  0.80419002446E+02 0.  1.
        -24    1    1    2    0    0  0.26408385364E+02  0.37253962392E+00 -0.22584233097E+03  0.24118357327E+03  0.80419002446E+02 0.  1.
<mgrwt>
<rscale>  0 0.84644891E+02</rscale>
<asrwt>0</asrwt>
<pdfrwt beam="1">  1        1 0.51357944E-01 0.84644891E+02</pdfrwt>
<pdfrwt beam="2">  1       -1 0.39271546E-02 0.84644891E+02</pdfrwt>
<totfact> 0.17301755E+04</totfact>
</mgrwt>
</event>
<event>
 4    3  0.9203887E-001  0.1125304E+03  0.7546771E-02  0.1255954E+00
         -2   -1    0    0    0  501 -0.00000000000E+00  0.00000000000E+00  0.10776521420E+03  0.10776521420E+03  0.00000000000E+00 0.  1.
          2   -1    0    0  501    0  0.00000000000E+00 -0.00000000000E+00 -0.15783639249E+03  0.15783639249E+03  0.00000000000E+00 0. -1.
         24    1    1    2    0    0  0.74819519213E+02 -0.24452323766E+02 -0.92164822946E+02  0.14545599725E+03  0.80419002446E+02 0.  1.
        -24    1    1    2    0    0 -0.74819519213E+02  0.24452323766E+02  0.42093644658E+02  0.12014560944E+03  0.80419002446E+02 0. -1.
<mgrwt>
<rscale>  0 0.11253041E+03</rscale>
<asrwt>0</asrwt>
<pdfrwt beam="1">  1        2 0.24282522E-01 0.11253041E+03</pdfrwt>
<pdfrwt beam="2">  1       -2 0.16579264E-01 0.11253041E+03</pdfrwt>
<totfact> 0.60400532E+03</totfact>
</mgrwt>
</event>
<event>
 4    3  0.9203887E-001  0.8793316E+02  0.7546771E-02  0.1307935E+00
          2   -1    0    0  501    0  0.00000000000E+00  0.00000000000E+00  0.26719501392E+02  0.26719501392E+02  0.00000000000E+00 0. -1.
         -2   -1    0    0    0  501 -0.00000000000E+00 -0.00000000000E+00 -0.46812055209E+03  0.46812055209E+03  0.00000000000E+00 0.  1.
         24    1    1    2    0    0 -0.99060617677E+00  0.35553378968E+02 -0.67816999240E+02  0.11104677121E+03  0.80419002446E+02 0. -1.
        -24    1    1    2    0    0  0.99060617677E+00 -0.35553378968E+02 -0.37358405146E+03  0.38379328227E+03  0.80419002446E+02 0.  1.
<mgrwt>
<rscale>  0 0.87933156E+02</rscale>
<asrwt>0</asrwt>
<pdfrwt beam="1">  1        2 0.41106927E-02 0.87933156E+02</pdfrwt>
<pdfrwt beam="2">  1       -2 0.72018543E-01 0.87933156E+02</pdfrwt>
<totfact> 0.33709681E+03</totfact>
</mgrwt>
</event>
<event>
 4    3  0.9203887E-001  0.1036355E+03  0.7546771E-02  0.1272832E+00
         -3   -1    0    0    0  501 -0.00000000000E+00  0.00000000000E+00  0.16467838279E+03  0.16467838279E+03  0.00000000000E+00 0.  1.
          3   -1    0    0  501    0  0.00000000000E+00 -0.00000000000E+00 -0.90530571477E+02  0.90530571477E+02  0.00000000000E+00 0. -1.
         24    1    1    2    0    0  0.22893745836E+02  0.61228833586E+02  0.10454535090E+03  0.14720747267E+03  0.80419002446E+02 0.  1.
        -24    1    1    2    0    0 -0.22893745836E+02 -0.61228833586E+02 -0.30397539582E+02  0.10800148160E+03  0.80419002446E+02 0. -1.
<mgrwt>
<rscale>  0 0.10363547E+03</rscale>
<asrwt>0</asrwt>
<pdfrwt beam="1">  1        3 0.13927780E-01 0.10363547E+03</pdfrwt>
<pdfrwt beam="2">  1       -3 0.25335136E-01 0.10363547E+03</pdfrwt>
<totfact> 0.13561696E+03</totfact>
</mgrwt>
</event>
<event>
 4    3  0.9203887E-001  0.8202213E+02  0.7546771E-02  0.1323409E+00
         -2   -1    0    0    0  501 -0.00000000000E+00  0.00000000000E+00  0.36610083558E+01  0.36610083558E+01  0.00000000000E+00 0.  1.
          2   -1    0    0  501    0  0.00000000000E+00 -0.00000000000E+00 -0.18405337502E+04  0.18405337502E+04  0.00000000000E+00 0. -1.
         24    1    1    2    0    0 -0.12246068307E+02  0.10509374586E+02 -0.95497517816E+03  0.95849111629E+03  0.80419002446E+02 0.  0.
        -24    1    1    2    0    0  0.12246068307E+02 -0.10509374586E+02 -0.88189756364E+03  0.88570364223E+03  0.80419002446E+02 0. -1.
<mgrwt>
<rscale>  0 0.82022126E+02</rscale>
<asrwt>0</asrwt>
<pdfrwt beam="1">  1        2 0.28315914E+00 0.82022126E+02</pdfrwt>
<pdfrwt beam="2">  1       -2 0.56323185E-03 0.82022126E+02</pdfrwt>
<totfact> 0.40596368E+04</totfact>
</mgrwt>
</event>
<event>
 4    3  0.9203887E-001  0.8162888E+02  0.7546771E-02  0.1324491E+00
         -2   -1    0    0    0  501 -0.00000000000E+00  0.00000000000E+00  0.15425612019E+02  0.15425612019E+02  0.00000000000E+00 0.  1.
          2   -1    0    0  501    0  0.00000000000E+00 -0.00000000000E+00 -0.47547588234E+03  0.47547588234E+03  0.00000000000E+00 0. -1.
         24    1    1    2    0    0 -0.53205483760E+01 -0.12951818132E+02 -0.30427838459E+03  0.31503747255E+03  0.80419002446E+02 0.  0.
        -24    1    1    2    0    0  0.53205483760E+01  0.12951818132E+02 -0.15577188574E+03  0.17586402181E+03  0.80419002446E+02 0.  1.
<mgrwt>
<rscale>  0 0.81628878E+02</rscale>
<asrwt>0</asrwt>
<pdfrwt beam="1">  1        2 0.73150142E-01 0.81628878E+02</pdfrwt>
<pdfrwt beam="2">  1       -2 0.23731709E-02 0.81628878E+02</pdfrwt>
<totfact> 0.34782573E+04</totfact>
</mgrwt>
</event>
<event>
 4    3  0.9203887E-001  0.8369756E+02  0.7546771E-02  0.1318874E+00
          1   -1    0    0  501    0  0.00000000000E+00  0.00000000000E+00  0.43463455580E+03  0.43463455580E+03  0.00000000000E+00 0. -1.
         -1   -1    0    0    0  501 -0.00000000000E+00 -0.00000000000E+00 -0.20120587822E+03  0.20120587822E+03  0.00000000000E+00 0.  1.
         24    1    1    2    0    0  0.21163942639E+02 -0.94948772222E+01 -0.18820658769E+03  0.20597815604E+03  0.80419002446E+02 0.  1.
        -24    1    1    2    0    0 -0.21163942639E+02  0.94948772222E+01  0.42163526527E+03  0.42986227798E+03  0.80419002446E+02 0. -1.
<mgrwt>
<rscale>  0 0.83697557E+02</rscale>
<asrwt>0</asrwt>
<pdfrwt beam="1">  1        1 0.66866855E-01 0.83697557E+02</pdfrwt>
<pdfrwt beam="2">  1       -1 0.30954751E-01 0.83697557E+02</pdfrwt>
<totfact> 0.53193846E+02</totfact>
</mgrwt>
</event>
<event>
 4    3  0.9203887E-001  0.1260656E+03  0.7546771E-02  0.1233413E+00
         -1   -1    0    0    0  501 -0.00000000000E+00  0.00000000000E+00  0.11979438923E+03  0.11979438923E+03  0.00000000000E+00 0.  1.
          1   -1    0    0  501    0  0.00000000000E+00 -0.00000000000E+00 -0.80223107931E+03  0.80223107931E+03  0.00000000000E+00 0. -1.
         24    1    1    2    0    0  0.52053646835E+02 -0.81949648174E+02  0.79954000422E+02  0.14928223311E+03  0.80419002446E+02 0.  1.
        -24    1    1    2    0    0 -0.52053646835E+02  0.81949648174E+02 -0.76239069050E+03  0.77274323543E+03  0.80419002446E+02 0. -1.
<mgrwt>
<rscale>  0 0.12606563E+03</rscale>
<asrwt>0</asrwt>
<pdfrwt beam="1">  1        1 0.12342016E+00 0.12606563E+03</pdfrwt>
<pdfrwt beam="2">  1       -1 0.18429907E-01 0.12606563E+03</pdfrwt>
<totfact> 0.53794316E+02</totfact>
</mgrwt>
</event>
<event>
 4    3  0.9203887E-001  0.9183860E+02  0.7546771E-02  0.1298459E+00
          1   -1    0    0  501    0  0.00000000000E+00  0.00000000000E+00  0.17493843803E+04  0.17493843803E+04  0.00000000000E+00 0. -1.
         -1   -1    0    0    0  501 -0.00000000000E+00 -0.00000000000E+00 -0.93164730908E+01  0.93164730908E+01  0.00000000000E+00 0.  1.
         24    1    1    2    0    0 -0.34853223207E+02  0.27429268936E+02  0.25922015229E+03  0.27500802765E+03  0.80419002446E+02 0.  1.
        -24    1    1    2    0    0  0.34853223207E+02 -0.27429268936E+02  0.14808477549E+04  0.14836928257E+04  0.80419002446E+02 0. -1.
<mgrwt>
<rscale>  0 0.91838597E+02</rscale>
<asrwt>0</asrwt>
<pdfrwt beam="1">  1        1 0.26913580E+00 0.91838597E+02</pdfrwt>
<pdfrwt beam="2">  1       -1 0.14333049E-02 0.91838597E+02</pdfrwt>
<totfact> 0.53257045E+03</totfact>
</mgrwt>
</event>
<event>
 4    3  0.9203887E-001  0.8524600E+02  0.7546771E-02  0.1314790E+00
          2   -1    0    0  501    0  0.00000000000E+00  0.00000000000E+00  0.49906041859E+03  0.49906041859E+03  0.00000000000E+00 0. -1.
         -2   -1    0    0    0  501 -0.00000000000E+00 -0.00000000000E+00 -0.15512933978E+02  0.15512933978E+02  0.00000000000E+00 0.  1.
         24    1    1    2    0    0  0.25519518489E+02  0.12182737047E+02  0.30550395235E+03  0.31717431447E+03  0.80419002446E+02 0. -1.
        -24    1    1    2    0    0 -0.25519518489E+02 -0.12182737047E+02  0.17804353226E+03  0.19739903810E+03  0.80419002446E+02 0.  1.
<mgrwt>
<rscale>  0 0.85246002E+02</rscale>
<asrwt>0</asrwt>
<pdfrwt beam="1">  1        2 0.76778514E-01 0.85246002E+02</pdfrwt>
<pdfrwt beam="2">  1       -2 0.23866056E-02 0.85246002E+02</pdfrwt>
<totfact> 0.32922698E+04</totfact>
</mgrwt>
</event>
<event>
 4    3  0.9203887E-001  0.8218056E+02  0.7546771E-02  0.1322975E+00
          2   -1    0    0  501    0  0.00000000000E+00  0.00000000000E+00  0.11956470572E+03  0.11956470572E+03  0.00000000000E+00 0. -1.
         -2   -1    0    0    0  501 -0.00000000000E+00 -0.00000000000E+00 -0.57438226131E+02  0.57438226131E+02  0.00000000000E+00 0.  1.
         24    1    1    2    0    0 -0.13058656803E+02 -0.10765690725E+02  0.42462761538E+02  0.92502598267E+02  0.80419002446E+02 0. -1.
        -24    1    1    2    0    0  0.13058656803E+02  0.10765690725E+02  0.19663718053E+02  0.84500333587E+02  0.80419002446E+02 0.  1.
<mgrwt>
<rscale>  0 0.82180561E+02</rscale>
<asrwt>0</asrwt>
<pdfrwt beam="1">  1        2 0.18394570E-01 0.82180561E+02</pdfrwt>
<pdfrwt beam="2">  1       -2 0.88366502E-02 0.82180561E+02</pdfrwt>
<totfact> 0.21665047E+04</totfact>
</mgrwt>
</event>
<event>
 4    3  0.9203887E-001  0.8432819E+02  0.7546771E-02  0.1317199E+00
          2   -1    0    0  501    0  0.00000000000E+00  0.00000000000E+00  0.97124248202E+03  0.97124248202E+03  0.00000000000E+00 0. -1.
         -2   -1    0    0    0  501 -0.00000000000E+00 -0.00000000000E+00 -0.27406099567E+02  0.27406099567E+02  0.00000000000E+00 0.  1.
         24    1    1    2    0    0  0.97808326038E+01  0.23417161375E+02  0.89937025048E+03  0.90331505663E+03  0.80419002446E+02 0. -1.
        -24    1    1    2    0    0 -0.97808326038E+01 -0.23417161375E+02  0.44466131970E+02  0.95333524954E+02  0.80419002446E+02 0.  1.
<mgrwt>
<rscale>  0 0.84328193E+02</rscale>
<asrwt>0</asrwt>
<pdfrwt beam="1">  1        2 0.14942189E+00 0.84328193E+02</pdfrwt>
<pdfrwt beam="2">  1       -2 0.42163237E-02 0.84328193E+02</pdfrwt>
<totfact> 0.65767628E+03</totfact>
</mgrwt>
</event>
<event>
 4    3  0.9203887E-001  0.1111710E+03  0.7546771E-02  0.1258417E+00
          2   -1    0    0  501    0  0.00000000000E+00  0.00000000000E+00  0.18309311001E+03  0.18309311001E+03  0.00000000000E+00 0. -1.
         -2   -1    0    0    0  501 -0.00000000000E+00 -0.00000000000E+00 -0.34892233759E+03  0.34892233759E+03  0.00000000000E+00 0.  1.
         24    1    1    2    0    0 -0.64845818129E+02 -0.41070608642E+02  0.15598105446E+03  0.19154393837E+03  0.80419002446E+02 0. -1.
        -24    1    1    2    0    0  0.64845818129E+02  0.41070608642E+02 -0.32181028204E+03  0.34047150924E+03  0.80419002446E+02 0.  1.
<mgrwt>
<rscale>  0 0.11117100E+03</rscale>
<asrwt>0</asrwt>
<pdfrwt beam="1">  1        2 0.28168171E-01 0.11117100E+03</pdfrwt>
<pdfrwt beam="2">  1       -2 0.53680359E-01 0.11117100E+03</pdfrwt>
<totfact> 0.61952449E+02</totfact>
</mgrwt>
</event>
<event>
 4    3  0.9203887E-001  0.8876804E+02  0.7546771E-02  0.1305863E+00
          2   -1    0    0  501    0  0.00000000000E+00  0.00000000000E+00  0.72209358523E+02  0.72209358523E+02  0.00000000000E+00 0. -1.
         -2   -1    0    0    0  501 -0.00000000000E+00 -0.00000000000E+00 -0.10922919067E+03  0.10922919067E+03  0.00000000000E+00 0.  1.
         24    1    1    2    0    0 -0.18721164633E+02  0.32589356863E+02 -0.15692820186E+02  0.90144488160E+02  0.80419002446E+02 0. -1.
        -24    1    1    2    0    0  0.18721164633E+02 -0.32589356863E+02 -0.21327011957E+02  0.91294061030E+02  0.80419002446E+02 0.  1.
<mgrwt>
<rscale>  0 0.88768036E+02</rscale>
<asrwt>0</asrwt>
<pdfrwt beam="1">  1        2 0.11109132E-01 0.88768036E+02</pdfrwt>
<pdfrwt beam="2">  1       -2 0.16804491E-01 0.88768036E+02</pdfrwt>
<totfact> 0.14190588E+04</totfact>
</mgrwt>
</event>
<event>
 4    3  0.9203887E-001  0.9818126E+02  0.7546771E-02  0.1284168E+00
          1   -1    0    0  501    0  0.00000000000E+00  0.00000000000E+00  0.16899115014E+03  0.16899115014E+03  0.00000000000E+00 0. -1.
         -1   -1    0    0    0  501 -0.00000000000E+00 -0.00000000000E+00 -0.25611609410E+03  0.25611609410E+03  0.00000000000E+00 0.  1.
         24    1    1    2    0    0  0.66604331149E+01 -0.55928376574E+02 -0.23095732542E+03  0.25095985096E+03  0.80419002446E+02 0.  1.
        -24    1    1    2    0    0 -0.66604331149E+01  0.55928376574E+02  0.14383238146E+03  0.17414739328E+03  0.80419002446E+02 0. -1.
<mgrwt>
<rscale>  0 0.98181264E+02</rscale>
<asrwt>0</asrwt>
<pdfrwt beam="1">  1        1 0.25998638E-01 0.98181264E+02</pdfrwt>
<pdfrwt beam="2">  1       -1 0.39402476E-01 0.98181264E+02</pdfrwt>
<totfact> 0.11295296E+03</totfact>
</mgrwt>
</event>
<event>
 4    3  0.9203887E-001  0.9109268E+02  0.7546771E-02  0.1300227E+00
         -2   -1    0    0    0  501 -0.00000000000E+00  0.00000000000E+00  0.22177493832E+02  0.22177493832E+02  0.00000000000E+00 0.  1.
          2   -1    0    0  501    0  0.00000000000E+00 -0.00000000000E+00 -0.59787652523E+03  0.59787652523E+03  0.00000000000E+00 0. -1.
         24    1    1    2    0    0  0.11692815412E+02 -0.41157479013E+02 -0.47749618756E+03  0.48610748307E+03  0.80419002446E+02 0.  0.
        -24    1    1    2    0    0 -0.11692815412E+02  0.41157479013E+02 -0.98202843835E+02  0.13394653599E+03  0.80419002446E+02 0. -1.
<mgrwt>
<rscale>  0 0.91092678E+02</rscale>
<asrwt>0</asrwt>
<pdfrwt beam="1">  1        2 0.91980995E-01 0.91092678E+02</pdfrwt>
<pdfrwt beam="2">  1       -2 0.34119224E-02 0.91092678E+02</pdfrwt>
<totfact> 0.16193436E+04</totfact>
</mgrwt>
</event>
<event>
 4    3  0.9203887E-001  0.8222855E+02  0.7546771E-02  0.1322843E+00
         -2   -1    0    0    0  501 -0.00000000000E+00  0.00000000000E+00  0.24377872257E+03  0.24377872257E+03  0.00000000000E+00 0.  1.
          2   -1    0    0  501    0  0.00000000000E+00 -0.00000000000E+00 -0.17984127453E+03  0.17984127453E+03  0.00000000000E+00 0. -1.
         24    1    1    2    0    0 -0.59929299630E+01 -0.16074944958E+02 -0.16282429608E+03  0.18240966645E+03  0.80419002446E+02 0. -1.
        -24    1    1    2    0    0  0.59929299630E+01  0.16074944958E+02  0.22676174412E+03  0.24121033065E+03  0.80419002446E+02 0.  1.
<mgrwt>
<rscale>  0 0.82228554E+02</rscale>
<asrwt>0</asrwt>
<pdfrwt beam="1">  1        2 0.27667888E-01 0.82228554E+02</pdfrwt>
<pdfrwt beam="2">  1       -2 0.37504419E-01 0.82228554E+02</pdfrwt>
<totfact> 0.12466753E+03</totfact>
</mgrwt>
</event>
<event>
 4    3  0.9203887E-001  0.8435891E+02  0.7546771E-02  0.1317118E+00
         -1   -1    0    0    0  501 -0.00000000000E+00  0.00000000000E+00  0.24447108192E+02  0.24447108192E+02  0.00000000000E+00 0.  1.
          1   -1    0    0  501    0  0.00000000000E+00 -0.00000000000E+00 -0.85180963962E+03  0.85180963962E+03  0.00000000000E+00 0. -1.
         24    1    1    2    0    0  0.25378716255E+02 -0.22649566783E+01 -0.58212748239E+02  0.10249463049E+03  0.80419002446E+02 0.  0.
        -24    1    1    2    0    0 -0.25378716255E+02  0.22649566783E+01 -0.76914978319E+03  0.77376211732E+03  0.80419002446E+02 0. -1.
<mgrwt>
<rscale>  0 0.84358907E+02</rscale>
<asrwt>0</asrwt>
<pdfrwt beam="1">  1        1 0.13104763E+00 0.84358907E+02</pdfrwt>
<pdfrwt beam="2">  1       -1 0.37610938E-02 0.84358907E+02</pdfrwt>
<totfact> 0.53374793E+03</totfact>
</mgrwt>
</event>
<event>
 4    3  0.9203887E-001  0.1050556E+03  0.7546771E-02  0.1270010E+00
         -2   -1    0    0    0  501 -0.00000000000E+00  0.00000000000E+00  0.33119669949E+02  0.33119669949E+02  0.00000000000E+00 0.  1.
          2   -1    0    0  501    0  0.00000000000E+00 -0.00000000000E+00 -0.37922735284E+03  0.37922735284E+03  0.00000000000E+00 0. -1.
         24    1    1    2    0    0 -0.66159716506E+02  0.13869072305E+02 -0.24485308480E+03  0.26643893924E+03  0.80419002446E+02 0. -1.
        -24    1    1    2    0    0  0.66159716506E+02 -0.13869072305E+02 -0.10125459809E+03  0.14590808354E+03  0.80419002446E+02 0.  1.
<mgrwt>
<rscale>  0 0.10505558E+03</rscale>
<asrwt>0</asrwt>
<pdfrwt beam="1">  1        2 0.58342672E-01 0.10505558E+03</pdfrwt>
<pdfrwt beam="2">  1       -2 0.50953336E-02 0.10505558E+03</pdfrwt>
<totfact> 0.14832404E+04</totfact>
</mgrwt>
</event>
<event>
 4    3  0.9203887E-001  0.8831456E+02  0.7546771E-02  0.1306985E+00
          2   -1    0    0  501    0  0.00000000000E+00  0.00000000000E+00  0.15846889031E+04  0.15846889031E+04  0.00000000000E+00 0. -1.
         -2   -1    0    0    0  501 -0.00000000000E+00 -0.00000000000E+00 -0.18811967341E+02  0.18811967341E+02  0.00000000000E+00 0.  1.
         24    1    1    2    0    0  0.65367943355E+01  0.35909837341E+02  0.14718705749E+04  0.14745177012E+04  0.80419002446E+02 0. -1.
        -24    1    1    2    0    0 -0.65367943355E+01 -0.35909837341E+02  0.94006360871E+02  0.12898316920E+03  0.80419002446E+02 0.  1.
<mgrwt>
<rscale>  0 0.88314563E+02</rscale>
<asrwt>0</asrwt>
<pdfrwt beam="1">  1        2 0.24379819E+00 0.88314563E+02</pdfrwt>
<pdfrwt beam="2">  1       -2 0.28941501E-02 0.88314563E+02</pdfrwt>
<totfact> 0.53512804E+03</totfact>
</mgrwt>
</event>
<event>
 4    3  0.9203887E-001  0.9565462E+02  0.7546771E-02  0.1289709E+00
         -2   -1    0    0    0  501 -0.00000000000E+00  0.00000000000E+00  0.13229446701E+02  0.13229446701E+02  0.00000000000E+00 0.  1.
          2   -1    0    0  501    0  0.00000000000E+00 -0.00000000000E+00 -0.10611616870E+04  0.10611616870E+04  0.00000000000E+00 0. -1.
         24    1    1    2    0    0 -0.44140023309E+02  0.27097006716E+02 -0.84097461098E+03  0.84639713002E+03  0.80419002446E+02 0. -1.
        -24    1    1    2    0    0  0.44140023309E+02 -0.27097006716E+02 -0.20695762936E+03  0.22799400373E+03  0.80419002446E+02 0.  1.
<mgrwt>
<rscale>  0 0.95654615E+02</rscale>
<asrwt>0</asrwt>
<pdfrwt beam="1">  1        2 0.16325566E+00 0.95654615E+02</pdfrwt>
<pdfrwt beam="2">  1       -2 0.20352992E-02 0.95654615E+02</pdfrwt>
<totfact> 0.16944009E+04</totfact>
</mgrwt>
</event>
<event>
 4    3  0.9203887E-001  0.1012217E+03  0.7546771E-02  0.1277748E+00
          2   -1    0    0  501    0  0.00000000000E+00  0.00000000000E+00  0.96022746448E+03  0.96022746448E+03  0.00000000000E+00 0. -1.
         -2   -1    0    0    0  501 -0.00000000000E+00 -0.00000000000E+00 -0.20938219284E+02  0.20938219284E+02  0.00000000000E+00 0.  1.
         24    1    1    2    0    0  0.11469216106E+02  0.60390989781E+02  0.81319115468E+03  0.81946670742E+03  0.80419002446E+02 0. -1.
        -24    1    1    2    0    0 -0.11469216106E+02 -0.60390989781E+02  0.12609809052E+03  0.16169897635E+03  0.80419002446E+02 0.  1.
<mgrwt>
<rscale>  0 0.10122169E+03</rscale>
<asrwt>0</asrwt>
<pdfrwt beam="1">  1        2 0.14772727E+00 0.10122169E+03</pdfrwt>
<pdfrwt beam="2">  1       -2 0.32212653E-02 0.10122169E+03</pdfrwt>
<totfact> 0.10017286E+04</totfact>
</mgrwt>
</event>
<event>
 4    3  0.9203887E-001  0.1031414E+03  0.7546771E-02  0.1273825E+00
          2   -1    0    0  501    0  0.00000000000E+00  0.00000000000E+00  0.27698865141E+03  0.27698865141E+03  0.00000000000E+00 0. -1.
         -2   -1    0    0    0  501 -0.00000000000E+00 -0.00000000000E+00 -0.45520031040E+02  0.45520031040E+02  0.00000000000E+00 0.  1.
         24    1    1    2    0    0 -0.60981225077E+02  0.21265751695E+02  0.17948039147E+03  0.20700572186E+03  0.80419002446E+02 0.  0.
        -24    1    1    2    0    0  0.60981225077E+02 -0.21265751695E+02  0.51988228908E+02  0.11550296060E+03  0.80419002446E+02 0.  1.
<mgrwt>
<rscale>  0 0.10314145E+03</rscale>
<asrwt>0</asrwt>
<pdfrwt beam="1">  1        2 0.42613638E-01 0.10314145E+03</pdfrwt>
<pdfrwt beam="2">  1       -2 0.70030818E-02 0.10314145E+03</pdfrwt>
<totfact> 0.12763241E+04</totfact>
</mgrwt>
</event>
<event>
 4    3  0.9203887E-001  0.1102212E+03  0.7546771E-02  0.1260161E+00
         -1   -1    0    0    0  501 -0.00000000000E+00  0.00000000000E+00  0.67003246556E+02  0.67003246556E+02  0.00000000000E+00 0.  1.
          1   -1    0    0  501    0  0.00000000000E+00 -0.00000000000E+00 -0.49491345446E+03  0.49491345446E+03  0.00000000000E+00 0. -1.
         24    1    1    2    0    0 -0.61489768358E+02  0.43594854888E+02  0.96923764134E+01  0.11064655937E+03  0.80419002446E+02 0.  1.
        -24    1    1    2    0    0  0.61489768358E+02 -0.43594854888E+02 -0.43760258432E+03  0.45127014165E+03  0.80419002446E+02 0. -1.
<mgrwt>
<rscale>  0 0.11022123E+03</rscale>
<asrwt>0</asrwt>
<pdfrwt beam="1">  1        1 0.76140532E-01 0.11022123E+03</pdfrwt>
<pdfrwt beam="2">  1       -1 0.10308192E-01 0.11022123E+03</pdfrwt>
<totfact> 0.25797508E+03</totfact>
</mgrwt>
</event>
<event>
 4    3  0.9203887E-001  0.8436665E+02  0.7546771E-02  0.1317097E+00
         -2   -1    0    0    0  501 -0.00000000000E+00  0.00000000000E+00  0.48066040514E+02  0.48066040514E+02  0.00000000000E+00 0.  1.
          2   -1    0    0  501    0  0.00000000000E+00 -0.00000000000E+00 -0.16092525790E+03  0.16092525790E+03  0.00000000000E+00 0. -1.
         24    1    1    2    0    0 -0.23651706519E+02 -0.95453116723E+01 -0.85949708065E+02  0.12043705604E+03  0.80419002446E+02 0. -1.
        -24    1    1    2    0    0  0.23651706519E+02  0.95453116723E+01 -0.26909509317E+02  0.88554242373E+02  0.80419002446E+02 0.  1.
<mgrwt>
<rscale>  0 0.84366653E+02</rscale>
<asrwt>0</asrwt>
<pdfrwt beam="1">  1        2 0.24757732E-01 0.84366653E+02</pdfrwt>
<pdfrwt beam="2">  1       -2 0.73947753E-02 0.84366653E+02</pdfrwt>
<totfact> 0.20535096E+04</totfact>
</mgrwt>
</event>
<event>
 4    3  0.9203887E-001  0.8890604E+02  0.7546771E-02  0.1305523E+00
          4   -1    0    0  501    0  0.00000000000E+00  0.00000000000E+00  0.15356257972E+03  0.15356257972E+03  0.00000000000E+00 0. -1.
         -4   -1    0    0    0  501 -0.00000000000E+00 -0.00000000000E+00 -0.59867903740E+02  0.59867903740E+02  0.00000000000E+00 0.  1.
         24    1    1    2    0    0  0.30866451351E+02  0.22007423480E+02  0.68855354432E+01  0.89172254990E+02  0.80419002446E+02 0.  1.
        -24    1    1    2    0    0 -0.30866451351E+02 -0.22007423480E+02  0.86809140535E+02  0.12425822847E+03  0.80419002446E+02 0. -1.
<mgrwt>
<rscale>  0 0.88906032E+02</rscale>
<asrwt>0</asrwt>
<pdfrwt beam="1">  1        4 0.23625012E-01 0.88906043E+02</pdfrwt>
<pdfrwt beam="2">  1       -4 0.92104468E-02 0.88906043E+02</pdfrwt>
<totfact> 0.21453578E+03</totfact>
</mgrwt>
</event>
<event>
 4    3  0.9203887E-001  0.8049148E+02  0.7546771E-02  0.1327662E+00
          2   -1    0    0  501    0  0.00000000000E+00  0.00000000000E+00  0.15396202704E+04  0.15396202704E+04  0.00000000000E+00 0. -1.
         -2   -1    0    0    0  501 -0.00000000000E+00 -0.00000000000E+00 -0.42085938357E+01  0.42085938357E+01  0.00000000000E+00 0.  1.
         24    1    1    2    0    0 -0.12863161700E+01  0.31634879549E+01  0.77605560160E+03  0.78021867126E+03  0.80419002446E+02 0.  1.
        -24    1    1    2    0    0  0.12863161700E+01 -0.31634879549E+01  0.75935607495E+03  0.76361019295E+03  0.80419002446E+02 0.  1.
<mgrwt>
<rscale>  0 0.80491479E+02</rscale>
<asrwt>0</asrwt>
<pdfrwt beam="1">  1        2 0.23686421E+00 0.80491479E+02</pdfrwt>
<pdfrwt beam="2">  1       -2 0.64747721E-03 0.80491479E+02</pdfrwt>
<totfact> 0.47170537E+04</totfact>
</mgrwt>
</event>
<event>
 4    3  0.9203887E-001  0.9708416E+02  0.7546771E-02  0.1286550E+00
          1   -1    0    0  501    0  0.00000000000E+00  0.00000000000E+00  0.18398394039E+04  0.18398394039E+04  0.00000000000E+00 0. -1.
         -1   -1    0    0    0  501 -0.00000000000E+00 -0.00000000000E+00 -0.11519028780E+02  0.11519028780E+02  0.00000000000E+00 0.  1.
         24    1    1    2    0    0  0.49495857399E+02 -0.22545022580E+02  0.22437986589E+03  0.24448242905E+03  0.80419002446E+02 0.  1.
        -24    1    1    2    0    0 -0.49495857399E+02  0.22545022580E+02  0.16039405092E+04  0.16068760036E+04  0.80419002446E+02 0. -1.
<mgrwt>
<rscale>  0 0.97084159E+02</rscale>
<asrwt>0</asrwt>
<pdfrwt beam="1">  1        1 0.28305198E+00 0.97084159E+02</pdfrwt>
<pdfrwt beam="2">  1       -1 0.17721597E-02 0.97084159E+02</pdfrwt>
<totfact> 0.34611050E+03</totfact>
</mgrwt>
</event>
<event>
 4    3  0.9203887E-001  0.8397401E+02  0.7546771E-02  0.1318138E+00
         -2   -1    0    0    0  501 -0.00000000000E+00  0.00000000000E+00  0.83959425896E+03  0.83959425896E+03  0.00000000000E+00 0.  1.
          2   -1    0    0  501    0  0.00000000000E+00 -0.00000000000E+00 -0.31715406963E+02  0.31715406963E+02  0.00000000000E+00 0. -1.
         24    1    1    2    0    0 -0.11758979003E+02  0.21122122375E+02  0.30397356244E+02  0.89306398773E+02  0.80419002446E+02 0.  0.
        -24    1    1    2    0    0  0.11758979003E+02 -0.21122122375E+02  0.77748149575E+03  0.78200326715E+03  0.80419002446E+02 0.  0.
<mgrwt>
<rscale>  0 0.83974005E+02</rscale>
<asrwt>0</asrwt>
<pdfrwt beam="1">  1        2 0.48792940E-02 0.83974005E+02</pdfrwt>
<pdfrwt beam="2">  1       -2 0.12916833E+00 0.83974005E+02</pdfrwt>
<totfact> 0.71607802E+02</totfact>
</mgrwt>
</event>
<event>
 4    3  0.9203887E-001  0.1096407E+03  0.7546771E-02  0.1261237E+00
          1   -1    0    0  501    0  0.00000000000E+00  0.00000000000E+00  0.23961467206E+04  0.23961467206E+04  0.00000000000E+00 0. -1.
         -1   -1    0    0    0  501 -0.00000000000E+00 -0.00000000000E+00 -0.51624057398E+01  0.51624057398E+01  0.00000000000E+00 0.  1.
         24    1    1    2    0    0  0.71917372859E+02 -0.19538809579E+02  0.99387913444E+03  0.99990840751E+03  0.80419002446E+02 0.  0.
        -24    1    1    2    0    0 -0.71917372859E+02  0.19538809579E+02  0.13971051804E+04  0.14014007188E+04  0.80419002446E+02 0.  1.
<mgrwt>
<rscale>  0 0.10964073E+03</rscale>
<asrwt>0</asrwt>
<pdfrwt beam="1">  1        1 0.36863707E+00 0.10964073E+03</pdfrwt>
<pdfrwt beam="2">  1       -1 0.79421818E-03 0.10964073E+03</pdfrwt>
<totfact> 0.48187957E+03</totfact>
</mgrwt>
</event>
<event>
 4    3  0.9203887E-001  0.8216363E+02  0.7546771E-02  0.1323021E+00
          1   -1    0    0  501    0  0.00000000000E+00  0.00000000000E+00  0.89281728610E+02  0.89281728610E+02  0.00000000000E+00 0. -1.
         -1   -1    0    0    0  501 -0.00000000000E+00 -0.00000000000E+00 -0.91812350988E+02  0.91812350988E+02  0.00000000000E+00 0.  1.
         24    1    1    2    0    0  0.44582168946E+00  0.16835787514E+02  0.36768745047E+02  0.90015549018E+02  0.80419002446E+02 0.  0.
        -24    1    1    2    0    0 -0.44582168946E+00 -0.16835787514E+02 -0.39299367426E+02  0.91078530580E+02  0.80419002446E+02 0.  0.
<mgrwt>
<rscale>  0 0.82163618E+02</rscale>
<asrwt>0</asrwt>
<pdfrwt beam="1">  1        1 0.13735651E-01 0.82163628E+02</pdfrwt>
<pdfrwt beam="2">  1       -1 0.14124977E-01 0.82163628E+02</pdfrwt>
<totfact> 0.13161670E+04</totfact>
</mgrwt>
</event>
<event>
 4    3  0.9203887E-001  0.1046297E+03  0.7546771E-02  0.1270851E+00
         -2   -1    0    0    0  501 -0.00000000000E+00  0.00000000000E+00  0.11127301862E+03  0.11127301862E+03  0.00000000000E+00 0.  1.
          2   -1    0    0  501    0  0.00000000000E+00 -0.00000000000E+00 -0.98419321326E+02  0.98419321326E+02  0.00000000000E+00 0. -1.
         24    1    1    2    0    0  0.46669428516E+02  0.47980355543E+02  0.44108588171E+01  0.10472259406E+03  0.80419002446E+02 0.  1.
        -24    1    1    2    0    0 -0.46669428516E+02 -0.47980355543E+02  0.84428384742E+01  0.10496974589E+03  0.80419002446E+02 0. -1.
<mgrwt>
<rscale>  0 0.10462966E+03</rscale>
<asrwt>0</asrwt>
<pdfrwt beam="1">  1        2 0.15141434E-01 0.10462966E+03</pdfrwt>
<pdfrwt beam="2">  1       -2 0.17118926E-01 0.10462966E+03</pdfrwt>
<totfact> 0.97098128E+03</totfact>
</mgrwt>
</event>
<event>
 4    3  0.9203887E-001  0.8124045E+02  0.7546771E-02  0.1325568E+00
         -2   -1    0    0    0  501 -0.00000000000E+00  0.00000000000E+00  0.35992399413E+02  0.35992399413E+02  0.00000000000E+00 0.  1.
          2   -1    0    0  501    0  0.00000000000E+00 -0.00000000000E+00 -0.12921621187E+04  0.12921621187E+04  0.00000000000E+00 0. -1.
         24    1    1    2    0    0  0.12318746797E+01  0.11457655682E+02 -0.12432400718E+04  0.12458916035E+04  0.80419002446E+02 0.  0.
        -24    1    1    2    0    0 -0.12318746797E+01 -0.11457655682E+02 -0.12929647442E+02  0.82262914647E+02  0.80419002446E+02 0.  0.
<mgrwt>
<rscale>  0 0.81240454E+02</rscale>
<asrwt>0</asrwt>
<pdfrwt beam="1">  1        2 0.19879418E+00 0.81240454E+02</pdfrwt>
<pdfrwt beam="2">  1       -2 0.55372921E-02 0.81240454E+02</pdfrwt>
<totfact> 0.29117429E+03</totfact>
</mgrwt>
</event>
<event>
 4    3  0.9203887E-001  0.9308993E+02  0.7546771E-02  0.1295537E+00
          2   -1    0    0  501    0  0.00000000000E+00  0.00000000000E+00  0.63115015427E+02  0.63115015427E+02  0.00000000000E+00 0. -1.
         -2   -1    0    0    0  501 -0.00000000000E+00 -0.00000000000E+00 -0.34300327150E+03  0.34300327150E+03  0.00000000000E+00 0.  1.
         24    1    1    2    0    0 -0.16034836100E+02 -0.44061348792E+02  0.17306831057E+02  0.94685061027E+02  0.80419002446E+02 0. -1.
        -24    1    1    2    0    0  0.16034836100E+02  0.44061348792E+02 -0.29719508713E+03  0.31143322590E+03  0.80419002446E+02 0.  1.
<mgrwt>
<rscale>  0 0.93089926E+02</rscale>
<asrwt>0</asrwt>
<pdfrwt beam="1">  1        2 0.97100024E-02 0.93089926E+02</pdfrwt>
<pdfrwt beam="2">  1       -2 0.52769734E-01 0.93089926E+02</pdfrwt>
<totfact> 0.21605705E+03</totfact>
</mgrwt>
</event>
<event>
 4    3  0.9203887E-001  0.1055310E+03  0.7546771E-02  0.1269077E+00
          2   -1    0    0  501    0  0.00000000000E+00  0.00000000000E+00  0.10220337948E+04  0.10220337948E+04  0.00000000000E+00 0. -1.
         -2   -1    0    0    0  501 -0.00000000000E+00 -0.00000000000E+00 -0.26028914773E+02  0.26028914773E+02  0.00000000000E+00 0.  1.
         24    1    1    2    0    0 -0.66799826724E+02 -0.14399786839E+02  0.89756116360E+03  0.90374378507E+03  0.80419002446E+02 0. -1.
        -24    1    1    2    0    0  0.66799826724E+02  0.14399786839E+02  0.98443716457E+02  0.14431892452E+03  0.80419002446E+02 0.  1.
<mgrwt>
<rscale>  0 0.10553097E+03</rscale>
<asrwt>0</asrwt>
<pdfrwt beam="1">  1        2 0.15723594E+00 0.10553097E+03</pdfrwt>
<pdfrwt beam="2">  1       -2 0.40044492E-02 0.10553097E+03</pdfrwt>
<totfact> 0.67037007E+03</totfact>
</mgrwt>
</event>
<event>
 4    3  0.9203887E-001  0.8230803E+02  0.7546771E-02  0.1322626E+00
          2   -1    0    0  501    0  0.00000000000E+00  0.00000000000E+00  0.42289185326E+03  0.42289185326E+03  0.00000000000E+00 0. -1.
         -2   -1    0    0    0  501 -0.00000000000E+00 -0.00000000000E+00 -0.16547662540E+02  0.16547662540E+02  0.00000000000E+00 0.  1.
         24    1    1    2    0    0 -0.99445799525E+01 -0.14439578713E+02  0.24241771728E+03  0.25600969066E+03  0.80419002446E+02 0. -1.
        -24    1    1    2    0    0  0.99445799525E+01  0.14439578713E+02  0.16392647344E+03  0.18342982514E+03  0.80419002446E+02 0.  1.
<mgrwt>
<rscale>  0 0.82308032E+02</rscale>
<asrwt>0</asrwt>
<pdfrwt beam="1">  1        2 0.65060277E-01 0.82308032E+02</pdfrwt>
<pdfrwt beam="2">  1       -2 0.25457946E-02 0.82308032E+02</pdfrwt>
<totfact> 0.35632414E+04</totfact>
</mgrwt>
</event>
<event>
 4    3  0.9203887E-001  0.1000550E+03  0.7546771E-02  0.1280180E+00
         -1   -1    0    0    0  501 -0.00000000000E+00  0.00000000000E+00  0.16467193591E+03  0.16467193591E+03  0.00000000000E+00 0.  1.
          1   -1    0    0  501    0  0.00000000000E+00 -0.00000000000E+00 -0.17791954874E+03  0.17791954874E+03  0.00000000000E+00 0. -1.
         24    1    1    2    0    0  0.14101208208E+02  0.57835541640E+02  0.13235903342E+03  0.16592143813E+03  0.80419002446E+02 0.  0.
        -24    1    1    2    0    0 -0.14101208208E+02 -0.57835541640E+02 -0.14560664625E+03  0.17667004652E+03  0.80419002446E+02 0.  0.
<mgrwt>
<rscale>  0 0.10005503E+03</rscale>
<asrwt>0</asrwt>
<pdfrwt beam="1">  1        1 0.27372238E-01 0.10005503E+03</pdfrwt>
<pdfrwt beam="2">  1       -1 0.25334144E-01 0.10005503E+03</pdfrwt>
<totfact> 0.22263106E+03</totfact>
</mgrwt>
</event>
<event>
 4    3  0.9203887E-001  0.8360551E+02  0.7546771E-02  0.1319120E+00
         -2   -1    0    0    0  501 -0.00000000000E+00  0.00000000000E+00  0.32037254664E+01  0.32037254664E+01  0.00000000000E+00 0.  1.
          2   -1    0    0  501    0  0.00000000000E+00 -0.00000000000E+00 -0.27021298266E+04  0.27021298266E+04  0.00000000000E+00 0. -1.
         24    1    1    2    0    0 -0.66970298595E+01 -0.21858969868E+02 -0.19430414038E+04  0.19448392678E+04  0.80419002446E+02 0. -1.
        -24    1    1    2    0    0  0.66970298595E+01  0.21858969868E+02 -0.75588469737E+03  0.76049428430E+03  0.80419002446E+02 0.  1.
<mgrwt>
<rscale>  0 0.83605507E+02</rscale>
<asrwt>0</asrwt>
<pdfrwt beam="1">  1        2 0.41571179E+00 0.83605507E+02</pdfrwt>
<pdfrwt beam="2">  1       -2 0.49288142E-03 0.83605507E+02</pdfrwt>
<totfact> 0.17719969E+04</totfact>
</mgrwt>
</event>
<event>
 4    3  0.9203887E-001  0.1198404E+03  0.7546771E-02  0.1243361E+00
          2   -1    0    0  501    0  0.00000000000E+00  0.00000000000E+00  0.43537366833E+03  0.43537366833E+03  0.00000000000E+00 0. -1.
         -2   -1    0    0    0  501 -0.00000000000E+00 -0.00000000000E+00 -0.69172680454E+02  0.69172680454E+02  0.00000000000E+00 0.  1.
         24    1    1    2    0    0  0.80395718405E+02 -0.37829073500E+02  0.36556205324E+03  0.38470422543E+03  0.80419002446E+02 0. -1.
        -24    1    1    2    0    0 -0.80395718405E+02  0.37829073500E+02  0.63893464202E+00  0.11984212336E+03  0.80419002446E+02 0.  1.
<mgrwt>
<rscale>  0 0.11984042E+03</rscale>
<asrwt>0</asrwt>
<pdfrwt beam="1">  1        2 0.66980563E-01 0.11984042E+03</pdfrwt>
<pdfrwt beam="2">  1       -2 0.10641951E-01 0.11984042E+03</pdfrwt>
<totfact> 0.41891631E+03</totfact>
</mgrwt>
</event>
<event>
 4    3  0.9203887E-001  0.8922506E+02  0.7546771E-02  0.1304739E+00
          1   -1    0    0  501    0  0.00000000000E+00  0.00000000000E+00  0.87633029336E+03  0.87633029336E+03  0.00000000000E+00 0. -1.
         -1   -1    0    0    0  501 -0.00000000000E+00 -0.00000000000E+00 -0.16057281768E+02  0.16057281768E+02  0.00000000000E+00 0.  1.
         24    1    1    2    0    0 -0.32837828847E+02 -0.20385574011E+02  0.13610937020E+03  0.16274787631E+03  0.80419002446E+02 0.  1.
        -24    1    1    2    0    0  0.32837828847E+02  0.20385574011E+02  0.72416364139E+03  0.72963969882E+03  0.80419002446E+02 0. -1.
<mgrwt>
<rscale>  0 0.89225056E+02</rscale>
<asrwt>0</asrwt>
<pdfrwt beam="1">  1        1 0.13482001E+00 0.89225056E+02</pdfrwt>
<pdfrwt beam="2">  1       -1 0.24703517E-02 0.89225056E+02</pdfrwt>
<totfact> 0.93914681E+03</totfact>
</mgrwt>
</event>
<event>
 4    3  0.9203887E-001  0.1006014E+03  0.7546771E-02  0.1279036E+00
         -3   -1    0    0    0  501 -0.00000000000E+00  0.00000000000E+00  0.49546573428E+03  0.49546573428E+03  0.00000000000E+00 0.  1.
          3   -1    0    0  501    0  0.00000000000E+00 -0.00000000000E+00 -0.20541863581E+02  0.20541863581E+02  0.00000000000E+00 0. -1.
         24    1    1    2    0    0 -0.58403814342E+02  0.15569543039E+02  0.25679654814E+03  0.27579901975E+03  0.80419002446E+02 0.  1.
        -24    1    1    2    0    0  0.58403814342E+02 -0.15569543039E+02  0.21812732256E+03  0.24020857812E+03  0.80419002446E+02 0. -1.
<mgrwt>
<rscale>  0 0.10060135E+03</rscale>
<asrwt>0</asrwt>
<pdfrwt beam="1">  1        3 0.31602871E-02 0.10060135E+03</pdfrwt>
<pdfrwt beam="2">  1       -3 0.76225489E-01 0.10060135E+03</pdfrwt>
<totfact> 0.16933358E+03</totfact>
</mgrwt>
</event>
<event>
 4    3  0.9203887E-001  0.8442880E+02  0.7546771E-02  0.1316933E+00
         -2   -1    0    0    0  501 -0.00000000000E+00  0.00000000000E+00  0.89929450066E+02  0.89929450066E+02  0.00000000000E+00 0.  1.
          2   -1    0    0  501    0  0.00000000000E+00 -0.00000000000E+00 -0.89478276033E+02  0.89478276033E+02  0.00000000000E+00 0. -1.
         24    1    1    2    0    0  0.18914950032E+02 -0.17413529166E+02 -0.30081436564E+02  0.89627647034E+02  0.80419002446E+02 0. -1.
        -24    1    1    2    0    0 -0.18914950032E+02  0.17413529166E+02  0.30532610597E+02  0.89780079065E+02  0.80419002446E+02 0.  1.
<mgrwt>
<rscale>  0 0.84428800E+02</rscale>
<asrwt>0</asrwt>
<pdfrwt beam="1">  1        2 0.13765889E-01 0.84428800E+02</pdfrwt>
<pdfrwt beam="2">  1       -2 0.13835300E-01 0.84428800E+02</pdfrwt>
<totfact> 0.15007534E+04</totfact>
</mgrwt>
</event>
<event>
 4    3  0.9203887E-001  0.8437735E+02  0.7546771E-02  0.1317069E+00
         -2   -1    0    0    0  501 -0.00000000000E+00  0.00000000000E+00  0.86202775635E+03  0.86202775635E+03  0.00000000000E+00 0.  1.
          2   -1    0    0  501    0  0.00000000000E+00 -0.00000000000E+00 -0.54571668230E+02  0.54571668230E+02  0.00000000000E+00 0. -1.
         24    1    1    2    0    0 -0.36040970877E+01 -0.25285020354E+02 -0.18469396665E+02  0.86375090956E+02  0.80419002446E+02 0. -1.
        -24    1    1    2    0    0  0.36040970877E+01  0.25285020354E+02  0.82592548479E+03  0.83022433363E+03  0.80419002446E+02 0.  0.
<mgrwt>
<rscale>  0 0.84377353E+02</rscale>
<asrwt>0</asrwt>
<pdfrwt beam="1">  1        2 0.83956419E-02 0.84377353E+02</pdfrwt>
<pdfrwt beam="2">  1       -2 0.13261965E+00 0.84377353E+02</pdfrwt>
<totfact> 0.33879857E+02</totfact>
</mgrwt>
</event>
<event>
 4    3  0.9203887E-001  0.1205386E+03  0.7546771E-02  0.1242211E+00
         -4   -1    0    0    0  501 -0.00000000000E+00  0.00000000000E+00  0.62548963357E+03  0.62548963357E+03  0.00000000000E+00 0.  1.
          4   -1    0    0  501    0  0.00000000000E+00 -0.00000000000E+00 -0.23255210258E+02  0.23255210258E+02  0.00000000000E+00 0. -1.
         24    1    1    2    0    0 -0.89567052565E+02 -0.63310126230E+01  0.29024599892E+03  0.31428059830E+03  0.80419002446E+02 0. -1.
        -24    1    1    2    0    0  0.89567052565E+02  0.63310126230E+01  0.31198842439E+03  0.33446424553E+03  0.80419002446E+02 0.  0.
<mgrwt>
<rscale>  0 0.12053860E+03</rscale>
<asrwt>0</asrwt>
<pdfrwt beam="1">  1        4 0.35777251E-02 0.12053860E+03</pdfrwt>
<pdfrwt beam="2">  1       -4 0.96229162E-01 0.12053860E+03</pdfrwt>
<totfact> 0.61866988E+02</totfact>
</mgrwt>
</event>
<event>
 4    3  0.9203887E-001  0.9498109E+02  0.7546771E-02  0.1291219E+00
         -2   -1    0    0    0  501 -0.00000000000E+00  0.00000000000E+00  0.98003882796E+01  0.98003882796E+01  0.00000000000E+00 0.  1.
          2   -1    0    0  501    0  0.00000000000E+00 -0.00000000000E+00 -0.20345572013E+04  0.20345572013E+04  0.00000000000E+00 0. -1.
         24    1    1    2    0    0  0.21437497178E+02 -0.45767067952E+02 -0.17687630274E+04  0.17713113938E+04  0.80419002446E+02 0. -1.
        -24    1    1    2    0    0 -0.21437497178E+02  0.45767067952E+02 -0.25599378566E+03  0.27304619581E+03  0.80419002446E+02 0.  1.
<mgrwt>
<rscale>  0 0.94981086E+02</rscale>
<asrwt>0</asrwt>
<pdfrwt beam="1">  1        2 0.31300858E+00 0.94981086E+02</pdfrwt>
<pdfrwt beam="2">  1       -2 0.15077531E-02 0.94981086E+02</pdfrwt>
<totfact> 0.81434610E+03</totfact>
</mgrwt>
</event>
<event>
 4    3  0.9203887E-001  0.8705782E+02  0.7546771E-02  0.1310137E+00
          2   -1    0    0  501    0  0.00000000000E+00  0.00000000000E+00  0.37102898601E+03  0.37102898601E+03  0.00000000000E+00 0. -1.
         -2   -1    0    0    0  501 -0.00000000000E+00 -0.00000000000E+00 -0.55690656287E+02  0.55690656287E+02  0.00000000000E+00 0.  1.
         24    1    1    2    0    0 -0.33339493217E+02 -0.57058110034E+00  0.32744827016E+03  0.33882360153E+03  0.80419002446E+02 0. -1.
        -24    1    1    2    0    0  0.33339493217E+02  0.57058110034E+00 -0.12109940435E+02  0.87896040767E+02  0.80419002446E+02 0.  1.
<mgrwt>
<rscale>  0 0.87057816E+02</rscale>
<asrwt>0</asrwt>
<pdfrwt beam="1">  1        2 0.57081381E-01 0.87057816E+02</pdfrwt>
<pdfrwt beam="2">  1       -2 0.85677935E-02 0.87057816E+02</pdfrwt>
<totfact> 0.68113670E+03</totfact>
</mgrwt>
</event>
<event>
 4    3  0.9203887E-001  0.8519432E+02  0.7546771E-02  0.1314925E+00
         -1   -1    0    0    0  501 -0.00000000000E+00  0.00000000000E+00  0.98442777415E+01  0.98442777415E+01  0.00000000000E+00 0.  1.
          1   -1    0    0  501    0  0.00000000000E+00 -0.00000000000E+00 -0.73809714520E+03  0.73809714520E+03  0.00000000000E+00 0. -1.
         24    1    1    2    0    0  0.13582269671E+02 -0.24624749283E+02 -0.35174778722E+03  0.36191791624E+03  0.80419002446E+02 0. -1.
        -24    1    1    2    0    0 -0.13582269671E+02  0.24624749283E+02 -0.37650508024E+03  0.38602350670E+03  0.80419002446E+02 0.  1.
<mgrwt>
<rscale>  0 0.85194321E+02</rscale>
<asrwt>0</asrwt>
<pdfrwt beam="1">  1        1 0.11355346E+00 0.85194321E+02</pdfrwt>
<pdfrwt beam="2">  1       -1 0.15145035E-02 0.85194321E+02</pdfrwt>
<totfact> 0.24228827E+04</totfact>
</mgrwt>
</event>
<event>
 4    3  0.9203887E-001  0.8440081E+02  0.7546771E-02  0.1317007E+00
          2   -1    0    0  501    0  0.00000000000E+00  0.00000000000E+00  0.27315530966E+02  0.27315530966E+02  0.00000000000E+00 0. -1.
         -2   -1    0    0    0  501 -0.00000000000E+00 -0.00000000000E+00 -0.30923835400E+03  0.30923835400E+03  0.00000000000E+00 0.  1.
         24    1    1    2    0    0  0.19671229222E+02 -0.16411082263E+02 -0.74351751295E+02  0.11247968597E+03  0.80419002446E+02 0. -1.
        -24    1    1    2    0    0 -0.19671229222E+02  0.16411082263E+02 -0.20757107174E+03  0.22407419900E+03  0.80419002446E+02 0.  1.
<mgrwt>
<rscale>  0 0.84400811E+02</rscale>
<asrwt>0</asrwt>
<pdfrwt beam="1">  1        2 0.42023899E-02 0.84400811E+02</pdfrwt>
<pdfrwt beam="2">  1       -2 0.47575126E-01 0.84400811E+02</pdfrwt>
<totfact> 0.75596259E+03</totfact>
</mgrwt>
</event>
<event>
 4    3  0.9203887E-001  0.8726004E+02  0.7546771E-02  0.1309626E+00
         -1   -1    0    0    0  501 -0.00000000000E+00  0.00000000000E+00  0.15636469451E+03  0.15636469451E+03  0.00000000000E+00 0.  1.
          1   -1    0    0  501    0  0.00000000000E+00 -0.00000000000E+00 -0.10223083553E+03  0.10223083553E+03  0.00000000000E+00 0. -1.
         24    1    1    2    0    0  0.32844400128E+02  0.82670527757E+01  0.12063309443E+03  0.14888471448E+03  0.80419002446E+02 0.  1.
        -24    1    1    2    0    0 -0.32844400128E+02 -0.82670527757E+01 -0.66499235446E+02  0.10971081556E+03  0.80419002446E+02 0. -1.
<mgrwt>
<rscale>  0 0.87260041E+02</rscale>
<asrwt>0</asrwt>
<pdfrwt beam="1">  1        1 0.15727821E-01 0.87260041E+02</pdfrwt>
<pdfrwt beam="2">  1       -1 0.24056107E-01 0.87260041E+02</pdfrwt>
<totfact> 0.48125716E+03</totfact>
</mgrwt>
</event>
<event>
 4    3  0.9203887E-001  0.1036546E+03  0.7546771E-02  0.1272793E+00
         -2   -1    0    0    0  501 -0.00000000000E+00  0.00000000000E+00  0.54514647742E+02  0.54514647742E+02  0.00000000000E+00 0.  1.
          2   -1    0    0  501    0  0.00000000000E+00 -0.00000000000E+00 -0.20068777260E+03  0.20068777260E+03  0.00000000000E+00 0. -1.
         24    1    1    2    0    0  0.11393627974E+02  0.64399046547E+02 -0.56000665660E+02  0.11781486521E+03  0.80419002446E+02 0.  0.
        -24    1    1    2    0    0 -0.11393627974E+02 -0.64399046547E+02 -0.90172459202E+02  0.13738755514E+03  0.80419002446E+02 0.  1.
<mgrwt>
<rscale>  0 0.10365457E+03</rscale>
<asrwt>0</asrwt>
<pdfrwt beam="1">  1        2 0.30875042E-01 0.10365459E+03</pdfrwt>
<pdfrwt beam="2">  1       -2 0.83868689E-02 0.10365459E+03</pdfrwt>
<totfact> 0.13637259E+04</totfact>
</mgrwt>
</event>
<event>
 4    3  0.9203887E-001  0.1168083E+03  0.7546771E-02  0.1248457E+00
         -2   -1    0    0    0  501 -0.00000000000E+00  0.00000000000E+00  0.10600341735E+02  0.10600341735E+02  0.00000000000E+00 0.  1.
          2   -1    0    0  501    0  0.00000000000E+00 -0.00000000000E+00 -0.15335658791E+04  0.15335658791E+04  0.00000000000E+00 0. -1.
         24    1    1    2    0    0 -0.27460540074E+02 -0.80142836470E+02 -0.10709766267E+04  0.10773277618E+04  0.80419002446E+02 0. -1.
        -24    1    1    2    0    0  0.27460540074E+02  0.80142836470E+02 -0.45198891074E+03  0.46683845909E+03  0.80419002446E+02 0.  1.
<mgrwt>
<rscale>  0 0.11680827E+03</rscale>
<asrwt>0</asrwt>
<pdfrwt beam="1">  1        2 0.23593330E+00 0.11680827E+03</pdfrwt>
<pdfrwt beam="2">  1       -2 0.16308212E-02 0.11680827E+03</pdfrwt>
<totfact> 0.13169747E+04</totfact>
</mgrwt>
</event>
<event>
 4    3  0.9203887E-001  0.1694912E+03  0.7546771E-02  0.1178379E+00
          2   -1    0    0  501    0  0.00000000000E+00  0.00000000000E+00  0.29731165134E+04  0.29731165134E+04  0.00000000000E+00 0. -1.
         -2   -1    0    0    0  501 -0.00000000000E+00 -0.00000000000E+00 -0.15261948083E+02  0.15261948083E+02  0.00000000000E+00 0.  1.
         24    1    1    2    0    0 -0.79596409067E+02  0.12619215494E+03  0.23839915322E+04  0.23900089728E+04  0.80419002446E+02 0. -1.
        -24    1    1    2    0    0  0.79596409067E+02 -0.12619215494E+03  0.57386303316E+03  0.59836948876E+03  0.80419002446E+02 0.  1.
<mgrwt>
<rscale>  0 0.16949119E+03</rscale>
<asrwt>0</asrwt>
<pdfrwt beam="1">  1        2 0.45740208E+00 0.16949119E+03</pdfrwt>
<pdfrwt beam="2">  1       -2 0.23479944E-02 0.16949119E+03</pdfrwt>
<totfact> 0.13437423E+03</totfact>
</mgrwt>
</event>
<event>
 4    3  0.9203887E-001  0.1049565E+03  0.7546771E-02  0.1270205E+00
         -1   -1    0    0    0  501 -0.00000000000E+00  0.00000000000E+00  0.65033797160E+02  0.65033797160E+02  0.00000000000E+00 0.  1.
          1   -1    0    0  501    0  0.00000000000E+00 -0.00000000000E+00 -0.21519545153E+03  0.21519545153E+03  0.00000000000E+00 0. -1.
         24    1    1    2    0    0 -0.11428313650E+02 -0.66468431130E+02 -0.10435058414E+02  0.10547400195E+03  0.80419002446E+02 0.  1.
        -24    1    1    2    0    0  0.11428313650E+02  0.66468431130E+02 -0.13972659595E+03  0.17475524673E+03  0.80419002446E+02 0. -1.
<mgrwt>
<rscale>  0 0.10495654E+03</rscale>
<asrwt>0</asrwt>
<pdfrwt beam="1">  1        1 0.33106992E-01 0.10495654E+03</pdfrwt>
<pdfrwt beam="2">  1       -1 0.10005200E-01 0.10495654E+03</pdfrwt>
<totfact> 0.75687729E+03</totfact>
</mgrwt>
</event>
<event>
 4    3  0.9203887E-001  0.1539584E+03  0.7546771E-02  0.1195692E+00
          1   -1    0    0  501    0  0.00000000000E+00  0.00000000000E+00  0.21258699604E+04  0.21258699604E+04  0.00000000000E+00 0. -1.
         -1   -1    0    0    0  501 -0.00000000000E+00 -0.00000000000E+00 -0.17427528298E+02  0.17427528298E+02  0.00000000000E+00 0.  1.
         24    1    1    2    0    0 -0.70218688996E+02 -0.11092934465E+03  0.41104056099E+03  0.43892771902E+03  0.80419002446E+02 0.  1.
        -24    1    1    2    0    0  0.70218688996E+02  0.11092934465E+03  0.16974018711E+04  0.17043697697E+04  0.80419002446E+02 0. -1.
<mgrwt>
<rscale>  0 0.15395844E+03</rscale>
<asrwt>0</asrwt>
<pdfrwt beam="1">  1        1 0.32705671E+00 0.15395844E+03</pdfrwt>
<pdfrwt beam="2">  1       -1 0.26811599E-02 0.15395844E+03</pdfrwt>
<totfact> 0.12568960E+03</totfact>
</mgrwt>
</event>
<event>
 4    3  0.9203887E-001  0.8786224E+02  0.7546771E-02  0.1308113E+00
         -4   -1    0    0    0  501 -0.00000000000E+00  0.00000000000E+00  0.12732280894E+03  0.12732280894E+03  0.00000000000E+00 0.  1.
          4   -1    0    0  501    0  0.00000000000E+00 -0.00000000000E+00 -0.43458722295E+03  0.43458722295E+03  0.00000000000E+00 0. -1.
         24    1    1    2    0    0 -0.11928018770E+02 -0.33320848507E+02 -0.41425260689E+03  0.42346782032E+03  0.80419002446E+02 0. -1.
        -24    1    1    2    0    0  0.11928018770E+02  0.33320848507E+02  0.10698819287E+03  0.13844221157E+03  0.80419002446E+02 0.  1.
<mgrwt>
<rscale>  0 0.87862236E+02</rscale>
<asrwt>0</asrwt>
<pdfrwt beam="1">  1        4 0.66859573E-01 0.87862236E+02</pdfrwt>
<pdfrwt beam="2">  1       -4 0.19588124E-01 0.87862236E+02</pdfrwt>
<totfact> 0.76882571E+01</totfact>
</mgrwt>
</event>
<event>
 4    3  0.9203887E-001  0.1120283E+03  0.7546771E-02  0.1256859E+00
          2   -1    0    0  501    0  0.00000000000E+00  0.00000000000E+00  0.31734029736E+03  0.31734029736E+03  0.00000000000E+00 0. -1.
         -2   -1    0    0    0  501 -0.00000000000E+00 -0.00000000000E+00 -0.45111319766E+02  0.45111319766E+02  0.00000000000E+00 0.  1.
         24    1    1    2    0    0  0.77991807849E+02  0.63495198228E+00  0.72475432104E+02  0.13342799357E+03  0.80419002446E+02 0.  0.
        -24    1    1    2    0    0 -0.77991807849E+02 -0.63495198228E+00  0.19975354549E+03  0.22902362355E+03  0.80419002446E+02 0.  1.
<mgrwt>
<rscale>  0 0.11202832E+03</rscale>
<asrwt>0</asrwt>
<pdfrwt beam="1">  1        2 0.48821583E-01 0.11202833E+03</pdfrwt>
<pdfrwt beam="2">  1       -2 0.69402032E-02 0.11202833E+03</pdfrwt>
<totfact> 0.11296348E+04</totfact>
</mgrwt>
</event>
<event>
 4    3  0.9203887E-001  0.9618602E+02  0.7546771E-02  0.1288527E+00
          4   -1    0    0  501    0  0.00000000000E+00  0.00000000000E+00  0.96353687953E+02  0.96353687953E+02  0.00000000000E+00 0. -1.
         -4   -1    0    0    0  501 -0.00000000000E+00 -0.00000000000E+00 -0.10382599072E+03  0.10382599072E+03  0.00000000000E+00 0.  1.
         24    1    1    2    0    0  0.42159750708E+02 -0.31734670896E+02  0.23710467628E+02  0.99065312527E+02  0.80419002446E+02 0. -1.
        -24    1    1    2    0    0 -0.42159750708E+02  0.31734670896E+02 -0.31182770391E+02  0.10111436614E+03  0.80419002446E+02 0.  1.
<mgrwt>
<rscale>  0 0.96186017E+02</rscale>
<asrwt>0</asrwt>
<pdfrwt beam="1">  1        4 0.14823644E-01 0.96186017E+02</pdfrwt>
<pdfrwt beam="2">  1       -4 0.15973229E-01 0.96186017E+02</pdfrwt>
<totfact> 0.19625335E+03</totfact>
</mgrwt>
</event>
<event>
 4    3  0.9203887E-001  0.9116805E+02  0.7546771E-02  0.1300048E+00
          2   -1    0    0  501    0  0.00000000000E+00  0.00000000000E+00  0.21591359869E+04  0.21591359869E+04  0.00000000000E+00 0. -1.
         -2   -1    0    0    0  501 -0.00000000000E+00 -0.00000000000E+00 -0.42559212169E+01  0.42559212169E+01  0.00000000000E+00 0.  1.
         24    1    1    2    0    0  0.13288531836E+02  0.40838851901E+02  0.14117058218E+04  0.14146465779E+04  0.80419002446E+02 0. -1.
        -24    1    1    2    0    0 -0.13288531836E+02 -0.40838851901E+02  0.74317424383E+03  0.74874533023E+03  0.80419002446E+02 0.  1.
<mgrwt>
<rscale>  0 0.91168047E+02</rscale>
<asrwt>0</asrwt>
<pdfrwt beam="1">  1        2 0.33217389E+00 0.91168047E+02</pdfrwt>
<pdfrwt beam="2">  1       -2 0.65475883E-03 0.91168047E+02</pdfrwt>
<totfact> 0.22916021E+04</totfact>
</mgrwt>
</event>
<event>
 4    3  0.9203887E-001  0.8436394E+02  0.7546771E-02  0.1317104E+00
         -2   -1    0    0    0  501 -0.00000000000E+00  0.00000000000E+00  0.30876623860E+02  0.30876623860E+02  0.00000000000E+00 0.  1.
          2   -1    0    0  501    0  0.00000000000E+00 -0.00000000000E+00 -0.52956369261E+03  0.52956369261E+03  0.00000000000E+00 0. -1.
         24    1    1    2    0    0  0.25240050852E+02  0.36053130675E+01 -0.45992353329E+03  0.46759697484E+03  0.80419002446E+02 0. -1.
        -24    1    1    2    0    0 -0.25240050852E+02 -0.36053130675E+01 -0.38763535456E+02  0.92843341628E+02  0.80419002446E+02 0.  1.
<mgrwt>
<rscale>  0 0.84363940E+02</rscale>
<asrwt>0</asrwt>
<pdfrwt beam="1">  1        2 0.81471337E-01 0.84363940E+02</pdfrwt>
<pdfrwt beam="2">  1       -2 0.47502499E-02 0.84363940E+02</pdfrwt>
<totfact> 0.11304892E+04</totfact>
</mgrwt>
</event>
<event>
 4    3  0.9203887E-001  0.1381860E+03  0.7546771E-02  0.1215791E+00
          2   -1    0    0  501    0  0.00000000000E+00  0.00000000000E+00  0.17842689728E+04  0.17842689728E+04  0.00000000000E+00 0. -1.
         -2   -1    0    0    0  501 -0.00000000000E+00 -0.00000000000E+00 -0.37207759154E+02  0.37207759154E+02  0.00000000000E+00 0.  1.
         24    1    1    2    0    0  0.42038016353E+02  0.10421598851E+03  0.16422120051E+04  0.16480156713E+04  0.80419002446E+02 0. -1.
        -24    1    1    2    0    0 -0.42038016353E+02 -0.10421598851E+03  0.10484920849E+03  0.17346106063E+03  0.80419002446E+02 0.  1.
<mgrwt>
<rscale>  0 0.13818605E+03</rscale>
<asrwt>0</asrwt>
<pdfrwt beam="1">  1        2 0.27450285E+00 0.13818605E+03</pdfrwt>
<pdfrwt beam="2">  1       -2 0.57242721E-02 0.13818605E+03</pdfrwt>
<totfact> 0.15510020E+03</totfact>
</mgrwt>
</event>
<event>
 4    3  0.9203887E-001  0.1049088E+03  0.7546771E-02  0.1270299E+00
         -3   -1    0    0    0  501 -0.00000000000E+00  0.00000000000E+00  0.30358354577E+03  0.30358354577E+03  0.00000000000E+00 0.  1.
          3   -1    0    0  501    0  0.00000000000E+00 -0.00000000000E+00 -0.20078535934E+03  0.20078535934E+03  0.00000000000E+00 0. -1.
         24    1    1    2    0    0  0.67327179959E+02  0.23871711665E+01  0.27968428192E+03  0.29871250603E+03  0.80419002446E+02 0.  1.
        -24    1    1    2    0    0 -0.67327179959E+02 -0.23871711665E+01 -0.17688609549E+03  0.20565639908E+03  0.80419002446E+02 0. -1.
<mgrwt>
<rscale>  0 0.10490884E+03</rscale>
<asrwt>0</asrwt>
<pdfrwt beam="1">  1        3 0.30890055E-01 0.10490884E+03</pdfrwt>
<pdfrwt beam="2">  1       -3 0.46705161E-01 0.10490884E+03</pdfrwt>
<totfact> 0.10617278E+02</totfact>
</mgrwt>
</event>
<event>
 4    3  0.9203887E-001  0.9014598E+02  0.7546771E-02  0.1302499E+00
          2   -1    0    0  501    0  0.00000000000E+00  0.00000000000E+00  0.62548930141E+03  0.62548930141E+03  0.00000000000E+00 0. -1.
         -2   -1    0    0    0  501 -0.00000000000E+00 -0.00000000000E+00 -0.20915280948E+02  0.20915280948E+02  0.00000000000E+00 0.  1.
         24    1    1    2    0    0  0.16764839863E+01 -0.40697314449E+02  0.50121582473E+03  0.50925789234E+03  0.80419002446E+02 0. -1.
        -24    1    1    2    0    0 -0.16764839863E+01  0.40697314449E+02  0.10335819573E+03  0.13714669001E+03  0.80419002446E+02 0.  1.
<mgrwt>
<rscale>  0 0.90145981E+02</rscale>
<asrwt>0</asrwt>
<pdfrwt beam="1">  1        2 0.96229109E-01 0.90145981E+02</pdfrwt>
<pdfrwt beam="2">  1       -2 0.32177360E-02 0.90145981E+02</pdfrwt>
<totfact> 0.16750050E+04</totfact>
</mgrwt>
</event>
<event>
 4    3  0.9203887E-001  0.8657813E+02  0.7546771E-02  0.1311356E+00
         -2   -1    0    0    0  501 -0.00000000000E+00  0.00000000000E+00  0.26596607844E+01  0.26596607844E+01  0.00000000000E+00 0.  1.
          2   -1    0    0  501    0  0.00000000000E+00 -0.00000000000E+00 -0.37978817057E+04  0.37978817057E+04  0.00000000000E+00 0. -1.
         24    1    1    2    0    0 -0.30564897688E+02 -0.97130516997E+01 -0.28626856353E+04  0.28639945563E+04  0.80419002446E+02 0. -1.
        -24    1    1    2    0    0  0.30564897688E+02  0.97130516997E+01 -0.93253640965E+03  0.93654681016E+03  0.80419002446E+02 0.  1.
<mgrwt>
<rscale>  0 0.86578128E+02</rscale>
<asrwt>0</asrwt>
<pdfrwt beam="1">  1        2 0.58428927E+00 0.86578128E+02</pdfrwt>
<pdfrwt beam="2">  1       -2 0.40917874E-03 0.86578128E+02</pdfrwt>
<totfact> 0.50082646E+03</totfact>
</mgrwt>
</event>
<event>
 4    3  0.9203887E-001  0.8089367E+02  0.7546771E-02  0.1326534E+00
         -2   -1    0    0    0  501 -0.00000000000E+00  0.00000000000E+00  0.29367822262E+02  0.29367822262E+02  0.00000000000E+00 0.  1.
          2   -1    0    0  501    0  0.00000000000E+00 -0.00000000000E+00 -0.25589152120E+03  0.25589152120E+03  0.00000000000E+00 0. -1.
         24    1    1    2    0    0 -0.15296403572E+01 -0.86156713402E+01 -0.16453599419E+03  0.18334633602E+03  0.80419002446E+02 0.  0.
        -24    1    1    2    0    0  0.15296403572E+01  0.86156713402E+01 -0.61987704747E+02  0.10191300745E+03  0.80419002446E+02 0.  1.
<mgrwt>
<rscale>  0 0.80893668E+02</rscale>
<asrwt>0</asrwt>
<pdfrwt beam="1">  1        2 0.39367926E-01 0.80893668E+02</pdfrwt>
<pdfrwt beam="2">  1       -2 0.45181266E-02 0.80893668E+02</pdfrwt>
<totfact> 0.26044658E+04</totfact>
</mgrwt>
</event>
<event>
 4    3  0.9203887E-001  0.1040508E+03  0.7546771E-02  0.1272001E+00
         -1   -1    0    0    0  501 -0.00000000000E+00  0.00000000000E+00  0.19324711735E+02  0.19324711735E+02  0.00000000000E+00 0.  1.
          1   -1    0    0  501    0  0.00000000000E+00 -0.00000000000E+00 -0.58918372966E+03  0.58918372966E+03  0.00000000000E+00 0. -1.
         24    1    1    2    0    0  0.57477399318E+02  0.32491524297E+02 -0.21749945170E+03  0.24110698461E+03  0.80419002446E+02 0.  1.
        -24    1    1    2    0    0 -0.57477399318E+02 -0.32491524297E+02 -0.35235956623E+03  0.36740145679E+03  0.80419002446E+02 0. -1.
<mgrwt>
<rscale>  0 0.10405079E+03</rscale>
<asrwt>0</asrwt>
<pdfrwt beam="1">  1        1 0.90643633E-01 0.10405079E+03</pdfrwt>
<pdfrwt beam="2">  1       -1 0.29730331E-02 0.10405079E+03</pdfrwt>
<totfact> 0.12840650E+04</totfact>
</mgrwt>
</event>
<event>
 4    3  0.9203887E-001  0.1220310E+03  0.7546771E-02  0.1239784E+00
         -2   -1    0    0    0  501 -0.00000000000E+00  0.00000000000E+00  0.14369115246E+02  0.14369115246E+02  0.00000000000E+00 0.  1.
          2   -1    0    0  501    0  0.00000000000E+00 -0.00000000000E+00 -0.12660225715E+04  0.12660225715E+04  0.00000000000E+00 0. -1.
         24    1    1    2    0    0  0.91725245497E+02  0.32910412788E+01 -0.89849701201E+03  0.90674607700E+03  0.80419002446E+02 0. -1.
        -24    1    1    2    0    0 -0.91725245497E+02 -0.32910412788E+01 -0.35315644421E+03  0.37364560971E+03  0.80419002446E+02 0.  1.
<mgrwt>
<rscale>  0 0.12203101E+03</rscale>
<asrwt>0</asrwt>
<pdfrwt beam="1">  1        2 0.19477273E+00 0.12203101E+03</pdfrwt>
<pdfrwt beam="2">  1       -2 0.22106328E-02 0.12203101E+03</pdfrwt>
<totfact> 0.11761761E+04</totfact>
</mgrwt>
</event>
<event>
 4    3  0.9203887E-001  0.9081335E+02  0.7546771E-02  0.1300894E+00
          1   -1    0    0  501    0  0.00000000000E+00  0.00000000000E+00  0.17670734297E+02  0.17670734297E+02  0.00000000000E+00 0. -1.
         -1   -1    0    0    0  501 -0.00000000000E+00 -0.00000000000E+00 -0.79971516717E+03  0.79971516717E+03  0.00000000000E+00 0.  1.
         24    1    1    2    0    0 -0.29571048174E+01  0.42084482652E+02 -0.65475043518E+03  0.66101830267E+03  0.80419002446E+02 0.  1.
        -24    1    1    2    0    0  0.29571048174E+01 -0.42084482652E+02 -0.12729399769E+03  0.15636759879E+03  0.80419002446E+02 0. -1.
<mgrwt>
<rscale>  0 0.90813348E+02</rscale>
<asrwt>0</asrwt>
<pdfrwt beam="1">  1        1 0.27185738E-02 0.90813348E+02</pdfrwt>
<pdfrwt beam="2">  1       -1 0.12303313E+00 0.90813348E+02</pdfrwt>
<totfact> 0.23042088E+03</totfact>
</mgrwt>
</event>
<event>
 4    3  0.9203887E-001  0.1177480E+03  0.7546771E-02  0.1246859E+00
         -2   -1    0    0    0  501 -0.00000000000E+00  0.00000000000E+00  0.61510338088E+02  0.61510338088E+02  0.00000000000E+00 0.  1.
          2   -1    0    0  501    0  0.00000000000E+00 -0.00000000000E+00 -0.57046124124E+03  0.57046124124E+03  0.00000000000E+00 0. -1.
         24    1    1    2    0    0 -0.69614675034E+02 -0.50509090598E+02 -0.50022966086E+03  0.51390106127E+03  0.80419002446E+02 0. -1.
        -24    1    1    2    0    0  0.69614675034E+02  0.50509090598E+02 -0.87212422891E+01  0.11807051806E+03  0.80419002446E+02 0.  1.
<mgrwt>
<rscale>  0 0.11774798E+03</rscale>
<asrwt>0</asrwt>
<pdfrwt beam="1">  1        2 0.87763270E-01 0.11774798E+03</pdfrwt>
<pdfrwt beam="2">  1       -2 0.94631287E-02 0.11774798E+03</pdfrwt>
<totfact> 0.37441325E+03</totfact>
</mgrwt>
</event>
<event>
 4    3  0.9203887E-001  0.8439592E+02  0.7546771E-02  0.1317020E+00
          1   -1    0    0  501    0  0.00000000000E+00  0.00000000000E+00  0.15871903467E+03  0.15871903467E+03  0.00000000000E+00 0. -1.
         -1   -1    0    0    0  501 -0.00000000000E+00 -0.00000000000E+00 -0.17487406558E+03  0.17487406558E+03  0.00000000000E+00 0.  1.
         24    1    1    2    0    0  0.64482468166E+01 -0.24776525514E+02 -0.15188875861E+03  0.17376094800E+03  0.80419002446E+02 0.  1.
        -24    1    1    2    0    0 -0.64482468166E+01  0.24776525514E+02  0.13573372769E+03  0.15983215225E+03  0.80419002446E+02 0. -1.
<mgrwt>
<rscale>  0 0.84395924E+02</rscale>
<asrwt>0</asrwt>
<pdfrwt beam="1">  1        1 0.24418313E-01 0.84395924E+02</pdfrwt>
<pdfrwt beam="2">  1       -1 0.26903702E-01 0.84395924E+02</pdfrwt>
<totfact> 0.23049902E+03</totfact>
</mgrwt>
</event>
<event>
 4    3  0.9203887E-001  0.8377530E+02  0.7546771E-02  0.1318667E+00
         -1   -1    0    0    0  501 -0.00000000000E+00  0.00000000000E+00  0.40063886364E+02  0.40063886364E+02  0.00000000000E+00 0.  1.
          1   -1    0    0  501    0  0.00000000000E+00 -0.00000000000E+00 -0.20758638924E+03  0.20758638924E+03  0.00000000000E+00 0. -1.
         24    1    1    2    0    0 -0.17180649813E+02 -0.15997072690E+02 -0.13268734319E+03  0.15692108864E+03  0.80419002446E+02 0. -1.
        -24    1    1    2    0    0  0.17180649813E+02  0.15997072690E+02 -0.34835159689E+02  0.90729186966E+02  0.80419002446E+02 0.  1.
<mgrwt>
<rscale>  0 0.83775287E+02</rscale>
<asrwt>0</asrwt>
<pdfrwt beam="1">  1        1 0.31936368E-01 0.83775298E+02</pdfrwt>
<pdfrwt beam="2">  1       -1 0.61636748E-02 0.83775298E+02</pdfrwt>
<totfact> 0.15969163E+04</totfact>
</mgrwt>
</event>
<event>
 4    3  0.9203887E-001  0.9045911E+02  0.7546771E-02  0.1301744E+00
         -2   -1    0    0    0  501 -0.00000000000E+00  0.00000000000E+00  0.99193189385E+01  0.99193189385E+01  0.00000000000E+00 0. -1.
          2   -1    0    0  501    0  0.00000000000E+00 -0.00000000000E+00 -0.88586044381E+03  0.88586044381E+03  0.00000000000E+00 0.  1.
         24    1    1    2    0    0 -0.65015507583E+01  0.40906728598E+02 -0.32051628613E+03  0.33303683916E+03  0.80419002446E+02 0.  0.
        -24    1    1    2    0    0  0.65015507583E+01 -0.40906728598E+02 -0.55542483874E+03  0.56274292359E+03  0.80419002446E+02 0.  1.
<mgrwt>
<rscale>  0 0.90459099E+02</rscale>
<asrwt>0</asrwt>
<pdfrwt beam="1">  1        2 0.13628621E+00 0.90459110E+02</pdfrwt>
<pdfrwt beam="2">  1       -2 0.15260492E-02 0.90459110E+02</pdfrwt>
<totfact> 0.32396221E+04</totfact>
</mgrwt>
</event>
<event>
 4    3  0.9203887E-001  0.1133297E+03  0.7546771E-02  0.1254525E+00
          4   -1    0    0  501    0  0.00000000000E+00  0.00000000000E+00  0.31064551245E+02  0.31064551245E+02  0.00000000000E+00 0. -1.
         -4   -1    0    0    0  501 -0.00000000000E+00 -0.00000000000E+00 -0.21852376492E+04  0.21852376492E+04  0.00000000000E+00 0.  1.
         24    1    1    2    0    0  0.72675946778E+02 -0.33084882459E+02 -0.79258841910E+02  0.13829527346E+03  0.80419002446E+02 0. -1.
        -24    1    1    2    0    0 -0.72675946778E+02  0.33084882459E+02 -0.20749142561E+04  0.20780069270E+04  0.80419002446E+02 0.  1.
<mgrwt>
<rscale>  0 0.11332969E+03</rscale>
<asrwt>0</asrwt>
<pdfrwt beam="1">  1        4 0.47791624E-02 0.11332969E+03</pdfrwt>
<pdfrwt beam="2">  1       -4 0.33619036E+00 0.11332969E+03</pdfrwt>
<totfact> 0.99922381E+00</totfact>
</mgrwt>
</event>
<event>
 4    3  0.9203887E-001  0.5853933E+03  0.7546771E-02  0.9936183E-01
          1   -1    0    0  501    0  0.00000000000E+00  0.00000000000E+00  0.23488584567E+04  0.23488584567E+04  0.00000000000E+00 0. -1.
         -1   -1    0    0    0  501 -0.00000000000E+00 -0.00000000000E+00 -0.15052558349E+03  0.15052558349E+03  0.00000000000E+00 0.  1.
         24    1    1    2    0    0  0.46124885318E+03 -0.35137927550E+03  0.13183699008E+04  0.14424923955E+04  0.80419002446E+02 0.  1.
        -24    1    1    2    0    0 -0.46124885318E+03  0.35137927550E+03  0.87996297241E+03  0.10568916447E+04  0.80419002446E+02 0. -1.
<mgrwt>
<rscale>  0 0.58539320E+03</rscale>
<asrwt>0</asrwt>
<pdfrwt beam="1">  1        1 0.36136281E+00 0.58539328E+03</pdfrwt>
<pdfrwt beam="2">  1       -1 0.23157784E-01 0.58539328E+03</pdfrwt>
<totfact> 0.29412851E+01</totfact>
</mgrwt>
</event>
<event>
 4    3  0.9203887E-001  0.1200967E+03  0.7546771E-02  0.1242938E+00
          2   -1    0    0  501    0  0.00000000000E+00  0.00000000000E+00  0.12135425448E+03  0.12135425448E+03  0.00000000000E+00 0. -1.
         -2   -1    0    0    0  501 -0.00000000000E+00 -0.00000000000E+00 -0.30071610643E+03  0.30071610643E+03  0.00000000000E+00 0.  1.
         24    1    1    2    0    0  0.88116263577E+02  0.13839040406E+02  0.74434673593E+02  0.14129306966E+03  0.80419002446E+02 0. -1.
        -24    1    1    2    0    0 -0.88116263577E+02 -0.13839040406E+02 -0.25379652554E+03  0.28077729125E+03  0.80419002446E+02 0.  1.
<mgrwt>
<rscale>  0 0.12009667E+03</rscale>
<asrwt>0</asrwt>
<pdfrwt beam="1">  1        2 0.18669886E-01 0.12009667E+03</pdfrwt>
<pdfrwt beam="2">  1       -2 0.46264016E-01 0.12009667E+03</pdfrwt>
<totfact> 0.13128492E+03</totfact>
</mgrwt>
</event>
<event>
 4    3  0.9203887E-001  0.8715267E+02  0.7546771E-02  0.1309897E+00
         -1   -1    0    0    0  501 -0.00000000000E+00  0.00000000000E+00  0.55230056984E+02  0.55230056984E+02  0.00000000000E+00 0.  1.
          1   -1    0    0  501    0  0.00000000000E+00 -0.00000000000E+00 -0.28629610002E+03  0.28629610002E+03  0.00000000000E+00 0. -1.
         24    1    1    2    0    0  0.79945486950E+01 -0.32626047156E+02  0.75628783883E+01  0.87480196878E+02  0.80419002446E+02 0.  0.
        -24    1    1    2    0    0 -0.79945486950E+01  0.32626047156E+02 -0.23862892143E+03  0.25404596013E+03  0.80419002446E+02 0.  0.
<mgrwt>
<rscale>  0 0.87152669E+02</rscale>
<asrwt>0</asrwt>
<pdfrwt beam="1">  1        1 0.44045553E-01 0.87152669E+02</pdfrwt>
<pdfrwt beam="2">  1       -1 0.84969320E-02 0.87152669E+02</pdfrwt>
<totfact> 0.67293459E+03</totfact>
</mgrwt>
</event>
<event>
 4    3  0.9203887E-001  0.8926861E+02  0.7546771E-02  0.1304633E+00
         -2   -1    0    0    0  501 -0.00000000000E+00  0.00000000000E+00  0.20732070738E+03  0.20732070738E+03  0.00000000000E+00 0.  1.
          2   -1    0    0  501    0  0.00000000000E+00 -0.00000000000E+00 -0.38462387837E+02  0.38462387837E+02  0.00000000000E+00 0. -1.
         24    1    1    2    0    0  0.30445352943E+02  0.23973858968E+02  0.87557735969E+02  0.12504094734E+03  0.80419002446E+02 0.  0.
        -24    1    1    2    0    0 -0.30445352943E+02 -0.23973858968E+02  0.81300583572E+02  0.12074214787E+03  0.80419002446E+02 0.  0.
<mgrwt>
<rscale>  0 0.89268602E+02</rscale>
<asrwt>0</asrwt>
<pdfrwt beam="1">  1        2 0.59172905E-02 0.89268614E+02</pdfrwt>
<pdfrwt beam="2">  1       -2 0.31895493E-01 0.89268614E+02</pdfrwt>
<totfact> 0.10323900E+04</totfact>
</mgrwt>
</event>
<event>
 4    3  0.9203887E-001  0.1319142E+03  0.7546771E-02  0.1224643E+00
          1   -1    0    0  501    0  0.00000000000E+00  0.00000000000E+00  0.13369980314E+04  0.13369980314E+04  0.00000000000E+00 0. -1.
         -1   -1    0    0    0  501 -0.00000000000E+00 -0.00000000000E+00 -0.16867731405E+02  0.16867731405E+02  0.00000000000E+00 0.  1.
         24    1    1    2    0    0  0.44969241824E+02 -0.94402943795E+02  0.33655529716E+03  0.36148420783E+03  0.80419002446E+02 0.  1.
        -24    1    1    2    0    0 -0.44969241824E+02  0.94402943795E+02  0.98357500286E+03  0.99238155501E+03  0.80419002446E+02 0. -1.
<mgrwt>
<rscale>  0 0.13191423E+03</rscale>
<asrwt>0</asrwt>
<pdfrwt beam="1">  1        1 0.20569192E+00 0.13191423E+03</pdfrwt>
<pdfrwt beam="2">  1       -1 0.25950366E-02 0.13191423E+03</pdfrwt>
<totfact> 0.42322865E+03</totfact>
</mgrwt>
</event>
<event>
 4    3  0.9203887E-001  0.8062288E+02  0.7546771E-02  0.1327293E+00
         -1   -1    0    0    0  501 -0.00000000000E+00  0.00000000000E+00  0.24171794454E+03  0.24171794454E+03  0.00000000000E+00 0.  1.
          1   -1    0    0  501    0  0.00000000000E+00 -0.00000000000E+00 -0.10801052841E+03  0.10801052841E+03  0.00000000000E+00 0. -1.
         24    1    1    2    0    0 -0.19048100550E+00 -0.57267636771E+01  0.21839484437E+03  0.23280110848E+03  0.80419002446E+02 0.  1.
        -24    1    1    2    0    0  0.19048100550E+00  0.57267636771E+01 -0.84687428240E+02  0.11692736447E+03  0.80419002446E+02 0. -1.
<mgrwt>
<rscale>  0 0.80622876E+02</rscale>
<asrwt>0</asrwt>
<pdfrwt beam="1">  1        1 0.16617004E-01 0.80622876E+02</pdfrwt>
<pdfrwt beam="2">  1       -1 0.37187376E-01 0.80622876E+02</pdfrwt>
<totfact> 0.21676662E+03</totfact>
</mgrwt>
</event>
<event>
 4    3  0.9203887E-001  0.1316769E+03  0.7546771E-02  0.1224988E+00
         -1   -1    0    0    0  501 -0.00000000000E+00  0.00000000000E+00  0.95112113880E+02  0.95112113880E+02  0.00000000000E+00 0.  1.
          1   -1    0    0  501    0  0.00000000000E+00 -0.00000000000E+00 -0.25225155349E+03  0.25225155349E+03  0.00000000000E+00 0. -1.
         24    1    1    2    0    0  0.10263575977E+03 -0.18371037242E+02  0.12892205107E+02  0.13230653461E+03  0.80419002446E+02 0.  1.
        -24    1    1    2    0    0 -0.10263575977E+03  0.18371037242E+02 -0.17003164472E+03  0.21505713276E+03  0.80419002446E+02 0. -1.
<mgrwt>
<rscale>  0 0.13167692E+03</rscale>
<asrwt>0</asrwt>
<pdfrwt beam="1">  1        1 0.38807930E-01 0.13167692E+03</pdfrwt>
<pdfrwt beam="2">  1       -1 0.14632633E-01 0.13167692E+03</pdfrwt>
<totfact> 0.35180606E+03</totfact>
</mgrwt>
</event>
<event>
 4    3  0.9203887E-001  0.8087861E+02  0.7546771E-02  0.1326576E+00
         -2   -1    0    0    0  501 -0.00000000000E+00  0.00000000000E+00  0.44382287327E+02  0.44382287327E+02  0.00000000000E+00 0.  1.
          2   -1    0    0  501    0  0.00000000000E+00 -0.00000000000E+00 -0.23026275638E+03  0.23026275638E+03  0.00000000000E+00 0. -1.
         24    1    1    2    0    0  0.49940279969E+01  0.70138330941E+01 -0.17532463309E+03  0.19308049382E+03  0.80419002446E+02 0.  0.
        -24    1    1    2    0    0 -0.49940279969E+01 -0.70138330941E+01 -0.10555835955E+02  0.81564549882E+02  0.80419002446E+02 0.  1.
<mgrwt>
<rscale>  0 0.80878614E+02</rscale>
<asrwt>0</asrwt>
<pdfrwt beam="1">  1        2 0.35425039E-01 0.80878614E+02</pdfrwt>
<pdfrwt beam="2">  1       -2 0.68280442E-02 0.80878614E+02</pdfrwt>
<totfact> 0.15728041E+04</totfact>
</mgrwt>
</event>
<event>
 4    3  0.9203887E-001  0.1264771E+03  0.7546771E-02  0.1232779E+00
         -2   -1    0    0    0  501 -0.00000000000E+00  0.00000000000E+00  0.70521061474E+02  0.70521061474E+02  0.00000000000E+00 0.  1.
          2   -1    0    0  501    0  0.00000000000E+00 -0.00000000000E+00 -0.25197550217E+03  0.25197550217E+03  0.00000000000E+00 0. -1.
         24    1    1    2    0    0 -0.19133243581E+02  0.95724431222E+02 -0.14166325265E+03  0.18990771667E+03  0.80419002446E+02 0.  1.
        -24    1    1    2    0    0  0.19133243581E+02 -0.95724431222E+02 -0.39791188043E+02  0.13258884698E+03  0.80419002446E+02 0. -1.
<mgrwt>
<rscale>  0 0.12647713E+03</rscale>
<asrwt>0</asrwt>
<pdfrwt beam="1">  1        2 0.38765462E-01 0.12647713E+03</pdfrwt>
<pdfrwt beam="2">  1       -2 0.10849394E-01 0.12647713E+03</pdfrwt>
<totfact> 0.72795664E+03</totfact>
</mgrwt>
</event>
<event>
 4    3  0.9203887E-001  0.8988153E+02  0.7546771E-02  0.1303139E+00
         -2   -1    0    0    0  501 -0.00000000000E+00  0.00000000000E+00  0.27728970639E+01  0.27728970639E+01  0.00000000000E+00 0.  1.
          2   -1    0    0  501    0  0.00000000000E+00 -0.00000000000E+00 -0.29167066922E+04  0.29167066922E+04  0.00000000000E+00 0. -1.
         24    1    1    2    0    0 -0.40016776709E+02 -0.31823897624E+01 -0.14081600075E+04  0.14110256173E+04  0.80419002446E+02 0. -1.
        -24    1    1    2    0    0  0.40016776709E+02  0.31823897624E+01 -0.15057737877E+04  0.15084539720E+04  0.80419002446E+02 0.  1.
<mgrwt>
<rscale>  0 0.89881522E+02</rscale>
<asrwt>0</asrwt>
<pdfrwt beam="1">  1        2 0.44872300E+00 0.89881533E+02</pdfrwt>
<pdfrwt beam="2">  1       -2 0.42660060E-03 0.89881533E+02</pdfrwt>
<totfact> 0.16579080E+04</totfact>
</mgrwt>
</event>
<event>
 4    3  0.9203887E-001  0.8243402E+02  0.7546771E-02  0.1322283E+00
         -2   -1    0    0    0  501 -0.00000000000E+00  0.00000000000E+00  0.27707633677E+01  0.27707633677E+01  0.00000000000E+00 0.  1.
          2   -1    0    0  501    0  0.00000000000E+00 -0.00000000000E+00 -0.25369380478E+04  0.25369380478E+04  0.00000000000E+00 0. -1.
         24    1    1    2    0    0 -0.12621804999E+02 -0.12993889180E+02 -0.14987181145E+04  0.15009834622E+04  0.80419002446E+02 0.  0.
        -24    1    1    2    0    0  0.12621804999E+02  0.12993889180E+02 -0.10354491700E+04  0.10387253490E+04  0.80419002446E+02 0.  0.
<mgrwt>
<rscale>  0 0.82434016E+02</rscale>
<asrwt>0</asrwt>
<pdfrwt beam="1">  1        2 0.39029809E+00 0.82434016E+02</pdfrwt>
<pdfrwt beam="2">  1       -2 0.42627136E-03 0.82434016E+02</pdfrwt>
<totfact> 0.26546132E+04</totfact>
</mgrwt>
</event>
<event>
 4    3  0.9203887E-001  0.9538115E+02  0.7546771E-02  0.1290320E+00
          4   -1    0    0  501    0  0.00000000000E+00  0.00000000000E+00  0.56180162404E+03  0.56180162404E+03  0.00000000000E+00 0. -1.
         -4   -1    0    0    0  501 -0.00000000000E+00 -0.00000000000E+00 -0.16493211101E+02  0.16493211101E+02  0.00000000000E+00 0.  1.
         24    1    1    2    0    0  0.23575500445E+02  0.45547160160E+02  0.31162867813E+03  0.32589875270E+03  0.80419002446E+02 0. -1.
        -24    1    1    2    0    0 -0.23575500445E+02 -0.45547160160E+02  0.23367973480E+03  0.25239608244E+03  0.80419002446E+02 0.  1.
<mgrwt>
<rscale>  0 0.95381151E+02</rscale>
<asrwt>0</asrwt>
<pdfrwt beam="1">  1        4 0.86431005E-01 0.95381151E+02</pdfrwt>
<pdfrwt beam="2">  1       -4 0.25374175E-02 0.95381151E+02</pdfrwt>
<totfact> 0.12768520E+03</totfact>
</mgrwt>
</event>
<event>
 4    3  0.9203887E-001  0.8235706E+02  0.7546771E-02  0.1322492E+00
         -2   -1    0    0    0  501 -0.00000000000E+00  0.00000000000E+00  0.61812910612E+02  0.61812910612E+02  0.00000000000E+00 0.  1.
          2   -1    0    0  501    0  0.00000000000E+00 -0.00000000000E+00 -0.11024098128E+03  0.11024098128E+03  0.00000000000E+00 0. -1.
         24    1    1    2    0    0 -0.89511453611E+01 -0.15340868276E+02 -0.18352580776E+02  0.84377120230E+02  0.80419002446E+02 0.  1.
        -24    1    1    2    0    0  0.89511453611E+01  0.15340868276E+02 -0.30075489893E+02  0.87676771664E+02  0.80419002446E+02 0. -1.
<mgrwt>
<rscale>  0 0.82357045E+02</rscale>
<asrwt>0</asrwt>
<pdfrwt beam="1">  1        2 0.16960151E-01 0.82357055E+02</pdfrwt>
<pdfrwt beam="2">  1       -2 0.95096785E-02 0.82357055E+02</pdfrwt>
<totfact> 0.21214283E+04</totfact>
</mgrwt>
</event>
<event>
 4    3  0.9203887E-001  0.8681752E+02  0.7546771E-02  0.1310747E+00
         -1   -1    0    0    0  501 -0.00000000000E+00  0.00000000000E+00  0.89857524275E+02  0.89857524275E+02  0.00000000000E+00 0.  1.
          1   -1    0    0  501    0  0.00000000000E+00 -0.00000000000E+00 -0.44163037293E+03  0.44163037293E+03  0.00000000000E+00 0. -1.
         24    1    1    2    0    0  0.26268902102E+02 -0.19493844544E+02  0.63292962418E+02  0.10743965859E+03  0.80419002446E+02 0.  1.
        -24    1    1    2    0    0 -0.26268902102E+02  0.19493844544E+02 -0.41506581108E+03  0.42404823862E+03  0.80419002446E+02 0. -1.
<mgrwt>
<rscale>  0 0.86817516E+02</rscale>
<asrwt>0</asrwt>
<pdfrwt beam="1">  1        1 0.67943135E-01 0.86817516E+02</pdfrwt>
<pdfrwt beam="2">  1       -1 0.13824234E-01 0.86817516E+02</pdfrwt>
<totfact> 0.18865599E+03</totfact>
</mgrwt>
</event>
<event>
 4    3  0.9203887E-001  0.8928240E+02  0.7546771E-02  0.1304599E+00
         -2   -1    0    0    0  501 -0.00000000000E+00  0.00000000000E+00  0.30181574724E+02  0.30181574724E+02  0.00000000000E+00 0.  1.
          2   -1    0    0  501    0  0.00000000000E+00 -0.00000000000E+00 -0.33451976788E+03  0.33451976788E+03  0.00000000000E+00 0. -1.
         24    1    1    2    0    0  0.11323524164E+02  0.37093252801E+02 -0.23582633862E+03  0.25216147514E+03  0.80419002446E+02 0.  0.
        -24    1    1    2    0    0 -0.11323524164E+02 -0.37093252801E+02 -0.68511854539E+02  0.11253986747E+03  0.80419002446E+02 0.  0.
<mgrwt>
<rscale>  0 0.89282403E+02</rscale>
<asrwt>0</asrwt>
<pdfrwt beam="1">  1        2 0.51464576E-01 0.89282403E+02</pdfrwt>
<pdfrwt beam="2">  1       -2 0.46433195E-02 0.89282403E+02</pdfrwt>
<totfact> 0.19124184E+04</totfact>
</mgrwt>
</event>
<event>
 4    3  0.9203887E-001  0.9632327E+02  0.7546771E-02  0.1288223E+00
         -2   -1    0    0    0  501 -0.00000000000E+00  0.00000000000E+00  0.55570480896E+01  0.55570480896E+01  0.00000000000E+00 0.  1.
          2   -1    0    0  501    0  0.00000000000E+00 -0.00000000000E+00 -0.19896585719E+04  0.19896585719E+04  0.00000000000E+00 0. -1.
         24    1    1    2    0    0 -0.51857595905E+02  0.11033839909E+02 -0.13921521998E+04  0.13954805334E+04  0.80419002446E+02 0. -1.
        -24    1    1    2    0    0  0.51857595905E+02 -0.11033839909E+02 -0.59194932405E+03  0.59973508658E+03  0.80419002446E+02 0.  1.
<mgrwt>
<rscale>  0 0.96323267E+02</rscale>
<asrwt>0</asrwt>
<pdfrwt beam="1">  1        2 0.30610189E+00 0.96323267E+02</pdfrwt>
<pdfrwt beam="2">  1       -2 0.85492888E-03 0.96323267E+02</pdfrwt>
<totfact> 0.19222786E+04</totfact>
</mgrwt>
</event>
<event>
 4    3  0.9203887E-001  0.9735622E+02  0.7546771E-02  0.1285956E+00
         -2   -1    0    0    0  501 -0.00000000000E+00  0.00000000000E+00  0.63970680857E+02  0.63970680857E+02  0.00000000000E+00 0.  1.
          2   -1    0    0  501    0  0.00000000000E+00 -0.00000000000E+00 -0.26916236887E+03  0.26916236887E+03  0.00000000000E+00 0. -1.
         24    1    1    2    0    0 -0.89661107782E+00  0.54865417839E+02 -0.21427394284E+03  0.23535410878E+03  0.80419002446E+02 0. -1.
        -24    1    1    2    0    0  0.89661107782E+00 -0.54865417839E+02  0.90822548223E+01  0.97778940949E+02  0.80419002446E+02 0.  1.
<mgrwt>
<rscale>  0 0.97356222E+02</rscale>
<asrwt>0</asrwt>
<pdfrwt beam="1">  1        2 0.41409596E-01 0.97356222E+02</pdfrwt>
<pdfrwt beam="2">  1       -2 0.98416431E-02 0.97356222E+02</pdfrwt>
<totfact> 0.77589656E+03</totfact>
</mgrwt>
</event>
<event>
 4    3  0.9203887E-001  0.9572758E+02  0.7546771E-02  0.1289546E+00
         -2   -1    0    0    0  501 -0.00000000000E+00  0.00000000000E+00  0.61313954114E+01  0.61313954114E+01  0.00000000000E+00 0.  1.
          2   -1    0    0  501    0  0.00000000000E+00 -0.00000000000E+00 -0.20558862739E+04  0.20558862739E+04  0.00000000000E+00 0. -1.
         24    1    1    2    0    0  0.51140983330E+02  0.90085674654E+01 -0.15636041436E+04  0.15665317386E+04  0.80419002446E+02 0.  1.
        -24    1    1    2    0    0 -0.51140983330E+02 -0.90085674654E+01 -0.48615073490E+03  0.49548593064E+03  0.80419002446E+02 0. -1.
<mgrwt>
<rscale>  0 0.95727584E+02</rscale>
<asrwt>0</asrwt>
<pdfrwt beam="1">  1        2 0.31629054E+00 0.95727584E+02</pdfrwt>
<pdfrwt beam="2">  1       -2 0.94329059E-03 0.95727584E+02</pdfrwt>
<totfact> 0.15481663E+04</totfact>
</mgrwt>
</event>
<event>
 4    3  0.9203887E-001  0.1042673E+03  0.7546771E-02  0.1271570E+00
          2   -1    0    0  501    0  0.00000000000E+00  0.00000000000E+00  0.33798801933E+03  0.33798801933E+03  0.00000000000E+00 0. -1.
         -2   -1    0    0    0  501 -0.00000000000E+00 -0.00000000000E+00 -0.35948376637E+02  0.35948376637E+02  0.00000000000E+00 0.  1.
         24    1    1    2    0    0 -0.61577224200E+02 -0.24752718741E+02  0.21166828969E+03  0.23595578493E+03  0.80419002446E+02 0. -1.
        -24    1    1    2    0    0  0.61577224200E+02  0.24752718741E+02  0.90371353004E+02  0.13798061104E+03  0.80419002446E+02 0.  1.
<mgrwt>
<rscale>  0 0.10426729E+03</rscale>
<asrwt>0</asrwt>
<pdfrwt beam="1">  1        2 0.51998155E-01 0.10426729E+03</pdfrwt>
<pdfrwt beam="2">  1       -2 0.55305197E-02 0.10426729E+03</pdfrwt>
<totfact> 0.14802703E+04</totfact>
</mgrwt>
</event>
<event>
 4    3  0.9203887E-001  0.9025745E+02  0.7546771E-02  0.1302229E+00
          1   -1    0    0  501    0  0.00000000000E+00  0.00000000000E+00  0.85200542585E+03  0.85200542585E+03  0.00000000000E+00 0. -1.
         -1   -1    0    0    0  501 -0.00000000000E+00 -0.00000000000E+00 -0.11562172958E+02  0.11562172958E+02  0.00000000000E+00 0.  1.
         24    1    1    2    0    0 -0.27222996404E+02 -0.30628423551E+02  0.24060769374E+03  0.25697951300E+03  0.80419002446E+02 0. -1.
        -24    1    1    2    0    0  0.27222996404E+02  0.30628423551E+02  0.59983555916E+03  0.60658808581E+03  0.80419002446E+02 0.  0.
<mgrwt>
<rscale>  0 0.90257453E+02</rscale>
<asrwt>0</asrwt>
<pdfrwt beam="1">  1        1 0.13107771E+00 0.90257453E+02</pdfrwt>
<pdfrwt beam="2">  1       -1 0.17787965E-02 0.90257453E+02</pdfrwt>
<totfact> 0.15686792E+04</totfact>
</mgrwt>
</event>
<event>
 4    3  0.9203887E-001  0.8330810E+02  0.7546771E-02  0.1319917E+00
          1   -1    0    0  501    0  0.00000000000E+00  0.00000000000E+00  0.12433221114E+04  0.12433221114E+04  0.00000000000E+00 0. -1.
         -1   -1    0    0    0  501 -0.00000000000E+00 -0.00000000000E+00 -0.10415415139E+03  0.10415415139E+03  0.00000000000E+00 0.  1.
         24    1    1    2    0    0 -0.15129970737E+02  0.15623931619E+02 -0.85851468610E+02  0.11962739599E+03  0.80419002446E+02 0.  1.
        -24    1    1    2    0    0  0.15129970737E+02 -0.15623931619E+02  0.12250194286E+04  0.12278488668E+04  0.80419002446E+02 0. -1.
<mgrwt>
<rscale>  0 0.83308098E+02</rscale>
<asrwt>0</asrwt>
<pdfrwt beam="1">  1        1 0.19128031E+00 0.83308098E+02</pdfrwt>
<pdfrwt beam="2">  1       -1 0.16023717E-01 0.83308098E+02</pdfrwt>
<totfact> 0.32441387E+02</totfact>
</mgrwt>
</event>
<event>
 4    3  0.9203887E-001  0.9503598E+02  0.7546771E-02  0.1291095E+00
          2   -1    0    0  501    0  0.00000000000E+00  0.00000000000E+00  0.22297305146E+03  0.22297305146E+03  0.00000000000E+00 0. -1.
         -2   -1    0    0    0  501 -0.00000000000E+00 -0.00000000000E+00 -0.14733465292E+03  0.14733465292E+03  0.00000000000E+00 0.  1.
         24    1    1    2    0    0  0.46246407540E+02 -0.20637149133E+02  0.19547985929E+03  0.21735734052E+03  0.80419002446E+02 0. -1.
        -24    1    1    2    0    0 -0.46246407540E+02  0.20637149133E+02 -0.11984146075E+03  0.15295036385E+03  0.80419002446E+02 0.  1.
<mgrwt>
<rscale>  0 0.95035983E+02</rscale>
<asrwt>0</asrwt>
<pdfrwt beam="1">  1        2 0.34303546E-01 0.95035983E+02</pdfrwt>
<pdfrwt beam="2">  1       -2 0.22666870E-01 0.95035983E+02</pdfrwt>
<totfact> 0.24387711E+03</totfact>
</mgrwt>
</event>
<event>
 4    3  0.9203887E-001  0.1076211E+03  0.7546771E-02  0.1265040E+00
         -2   -1    0    0    0  501 -0.00000000000E+00  0.00000000000E+00  0.11535619955E+02  0.11535619955E+02  0.00000000000E+00 0.  1.
          2   -1    0    0  501    0  0.00000000000E+00 -0.00000000000E+00 -0.12041186656E+04  0.12041186656E+04  0.00000000000E+00 0. -1.
         24    1    1    2    0    0  0.55918025911E+02  0.44589864559E+02 -0.84405591938E+03  0.85088935393E+03  0.80419002446E+02 0. -1.
        -24    1    1    2    0    0 -0.55918025911E+02 -0.44589864559E+02 -0.34852712627E+03  0.36476493162E+03  0.80419002446E+02 0.  1.
<mgrwt>
<rscale>  0 0.10762108E+03</rscale>
<asrwt>0</asrwt>
<pdfrwt beam="1">  1        2 0.18524900E+00 0.10762108E+03</pdfrwt>
<pdfrwt beam="2">  1       -2 0.17747110E-02 0.10762108E+03</pdfrwt>
<totfact> 0.17320821E+04</totfact>
</mgrwt>
</event>
<event>
 4    3  0.9203887E-001  0.9821199E+02  0.7546771E-02  0.1284101E+00
         -1   -1    0    0    0  501 -0.00000000000E+00  0.00000000000E+00  0.31134750399E+02  0.31134750399E+02  0.00000000000E+00 0.  1.
          1   -1    0    0  501    0  0.00000000000E+00 -0.00000000000E+00 -0.38682615763E+03  0.38682615763E+03  0.00000000000E+00 0. -1.
         24    1    1    2    0    0 -0.12957452733E+02  0.54867871457E+02 -0.84592788838E+02  0.12962073437E+03  0.80419002446E+02 0.  1.
        -24    1    1    2    0    0  0.12957452733E+02 -0.54867871457E+02 -0.27109861839E+03  0.28834017366E+03  0.80419002446E+02 0. -1.
<mgrwt>
<rscale>  0 0.98211989E+02</rscale>
<asrwt>0</asrwt>
<pdfrwt beam="1">  1        1 0.59511722E-01 0.98211989E+02</pdfrwt>
<pdfrwt beam="2">  1       -1 0.47899612E-02 0.98211989E+02</pdfrwt>
<totfact> 0.10957303E+04</totfact>
</mgrwt>
</event>
<event>
 4    3  0.9203887E-001  0.8539029E+02  0.7546771E-02  0.1314415E+00
         -2   -1    0    0    0  501 -0.00000000000E+00  0.00000000000E+00  0.82752873469E+01  0.82752873469E+01  0.00000000000E+00 0.  1.
          2   -1    0    0  501    0  0.00000000000E+00 -0.00000000000E+00 -0.11505620345E+04  0.11505620345E+04  0.00000000000E+00 0. -1.
         24    1    1    2    0    0 -0.28429968884E+02 -0.40029042287E+01 -0.85153947414E+03  0.85581012985E+03  0.80419002446E+02 0. -1.
        -24    1    1    2    0    0  0.28429968884E+02  0.40029042287E+01 -0.29074727299E+03  0.30302719198E+03  0.80419002446E+02 0.  1.
<mgrwt>
<rscale>  0 0.85390294E+02</rscale>
<asrwt>0</asrwt>
<pdfrwt beam="1">  1        2 0.17700951E+00 0.85390294E+02</pdfrwt>
<pdfrwt beam="2">  1       -2 0.12731214E-02 0.85390294E+02</pdfrwt>
<totfact> 0.29229748E+04</totfact>
</mgrwt>
</event>
<event>
 4    3  0.9203887E-001  0.1281952E+03  0.7546771E-02  0.1230159E+00
          2   -1    0    0  501    0  0.00000000000E+00  0.00000000000E+00  0.10270046077E+04  0.10270046077E+04  0.00000000000E+00 0. -1.
         -2   -1    0    0    0  501 -0.00000000000E+00 -0.00000000000E+00 -0.19666538418E+02  0.19666538418E+02  0.00000000000E+00 0.  1.
         24    1    1    2    0    0  0.70401943469E+02  0.70783864002E+02  0.72957776492E+03  0.74075483128E+03  0.80419002446E+02 0.  0.
        -24    1    1    2    0    0 -0.70401943469E+02 -0.70783864002E+02  0.27776030433E+03  0.30591631481E+03  0.80419002446E+02 0. -1.
<mgrwt>
<rscale>  0 0.12819518E+03</rscale>
<asrwt>0</asrwt>
<pdfrwt beam="1">  1        2 0.15800067E+00 0.12819518E+03</pdfrwt>
<pdfrwt beam="2">  1       -2 0.30256221E-02 0.12819518E+03</pdfrwt>
<totfact> 0.10164076E+04</totfact>
</mgrwt>
</event>
<event>
 4    3  0.9203887E-001  0.8760305E+02  0.7546771E-02  0.1308762E+00
         -2   -1    0    0    0  501 -0.00000000000E+00  0.00000000000E+00  0.12342288744E+02  0.12342288744E+02  0.00000000000E+00 0.  1.
          2   -1    0    0  501    0  0.00000000000E+00 -0.00000000000E+00 -0.76826358476E+03  0.76826358476E+03  0.00000000000E+00 0. -1.
         24    1    1    2    0    0  0.10419143800E+02 -0.33143915066E+02 -0.54838377287E+03  0.55533688511E+03  0.80419002446E+02 0. -1.
        -24    1    1    2    0    0 -0.10419143800E+02  0.33143915066E+02 -0.20753752314E+03  0.22526898839E+03  0.80419002446E+02 0.  1.
<mgrwt>
<rscale>  0 0.87603046E+02</rscale>
<asrwt>0</asrwt>
<pdfrwt beam="1">  1        2 0.11819444E+00 0.87603046E+02</pdfrwt>
<pdfrwt beam="2">  1       -2 0.18988130E-02 0.87603046E+02</pdfrwt>
<totfact> 0.28170726E+04</totfact>
</mgrwt>
</event>
<event>
 4    3  0.9203887E-001  0.8394386E+02  0.7546771E-02  0.1318218E+00
          1   -1    0    0  501    0  0.00000000000E+00  0.00000000000E+00  0.14001730526E+03  0.14001730526E+03  0.00000000000E+00 0. -1.
         -1   -1    0    0    0  501 -0.00000000000E+00 -0.00000000000E+00 -0.71574104542E+02  0.71574104542E+02  0.00000000000E+00 0.  1.
         24    1    1    2    0    0 -0.90242717343E+01 -0.22314077236E+02 -0.23421290219E+02  0.87150033351E+02  0.80419002446E+02 0.  1.
        -24    1    1    2    0    0  0.90242717343E+01  0.22314077236E+02  0.91864490936E+02  0.12444137645E+03  0.80419002446E+02 0. -1.
<mgrwt>
<rscale>  0 0.83943859E+02</rscale>
<asrwt>0</asrwt>
<pdfrwt beam="1">  1        1 0.21541124E-01 0.83943859E+02</pdfrwt>
<pdfrwt beam="2">  1       -1 0.11011401E-01 0.83943859E+02</pdfrwt>
<totfact> 0.10923141E+04</totfact>
</mgrwt>
</event>
<event>
 4    3  0.9203887E-001  0.8341851E+02  0.7546771E-02  0.1319621E+00
         -2   -1    0    0    0  501 -0.00000000000E+00  0.00000000000E+00  0.68576422565E+01  0.68576422565E+01  0.00000000000E+00 0.  1.
          2   -1    0    0  501    0  0.00000000000E+00 -0.00000000000E+00 -0.10473696063E+04  0.10473696063E+04  0.00000000000E+00 0. -1.
         24    1    1    2    0    0 -0.19090163650E+02 -0.11269292521E+02 -0.61330987431E+03  0.61895690414E+03  0.80419002446E+02 0. -1.
        -24    1    1    2    0    0  0.19090163650E+02  0.11269292521E+02 -0.42720208978E+03  0.43527034447E+03  0.80419002446E+02 0.  1.
<mgrwt>
<rscale>  0 0.83418507E+02</rscale>
<asrwt>0</asrwt>
<pdfrwt beam="1">  1        2 0.16113374E+00 0.83418507E+02</pdfrwt>
<pdfrwt beam="2">  1       -2 0.10550222E-02 0.83418507E+02</pdfrwt>
<totfact> 0.43468019E+04</totfact>
</mgrwt>
</event>
<event>
 4    3  0.9203887E-001  0.8614690E+02  0.7546771E-02  0.1312460E+00
         -1   -1    0    0    0  501 -0.00000000000E+00  0.00000000000E+00  0.40104050468E+02  0.40104050468E+02  0.00000000000E+00 0.  1.
          1   -1    0    0  501    0  0.00000000000E+00 -0.00000000000E+00 -0.29846897425E+03  0.29846897425E+03  0.00000000000E+00 0. -1.
         24    1    1    2    0    0 -0.18072841467E+02  0.25048838534E+02 -0.24827277962E+02  0.89653118161E+02  0.80419002446E+02 0.  1.
        -24    1    1    2    0    0  0.18072841467E+02 -0.25048838534E+02 -0.23353764582E+03  0.24891990656E+03  0.80419002446E+02 0. -1.
<mgrwt>
<rscale>  0 0.86146897E+02</rscale>
<asrwt>0</asrwt>
<pdfrwt beam="1">  1        1 0.45918302E-01 0.86146897E+02</pdfrwt>
<pdfrwt beam="2">  1       -1 0.61698541E-02 0.86146897E+02</pdfrwt>
<totfact> 0.10273376E+04</totfact>
</mgrwt>
</event>
<event>
 4    3  0.9203887E-001  0.9138478E+02  0.7546771E-02  0.1299533E+00
         -2   -1    0    0    0  501 -0.00000000000E+00  0.00000000000E+00  0.60169959119E+01  0.60169959119E+01  0.00000000000E+00 0.  1.
          2   -1    0    0  501    0  0.00000000000E+00 -0.00000000000E+00 -0.35673862309E+04  0.35673862309E+04  0.00000000000E+00 0. -1.
         24    1    1    2    0    0  0.41952151087E+02 -0.11134388296E+02 -0.38415237589E+03  0.39487241160E+03  0.80419002446E+02 0.  0.
        -24    1    1    2    0    0 -0.41952151087E+02  0.11134388296E+02 -0.31772168591E+04  0.31785308153E+04  0.80419002446E+02 0. -1.
<mgrwt>
<rscale>  0 0.91384767E+02</rscale>
<asrwt>0</asrwt>
<pdfrwt beam="1">  1        2 0.54882674E+00 0.91384778E+02</pdfrwt>
<pdfrwt beam="2">  1       -2 0.92569490E-03 0.91384778E+02</pdfrwt>
<totfact> 0.22680188E+03</totfact>
</mgrwt>
</event>
<event>
 4    3  0.9203887E-001  0.8351488E+02  0.7546771E-02  0.1319363E+00
          2   -1    0    0  501    0  0.00000000000E+00  0.00000000000E+00  0.31090082917E+03  0.31090082917E+03  0.00000000000E+00 0. -1.
         -2   -1    0    0    0  501 -0.00000000000E+00 -0.00000000000E+00 -0.25238844497E+02  0.25238844497E+02  0.00000000000E+00 0.  1.
         24    1    1    2    0    0  0.15632419688E+02 -0.16221821407E+02  0.19885997396E+03  0.21568501392E+03  0.80419002446E+02 0. -1.
        -24    1    1    2    0    0 -0.15632419688E+02  0.16221821407E+02  0.86802010718E+02  0.12045465974E+03  0.80419002446E+02 0.  1.
<mgrwt>
<rscale>  0 0.83514885E+02</rscale>
<asrwt>0</asrwt>
<pdfrwt beam="1">  1        2 0.47830894E-01 0.83514885E+02</pdfrwt>
<pdfrwt beam="2">  1       -2 0.38828994E-02 0.83514885E+02</pdfrwt>
<totfact> 0.26661682E+04</totfact>
</mgrwt>
</event>
<event>
 4    3  0.9203887E-001  0.8497368E+02  0.7546771E-02  0.1315501E+00
         -2   -1    0    0    0  501 -0.00000000000E+00  0.00000000000E+00  0.20527247971E+02  0.20527247971E+02  0.00000000000E+00 0.  1.
          2   -1    0    0  501    0  0.00000000000E+00 -0.00000000000E+00 -0.38218431440E+03  0.38218431440E+03  0.00000000000E+00 0. -1.
         24    1    1    2    0    0 -0.27431838550E+02  0.89487080298E+00 -0.12401032653E+03  0.15032991586E+03  0.80419002446E+02 0.  0.
        -24    1    1    2    0    0  0.27431838550E+02 -0.89487080298E+00 -0.23764673989E+03  0.25238164651E+03  0.80419002446E+02 0.  0.
<mgrwt>
<rscale>  0 0.84973668E+02</rscale>
<asrwt>0</asrwt>
<pdfrwt beam="1">  1        2 0.58797582E-01 0.84973679E+02</pdfrwt>
<pdfrwt beam="2">  1       -2 0.31580384E-02 0.84973679E+02</pdfrwt>
<totfact> 0.29115693E+04</totfact>
</mgrwt>
</event>
<event>
 4    3  0.9203887E-001  0.8213383E+02  0.7546771E-02  0.1323103E+00
         -2   -1    0    0    0  501 -0.00000000000E+00  0.00000000000E+00  0.82848027350E+01  0.82848027350E+01  0.00000000000E+00 0.  1.
          2   -1    0    0  501    0  0.00000000000E+00 -0.00000000000E+00 -0.81472202263E+03  0.81472202263E+03  0.00000000000E+00 0. -1.
         24    1    1    2    0    0  0.14743288716E+02 -0.78346598502E+01 -0.39339226549E+03  0.40187490213E+03  0.80419002446E+02 0. -1.
        -24    1    1    2    0    0 -0.14743288716E+02  0.78346598502E+01 -0.41304495441E+03  0.42113192324E+03  0.80419002446E+02 0.  1.
<mgrwt>
<rscale>  0 0.82133818E+02</rscale>
<asrwt>0</asrwt>
<pdfrwt beam="1">  1        2 0.12534186E+00 0.82133829E+02</pdfrwt>
<pdfrwt beam="2">  1       -2 0.12745849E-02 0.82133829E+02</pdfrwt>
<totfact> 0.45971058E+04</totfact>
</mgrwt>
</event>
<event>
 4    3  0.9203887E-001  0.9022099E+02  0.7546771E-02  0.1302317E+00
          2   -1    0    0  501    0  0.00000000000E+00  0.00000000000E+00  0.27837163188E+03  0.27837163188E+03  0.00000000000E+00 0. -1.
         -2   -1    0    0    0  501 -0.00000000000E+00 -0.00000000000E+00 -0.32803451496E+02  0.32803451496E+02  0.00000000000E+00 0.  1.
         24    1    1    2    0    0 -0.34714916968E+02  0.21621434040E+02  0.17405814269E+03  0.19605117919E+03  0.80419002446E+02 0.  1.
        -24    1    1    2    0    0  0.34714916968E+02 -0.21621434040E+02  0.71510037694E+02  0.11512390419E+03  0.80419002446E+02 0.  1.
<mgrwt>
<rscale>  0 0.90220994E+02</rscale>
<asrwt>0</asrwt>
<pdfrwt beam="1">  1        2 0.42826403E-01 0.90220994E+02</pdfrwt>
<pdfrwt beam="2">  1       -2 0.50466850E-02 0.90220994E+02</pdfrwt>
<totfact> 0.20501093E+04</totfact>
</mgrwt>
</event>
<event>
 4    3  0.9203887E-001  0.8293897E+02  0.7546771E-02  0.1320912E+00
          2   -1    0    0  501    0  0.00000000000E+00  0.00000000000E+00  0.12229665911E+04  0.12229665911E+04  0.00000000000E+00 0. -1.
         -2   -1    0    0    0  501 -0.00000000000E+00 -0.00000000000E+00 -0.67888063253E+01  0.67888063253E+01  0.00000000000E+00 0.  1.
         24    1    1    2    0    0 -0.19883573305E+02 -0.40373076358E+01  0.86270179531E+03  0.86667944474E+03  0.80419002446E+02 0. -1.
        -24    1    1    2    0    0  0.19883573305E+02  0.40373076358E+01  0.35347598950E+03  0.36307595272E+03  0.80419002446E+02 0.  1.
<mgrwt>
<rscale>  0 0.82938967E+02</rscale>
<asrwt>0</asrwt>
<pdfrwt beam="1">  1        2 0.18814853E+00 0.82938967E+02</pdfrwt>
<pdfrwt beam="2">  1       -2 0.10444327E-02 0.82938967E+02</pdfrwt>
<totfact> 0.35240903E+04</totfact>
</mgrwt>
</event>
<event>
 4    3  0.9203887E-001  0.8221533E+02  0.7546771E-02  0.1322880E+00
         -1   -1    0    0    0  501 -0.00000000000E+00  0.00000000000E+00  0.46526952702E+02  0.46526952702E+02  0.00000000000E+00 0.  1.
          1   -1    0    0  501    0  0.00000000000E+00 -0.00000000000E+00 -0.16045637728E+03  0.16045637728E+03  0.00000000000E+00 0. -1.
         24    1    1    2    0    0  0.96843900825E+01 -0.14083929677E+02 -0.25134899865E+02  0.85971644349E+02  0.80419002446E+02 0.  0.
        -24    1    1    2    0    0 -0.96843900825E+01  0.14083929677E+02 -0.88794524714E+02  0.12101168563E+03  0.80419002446E+02 0.  0.
<mgrwt>
<rscale>  0 0.82215330E+02</rscale>
<asrwt>0</asrwt>
<pdfrwt beam="1">  1        1 0.24685596E-01 0.82215330E+02</pdfrwt>
<pdfrwt beam="2">  1       -1 0.71579928E-02 0.82215330E+02</pdfrwt>
<totfact> 0.17535355E+04</totfact>
</mgrwt>
</event>
<event>
 4    3  0.9203887E-001  0.8546245E+02  0.7546771E-02  0.1314228E+00
          2   -1    0    0  501    0  0.00000000000E+00  0.00000000000E+00  0.18126414421E+04  0.18126414421E+04  0.00000000000E+00 0. -1.
         -2   -1    0    0    0  501 -0.00000000000E+00 -0.00000000000E+00 -0.45798512519E+01  0.45798512519E+01  0.00000000000E+00 0.  1.
         24    1    1    2    0    0 -0.28649897796E+02  0.39746840148E+01  0.12190357473E+04  0.12220278164E+04  0.80419002446E+02 0. -1.
        -24    1    1    2    0    0  0.28649897796E+02 -0.39746840148E+01  0.58902584354E+03  0.59519347701E+03  0.80419002446E+02 0.  1.
<mgrwt>
<rscale>  0 0.85462452E+02</rscale>
<asrwt>0</asrwt>
<pdfrwt beam="1">  1        2 0.27886734E+00 0.85462452E+02</pdfrwt>
<pdfrwt beam="2">  1       -2 0.70459395E-03 0.85462452E+02</pdfrwt>
<totfact> 0.30725258E+04</totfact>
</mgrwt>
</event>
<event>
 4    3  0.9203887E-001  0.8654831E+02  0.7546771E-02  0.1311432E+00
          2   -1    0    0  501    0  0.00000000000E+00  0.00000000000E+00  0.27857687112E+04  0.27857687112E+04  0.00000000000E+00 0. -1.
         -2   -1    0    0    0  501 -0.00000000000E+00 -0.00000000000E+00 -0.30733429960E+02  0.30733429960E+02  0.00000000000E+00 0.  1.
         24    1    1    2    0    0 -0.46424688237E+01 -0.31651880964E+02  0.27227545596E+04  0.27241297696E+04  0.80419002446E+02 0. -1.
        -24    1    1    2    0    0  0.46424688237E+01  0.31651880964E+02  0.32280721721E+02  0.92372371598E+02  0.80419002446E+02 0.  1.
<mgrwt>
<rscale>  0 0.86548310E+02</rscale>
<asrwt>0</asrwt>
<pdfrwt beam="1">  1        2 0.42857960E+00 0.86548310E+02</pdfrwt>
<pdfrwt beam="2">  1       -2 0.47282222E-02 0.86548310E+02</pdfrwt>
<totfact> 0.63066171E+02</totfact>
</mgrwt>
</event>
<event>
 4    3  0.9203887E-001  0.8815369E+02  0.7546771E-02  0.1307385E+00
          2   -1    0    0  501    0  0.00000000000E+00  0.00000000000E+00  0.10563251486E+04  0.10563251486E+04  0.00000000000E+00 0. -1.
         -2   -1    0    0    0  501 -0.00000000000E+00 -0.00000000000E+00 -0.98025789711E+01  0.98025789711E+01  0.00000000000E+00 0.  1.
         24    1    1    2    0    0 -0.36108786373E+02  0.11463793277E+00  0.78953360203E+03  0.79443966560E+03  0.80419002446E+02 0. -1.
        -24    1    1    2    0    0  0.36108786373E+02 -0.11463793277E+00  0.25698896765E+03  0.27168806201E+03  0.80419002446E+02 0.  1.
<mgrwt>
<rscale>  0 0.88153693E+02</rscale>
<asrwt>0</asrwt>
<pdfrwt beam="1">  1        2 0.16251147E+00 0.88153693E+02</pdfrwt>
<pdfrwt beam="2">  1       -2 0.15080899E-02 0.88153693E+02</pdfrwt>
<totfact> 0.26016383E+04</totfact>
</mgrwt>
</event>
<event>
 4    3  0.9203887E-001  0.1093087E+03  0.7546771E-02  0.1261856E+00
          2   -1    0    0  501    0  0.00000000000E+00  0.00000000000E+00  0.27121513667E+03  0.27121513667E+03  0.00000000000E+00 0. -1.
         -2   -1    0    0    0  501 -0.00000000000E+00 -0.00000000000E+00 -0.10632899143E+03  0.10632899143E+03  0.00000000000E+00 0.  1.
         24    1    1    2    0    0 -0.66567059634E+02 -0.32403619311E+02  0.22690892842E+03  0.25186513399E+03  0.80419002446E+02 0. -1.
        -24    1    1    2    0    0  0.66567059634E+02  0.32403619311E+02 -0.62022783173E+02  0.12567899411E+03  0.80419002446E+02 0.  1.
<mgrwt>
<rscale>  0 0.10930866E+03</rscale>
<asrwt>0</asrwt>
<pdfrwt beam="1">  1        2 0.41725405E-01 0.10930866E+03</pdfrwt>
<pdfrwt beam="2">  1       -2 0.16358306E-01 0.10930866E+03</pdfrwt>
<totfact> 0.34476192E+03</totfact>
</mgrwt>
</event>
<event>
 4    3  0.9203887E-001  0.8485907E+02  0.7546771E-02  0.1315801E+00
         -2   -1    0    0    0  501 -0.00000000000E+00  0.00000000000E+00  0.22559370842E+02  0.22559370842E+02  0.00000000000E+00 0.  1.
          2   -1    0    0  501    0  0.00000000000E+00 -0.00000000000E+00 -0.15887331653E+04  0.15887331653E+04  0.00000000000E+00 0. -1.
         24    1    1    2    0    0  0.20415959995E+02  0.17805470616E+02 -0.15032653157E+04  0.15056585508E+04  0.80419002446E+02 0. -1.
        -24    1    1    2    0    0 -0.20415959995E+02 -0.17805470616E+02 -0.62908478731E+02  0.10563398533E+03  0.80419002446E+02 0.  1.
<mgrwt>
<rscale>  0 0.84859072E+02</rscale>
<asrwt>0</asrwt>
<pdfrwt beam="1">  1        2 0.24442037E+00 0.84859072E+02</pdfrwt>
<pdfrwt beam="2">  1       -2 0.34706742E-02 0.84859072E+02</pdfrwt>
<totfact> 0.40842301E+03</totfact>
</mgrwt>
</event>
<event>
 4    3  0.9203887E-001  0.8570543E+02  0.7546771E-02  0.1313598E+00
         -1   -1    0    0    0  501 -0.00000000000E+00  0.00000000000E+00  0.33396262608E+02  0.33396262608E+02  0.00000000000E+00 0.  1.
          1   -1    0    0  501    0  0.00000000000E+00 -0.00000000000E+00 -0.29357003189E+03  0.29357003189E+03  0.00000000000E+00 0. -1.
         24    1    1    2    0    0  0.25247564862E+02  0.15516635597E+02 -0.48217265598E+02  0.98337816570E+02  0.80419002446E+02 0.  0.
        -24    1    1    2    0    0 -0.25247564862E+02 -0.15516635597E+02 -0.21195650369E+03  0.22862847793E+03  0.80419002446E+02 0.  0.
<mgrwt>
<rscale>  0 0.85705434E+02</rscale>
<asrwt>0</asrwt>
<pdfrwt beam="1">  1        1 0.45164621E-01 0.85705434E+02</pdfrwt>
<pdfrwt beam="2">  1       -1 0.51378864E-02 0.85705434E+02</pdfrwt>
<totfact> 0.13705851E+04</totfact>
</mgrwt>
</event>
<event>
 4    3  0.9203887E-001  0.8179042E+02  0.7546771E-02  0.1324046E+00
          4   -1    0    0  501    0  0.00000000000E+00  0.00000000000E+00  0.68470621967E+02  0.68470621967E+02  0.00000000000E+00 0. -1.
         -4   -1    0    0    0  501 -0.00000000000E+00 -0.00000000000E+00 -0.11581670131E+03  0.11581670131E+03  0.00000000000E+00 0.  1.
         24    1    1    2    0    0 -0.92637384953E+01 -0.11689330776E+02  0.12769032677E+02  0.82781166063E+02  0.80419002446E+02 0. -1.
        -24    1    1    2    0    0  0.92637384953E+01  0.11689330776E+02 -0.60115112019E+02  0.10150615721E+03  0.80419002446E+02 0. -1.
<mgrwt>
<rscale>  0 0.81790423E+02</rscale>
<asrwt>0</asrwt>
<pdfrwt beam="1">  1        4 0.10533942E-01 0.81790423E+02</pdfrwt>
<pdfrwt beam="2">  1       -4 0.17817954E-01 0.81790423E+02</pdfrwt>
<totfact> 0.27743551E+03</totfact>
</mgrwt>
</event>
<event>
 4    3  0.9203887E-001  0.1457981E+03  0.7546771E-02  0.1205733E+00
         -2   -1    0    0    0  501 -0.00000000000E+00  0.00000000000E+00  0.10355778830E+02  0.10355778830E+02  0.00000000000E+00 0.  1.
          2   -1    0    0  501    0  0.00000000000E+00 -0.00000000000E+00 -0.27185286724E+04  0.27185286724E+04  0.00000000000E+00 0. -1.
         24    1    1    2    0    0 -0.94774462383E+02 -0.76208036821E+02 -0.20293551285E+04  0.20345857851E+04  0.80419002446E+02 0. -1.
        -24    1    1    2    0    0  0.94774462383E+02  0.76208036821E+02 -0.67881776509E+03  0.69429866610E+03  0.80419002446E+02 0.  1.
<mgrwt>
<rscale>  0 0.14579808E+03</rscale>
<asrwt>0</asrwt>
<pdfrwt beam="1">  1        2 0.41823502E+00 0.14579808E+03</pdfrwt>
<pdfrwt beam="2">  1       -2 0.15931973E-02 0.14579808E+03</pdfrwt>
<totfact> 0.33057933E+03</totfact>
</mgrwt>
</event>
<event>
 4    3  0.9203887E-001  0.8627707E+02  0.7546771E-02  0.1312126E+00
         -2   -1    0    0    0  501 -0.00000000000E+00  0.00000000000E+00  0.16119327706E+02  0.16119327706E+02  0.00000000000E+00 0.  1.
          2   -1    0    0  501    0  0.00000000000E+00 -0.00000000000E+00 -0.25062375586E+04  0.25062375586E+04  0.00000000000E+00 0. -1.
         24    1    1    2    0    0  0.12034387032E+02  0.28839054491E+02 -0.23841371597E+04  0.23856977449E+04  0.80419002446E+02 0. -1.
        -24    1    1    2    0    0 -0.12034387032E+02 -0.28839054491E+02 -0.10598107112E+03  0.13665914139E+03  0.80419002446E+02 0.  1.
<mgrwt>
<rscale>  0 0.86277074E+02</rscale>
<asrwt>0</asrwt>
<pdfrwt beam="1">  1        2 0.38557497E+00 0.86277074E+02</pdfrwt>
<pdfrwt beam="2">  1       -2 0.24798969E-02 0.86277074E+02</pdfrwt>
<totfact> 0.22826602E+03</totfact>
</mgrwt>
</event>
<event>
 4    3  0.9203887E-001  0.1786914E+03  0.7546771E-02  0.1169076E+00
          2   -1    0    0  501    0  0.00000000000E+00  0.00000000000E+00  0.11402573213E+04  0.11402573213E+04  0.00000000000E+00 0. -1.
         -2   -1    0    0    0  501 -0.00000000000E+00 -0.00000000000E+00 -0.29626153458E+02  0.29626153458E+02  0.00000000000E+00 0.  1.
         24    1    1    2    0    0 -0.82555140178E+01  0.15935890779E+03  0.69223156985E+03  0.71492319676E+03  0.80419002446E+02 0. -1.
        -24    1    1    2    0    0  0.82555140178E+01 -0.15935890779E+03  0.41839959794E+03  0.45496027795E+03  0.80419002446E+02 0.  1.
<mgrwt>
<rscale>  0 0.17869144E+03</rscale>
<asrwt>0</asrwt>
<pdfrwt beam="1">  1        2 0.17542417E+00 0.17869144E+03</pdfrwt>
<pdfrwt beam="2">  1       -2 0.45578706E-02 0.17869144E+03</pdfrwt>
<totfact> 0.48205602E+03</totfact>
</mgrwt>
</event>
<event>
 4    3  0.9203887E-001  0.8077131E+02  0.7546771E-02  0.1326877E+00
          1   -1    0    0  501    0  0.00000000000E+00  0.00000000000E+00  0.17083132896E+03  0.17083132896E+03  0.00000000000E+00 0. -1.
         -1   -1    0    0    0  501 -0.00000000000E+00 -0.00000000000E+00 -0.41909620343E+02  0.41909620343E+02  0.00000000000E+00 0.  1.
         24    1    1    2    0    0  0.58589295630E+01 -0.47392838522E+01  0.32770376113E+02  0.87165941583E+02  0.80419002446E+02 0.  1.
        -24    1    1    2    0    0 -0.58589295630E+01  0.47392838522E+01  0.96151332503E+02  0.12557500772E+03  0.80419002446E+02 0.  0.
<mgrwt>
<rscale>  0 0.80771306E+02</rscale>
<asrwt>0</asrwt>
<pdfrwt beam="1">  1        1 0.26281743E-01 0.80771306E+02</pdfrwt>
<pdfrwt beam="2">  1       -1 0.64476340E-02 0.80771306E+02</pdfrwt>
<totfact> 0.18901882E+04</totfact>
</mgrwt>
</event>
<event>
 4    3  0.9203887E-001  0.9107542E+02  0.7546771E-02  0.1300268E+00
         -2   -1    0    0    0  501 -0.00000000000E+00  0.00000000000E+00  0.74142169257E+01  0.74142169257E+01  0.00000000000E+00 0.  1.
          2   -1    0    0  501    0  0.00000000000E+00 -0.00000000000E+00 -0.13526174337E+04  0.13526174337E+04  0.00000000000E+00 0. -1.
         24    1    1    2    0    0 -0.41112702265E+02 -0.11715883840E+02 -0.95535430948E+03  0.95968567188E+03  0.80419002446E+02 0. -1.
        -24    1    1    2    0    0  0.41112702265E+02  0.11715883840E+02 -0.38984890727E+03  0.40034597872E+03  0.80419002446E+02 0.  1.
<mgrwt>
<rscale>  0 0.91075420E+02</rscale>
<asrwt>0</asrwt>
<pdfrwt beam="1">  1        2 0.20809507E+00 0.91075420E+02</pdfrwt>
<pdfrwt beam="2">  1       -2 0.11406483E-02 0.91075420E+02</pdfrwt>
<totfact> 0.26785154E+04</totfact>
</mgrwt>
</event>
<event>
 4    3  0.9203887E-001  0.8059601E+02  0.7546771E-02  0.1327368E+00
          2   -1    0    0  501    0  0.00000000000E+00  0.00000000000E+00  0.43181211813E+04  0.43181211813E+04  0.00000000000E+00 0. -1.
         -2   -1    0    0    0  501 -0.00000000000E+00 -0.00000000000E+00 -0.16108724617E+01  0.16108724617E+01  0.00000000000E+00 0.  1.
         24    1    1    2    0    0  0.27274651572E+01 -0.45893607486E+01  0.27138190831E+04  0.27150156045E+04  0.80419002446E+02 0. -1.
        -24    1    1    2    0    0 -0.27274651572E+01  0.45893607486E+01  0.16026912258E+04  0.16047164492E+04  0.80419002446E+02 0.  0.
<mgrwt>
<rscale>  0 0.80596013E+02</rscale>
<asrwt>0</asrwt>
<pdfrwt beam="1">  1        2 0.66431707E+00 0.80596013E+02</pdfrwt>
<pdfrwt beam="2">  1       -2 0.24782999E-03 0.80596013E+02</pdfrwt>
<totfact> 0.40774109E+03</totfact>
</mgrwt>
</event>
<event>
 4    3  0.9203887E-001  0.8503589E+02  0.7546771E-02  0.1315339E+00
         -2   -1    0    0    0  501 -0.00000000000E+00  0.00000000000E+00  0.46990010914E+02  0.46990010914E+02  0.00000000000E+00 0.  1.
          2   -1    0    0  501    0  0.00000000000E+00 -0.00000000000E+00 -0.29350946688E+03  0.29350946688E+03  0.00000000000E+00 0. -1.
         24    1    1    2    0    0 -0.19458455418E+02  0.19627917606E+02 -0.24068313582E+03  0.25526353923E+03  0.80419002446E+02 0. -1.
        -24    1    1    2    0    0  0.19458455418E+02 -0.19627917606E+02 -0.58363201505E+01  0.85235938571E+02  0.80419002446E+02 0.  0.
<mgrwt>
<rscale>  0 0.85035890E+02</rscale>
<asrwt>0</asrwt>
<pdfrwt beam="1">  1        2 0.45155304E-01 0.85035890E+02</pdfrwt>
<pdfrwt beam="2">  1       -2 0.72292323E-02 0.85035890E+02</pdfrwt>
<totfact> 0.11248670E+04</totfact>
</mgrwt>
</event>
<event>
 4    3  0.9203887E-001  0.8277789E+02  0.7546771E-02  0.1321348E+00
          1   -1    0    0  501    0  0.00000000000E+00  0.00000000000E+00  0.53318873286E+03  0.53318873286E+03  0.00000000000E+00 0. -1.
         -1   -1    0    0    0  501 -0.00000000000E+00 -0.00000000000E+00 -0.28812716913E+02  0.28812716913E+02  0.00000000000E+00 0.  1.
         24    1    1    2    0    0 -0.27850896933E+01 -0.19421800763E+02  0.43041420499E+02  0.93299211692E+02  0.80419002446E+02 0.  1.
        -24    1    1    2    0    0  0.27850896933E+01  0.19421800763E+02  0.46133459545E+03  0.46870223808E+03  0.80419002446E+02 0. -1.
<mgrwt>
<rscale>  0 0.82777890E+02</rscale>
<asrwt>0</asrwt>
<pdfrwt beam="1">  1        1 0.82029028E-01 0.82777890E+02</pdfrwt>
<pdfrwt beam="2">  1       -1 0.44327261E-02 0.82777890E+02</pdfrwt>
<totfact> 0.80625377E+03</totfact>
</mgrwt>
</event>
<event>
 4    3  0.9203887E-001  0.9521879E+02  0.7546771E-02  0.1290684E+00
          1   -1    0    0  501    0  0.00000000000E+00  0.00000000000E+00  0.28370479060E+04  0.28370479060E+04  0.00000000000E+00 0. -1.
         -1   -1    0    0    0  501 -0.00000000000E+00 -0.00000000000E+00 -0.34848748355E+01  0.34848748355E+01  0.00000000000E+00 0.  1.
         24    1    1    2    0    0  0.20073273044E+02 -0.46866476517E+02  0.10077221434E+04  0.10122107178E+04  0.80419002446E+02 0. -1.
        -24    1    1    2    0    0 -0.20073273044E+02  0.46866476517E+02  0.18258408877E+04  0.18283220630E+04  0.80419002446E+02 0.  1.
<mgrwt>
<rscale>  0 0.95218795E+02</rscale>
<asrwt>0</asrwt>
<pdfrwt beam="1">  1        1 0.43646706E+00 0.95218795E+02</pdfrwt>
<pdfrwt beam="2">  1       -1 0.53613686E-03 0.95218795E+02</pdfrwt>
<totfact> 0.43032477E+03</totfact>
</mgrwt>
</event>
<event>
 4    3  0.9203887E-001  0.1108690E+03  0.7546771E-02  0.1258969E+00
         -1   -1    0    0    0  501 -0.00000000000E+00  0.00000000000E+00  0.48684964588E+02  0.48684964588E+02  0.00000000000E+00 0.  1.
          1   -1    0    0  501    0  0.00000000000E+00 -0.00000000000E+00 -0.60300131931E+03  0.60300131931E+03  0.00000000000E+00 0. -1.
         24    1    1    2    0    0  0.62389529309E+02  0.43957482686E+02 -0.28726305362E+02  0.11453004071E+03  0.80419002446E+02 0.  1.
        -24    1    1    2    0    0 -0.62389529309E+02 -0.43957482686E+02 -0.52559004936E+03  0.53715624319E+03  0.80419002446E+02 0. -1.
<mgrwt>
<rscale>  0 0.11086897E+03</rscale>
<asrwt>0</asrwt>
<pdfrwt beam="1">  1        1 0.92769437E-01 0.11086897E+03</pdfrwt>
<pdfrwt beam="2">  1       -1 0.74899943E-02 0.11086897E+03</pdfrwt>
<totfact> 0.32177822E+03</totfact>
</mgrwt>
</event>
<event>
 4    3  0.9203887E-001  0.1047647E+03  0.7546771E-02  0.1270584E+00
         -1   -1    0    0    0  501 -0.00000000000E+00  0.00000000000E+00  0.51098890321E+02  0.51098890321E+02  0.00000000000E+00 0.  1.
          1   -1    0    0  501    0  0.00000000000E+00 -0.00000000000E+00 -0.21717014025E+03  0.21717014025E+03  0.00000000000E+00 0. -1.
         24    1    1    2    0    0  0.67087070900E+02  0.27838039068E+01 -0.97071689917E+02  0.14282350501E+03  0.80419002446E+02 0.  1.
        -24    1    1    2    0    0 -0.67087070900E+02 -0.27838039068E+01 -0.68999560007E+02  0.12544552555E+03  0.80419002446E+02 0. -1.
<mgrwt>
<rscale>  0 0.10476470E+03</rscale>
<asrwt>0</asrwt>
<pdfrwt beam="1">  1        1 0.33410790E-01 0.10476472E+03</pdfrwt>
<pdfrwt beam="2">  1       -1 0.78613678E-02 0.10476472E+03</pdfrwt>
<totfact> 0.10760038E+04</totfact>
</mgrwt>
</event>
<event>
 4    3  0.9203887E-001  0.8095559E+02  0.7546771E-02  0.1326361E+00
          1   -1    0    0  501    0  0.00000000000E+00  0.00000000000E+00  0.10275287015E+04  0.10275287015E+04  0.00000000000E+00 0. -1.
         -1   -1    0    0    0  501 -0.00000000000E+00 -0.00000000000E+00 -0.91442411415E+01  0.91442411415E+01  0.00000000000E+00 0.  1.
         24    1    1    2    0    0  0.80284870848E+01 -0.47046996232E+01  0.22411306498E+03  0.23828653477E+03  0.80419002446E+02 0.  0.
        -24    1    1    2    0    0 -0.80284870848E+01  0.47046996232E+01  0.79427139537E+03  0.79838640786E+03  0.80419002446E+02 0. -1.
<mgrwt>
<rscale>  0 0.80955585E+02</rscale>
<asrwt>0</asrwt>
<pdfrwt beam="1">  1        1 0.15808125E+00 0.80955585E+02</pdfrwt>
<pdfrwt beam="2">  1       -1 0.14068071E-02 0.80955585E+02</pdfrwt>
<totfact> 0.16074915E+04</totfact>
</mgrwt>
</event>
<event>
 4    3  0.9203887E-001  0.8810687E+02  0.7546771E-02  0.1307502E+00
         -1   -1    0    0    0  501 -0.00000000000E+00  0.00000000000E+00  0.11126059713E+02  0.11126059713E+02  0.00000000000E+00 0.  1.
          1   -1    0    0  501    0  0.00000000000E+00 -0.00000000000E+00 -0.14847770392E+04  0.14847770392E+04  0.00000000000E+00 0. -1.
         24    1    1    2    0    0  0.68801835052E+01 -0.35330819867E+02 -0.19226352543E+03  0.21149014852E+03  0.80419002446E+02 0.  1.
        -24    1    1    2    0    0 -0.68801835052E+01  0.35330819867E+02 -0.12813874541E+04  0.12844129504E+04  0.80419002446E+02 0. -1.
<mgrwt>
<rscale>  0 0.88106865E+02</rscale>
<asrwt>0</asrwt>
<pdfrwt beam="1">  1        1 0.22842739E+00 0.88106865E+02</pdfrwt>
<pdfrwt beam="2">  1       -1 0.17117003E-02 0.88106865E+02</pdfrwt>
<totfact> 0.60733820E+03</totfact>
</mgrwt>
</event>
<event>
 4    3  0.9203887E-001  0.8880040E+02  0.7546771E-02  0.1305783E+00
         -2   -1    0    0    0  501 -0.00000000000E+00  0.00000000000E+00  0.25146083345E+02  0.25146083345E+02  0.00000000000E+00 0.  1.
          2   -1    0    0  501    0  0.00000000000E+00 -0.00000000000E+00 -0.37125329599E+03  0.37125329599E+03  0.00000000000E+00 0. -1.
         24    1    1    2    0    0 -0.35974655022E+02  0.11140904228E+02 -0.25116688125E+03  0.26640254079E+03  0.80419002446E+02 0. -1.
        -24    1    1    2    0    0  0.35974655022E+02 -0.11140904228E+02 -0.94940331399E+02  0.12999683854E+03  0.80419002446E+02 0.  1.
<mgrwt>
<rscale>  0 0.88800403E+02</rscale>
<asrwt>0</asrwt>
<pdfrwt beam="1">  1        2 0.57115885E-01 0.88800403E+02</pdfrwt>
<pdfrwt beam="2">  1       -2 0.38686287E-02 0.88800403E+02</pdfrwt>
<totfact> 0.22425800E+04</totfact>
</mgrwt>
</event>
<event>
 4    3  0.9203887E-001  0.9542162E+02  0.7546771E-02  0.1290229E+00
          2   -1    0    0  501    0  0.00000000000E+00  0.00000000000E+00  0.25508844379E+03  0.25508844379E+03  0.00000000000E+00 0. -1.
         -2   -1    0    0    0  501 -0.00000000000E+00 -0.00000000000E+00 -0.70115469635E+02  0.70115469635E+02  0.00000000000E+00 0.  1.
         24    1    1    2    0    0  0.19869718980E+02  0.47363105635E+02  0.20641426507E+03  0.22740302172E+03  0.80419002446E+02 0. -1.
        -24    1    1    2    0    0 -0.19869718980E+02 -0.47363105635E+02 -0.21441290916E+02  0.97800891705E+02  0.80419002446E+02 0.  1.
<mgrwt>
<rscale>  0 0.95421619E+02</rscale>
<asrwt>0</asrwt>
<pdfrwt beam="1">  1        2 0.39244375E-01 0.95421619E+02</pdfrwt>
<pdfrwt beam="2">  1       -2 0.10786995E-01 0.95421619E+02</pdfrwt>
<totfact> 0.71026831E+03</totfact>
</mgrwt>
</event>
<event>
 4    3  0.9203887E-001  0.9059497E+02  0.7546771E-02  0.1301417E+00
         -2   -1    0    0    0  501 -0.00000000000E+00  0.00000000000E+00  0.38293636810E+02  0.38293636810E+02  0.00000000000E+00 0.  1.
          2   -1    0    0  501    0  0.00000000000E+00 -0.00000000000E+00 -0.66388921768E+03  0.66388921768E+03  0.00000000000E+00 0. -1.
         24    1    1    2    0    0  0.26022499713E+02  0.32604624636E+02 -0.60171021166E+03  0.60849209264E+03  0.80419002446E+02 0. -1.
        -24    1    1    2    0    0 -0.26022499713E+02 -0.32604624636E+02 -0.23885369211E+02  0.93690761848E+02  0.80419002446E+02 0.  1.
<mgrwt>
<rscale>  0 0.90594967E+02</rscale>
<asrwt>0</asrwt>
<pdfrwt beam="1">  1        2 0.10213680E+00 0.90594967E+02</pdfrwt>
<pdfrwt beam="2">  1       -2 0.58913292E-02 0.90594967E+02</pdfrwt>
<totfact> 0.64110612E+03</totfact>
</mgrwt>
</event>
<event>
 4    3  0.9203887E-001  0.8123382E+02  0.7546771E-02  0.1325586E+00
          2   -1    0    0  501    0  0.00000000000E+00  0.00000000000E+00  0.28853597319E+04  0.28853597319E+04  0.00000000000E+00 0. -1.
         -2   -1    0    0    0  501 -0.00000000000E+00 -0.00000000000E+00 -0.33685244208E+01  0.33685244208E+01  0.00000000000E+00 0.  1.
         24    1    1    2    0    0  0.26090536618E+01  0.11176347495E+02  0.22593980640E+04  0.22608579225E+04  0.80419002446E+02 0. -1.
        -24    1    1    2    0    0 -0.26090536618E+01 -0.11176347495E+02  0.62259314349E+03  0.62787033389E+03  0.80419002446E+02 0.  0.
<mgrwt>
<rscale>  0 0.81233822E+02</rscale>
<asrwt>0</asrwt>
<pdfrwt beam="1">  1        2 0.44389952E+00 0.81233822E+02</pdfrwt>
<pdfrwt beam="2">  1       -2 0.51823683E-03 0.81233822E+02</pdfrwt>
<totfact> 0.13105351E+04</totfact>
</mgrwt>
</event>
<event>
 4    3  0.9203887E-001  0.8272534E+02  0.7546771E-02  0.1321491E+00
          2   -1    0    0  501    0  0.00000000000E+00  0.00000000000E+00  0.12032043288E+04  0.12032043288E+04  0.00000000000E+00 0. -1.
         -2   -1    0    0    0  501 -0.00000000000E+00 -0.00000000000E+00 -0.59051736408E+01  0.59051736408E+01  0.00000000000E+00 0.  1.
         24    1    1    2    0    0  0.17017408868E+02  0.93098562506E+01  0.71466322213E+03  0.71943519697E+03  0.80419002446E+02 0. -1.
        -24    1    1    2    0    0 -0.17017408868E+02 -0.93098562506E+01  0.48263593308E+03  0.48967430552E+03  0.80419002446E+02 0.  1.
<mgrwt>
<rscale>  0 0.82725338E+02</rscale>
<asrwt>0</asrwt>
<pdfrwt beam="1">  1        2 0.18510816E+00 0.82725338E+02</pdfrwt>
<pdfrwt beam="2">  1       -2 0.90848921E-03 0.82725338E+02</pdfrwt>
<totfact> 0.43957847E+04</totfact>
</mgrwt>
</event>
<event>
 4    3  0.9203887E-001  0.1369316E+03  0.7546771E-02  0.1217518E+00
          2   -1    0    0  501    0  0.00000000000E+00  0.00000000000E+00  0.25716738665E+04  0.25716738665E+04  0.00000000000E+00 0. -1.
         -2   -1    0    0    0  501 -0.00000000000E+00 -0.00000000000E+00 -0.14256082848E+02  0.14256082848E+02  0.00000000000E+00 0.  1.
         24    1    1    2    0    0 -0.74837466036E+02  0.81745873327E+02  0.21824575504E+04  0.21867490047E+04  0.80419002446E+02 0. -1.
        -24    1    1    2    0    0  0.74837466036E+02 -0.81745873327E+02  0.37496023327E+03  0.39918094471E+03  0.80419002446E+02 0.  1.
<mgrwt>
<rscale>  0 0.13693155E+03</rscale>
<asrwt>0</asrwt>
<pdfrwt beam="1">  1        2 0.39564177E+00 0.13693155E+03</pdfrwt>
<pdfrwt beam="2">  1       -2 0.21932456E-02 0.13693155E+03</pdfrwt>
<totfact> 0.25022387E+03</totfact>
</mgrwt>
</event>
<event>
 4    3  0.9203887E-001  0.9117371E+02  0.7546771E-02  0.1300034E+00
         -1   -1    0    0    0  501 -0.00000000000E+00  0.00000000000E+00  0.40972268792E+02  0.40972268792E+02  0.00000000000E+00 0.  1.
          1   -1    0    0  501    0  0.00000000000E+00 -0.00000000000E+00 -0.40043848083E+03  0.40043848083E+03  0.00000000000E+00 0. -1.
         24    1    1    2    0    0 -0.32634504577E+02 -0.27935887850E+02 -0.33475314267E+03  0.34694712451E+03  0.80419002446E+02 0.  0.
        -24    1    1    2    0    0  0.32634504577E+02  0.27935887850E+02 -0.24713069369E+02  0.94463625121E+02  0.80419002446E+02 0.  1.
<mgrwt>
<rscale>  0 0.91173696E+02</rscale>
<asrwt>0</asrwt>
<pdfrwt beam="1">  1        1 0.61605921E-01 0.91173707E+02</pdfrwt>
<pdfrwt beam="2">  1       -1 0.63034258E-02 0.91173707E+02</pdfrwt>
<totfact> 0.69695244E+03</totfact>
</mgrwt>
</event>
<event>
 4    3  0.9203887E-001  0.1135324E+03  0.7546771E-02  0.1254165E+00
         -2   -1    0    0    0  501 -0.00000000000E+00  0.00000000000E+00  0.55503965963E+01  0.55503965963E+01  0.00000000000E+00 0.  1.
          2   -1    0    0  501    0  0.00000000000E+00 -0.00000000000E+00 -0.26499079696E+04  0.26499079696E+04  0.00000000000E+00 0. -1.
         24    1    1    2    0    0 -0.78658274323E+02 -0.15338226169E+02 -0.17890331864E+04  0.17926319598E+04  0.80419002446E+02 0. -1.
        -24    1    1    2    0    0  0.78658274323E+02  0.15338226169E+02 -0.85532438662E+03  0.86282640641E+03  0.80419002446E+02 0.  1.
<mgrwt>
<rscale>  0 0.11353238E+03</rscale>
<asrwt>0</asrwt>
<pdfrwt beam="1">  1        2 0.40767764E+00 0.11353238E+03</pdfrwt>
<pdfrwt beam="2">  1       -2 0.85390824E-03 0.11353238E+03</pdfrwt>
<totfact> 0.88004259E+03</totfact>
</mgrwt>
</event>
<event>
 4    3  0.9203887E-001  0.9708217E+02  0.7546771E-02  0.1286554E+00
          2   -1    0    0  501    0  0.00000000000E+00  0.00000000000E+00  0.64681546848E+03  0.64681546848E+03  0.00000000000E+00 0. -1.
         -2   -1    0    0    0  501 -0.00000000000E+00 -0.00000000000E+00 -0.37628946766E+02  0.37628946766E+02  0.00000000000E+00 0.  1.
         24    1    1    2    0    0  0.22889781661E+02 -0.49333447320E+02  0.57248207361E+03  0.58065538117E+03  0.80419002446E+02 0. -1.
        -24    1    1    2    0    0 -0.22889781661E+02  0.49333447320E+02  0.36704448109E+02  0.10378903408E+03  0.80419002446E+02 0.  1.
<mgrwt>
<rscale>  0 0.97082167E+02</rscale>
<asrwt>0</asrwt>
<pdfrwt beam="1">  1        2 0.99510064E-01 0.97082167E+02</pdfrwt>
<pdfrwt beam="2">  1       -2 0.57890692E-02 0.97082167E+02</pdfrwt>
<totfact> 0.68103292E+03</totfact>
</mgrwt>
</event>
<event>
 4    3  0.9203887E-001  0.1159194E+03  0.7546771E-02  0.1249985E+00
          2   -1    0    0  501    0  0.00000000000E+00  0.00000000000E+00  0.73136109800E+03  0.73136109800E+03  0.00000000000E+00 0. -1.
         -2   -1    0    0    0  501 -0.00000000000E+00 -0.00000000000E+00 -0.10464720748E+03  0.10464720748E+03  0.00000000000E+00 0.  1.
         24    1    1    2    0    0  0.79663938511E+02  0.24975123156E+02  0.69289663704E+03  0.70252620268E+03  0.80419002446E+02 0. -1.
        -24    1    1    2    0    0 -0.79663938511E+02 -0.24975123156E+02 -0.66182746520E+02  0.13348210280E+03  0.80419002446E+02 0.  1.
<mgrwt>
<rscale>  0 0.11591944E+03</rscale>
<asrwt>0</asrwt>
<pdfrwt beam="1">  1        2 0.11251709E+00 0.11591944E+03</pdfrwt>
<pdfrwt beam="2">  1       -2 0.16099571E-01 0.11591944E+03</pdfrwt>
<totfact> 0.12026492E+03</totfact>
</mgrwt>
</event>
<event>
 4    3  0.9203887E-001  0.1369238E+03  0.7546771E-02  0.1217529E+00
         -2   -1    0    0    0  501 -0.00000000000E+00  0.00000000000E+00  0.16683608066E+02  0.16683608066E+02  0.00000000000E+00 0.  1.
          2   -1    0    0  501    0  0.00000000000E+00 -0.00000000000E+00 -0.19271443331E+04  0.19271443331E+04  0.00000000000E+00 0. -1.
         24    1    1    2    0    0 -0.43512436390E+02  0.10191941117E+03 -0.15827633289E+04  0.15886748785E+04  0.80419002446E+02 0. -1.
        -24    1    1    2    0    0  0.43512436390E+02 -0.10191941117E+03 -0.32769739615E+03  0.35515306262E+03  0.80419002446E+02 0.  1.
<mgrwt>
<rscale>  0 0.13692375E+03</rscale>
<asrwt>0</asrwt>
<pdfrwt beam="1">  1        2 0.29648377E+00 0.13692375E+03</pdfrwt>
<pdfrwt beam="2">  1       -2 0.25667087E-02 0.13692375E+03</pdfrwt>
<totfact> 0.43147455E+03</totfact>
</mgrwt>
</event>
<event>
 4    3  0.9203887E-001  0.8876437E+02  0.7546771E-02  0.1305872E+00
         -1   -1    0    0    0  501 -0.00000000000E+00  0.00000000000E+00  0.48509419856E+02  0.48509419856E+02  0.00000000000E+00 0.  1.
          1   -1    0    0  501    0  0.00000000000E+00 -0.00000000000E+00 -0.26373732310E+03  0.26373732310E+03  0.00000000000E+00 0. -1.
         24    1    1    2    0    0  0.23159693175E+02  0.29589289263E+02 -0.10849787640E+02  0.89425003625E+02  0.80419002446E+02 0.  1.
        -24    1    1    2    0    0 -0.23159693175E+02 -0.29589289263E+02 -0.20437811560E+03  0.22282173933E+03  0.80419002446E+02 0. -1.
<mgrwt>
<rscale>  0 0.88764370E+02</rscale>
<asrwt>0</asrwt>
<pdfrwt beam="1">  1        1 0.40574972E-01 0.88764370E+02</pdfrwt>
<pdfrwt beam="2">  1       -1 0.74629878E-02 0.88764370E+02</pdfrwt>
<totfact> 0.90371972E+03</totfact>
</mgrwt>
</event>
<event>
 4    3  0.9203887E-001  0.8799402E+02  0.7546771E-02  0.1307783E+00
         -2   -1    0    0    0  501 -0.00000000000E+00  0.00000000000E+00  0.22180920901E+02  0.22180920901E+02  0.00000000000E+00 0.  1.
          2   -1    0    0  501    0  0.00000000000E+00 -0.00000000000E+00 -0.35694076097E+03  0.35694076097E+03  0.00000000000E+00 0. -1.
         24    1    1    2    0    0 -0.13231801509E+02 -0.33176010211E+02 -0.13925135433E+03  0.16472365909E+03  0.80419002446E+02 0.  0.
        -24    1    1    2    0    0  0.13231801509E+02  0.33176010211E+02 -0.19550848573E+03  0.21439802278E+03  0.80419002446E+02 0.  0.
<mgrwt>
<rscale>  0 0.87994012E+02</rscale>
<asrwt>0</asrwt>
<pdfrwt beam="1">  1        2 0.54913958E-01 0.87994023E+02</pdfrwt>
<pdfrwt beam="2">  1       -2 0.34124497E-02 0.87994023E+02</pdfrwt>
<totfact> 0.28050020E+04</totfact>
</mgrwt>
</event>
<event>
 4    3  0.9203887E-001  0.9526528E+02  0.7546771E-02  0.1290580E+00
         -1   -1    0    0    0  501 -0.00000000000E+00  0.00000000000E+00  0.10791891851E+03  0.10791891851E+03  0.00000000000E+00 0.  1.
          1   -1    0    0  501    0  0.00000000000E+00 -0.00000000000E+00 -0.86444666381E+03  0.86444666381E+03  0.00000000000E+00 0. -1.
         24    1    1    2    0    0  0.15564726587E+02  0.48641514776E+02  0.83665500118E+02  0.12678875951E+03  0.80419002446E+02 0.  1.
        -24    1    1    2    0    0 -0.15564726587E+02 -0.48641514776E+02 -0.84019324542E+03  0.84557682281E+03  0.80419002446E+02 0. -1.
<mgrwt>
<rscale>  0 0.95265280E+02</rscale>
<asrwt>0</asrwt>
<pdfrwt beam="1">  1        1 0.13299180E+00 0.95265280E+02</pdfrwt>
<pdfrwt beam="2">  1       -1 0.16602910E-01 0.95265280E+02</pdfrwt>
<totfact> 0.56790686E+02</totfact>
</mgrwt>
</event>
<event>
 4    3  0.9203887E-001  0.8234053E+02  0.7546771E-02  0.1322538E+00
         -2   -1    0    0    0  501 -0.00000000000E+00  0.00000000000E+00  0.11741735045E+03  0.11741735045E+03  0.00000000000E+00 0.  1.
          2   -1    0    0  501    0  0.00000000000E+00 -0.00000000000E+00 -0.57859117499E+02  0.57859117499E+02  0.00000000000E+00 0. -1.
         24    1    1    2    0    0 -0.17537824408E+02 -0.22733719525E+01  0.33715325878E+02  0.88975741966E+02  0.80419002446E+02 0.  1.
        -24    1    1    2    0    0  0.17537824408E+02  0.22733719525E+01  0.25842907074E+02  0.86300725984E+02  0.80419002446E+02 0.  0.
<mgrwt>
<rscale>  0 0.82340520E+02</rscale>
<asrwt>0</asrwt>
<pdfrwt beam="1">  1        2 0.89014027E-02 0.82340530E+02</pdfrwt>
<pdfrwt beam="2">  1       -2 0.18064208E-01 0.82340530E+02</pdfrwt>
<totfact> 0.16337990E+04</totfact>
</mgrwt>
</event>
<event>
 4    3  0.9203887E-001  0.1042744E+03  0.7546771E-02  0.1271556E+00
          4   -1    0    0  501    0  0.00000000000E+00  0.00000000000E+00  0.13981666410E+03  0.13981666410E+03  0.00000000000E+00 0. -1.
         -4   -1    0    0    0  501 -0.00000000000E+00 -0.00000000000E+00 -0.91101716898E+02  0.91101716898E+02  0.00000000000E+00 0.  1.
         24    1    1    2    0    0  0.52548342150E+02  0.40553747343E+02  0.68530164033E+02  0.12477793885E+03  0.80419002446E+02 0. -1.
        -24    1    1    2    0    0 -0.52548342150E+02 -0.40553747343E+02 -0.19815216836E+02  0.10614044215E+03  0.80419002446E+02 0.  1.
<mgrwt>
<rscale>  0 0.10427440E+03</rscale>
<asrwt>0</asrwt>
<pdfrwt beam="1">  1        4 0.21510256E-01 0.10427440E+03</pdfrwt>
<pdfrwt beam="2">  1       -4 0.14015649E-01 0.10427440E+03</pdfrwt>
<totfact> 0.13014960E+03</totfact>
</mgrwt>
</event>
<event>
 4    3  0.9203887E-001  0.8953282E+02  0.7546771E-02  0.1303987E+00
          4   -1    0    0  501    0  0.00000000000E+00  0.00000000000E+00  0.19846224814E+02  0.19846224814E+02  0.00000000000E+00 0. -1.
         -4   -1    0    0    0  501 -0.00000000000E+00 -0.00000000000E+00 -0.76016789836E+03  0.76016789836E+03  0.00000000000E+00 0.  1.
         24    1    1    2    0    0 -0.71740312887E+01  0.38696811624E+02 -0.10316848874E+03  0.13660110899E+03  0.80419002446E+02 0. -1.
        -24    1    1    2    0    0  0.71740312887E+01 -0.38696811624E+02 -0.63715318480E+03  0.64341301418E+03  0.80419002446E+02 0.  1.
<mgrwt>
<rscale>  0 0.89532820E+02</rscale>
<asrwt>0</asrwt>
<pdfrwt beam="1">  1        4 0.30532659E-02 0.89532820E+02</pdfrwt>
<pdfrwt beam="2">  1       -4 0.11694889E+00 0.89532820E+02</pdfrwt>
<totfact> 0.47245243E+02</totfact>
</mgrwt>
</event>
<event>
 4    3  0.9203887E-001  0.1117257E+03  0.7546771E-02  0.1257407E+00
          2   -1    0    0  501    0  0.00000000000E+00  0.00000000000E+00  0.12865044021E+03  0.12865044021E+03  0.00000000000E+00 0. -1.
         -2   -1    0    0    0  501 -0.00000000000E+00 -0.00000000000E+00 -0.14723142940E+03  0.14723142940E+03  0.00000000000E+00 0.  1.
         24    1    1    2    0    0 -0.70968311114E+02 -0.31287749896E+02  0.71258741256E+02  0.13251584296E+03  0.80419002446E+02 0. -1.
        -24    1    1    2    0    0  0.70968311114E+02  0.31287749896E+02 -0.89839730449E+02  0.14336602665E+03  0.80419002446E+02 0.  1.
<mgrwt>
<rscale>  0 0.11172574E+03</rscale>
<asrwt>0</asrwt>
<pdfrwt beam="1">  1        2 0.19792375E-01 0.11172574E+03</pdfrwt>
<pdfrwt beam="2">  1       -2 0.22650989E-01 0.11172574E+03</pdfrwt>
<totfact> 0.44894196E+03</totfact>
</mgrwt>
</event>
<event>
 4    3  0.9203887E-001  0.8949188E+02  0.7546771E-02  0.1304087E+00
          2   -1    0    0  501    0  0.00000000000E+00  0.00000000000E+00  0.13836193157E+02  0.13836193157E+02  0.00000000000E+00 0. -1.
         -2   -1    0    0    0  501 -0.00000000000E+00 -0.00000000000E+00 -0.10820919807E+04  0.10820919807E+04  0.00000000000E+00 0.  1.
         24    1    1    2    0    0  0.20491828096E+02  0.33491271342E+02 -0.16043288207E+03  0.18370494245E+03  0.80419002446E+02 0. -1.
        -24    1    1    2    0    0 -0.20491828096E+02 -0.33491271342E+02 -0.90782290549E+03  0.91222323143E+03  0.80419002446E+02 0.  1.
<mgrwt>
<rscale>  0 0.89491878E+02</rscale>
<asrwt>0</asrwt>
<pdfrwt beam="1">  1        2 0.21286447E-02 0.89491878E+02</pdfrwt>
<pdfrwt beam="2">  1       -2 0.16647572E+00 0.89491878E+02</pdfrwt>
<totfact> 0.11355113E+03</totfact>
</mgrwt>
</event>
<event>
 4    3  0.9203887E-001  0.8147924E+02  0.7546771E-02  0.1324905E+00
          1   -1    0    0  501    0  0.00000000000E+00  0.00000000000E+00  0.23765992171E+03  0.23765992171E+03  0.00000000000E+00 0. -1.
         -1   -1    0    0    0  501 -0.00000000000E+00 -0.00000000000E+00 -0.43447161479E+03  0.43447161479E+03  0.00000000000E+00 0.  1.
         24    1    1    2    0    0 -0.11945610393E+02 -0.53807787357E+01 -0.42348848370E+03  0.43125556480E+03  0.80419002446E+02 0.  1.
        -24    1    1    2    0    0  0.11945610393E+02  0.53807787357E+01  0.22667679062E+03  0.24087597171E+03  0.80419002446E+02 0. -1.
<mgrwt>
<rscale>  0 0.81479239E+02</rscale>
<asrwt>0</asrwt>
<pdfrwt beam="1">  1        1 0.36563065E-01 0.81479239E+02</pdfrwt>
<pdfrwt beam="2">  1       -1 0.66841787E-01 0.81479239E+02</pdfrwt>
<totfact> 0.28355190E+02</totfact>
</mgrwt>
</event>
<event>
 4    3  0.9203887E-001  0.8317230E+02  0.7546771E-02  0.1320283E+00
         -1   -1    0    0    0  501 -0.00000000000E+00  0.00000000000E+00  0.63148365727E+02  0.63148365727E+02  0.00000000000E+00 0.  1.
          1   -1    0    0  501    0  0.00000000000E+00 -0.00000000000E+00 -0.21197217930E+04  0.21197217930E+04  0.00000000000E+00 0. -1.
         24    1    1    2    0    0  0.19535447904E+02  0.82934871272E+01  0.34571977284E+02  0.90071378480E+02  0.80419002446E+02 0.  1.
        -24    1    1    2    0    0 -0.19535447904E+02 -0.82934871272E+01 -0.20911454046E+04  0.20927987803E+04  0.80419002446E+02 0. -1.
<mgrwt>
<rscale>  0 0.83172301E+02</rscale>
<asrwt>0</asrwt>
<pdfrwt beam="1">  1        1 0.32611105E+00 0.83172301E+02</pdfrwt>
<pdfrwt beam="2">  1       -1 0.97151331E-02 0.83172301E+02</pdfrwt>
<totfact> 0.19424293E+02</totfact>
</mgrwt>
</event>
<event>
 4    3  0.9203887E-001  0.9353104E+02  0.7546771E-02  0.1294519E+00
          2   -1    0    0  501    0  0.00000000000E+00  0.00000000000E+00  0.26755878380E+04  0.26755878380E+04  0.00000000000E+00 0. -1.
         -2   -1    0    0    0  501 -0.00000000000E+00 -0.00000000000E+00 -0.55343188539E+01  0.55343188539E+01  0.00000000000E+00 0.  1.
         24    1    1    2    0    0  0.23449382265E+02 -0.41604869350E+02  0.21925844827E+04  0.21945784945E+04  0.80419002446E+02 0. -1.
        -24    1    1    2    0    0 -0.23449382265E+02  0.41604869350E+02  0.47746903647E+03  0.48654366241E+03  0.80419002446E+02 0.  1.
<mgrwt>
<rscale>  0 0.93531036E+02</rscale>
<asrwt>0</asrwt>
<pdfrwt beam="1">  1        2 0.41162787E+00 0.93531036E+02</pdfrwt>
<pdfrwt beam="2">  1       -2 0.85143581E-03 0.93531036E+02</pdfrwt>
<totfact> 0.85256977E+03</totfact>
</mgrwt>
</event>
<event>
 4    3  0.9203887E-001  0.1222503E+03  0.7546771E-02  0.1239430E+00
          3   -1    0    0  501    0  0.00000000000E+00  0.00000000000E+00  0.28377560382E+03  0.28377560382E+03  0.00000000000E+00 0. -1.
         -3   -1    0    0    0  501 -0.00000000000E+00 -0.00000000000E+00 -0.20476274609E+03  0.20476274609E+03  0.00000000000E+00 0.  1.
         24    1    1    2    0    0  0.89219116351E+02  0.22756973238E+02 -0.17101875590E+03  0.21022026871E+03  0.80419002446E+02 0.  1.
        -24    1    1    2    0    0 -0.89219116351E+02 -0.22756973238E+02  0.25003161362E+03  0.27831808119E+03  0.80419002446E+02 0. -1.
<mgrwt>
<rscale>  0 0.12225034E+03</rscale>
<asrwt>0</asrwt>
<pdfrwt beam="1">  1        3 0.43657785E-01 0.12225034E+03</pdfrwt>
<pdfrwt beam="2">  1       -3 0.31501961E-01 0.12225034E+03</pdfrwt>
<totfact> 0.11899511E+02</totfact>
</mgrwt>
</event>
<event>
 4    3  0.9203887E-001  0.1141368E+03  0.7546771E-02  0.1253095E+00
          2   -1    0    0  501    0  0.00000000000E+00  0.00000000000E+00  0.12346411570E+04  0.12346411570E+04  0.00000000000E+00 0. -1.
         -2   -1    0    0    0  501 -0.00000000000E+00 -0.00000000000E+00 -0.15292646505E+02  0.15292646505E+02  0.00000000000E+00 0.  1.
         24    1    1    2    0    0  0.77342162918E+02 -0.24045331213E+02  0.95766006849E+03  0.96443766561E+03  0.80419002446E+02 0. -1.
        -24    1    1    2    0    0 -0.77342162918E+02  0.24045331213E+02  0.26168844201E+03  0.28549613790E+03  0.80419002446E+02 0.  1.
<mgrwt>
<rscale>  0 0.11413678E+03</rscale>
<asrwt>0</asrwt>
<pdfrwt beam="1">  1        2 0.18994472E+00 0.11413678E+03</pdfrwt>
<pdfrwt beam="2">  1       -2 0.23527158E-02 0.11413678E+03</pdfrwt>
<totfact> 0.11132740E+04</totfact>
</mgrwt>
</event>
<event>
 4    3  0.9203887E-001  0.1006361E+03  0.7546771E-02  0.1278964E+00
          3   -1    0    0  501    0  0.00000000000E+00  0.00000000000E+00  0.12691127672E+04  0.12691127672E+04  0.00000000000E+00 0. -1.
         -3   -1    0    0    0  501 -0.00000000000E+00 -0.00000000000E+00 -0.85774577636E+01  0.85774577636E+01  0.00000000000E+00 0.  1.
         24    1    1    2    0    0  0.51136321732E+02 -0.32333936705E+02  0.46167431801E+03  0.47251539522E+03  0.80419002446E+02 0.  0.
        -24    1    1    2    0    0 -0.51136321732E+02  0.32333936705E+02  0.79886099146E+03  0.80517482977E+03  0.80419002446E+02 0. -1.
<mgrwt>
<rscale>  0 0.10063609E+03</rscale>
<asrwt>0</asrwt>
<pdfrwt beam="1">  1        3 0.19524797E+00 0.10063609E+03</pdfrwt>
<pdfrwt beam="2">  1       -3 0.13196099E-02 0.10063609E+03</pdfrwt>
<totfact> 0.68834809E+02</totfact>
</mgrwt>
</event>
<event>
 4    3  0.9203887E-001  0.1018126E+03  0.7546771E-02  0.1276530E+00
          2   -1    0    0  501    0  0.00000000000E+00  0.00000000000E+00  0.22950386509E+02  0.22950386509E+02  0.00000000000E+00 0. -1.
         -2   -1    0    0    0  501 -0.00000000000E+00 -0.00000000000E+00 -0.52502558184E+03  0.52502558184E+03  0.00000000000E+00 0.  1.
         24    1    1    2    0    0 -0.32954741574E+02  0.53033654625E+02 -0.14861781032E+03  0.18014730921E+03  0.80419002446E+02 0. -1.
        -24    1    1    2    0    0  0.32954741574E+02 -0.53033654625E+02 -0.35345738500E+03  0.36782865914E+03  0.80419002446E+02 0.  1.
<mgrwt>
<rscale>  0 0.10181257E+03</rscale>
<asrwt>0</asrwt>
<pdfrwt beam="1">  1        2 0.35308288E-02 0.10181257E+03</pdfrwt>
<pdfrwt beam="2">  1       -2 0.80773163E-01 0.10181257E+03</pdfrwt>
<totfact> 0.32567341E+03</totfact>
</mgrwt>
</event>
<event>
 4    3  0.9203887E-001  0.8435435E+02  0.7546771E-02  0.1317130E+00
         -1   -1    0    0    0  501 -0.00000000000E+00  0.00000000000E+00  0.67003909074E+02  0.67003909074E+02  0.00000000000E+00 0.  1.
          1   -1    0    0  501    0  0.00000000000E+00 -0.00000000000E+00 -0.34046676672E+03  0.34046676672E+03  0.00000000000E+00 0. -1.
         24    1    1    2    0    0  0.18071818529E+02 -0.17940156525E+02  0.32268509800E+02  0.90315627220E+02  0.80419002446E+02 0.  1.
        -24    1    1    2    0    0 -0.18071818529E+02  0.17940156525E+02 -0.30573136744E+03  0.31715504857E+03  0.80419002446E+02 0. -1.
<mgrwt>
<rscale>  0 0.84354347E+02</rscale>
<asrwt>0</asrwt>
<pdfrwt beam="1">  1        1 0.52379503E-01 0.84354347E+02</pdfrwt>
<pdfrwt beam="2">  1       -1 0.10308294E-01 0.84354347E+02</pdfrwt>
<totfact> 0.40649908E+03</totfact>
</mgrwt>
</event>
<event>
 4    3  0.9203887E-001  0.1060469E+03  0.7546771E-02  0.1268071E+00
         -4   -1    0    0    0  501 -0.00000000000E+00  0.00000000000E+00  0.20927423267E+04  0.20927423267E+04  0.00000000000E+00 0.  1.
          4   -1    0    0  501    0  0.00000000000E+00 -0.00000000000E+00 -0.14789843991E+02  0.14789843991E+02  0.00000000000E+00 0. -1.
         24    1    1    2    0    0 -0.40358921867E+02  0.56123859607E+02  0.19816788574E+03  0.22475866409E+03  0.80419002446E+02 0. -1.
        -24    1    1    2    0    0  0.40358921867E+02 -0.56123859607E+02  0.18797845970E+04  0.18827735066E+04  0.80419002446E+02 0.  1.
<mgrwt>
<rscale>  0 0.10604691E+03</rscale>
<asrwt>0</asrwt>
<pdfrwt beam="1">  1        4 0.22753623E-02 0.10604691E+03</pdfrwt>
<pdfrwt beam="2">  1       -4 0.32196012E+00 0.10604691E+03</pdfrwt>
<totfact> 0.38543007E+01</totfact>
</mgrwt>
</event>
<event>
 4    3  0.9203887E-001  0.9419527E+02  0.7546771E-02  0.1292999E+00
         -2   -1    0    0    0  501 -0.00000000000E+00  0.00000000000E+00  0.13258584675E+03  0.13258584675E+03  0.00000000000E+00 0.  1.
          2   -1    0    0  501    0  0.00000000000E+00 -0.00000000000E+00 -0.11303855531E+03  0.11303855531E+03  0.00000000000E+00 0. -1.
         24    1    1    2    0    0  0.48792927066E+02  0.49782663236E+01 -0.68670831123E+02  0.11656942939E+03  0.80419002446E+02 0. -1.
        -24    1    1    2    0    0 -0.48792927066E+02 -0.49782663236E+01  0.88218122561E+02  0.12905497267E+03  0.80419002446E+02 0.  1.
<mgrwt>
<rscale>  0 0.94195270E+02</rscale>
<asrwt>0</asrwt>
<pdfrwt beam="1">  1        2 0.17390547E-01 0.94195270E+02</pdfrwt>
<pdfrwt beam="2">  1       -2 0.20397822E-01 0.94195270E+02</pdfrwt>
<totfact> 0.61313800E+03</totfact>
</mgrwt>
</event>
<event>
 4    3  0.9203887E-001  0.8108097E+02  0.7546771E-02  0.1326012E+00
          2   -1    0    0  501    0  0.00000000000E+00  0.00000000000E+00  0.56850295066E+03  0.56850295066E+03  0.00000000000E+00 0. -1.
         -2   -1    0    0    0  501 -0.00000000000E+00 -0.00000000000E+00 -0.20055121671E+02  0.20055121671E+02  0.00000000000E+00 0.  1.
         24    1    1    2    0    0 -0.27849483225E+01 -0.99574667856E+01  0.46570736045E+03  0.47271288180E+03  0.80419002446E+02 0.  0.
        -24    1    1    2    0    0  0.27849483225E+01  0.99574667856E+01  0.82740468533E+02  0.11584519053E+03  0.80419002446E+02 0.  1.
<mgrwt>
<rscale>  0 0.81080966E+02</rscale>
<asrwt>0</asrwt>
<pdfrwt beam="1">  1        2 0.87461980E-01 0.81080966E+02</pdfrwt>
<pdfrwt beam="2">  1       -2 0.30854038E-02 0.81080966E+02</pdfrwt>
<totfact> 0.19603992E+04</totfact>
</mgrwt>
</event>
<event>
 4    3  0.9203887E-001  0.8197997E+02  0.7546771E-02  0.1323525E+00
          1   -1    0    0  501    0  0.00000000000E+00  0.00000000000E+00  0.30285719827E+02  0.30285719827E+02  0.00000000000E+00 0. -1.
         -1   -1    0    0    0  501 -0.00000000000E+00 -0.00000000000E+00 -0.81677377848E+03  0.81677377848E+03  0.00000000000E+00 0.  1.
         24    1    1    2    0    0  0.97286627522E+01  0.12603663564E+02 -0.75468855939E+03  0.75912814257E+03  0.80419002446E+02 0.  1.
        -24    1    1    2    0    0 -0.97286627522E+01 -0.12603663564E+02 -0.31799499265E+02  0.87931355739E+02  0.80419002446E+02 0. -1.
<mgrwt>
<rscale>  0 0.81979968E+02</rscale>
<asrwt>0</asrwt>
<pdfrwt beam="1">  1        1 0.46593419E-02 0.81979968E+02</pdfrwt>
<pdfrwt beam="2">  1       -1 0.12565749E+00 0.81979968E+02</pdfrwt>
<totfact> 0.10470729E+03</totfact>
</mgrwt>
</event>
<event>
 4    3  0.9203887E-001  0.1647947E+03  0.7546771E-02  0.1183387E+00
          2   -1    0    0  501    0  0.00000000000E+00  0.00000000000E+00  0.50174708918E+03  0.50174708918E+03  0.00000000000E+00 0. -1.
         -2   -1    0    0    0  501 -0.00000000000E+00 -0.00000000000E+00 -0.81174653795E+02  0.81174653795E+02  0.00000000000E+00 0.  1.
         24    1    1    2    0    0  0.14037154828E+03  0.31399386345E+02  0.37853306219E+03  0.41284935286E+03  0.80419002446E+02 0. -1.
        -24    1    1    2    0    0 -0.14037154828E+03 -0.31399386345E+02  0.42039373201E+02  0.17007239012E+03  0.80419002446E+02 0.  1.
<mgrwt>
<rscale>  0 0.16479475E+03</rscale>
<asrwt>0</asrwt>
<pdfrwt beam="1">  1        2 0.77191858E-01 0.16479475E+03</pdfrwt>
<pdfrwt beam="2">  1       -2 0.12488409E-01 0.16479475E+03</pdfrwt>
<totfact> 0.28204239E+03</totfact>
</mgrwt>
</event>
<event>
 4    3  0.9203887E-001  0.9482736E+02  0.7546771E-02  0.1291565E+00
         -2   -1    0    0    0  501 -0.00000000000E+00  0.00000000000E+00  0.84133075765E+01  0.84133075765E+01  0.00000000000E+00 0.  1.
          2   -1    0    0  501    0  0.00000000000E+00 -0.00000000000E+00 -0.10790514958E+04  0.10790514958E+04  0.00000000000E+00 0. -1.
         24    1    1    2    0    0 -0.50233052370E+02 -0.12839801852E+01 -0.48234618903E+03  0.49157915963E+03  0.80419002446E+02 0.  1.
        -24    1    1    2    0    0  0.50233052370E+02  0.12839801852E+01 -0.58829199923E+03  0.59588564379E+03  0.80419002446E+02 0. -1.
<mgrwt>
<rscale>  0 0.94827350E+02</rscale>
<asrwt>0</asrwt>
<pdfrwt beam="1">  1        2 0.16600786E+00 0.94827362E+02</pdfrwt>
<pdfrwt beam="2">  1       -2 0.12943555E-02 0.94827362E+02</pdfrwt>
<totfact> 0.31609318E+04</totfact>
</mgrwt>
</event>
<event>
 4    3  0.9203887E-001  0.8142622E+02  0.7546771E-02  0.1325052E+00
         -1   -1    0    0    0  501 -0.00000000000E+00  0.00000000000E+00  0.42896543527E+02  0.42896543527E+02  0.00000000000E+00 0.  1.
          1   -1    0    0  501    0  0.00000000000E+00 -0.00000000000E+00 -0.20195241641E+03  0.20195241641E+03  0.00000000000E+00 0. -1.
         24    1    1    2    0    0  0.85284651468E+01  0.95014953039E+01 -0.20224032196E+02  0.83900182142E+02  0.80419002446E+02 0.  1.
        -24    1    1    2    0    0 -0.85284651468E+01 -0.95014953039E+01 -0.13883184069E+03  0.16094877780E+03  0.80419002446E+02 0.  0.
<mgrwt>
<rscale>  0 0.81426219E+02</rscale>
<asrwt>0</asrwt>
<pdfrwt beam="1">  1        1 0.31069603E-01 0.81426219E+02</pdfrwt>
<pdfrwt beam="2">  1       -1 0.65994682E-02 0.81426219E+02</pdfrwt>
<totfact> 0.14889191E+04</totfact>
</mgrwt>
</event>
<event>
 4    3  0.9203887E-001  0.8742251E+02  0.7546771E-02  0.1309216E+00
          2   -1    0    0  501    0  0.00000000000E+00  0.00000000000E+00  0.47426318547E+02  0.47426318547E+02  0.00000000000E+00 0. -1.
         -2   -1    0    0    0  501 -0.00000000000E+00 -0.00000000000E+00 -0.16482286699E+03  0.16482286699E+03  0.00000000000E+00 0.  1.
         24    1    1    2    0    0 -0.61294372799E+01  0.33732916009E+02 -0.42853747364E+02  0.97360871203E+02  0.80419002446E+02 0.  1.
        -24    1    1    2    0    0  0.61294372799E+01 -0.33732916009E+02 -0.74542801083E+02  0.11488831434E+03  0.80419002446E+02 0. -1.
<mgrwt>
<rscale>  0 0.87422512E+02</rscale>
<asrwt>0</asrwt>
<pdfrwt beam="1">  1        2 0.72963567E-02 0.87422512E+02</pdfrwt>
<pdfrwt beam="2">  1       -2 0.25357364E-01 0.87422512E+02</pdfrwt>
<totfact> 0.11858069E+04</totfact>
</mgrwt>
</event>
<event>
 4    3  0.9203887E-001  0.8807106E+02  0.7546771E-02  0.1307591E+00
          2   -1    0    0  501    0  0.00000000000E+00  0.00000000000E+00  0.10508308491E+04  0.10508308491E+04  0.00000000000E+00 0. -1.
         -2   -1    0    0    0  501 -0.00000000000E+00 -0.00000000000E+00 -0.32384861806E+02  0.32384861806E+02  0.00000000000E+00 0.  1.
         24    1    1    2    0    0  0.33776746610E+02  0.12183096292E+02  0.98512194642E+03  0.98905093991E+03  0.80419002446E+02 0. -1.
        -24    1    1    2    0    0 -0.33776746610E+02 -0.12183096292E+02  0.33324040898E+02  0.94164771029E+02  0.80419002446E+02 0.  1.
<mgrwt>
<rscale>  0 0.88071064E+02</rscale>
<asrwt>0</asrwt>
<pdfrwt beam="1">  1        2 0.16166626E+00 0.88071064E+02</pdfrwt>
<pdfrwt beam="2">  1       -2 0.49822872E-02 0.88071064E+02</pdfrwt>
<totfact> 0.46297636E+03</totfact>
</mgrwt>
</event>
<event>
 4    3  0.9203887E-001  0.8286116E+02  0.7546771E-02  0.1321123E+00
          2   -1    0    0  501    0  0.00000000000E+00  0.00000000000E+00  0.79603065811E+03  0.79603065811E+03  0.00000000000E+00 0. -1.
         -2   -1    0    0    0  501 -0.00000000000E+00 -0.00000000000E+00 -0.15499195231E+03  0.15499195231E+03  0.00000000000E+00 0.  1.
         24    1    1    2    0    0 -0.12452761325E+02  0.15610396644E+02  0.78261023690E+03  0.78698459617E+03  0.80419002446E+02 0. -1.
        -24    1    1    2    0    0  0.12452761325E+02 -0.15610396644E+02 -0.14157153110E+03  0.16403801425E+03  0.80419002446E+02 0.  1.
<mgrwt>
<rscale>  0 0.82861159E+02</rscale>
<asrwt>0</asrwt>
<pdfrwt beam="1">  1        2 0.12246625E+00 0.82861159E+02</pdfrwt>
<pdfrwt beam="2">  1       -2 0.23844916E-01 0.82861159E+02</pdfrwt>
<totfact> 0.56152578E+02</totfact>
</mgrwt>
</event>
<event>
 4    3  0.9203887E-001  0.8183779E+02  0.7546771E-02  0.1323916E+00
          2   -1    0    0  501    0  0.00000000000E+00  0.00000000000E+00  0.24007710162E+04  0.24007710162E+04  0.00000000000E+00 0. -1.
         -2   -1    0    0    0  501 -0.00000000000E+00 -0.00000000000E+00 -0.35974677004E+01  0.35974677004E+01  0.00000000000E+00 0.  1.
         24    1    1    2    0    0  0.44383276270E+01 -0.14508909565E+02  0.17682480364E+04  0.17701408253E+04  0.80419002446E+02 0. -1.
        -24    1    1    2    0    0 -0.44383276270E+01  0.14508909565E+02  0.62892551209E+03  0.63422765859E+03  0.80419002446E+02 0.  0.
<mgrwt>
<rscale>  0 0.81837786E+02</rscale>
<asrwt>0</asrwt>
<pdfrwt beam="1">  1        2 0.36934811E+00 0.81837786E+02</pdfrwt>
<pdfrwt beam="2">  1       -2 0.55345849E-03 0.81837786E+02</pdfrwt>
<totfact> 0.21692439E+04</totfact>
</mgrwt>
</event>
<event>
 4    3  0.9203887E-001  0.8490100E+02  0.7546771E-02  0.1315692E+00
         -2   -1    0    0    0  501 -0.00000000000E+00  0.00000000000E+00  0.87845892842E+01  0.87845892842E+01  0.00000000000E+00 0.  1.
          2   -1    0    0  501    0  0.00000000000E+00 -0.00000000000E+00 -0.84109294116E+03  0.84109294116E+03  0.00000000000E+00 0. -1.
         24    1    1    2    0    0 -0.53675367400E+01  0.26686141305E+02 -0.34974049359E+03  0.35989802639E+03  0.80419002446E+02 0.  0.
        -24    1    1    2    0    0  0.53675367400E+01 -0.26686141305E+02 -0.48256785829E+03  0.48997950406E+03  0.80419002446E+02 0.  0.
<mgrwt>
<rscale>  0 0.84900991E+02</rscale>
<asrwt>0</asrwt>
<pdfrwt beam="1">  1        2 0.12939891E+00 0.84901002E+02</pdfrwt>
<pdfrwt beam="2">  1       -2 0.13514753E-02 0.84901002E+02</pdfrwt>
<totfact> 0.40829646E+04</totfact>
</mgrwt>
</event>
<event>
 4    3  0.9203887E-001  0.8670423E+02  0.7546771E-02  0.1311035E+00
         -2   -1    0    0    0  501 -0.00000000000E+00  0.00000000000E+00  0.31446684205E+01  0.31446684205E+01  0.00000000000E+00 0.  1.
          2   -1    0    0  501    0  0.00000000000E+00 -0.00000000000E+00 -0.38095750981E+04  0.38095750981E+04  0.00000000000E+00 0. -1.
         24    1    1    2    0    0  0.23827669848E+02  0.21969289588E+02 -0.30666847651E+04  0.30679102125E+04  0.80419002446E+02 0. -1.
        -24    1    1    2    0    0 -0.23827669848E+02 -0.21969289588E+02 -0.73974566454E+03  0.74480955397E+03  0.80419002446E+02 0.  1.
<mgrwt>
<rscale>  0 0.86704230E+02</rscale>
<asrwt>0</asrwt>
<pdfrwt beam="1">  1        2 0.58609081E+00 0.86704230E+02</pdfrwt>
<pdfrwt beam="2">  1       -2 0.48379322E-03 0.86704230E+02</pdfrwt>
<totfact> 0.38895884E+03</totfact>
</mgrwt>
</event>
<event>
 4    3  0.9203887E-001  0.9599660E+02  0.7546771E-02  0.1288947E+00
          1   -1    0    0  501    0  0.00000000000E+00  0.00000000000E+00  0.69080085691E+03  0.69080085691E+03  0.00000000000E+00 0. -1.
         -1   -1    0    0    0  501 -0.00000000000E+00 -0.00000000000E+00 -0.54327593623E+02  0.54327593623E+02  0.00000000000E+00 0.  1.
         24    1    1    2    0    0 -0.51972892524E+02  0.68520184396E+01 -0.53694195868E+01  0.96146650150E+02  0.80419002446E+02 0.  1.
        -24    1    1    2    0    0  0.51972892524E+02 -0.68520184396E+01  0.64184268287E+03  0.64898180038E+03  0.80419002446E+02 0. -1.
<mgrwt>
<rscale>  0 0.95996602E+02</rscale>
<asrwt>0</asrwt>
<pdfrwt beam="1">  1        1 0.10627705E+00 0.95996602E+02</pdfrwt>
<pdfrwt beam="2">  1       -1 0.83580918E-02 0.95996602E+02</pdfrwt>
<totfact> 0.22523457E+03</totfact>
</mgrwt>
</event>
<event>
 4    3  0.9203887E-001  0.8276097E+02  0.7546771E-02  0.1321394E+00
         -4   -1    0    0    0  501 -0.00000000000E+00  0.00000000000E+00  0.72067654897E+02  0.72067654897E+02  0.00000000000E+00 0.  1.
          4   -1    0    0  501    0  0.00000000000E+00 -0.00000000000E+00 -0.96518461398E+02  0.96518461398E+02  0.00000000000E+00 0. -1.
         24    1    1    2    0    0  0.14847797921E+02  0.12716309760E+02 -0.22654667100E+02  0.85805661426E+02  0.80419002446E+02 0.  1.
        -24    1    1    2    0    0 -0.14847797921E+02 -0.12716309760E+02 -0.17961394007E+01  0.82780454868E+02  0.80419002446E+02 0.  0.
<mgrwt>
<rscale>  0 0.82760967E+02</rscale>
<asrwt>0</asrwt>
<pdfrwt beam="1">  1        4 0.14848994E-01 0.82760967E+02</pdfrwt>
<pdfrwt beam="2">  1       -4 0.11087332E-01 0.82760967E+02</pdfrwt>
<totfact> 0.35084203E+03</totfact>
</mgrwt>
</event>
<event>
 4    3  0.9203887E-001  0.1006950E+03  0.7546771E-02  0.1278841E+00
         -2   -1    0    0    0  501 -0.00000000000E+00  0.00000000000E+00  0.10332968259E+03  0.10332968259E+03  0.00000000000E+00 0.  1.
          2   -1    0    0  501    0  0.00000000000E+00 -0.00000000000E+00 -0.13937189529E+03  0.13937189529E+03  0.00000000000E+00 0. -1.
         24    1    1    2    0    0  0.60492495396E+02 -0.35957000593E+01 -0.84035294827E+02  0.13115417565E+03  0.80419002446E+02 0. -1.
        -24    1    1    2    0    0 -0.60492495396E+02  0.35957000593E+01  0.47993082123E+02  0.11154740223E+03  0.80419002446E+02 0.  1.
<mgrwt>
<rscale>  0 0.10069502E+03</rscale>
<asrwt>0</asrwt>
<pdfrwt beam="1">  1        2 0.21441830E-01 0.10069502E+03</pdfrwt>
<pdfrwt beam="2">  1       -2 0.15896874E-01 0.10069502E+03</pdfrwt>
<totfact> 0.73616942E+03</totfact>
</mgrwt>
</event>
<event>
 4    3  0.9203887E-001  0.9815190E+02  0.7546771E-02  0.1284231E+00
         -1   -1    0    0    0  501 -0.00000000000E+00  0.00000000000E+00  0.14488322933E+02  0.14488322933E+02  0.00000000000E+00 0.  1.
          1   -1    0    0  501    0  0.00000000000E+00 -0.00000000000E+00 -0.72347442085E+03  0.72347442085E+03  0.00000000000E+00 0. -1.
         24    1    1    2    0    0  0.56257197371E+02 -0.13067440438E+01 -0.24953485488E+03  0.26814443792E+03  0.80419002446E+02 0.  1.
        -24    1    1    2    0    0 -0.56257197371E+02  0.13067440438E+01 -0.45945124304E+03  0.46981830586E+03  0.80419002446E+02 0. -1.
<mgrwt>
<rscale>  0 0.98151902E+02</rscale>
<asrwt>0</asrwt>
<pdfrwt beam="1">  1        1 0.11130376E+00 0.98151902E+02</pdfrwt>
<pdfrwt beam="2">  1       -1 0.22289727E-02 0.98151902E+02</pdfrwt>
<totfact> 0.14565662E+04</totfact>
</mgrwt>
</event>
<event>
 4    3  0.9203887E-001  0.1728803E+03  0.7546771E-02  0.1174877E+00
          2   -1    0    0  501    0  0.00000000000E+00  0.00000000000E+00  0.14956448718E+04  0.14956448718E+04  0.00000000000E+00 0. -1.
         -2   -1    0    0    0  501 -0.00000000000E+00 -0.00000000000E+00 -0.24234614838E+02  0.24234614838E+02  0.00000000000E+00 0.  1.
         24    1    1    2    0    0 -0.68130867507E+02 -0.13703491329E+03  0.10540029860E+04  0.10680870250E+04  0.80419002446E+02 0. -1.
        -24    1    1    2    0    0  0.68130867507E+02  0.13703491329E+03  0.41740727099E+03  0.45179246164E+03  0.80419002446E+02 0.  1.
<mgrwt>
<rscale>  0 0.17288030E+03</rscale>
<asrwt>0</asrwt>
<pdfrwt beam="1">  1        2 0.23009914E+00 0.17288030E+03</pdfrwt>
<pdfrwt beam="2">  1       -2 0.37284035E-02 0.17288030E+03</pdfrwt>
<totfact> 0.41660958E+03</totfact>
</mgrwt>
</event>
<event>
 4    3  0.9203887E-001  0.8227872E+02  0.7546771E-02  0.1322706E+00
         -2   -1    0    0    0  501 -0.00000000000E+00  0.00000000000E+00  0.13777156218E+03  0.13777156218E+03  0.00000000000E+00 0.  1.
          2   -1    0    0  501    0  0.00000000000E+00 -0.00000000000E+00 -0.49163437134E+02  0.49163437134E+02  0.00000000000E+00 0. -1.
         24    1    1    2    0    0 -0.20878557542E+01  0.17268846792E+02  0.42168672670E+02  0.92455314181E+02  0.80419002446E+02 0.  1.
        -24    1    1    2    0    0  0.20878557542E+01 -0.17268846792E+02  0.46439452375E+02  0.94479685131E+02  0.80419002446E+02 0. -1.
<mgrwt>
<rscale>  0 0.82278722E+02</rscale>
<asrwt>0</asrwt>
<pdfrwt beam="1">  1        2 0.75636058E-02 0.82278722E+02</pdfrwt>
<pdfrwt beam="2">  1       -2 0.21195625E-01 0.82278722E+02</pdfrwt>
<totfact> 0.15297489E+04</totfact>
</mgrwt>
</event>
<event>
 4    3  0.9203887E-001  0.1064029E+03  0.7546771E-02  0.1267380E+00
         -4   -1    0    0    0  501 -0.00000000000E+00  0.00000000000E+00  0.55707312209E+02  0.55707312209E+02  0.00000000000E+00 0.  1.
          4   -1    0    0  501    0  0.00000000000E+00 -0.00000000000E+00 -0.36606805769E+03  0.36606805769E+03  0.00000000000E+00 0. -1.
         24    1    1    2    0    0  0.24544202410E+01 -0.69629925676E+02 -0.29583181770E+03  0.31438516353E+03  0.80419002446E+02 0. -1.
        -24    1    1    2    0    0 -0.24544202410E+01  0.69629925676E+02 -0.14528927784E+02  0.10739020638E+03  0.80419002446E+02 0.  1.
<mgrwt>
<rscale>  0 0.10640285E+03</rscale>
<asrwt>0</asrwt>
<pdfrwt beam="1">  1        4 0.56318162E-01 0.10640285E+03</pdfrwt>
<pdfrwt beam="2">  1       -4 0.85703559E-02 0.10640285E+03</pdfrwt>
<totfact> 0.47116751E+02</totfact>
</mgrwt>
</event>
<event>
 4    3  0.9203887E-001  0.1043196E+03  0.7546771E-02  0.1271466E+00
          1   -1    0    0  501    0  0.00000000000E+00  0.00000000000E+00  0.13994805861E+02  0.13994805861E+02  0.00000000000E+00 0. -1.
         -1   -1    0    0    0  501 -0.00000000000E+00 -0.00000000000E+00 -0.87579339170E+03  0.87579339170E+03  0.00000000000E+00 0.  1.
         24    1    1    2    0    0  0.56332877917E+02 -0.35241626525E+02 -0.57985670937E+03  0.58916583805E+03  0.80419002446E+02 0.  1.
        -24    1    1    2    0    0 -0.56332877917E+02  0.35241626525E+02 -0.28194187648E+03  0.30062235951E+03  0.80419002446E+02 0. -1.
<mgrwt>
<rscale>  0 0.10431961E+03</rscale>
<asrwt>0</asrwt>
<pdfrwt beam="1">  1        1 0.21530461E-02 0.10431961E+03</pdfrwt>
<pdfrwt beam="2">  1       -1 0.13473751E+00 0.10431961E+03</pdfrwt>
<totfact> 0.25776553E+03</totfact>
</mgrwt>
</event>
<event>
 4    3  0.9203887E-001  0.9205311E+02  0.7546771E-02  0.1297955E+00
          1   -1    0    0  501    0  0.00000000000E+00  0.00000000000E+00  0.27929454996E+03  0.27929454996E+03  0.00000000000E+00 0. -1.
         -1   -1    0    0    0  501 -0.00000000000E+00 -0.00000000000E+00 -0.72439114573E+02  0.72439114573E+02  0.00000000000E+00 0.  1.
         24    1    1    2    0    0 -0.17520379611E+02 -0.41226156285E+02 -0.30643095552E+02  0.97019456415E+02  0.80419002446E+02 0.  1.
        -24    1    1    2    0    0  0.17520379611E+02  0.41226156285E+02  0.23749853094E+03  0.25471420811E+03  0.80419002446E+02 0. -1.
<mgrwt>
<rscale>  0 0.92053113E+02</rscale>
<asrwt>0</asrwt>
<pdfrwt beam="1">  1        1 0.42968392E-01 0.92053113E+02</pdfrwt>
<pdfrwt beam="2">  1       -1 0.11144479E-01 0.92053113E+02</pdfrwt>
<totfact> 0.46266819E+03</totfact>
</mgrwt>
</event>
<event>
 4    3  0.9203887E-001  0.8638156E+02  0.7546771E-02  0.1311859E+00
          2   -1    0    0  501    0  0.00000000000E+00  0.00000000000E+00  0.12616496555E+03  0.12616496555E+03  0.00000000000E+00 0. -1.
         -2   -1    0    0    0  501 -0.00000000000E+00 -0.00000000000E+00 -0.22204291220E+03  0.22204291220E+03  0.00000000000E+00 0.  1.
         24    1    1    2    0    0  0.29297866180E+02 -0.11670194344E+02  0.10118606439E+03  0.13304282762E+03  0.80419002446E+02 0. -1.
        -24    1    1    2    0    0 -0.29297866180E+02  0.11670194344E+02 -0.19706401104E+03  0.21516505014E+03  0.80419002446E+02 0.  1.
<mgrwt>
<rscale>  0 0.86381563E+02</rscale>
<asrwt>0</asrwt>
<pdfrwt beam="1">  1        2 0.19409995E-01 0.86381563E+02</pdfrwt>
<pdfrwt beam="2">  1       -2 0.34160447E-01 0.86381563E+02</pdfrwt>
<totfact> 0.21874144E+03</totfact>
</mgrwt>
</event>
<event>
 4    3  0.9203887E-001  0.8332968E+02  0.7546771E-02  0.1319859E+00
         -1   -1    0    0    0  501 -0.00000000000E+00  0.00000000000E+00  0.39346092021E+01  0.39346092021E+01  0.00000000000E+00 0.  1.
          1   -1    0    0  501    0  0.00000000000E+00 -0.00000000000E+00 -0.19759026959E+04  0.19759026959E+04  0.00000000000E+00 0. -1.
         24    1    1    2    0    0  0.21584042526E+02  0.32786175138E+01 -0.66242486594E+03  0.66764551911E+03  0.80419002446E+02 0.  1.
        -24    1    1    2    0    0 -0.21584042526E+02 -0.32786175138E+01 -0.13095432208E+04  0.13121917860E+04  0.80419002446E+02 0. -1.
<mgrwt>
<rscale>  0 0.83329684E+02</rscale>
<asrwt>0</asrwt>
<pdfrwt beam="1">  1        1 0.30398457E+00 0.83329684E+02</pdfrwt>
<pdfrwt beam="2">  1       -1 0.60532541E-03 0.83329684E+02</pdfrwt>
<totfact> 0.12874406E+04</totfact>
</mgrwt>
</event>
<event>
 4    3  0.9203887E-001  0.2724714E+03  0.7546771E-02  0.1099873E+00
         -1   -1    0    0    0  501 -0.00000000000E+00  0.00000000000E+00  0.59130540067E+03  0.59130540067E+03  0.00000000000E+00 0.  1.
          1   -1    0    0  501    0  0.00000000000E+00 -0.00000000000E+00 -0.37182887829E+03  0.37182887829E+03  0.00000000000E+00 0. -1.
         24    1    1    2    0    0 -0.54117472361E+02  0.25464634672E+03  0.50165648797E+03  0.57087644074E+03  0.80419002446E+02 0.  1.
        -24    1    1    2    0    0  0.54117472361E+02 -0.25464634672E+03 -0.28217996559E+03  0.39225783822E+03  0.80419002446E+02 0. -1.
<mgrwt>
<rscale>  0 0.27247143E+03</rscale>
<asrwt>0</asrwt>
<pdfrwt beam="1">  1        1 0.57204443E-01 0.27247143E+03</pdfrwt>
<pdfrwt beam="2">  1       -1 0.90970061E-01 0.27247143E+03</pdfrwt>
<totfact> 0.83594840E+01</totfact>
</mgrwt>
</event>
<event>
 4    3  0.9203887E-001  0.8118087E+02  0.7546771E-02  0.1325733E+00
          2   -1    0    0  501    0  0.00000000000E+00  0.00000000000E+00  0.11690039397E+04  0.11690039397E+04  0.00000000000E+00 0. -1.
         -2   -1    0    0    0  501 -0.00000000000E+00 -0.00000000000E+00 -0.49710563981E+02  0.49710563981E+02  0.00000000000E+00 0.  1.
         24    1    1    2    0    0 -0.10927929779E+02 -0.19228598570E+01  0.11334115549E+04  0.11363151349E+04  0.80419002446E+02 0. -1.
        -24    1    1    2    0    0  0.10927929779E+02  0.19228598570E+01 -0.14118179184E+02  0.82399368791E+02  0.80419002446E+02 0.  1.
<mgrwt>
<rscale>  0 0.81180866E+02</rscale>
<asrwt>0</asrwt>
<pdfrwt beam="1">  1        2 0.17984674E+00 0.81180866E+02</pdfrwt>
<pdfrwt beam="2">  1       -2 0.76477799E-02 0.81180866E+02</pdfrwt>
<totfact> 0.20858662E+03</totfact>
</mgrwt>
</event>
<event>
 4    3  0.9203887E-001  0.1359894E+03  0.7546771E-02  0.1218830E+00
         -1   -1    0    0    0  501 -0.00000000000E+00  0.00000000000E+00  0.71539194460E+03  0.71539194460E+03  0.00000000000E+00 0.  1.
          1   -1    0    0  501    0  0.00000000000E+00 -0.00000000000E+00 -0.56706215728E+02  0.56706215728E+02  0.00000000000E+00 0. -1.
         24    1    1    2    0    0 -0.14109023933E+02  0.10875130644E+03  0.61411409126E+03  0.62899065514E+03  0.80419002446E+02 0.  1.
        -24    1    1    2    0    0  0.14109023933E+02 -0.10875130644E+03  0.44571637616E+02  0.14310750520E+03  0.80419002446E+02 0. -1.
<mgrwt>
<rscale>  0 0.13598944E+03</rscale>
<asrwt>0</asrwt>
<pdfrwt beam="1">  1        1 0.87240337E-02 0.13598944E+03</pdfrwt>
<pdfrwt beam="2">  1       -1 0.11006029E+00 0.13598944E+03</pdfrwt>
<totfact> 0.62168719E+02</totfact>
</mgrwt>
</event>
<event>
 4    3  0.9203887E-001  0.9940659E+02  0.7546771E-02  0.1281549E+00
         -2   -1    0    0    0  501 -0.00000000000E+00  0.00000000000E+00  0.83022316558E+01  0.83022316558E+01  0.00000000000E+00 0.  1.
          2   -1    0    0  501    0  0.00000000000E+00 -0.00000000000E+00 -0.14036353123E+04  0.14036353123E+04  0.00000000000E+00 0. -1.
         24    1    1    2    0    0  0.28781190828E+02  0.50853680049E+02 -0.97292974019E+03  0.97799486145E+03  0.80419002446E+02 0. -1.
        -24    1    1    2    0    0 -0.28781190828E+02 -0.50853680049E+02 -0.42240334045E+03  0.43394268250E+03  0.80419002446E+02 0.  1.
<mgrwt>
<rscale>  0 0.99406588E+02</rscale>
<asrwt>0</asrwt>
<pdfrwt beam="1">  1        2 0.21594363E+00 0.99406588E+02</pdfrwt>
<pdfrwt beam="2">  1       -2 0.12772679E-02 0.99406588E+02</pdfrwt>
<totfact> 0.21596947E+04</totfact>
</mgrwt>
</event>
<event>
 4    3  0.9203887E-001  0.1029761E+03  0.7546771E-02  0.1274159E+00
          1   -1    0    0  501    0  0.00000000000E+00  0.00000000000E+00  0.10938008612E+04  0.10938008612E+04  0.00000000000E+00 0. -1.
         -1   -1    0    0    0  501 -0.00000000000E+00 -0.00000000000E+00 -0.13218961137E+02  0.13218961137E+02  0.00000000000E+00 0.  1.
         24    1    1    2    0    0 -0.26935189944E+02 -0.58406816003E+02  0.25449209968E+03  0.27453652829E+03  0.80419002446E+02 0.  1.
        -24    1    1    2    0    0  0.26935189944E+02  0.58406816003E+02  0.82608980035E+03  0.83248329401E+03  0.80419002446E+02 0. -1.
<mgrwt>
<rscale>  0 0.10297610E+03</rscale>
<asrwt>0</asrwt>
<pdfrwt beam="1">  1        1 0.16827698E+00 0.10297610E+03</pdfrwt>
<pdfrwt beam="2">  1       -1 0.20336872E-02 0.10297610E+03</pdfrwt>
<totfact> 0.86973298E+03</totfact>
</mgrwt>
</event>
<event>
 4    3  0.9203887E-001  0.8332662E+02  0.7546771E-02  0.1319868E+00
         -1   -1    0    0    0  501 -0.00000000000E+00  0.00000000000E+00  0.10895315334E+03  0.10895315334E+03  0.00000000000E+00 0.  1.
          1   -1    0    0  501    0  0.00000000000E+00 -0.00000000000E+00 -0.20886619346E+03  0.20886619346E+03  0.00000000000E+00 0. -1.
         24    1    1    2    0    0 -0.39179998408E+01 -0.21465290120E+02  0.82510474004E+02  0.11726595276E+03  0.80419002446E+02 0.  1.
        -24    1    1    2    0    0  0.39179998408E+01  0.21465290120E+02 -0.18242351412E+03  0.20055339404E+03  0.80419002446E+02 0. -1.
<mgrwt>
<rscale>  0 0.83326619E+02</rscale>
<asrwt>0</asrwt>
<pdfrwt beam="1">  1        1 0.32133260E-01 0.83326619E+02</pdfrwt>
<pdfrwt beam="2">  1       -1 0.16762024E-01 0.83326619E+02</pdfrwt>
<totfact> 0.34962986E+03</totfact>
</mgrwt>
</event>
<event>
 4    3  0.9203887E-001  0.9010942E+02  0.7546771E-02  0.1302587E+00
         -2   -1    0    0    0  501 -0.00000000000E+00  0.00000000000E+00  0.10876861749E+02  0.10876861749E+02  0.00000000000E+00 0.  1.
          2   -1    0    0  501    0  0.00000000000E+00 -0.00000000000E+00 -0.88783610453E+03  0.88783610453E+03  0.00000000000E+00 0. -1.
         24    1    1    2    0    0  0.26749072764E+02 -0.30610110809E+02 -0.61775999322E+03  0.62429729853E+03  0.80419002446E+02 0. -1.
        -24    1    1    2    0    0 -0.26749072764E+02  0.30610110809E+02 -0.25919924956E+03  0.27441566774E+03  0.80419002446E+02 0.  1.
<mgrwt>
<rscale>  0 0.90109421E+02</rscale>
<asrwt>0</asrwt>
<pdfrwt beam="1">  1        2 0.13659021E+00 0.90109421E+02</pdfrwt>
<pdfrwt beam="2">  1       -2 0.16733628E-02 0.90109421E+02</pdfrwt>
<totfact> 0.28309369E+04</totfact>
</mgrwt>
</event>
<event>
 4    3  0.9203887E-001  0.9072726E+02  0.7546771E-02  0.1301100E+00
          1   -1    0    0  501    0  0.00000000000E+00  0.00000000000E+00  0.36621547976E+04  0.36621547976E+04  0.00000000000E+00 0. -1.
         -1   -1    0    0    0  501 -0.00000000000E+00 -0.00000000000E+00 -0.23105251104E+01  0.23105251104E+01  0.00000000000E+00 0.  1.
         24    1    1    2    0    0 -0.40060712679E+02  0.12623740565E+02  0.15278001495E+04  0.15304916635E+04  0.80419002446E+02 0.  0.
        -24    1    1    2    0    0  0.40060712679E+02 -0.12623740565E+02  0.21320441231E+04  0.21339736592E+04  0.80419002446E+02 0. -1.
<mgrwt>
<rscale>  0 0.90727259E+02</rscale>
<asrwt>0</asrwt>
<pdfrwt beam="1">  1        1 0.56340379E+00 0.90727259E+02</pdfrwt>
<pdfrwt beam="2">  1       -1 0.35546833E-03 0.90727259E+02</pdfrwt>
<totfact> 0.19936741E+03</totfact>
</mgrwt>
</event>
<event>
 4    3  0.9203887E-001  0.8232535E+02  0.7546771E-02  0.1322579E+00
         -1   -1    0    0    0  501 -0.00000000000E+00  0.00000000000E+00  0.14418048671E+03  0.14418048671E+03  0.00000000000E+00 0.  1.
          1   -1    0    0  501    0  0.00000000000E+00 -0.00000000000E+00 -0.95555515032E+02  0.95555515032E+02  0.00000000000E+00 0. -1.
         24    1    1    2    0    0  0.12756613738E+01  0.17567595900E+02  0.10975307636E+03  0.13719767295E+03  0.80419002446E+02 0.  1.
        -24    1    1    2    0    0 -0.12756613738E+01 -0.17567595900E+02 -0.61128104675E+02  0.10253832880E+03  0.80419002446E+02 0.  0.
<mgrwt>
<rscale>  0 0.82325353E+02</rscale>
<asrwt>0</asrwt>
<pdfrwt beam="1">  1        1 0.14700848E-01 0.82325353E+02</pdfrwt>
<pdfrwt beam="2">  1       -1 0.22181613E-01 0.82325353E+02</pdfrwt>
<totfact> 0.59486239E+03</totfact>
</mgrwt>
</event>
<event>
 4    3  0.9203887E-001  0.8587628E+02  0.7546771E-02  0.1313157E+00
          1   -1    0    0  501    0  0.00000000000E+00  0.00000000000E+00  0.17236046716E+04  0.17236046716E+04  0.00000000000E+00 0. -1.
         -1   -1    0    0    0  501 -0.00000000000E+00 -0.00000000000E+00 -0.18958786944E+02  0.18958786944E+02  0.00000000000E+00 0.  1.
         24    1    1    2    0    0  0.21174407989E+02 -0.21428128548E+02  0.85635965199E+02  0.12127759371E+03  0.80419002446E+02 0.  1.
        -24    1    1    2    0    0 -0.21174407989E+02  0.21428128548E+02  0.16190099195E+04  0.16212858649E+04  0.80419002446E+02 0. -1.
<mgrwt>
<rscale>  0 0.85876284E+02</rscale>
<asrwt>0</asrwt>
<pdfrwt beam="1">  1        1 0.26516983E+00 0.85876284E+02</pdfrwt>
<pdfrwt beam="2">  1       -1 0.29167378E-02 0.85876284E+02</pdfrwt>
<totfact> 0.20026107E+03</totfact>
</mgrwt>
</event>
<event>
 4    3  0.9203887E-001  0.1187748E+03  0.7546771E-02  0.1245132E+00
          2   -1    0    0  501    0  0.00000000000E+00  0.00000000000E+00  0.13864445487E+04  0.13864445487E+04  0.00000000000E+00 0. -1.
         -2   -1    0    0    0  501 -0.00000000000E+00 -0.00000000000E+00 -0.10454660635E+02  0.10454660635E+02  0.00000000000E+00 0.  1.
         24    1    1    2    0    0  0.38775617763E+02  0.78336966644E+02  0.80217430121E+03  0.81091988159E+03  0.80419002446E+02 0. -1.
        -24    1    1    2    0    0 -0.38775617763E+02 -0.78336966644E+02  0.57381558684E+03  0.58597932773E+03  0.80419002446E+02 0.  1.
<mgrwt>
<rscale>  0 0.11877477E+03</rscale>
<asrwt>0</asrwt>
<pdfrwt beam="1">  1        2 0.21329902E+00 0.11877477E+03</pdfrwt>
<pdfrwt beam="2">  1       -2 0.16084104E-02 0.11877477E+03</pdfrwt>
<totfact> 0.16039587E+04</totfact>
</mgrwt>
</event>
<event>
 4    3  0.9203887E-001  0.8498845E+02  0.7546771E-02  0.1315463E+00
          2   -1    0    0  501    0  0.00000000000E+00  0.00000000000E+00  0.19047778120E+02  0.19047778120E+02  0.00000000000E+00 0. -1.
         -2   -1    0    0    0  501 -0.00000000000E+00 -0.00000000000E+00 -0.60874967191E+03  0.60874967191E+03  0.00000000000E+00 0.  1.
         24    1    1    2    0    0 -0.75243991760E+01 -0.26442458853E+02 -0.10209729074E+03  0.13284160848E+03  0.80419002446E+02 0. -1.
        -24    1    1    2    0    0  0.75243991760E+01  0.26442458853E+02 -0.48760460305E+03  0.49495584155E+03  0.80419002446E+02 0.  1.
<mgrwt>
<rscale>  0 0.84988447E+02</rscale>
<asrwt>0</asrwt>
<pdfrwt beam="1">  1        2 0.29304277E-02 0.84988447E+02</pdfrwt>
<pdfrwt beam="2">  1       -2 0.93653787E-01 0.84988447E+02</pdfrwt>
<totfact> 0.29575727E+03</totfact>
</mgrwt>
</event>
<event>
 4    3  0.9203887E-001  0.8085624E+02  0.7546771E-02  0.1326639E+00
          2   -1    0    0  501    0  0.00000000000E+00  0.00000000000E+00  0.38721675139E+02  0.38721675139E+02  0.00000000000E+00 0. -1.
         -2   -1    0    0    0  501 -0.00000000000E+00 -0.00000000000E+00 -0.18847082446E+03  0.18847082446E+03  0.00000000000E+00 0.  1.
         24    1    1    2    0    0  0.62967686846E+01 -0.55557159552E+01 -0.38212115107E+02  0.89430962038E+02  0.80419002446E+02 0. -1.
        -24    1    1    2    0    0 -0.62967686846E+01  0.55557159552E+01 -0.11153703421E+03  0.13776153756E+03  0.80419002446E+02 0.  1.
<mgrwt>
<rscale>  0 0.80856238E+02</rscale>
<asrwt>0</asrwt>
<pdfrwt beam="1">  1        2 0.59571808E-02 0.80856238E+02</pdfrwt>
<pdfrwt beam="2">  1       -2 0.28995511E-01 0.80856238E+02</pdfrwt>
<totfact> 0.12002879E+04</totfact>
</mgrwt>
</event>
<event>
 4    3  0.9203887E-001  0.9112598E+02  0.7546771E-02  0.1300148E+00
          1   -1    0    0  501    0  0.00000000000E+00  0.00000000000E+00  0.93078072521E+01  0.93078072521E+01  0.00000000000E+00 0. -1.
         -1   -1    0    0    0  501 -0.00000000000E+00 -0.00000000000E+00 -0.89231100956E+03  0.89231100956E+03  0.00000000000E+00 0.  1.
         24    1    1    2    0    0  0.21205418625E+02  0.37243236860E+02 -0.44758911769E+03  0.45677123672E+03  0.80419002446E+02 0.  0.
        -24    1    1    2    0    0 -0.21205418625E+02 -0.37243236860E+02 -0.43541408462E+03  0.44484758009E+03  0.80419002446E+02 0. -1.
<mgrwt>
<rscale>  0 0.91125981E+02</rscale>
<asrwt>0</asrwt>
<pdfrwt beam="1">  1        1 0.14319698E-02 0.91125981E+02</pdfrwt>
<pdfrwt beam="2">  1       -1 0.13727867E+00 0.91125981E+02</pdfrwt>
<totfact> 0.42846424E+03</totfact>
</mgrwt>
</event>
<event>
 4    3  0.9203887E-001  0.8378685E+02  0.7546771E-02  0.1318636E+00
          1   -1    0    0  501    0  0.00000000000E+00  0.00000000000E+00  0.14098875226E+02  0.14098875226E+02  0.00000000000E+00 0. -1.
         -1   -1    0    0    0  501 -0.00000000000E+00 -0.00000000000E+00 -0.72063724028E+03  0.72063724028E+03  0.00000000000E+00 0.  1.
         24    1    1    2    0    0 -0.88023924744E+01 -0.21806824430E+02 -0.55749535819E+03  0.56375642795E+03  0.80419002446E+02 0.  1.
        -24    1    1    2    0    0  0.88023924744E+01  0.21806824430E+02 -0.14904300687E+03  0.17097968755E+03  0.80419002446E+02 0.  0.
<mgrwt>
<rscale>  0 0.83786847E+02</rscale>
<asrwt>0</asrwt>
<pdfrwt beam="1">  1        1 0.21690576E-02 0.83786847E+02</pdfrwt>
<pdfrwt beam="2">  1       -1 0.11086727E+00 0.83786847E+02</pdfrwt>
<totfact> 0.39676948E+03</totfact>
</mgrwt>
</event>
<event>
 4    3  0.9203887E-001  0.8510886E+02  0.7546771E-02  0.1315148E+00
         -2   -1    0    0    0  501 -0.00000000000E+00  0.00000000000E+00  0.79718048823E+02  0.79718048823E+02  0.00000000000E+00 0.  1.
          2   -1    0    0  501    0  0.00000000000E+00 -0.00000000000E+00 -0.32176084923E+03  0.32176084923E+03  0.00000000000E+00 0. -1.
         24    1    1    2    0    0  0.21501584966E+02  0.17719572962E+02 -0.29107073433E+03  0.30325845373E+03  0.80419002446E+02 0. -1.
        -24    1    1    2    0    0 -0.21501584966E+02 -0.17719572962E+02  0.49027933929E+02  0.98220444316E+02  0.80419002446E+02 0.  1.
<mgrwt>
<rscale>  0 0.85108856E+02</rscale>
<asrwt>0</asrwt>
<pdfrwt beam="1">  1        2 0.49501669E-01 0.85108856E+02</pdfrwt>
<pdfrwt beam="2">  1       -2 0.12264315E-01 0.85108856E+02</pdfrwt>
<totfact> 0.45154369E+03</totfact>
</mgrwt>
</event>
<event>
 4    3  0.9203887E-001  0.1362057E+03  0.7546771E-02  0.1218528E+00
         -2   -1    0    0    0  501 -0.00000000000E+00  0.00000000000E+00  0.64701318524E+02  0.64701318524E+02  0.00000000000E+00 0.  1.
          2   -1    0    0  501    0  0.00000000000E+00 -0.00000000000E+00 -0.28789727857E+03  0.28789727857E+03  0.00000000000E+00 0. -1.
         24    1    1    2    0    0 -0.36810433347E+02  0.10358457935E+03 -0.12281044189E+03  0.18339682024E+03  0.80419002446E+02 0.  1.
        -24    1    1    2    0    0  0.36810433347E+02 -0.10358457935E+03 -0.10038551815E+03  0.16920177685E+03  0.80419002446E+02 0.  0.
<mgrwt>
<rscale>  0 0.13620569E+03</rscale>
<asrwt>0</asrwt>
<pdfrwt beam="1">  1        2 0.44291889E-01 0.13620569E+03</pdfrwt>
<pdfrwt beam="2">  1       -2 0.99540490E-02 0.13620569E+03</pdfrwt>
<totfact> 0.72755545E+03</totfact>
</mgrwt>
</event>
<event>
 4    3  0.9203887E-001  0.8534470E+02  0.7546771E-02  0.1314534E+00
         -2   -1    0    0    0  501 -0.00000000000E+00  0.00000000000E+00  0.23289317323E+02  0.23289317323E+02  0.00000000000E+00 0.  1.
          2   -1    0    0  501    0  0.00000000000E+00 -0.00000000000E+00 -0.69980399832E+03  0.69980399832E+03  0.00000000000E+00 0. -1.
         24    1    1    2    0    0  0.13197706977E+02 -0.25344071479E+02 -0.60713970629E+03  0.61310875083E+03  0.80419002446E+02 0.  0.
        -24    1    1    2    0    0 -0.13197706977E+02  0.25344071479E+02 -0.69374974709E+02  0.10998456482E+03  0.80419002446E+02 0.  1.
<mgrwt>
<rscale>  0 0.85344697E+02</rscale>
<asrwt>0</asrwt>
<pdfrwt beam="1">  1        2 0.10766214E+00 0.85344697E+02</pdfrwt>
<pdfrwt beam="2">  1       -2 0.35829722E-02 0.85344697E+02</pdfrwt>
<totfact> 0.12529303E+04</totfact>
</mgrwt>
</event>
<event>
 4    3  0.9203887E-001  0.8330869E+02  0.7546771E-02  0.1319916E+00
         -2   -1    0    0    0  501 -0.00000000000E+00  0.00000000000E+00  0.34626048610E+02  0.34626048610E+02  0.00000000000E+00 0.  1.
          2   -1    0    0  501    0  0.00000000000E+00 -0.00000000000E+00 -0.22511300292E+03  0.22511300292E+03  0.00000000000E+00 0. -1.
         24    1    1    2    0    0  0.70143666903E+01  0.20589332879E+02 -0.13824117763E+03  0.16140310132E+03  0.80419002446E+02 0. -1.
        -24    1    1    2    0    0 -0.70143666903E+01 -0.20589332879E+02 -0.52245776679E+02  0.98335950210E+02  0.80419002446E+02 0.  1.
<mgrwt>
<rscale>  0 0.83308691E+02</rscale>
<asrwt>0</asrwt>
<pdfrwt beam="1">  1        2 0.34632771E-01 0.83308691E+02</pdfrwt>
<pdfrwt beam="2">  1       -2 0.53270842E-02 0.83308691E+02</pdfrwt>
<totfact> 0.23430687E+04</totfact>
</mgrwt>
</event>
<event>
 4    3  0.9203887E-001  0.9091312E+02  0.7546771E-02  0.1300655E+00
          2   -1    0    0  501    0  0.00000000000E+00  0.00000000000E+00  0.21364236529E+04  0.21364236529E+04  0.00000000000E+00 0. -1.
         -2   -1    0    0    0  501 -0.00000000000E+00 -0.00000000000E+00 -0.11530577552E+02  0.11530577552E+02  0.00000000000E+00 0.  1.
         24    1    1    2    0    0 -0.39071423535E+02 -0.16474346939E+02  0.19379077604E+04  0.19400390934E+04  0.80419002446E+02 0. -1.
        -24    1    1    2    0    0  0.39071423535E+02  0.16474346939E+02  0.18698531495E+03  0.20791513703E+03  0.80419002446E+02 0.  1.
<mgrwt>
<rscale>  0 0.90913124E+02</rscale>
<asrwt>0</asrwt>
<pdfrwt beam="1">  1        2 0.32868025E+00 0.90913124E+02</pdfrwt>
<pdfrwt beam="2">  1       -2 0.17739367E-02 0.90913124E+02</pdfrwt>
<totfact> 0.57255569E+03</totfact>
</mgrwt>
</event>
<event>
 4    3  0.9203887E-001  0.8193925E+02  0.7546771E-02  0.1323637E+00
          2   -1    0    0  501    0  0.00000000000E+00  0.00000000000E+00  0.37485053238E+03  0.37485053238E+03  0.00000000000E+00 0. -1.
         -2   -1    0    0    0  501 -0.00000000000E+00 -0.00000000000E+00 -0.23045165665E+02  0.23045165665E+02  0.00000000000E+00 0.  1.
         24    1    1    2    0    0  0.97173183456E+01  0.12344862524E+02  0.82000840056E+02  0.11592314536E+03  0.80419002446E+02 0.  0.
        -24    1    1    2    0    0 -0.97173183456E+01 -0.12344862524E+02  0.26980452666E+03  0.28197255269E+03  0.80419002446E+02 0. -1.
<mgrwt>
<rscale>  0 0.81939243E+02</rscale>
<asrwt>0</asrwt>
<pdfrwt beam="1">  1        2 0.57669308E-01 0.81939253E+02</pdfrwt>
<pdfrwt beam="2">  1       -2 0.35454104E-02 0.81939253E+02</pdfrwt>
<totfact> 0.24999836E+04</totfact>
</mgrwt>
</event>
<event>
 4    3  0.9203887E-001  0.9953311E+02  0.7546771E-02  0.1281281E+00
          2   -1    0    0  501    0  0.00000000000E+00  0.00000000000E+00  0.26196045174E+03  0.26196045174E+03  0.00000000000E+00 0. -1.
         -2   -1    0    0    0  501 -0.00000000000E+00 -0.00000000000E+00 -0.49609374678E+02  0.49609374678E+02  0.00000000000E+00 0.  1.
         24    1    1    2    0    0 -0.56401619736E+02 -0.16077354348E+02  0.18212494086E+03  0.20754838971E+03  0.80419002446E+02 0. -1.
        -24    1    1    2    0    0  0.56401619736E+02  0.16077354348E+02  0.30226136201E+02  0.10402143671E+03  0.80419002446E+02 0.  1.
<mgrwt>
<rscale>  0 0.99533110E+02</rscale>
<asrwt>0</asrwt>
<pdfrwt beam="1">  1        2 0.40301607E-01 0.99533110E+02</pdfrwt>
<pdfrwt beam="2">  1       -2 0.76322116E-02 0.99533110E+02</pdfrwt>
<totfact> 0.11833581E+04</totfact>
</mgrwt>
</event>
<event>
 4    3  0.9203887E-001  0.8267536E+02  0.7546771E-02  0.1321626E+00
          2   -1    0    0  501    0  0.00000000000E+00  0.00000000000E+00  0.15295591524E+04  0.15295591524E+04  0.00000000000E+00 0. -1.
         -2   -1    0    0    0  501 -0.00000000000E+00 -0.00000000000E+00 -0.50588034438E+01  0.50588034438E+01  0.00000000000E+00 0.  1.
         24    1    1    2    0    0  0.10469602473E+02 -0.16074422990E+02  0.10243052035E+04  0.10276363002E+04  0.80419002446E+02 0.  0.
        -24    1    1    2    0    0 -0.10469602473E+02  0.16074422990E+02  0.50019514544E+03  0.50698165561E+03  0.80419002446E+02 0.  0.
<mgrwt>
<rscale>  0 0.82675363E+02</rscale>
<asrwt>0</asrwt>
<pdfrwt beam="1">  1        2 0.23531642E+00 0.82675363E+02</pdfrwt>
<pdfrwt beam="2">  1       -2 0.77827867E-03 0.82675363E+02</pdfrwt>
<totfact> 0.36957219E+04</totfact>
</mgrwt>
</event>
<event>
 4    3  0.9203887E-001  0.1414486E+03  0.7546771E-02  0.1211393E+00
          2   -1    0    0  501    0  0.00000000000E+00  0.00000000000E+00  0.88903159050E+02  0.88903159050E+02  0.00000000000E+00 0. -1.
         -2   -1    0    0    0  501 -0.00000000000E+00 -0.00000000000E+00 -0.25474594571E+03  0.25474594571E+03  0.00000000000E+00 0.  1.
         24    1    1    2    0    0  0.57161608661E+01 -0.11622311895E+03 -0.24256778654E+02  0.14351339707E+03  0.80419002446E+02 0. -1.
        -24    1    1    2    0    0 -0.57161608661E+01  0.11622311895E+03 -0.14158600801E+03  0.20013570769E+03  0.80419002446E+02 0.  1.
<mgrwt>
<rscale>  0 0.14144859E+03</rscale>
<asrwt>0</asrwt>
<pdfrwt beam="1">  1        2 0.13677409E-01 0.14144859E+03</pdfrwt>
<pdfrwt beam="2">  1       -2 0.39191684E-01 0.14144859E+03</pdfrwt>
<totfact> 0.26073729E+03</totfact>
</mgrwt>
</event>
<event>
 4    3  0.9203887E-001  0.8230202E+02  0.7546771E-02  0.1322643E+00
          2   -1    0    0  501    0  0.00000000000E+00  0.00000000000E+00  0.76635604734E+03  0.76635604734E+03  0.00000000000E+00 0. -1.
         -2   -1    0    0    0  501 -0.00000000000E+00 -0.00000000000E+00 -0.15478268717E+03  0.15478268717E+03  0.00000000000E+00 0.  1.
         24    1    1    2    0    0  0.63443929059E+01  0.16314253202E+02  0.75301253376E+03  0.75749686345E+03  0.80419002446E+02 0. -1.
        -24    1    1    2    0    0 -0.63443929059E+01 -0.16314253202E+02 -0.14143917360E+03  0.16364187105E+03  0.80419002446E+02 0.  1.
<mgrwt>
<rscale>  0 0.82302018E+02</rscale>
<asrwt>0</asrwt>
<pdfrwt beam="1">  1        2 0.11790093E+00 0.82302018E+02</pdfrwt>
<pdfrwt beam="2">  1       -2 0.23812722E-01 0.82302018E+02</pdfrwt>
<totfact> 0.58920832E+02</totfact>
</mgrwt>
</event>
<event>
 4    3  0.9203887E-001  0.8374642E+02  0.7546771E-02  0.1318744E+00
          2   -1    0    0  501    0  0.00000000000E+00  0.00000000000E+00  0.28661110427E+04  0.28661110427E+04  0.00000000000E+00 0. -1.
         -2   -1    0    0    0  501 -0.00000000000E+00 -0.00000000000E+00 -0.45169446360E+01  0.45169446360E+01  0.00000000000E+00 0.  1.
         24    1    1    2    0    0 -0.20299866064E+02 -0.11582815346E+02  0.24024264869E+04  0.24038857059E+04  0.80419002446E+02 0.  0.
        -24    1    1    2    0    0  0.20299866064E+02  0.11582815346E+02  0.45916761122E+03  0.46674228148E+03  0.80419002446E+02 0.  0.
<mgrwt>
<rscale>  0 0.83746416E+02</rscale>
<asrwt>0</asrwt>
<pdfrwt beam="1">  1        2 0.44093871E+00 0.83746416E+02</pdfrwt>
<pdfrwt beam="2">  1       -2 0.69491685E-03 0.83746416E+02</pdfrwt>
<totfact> 0.89124686E+03</totfact>
</mgrwt>
</event>
<event>
 4    3  0.9203887E-001  0.8141150E+02  0.7546771E-02  0.1325093E+00
         -1   -1    0    0    0  501 -0.00000000000E+00  0.00000000000E+00  0.10847301102E+02  0.10847301102E+02  0.00000000000E+00 0.  1.
          1   -1    0    0  501    0  0.00000000000E+00 -0.00000000000E+00 -0.64366861428E+03  0.64366861428E+03  0.00000000000E+00 0. -1.
         24    1    1    2    0    0 -0.12508137647E+02  0.20402472003E+01 -0.24269766152E+03  0.25598825554E+03  0.80419002446E+02 0.  1.
        -24    1    1    2    0    0  0.12508137647E+02 -0.20402472003E+01 -0.39012365166E+03  0.39852765984E+03  0.80419002446E+02 0. -1.
<mgrwt>
<rscale>  0 0.81411498E+02</rscale>
<asrwt>0</asrwt>
<pdfrwt beam="1">  1        1 0.99025959E-01 0.81411498E+02</pdfrwt>
<pdfrwt beam="2">  1       -1 0.16688152E-02 0.81411498E+02</pdfrwt>
<totfact> 0.25435755E+04</totfact>
</mgrwt>
</event>
<event>
 4    3  0.9203887E-001  0.8156417E+02  0.7546771E-02  0.1324670E+00
         -2   -1    0    0    0  501 -0.00000000000E+00  0.00000000000E+00  0.83266669205E+02  0.83266669205E+02  0.00000000000E+00 0.  1.
          2   -1    0    0  501    0  0.00000000000E+00 -0.00000000000E+00 -0.10769801305E+03  0.10769801305E+03  0.00000000000E+00 0. -1.
         24    1    1    2    0    0 -0.13598953159E+02  0.75267579259E+00 -0.60728161690E+02  0.10168885693E+03  0.80419002446E+02 0.  0.
        -24    1    1    2    0    0  0.13598953159E+02 -0.75267579259E+00  0.36296817840E+02  0.89275825326E+02  0.80419002446E+02 0.  1.
<mgrwt>
<rscale>  0 0.81564171E+02</rscale>
<asrwt>0</asrwt>
<pdfrwt beam="1">  1        2 0.16568925E-01 0.81564171E+02</pdfrwt>
<pdfrwt beam="2">  1       -2 0.12810257E-01 0.81564171E+02</pdfrwt>
<totfact> 0.13653669E+04</totfact>
</mgrwt>
</event>
<event>
 4    3  0.9203887E-001  0.1026062E+03  0.7546771E-02  0.1274909E+00
         -1   -1    0    0    0  501 -0.00000000000E+00  0.00000000000E+00  0.30751341409E+03  0.30751341409E+03  0.00000000000E+00 0.  1.
          1   -1    0    0  501    0  0.00000000000E+00 -0.00000000000E+00 -0.66437490451E+02  0.66437490451E+02  0.00000000000E+00 0. -1.
         24    1    1    2    0    0  0.15328509207E+02  0.61853447531E+02  0.25070948722E+03  0.27089347557E+03  0.80419002446E+02 0.  1.
        -24    1    1    2    0    0 -0.15328509207E+02 -0.61853447531E+02 -0.96335635806E+01  0.10305742898E+03  0.80419002446E+02 0. -1.
<mgrwt>
<rscale>  0 0.10260618E+03</rscale>
<asrwt>0</asrwt>
<pdfrwt beam="1">  1        1 0.10221153E-01 0.10260618E+03</pdfrwt>
<pdfrwt beam="2">  1       -1 0.47309755E-01 0.10260618E+03</pdfrwt>
<totfact> 0.26983412E+03</totfact>
</mgrwt>
</event>
<event>
 4    3  0.9203887E-001  0.9588162E+02  0.7546771E-02  0.1289203E+00
         -1   -1    0    0    0  501 -0.00000000000E+00  0.00000000000E+00  0.13088108163E+04  0.13088108163E+04  0.00000000000E+00 0.  1.
          1   -1    0    0  501    0  0.00000000000E+00 -0.00000000000E+00 -0.12019847507E+02  0.12019847507E+02  0.00000000000E+00 0. -1.
         24    1    1    2    0    0 -0.45909441196E+02 -0.24867480689E+02  0.10741563173E+04  0.10784271317E+04  0.80419002446E+02 0.  0.
        -24    1    1    2    0    0  0.45909441196E+02  0.24867480689E+02  0.22263465141E+03  0.24240353205E+03  0.80419002446E+02 0.  0.
<mgrwt>
<rscale>  0 0.95881616E+02</rscale>
<asrwt>0</asrwt>
<pdfrwt beam="1">  1        1 0.18492083E-02 0.95881616E+02</pdfrwt>
<pdfrwt beam="2">  1       -1 0.20135540E+00 0.95881616E+02</pdfrwt>
<totfact> 0.10678117E+03</totfact>
</mgrwt>
</event>
<event>
 4    3  0.9203887E-001  0.1184668E+03  0.7546771E-02  0.1245648E+00
         -1   -1    0    0    0  501 -0.00000000000E+00  0.00000000000E+00  0.19138609334E+02  0.19138609334E+02  0.00000000000E+00 0.  1.
          1   -1    0    0  501    0  0.00000000000E+00 -0.00000000000E+00 -0.88146592386E+03  0.88146592386E+03  0.00000000000E+00 0. -1.
         24    1    1    2    0    0 -0.47383525710E+02 -0.72951761655E+02 -0.24654605632E+03  0.27353122651E+03  0.80419002446E+02 0.  1.
        -24    1    1    2    0    0  0.47383525710E+02  0.72951761655E+02 -0.61578125820E+03  0.62707330668E+03  0.80419002446E+02 0. -1.
<mgrwt>
<rscale>  0 0.11846676E+03</rscale>
<asrwt>0</asrwt>
<pdfrwt beam="1">  1        1 0.13561015E+00 0.11846676E+03</pdfrwt>
<pdfrwt beam="2">  1       -1 0.29444012E-02 0.11846676E+03</pdfrwt>
<totfact> 0.73556016E+03</totfact>
</mgrwt>
</event>
<event>
 4    3  0.9203887E-001  0.8085264E+02  0.7546771E-02  0.1326649E+00
         -1   -1    0    0    0  501 -0.00000000000E+00  0.00000000000E+00  0.54003032193E+03  0.54003032193E+03  0.00000000000E+00 0.  1.
          1   -1    0    0  501    0  0.00000000000E+00 -0.00000000000E+00 -0.12383303215E+02  0.12383303215E+02  0.00000000000E+00 0. -1.
         24    1    1    2    0    0 -0.66122256962E+01  0.51194919198E+01  0.22242733984E+03  0.23666657599E+03  0.80419002446E+02 0.  0.
        -24    1    1    2    0    0  0.66122256962E+01 -0.51194919198E+01  0.30521967887E+03  0.31574704916E+03  0.80419002446E+02 0.  0.
<mgrwt>
<rscale>  0 0.80852633E+02</rscale>
<asrwt>0</asrwt>
<pdfrwt beam="1">  1        1 0.19051240E-02 0.80852643E+02</pdfrwt>
<pdfrwt beam="2">  1       -1 0.83081570E-01 0.80852643E+02</pdfrwt>
<totfact> 0.87702866E+03</totfact>
</mgrwt>
</event>
<event>
 4    3  0.9203887E-001  0.9069041E+02  0.7546771E-02  0.1301188E+00
         -2   -1    0    0    0  501 -0.00000000000E+00  0.00000000000E+00  0.42535925407E+02  0.42535925407E+02  0.00000000000E+00 0.  1.
          2   -1    0    0  501    0  0.00000000000E+00 -0.00000000000E+00 -0.24570615689E+03  0.24570615689E+03  0.00000000000E+00 0. -1.
         24    1    1    2    0    0  0.15511952858E+02 -0.38947577356E+02 -0.16810651778E+03  0.19100929751E+03  0.80419002446E+02 0. -1.
        -24    1    1    2    0    0 -0.15511952858E+02  0.38947577356E+02 -0.35063713705E+02  0.97232784782E+02  0.80419002446E+02 0.  1.
<mgrwt>
<rscale>  0 0.90690410E+02</rscale>
<asrwt>0</asrwt>
<pdfrwt beam="1">  1        2 0.37800947E-01 0.90690410E+02</pdfrwt>
<pdfrwt beam="2">  1       -2 0.65439886E-02 0.90690410E+02</pdfrwt>
<totfact> 0.15847988E+04</totfact>
</mgrwt>
</event>
<event>
 4    3  0.9203887E-001  0.9645738E+02  0.7546771E-02  0.1287927E+00
          2   -1    0    0  501    0  0.00000000000E+00  0.00000000000E+00  0.36373300869E+03  0.36373300869E+03  0.00000000000E+00 0. -1.
         -2   -1    0    0    0  501 -0.00000000000E+00 -0.00000000000E+00 -0.62811475354E+02  0.62811475354E+02  0.00000000000E+00 0.  1.
         24    1    1    2    0    0 -0.41007186622E+01 -0.53103615283E+02  0.31466116351E+03  0.32911346619E+03  0.80419002446E+02 0. -1.
        -24    1    1    2    0    0  0.41007186622E+01  0.53103615283E+02 -0.13739630171E+02  0.97431017860E+02  0.80419002446E+02 0.  1.
<mgrwt>
<rscale>  0 0.96457378E+02</rscale>
<asrwt>0</asrwt>
<pdfrwt beam="1">  1        2 0.55958923E-01 0.96457378E+02</pdfrwt>
<pdfrwt beam="2">  1       -2 0.96633041E-02 0.96457378E+02</pdfrwt>
<totfact> 0.58182108E+03</totfact>
</mgrwt>
</event>
<event>
 4    3  0.9203887E-001  0.9841197E+02  0.7546771E-02  0.1283671E+00
         -2   -1    0    0    0  501 -0.00000000000E+00  0.00000000000E+00  0.53369248661E+02  0.53369248661E+02  0.00000000000E+00 0.  1.
          2   -1    0    0  501    0  0.00000000000E+00 -0.00000000000E+00 -0.62425584980E+03  0.62425584980E+03  0.00000000000E+00 0. -1.
         24    1    1    2    0    0 -0.93291910646E+01 -0.55952353374E+02 -0.57079145110E+03  0.57921308364E+03  0.80419002446E+02 0. -1.
        -24    1    1    2    0    0  0.93291910646E+01  0.55952353374E+02 -0.95150041046E-01  0.98412014825E+02  0.80419002446E+02 0.  1.
<mgrwt>
<rscale>  0 0.98411969E+02</rscale>
<asrwt>0</asrwt>
<pdfrwt beam="1">  1        2 0.96039355E-01 0.98411969E+02</pdfrwt>
<pdfrwt beam="2">  1       -2 0.82106542E-02 0.98411969E+02</pdfrwt>
<totfact> 0.41774387E+03</totfact>
</mgrwt>
</event>
<event>
 4    3  0.9203887E-001  0.9052735E+02  0.7546771E-02  0.1301580E+00
         -2   -1    0    0    0  501 -0.00000000000E+00  0.00000000000E+00  0.22061790451E+02  0.22061790451E+02  0.00000000000E+00 0. -1.
          2   -1    0    0  501    0  0.00000000000E+00 -0.00000000000E+00 -0.38700303604E+03  0.38700303604E+03  0.00000000000E+00 0.  1.
         24    1    1    2    0    0 -0.15732400439E+02 -0.38476904194E+02 -0.14148850108E+03  0.16797080839E+03  0.80419002446E+02 0.  0.
        -24    1    1    2    0    0  0.15732400439E+02  0.38476904194E+02 -0.22345274452E+03  0.24109401811E+03  0.80419002446E+02 0.  0.
<mgrwt>
<rscale>  0 0.90527336E+02</rscale>
<asrwt>0</asrwt>
<pdfrwt beam="1">  1        2 0.59538928E-01 0.90527347E+02</pdfrwt>
<pdfrwt beam="2">  1       -2 0.33941217E-02 0.90527347E+02</pdfrwt>
<totfact> 0.26057513E+04</totfact>
</mgrwt>
</event>
<event>
 4    3  0.9203887E-001  0.8179055E+02  0.7546771E-02  0.1324046E+00
         -1   -1    0    0    0  501 -0.00000000000E+00  0.00000000000E+00  0.44527581247E+02  0.44527581247E+02  0.00000000000E+00 0.  1.
          1   -1    0    0  501    0  0.00000000000E+00 -0.00000000000E+00 -0.71752924125E+03  0.71752924125E+03  0.00000000000E+00 0. -1.
         24    1    1    2    0    0 -0.57557963236E+01 -0.13760440057E+02  0.22972494509E+01  0.81822809847E+02  0.80419002446E+02 0.  1.
        -24    1    1    2    0    0  0.57557963236E+01  0.13760440057E+02 -0.67529890946E+03  0.68023401265E+03  0.80419002446E+02 0. -1.
<mgrwt>
<rscale>  0 0.81790555E+02</rscale>
<asrwt>0</asrwt>
<pdfrwt beam="1">  1        1 0.11038911E+00 0.81790555E+02</pdfrwt>
<pdfrwt beam="2">  1       -1 0.68503972E-02 0.81790555E+02</pdfrwt>
<totfact> 0.28530413E+03</totfact>
</mgrwt>
</event>
<event>
 4    3  0.9203887E-001  0.8212574E+02  0.7546771E-02  0.1323125E+00
          1   -1    0    0  501    0  0.00000000000E+00  0.00000000000E+00  0.22015753166E+04  0.22015753166E+04  0.00000000000E+00 0. -1.
         -1   -1    0    0    0  501 -0.00000000000E+00 -0.00000000000E+00 -0.10790875375E+02  0.10790875375E+02  0.00000000000E+00 0.  1.
         24    1    1    2    0    0  0.15642811104E+02  0.57204053565E+01  0.15931155988E+03  0.17923395226E+03  0.80419002446E+02 0.  1.
        -24    1    1    2    0    0 -0.15642811104E+02 -0.57204053565E+01  0.20314728814E+04  0.20331322397E+04  0.80419002446E+02 0. -1.
<mgrwt>
<rscale>  0 0.82125736E+02</rscale>
<asrwt>0</asrwt>
<pdfrwt beam="1">  1        1 0.33870354E+00 0.82125736E+02</pdfrwt>
<pdfrwt beam="2">  1       -1 0.16601364E-02 0.82125736E+02</pdfrwt>
<totfact> 0.22470115E+03</totfact>
</mgrwt>
</event>
<event>
 4    3  0.9203887E-001  0.8393490E+02  0.7546771E-02  0.1318242E+00
         -1   -1    0    0    0  501 -0.00000000000E+00  0.00000000000E+00  0.65891699951E+03  0.65891699951E+03  0.00000000000E+00 0.  1.
          1   -1    0    0  501    0  0.00000000000E+00 -0.00000000000E+00 -0.13628921951E+02  0.13628921951E+02  0.00000000000E+00 0. -1.
         24    1    1    2    0    0 -0.11390714730E+02  0.21168428689E+02  0.47874863292E+03  0.48605073833E+03  0.80419002446E+02 0.  0.
        -24    1    1    2    0    0  0.11390714730E+02 -0.21168428689E+02  0.16653944463E+03  0.18649518312E+03  0.80419002446E+02 0.  0.
<mgrwt>
<rscale>  0 0.83934896E+02</rscale>
<asrwt>0</asrwt>
<pdfrwt beam="1">  1        1 0.20967577E-02 0.83934896E+02</pdfrwt>
<pdfrwt beam="2">  1       -1 0.10137182E+00 0.83934896E+02</pdfrwt>
<totfact> 0.50711657E+03</totfact>
</mgrwt>
</event>
<event>
 4    3  0.9203887E-001  0.9924627E+02  0.7546771E-02  0.1281889E+00
         -2   -1    0    0    0  501 -0.00000000000E+00  0.00000000000E+00  0.28542276233E+02  0.28542276233E+02  0.00000000000E+00 0.  1.
          2   -1    0    0  501    0  0.00000000000E+00 -0.00000000000E+00 -0.45039442755E+03  0.45039442755E+03  0.00000000000E+00 0. -1.
         24    1    1    2    0    0  0.39478212758E+02 -0.42709218188E+02 -0.32671386609E+03  0.34145537462E+03  0.80419002446E+02 0. -1.
        -24    1    1    2    0    0 -0.39478212758E+02  0.42709218188E+02 -0.95138285227E+02  0.13748132917E+03  0.80419002446E+02 0.  1.
<mgrwt>
<rscale>  0 0.99246272E+02</rscale>
<asrwt>0</asrwt>
<pdfrwt beam="1">  1        2 0.69291449E-01 0.99246272E+02</pdfrwt>
<pdfrwt beam="2">  1       -2 0.43911195E-02 0.99246272E+02</pdfrwt>
<totfact> 0.15337121E+04</totfact>
</mgrwt>
</event>
<event>
 4    3  0.9203887E-001  0.8313348E+02  0.7546771E-02  0.1320387E+00
         -1   -1    0    0    0  501 -0.00000000000E+00  0.00000000000E+00  0.52101743477E+02  0.52101743477E+02  0.00000000000E+00 0.  1.
          1   -1    0    0  501    0  0.00000000000E+00 -0.00000000000E+00 -0.43917351565E+03  0.43917351565E+03  0.00000000000E+00 0. -1.
         24    1    1    2    0    0  0.14242799077E+02  0.15527451039E+02  0.11679715171E+02  0.83949930090E+02  0.80419002446E+02 0.  1.
        -24    1    1    2    0    0 -0.14242799077E+02 -0.15527451039E+02 -0.39875148735E+03  0.40732532904E+03  0.80419002446E+02 0.  0.
<mgrwt>
<rscale>  0 0.83133477E+02</rscale>
<asrwt>0</asrwt>
<pdfrwt beam="1">  1        1 0.67565158E-01 0.83133477E+02</pdfrwt>
<pdfrwt beam="2">  1       -1 0.80156526E-02 0.83133477E+02</pdfrwt>
<totfact> 0.43222102E+03</totfact>
</mgrwt>
</event>
<event>
 4    3  0.9203887E-001  0.8999539E+02  0.7546771E-02  0.1302863E+00
         -2   -1    0    0    0  501 -0.00000000000E+00  0.00000000000E+00  0.11690248663E+02  0.11690248663E+02  0.00000000000E+00 0.  1.
          2   -1    0    0  501    0  0.00000000000E+00 -0.00000000000E+00 -0.69286763888E+03  0.69286763888E+03  0.00000000000E+00 0. -1.
         24    1    1    2    0    0  0.35079487287E+02 -0.20034555054E+02 -0.34368371029E+03  0.35527125200E+03  0.80419002446E+02 0. -1.
        -24    1    1    2    0    0 -0.35079487287E+02  0.20034555054E+02 -0.33749367993E+03  0.34928663554E+03  0.80419002446E+02 0.  0.
<mgrwt>
<rscale>  0 0.89995388E+02</rscale>
<asrwt>0</asrwt>
<pdfrwt beam="1">  1        2 0.10659507E+00 0.89995388E+02</pdfrwt>
<pdfrwt beam="2">  1       -2 0.17984990E-02 0.89995388E+02</pdfrwt>
<totfact> 0.34498660E+04</totfact>
</mgrwt>
</event>
<event>
 4    3  0.9203887E-001  0.8536859E+02  0.7546771E-02  0.1314471E+00
          1   -1    0    0  501    0  0.00000000000E+00  0.00000000000E+00  0.28700200151E+02  0.28700200151E+02  0.00000000000E+00 0. -1.
         -1   -1    0    0    0  501 -0.00000000000E+00 -0.00000000000E+00 -0.25436322178E+03  0.25436322178E+03  0.00000000000E+00 0.  1.
         24    1    1    2    0    0  0.10086918617E+02 -0.26811017914E+02 -0.10697902505E+03  0.13686600879E+03  0.80419002446E+02 0.  1.
        -24    1    1    2    0    0 -0.10086918617E+02  0.26811017914E+02 -0.11868399658E+03  0.14619741313E+03  0.80419002446E+02 0. -1.
<mgrwt>
<rscale>  0 0.85368580E+02</rscale>
<asrwt>0</asrwt>
<pdfrwt beam="1">  1        1 0.44154154E-02 0.85368590E+02</pdfrwt>
<pdfrwt beam="2">  1       -1 0.39132803E-01 0.85368590E+02</pdfrwt>
<totfact> 0.11384917E+04</totfact>
</mgrwt>
</event>
<event>
 4    3  0.9203887E-001  0.8705619E+02  0.7546771E-02  0.1310141E+00
         -2   -1    0    0    0  501 -0.00000000000E+00  0.00000000000E+00  0.45597755346E+01  0.45597755346E+01  0.00000000000E+00 0.  1.
          2   -1    0    0  501    0  0.00000000000E+00 -0.00000000000E+00 -0.16624419963E+04  0.16624419963E+04  0.00000000000E+00 0. -1.
         24    1    1    2    0    0 -0.42342356668E+01 -0.33070148282E+02 -0.84098569329E+03  0.84547957736E+03  0.80419002446E+02 0. -1.
        -24    1    1    2    0    0  0.42342356668E+01  0.33070148282E+02 -0.81689652745E+03  0.82152219445E+03  0.80419002446E+02 0.  0.
<mgrwt>
<rscale>  0 0.87056185E+02</rscale>
<asrwt>0</asrwt>
<pdfrwt beam="1">  1        2 0.25576053E+00 0.87056185E+02</pdfrwt>
<pdfrwt beam="2">  1       -2 0.70150331E-03 0.87056185E+02</pdfrwt>
<totfact> 0.36818569E+04</totfact>
</mgrwt>
</event>
<event>
 4    3  0.9203887E-001  0.9002578E+02  0.7546771E-02  0.1302789E+00
          2   -1    0    0  501    0  0.00000000000E+00  0.00000000000E+00  0.45060657993E+03  0.45060657993E+03  0.00000000000E+00 0. -1.
         -2   -1    0    0    0  501 -0.00000000000E+00 -0.00000000000E+00 -0.22968803431E+02  0.22968803431E+02  0.00000000000E+00 0.  1.
         24    1    1    2    0    0  0.36730996496E+02 -0.16978168783E+02  0.32410577637E+03  0.33637656659E+03  0.80419002446E+02 0.  0.
        -24    1    1    2    0    0 -0.36730996496E+02  0.16978168783E+02  0.10353200013E+03  0.13719881677E+03  0.80419002446E+02 0.  0.
<mgrwt>
<rscale>  0 0.90025776E+02</rscale>
<asrwt>0</asrwt>
<pdfrwt beam="1">  1        2 0.69324082E-01 0.90025776E+02</pdfrwt>
<pdfrwt beam="2">  1       -2 0.35336624E-02 0.90025776E+02</pdfrwt>
<totfact> 0.20905623E+04</totfact>
</mgrwt>
</event>
<event>
 4    3  0.9203887E-001  0.9373264E+02  0.7546771E-02  0.1294056E+00
         -1   -1    0    0    0  501 -0.00000000000E+00  0.00000000000E+00  0.55095816470E+03  0.55095816470E+03  0.00000000000E+00 0.  1.
          1   -1    0    0  501    0  0.00000000000E+00 -0.00000000000E+00 -0.16152697048E+02  0.16152697048E+02  0.00000000000E+00 0. -1.
         24    1    1    2    0    0  0.25400276514E+02 -0.40907436359E+02  0.29944657847E+03  0.31377390221E+03  0.80419002446E+02 0.  1.
        -24    1    1    2    0    0 -0.25400276514E+02  0.40907436359E+02  0.23535888918E+03  0.25333695954E+03  0.80419002446E+02 0.  0.
<mgrwt>
<rscale>  0 0.93732643E+02</rscale>
<asrwt>0</asrwt>
<pdfrwt beam="1">  1        1 0.24850307E-02 0.93732643E+02</pdfrwt>
<pdfrwt beam="2">  1       -1 0.84762780E-01 0.93732643E+02</pdfrwt>
<totfact> 0.59255119E+03</totfact>
</mgrwt>
</event>
<event>
 4    3  0.9203887E-001  0.8827178E+02  0.7546771E-02  0.1307092E+00
          2   -1    0    0  501    0  0.00000000000E+00  0.00000000000E+00  0.30440182929E+03  0.30440182929E+03  0.00000000000E+00 0. -1.
         -2   -1    0    0    0  501 -0.00000000000E+00 -0.00000000000E+00 -0.41958575296E+02  0.41958575296E+02  0.00000000000E+00 0.  1.
         24    1    1    2    0    0  0.19537917280E+01  0.36343822806E+02  0.23936368519E+03  0.25512130546E+03  0.80419002446E+02 0. -1.
        -24    1    1    2    0    0 -0.19537917280E+01 -0.36343822806E+02  0.23079568802E+02  0.91239099123E+02  0.80419002446E+02 0. -1.
<mgrwt>
<rscale>  0 0.88271778E+02</rscale>
<asrwt>0</asrwt>
<pdfrwt beam="1">  1        2 0.46831049E-01 0.88271778E+02</pdfrwt>
<pdfrwt beam="2">  1       -2 0.64551656E-02 0.88271778E+02</pdfrwt>
<totfact> 0.12894431E+04</totfact>
</mgrwt>
</event>
<event>
 4    3  0.9203887E-001  0.8158001E+02  0.7546771E-02  0.1324626E+00
         -3   -1    0    0    0  501 -0.00000000000E+00  0.00000000000E+00  0.89713346698E+03  0.89713346698E+03  0.00000000000E+00 0.  1.
          3   -1    0    0  501    0  0.00000000000E+00 -0.00000000000E+00 -0.10603392143E+02  0.10603392143E+02  0.00000000000E+00 0. -1.
         24    1    1    2    0    0 -0.87606408039E+01 -0.10551418841E+02  0.69201416741E+03  0.69680621776E+03  0.80419002446E+02 0.  0.
        -24    1    1    2    0    0  0.87606408039E+01  0.10551418841E+02  0.19451590743E+03  0.21093064136E+03  0.80419002446E+02 0. -1.
<mgrwt>
<rscale>  0 0.81580005E+02</rscale>
<asrwt>0</asrwt>
<pdfrwt beam="1">  1        3 0.16312918E-02 0.81580005E+02</pdfrwt>
<pdfrwt beam="2">  1       -3 0.13802047E+00 0.81580005E+02</pdfrwt>
<totfact> 0.11569656E+03</totfact>
</mgrwt>
</event>
<event>
 4    3  0.9203887E-001  0.1024001E+03  0.7546771E-02  0.1275328E+00
         -2   -1    0    0    0  501 -0.00000000000E+00  0.00000000000E+00  0.18914160277E+02  0.18914160277E+02  0.00000000000E+00 0.  1.
          2   -1    0    0  501    0  0.00000000000E+00 -0.00000000000E+00 -0.18202402962E+04  0.18202402962E+04  0.00000000000E+00 0. -1.
         24    1    1    2    0    0 -0.63329509672E+02  0.28175485284E+01 -0.16675218269E+04  0.16706629895E+04  0.80419002446E+02 0. -1.
        -24    1    1    2    0    0  0.63329509672E+02 -0.28175485284E+01 -0.13380430905E+03  0.16849146700E+03  0.80419002446E+02 0.  1.
<mgrwt>
<rscale>  0 0.10240010E+03</rscale>
<asrwt>0</asrwt>
<pdfrwt beam="1">  1        2 0.28003702E+00 0.10240010E+03</pdfrwt>
<pdfrwt beam="2">  1       -2 0.29098703E-02 0.10240010E+03</pdfrwt>
<totfact> 0.40539951E+03</totfact>
</mgrwt>
</event>
<event>
 4    3  0.9203887E-001  0.8439622E+02  0.7546771E-02  0.1317019E+00
         -1   -1    0    0    0  501 -0.00000000000E+00  0.00000000000E+00  0.45631860005E+02  0.45631860005E+02  0.00000000000E+00 0.  1.
          1   -1    0    0  501    0  0.00000000000E+00 -0.00000000000E+00 -0.20521024025E+03  0.20521024025E+03  0.00000000000E+00 0. -1.
         24    1    1    2    0    0 -0.25147540242E+02  0.48069720588E+01 -0.18427568228E+02  0.86384587663E+02  0.80419002446E+02 0.  1.
        -24    1    1    2    0    0  0.25147540242E+02 -0.48069720588E+01 -0.14115081202E+03  0.16445751260E+03  0.80419002446E+02 0. -1.
<mgrwt>
<rscale>  0 0.84396219E+02</rscale>
<asrwt>0</asrwt>
<pdfrwt beam="1">  1        1 0.31570807E-01 0.84396219E+02</pdfrwt>
<pdfrwt beam="2">  1       -1 0.70202860E-02 0.84396219E+02</pdfrwt>
<totfact> 0.13375610E+04</totfact>
</mgrwt>
</event>
<event>
 4    3  0.9203887E-001  0.1136697E+03  0.7546771E-02  0.1253921E+00
          2   -1    0    0  501    0  0.00000000000E+00  0.00000000000E+00  0.68725176775E+02  0.68725176775E+02  0.00000000000E+00 0. -1.
         -2   -1    0    0    0  501 -0.00000000000E+00 -0.00000000000E+00 -0.27979781577E+03  0.27979781577E+03  0.00000000000E+00 0.  1.
         24    1    1    2    0    0  0.77616494005E+02  0.20718831501E+02 -0.57251424712E+01  0.11381380993E+03  0.80419002446E+02 0. -1.
        -24    1    1    2    0    0 -0.77616494005E+02 -0.20718831501E+02 -0.20534749653E+03  0.23470918262E+03  0.80419002446E+02 0.  1.
<mgrwt>
<rscale>  0 0.11366972E+03</rscale>
<asrwt>0</asrwt>
<pdfrwt beam="1">  1        2 0.10573104E-01 0.11366972E+03</pdfrwt>
<pdfrwt beam="2">  1       -2 0.43045818E-01 0.11366972E+03</pdfrwt>
<totfact> 0.29337534E+03</totfact>
</mgrwt>
</event>
<event>
 4    3  0.9203887E-001  0.1004716E+03  0.7546771E-02  0.1279307E+00
         -3   -1    0    0    0  501 -0.00000000000E+00  0.00000000000E+00  0.16288334222E+02  0.16288334222E+02  0.00000000000E+00 0.  1.
          3   -1    0    0  501    0  0.00000000000E+00 -0.00000000000E+00 -0.61995480744E+03  0.61995480744E+03  0.00000000000E+00 0. -1.
         24    1    1    2    0    0 -0.50323952021E+02 -0.33088214923E+02 -0.30774311441E+03  0.32372885341E+03  0.80419002446E+02 0.  0.
        -24    1    1    2    0    0  0.50323952021E+02  0.33088214923E+02 -0.29592335881E+03  0.31251428824E+03  0.80419002446E+02 0. -1.
<mgrwt>
<rscale>  0 0.10047163E+03</rscale>
<asrwt>0</asrwt>
<pdfrwt beam="1">  1        3 0.95377663E-01 0.10047164E+03</pdfrwt>
<pdfrwt beam="2">  1       -3 0.25058976E-02 0.10047164E+03</pdfrwt>
<totfact> 0.14835980E+03</totfact>
</mgrwt>
</event>
<event>
 4    3  0.9203887E-001  0.8188945E+02  0.7546771E-02  0.1323773E+00
         -2   -1    0    0    0  501 -0.00000000000E+00  0.00000000000E+00  0.18823455213E+03  0.18823455213E+03  0.00000000000E+00 0.  1.
          2   -1    0    0  501    0  0.00000000000E+00 -0.00000000000E+00 -0.11288867844E+03  0.11288867844E+03  0.00000000000E+00 0. -1.
         24    1    1    2    0    0  0.13416450682E+02  0.76592518682E+01 -0.86886427473E+02  0.11939485969E+03  0.80419002446E+02 0. -1.
        -24    1    1    2    0    0 -0.13416450682E+02 -0.76592518682E+01  0.16223230116E+03  0.18172837088E+03  0.80419002446E+02 0.  0.
<mgrwt>
<rscale>  0 0.81889445E+02</rscale>
<asrwt>0</asrwt>
<pdfrwt beam="1">  1        2 0.17367489E-01 0.81889445E+02</pdfrwt>
<pdfrwt beam="2">  1       -2 0.28959162E-01 0.81889445E+02</pdfrwt>
<totfact> 0.33225800E+03</totfact>
</mgrwt>
</event>
<event>
 4    3  0.9203887E-001  0.8732641E+02  0.7546771E-02  0.1309458E+00
         -2   -1    0    0    0  501 -0.00000000000E+00  0.00000000000E+00  0.20469421236E+02  0.20469421236E+02  0.00000000000E+00 0.  1.
          2   -1    0    0  501    0  0.00000000000E+00 -0.00000000000E+00 -0.52427944342E+03  0.52427944342E+03  0.00000000000E+00 0. -1.
         24    1    1    2    0    0 -0.14174357358E+02 -0.30947927352E+02 -0.39843228817E+03  0.40788992489E+03  0.80419002446E+02 0. -1.
        -24    1    1    2    0    0  0.14174357358E+02  0.30947927352E+02 -0.10537773401E+03  0.13685893976E+03  0.80419002446E+02 0. -1.
<mgrwt>
<rscale>  0 0.87326414E+02</rscale>
<asrwt>0</asrwt>
<pdfrwt beam="1">  1        2 0.80658381E-01 0.87326414E+02</pdfrwt>
<pdfrwt beam="2">  1       -2 0.31491415E-02 0.87326414E+02</pdfrwt>
<totfact> 0.20948589E+04</totfact>
</mgrwt>
</event>
<event>
 4    3  0.9203887E-001  0.8842379E+02  0.7546771E-02  0.1306714E+00
         -4   -1    0    0    0  501 -0.00000000000E+00  0.00000000000E+00  0.41286819405E+03  0.41286819405E+03  0.00000000000E+00 0.  1.
          4   -1    0    0  501    0  0.00000000000E+00 -0.00000000000E+00 -0.33251483291E+02  0.33251483291E+02  0.00000000000E+00 0. -1.
         24    1    1    2    0    0  0.29590782564E+02  0.21815978052E+02  0.43458149258E+02  0.98526027031E+02  0.80419002446E+02 0. -1.
        -24    1    1    2    0    0 -0.29590782564E+02 -0.21815978052E+02  0.33615856150E+03  0.34759365031E+03  0.80419002446E+02 0.  1.
<mgrwt>
<rscale>  0 0.88423794E+02</rscale>
<asrwt>0</asrwt>
<pdfrwt beam="1">  1        4 0.51156131E-02 0.88423794E+02</pdfrwt>
<pdfrwt beam="2">  1       -4 0.63518180E-01 0.88423794E+02</pdfrwt>
<totfact> 0.81255734E+02</totfact>
</mgrwt>
</event>
<event>
 4    3  0.9203887E-001  0.9414033E+02  0.7546771E-02  0.1293124E+00
         -2   -1    0    0    0  501 -0.00000000000E+00  0.00000000000E+00  0.47298447280E+02  0.47298447280E+02  0.00000000000E+00 0.  1.
          2   -1    0    0  501    0  0.00000000000E+00 -0.00000000000E+00 -0.30525803972E+03  0.30525803972E+03  0.00000000000E+00 0. -1.
         24    1    1    2    0    0  0.19587444643E+01  0.48901414691E+02 -0.23852578784E+03  0.25643118464E+03  0.80419002446E+02 0. -1.
        -24    1    1    2    0    0 -0.19587444643E+01 -0.48901414691E+02 -0.19433804607E+02  0.96125302363E+02  0.80419002446E+02 0.  1.
<mgrwt>
<rscale>  0 0.94140326E+02</rscale>
<asrwt>0</asrwt>
<pdfrwt beam="1">  1        2 0.46962776E-01 0.94140326E+02</pdfrwt>
<pdfrwt beam="2">  1       -2 0.72766841E-02 0.94140326E+02</pdfrwt>
<totfact> 0.10788229E+04</totfact>
</mgrwt>
</event>
<event>
 4    3  0.9203887E-001  0.9256481E+02  0.7546771E-02  0.1296757E+00
          2   -1    0    0  501    0  0.00000000000E+00  0.00000000000E+00  0.63237344522E+03  0.63237344522E+03  0.00000000000E+00 0. -1.
         -2   -1    0    0    0  501 -0.00000000000E+00 -0.00000000000E+00 -0.41095705819E+02  0.41095705819E+02  0.00000000000E+00 0.  1.
         24    1    1    2    0    0  0.21068349649E+02 -0.40708140957E+02  0.57132926084E+03  0.57877920517E+03  0.80419002446E+02 0. -1.
        -24    1    1    2    0    0 -0.21068349649E+02  0.40708140957E+02  0.19948478565E+02  0.94689945868E+02  0.80419002446E+02 0.  1.
<mgrwt>
<rscale>  0 0.92564810E+02</rscale>
<asrwt>0</asrwt>
<pdfrwt beam="1">  1        2 0.97288216E-01 0.92564810E+02</pdfrwt>
<pdfrwt beam="2">  1       -2 0.63224167E-02 0.92564810E+02</pdfrwt>
<totfact> 0.61030341E+03</totfact>
</mgrwt>
</event>
<event>
 4    3  0.9203887E-001  0.8376843E+02  0.7546771E-02  0.1318685E+00
          1   -1    0    0  501    0  0.00000000000E+00  0.00000000000E+00  0.67758710437E+02  0.67758710437E+02  0.00000000000E+00 0. -1.
         -1   -1    0    0    0  501 -0.00000000000E+00 -0.00000000000E+00 -0.20781681907E+03  0.20781681907E+03  0.00000000000E+00 0.  1.
         24    1    1    2    0    0  0.23184221050E+02 -0.35249428967E+01 -0.16762252981E+03  0.18738853162E+03  0.80419002446E+02 0.  1.
        -24    1    1    2    0    0 -0.23184221050E+02  0.35249428967E+01  0.27564421173E+02  0.88186997891E+02  0.80419002446E+02 0. -1.
<mgrwt>
<rscale>  0 0.83768427E+02</rscale>
<asrwt>0</asrwt>
<pdfrwt beam="1">  1        1 0.10424417E-01 0.83768427E+02</pdfrwt>
<pdfrwt beam="2">  1       -1 0.31971818E-01 0.83768427E+02</pdfrwt>
<totfact> 0.51066797E+03</totfact>
</mgrwt>
</event>
<event>
 4    3  0.9203887E-001  0.9840676E+02  0.7546771E-02  0.1283682E+00
         -1   -1    0    0    0  501 -0.00000000000E+00  0.00000000000E+00  0.12500778964E+02  0.12500778964E+02  0.00000000000E+00 0.  1.
          1   -1    0    0  501    0  0.00000000000E+00 -0.00000000000E+00 -0.78043070421E+03  0.78043070421E+03  0.00000000000E+00 0. -1.
         24    1    1    2    0    0  0.10766880379E+02 -0.55684375534E+02 -0.34988188979E+03  0.36345732645E+03  0.80419002446E+02 0. -1.
        -24    1    1    2    0    0 -0.10766880379E+02  0.55684375534E+02 -0.41804803545E+03  0.42947415672E+03  0.80419002446E+02 0.  1.
<mgrwt>
<rscale>  0 0.98406765E+02</rscale>
<asrwt>0</asrwt>
<pdfrwt beam="1">  1        1 0.12006630E+00 0.98406765E+02</pdfrwt>
<pdfrwt beam="2">  1       -1 0.19231961E-02 0.98406765E+02</pdfrwt>
<totfact> 0.16122865E+04</totfact>
</mgrwt>
</event>
<event>
 4    3  0.9203887E-001  0.8148236E+02  0.7546771E-02  0.1324897E+00
         -2   -1    0    0    0  501 -0.00000000000E+00  0.00000000000E+00  0.55657277387E+01  0.55657277387E+01  0.00000000000E+00 0.  1.
          2   -1    0    0  501    0  0.00000000000E+00 -0.00000000000E+00 -0.15944964629E+04  0.15944964629E+04  0.00000000000E+00 0. -1.
         24    1    1    2    0    0  0.12381588640E+02  0.43422853648E+01 -0.11959678438E+04  0.11987403633E+04  0.80419002446E+02 0. -1.
        -24    1    1    2    0    0 -0.12381588640E+02 -0.43422853648E+01 -0.39296289135E+03  0.40132182736E+03  0.80419002446E+02 0.  1.
<mgrwt>
<rscale>  0 0.81482361E+02</rscale>
<asrwt>0</asrwt>
<pdfrwt beam="1">  1        2 0.24530685E+00 0.81482361E+02</pdfrwt>
<pdfrwt beam="2">  1       -2 0.85626683E-03 0.81482361E+02</pdfrwt>
<totfact> 0.29922873E+04</totfact>
</mgrwt>
</event>
<event>
 4    3  0.9203887E-001  0.9522113E+02  0.7546771E-02  0.1290679E+00
          1   -1    0    0  501    0  0.00000000000E+00  0.00000000000E+00  0.77988516379E+02  0.77988516379E+02  0.00000000000E+00 0. -1.
         -1   -1    0    0    0  501 -0.00000000000E+00 -0.00000000000E+00 -0.12069249288E+03  0.12069249288E+03  0.00000000000E+00 0.  1.
         24    1    1    2    0    0 -0.20807496882E+02  0.46549887868E+02 -0.23176410067E+01  0.95249311815E+02  0.80419002446E+02 0. -1.
        -24    1    1    2    0    0  0.20807496882E+02 -0.46549887868E+02 -0.40386335494E+02  0.10343169744E+03  0.80419002446E+02 0.  1.
<mgrwt>
<rscale>  0 0.95221123E+02</rscale>
<asrwt>0</asrwt>
<pdfrwt beam="1">  1        1 0.11998233E-01 0.95221135E+02</pdfrwt>
<pdfrwt beam="2">  1       -1 0.18568076E-01 0.95221135E+02</pdfrwt>
<totfact> 0.10384051E+04</totfact>
</mgrwt>
</event>
<event>
 4    3  0.9203887E-001  0.9349322E+02  0.7546771E-02  0.1294606E+00
          2   -1    0    0  501    0  0.00000000000E+00  0.00000000000E+00  0.48683997383E+03  0.48683997383E+03  0.00000000000E+00 0. -1.
         -2   -1    0    0    0  501 -0.00000000000E+00 -0.00000000000E+00 -0.18159234203E+02  0.18159234203E+02  0.00000000000E+00 0.  1.
         24    1    1    2    0    0  0.21480989664E+02  0.42571510171E+02  0.26114911886E+03  0.27738032488E+03  0.80419002446E+02 0.  0.
        -24    1    1    2    0    0 -0.21480989664E+02 -0.42571510171E+02  0.20753162076E+03  0.22761888315E+03  0.80419002446E+02 0.  1.
<mgrwt>
<rscale>  0 0.93493221E+02</rscale>
<asrwt>0</asrwt>
<pdfrwt beam="1">  1        2 0.74898447E-01 0.93493221E+02</pdfrwt>
<pdfrwt beam="2">  1       -2 0.27937287E-02 0.93493221E+02</pdfrwt>
<totfact> 0.27205675E+04</totfact>
</mgrwt>
</event>
<event>
 4    3  0.9203887E-001  0.8327760E+02  0.7546771E-02  0.1319999E+00
         -2   -1    0    0    0  501 -0.00000000000E+00  0.00000000000E+00  0.17431816301E+02  0.17431816301E+02  0.00000000000E+00 0.  1.
          2   -1    0    0  501    0  0.00000000000E+00 -0.00000000000E+00 -0.86135445753E+03  0.86135445753E+03  0.00000000000E+00 0. -1.
         24    1    1    2    0    0 -0.13377813661E+02  0.16999315367E+02 -0.74428460548E+03  0.74892905708E+03  0.80419002446E+02 0.  0.
        -24    1    1    2    0    0  0.13377813661E+02 -0.16999315367E+02 -0.99638035748E+02  0.12985721676E+03  0.80419002446E+02 0.  1.
<mgrwt>
<rscale>  0 0.83277599E+02</rscale>
<asrwt>0</asrwt>
<pdfrwt beam="1">  1        2 0.13251611E+00 0.83277599E+02</pdfrwt>
<pdfrwt beam="2">  1       -2 0.26818172E-02 0.83277599E+02</pdfrwt>
<totfact> 0.14828808E+04</totfact>
</mgrwt>
</event>
<event>
 4    3  0.9203887E-001  0.8448869E+02  0.7546771E-02  0.1316775E+00
          2   -1    0    0  501    0  0.00000000000E+00  0.00000000000E+00  0.10770833445E+04  0.10770833445E+04  0.00000000000E+00 0. -1.
         -2   -1    0    0    0  501 -0.00000000000E+00 -0.00000000000E+00 -0.68843193560E+01  0.68843193560E+01  0.00000000000E+00 0.  1.
         24    1    1    2    0    0 -0.15082713669E+02 -0.21062627838E+02  0.63978689149E+03  0.64534146389E+03  0.80419002446E+02 0. -1.
        -24    1    1    2    0    0  0.15082713669E+02  0.21062627838E+02  0.43041213367E+03  0.43862619998E+03  0.80419002446E+02 0.  1.
<mgrwt>
<rscale>  0 0.84488689E+02</rscale>
<asrwt>0</asrwt>
<pdfrwt beam="1">  1        2 0.16570500E+00 0.84488689E+02</pdfrwt>
<pdfrwt beam="2">  1       -2 0.10591269E-02 0.84488689E+02</pdfrwt>
<totfact> 0.41639470E+04</totfact>
</mgrwt>
</event>
<event>
 4    3  0.9203887E-001  0.1034758E+03  0.7546771E-02  0.1273152E+00
         -2   -1    0    0    0  501 -0.00000000000E+00  0.00000000000E+00  0.14049705704E+02  0.14049705704E+02  0.00000000000E+00 0.  1.
          2   -1    0    0  501    0  0.00000000000E+00 -0.00000000000E+00 -0.93125468068E+03  0.93125468068E+03  0.00000000000E+00 0. -1.
         24    1    1    2    0    0  0.88118548624E+01  0.64516483104E+02 -0.66004589146E+03  0.66810764115E+03  0.80419002446E+02 0. -1.
        -24    1    1    2    0    0 -0.88118548624E+01 -0.64516483104E+02 -0.25715908352E+03  0.27719674523E+03  0.80419002446E+02 0.  1.
<mgrwt>
<rscale>  0 0.10347580E+03</rscale>
<asrwt>0</asrwt>
<pdfrwt beam="1">  1        2 0.14327000E+00 0.10347580E+03</pdfrwt>
<pdfrwt beam="2">  1       -2 0.21614924E-02 0.10347580E+03</pdfrwt>
<totfact> 0.18652852E+04</totfact>
</mgrwt>
</event>
<event>
 4    3  0.9203887E-001  0.1055106E+03  0.7546771E-02  0.1269117E+00
          2   -1    0    0  501    0  0.00000000000E+00  0.00000000000E+00  0.13940004872E+04  0.13940004872E+04  0.00000000000E+00 0. -1.
         -2   -1    0    0    0  501 -0.00000000000E+00 -0.00000000000E+00 -0.82093596997E+01  0.82093596997E+01  0.00000000000E+00 0.  1.
         24    1    1    2    0    0  0.41209393756E+02 -0.54470757346E+02  0.80854056768E+03  0.81539581988E+03  0.80419002446E+02 0. -1.
        -24    1    1    2    0    0 -0.41209393756E+02  0.54470757346E+02  0.57725055983E+03  0.58681402703E+03  0.80419002446E+02 0.  0.
<mgrwt>
<rscale>  0 0.10551063E+03</rscale>
<asrwt>0</asrwt>
<pdfrwt beam="1">  1        2 0.21446143E+00 0.10551063E+03</pdfrwt>
<pdfrwt beam="2">  1       -2 0.12629795E-02 0.10551063E+03</pdfrwt>
<totfact> 0.22298639E+04</totfact>
</mgrwt>
</event>
<event>
 4    3  0.9203887E-001  0.1197241E+03  0.7546771E-02  0.1243553E+00
          4   -1    0    0  501    0  0.00000000000E+00  0.00000000000E+00  0.13670890798E+04  0.13670890798E+04  0.00000000000E+00 0. -1.
         -4   -1    0    0    0  501 -0.00000000000E+00 -0.00000000000E+00 -0.15396863883E+03  0.15396863883E+03  0.00000000000E+00 0.  1.
         24    1    1    2    0    0 -0.88180960973E+02  0.95269235298E+01  0.13407373147E+04  0.13460722147E+04  0.80419002446E+02 0. -1.
        -24    1    1    2    0    0  0.88180960973E+02 -0.95269235298E+01 -0.12761687377E+03  0.17498550390E+03  0.80419002446E+02 0.  1.
<mgrwt>
<rscale>  0 0.11972410E+03</rscale>
<asrwt>0</asrwt>
<pdfrwt beam="1">  1        4 0.21032139E+00 0.11972410E+03</pdfrwt>
<pdfrwt beam="2">  1       -4 0.23687484E-01 0.11972410E+03</pdfrwt>
<totfact> 0.35579939E+00</totfact>
</mgrwt>
</event>
<event>
 4    3  0.9203887E-001  0.9898689E+02  0.7546771E-02  0.1282441E+00
         -2   -1    0    0    0  501 -0.00000000000E+00  0.00000000000E+00  0.41910127654E+02  0.41910127654E+02  0.00000000000E+00 0.  1.
          2   -1    0    0  501    0  0.00000000000E+00 -0.00000000000E+00 -0.27068253911E+03  0.27068253911E+03  0.00000000000E+00 0. -1.
         24    1    1    2    0    0 -0.42401039955E+01 -0.57560445657E+02 -0.56688897226E+02  0.11407028714E+03  0.80419002446E+02 0.  1.
        -24    1    1    2    0    0  0.42401039955E+01  0.57560445657E+02 -0.17208351423E+03  0.19852237962E+03  0.80419002446E+02 0. -1.
<mgrwt>
<rscale>  0 0.98986877E+02</rscale>
<asrwt>0</asrwt>
<pdfrwt beam="1">  1        2 0.41643467E-01 0.98986889E+02</pdfrwt>
<pdfrwt beam="2">  1       -2 0.64477120E-02 0.98986889E+02</pdfrwt>
<totfact> 0.14763179E+04</totfact>
</mgrwt>
</event>
<event>
 4    3  0.9203887E-001  0.8830024E+02  0.7546771E-02  0.1307021E+00
         -2   -1    0    0    0  501 -0.00000000000E+00  0.00000000000E+00  0.45282274246E+02  0.45282274246E+02  0.00000000000E+00 0.  1.
          2   -1    0    0  501    0  0.00000000000E+00 -0.00000000000E+00 -0.19993453050E+03  0.19993453050E+03  0.00000000000E+00 0. -1.
         24    1    1    2    0    0  0.25601204181E+01  0.36375290290E+02 -0.12300375586E+03  0.15141616780E+03  0.80419002446E+02 0. -1.
        -24    1    1    2    0    0 -0.25601204181E+01 -0.36375290290E+02 -0.31648500393E+02  0.93800636948E+02  0.80419002446E+02 0.  1.
<mgrwt>
<rscale>  0 0.88300237E+02</rscale>
<asrwt>0</asrwt>
<pdfrwt beam="1">  1        2 0.30759157E-01 0.88300237E+02</pdfrwt>
<pdfrwt beam="2">  1       -2 0.69665040E-02 0.88300237E+02</pdfrwt>
<totfact> 0.17884911E+04</totfact>
</mgrwt>
</event>
<event>
 4    3  0.9203887E-001  0.1009459E+03  0.7546771E-02  0.1278319E+00
         -2   -1    0    0    0  501 -0.00000000000E+00  0.00000000000E+00  0.23849680612E+02  0.23849680612E+02  0.00000000000E+00 0.  1.
          2   -1    0    0  501    0  0.00000000000E+00 -0.00000000000E+00 -0.47770477280E+03  0.47770477280E+03  0.00000000000E+00 0. -1.
         24    1    1    2    0    0  0.32378750816E+02  0.51715363864E+02 -0.30841765126E+03  0.32451737384E+03  0.80419002446E+02 0.  0.
        -24    1    1    2    0    0 -0.32378750816E+02 -0.51715363864E+02 -0.14543744093E+03  0.17703707957E+03  0.80419002446E+02 0.  1.
<mgrwt>
<rscale>  0 0.10094592E+03</rscale>
<asrwt>0</asrwt>
<pdfrwt beam="1">  1        2 0.73493041E-01 0.10094592E+03</pdfrwt>
<pdfrwt beam="2">  1       -2 0.36691817E-02 0.10094592E+03</pdfrwt>
<totfact> 0.18793060E+04</totfact>
</mgrwt>
</event>
<event>
 4    3  0.9203887E-001  0.8765083E+02  0.7546771E-02  0.1308642E+00
         -1   -1    0    0    0  501 -0.00000000000E+00  0.00000000000E+00  0.13275424615E+03  0.13275424615E+03  0.00000000000E+00 0.  1.
          1   -1    0    0  501    0  0.00000000000E+00 -0.00000000000E+00 -0.15470073977E+03  0.15470073977E+03  0.00000000000E+00 0. -1.
         24    1    1    2    0    0  0.25084571456E+01  0.34772973270E+02  0.10273638240E+03  0.13504603752E+03  0.80419002446E+02 0.  1.
        -24    1    1    2    0    0 -0.25084571456E+01 -0.34772973270E+02 -0.12468287602E+03  0.15240894840E+03  0.80419002446E+02 0. -1.
<mgrwt>
<rscale>  0 0.87650830E+02</rscale>
<asrwt>0</asrwt>
<pdfrwt beam="1">  1        1 0.23800114E-01 0.87650830E+02</pdfrwt>
<pdfrwt beam="2">  1       -1 0.20423730E-01 0.87650830E+02</pdfrwt>
<totfact> 0.37184030E+03</totfact>
</mgrwt>
</event>
<event>
 4    3  0.9203887E-001  0.8920904E+02  0.7546771E-02  0.1304779E+00
          2   -1    0    0  501    0  0.00000000000E+00  0.00000000000E+00  0.55467814811E+03  0.55467814811E+03  0.00000000000E+00 0. -1.
         -2   -1    0    0    0  501 -0.00000000000E+00 -0.00000000000E+00 -0.44692155853E+02  0.44692155853E+02  0.00000000000E+00 0.  1.
         24    1    1    2    0    0 -0.22853296373E+02 -0.31124965854E+02  0.50193250522E+03  0.50979848216E+03  0.80419002446E+02 0. -1.
        -24    1    1    2    0    0  0.22853296373E+02  0.31124965854E+02  0.80534870358E+01  0.89571821810E+02  0.80419002446E+02 0.  1.
<mgrwt>
<rscale>  0 0.89209039E+02</rscale>
<asrwt>0</asrwt>
<pdfrwt beam="1">  1        2 0.85335095E-01 0.89209039E+02</pdfrwt>
<pdfrwt beam="2">  1       -2 0.68757167E-02 0.89209039E+02</pdfrwt>
<totfact> 0.62097676E+03</totfact>
</mgrwt>
</event>
<event>
 4    3  0.9203887E-001  0.9455000E+02  0.7546771E-02  0.1292193E+00
          1   -1    0    0  501    0  0.00000000000E+00  0.00000000000E+00  0.41159831818E+03  0.41159831818E+03  0.00000000000E+00 0. -1.
         -1   -1    0    0    0  501 -0.00000000000E+00 -0.00000000000E+00 -0.24888412785E+02  0.24888412785E+02  0.00000000000E+00 0.  1.
         24    1    1    2    0    0 -0.35700769962E+02  0.34611301754E+02  0.11547984138E+03  0.14924911023E+03  0.80419002446E+02 0.  1.
        -24    1    1    2    0    0  0.35700769962E+02 -0.34611301754E+02  0.27123006401E+03  0.28723762073E+03  0.80419002446E+02 0. -1.
<mgrwt>
<rscale>  0 0.94550003E+02</rscale>
<asrwt>0</asrwt>
<pdfrwt beam="1">  1        1 0.63322813E-01 0.94550003E+02</pdfrwt>
<pdfrwt beam="2">  1       -1 0.38289869E-02 0.94550003E+02</pdfrwt>
<totfact> 0.14011284E+04</totfact>
</mgrwt>
</event>
<event>
 4    3  0.9203887E-001  0.8454936E+02  0.7546771E-02  0.1316615E+00
          1   -1    0    0  501    0  0.00000000000E+00  0.00000000000E+00  0.81359535513E+03  0.81359535513E+03  0.00000000000E+00 0. -1.
         -1   -1    0    0    0  501 -0.00000000000E+00 -0.00000000000E+00 -0.18263073862E+02  0.18263073862E+02  0.00000000000E+00 0.  1.
         24    1    1    2    0    0 -0.19247915196E+01  0.26032167129E+02  0.98053670934E+02  0.12947245609E+03  0.80419002446E+02 0.  1.
        -24    1    1    2    0    0  0.19247915196E+01 -0.26032167129E+02  0.69727861033E+03  0.70238597290E+03  0.80419002446E+02 0. -1.
<mgrwt>
<rscale>  0 0.84549361E+02</rscale>
<asrwt>0</asrwt>
<pdfrwt beam="1">  1        1 0.12516849E+00 0.84549361E+02</pdfrwt>
<pdfrwt beam="2">  1       -1 0.28097043E-02 0.84549361E+02</pdfrwt>
<totfact> 0.87062607E+03</totfact>
</mgrwt>
</event>
<event>
 4    3  0.9203887E-001  0.8530107E+02  0.7546771E-02  0.1314647E+00
         -2   -1    0    0    0  501 -0.00000000000E+00  0.00000000000E+00  0.10940260453E+04  0.10940260453E+04  0.00000000000E+00 0.  1.
          2   -1    0    0  501    0  0.00000000000E+00 -0.00000000000E+00 -0.81506836381E+01  0.81506836381E+01  0.00000000000E+00 0. -1.
         24    1    1    2    0    0 -0.27845288285E+02  0.58048952325E+01  0.30654363075E+03  0.31819061960E+03  0.80419002446E+02 0.  0.
        -24    1    1    2    0    0  0.27845288285E+02 -0.58048952325E+01  0.77933173094E+03  0.78398610937E+03  0.80419002446E+02 0.  0.
<mgrwt>
<rscale>  0 0.85301072E+02</rscale>
<asrwt>0</asrwt>
<pdfrwt beam="1">  1        2 0.12539522E-02 0.85301072E+02</pdfrwt>
<pdfrwt beam="2">  1       -2 0.16831158E+00 0.85301072E+02</pdfrwt>
<totfact> 0.22495548E+03</totfact>
</mgrwt>
</event>
<event>
 4    3  0.9203887E-001  0.1157776E+03  0.7546771E-02  0.1250230E+00
          1   -1    0    0  501    0  0.00000000000E+00  0.00000000000E+00  0.92044944086E+03  0.92044944086E+03  0.00000000000E+00 0. -1.
         -1   -1    0    0    0  501 -0.00000000000E+00 -0.00000000000E+00 -0.30400379243E+03  0.30400379243E+03  0.00000000000E+00 0.  1.
         24    1    1    2    0    0  0.18770022967E+01 -0.83268981851E+02 -0.28915983269E+03  0.31147691933E+03  0.80419002446E+02 0.  1.
        -24    1    1    2    0    0 -0.18770022967E+01  0.83268981851E+02  0.90560548112E+03  0.91297631397E+03  0.80419002446E+02 0. -1.
<mgrwt>
<rscale>  0 0.11577764E+03</rscale>
<asrwt>0</asrwt>
<pdfrwt beam="1">  1        1 0.14160761E+00 0.11577764E+03</pdfrwt>
<pdfrwt beam="2">  1       -1 0.46769815E-01 0.11577764E+03</pdfrwt>
<totfact> 0.91432875E+01</totfact>
</mgrwt>
</event>
<event>
 4    3  0.9203887E-001  0.9831843E+02  0.7546771E-02  0.1283872E+00
         -3   -1    0    0    0  501 -0.00000000000E+00  0.00000000000E+00  0.53666859891E+02  0.53666859891E+02  0.00000000000E+00 0.  1.
          3   -1    0    0  501    0  0.00000000000E+00 -0.00000000000E+00 -0.44426081582E+03  0.44426081582E+03  0.00000000000E+00 0. -1.
         24    1    1    2    0    0  0.29968581229E+02  0.47970637351E+02 -0.33265096521E+01  0.98374689476E+02  0.80419002446E+02 0.  1.
        -24    1    1    2    0    0 -0.29968581229E+02 -0.47970637351E+02 -0.38726744627E+03  0.39955298623E+03  0.80419002446E+02 0. -1.
<mgrwt>
<rscale>  0 0.98318431E+02</rscale>
<asrwt>0</asrwt>
<pdfrwt beam="1">  1        3 0.68347816E-01 0.98318431E+02</pdfrwt>
<pdfrwt beam="2">  1       -3 0.82564402E-02 0.98318431E+02</pdfrwt>
<totfact> 0.46882759E+02</totfact>
</mgrwt>
</event>
<event>
 4    3  0.9203887E-001  0.1318798E+03  0.7546771E-02  0.1224693E+00
          1   -1    0    0  501    0  0.00000000000E+00  0.00000000000E+00  0.12526469536E+04  0.12526469536E+04  0.00000000000E+00 0. -1.
         -1   -1    0    0    0  501 -0.00000000000E+00 -0.00000000000E+00 -0.37367561897E+02  0.37367561897E+02  0.00000000000E+00 0.  1.
         24    1    1    2    0    0 -0.10450857461E+03  0.17419863071E+01  0.96316845098E+02  0.16330715627E+03  0.80419002446E+02 0.  1.
        -24    1    1    2    0    0  0.10450857461E+03 -0.17419863071E+01  0.11189625466E+04  0.11267073592E+04  0.80419002446E+02 0. -1.
<mgrwt>
<rscale>  0 0.13187984E+03</rscale>
<asrwt>0</asrwt>
<pdfrwt beam="1">  1        1 0.19271488E+00 0.13187984E+03</pdfrwt>
<pdfrwt beam="2">  1       -1 0.57488566E-02 0.13187984E+03</pdfrwt>
<totfact> 0.15011942E+03</totfact>
</mgrwt>
</event>
<event>
 4    3  0.9203887E-001  0.8633620E+02  0.7546771E-02  0.1311975E+00
          2   -1    0    0  501    0  0.00000000000E+00  0.00000000000E+00  0.39212987939E+03  0.39212987939E+03  0.00000000000E+00 0. -1.
         -2   -1    0    0    0  501 -0.00000000000E+00 -0.00000000000E+00 -0.62597253950E+02  0.62597253950E+02  0.00000000000E+00 0.  1.
         24    1    1    2    0    0  0.31412152539E+02  0.16048440476E-01  0.35449311947E+03  0.36485519222E+03  0.80419002446E+02 0. -1.
        -24    1    1    2    0    0 -0.31412152539E+02 -0.16048440476E-01 -0.24960494027E+02  0.89871941122E+02  0.80419002446E+02 0.  1.
<mgrwt>
<rscale>  0 0.86336201E+02</rscale>
<asrwt>0</asrwt>
<pdfrwt beam="1">  1        2 0.60327672E-01 0.86336201E+02</pdfrwt>
<pdfrwt beam="2">  1       -2 0.96303470E-02 0.86336201E+02</pdfrwt>
<totfact> 0.53648801E+03</totfact>
</mgrwt>
</event>
<event>
 4    3  0.9203887E-001  0.8491036E+02  0.7546771E-02  0.1315667E+00
          1   -1    0    0  501    0  0.00000000000E+00  0.00000000000E+00  0.18203389788E+02  0.18203389788E+02  0.00000000000E+00 0. -1.
         -1   -1    0    0    0  501 -0.00000000000E+00 -0.00000000000E+00 -0.47290788773E+03  0.47290788773E+03  0.00000000000E+00 0.  1.
         24    1    1    2    0    0  0.24994395572E+02 -0.10855106798E+02 -0.32633436030E+03  0.33720006497E+03  0.80419002446E+02 0.  1.
        -24    1    1    2    0    0 -0.24994395572E+02  0.10855106798E+02 -0.12837013765E+03  0.15391121255E+03  0.80419002446E+02 0. -1.
<mgrwt>
<rscale>  0 0.84910359E+02</rscale>
<asrwt>0</asrwt>
<pdfrwt beam="1">  1        1 0.28005217E-02 0.84910359E+02</pdfrwt>
<pdfrwt beam="2">  1       -1 0.72755056E-01 0.84910359E+02</pdfrwt>
<totfact> 0.67802305E+03</totfact>
</mgrwt>
</event>
<event>
 4    3  0.9203887E-001  0.8336397E+02  0.7546771E-02  0.1319767E+00
         -2   -1    0    0    0  501 -0.00000000000E+00  0.00000000000E+00  0.66197015423E+02  0.66197015423E+02  0.00000000000E+00 0.  1.
          2   -1    0    0  501    0  0.00000000000E+00 -0.00000000000E+00 -0.48647490114E+03  0.48647490114E+03  0.00000000000E+00 0. -1.
         24    1    1    2    0    0  0.19172172639E+02 -0.10712782765E+02 -0.45484793262E+03  0.46242425723E+03  0.80419002446E+02 0. -1.
        -24    1    1    2    0    0 -0.19172172639E+02  0.10712782765E+02  0.34570046896E+02  0.90247659333E+02  0.80419002446E+02 0.  1.
<mgrwt>
<rscale>  0 0.83363972E+02</rscale>
<asrwt>0</asrwt>
<pdfrwt beam="1">  1        2 0.74842291E-01 0.83363972E+02</pdfrwt>
<pdfrwt beam="2">  1       -2 0.10184156E-01 0.83363972E+02</pdfrwt>
<totfact> 0.39061925E+03</totfact>
</mgrwt>
</event>
<event>
 4    3  0.9203887E-001  0.9699501E+02  0.7546771E-02  0.1286745E+00
         -2   -1    0    0    0  501 -0.00000000000E+00  0.00000000000E+00  0.45422924368E+02  0.45422924368E+02  0.00000000000E+00 0.  1.
          2   -1    0    0  501    0  0.00000000000E+00 -0.00000000000E+00 -0.23355437660E+03  0.23355437660E+03  0.00000000000E+00 0. -1.
         24    1    1    2    0    0  0.46855173336E+01 -0.54026501689E+02 -0.14099272124E+03  0.17113439267E+03  0.80419002446E+02 0.  1.
        -24    1    1    2    0    0 -0.46855173336E+01  0.54026501689E+02 -0.47138731001E+02  0.10784290831E+03  0.80419002446E+02 0.  0.
<mgrwt>
<rscale>  0 0.96995015E+02</rscale>
<asrwt>0</asrwt>
<pdfrwt beam="1">  1        2 0.35931442E-01 0.96995015E+02</pdfrwt>
<pdfrwt beam="2">  1       -2 0.69881423E-02 0.96995015E+02</pdfrwt>
<totfact> 0.15238050E+04</totfact>
</mgrwt>
</event>
<event>
 4    3  0.9203887E-001  0.9808021E+02  0.7546771E-02  0.1284386E+00
         -2   -1    0    0    0  501 -0.00000000000E+00  0.00000000000E+00  0.15800023387E+02  0.15800023387E+02  0.00000000000E+00 0.  1.
          2   -1    0    0  501    0  0.00000000000E+00 -0.00000000000E+00 -0.72949081750E+03  0.72949081750E+03  0.00000000000E+00 0. -1.
         24    1    1    2    0    0 -0.55373484749E+02 -0.92891925756E+01 -0.50839202111E+03  0.51776652556E+03  0.80419002446E+02 0. -1.
        -24    1    1    2    0    0  0.55373484749E+02  0.92891925756E+01 -0.20529877300E+03  0.22752431532E+03  0.80419002446E+02 0.  1.
<mgrwt>
<rscale>  0 0.98080211E+02</rscale>
<asrwt>0</asrwt>
<pdfrwt beam="1">  1        2 0.11222937E+00 0.98080211E+02</pdfrwt>
<pdfrwt beam="2">  1       -2 0.24307725E-02 0.98080211E+02</pdfrwt>
<totfact> 0.21229400E+04</totfact>
</mgrwt>
</event>
<event>
 4    3  0.9203887E-001  0.9223088E+02  0.7546771E-02  0.1297537E+00
          2   -1    0    0  501    0  0.00000000000E+00  0.00000000000E+00  0.13869480409E+03  0.13869480409E+03  0.00000000000E+00 0. -1.
         -2   -1    0    0    0  501 -0.00000000000E+00 -0.00000000000E+00 -0.15810240208E+03  0.15810240208E+03  0.00000000000E+00 0.  1.
         24    1    1    2    0    0  0.34623955975E+02  0.28991381459E+02  0.10639564947E+03  0.14080684893E+03  0.80419002446E+02 0. -1.
        -24    1    1    2    0    0 -0.34623955975E+02 -0.28991381459E+02 -0.12580324746E+03  0.15599035724E+03  0.80419002446E+02 0.  1.
<mgrwt>
<rscale>  0 0.92230876E+02</rscale>
<asrwt>0</asrwt>
<pdfrwt beam="1">  1        2 0.21337662E-01 0.92230876E+02</pdfrwt>
<pdfrwt beam="2">  1       -2 0.24323447E-01 0.92230876E+02</pdfrwt>
<totfact> 0.36059952E+03</totfact>
</mgrwt>
</event>
<event>
 4    3  0.9203887E-001  0.8265031E+02  0.7546771E-02  0.1321694E+00
         -1   -1    0    0    0  501 -0.00000000000E+00  0.00000000000E+00  0.30854633564E+02  0.30854633564E+02  0.00000000000E+00 0.  1.
          1   -1    0    0  501    0  0.00000000000E+00 -0.00000000000E+00 -0.98877894345E+03  0.98877894345E+03  0.00000000000E+00 0. -1.
         24    1    1    2    0    0 -0.17567447367E+02  0.74325520459E+01 -0.29833495800E+02  0.87869855257E+02  0.80419002446E+02 0.  1.
        -24    1    1    2    0    0  0.17567447367E+02 -0.74325520459E+01 -0.92809081408E+03  0.93176372175E+03  0.80419002446E+02 0. -1.
<mgrwt>
<rscale>  0 0.82650312E+02</rscale>
<asrwt>0</asrwt>
<pdfrwt beam="1">  1        1 0.15211983E+00 0.82650312E+02</pdfrwt>
<pdfrwt beam="2">  1       -1 0.47468670E-02 0.82650312E+02</pdfrwt>
<totfact> 0.30062893E+03</totfact>
</mgrwt>
</event>
<event>
 4    3  0.9203887E-001  0.1003197E+03  0.7546771E-02  0.1279625E+00
         -1   -1    0    0    0  501 -0.00000000000E+00  0.00000000000E+00  0.21970330511E+02  0.21970330511E+02  0.00000000000E+00 0.  1.
          1   -1    0    0  501    0  0.00000000000E+00 -0.00000000000E+00 -0.58454295709E+03  0.58454295709E+03  0.00000000000E+00 0. -1.
         24    1    1    2    0    0 -0.42013457757E+02 -0.42798327492E+02 -0.14022965573E+03  0.17241925579E+03  0.80419002446E+02 0.  1.
        -24    1    1    2    0    0  0.42013457757E+02  0.42798327492E+02 -0.42234297086E+03  0.43409403181E+03  0.80419002446E+02 0. -1.
<mgrwt>
<rscale>  0 0.10031971E+03</rscale>
<asrwt>0</asrwt>
<pdfrwt beam="1">  1        1 0.89929682E-01 0.10031971E+03</pdfrwt>
<pdfrwt beam="2">  1       -1 0.33800510E-02 0.10031971E+03</pdfrwt>
<totfact> 0.10746361E+04</totfact>
</mgrwt>
</event>
<event>
 4    3  0.9203887E-001  0.8655041E+02  0.7546771E-02  0.1311427E+00
         -2   -1    0    0    0  501 -0.00000000000E+00  0.00000000000E+00  0.85098388638E+01  0.85098388638E+01  0.00000000000E+00 0.  1.
          2   -1    0    0  501    0  0.00000000000E+00 -0.00000000000E+00 -0.92608304476E+03  0.92608304476E+03  0.00000000000E+00 0. -1.
         24    1    1    2    0    0 -0.30569933186E+02  0.94463164890E+01 -0.35485338003E+03  0.36525592532E+03  0.80419002446E+02 0.  0.
        -24    1    1    2    0    0  0.30569933186E+02 -0.94463164890E+01 -0.56271982587E+03  0.56933695830E+03  0.80419002446E+02 0.  0.
<mgrwt>
<rscale>  0 0.86550399E+02</rscale>
<asrwt>0</asrwt>
<pdfrwt beam="1">  1        2 0.14247434E+00 0.86550410E+02</pdfrwt>
<pdfrwt beam="2">  1       -2 0.13092058E-02 0.86550410E+02</pdfrwt>
<totfact> 0.37884698E+04</totfact>
</mgrwt>
</event>
<event>
 4    3  0.9203887E-001  0.8156597E+02  0.7546771E-02  0.1324665E+00
          1   -1    0    0  501    0  0.00000000000E+00  0.00000000000E+00  0.14982992112E+04  0.14982992112E+04  0.00000000000E+00 0. -1.
         -1   -1    0    0    0  501 -0.00000000000E+00 -0.00000000000E+00 -0.52052601487E+01  0.52052601487E+01  0.00000000000E+00 0.  1.
         24    1    1    2    0    0 -0.85862002938E+01  0.10586250149E+02  0.45837471840E+03  0.46557533220E+03  0.80419002446E+02 0.  0.
        -24    1    1    2    0    0  0.85862002938E+01 -0.10586250149E+02  0.10347192327E+04  0.10379291392E+04  0.80419002446E+02 0. -1.
<mgrwt>
<rscale>  0 0.81565970E+02</rscale>
<asrwt>0</asrwt>
<pdfrwt beam="1">  1        1 0.23050723E+00 0.81565970E+02</pdfrwt>
<pdfrwt beam="2">  1       -1 0.80081045E-03 0.81565970E+02</pdfrwt>
<totfact> 0.17310975E+04</totfact>
</mgrwt>
</event>
<event>
 4    3  0.9203887E-001  0.8927169E+02  0.7546771E-02  0.1304625E+00
          1   -1    0    0  501    0  0.00000000000E+00  0.00000000000E+00  0.88893175500E+03  0.88893175500E+03  0.00000000000E+00 0. -1.
         -1   -1    0    0    0  501 -0.00000000000E+00 -0.00000000000E+00 -0.10007054957E+02  0.10007054957E+02  0.00000000000E+00 0.  1.
         24    1    1    2    0    0 -0.27224623935E+02  0.27586920810E+02  0.29443345716E+03  0.30766945737E+03  0.80419002446E+02 0.  1.
        -24    1    1    2    0    0  0.27224623935E+02 -0.27586920810E+02  0.58449124288E+03  0.59126935259E+03  0.80419002446E+02 0. -1.
<mgrwt>
<rscale>  0 0.89271688E+02</rscale>
<asrwt>0</asrwt>
<pdfrwt beam="1">  1        1 0.13675867E+00 0.89271688E+02</pdfrwt>
<pdfrwt beam="2">  1       -1 0.15395476E-02 0.89271688E+02</pdfrwt>
<totfact> 0.18026079E+04</totfact>
</mgrwt>
</event>
<event>
 4    3  0.9203887E-001  0.9259781E+02  0.7546771E-02  0.1296680E+00
         -2   -1    0    0    0  501 -0.00000000000E+00  0.00000000000E+00  0.31974734346E+02  0.31974734346E+02  0.00000000000E+00 0.  1.
          2   -1    0    0  501    0  0.00000000000E+00 -0.00000000000E+00 -0.31033643282E+03  0.31033643282E+03  0.00000000000E+00 0. -1.
         24    1    1    2    0    0  0.45750841358E+02  0.37414990646E+01 -0.20227775816E+03  0.22246493139E+03  0.80419002446E+02 0. -1.
        -24    1    1    2    0    0 -0.45750841358E+02 -0.37414990646E+01 -0.76083940314E+02  0.11984623577E+03  0.80419002446E+02 0.  1.
<mgrwt>
<rscale>  0 0.92597809E+02</rscale>
<asrwt>0</asrwt>
<pdfrwt beam="1">  1        2 0.47744065E-01 0.92597809E+02</pdfrwt>
<pdfrwt beam="2">  1       -2 0.49191900E-02 0.92597809E+02</pdfrwt>
<totfact> 0.19059997E+04</totfact>
</mgrwt>
</event>
<event>
 4    3  0.9203887E-001  0.8291969E+02  0.7546771E-02  0.1320964E+00
          1   -1    0    0  501    0  0.00000000000E+00  0.00000000000E+00  0.57642949810E+03  0.57642949810E+03  0.00000000000E+00 0. -1.
         -1   -1    0    0    0  501 -0.00000000000E+00 -0.00000000000E+00 -0.13431473709E+02  0.13431473709E+02  0.00000000000E+00 0.  1.
         24    1    1    2    0    0  0.13118301887E+02 -0.15374306044E+02  0.18282569452E+03  0.20075086466E+03  0.80419002446E+02 0.  0.
        -24    1    1    2    0    0 -0.13118301887E+02  0.15374306044E+02  0.38017232988E+03  0.38911010715E+03  0.80419002446E+02 0.  0.
<mgrwt>
<rscale>  0 0.82919691E+02</rscale>
<asrwt>0</asrwt>
<pdfrwt beam="1">  1        1 0.88681442E-01 0.82919691E+02</pdfrwt>
<pdfrwt beam="2">  1       -1 0.20663810E-02 0.82919691E+02</pdfrwt>
<totfact> 0.21811316E+04</totfact>
</mgrwt>
</event>
<event>
 4    3  0.9203887E-001  0.8686198E+02  0.7546771E-02  0.1310634E+00
         -2   -1    0    0    0  501 -0.00000000000E+00  0.00000000000E+00  0.26481632893E+03  0.26481632893E+03  0.00000000000E+00 0.  1.
          2   -1    0    0  501    0  0.00000000000E+00 -0.00000000000E+00 -0.28493974212E+02  0.28493974212E+02  0.00000000000E+00 0. -1.
         24    1    1    2    0    0  0.32263127831E+02 -0.60724728223E+01  0.11954243577E+03  0.14776804204E+03  0.80419002446E+02 0.  0.
        -24    1    1    2    0    0 -0.32263127831E+02  0.60724728223E+01  0.11677991895E+03  0.14554226111E+03  0.80419002446E+02 0. -1.
<mgrwt>
<rscale>  0 0.86861972E+02</rscale>
<asrwt>0</asrwt>
<pdfrwt beam="1">  1        2 0.43836885E-02 0.86861983E+02</pdfrwt>
<pdfrwt beam="2">  1       -2 0.40740972E-01 0.86861983E+02</pdfrwt>
<totfact> 0.96517169E+03</totfact>
</mgrwt>
</event>
<event>
 4    3  0.9203887E-001  0.8989467E+02  0.7546771E-02  0.1303107E+00
          2   -1    0    0  501    0  0.00000000000E+00  0.00000000000E+00  0.36702163611E+03  0.36702163611E+03  0.00000000000E+00 0. -1.
         -2   -1    0    0    0  501 -0.00000000000E+00 -0.00000000000E+00 -0.22560726791E+02  0.22560726791E+02  0.00000000000E+00 0.  1.
         24    1    1    2    0    0  0.31934801607E+02  0.24372125063E+02  0.14201557480E+03  0.16807579086E+03  0.80419002446E+02 0.  0.
        -24    1    1    2    0    0 -0.31934801607E+02 -0.24372125063E+02  0.20244533451E+03  0.22150657204E+03  0.80419002446E+02 0.  1.
<mgrwt>
<rscale>  0 0.89894661E+02</rscale>
<asrwt>0</asrwt>
<pdfrwt beam="1">  1        2 0.56464863E-01 0.89894672E+02</pdfrwt>
<pdfrwt beam="2">  1       -2 0.34708813E-02 0.89894672E+02</pdfrwt>
<totfact> 0.26641020E+04</totfact>
</mgrwt>
</event>
<event>
 4    3  0.9203887E-001  0.1008967E+03  0.7546771E-02  0.1278422E+00
         -2   -1    0    0    0  501 -0.00000000000E+00  0.00000000000E+00  0.15365401210E+03  0.15365401210E+03  0.00000000000E+00 0.  1.
          2   -1    0    0  501    0  0.00000000000E+00 -0.00000000000E+00 -0.11803401944E+03  0.11803401944E+03  0.00000000000E+00 0. -1.
         24    1    1    2    0    0 -0.46174328948E+02  0.39759948095E+02 -0.72164518716E+02  0.12404779660E+03  0.80419002446E+02 0. -1.
        -24    1    1    2    0    0  0.46174328948E+02 -0.39759948095E+02  0.10778451137E+03  0.14764023493E+03  0.80419002446E+02 0.  1.
<mgrwt>
<rscale>  0 0.10089667E+03</rscale>
<asrwt>0</asrwt>
<pdfrwt beam="1">  1        2 0.18159080E-01 0.10089667E+03</pdfrwt>
<pdfrwt beam="2">  1       -2 0.23639079E-01 0.10089667E+03</pdfrwt>
<totfact> 0.45659466E+03</totfact>
</mgrwt>
</event>
<event>
 4    3  0.9203887E-001  0.8187987E+02  0.7546771E-02  0.1323800E+00
         -3   -1    0    0    0  501 -0.00000000000E+00  0.00000000000E+00  0.32793254710E+03  0.32793254710E+03  0.00000000000E+00 0.  1.
          3   -1    0    0  501    0  0.00000000000E+00 -0.00000000000E+00 -0.24537627816E+02  0.24537627816E+02  0.00000000000E+00 0. -1.
         24    1    1    2    0    0  0.15141391492E+02 -0.27990477127E+01  0.22367892200E+03  0.23819440066E+03  0.80419002446E+02 0.  1.
        -24    1    1    2    0    0 -0.15141391492E+02  0.27990477127E+01  0.79715997287E+02  0.11427577426E+03  0.80419002446E+02 0.  1.
<mgrwt>
<rscale>  0 0.81879865E+02</rscale>
<asrwt>0</asrwt>
<pdfrwt beam="1">  1        3 0.37750199E-02 0.81879865E+02</pdfrwt>
<pdfrwt beam="2">  1       -3 0.50451158E-01 0.81879865E+02</pdfrwt>
<totfact> 0.28807901E+03</totfact>
</mgrwt>
</event>
<event>
 4    3  0.9203887E-001  0.8550580E+02  0.7546771E-02  0.1314115E+00
          1   -1    0    0  501    0  0.00000000000E+00  0.00000000000E+00  0.97822330441E+03  0.97822330441E+03  0.00000000000E+00 0. -1.
         -1   -1    0    0    0  501 -0.00000000000E+00 -0.00000000000E+00 -0.98115168148E+01  0.98115168148E+01  0.00000000000E+00 0.  1.
         24    1    1    2    0    0 -0.16633213509E+02  0.23819354231E+02  0.24307574612E+03  0.25767626925E+03  0.80419002446E+02 0.  0.
        -24    1    1    2    0    0  0.16633213509E+02 -0.23819354231E+02  0.72533604147E+03  0.73035855198E+03  0.80419002446E+02 0. -1.
<mgrwt>
<rscale>  0 0.85505797E+02</rscale>
<asrwt>0</asrwt>
<pdfrwt beam="1">  1        1 0.15049582E+00 0.85505797E+02</pdfrwt>
<pdfrwt beam="2">  1       -1 0.15094649E-02 0.85505797E+02</pdfrwt>
<totfact> 0.15856184E+04</totfact>
</mgrwt>
</event>
<event>
 4    3  0.9203887E-001  0.8153449E+02  0.7546771E-02  0.1324752E+00
          2   -1    0    0  501    0  0.00000000000E+00  0.00000000000E+00  0.59475505141E+03  0.59475505141E+03  0.00000000000E+00 0. -1.
         -2   -1    0    0    0  501 -0.00000000000E+00 -0.00000000000E+00 -0.11873083363E+02  0.11873083363E+02  0.00000000000E+00 0.  1.
         24    1    1    2    0    0 -0.10533470470E+02  0.83488108848E+01  0.36485625931E+03  0.37385553701E+03  0.80419002446E+02 0.  0.
        -24    1    1    2    0    0  0.10533470470E+02 -0.83488108848E+01  0.21802570874E+03  0.23277259776E+03  0.80419002446E+02 0.  0.
<mgrwt>
<rscale>  0 0.81534487E+02</rscale>
<asrwt>0</asrwt>
<pdfrwt beam="1">  1        2 0.91500754E-01 0.81534487E+02</pdfrwt>
<pdfrwt beam="2">  1       -2 0.18266287E-02 0.81534487E+02</pdfrwt>
<totfact> 0.39676906E+04</totfact>
</mgrwt>
</event>
<event>
 4    3  0.9203887E-001  0.9001007E+02  0.7546771E-02  0.1302827E+00
         -2   -1    0    0    0  501 -0.00000000000E+00  0.00000000000E+00  0.49641643167E+02  0.49641643167E+02  0.00000000000E+00 0.  1.
          2   -1    0    0  501    0  0.00000000000E+00 -0.00000000000E+00 -0.24447996927E+03  0.24447996927E+03  0.00000000000E+00 0. -1.
         24    1    1    2    0    0 -0.35564770787E+02  0.19228708066E+02 -0.18221043306E+03  0.20323005193E+03  0.80419002446E+02 0. -1.
        -24    1    1    2    0    0  0.35564770787E+02 -0.19228708066E+02 -0.12627893042E+02  0.90891560511E+02  0.80419002446E+02 0.  1.
<mgrwt>
<rscale>  0 0.90010067E+02</rscale>
<asrwt>0</asrwt>
<pdfrwt beam="1">  1        2 0.37612303E-01 0.90010067E+02</pdfrwt>
<pdfrwt beam="2">  1       -2 0.76371759E-02 0.90010067E+02</pdfrwt>
<totfact> 0.12597014E+04</totfact>
</mgrwt>
</event>
<event>
 4    3  0.9203887E-001  0.8950764E+02  0.7546771E-02  0.1304048E+00
          1   -1    0    0  501    0  0.00000000000E+00  0.00000000000E+00  0.20928485282E+04  0.20928485282E+04  0.00000000000E+00 0. -1.
         -1   -1    0    0    0  501 -0.00000000000E+00 -0.00000000000E+00 -0.38485446301E+01  0.38485446301E+01  0.00000000000E+00 0.  1.
         24    1    1    2    0    0  0.31412610997E+02 -0.23614597330E+02  0.96807611702E+03  0.97220521786E+03  0.80419002446E+02 0.  1.
        -24    1    1    2    0    0 -0.31412610997E+02  0.23614597330E+02  0.11209238665E+04  0.11244918549E+04  0.80419002446E+02 0.  0.
<mgrwt>
<rscale>  0 0.89507638E+02</rscale>
<asrwt>0</asrwt>
<pdfrwt beam="1">  1        1 0.32197579E+00 0.89507638E+02</pdfrwt>
<pdfrwt beam="2">  1       -1 0.59208546E-03 0.89507638E+02</pdfrwt>
<totfact> 0.11263772E+04</totfact>
</mgrwt>
</event>
<event>
 4    3  0.9203887E-001  0.9033285E+02  0.7546771E-02  0.1302048E+00
         -2   -1    0    0    0  501 -0.00000000000E+00  0.00000000000E+00  0.12598621049E+03  0.12598621049E+03  0.00000000000E+00 0.  1.
          2   -1    0    0  501    0  0.00000000000E+00 -0.00000000000E+00 -0.10088839995E+04  0.10088839995E+04  0.00000000000E+00 0. -1.
         24    1    1    2    0    0  0.41112163697E+02  0.16116174186E+01 -0.99036755018E+03  0.99447871155E+03  0.80419002446E+02 0. -1.
        -24    1    1    2    0    0 -0.41112163697E+02 -0.16116174186E+01  0.10746976117E+03  0.14039149844E+03  0.80419002446E+02 0.  1.
<mgrwt>
<rscale>  0 0.90332847E+02</rscale>
<asrwt>0</asrwt>
<pdfrwt beam="1">  1        2 0.15521292E+00 0.90332847E+02</pdfrwt>
<pdfrwt beam="2">  1       -2 0.19382494E-01 0.90332847E+02</pdfrwt>
<totfact> 0.58825767E+02</totfact>
</mgrwt>
</event>
<event>
 4    3  0.9203887E-001  0.8199650E+02  0.7546771E-02  0.1323479E+00
          2   -1    0    0  501    0  0.00000000000E+00  0.00000000000E+00  0.86412390928E+03  0.86412390928E+03  0.00000000000E+00 0. -1.
         -2   -1    0    0    0  501 -0.00000000000E+00 -0.00000000000E+00 -0.91312763346E+01  0.91312763346E+01  0.00000000000E+00 0.  1.
         24    1    1    2    0    0 -0.10086036358E+02  0.12429058509E+02  0.59542186824E+03  0.60104128540E+03  0.80419002446E+02 0. -1.
        -24    1    1    2    0    0  0.10086036358E+02 -0.12429058509E+02  0.25957076470E+03  0.27221390021E+03  0.80419002446E+02 0.  1.
<mgrwt>
<rscale>  0 0.81996497E+02</rscale>
<asrwt>0</asrwt>
<pdfrwt beam="1">  1        2 0.13294208E+00 0.81996497E+02</pdfrwt>
<pdfrwt beam="2">  1       -2 0.14048124E-02 0.81996497E+02</pdfrwt>
<totfact> 0.37220098E+04</totfact>
</mgrwt>
</event>
<event>
 4    3  0.9203887E-001  0.8665411E+02  0.7546771E-02  0.1311163E+00
          2   -1    0    0  501    0  0.00000000000E+00  0.00000000000E+00  0.82029919898E+03  0.82029919898E+03  0.00000000000E+00 0. -1.
         -2   -1    0    0    0  501 -0.00000000000E+00 -0.00000000000E+00 -0.37900914348E+02  0.37900914348E+02  0.00000000000E+00 0.  1.
         24    1    1    2    0    0  0.11949136495E+02 -0.29982266687E+02  0.76490518992E+03  0.76979794992E+03  0.80419002446E+02 0. -1.
        -24    1    1    2    0    0 -0.11949136495E+02  0.29982266687E+02  0.17493094713E+02  0.88402163411E+02  0.80419002446E+02 0.  1.
<mgrwt>
<rscale>  0 0.86654106E+02</rscale>
<asrwt>0</asrwt>
<pdfrwt beam="1">  1        2 0.12619986E+00 0.86654106E+02</pdfrwt>
<pdfrwt beam="2">  1       -2 0.58309105E-02 0.86654106E+02</pdfrwt>
<totfact> 0.50519661E+03</totfact>
</mgrwt>
</event>
<event>
 4    3  0.9203887E-001  0.9237995E+02  0.7546771E-02  0.1297189E+00
         -3   -1    0    0    0  501 -0.00000000000E+00  0.00000000000E+00  0.95341091817E+03  0.95341091817E+03  0.00000000000E+00 0.  1.
          3   -1    0    0  501    0  0.00000000000E+00 -0.00000000000E+00 -0.12357547719E+02  0.12357547719E+02  0.00000000000E+00 0. -1.
         24    1    1    2    0    0  0.45322538153E+02  0.35645869833E+01  0.72405659189E+03  0.72992602568E+03  0.80419002446E+02 0.  1.
        -24    1    1    2    0    0 -0.45322538153E+02 -0.35645869833E+01  0.21699677855E+03  0.23584244021E+03  0.80419002446E+02 0. -1.
<mgrwt>
<rscale>  0 0.92379947E+02</rscale>
<asrwt>0</asrwt>
<pdfrwt beam="1">  1        3 0.19011619E-02 0.92379947E+02</pdfrwt>
<pdfrwt beam="2">  1       -3 0.14667854E+00 0.92379947E+02</pdfrwt>
<totfact> 0.81178254E+02</totfact>
</mgrwt>
</event>
<event>
 4    3  0.9203887E-001  0.9662395E+02  0.7546771E-02  0.1287560E+00
          2   -1    0    0  501    0  0.00000000000E+00  0.00000000000E+00  0.52173735165E+03  0.52173735165E+03  0.00000000000E+00 0. -1.
         -2   -1    0    0    0  501 -0.00000000000E+00 -0.00000000000E+00 -0.24585080779E+02  0.24585080779E+02  0.00000000000E+00 0.  1.
         24    1    1    2    0    0  0.52524315869E+02  0.10496103133E+02  0.39107706151E+03  0.40283676090E+03  0.80419002446E+02 0. -1.
        -24    1    1    2    0    0 -0.52524315869E+02 -0.10496103133E+02  0.10607520936E+03  0.14348567152E+03  0.80419002446E+02 0.  1.
<mgrwt>
<rscale>  0 0.96623951E+02</rscale>
<asrwt>0</asrwt>
<pdfrwt beam="1">  1        2 0.80267276E-01 0.96623951E+02</pdfrwt>
<pdfrwt beam="2">  1       -2 0.37823205E-02 0.96623951E+02</pdfrwt>
<totfact> 0.16268236E+04</totfact>
</mgrwt>
</event>
<event>
 4    3  0.9203887E-001  0.1154424E+03  0.7546771E-02  0.1250811E+00
         -1   -1    0    0    0  501 -0.00000000000E+00  0.00000000000E+00  0.12142362881E+02  0.12142362881E+02  0.00000000000E+00 0.  1.
          1   -1    0    0  501    0  0.00000000000E+00 -0.00000000000E+00 -0.11575371251E+04  0.11575371251E+04  0.00000000000E+00 0. -1.
         24    1    1    2    0    0 -0.63768507867E+02 -0.52851757890E+02 -0.43956929972E+03  0.45447564964E+03  0.80419002446E+02 0.  1.
        -24    1    1    2    0    0  0.63768507867E+02  0.52851757890E+02 -0.70582546250E+03  0.71520383834E+03  0.80419002446E+02 0. -1.
<mgrwt>
<rscale>  0 0.11544240E+03</rscale>
<asrwt>0</asrwt>
<pdfrwt beam="1">  1        1 0.17808269E+00 0.11544240E+03</pdfrwt>
<pdfrwt beam="2">  1       -1 0.18680552E-02 0.11544240E+03</pdfrwt>
<totfact> 0.89320090E+03</totfact>
</mgrwt>
</event>
<event>
 4    3  0.9203887E-001  0.8510293E+02  0.7546771E-02  0.1315164E+00
          2   -1    0    0  501    0  0.00000000000E+00  0.00000000000E+00  0.31232415021E+02  0.31232415021E+02  0.00000000000E+00 0. -1.
         -2   -1    0    0    0  501 -0.00000000000E+00 -0.00000000000E+00 -0.28142091123E+03  0.28142091123E+03  0.00000000000E+00 0.  1.
         24    1    1    2    0    0 -0.18072188444E+02 -0.21182255206E+02 -0.59511474103E+02  0.10384663420E+03  0.80419002446E+02 0. -1.
        -24    1    1    2    0    0  0.18072188444E+02  0.21182255206E+02 -0.19067702211E+03  0.20880669205E+03  0.80419002446E+02 0.  1.
<mgrwt>
<rscale>  0 0.85102925E+02</rscale>
<asrwt>0</asrwt>
<pdfrwt beam="1">  1        2 0.48049870E-02 0.85102925E+02</pdfrwt>
<pdfrwt beam="2">  1       -2 0.43295525E-01 0.85102925E+02</pdfrwt>
<totfact> 0.76223171E+03</totfact>
</mgrwt>
</event>
<event>
 4    3  0.9203887E-001  0.8734621E+02  0.7546771E-02  0.1309409E+00
         -2   -1    0    0    0  501 -0.00000000000E+00  0.00000000000E+00  0.11106042638E+03  0.11106042638E+03  0.00000000000E+00 0.  1.
          2   -1    0    0  501    0  0.00000000000E+00 -0.00000000000E+00 -0.12227931425E+03  0.12227931425E+03  0.00000000000E+00 0. -1.
         24    1    1    2    0    0  0.22288533607E+02 -0.25794671323E+02 -0.82841701499E+02  0.12038316851E+03  0.80419002446E+02 0. -1.
        -24    1    1    2    0    0 -0.22288533607E+02  0.25794671323E+02  0.71622813625E+02  0.11295657212E+03  0.80419002446E+02 0.  1.
<mgrwt>
<rscale>  0 0.87346206E+02</rscale>
<asrwt>0</asrwt>
<pdfrwt beam="1">  1        2 0.18812202E-01 0.87346206E+02</pdfrwt>
<pdfrwt beam="2">  1       -2 0.17086220E-01 0.87346206E+02</pdfrwt>
<totfact> 0.74819490E+03</totfact>
</mgrwt>
</event>
<event>
 4    3  0.9203887E-001  0.1109535E+03  0.7546771E-02  0.1258814E+00
          2   -1    0    0  501    0  0.00000000000E+00  0.00000000000E+00  0.46207161010E+02  0.46207161010E+02  0.00000000000E+00 0. -1.
         -2   -1    0    0    0  501 -0.00000000000E+00 -0.00000000000E+00 -0.30530249575E+03  0.30530249575E+03  0.00000000000E+00 0.  1.
         24    1    1    2    0    0 -0.57336669967E+02 -0.50556556842E+02 -0.66828624972E+02  0.12952505639E+03  0.80419002446E+02 0. -1.
        -24    1    1    2    0    0  0.57336669967E+02  0.50556556842E+02 -0.19226670977E+03  0.22198460037E+03  0.80419002446E+02 0.  1.
<mgrwt>
<rscale>  0 0.11095348E+03</rscale>
<asrwt>0</asrwt>
<pdfrwt beam="1">  1        2 0.71087942E-02 0.11095348E+03</pdfrwt>
<pdfrwt beam="2">  1       -2 0.46969614E-01 0.11095348E+03</pdfrwt>
<totfact> 0.40464696E+03</totfact>
</mgrwt>
</event>
<event>
 4    3  0.9203887E-001  0.8400356E+02  0.7546771E-02  0.1318059E+00
          2   -1    0    0  501    0  0.00000000000E+00  0.00000000000E+00  0.83652999914E+03  0.83652999914E+03  0.00000000000E+00 0. -1.
         -2   -1    0    0    0  501 -0.00000000000E+00 -0.00000000000E+00 -0.86920689681E+01  0.86920689681E+01  0.00000000000E+00 0.  1.
         24    1    1    2    0    0 -0.22963015476E+02  0.78791888614E+01  0.48651817451E+03  0.49371705640E+03  0.80419002446E+02 0. -1.
        -24    1    1    2    0    0  0.22963015476E+02 -0.78791888614E+01  0.34131975566E+03  0.35150501171E+03  0.80419002446E+02 0.  1.
<mgrwt>
<rscale>  0 0.84003557E+02</rscale>
<asrwt>0</asrwt>
<pdfrwt beam="1">  1        2 0.12869686E+00 0.84003557E+02</pdfrwt>
<pdfrwt beam="2">  1       -2 0.13372420E-02 0.84003557E+02</pdfrwt>
<totfact> 0.41678897E+04</totfact>
</mgrwt>
</event>
<event>
 4    3  0.9203887E-001  0.8407480E+02  0.7546771E-02  0.1317870E+00
         -1   -1    0    0    0  501 -0.00000000000E+00  0.00000000000E+00  0.33811978688E+01  0.33811978688E+01  0.00000000000E+00 0.  1.
          1   -1    0    0  501    0  0.00000000000E+00 -0.00000000000E+00 -0.29760439022E+04  0.29760439022E+04  0.00000000000E+00 0. -1.
         24    1    1    2    0    0 -0.24007510288E+02 -0.49995215066E+01 -0.67373479207E+03  0.67896033888E+03  0.80419002446E+02 0.  0.
        -24    1    1    2    0    0  0.24007510288E+02  0.49995215066E+01 -0.22989279122E+04  0.23004647612E+04  0.80419002446E+02 0.  1.
<mgrwt>
<rscale>  0 0.84074798E+02</rscale>
<asrwt>0</asrwt>
<pdfrwt beam="1">  1        1 0.45785371E+00 0.84074798E+02</pdfrwt>
<pdfrwt beam="2">  1       -1 0.52018337E-03 0.84074798E+02</pdfrwt>
<totfact> 0.36139119E+03</totfact>
</mgrwt>
</event>
<event>
 4    3  0.9203887E-001  0.8510265E+02  0.7546771E-02  0.1315164E+00
          2   -1    0    0  501    0  0.00000000000E+00  0.00000000000E+00  0.99177369849E+02  0.99177369849E+02  0.00000000000E+00 0. -1.
         -2   -1    0    0    0  501 -0.00000000000E+00 -0.00000000000E+00 -0.80286630664E+02  0.80286630664E+02  0.00000000000E+00 0.  1.
         24    1    1    2    0    0  0.27658508912E+02 -0.32011904012E+01 -0.17540349136E+02  0.86891429597E+02  0.80419002446E+02 0.  0.
        -24    1    1    2    0    0 -0.27658508912E+02  0.32011904012E+01  0.36431088321E+02  0.92572570915E+02  0.80419002446E+02 0. -1.
<mgrwt>
<rscale>  0 0.85102635E+02</rscale>
<asrwt>0</asrwt>
<pdfrwt beam="1">  1        2 0.15258057E-01 0.85102646E+02</pdfrwt>
<pdfrwt beam="2">  1       -2 0.12351789E-01 0.85102646E+02</pdfrwt>
<totfact> 0.15969660E+04</totfact>
</mgrwt>
</event>
<event>
 4    3  0.9203887E-001  0.8906910E+02  0.7546771E-02  0.1305122E+00
          2   -1    0    0  501    0  0.00000000000E+00  0.00000000000E+00  0.28787617418E+04  0.28787617418E+04  0.00000000000E+00 0. -1.
         -2   -1    0    0    0  501 -0.00000000000E+00 -0.00000000000E+00 -0.97948831106E+01  0.97948831106E+01  0.00000000000E+00 0.  1.
         24    1    1    2    0    0  0.25720530298E+02  0.28364462321E+02  0.26588435371E+04  0.26603349900E+04  0.80419002446E+02 0. -1.
        -24    1    1    2    0    0 -0.25720530298E+02 -0.28364462321E+02  0.21012332160E+03  0.22822163490E+03  0.80419002446E+02 0.  1.
<mgrwt>
<rscale>  0 0.89069099E+02</rscale>
<asrwt>0</asrwt>
<pdfrwt beam="1">  1        2 0.44288574E+00 0.89069099E+02</pdfrwt>
<pdfrwt beam="2">  1       -2 0.15069074E-02 0.89069099E+02</pdfrwt>
<totfact> 0.29352219E+03</totfact>
</mgrwt>
</event>
<event>
 4    3  0.9203887E-001  0.8887506E+02  0.7546771E-02  0.1305599E+00
          2   -1    0    0  501    0  0.00000000000E+00  0.00000000000E+00  0.29995605484E+02  0.29995605484E+02  0.00000000000E+00 0. -1.
         -2   -1    0    0    0  501 -0.00000000000E+00 -0.00000000000E+00 -0.26587649597E+03  0.26587649597E+03  0.00000000000E+00 0.  1.
         24    1    1    2    0    0  0.27587145500E+02 -0.25894217529E+02 -0.10346579345E+03  0.13639628832E+03  0.80419002446E+02 0. -1.
        -24    1    1    2    0    0 -0.27587145500E+02  0.25894217529E+02 -0.13241509703E+03  0.15947581313E+03  0.80419002446E+02 0.  1.
<mgrwt>
<rscale>  0 0.88875064E+02</rscale>
<asrwt>0</asrwt>
<pdfrwt beam="1">  1        2 0.46147087E-02 0.88875064E+02</pdfrwt>
<pdfrwt beam="2">  1       -2 0.40904075E-01 0.88875064E+02</pdfrwt>
<totfact> 0.89841016E+03</totfact>
</mgrwt>
</event>
<event>
 4    3  0.9203887E-001  0.8256443E+02  0.7546771E-02  0.1321928E+00
          2   -1    0    0  501    0  0.00000000000E+00  0.00000000000E+00  0.67652474435E+02  0.67652474435E+02  0.00000000000E+00 0. -1.
         -2   -1    0    0    0  501 -0.00000000000E+00 -0.00000000000E+00 -0.13038895892E+03  0.13038895892E+03  0.00000000000E+00 0.  1.
         24    1    1    2    0    0 -0.99839685358E+01  0.15811079929E+02  0.15831512997E+02  0.84068559131E+02  0.80419002446E+02 0.  0.
        -24    1    1    2    0    0  0.99839685358E+01 -0.15811079929E+02 -0.78567997482E+02  0.11397287422E+03  0.80419002446E+02 0.  0.
<mgrwt>
<rscale>  0 0.82564434E+02</rscale>
<asrwt>0</asrwt>
<pdfrwt beam="1">  1        2 0.10408073E-01 0.82564434E+02</pdfrwt>
<pdfrwt beam="2">  1       -2 0.20059840E-01 0.82564434E+02</pdfrwt>
<totfact> 0.11359652E+04</totfact>
</mgrwt>
</event>
<event>
 4    3  0.9203887E-001  0.8517160E+02  0.7546771E-02  0.1314984E+00
          2   -1    0    0  501    0  0.00000000000E+00  0.00000000000E+00  0.41895569566E+03  0.41895569566E+03  0.00000000000E+00 0. -1.
         -2   -1    0    0    0  501 -0.00000000000E+00 -0.00000000000E+00 -0.13184173687E+03  0.13184173687E+03  0.00000000000E+00 0.  1.
         24    1    1    2    0    0  0.28036351141E+02 -0.97382300681E+00  0.40023517178E+03  0.40919725562E+03  0.80419002446E+02 0. -1.
        -24    1    1    2    0    0 -0.28036351141E+02  0.97382300681E+00 -0.11312121300E+03  0.14160017691E+03  0.80419002446E+02 0.  1.
<mgrwt>
<rscale>  0 0.85171599E+02</rscale>
<asrwt>0</asrwt>
<pdfrwt beam="1">  1        2 0.64454722E-01 0.85171599E+02</pdfrwt>
<pdfrwt beam="2">  1       -2 0.20283344E-01 0.85171599E+02</pdfrwt>
<totfact> 0.15118605E+03</totfact>
</mgrwt>
</event>
<event>
 4    3  0.9203887E-001  0.8758176E+02  0.7546771E-02  0.1308816E+00
          1   -1    0    0  501    0  0.00000000000E+00  0.00000000000E+00  0.15698172075E+03  0.15698172075E+03  0.00000000000E+00 0. -1.
         -1   -1    0    0    0  501 -0.00000000000E+00 -0.00000000000E+00 -0.52688805853E+02  0.52688805853E+02  0.00000000000E+00 0.  1.
         24    1    1    2    0    0 -0.18178574183E+02 -0.29544685255E+02  0.23896255023E+02  0.90783236033E+02  0.80419002446E+02 0.  1.
        -24    1    1    2    0    0  0.18178574183E+02  0.29544685255E+02  0.80396659877E+02  0.11888729057E+03  0.80419002446E+02 0. -1.
<mgrwt>
<rscale>  0 0.87581761E+02</rscale>
<asrwt>0</asrwt>
<pdfrwt beam="1">  1        1 0.24151034E-01 0.87581761E+02</pdfrwt>
<pdfrwt beam="2">  1       -1 0.81059702E-02 0.87581761E+02</pdfrwt>
<totfact> 0.15079919E+04</totfact>
</mgrwt>
</event>
<event>
 4    3  0.9203887E-001  0.1631171E+03  0.7546771E-02  0.1185222E+00
          1   -1    0    0  501    0  0.00000000000E+00  0.00000000000E+00  0.17018708295E+04  0.17018708295E+04  0.00000000000E+00 0. -1.
         -1   -1    0    0    0  501 -0.00000000000E+00 -0.00000000000E+00 -0.19337215634E+02  0.19337215634E+02  0.00000000000E+00 0.  1.
         24    1    1    2    0    0 -0.71728604631E+02  0.12245397759E+03  0.46465737685E+03  0.49245676274E+03  0.80419002446E+02 0.  1.
        -24    1    1    2    0    0  0.71728604631E+02 -0.12245397759E+03  0.12178762370E+04  0.12287512824E+04  0.80419002446E+02 0. -1.
<mgrwt>
<rscale>  0 0.16311709E+03</rscale>
<asrwt>0</asrwt>
<pdfrwt beam="1">  1        1 0.26182616E+00 0.16311709E+03</pdfrwt>
<pdfrwt beam="2">  1       -1 0.29749576E-02 0.16311709E+03</pdfrwt>
<totfact> 0.20153174E+03</totfact>
</mgrwt>
</event>
<event>
 4    3  0.9203887E-001  0.1055933E+03  0.7546771E-02  0.1268955E+00
         -1   -1    0    0    0  501 -0.00000000000E+00  0.00000000000E+00  0.57632674042E+03  0.57632674042E+03  0.00000000000E+00 0.  1.
          1   -1    0    0  501    0  0.00000000000E+00 -0.00000000000E+00 -0.61390491505E+02  0.61390491505E+02  0.00000000000E+00 0. -1.
         24    1    1    2    0    0  0.56437507922E+02 -0.38698129981E+02  0.52134366686E+03  0.53192966875E+03  0.80419002446E+02 0.  1.
        -24    1    1    2    0    0 -0.56437507922E+02  0.38698129981E+02 -0.64074179421E+01  0.10578756318E+03  0.80419002446E+02 0. -1.
<mgrwt>
<rscale>  0 0.10559334E+03</rscale>
<asrwt>0</asrwt>
<pdfrwt beam="1">  1        1 0.94446914E-02 0.10559334E+03</pdfrwt>
<pdfrwt beam="2">  1       -1 0.88665649E-01 0.10559334E+03</pdfrwt>
<totfact> 0.89230120E+02</totfact>
</mgrwt>
</event>
<event>
 4    3  0.9203887E-001  0.9252421E+02  0.7546771E-02  0.1296852E+00
         -1   -1    0    0    0  501 -0.00000000000E+00  0.00000000000E+00  0.22170755236E+03  0.22170755236E+03  0.00000000000E+00 0.  1.
          1   -1    0    0  501    0  0.00000000000E+00 -0.00000000000E+00 -0.46252866750E+02  0.46252866750E+02  0.00000000000E+00 0. -1.
         24    1    1    2    0    0 -0.35127143847E+02 -0.29318892797E+02  0.14218042019E+03  0.16963490664E+03  0.80419002446E+02 0.  1.
        -24    1    1    2    0    0  0.35127143847E+02  0.29318892797E+02  0.33274265421E+02  0.98325512475E+02  0.80419002446E+02 0. -1.
<mgrwt>
<rscale>  0 0.92524211E+02</rscale>
<asrwt>0</asrwt>
<pdfrwt beam="1">  1        1 0.71158258E-02 0.92524211E+02</pdfrwt>
<pdfrwt beam="2">  1       -1 0.34108854E-01 0.92524211E+02</pdfrwt>
<totfact> 0.76419651E+03</totfact>
</mgrwt>
</event>
<event>
 4    3  0.9203887E-001  0.8193172E+02  0.7546771E-02  0.1323657E+00
         -2   -1    0    0    0  501 -0.00000000000E+00  0.00000000000E+00  0.55431250912E+02  0.55431250912E+02  0.00000000000E+00 0.  1.
          2   -1    0    0  501    0  0.00000000000E+00 -0.00000000000E+00 -0.14511470100E+03  0.14511470100E+03  0.00000000000E+00 0. -1.
         24    1    1    2    0    0 -0.14967412420E+02 -0.46440988051E+01 -0.85631689134E+02  0.11851410560E+03  0.80419002446E+02 0. -1.
        -24    1    1    2    0    0  0.14967412420E+02  0.46440988051E+01 -0.40517609562E+01  0.82031846313E+02  0.80419002446E+02 0.  1.
<mgrwt>
<rscale>  0 0.81931722E+02</rscale>
<asrwt>0</asrwt>
<pdfrwt beam="1">  1        2 0.22325339E-01 0.81931722E+02</pdfrwt>
<pdfrwt beam="2">  1       -2 0.85278848E-02 0.81931722E+02</pdfrwt>
<totfact> 0.18442424E+04</totfact>
</mgrwt>
</event>
<event>
 4    3  0.9203887E-001  0.8965401E+02  0.7546771E-02  0.1303692E+00
         -2   -1    0    0    0  501 -0.00000000000E+00  0.00000000000E+00  0.85185541442E+01  0.85185541442E+01  0.00000000000E+00 0.  1.
          2   -1    0    0  501    0  0.00000000000E+00 -0.00000000000E+00 -0.26152406530E+04  0.26152406530E+04  0.00000000000E+00 0. -1.
         24    1    1    2    0    0 -0.39485325881E+02 -0.33961378546E+01 -0.23522117790E+04  0.23539197297E+04  0.80419002446E+02 0. -1.
        -24    1    1    2    0    0  0.39485325881E+02  0.33961378546E+01 -0.25451031984E+03  0.26983947741E+03  0.80419002446E+02 0.  1.
<mgrwt>
<rscale>  0 0.89654005E+02</rscale>
<asrwt>0</asrwt>
<pdfrwt beam="1">  1        2 0.40234539E+00 0.89654005E+02</pdfrwt>
<pdfrwt beam="2">  1       -2 0.13105446E-02 0.89654005E+02</pdfrwt>
<totfact> 0.49812076E+03</totfact>
</mgrwt>
</event>
<event>
 4    3  0.9203887E-001  0.1476098E+03  0.7546771E-02  0.1203441E+00
          2   -1    0    0  501    0  0.00000000000E+00  0.00000000000E+00  0.12279867530E+03  0.12279867530E+03  0.00000000000E+00 0. -1.
         -2   -1    0    0    0  501 -0.00000000000E+00 -0.00000000000E+00 -0.18219152103E+03  0.18219152103E+03  0.00000000000E+00 0.  1.
         24    1    1    2    0    0  0.10158138242E+03  0.70729487714E+02 -0.54338912450E+02  0.15729390022E+03  0.80419002446E+02 0. -1.
        -24    1    1    2    0    0 -0.10158138242E+03 -0.70729487714E+02 -0.50539332813E+01  0.14769629610E+03  0.80419002446E+02 0.  0.
<mgrwt>
<rscale>  0 0.14760982E+03</rscale>
<asrwt>0</asrwt>
<pdfrwt beam="1">  1        2 0.18892104E-01 0.14760984E+03</pdfrwt>
<pdfrwt beam="2">  1       -2 0.28029465E-01 0.14760984E+03</pdfrwt>
<totfact> 0.33169813E+03</totfact>
</mgrwt>
</event>
<event>
 4    3  0.9203887E-001  0.8447446E+02  0.7546771E-02  0.1316813E+00
         -1   -1    0    0    0  501 -0.00000000000E+00  0.00000000000E+00  0.17438530568E+02  0.17438530568E+02  0.00000000000E+00 0.  1.
          1   -1    0    0  501    0  0.00000000000E+00 -0.00000000000E+00 -0.52646942375E+03  0.52646942375E+03  0.00000000000E+00 0. -1.
         24    1    1    2    0    0  0.16178687809E+02 -0.20173465743E+02 -0.12616662105E+03  0.15183527548E+03  0.80419002446E+02 0.  1.
        -24    1    1    2    0    0 -0.16178687809E+02  0.20173465743E+02 -0.38286427214E+03  0.39207267884E+03  0.80419002446E+02 0. -1.
<mgrwt>
<rscale>  0 0.84474461E+02</rscale>
<asrwt>0</asrwt>
<pdfrwt beam="1">  1        1 0.80995298E-01 0.84474461E+02</pdfrwt>
<pdfrwt beam="2">  1       -1 0.26828508E-02 0.84474461E+02</pdfrwt>
<totfact> 0.16943091E+04</totfact>
</mgrwt>
</event>
<event>
 4    3  0.9203887E-001  0.9882985E+02  0.7546771E-02  0.1282776E+00
          2   -1    0    0  501    0  0.00000000000E+00  0.00000000000E+00  0.23175856012E+04  0.23175856012E+04  0.00000000000E+00 0. -1.
         -2   -1    0    0    0  501 -0.00000000000E+00 -0.00000000000E+00 -0.42230347486E+01  0.42230347486E+01  0.00000000000E+00 0.  1.
         24    1    1    2    0    0  0.34791775712E+02 -0.45712689230E+02  0.11043197574E+04  0.11087332683E+04  0.80419002446E+02 0. -1.
        -24    1    1    2    0    0 -0.34791775712E+02  0.45712689230E+02  0.12090428090E+04  0.12130753677E+04  0.80419002446E+02 0.  1.
<mgrwt>
<rscale>  0 0.98829834E+02</rscale>
<asrwt>0</asrwt>
<pdfrwt beam="1">  1        2 0.35655062E+00 0.98829846E+02</pdfrwt>
<pdfrwt beam="2">  1       -2 0.64969950E-03 0.98829846E+02</pdfrwt>
<totfact> 0.19310455E+04</totfact>
</mgrwt>
</event>
<event>
 4    3  0.9203887E-001  0.8063036E+02  0.7546771E-02  0.1327272E+00
          1   -1    0    0  501    0  0.00000000000E+00  0.00000000000E+00  0.36475578866E+03  0.36475578866E+03  0.00000000000E+00 0. -1.
         -1   -1    0    0    0  501 -0.00000000000E+00 -0.00000000000E+00 -0.48920208233E+02  0.48920208233E+02  0.00000000000E+00 0.  1.
         24    1    1    2    0    0 -0.29771772780E+01  0.50174389070E+01 -0.69906272304E+01  0.80932830799E+02  0.80419002446E+02 0.  1.
        -24    1    1    2    0    0  0.29771772780E+01 -0.50174389070E+01  0.32282620766E+03  0.33274316610E+03  0.80419002446E+02 0.  0.
<mgrwt>
<rscale>  0 0.80630356E+02</rscale>
<asrwt>0</asrwt>
<pdfrwt beam="1">  1        1 0.56116273E-01 0.80630356E+02</pdfrwt>
<pdfrwt beam="2">  1       -1 0.75261861E-02 0.80630356E+02</pdfrwt>
<totfact> 0.59612296E+03</totfact>
</mgrwt>
</event>
<event>
 4    3  0.9203887E-001  0.1247583E+03  0.7546771E-02  0.1235448E+00
          1   -1    0    0  501    0  0.00000000000E+00  0.00000000000E+00  0.10952052630E+04  0.10952052630E+04  0.00000000000E+00 0. -1.
         -1   -1    0    0    0  501 -0.00000000000E+00 -0.00000000000E+00 -0.18577239546E+02  0.18577239546E+02  0.00000000000E+00 0.  1.
         24    1    1    2    0    0  0.94858371548E+02 -0.99650853767E+01  0.26835161891E+03  0.29593448752E+03  0.80419002446E+02 0.  1.
        -24    1    1    2    0    0 -0.94858371548E+02  0.99650853767E+01  0.80827640453E+03  0.81784801501E+03  0.80419002446E+02 0. -1.
<mgrwt>
<rscale>  0 0.12475828E+03</rscale>
<asrwt>0</asrwt>
<pdfrwt beam="1">  1        1 0.16849307E+00 0.12475828E+03</pdfrwt>
<pdfrwt beam="2">  1       -1 0.28580377E-02 0.12475828E+03</pdfrwt>
<totfact> 0.53645575E+03</totfact>
</mgrwt>
</event>
<event>
 4    3  0.9203887E-001  0.9393761E+02  0.7546771E-02  0.1293587E+00
          2   -1    0    0  501    0  0.00000000000E+00  0.00000000000E+00  0.35230554584E+03  0.35230554584E+03  0.00000000000E+00 0. -1.
         -2   -1    0    0    0  501 -0.00000000000E+00 -0.00000000000E+00 -0.11390260828E+03  0.11390260828E+03  0.00000000000E+00 0.  1.
         24    1    1    2    0    0 -0.43821360975E+02  0.20898513495E+02  0.32508656638E+03  0.33838668877E+03  0.80419002446E+02 0. -1.
        -24    1    1    2    0    0  0.43821360975E+02 -0.20898513495E+02 -0.86683628820E+02  0.12782146535E+03  0.80419002446E+02 0.  1.
<mgrwt>
<rscale>  0 0.93937615E+02</rscale>
<asrwt>0</asrwt>
<pdfrwt beam="1">  1        2 0.54200853E-01 0.93937615E+02</pdfrwt>
<pdfrwt beam="2">  1       -2 0.17523478E-01 0.93937615E+02</pdfrwt>
<totfact> 0.23218591E+03</totfact>
</mgrwt>
</event>
<event>
 4    3  0.9203887E-001  0.8321208E+02  0.7546771E-02  0.1320175E+00
         -1   -1    0    0    0  501 -0.00000000000E+00  0.00000000000E+00  0.55098336753E+02  0.55098336753E+02  0.00000000000E+00 0.  1.
          1   -1    0    0  501    0  0.00000000000E+00 -0.00000000000E+00 -0.13216469174E+03  0.13216469174E+03  0.00000000000E+00 0. -1.
         24    1    1    2    0    0 -0.11079003152E+02 -0.18283620564E+02 -0.17778429728E+02  0.85090091137E+02  0.80419002446E+02 0.  1.
        -24    1    1    2    0    0  0.11079003152E+02  0.18283620564E+02 -0.59287925257E+02  0.10217293735E+03  0.80419002446E+02 0. -1.
<mgrwt>
<rscale>  0 0.83212085E+02</rscale>
<asrwt>0</asrwt>
<pdfrwt beam="1">  1        1 0.20333029E-01 0.83212085E+02</pdfrwt>
<pdfrwt beam="2">  1       -1 0.84766673E-02 0.83212085E+02</pdfrwt>
<totfact> 0.17380879E+04</totfact>
</mgrwt>
</event>
<event>
 4    3  0.9203887E-001  0.1274679E+03  0.7546771E-02  0.1231262E+00
         -2   -1    0    0    0  501 -0.00000000000E+00  0.00000000000E+00  0.81075751817E+02  0.81075751817E+02  0.00000000000E+00 0.  1.
          2   -1    0    0  501    0  0.00000000000E+00 -0.00000000000E+00 -0.21489418499E+03  0.21489418499E+03  0.00000000000E+00 0. -1.
         24    1    1    2    0    0 -0.88070321831E+02 -0.44994167482E+02 -0.10533398346E+03  0.16535815892E+03  0.80419002446E+02 0. -1.
        -24    1    1    2    0    0  0.88070321831E+02  0.44994167482E+02 -0.28484449720E+02  0.13061177790E+03  0.80419002446E+02 0.  1.
<mgrwt>
<rscale>  0 0.12746793E+03</rscale>
<asrwt>0</asrwt>
<pdfrwt beam="1">  1        2 0.33060643E-01 0.12746793E+03</pdfrwt>
<pdfrwt beam="2">  1       -2 0.12473193E-01 0.12746793E+03</pdfrwt>
<totfact> 0.69162992E+03</totfact>
</mgrwt>
</event>
<event>
 4    3  0.9203887E-001  0.9363047E+02  0.7546771E-02  0.1294291E+00
         -2   -1    0    0    0  501 -0.00000000000E+00  0.00000000000E+00  0.44238035572E+02  0.44238035572E+02  0.00000000000E+00 0.  1.
          2   -1    0    0  501    0  0.00000000000E+00 -0.00000000000E+00 -0.26214558753E+03  0.26214558753E+03  0.00000000000E+00 0. -1.
         24    1    1    2    0    0 -0.46022124866E+02 -0.13468989554E+02 -0.18463189609E+03  0.20701594785E+03  0.80419002446E+02 0. -1.
        -24    1    1    2    0    0  0.46022124866E+02  0.13468989554E+02 -0.33275655868E+02  0.99367675250E+02  0.80419002446E+02 0.  1.
<mgrwt>
<rscale>  0 0.93630474E+02</rscale>
<asrwt>0</asrwt>
<pdfrwt beam="1">  1        2 0.40330089E-01 0.93630474E+02</pdfrwt>
<pdfrwt beam="2">  1       -2 0.68058518E-02 0.93630474E+02</pdfrwt>
<totfact> 0.13996326E+04</totfact>
</mgrwt>
</event>
<event>
 4    3  0.9203887E-001  0.8049879E+02  0.7546771E-02  0.1327642E+00
          1   -1    0    0  501    0  0.00000000000E+00  0.00000000000E+00  0.16995588386E+04  0.16995588386E+04  0.00000000000E+00 0. -1.
         -1   -1    0    0    0  501 -0.00000000000E+00 -0.00000000000E+00 -0.74057587986E+01  0.74057587986E+01  0.00000000000E+00 0.  1.
         24    1    1    2    0    0 -0.21232574192E+01  0.28862530969E+01  0.25159731241E+03  0.26416143217E+03  0.80419002446E+02 0.  1.
        -24    1    1    2    0    0  0.21232574192E+01 -0.28862530969E+01  0.14405557674E+04  0.14428031652E+04  0.80419002446E+02 0.  0.
<mgrwt>
<rscale>  0 0.80498787E+02</rscale>
<asrwt>0</asrwt>
<pdfrwt beam="1">  1        1 0.26147028E+00 0.80498787E+02</pdfrwt>
<pdfrwt beam="2">  1       -1 0.11393489E-02 0.80498787E+02</pdfrwt>
<totfact> 0.78706513E+03</totfact>
</mgrwt>
</event>
<event>
 4    3  0.9203887E-001  0.8385300E+02  0.7546771E-02  0.1318460E+00
         -1   -1    0    0    0  501 -0.00000000000E+00  0.00000000000E+00  0.64571000704E+02  0.64571000704E+02  0.00000000000E+00 0.  1.
          1   -1    0    0  501    0  0.00000000000E+00 -0.00000000000E+00 -0.10966218801E+03  0.10966218801E+03  0.00000000000E+00 0. -1.
         24    1    1    2    0    0 -0.41817912830E+01  0.23379965371E+02 -0.15249244766E+02  0.85228314423E+02  0.80419002446E+02 0.  1.
        -24    1    1    2    0    0  0.41817912830E+01 -0.23379965371E+02 -0.29841942543E+02  0.89004874295E+02  0.80419002446E+02 0. -1.
<mgrwt>
<rscale>  0 0.83853003E+02</rscale>
<asrwt>0</asrwt>
<pdfrwt beam="1">  1        1 0.16871106E-01 0.83853003E+02</pdfrwt>
<pdfrwt beam="2">  1       -1 0.99340002E-02 0.83853003E+02</pdfrwt>
<totfact> 0.17343633E+04</totfact>
</mgrwt>
</event>
<event>
 4    3  0.9203887E-001  0.1060792E+03  0.7546771E-02  0.1268008E+00
          2   -1    0    0  501    0  0.00000000000E+00  0.00000000000E+00  0.11149786514E+04  0.11149786514E+04  0.00000000000E+00 0. -1.
         -2   -1    0    0    0  501 -0.00000000000E+00 -0.00000000000E+00 -0.10561592701E+02  0.10561592701E+02  0.00000000000E+00 0.  1.
         24    1    1    2    0    0  0.50422954320E+02 -0.47361513669E+02  0.67082499346E+03  0.67916049290E+03  0.80419002446E+02 0. -1.
        -24    1    1    2    0    0 -0.50422954320E+02  0.47361513669E+02  0.43359206528E+03  0.44637975125E+03  0.80419002446E+02 0.  1.
<mgrwt>
<rscale>  0 0.10607923E+03</rscale>
<asrwt>0</asrwt>
<pdfrwt beam="1">  1        2 0.17153508E+00 0.10607923E+03</pdfrwt>
<pdfrwt beam="2">  1       -2 0.16248613E-02 0.10607923E+03</pdfrwt>
<totfact> 0.22007237E+04</totfact>
</mgrwt>
</event>
<event>
 4    3  0.9203887E-001  0.1324323E+03  0.7546771E-02  0.1223891E+00
          1   -1    0    0  501    0  0.00000000000E+00  0.00000000000E+00  0.52622065463E+03  0.52622065463E+03  0.00000000000E+00 0. -1.
         -1   -1    0    0    0  501 -0.00000000000E+00 -0.00000000000E+00 -0.54457821246E+02  0.54457821246E+02  0.00000000000E+00 0.  1.
         24    1    1    2    0    0 -0.10195670265E+03 -0.25998843225E+02  0.55032937688E+02  0.14341181698E+03  0.80419002446E+02 0.  1.
        -24    1    1    2    0    0  0.10195670265E+03  0.25998843225E+02  0.41672989570E+03  0.43726665890E+03  0.80419002446E+02 0. -1.
<mgrwt>
<rscale>  0 0.13243234E+03</rscale>
<asrwt>0</asrwt>
<pdfrwt beam="1">  1        1 0.80957020E-01 0.13243234E+03</pdfrwt>
<pdfrwt beam="2">  1       -1 0.83781267E-02 0.13243234E+03</pdfrwt>
<totfact> 0.32846764E+03</totfact>
</mgrwt>
</event>
<event>
 4    3  0.9203887E-001  0.9399276E+02  0.7546771E-02  0.1293461E+00
          2   -1    0    0  501    0  0.00000000000E+00  0.00000000000E+00  0.19615577467E+03  0.19615577467E+03  0.00000000000E+00 0. -1.
         -2   -1    0    0    0  501 -0.00000000000E+00 -0.00000000000E+00 -0.10018857670E+03  0.10018857670E+03  0.00000000000E+00 0.  1.
         24    1    1    2    0    0  0.48537837052E+02 -0.33908024761E+01 -0.61949670457E+02  0.11257174064E+03  0.80419002446E+02 0.  1.
        -24    1    1    2    0    0 -0.48537837052E+02  0.33908024761E+01  0.15791686843E+03  0.18377261073E+03  0.80419002446E+02 0. -1.
<mgrwt>
<rscale>  0 0.93992751E+02</rscale>
<asrwt>0</asrwt>
<pdfrwt beam="1">  1        2 0.30177811E-01 0.93992763E+02</pdfrwt>
<pdfrwt beam="2">  1       -2 0.15413627E-01 0.93992763E+02</pdfrwt>
<totfact> 0.53060623E+03</totfact>
</mgrwt>
</event>
<event>
 4    3  0.9203887E-001  0.1410922E+03  0.7546771E-02  0.1211867E+00
         -1   -1    0    0    0  501 -0.00000000000E+00  0.00000000000E+00  0.16612569113E+04  0.16612569113E+04  0.00000000000E+00 0.  1.
          1   -1    0    0  501    0  0.00000000000E+00 -0.00000000000E+00 -0.26898859891E+02  0.26898859891E+02  0.00000000000E+00 0. -1.
         24    1    1    2    0    0  0.10908380963E+03 -0.39249405571E+02  0.14457267572E+04  0.14525952175E+04  0.80419002446E+02 0.  1.
        -24    1    1    2    0    0 -0.10908380963E+03  0.39249405571E+02  0.18863129418E+03  0.23556055370E+03  0.80419002446E+02 0. -1.
<mgrwt>
<rscale>  0 0.14109220E+03</rscale>
<asrwt>0</asrwt>
<pdfrwt beam="1">  1        1 0.41382874E-02 0.14109220E+03</pdfrwt>
<pdfrwt beam="2">  1       -1 0.25557791E+00 0.14109220E+03</pdfrwt>
<totfact> 0.16071640E+02</totfact>
</mgrwt>
</event>
<event>
 4    3  0.9203887E-001  0.8485284E+02  0.7546771E-02  0.1315818E+00
          3   -1    0    0  501    0  0.00000000000E+00  0.00000000000E+00  0.41009361950E+02  0.41009361950E+02  0.00000000000E+00 0. -1.
         -3   -1    0    0    0  501 -0.00000000000E+00 -0.00000000000E+00 -0.22941681281E+03  0.22941681281E+03  0.00000000000E+00 0.  1.
         24    1    1    2    0    0  0.25038990654E+02 -0.10287765190E+02 -0.15971061087E+03  0.18085210627E+03  0.80419002446E+02 0. -1.
        -24    1    1    2    0    0 -0.25038990654E+02  0.10287765190E+02 -0.28696839995E+02  0.89574068489E+02  0.80419002446E+02 0. -1.
<mgrwt>
<rscale>  0 0.84852844E+02</rscale>
<asrwt>0</asrwt>
<pdfrwt beam="1">  1        3 0.63091327E-02 0.84852844E+02</pdfrwt>
<pdfrwt beam="2">  1       -3 0.35294894E-01 0.84852844E+02</pdfrwt>
<totfact> 0.25851784E+03</totfact>
</mgrwt>
</event>
<event>
 4    3  0.9203887E-001  0.8070240E+02  0.7546771E-02  0.1327070E+00
          2   -1    0    0  501    0  0.00000000000E+00  0.00000000000E+00  0.23278758352E+04  0.23278758352E+04  0.00000000000E+00 0. -1.
         -2   -1    0    0    0  501 -0.00000000000E+00 -0.00000000000E+00 -0.20094324816E+02  0.20094324816E+02  0.00000000000E+00 0.  1.
         24    1    1    2    0    0  0.91130202745E+00 -0.66955583446E+01  0.22430856256E+04  0.22445369234E+04  0.80419002446E+02 0. -1.
        -24    1    1    2    0    0 -0.91130202745E+00  0.66955583446E+01  0.64695884878E+02  0.10343323667E+03  0.80419002446E+02 0.  0.
<mgrwt>
<rscale>  0 0.80702397E+02</rscale>
<asrwt>0</asrwt>
<pdfrwt beam="1">  1        2 0.35813453E+00 0.80702397E+02</pdfrwt>
<pdfrwt beam="2">  1       -2 0.30914364E-02 0.80702397E+02</pdfrwt>
<totfact> 0.20539988E+03</totfact>
</mgrwt>
</event>
<event>
 4    3  0.9203887E-001  0.8046311E+02  0.7546771E-02  0.1327742E+00
         -2   -1    0    0    0  501 -0.00000000000E+00  0.00000000000E+00  0.12495996622E+02  0.12495996622E+02  0.00000000000E+00 0.  1.
          2   -1    0    0  501    0  0.00000000000E+00 -0.00000000000E+00 -0.92108045744E+03  0.92108045744E+03  0.00000000000E+00 0. -1.
         24    1    1    2    0    0 -0.22591934050E+01 -0.14115251888E+01 -0.76304240953E+03  0.76727311373E+03  0.80419002446E+02 0.  0.
        -24    1    1    2    0    0  0.22591934050E+01  0.14115251888E+01 -0.14554205129E+03  0.16630334033E+03  0.80419002446E+02 0.  1.
<mgrwt>
<rscale>  0 0.80463112E+02</rscale>
<asrwt>0</asrwt>
<pdfrwt beam="1">  1        2 0.14170470E+00 0.80463112E+02</pdfrwt>
<pdfrwt beam="2">  1       -2 0.19224609E-02 0.80463112E+02</pdfrwt>
<totfact> 0.21906346E+04</totfact>
</mgrwt>
</event>
<event>
 4    3  0.9203887E-001  0.8210631E+02  0.7546771E-02  0.1323178E+00
         -1   -1    0    0    0  501 -0.00000000000E+00  0.00000000000E+00  0.24840465226E+02  0.24840465226E+02  0.00000000000E+00 0.  1.
          1   -1    0    0  501    0  0.00000000000E+00 -0.00000000000E+00 -0.35286845460E+03  0.35286845460E+03  0.00000000000E+00 0. -1.
         24    1    1    2    0    0  0.65580702160E+01  0.15205856892E+02 -0.25476333084E+03  0.26766732536E+03  0.80419002446E+02 0.  0.
        -24    1    1    2    0    0 -0.65580702160E+01 -0.15205856892E+02 -0.73264658533E+02  0.11004159447E+03  0.80419002446E+02 0.  1.
<mgrwt>
<rscale>  0 0.82106297E+02</rscale>
<asrwt>0</asrwt>
<pdfrwt beam="1">  1        1 0.54287454E-01 0.82106307E+02</pdfrwt>
<pdfrwt beam="2">  1       -1 0.38216101E-02 0.82106307E+02</pdfrwt>
<totfact> 0.16762121E+04</totfact>
</mgrwt>
</event>
<event>
 4    3  0.9203887E-001  0.8820839E+02  0.7546771E-02  0.1307249E+00
          1   -1    0    0  501    0  0.00000000000E+00  0.00000000000E+00  0.10362226141E+03  0.10362226141E+03  0.00000000000E+00 0. -1.
         -1   -1    0    0    0  501 -0.00000000000E+00 -0.00000000000E+00 -0.11696252797E+03  0.11696252797E+03  0.00000000000E+00 0.  1.
         24    1    1    2    0    0  0.19741712052E+02  0.30393554974E+02 -0.72663549389E+02  0.11428346662E+03  0.80419002446E+02 0.  1.
        -24    1    1    2    0    0 -0.19741712052E+02 -0.30393554974E+02  0.59323282835E+02  0.10630132275E+03  0.80419002446E+02 0. -1.
<mgrwt>
<rscale>  0 0.88208386E+02</rscale>
<asrwt>0</asrwt>
<pdfrwt beam="1">  1        1 0.15941886E-01 0.88208386E+02</pdfrwt>
<pdfrwt beam="2">  1       -1 0.17994235E-01 0.88208386E+02</pdfrwt>
<totfact> 0.75196516E+03</totfact>
</mgrwt>
</event>
<event>
 4    3  0.9203887E-001  0.9216247E+02  0.7546771E-02  0.1297698E+00
          2   -1    0    0  501    0  0.00000000000E+00  0.00000000000E+00  0.33428499068E+02  0.33428499068E+02  0.00000000000E+00 0. -1.
         -2   -1    0    0    0  501 -0.00000000000E+00 -0.00000000000E+00 -0.28224432661E+03  0.28224432661E+03  0.00000000000E+00 0.  1.
         24    1    1    2    0    0  0.38754481113E+02  0.22908311661E+02 -0.17425631143E+03  0.19712731565E+03  0.80419002446E+02 0.  1.
        -24    1    1    2    0    0 -0.38754481113E+02 -0.22908311661E+02 -0.74559516112E+02  0.11854551002E+03  0.80419002446E+02 0. -1.
<mgrwt>
<rscale>  0 0.92162458E+02</rscale>
<asrwt>0</asrwt>
<pdfrwt beam="1">  1        2 0.51428460E-02 0.92162469E+02</pdfrwt>
<pdfrwt beam="2">  1       -2 0.43422204E-01 0.92162469E+02</pdfrwt>
<totfact> 0.70002121E+03</totfact>
</mgrwt>
</event>
<event>
 4    3  0.9203887E-001  0.1373105E+03  0.7546771E-02  0.1216994E+00
          4   -1    0    0  501    0  0.00000000000E+00  0.00000000000E+00  0.18775559242E+02  0.18775559242E+02  0.00000000000E+00 0. -1.
         -4   -1    0    0    0  501 -0.00000000000E+00 -0.00000000000E+00 -0.18264330364E+04  0.18264330364E+04  0.00000000000E+00 0.  1.
         24    1    1    2    0    0  0.11035745348E+03 -0.14428340648E+02 -0.28479451549E+03  0.31616779811E+03  0.80419002446E+02 0. -1.
        -24    1    1    2    0    0 -0.11035745348E+03  0.14428340648E+02 -0.15228629617E+04  0.15290407975E+04  0.80419002446E+02 0.  1.
<mgrwt>
<rscale>  0 0.13731045E+03</rscale>
<asrwt>0</asrwt>
<pdfrwt beam="1">  1        4 0.28885469E-02 0.13731045E+03</pdfrwt>
<pdfrwt beam="2">  1       -4 0.28098977E+00 0.13731045E+03</pdfrwt>
<totfact> 0.47104535E+01</totfact>
</mgrwt>
</event>
<event>
 4    3  0.9203887E-001  0.8398202E+02  0.7546771E-02  0.1318116E+00
          2   -1    0    0  501    0  0.00000000000E+00  0.00000000000E+00  0.27744024875E+03  0.27744024875E+03  0.00000000000E+00 0. -1.
         -2   -1    0    0    0  501 -0.00000000000E+00 -0.00000000000E+00 -0.61920851249E+02  0.61920851249E+02  0.00000000000E+00 0.  1.
         24    1    1    2    0    0 -0.64011544460E+01 -0.23340711736E+02  0.23803301980E+03  0.25241374383E+03  0.80419002446E+02 0. -1.
        -24    1    1    2    0    0  0.64011544460E+01  0.23340711736E+02 -0.22513622297E+02  0.86947356175E+02  0.80419002446E+02 0.  1.
<mgrwt>
<rscale>  0 0.83982019E+02</rscale>
<asrwt>0</asrwt>
<pdfrwt beam="1">  1        2 0.42683115E-01 0.83982019E+02</pdfrwt>
<pdfrwt beam="2">  1       -2 0.95262849E-02 0.83982019E+02</pdfrwt>
<totfact> 0.78129943E+03</totfact>
</mgrwt>
</event>
<event>
 4    3  0.9203887E-001  0.8350012E+02  0.7546771E-02  0.1319402E+00
          2   -1    0    0  501    0  0.00000000000E+00  0.00000000000E+00  0.21327354390E+03  0.21327354390E+03  0.00000000000E+00 0. -1.
         -2   -1    0    0    0  501 -0.00000000000E+00 -0.00000000000E+00 -0.58199803910E+02  0.58199803910E+02  0.00000000000E+00 0.  1.
         24    1    1    2    0    0  0.20991920308E+02 -0.80245386152E+01  0.16739879620E+03  0.18706850847E+03  0.80419002446E+02 0. -1.
        -24    1    1    2    0    0 -0.20991920308E+02  0.80245386152E+01 -0.12325056213E+02  0.84404839335E+02  0.80419002446E+02 0.  1.
<mgrwt>
<rscale>  0 0.83500119E+02</rscale>
<asrwt>0</asrwt>
<pdfrwt beam="1">  1        2 0.32811314E-01 0.83500119E+02</pdfrwt>
<pdfrwt beam="2">  1       -2 0.89538161E-02 0.83500119E+02</pdfrwt>
<totfact> 0.11325010E+04</totfact>
</mgrwt>
</event>
<event>
 4    3  0.9203887E-001  0.8979016E+02  0.7546771E-02  0.1303361E+00
         -2   -1    0    0    0  501 -0.00000000000E+00  0.00000000000E+00  0.14308099009E+03  0.14308099009E+03  0.00000000000E+00 0.  1.
          2   -1    0    0  501    0  0.00000000000E+00 -0.00000000000E+00 -0.39919436378E+03  0.39919436378E+03  0.00000000000E+00 0. -1.
         24    1    1    2    0    0 -0.18423884183E+02  0.35434699509E+02 -0.37933076263E+03  0.38981290496E+03  0.80419002446E+02 0. -1.
        -24    1    1    2    0    0  0.18423884183E+02 -0.35434699509E+02  0.12321738894E+03  0.15246244891E+03  0.80419002446E+02 0.  1.
<mgrwt>
<rscale>  0 0.89790163E+02</rscale>
<asrwt>0</asrwt>
<pdfrwt beam="1">  1        2 0.61414517E-01 0.89790163E+02</pdfrwt>
<pdfrwt beam="2">  1       -2 0.22012460E-01 0.89790163E+02</pdfrwt>
<totfact> 0.13881699E+03</totfact>
</mgrwt>
</event>
<event>
 4    3  0.9203887E-001  0.8211127E+02  0.7546771E-02  0.1323165E+00
          2   -1    0    0  501    0  0.00000000000E+00  0.00000000000E+00  0.37881688195E+03  0.37881688195E+03  0.00000000000E+00 0. -1.
         -2   -1    0    0    0  501 -0.00000000000E+00 -0.00000000000E+00 -0.49826197073E+02  0.49826197073E+02  0.00000000000E+00 0.  1.
         24    1    1    2    0    0 -0.15937286234E+02  0.45877252221E+01  0.33632645824E+03  0.34620477579E+03  0.80419002446E+02 0.  0.
        -24    1    1    2    0    0  0.15937286234E+02 -0.45877252221E+01 -0.73357733576E+01  0.82438303235E+02  0.80419002446E+02 0.  1.
<mgrwt>
<rscale>  0 0.82111268E+02</rscale>
<asrwt>0</asrwt>
<pdfrwt beam="1">  1        2 0.58279519E-01 0.82111268E+02</pdfrwt>
<pdfrwt beam="2">  1       -2 0.76655690E-02 0.82111268E+02</pdfrwt>
<totfact> 0.78632308E+03</totfact>
</mgrwt>
</event>
<event>
 4    3  0.9203887E-001  0.1021076E+03  0.7546771E-02  0.1275925E+00
         -1   -1    0    0    0  501 -0.00000000000E+00  0.00000000000E+00  0.31140059299E+03  0.31140059299E+03  0.00000000000E+00 0.  1.
          1   -1    0    0  501    0  0.00000000000E+00 -0.00000000000E+00 -0.49123045503E+02  0.49123045503E+02  0.00000000000E+00 0. -1.
         24    1    1    2    0    0 -0.24605013938E+02 -0.57907968443E+02  0.23285963068E+03  0.25426278350E+03  0.80419002446E+02 0.  0.
        -24    1    1    2    0    0  0.24605013938E+02  0.57907968443E+02  0.29417916812E+02  0.10626085499E+03  0.80419002446E+02 0.  0.
<mgrwt>
<rscale>  0 0.10210757E+03</rscale>
<asrwt>0</asrwt>
<pdfrwt beam="1">  1        1 0.75573918E-02 0.10210757E+03</pdfrwt>
<pdfrwt beam="2">  1       -1 0.47907782E-01 0.10210757E+03</pdfrwt>
<totfact> 0.39329169E+03</totfact>
</mgrwt>
</event>
<event>
 4    3  0.9203887E-001  0.1217496E+03  0.7546771E-02  0.1240238E+00
          2   -1    0    0  501    0  0.00000000000E+00  0.00000000000E+00  0.81028660799E+03  0.81028660799E+03  0.00000000000E+00 0. -1.
         -2   -1    0    0    0  501 -0.00000000000E+00 -0.00000000000E+00 -0.32989894864E+02  0.32989894864E+02  0.00000000000E+00 0.  1.
         24    1    1    2    0    0  0.31335291749E+02  0.85871112483E+02  0.67006850816E+03  0.68103947760E+03  0.80419002446E+02 0. -1.
        -24    1    1    2    0    0 -0.31335291749E+02 -0.85871112483E+02  0.10722820496E+03  0.16223702525E+03  0.80419002446E+02 0.  1.
<mgrwt>
<rscale>  0 0.12174960E+03</rscale>
<asrwt>0</asrwt>
<pdfrwt beam="1">  1        2 0.12465946E+00 0.12174960E+03</pdfrwt>
<pdfrwt beam="2">  1       -2 0.50753691E-02 0.12174960E+03</pdfrwt>
<totfact> 0.64265553E+03</totfact>
</mgrwt>
</event>
<event>
 4    3  0.9203887E-001  0.8094216E+02  0.7546771E-02  0.1326399E+00
         -2   -1    0    0    0  501 -0.00000000000E+00  0.00000000000E+00  0.18254047520E+02  0.18254047520E+02  0.00000000000E+00 0.  1.
          2   -1    0    0  501    0  0.00000000000E+00 -0.00000000000E+00 -0.36296183377E+03  0.36296183377E+03  0.00000000000E+00 0. -1.
         24    1    1    2    0    0 -0.73350130870E+01  0.55331230928E+01 -0.19248279341E+03  0.20880914631E+03  0.80419002446E+02 0. -1.
        -24    1    1    2    0    0  0.73350130870E+01 -0.55331230928E+01 -0.15222499284E+03  0.17240673498E+03  0.80419002446E+02 0.  1.
<mgrwt>
<rscale>  0 0.80942163E+02</rscale>
<asrwt>0</asrwt>
<pdfrwt beam="1">  1        2 0.55840285E-01 0.80942163E+02</pdfrwt>
<pdfrwt beam="2">  1       -2 0.28083149E-02 0.80942163E+02</pdfrwt>
<totfact> 0.36218219E+04</totfact>
</mgrwt>
</event>
<event>
 4    3  0.9203887E-001  0.8972037E+02  0.7546771E-02  0.1303530E+00
          3   -1    0    0  501    0  0.00000000000E+00  0.00000000000E+00  0.76184132023E+02  0.76184132023E+02  0.00000000000E+00 0. -1.
         -3   -1    0    0    0  501 -0.00000000000E+00 -0.00000000000E+00 -0.10569899297E+03  0.10569899297E+03  0.00000000000E+00 0.  1.
         24    1    1    2    0    0  0.27849421192E+02 -0.28406587225E+02 -0.13047874449E+02  0.90664146389E+02  0.80419002446E+02 0.  1.
        -24    1    1    2    0    0 -0.27849421192E+02  0.28406587225E+02 -0.16466986497E+02  0.91218978602E+02  0.80419002446E+02 0. -1.
<mgrwt>
<rscale>  0 0.89720357E+02</rscale>
<asrwt>0</asrwt>
<pdfrwt beam="1">  1        3 0.11720636E-01 0.89720368E+02</pdfrwt>
<pdfrwt beam="2">  1       -3 0.16261383E-01 0.89720368E+02</pdfrwt>
<totfact> 0.38213514E+03</totfact>
</mgrwt>
</event>
<event>
 4    3  0.9203887E-001  0.1016386E+03  0.7546771E-02  0.1276888E+00
          2   -1    0    0  501    0  0.00000000000E+00  0.00000000000E+00  0.17868661093E+04  0.17868661093E+04  0.00000000000E+00 0. -1.
         -2   -1    0    0    0  501 -0.00000000000E+00 -0.00000000000E+00 -0.12796594473E+02  0.12796594473E+02  0.00000000000E+00 0.  1.
         24    1    1    2    0    0  0.48094883704E+02  0.39370829434E+02  0.15532845637E+04  0.15566063509E+04  0.80419002446E+02 0. -1.
        -24    1    1    2    0    0 -0.48094883704E+02 -0.39370829434E+02  0.22078495116E+03  0.24305635286E+03  0.80419002446E+02 0.  1.
<mgrwt>
<rscale>  0 0.10163856E+03</rscale>
<asrwt>0</asrwt>
<pdfrwt beam="1">  1        2 0.27490228E+00 0.10163856E+03</pdfrwt>
<pdfrwt beam="2">  1       -2 0.19687083E-02 0.10163856E+03</pdfrwt>
<totfact> 0.74198599E+03</totfact>
</mgrwt>
</event>
<event>
 4    3  0.9203887E-001  0.8045371E+02  0.7546771E-02  0.1327769E+00
          1   -1    0    0  501    0  0.00000000000E+00  0.00000000000E+00  0.12486754769E+03  0.12486754769E+03  0.00000000000E+00 0. -1.
         -1   -1    0    0    0  501 -0.00000000000E+00 -0.00000000000E+00 -0.63360923241E+02  0.63360923241E+02  0.00000000000E+00 0.  1.
         24    1    1    2    0    0 -0.12356638013E+01  0.20141548020E+01 -0.93831072033E+01  0.80999026783E+02  0.80419002446E+02 0.  1.
        -24    1    1    2    0    0  0.12356638013E+01 -0.20141548020E+01  0.70889731655E+02  0.10722944415E+03  0.80419002446E+02 0. -1.
<mgrwt>
<rscale>  0 0.80453711E+02</rscale>
<asrwt>0</asrwt>
<pdfrwt beam="1">  1        1 0.19210392E-01 0.80453711E+02</pdfrwt>
<pdfrwt beam="2">  1       -1 0.97478344E-02 0.80453711E+02</pdfrwt>
<totfact> 0.15082441E+04</totfact>
</mgrwt>
</event>
<event>
 4    3  0.9203887E-001  0.9652847E+02  0.7546771E-02  0.1287770E+00
         -2   -1    0    0    0  501 -0.00000000000E+00  0.00000000000E+00  0.18158085521E+03  0.18158085521E+03  0.00000000000E+00 0.  1.
          2   -1    0    0  501    0  0.00000000000E+00 -0.00000000000E+00 -0.91388766532E+02  0.91388766532E+02  0.00000000000E+00 0. -1.
         24    1    1    2    0    0  0.97975769814E+01  0.52483691944E+02 -0.45283519307E+02  0.10662243437E+03  0.80419002446E+02 0. -1.
        -24    1    1    2    0    0 -0.97975769814E+01 -0.52483691944E+02  0.13547560799E+03  0.16634718738E+03  0.80419002446E+02 0.  1.
<mgrwt>
<rscale>  0 0.96528474E+02</rscale>
<asrwt>0</asrwt>
<pdfrwt beam="1">  1        2 0.14059810E-01 0.96528474E+02</pdfrwt>
<pdfrwt beam="2">  1       -2 0.27935516E-01 0.96528474E+02</pdfrwt>
<totfact> 0.45679734E+03</totfact>
</mgrwt>
</event>
<event>
 4    3  0.9203887E-001  0.9430395E+02  0.7546771E-02  0.1292752E+00
          1   -1    0    0  501    0  0.00000000000E+00  0.00000000000E+00  0.22991335038E+03  0.22991335038E+03  0.00000000000E+00 0. -1.
         -1   -1    0    0    0  501 -0.00000000000E+00 -0.00000000000E+00 -0.11310579814E+03  0.11310579814E+03  0.00000000000E+00 0.  1.
         24    1    1    2    0    0  0.37465761320E+02  0.31973987401E+02 -0.80721268159E+02  0.12413363053E+03  0.80419002446E+02 0.  1.
        -24    1    1    2    0    0 -0.37465761320E+02 -0.31973987401E+02  0.19752882040E+03  0.21888551799E+03  0.80419002446E+02 0. -1.
<mgrwt>
<rscale>  0 0.94303951E+02</rscale>
<asrwt>0</asrwt>
<pdfrwt beam="1">  1        1 0.35371284E-01 0.94303951E+02</pdfrwt>
<pdfrwt beam="2">  1       -1 0.17400892E-01 0.94303951E+02</pdfrwt>
<totfact> 0.29536814E+03</totfact>
</mgrwt>
</event>
<event>
 4    3  0.9203887E-001  0.8149518E+02  0.7546771E-02  0.1324861E+00
          2   -1    0    0  501    0  0.00000000000E+00  0.00000000000E+00  0.54723859031E+03  0.54723859031E+03  0.00000000000E+00 0. -1.
         -2   -1    0    0    0  501 -0.00000000000E+00 -0.00000000000E+00 -0.47026716570E+02  0.47026716570E+02  0.00000000000E+00 0.  1.
         24    1    1    2    0    0 -0.12837114268E+02  0.30753096988E+01  0.50604170166E+03  0.51256186828E+03  0.80419002446E+02 0. -1.
        -24    1    1    2    0    0  0.12837114268E+02 -0.30753096988E+01 -0.58298279213E+01  0.81703438608E+02  0.80419002446E+02 0.  1.
<mgrwt>
<rscale>  0 0.81495184E+02</rscale>
<asrwt>0</asrwt>
<pdfrwt beam="1">  1        2 0.84190548E-01 0.81495184E+02</pdfrwt>
<pdfrwt beam="2">  1       -2 0.72348799E-02 0.81495184E+02</pdfrwt>
<totfact> 0.58000097E+03</totfact>
</mgrwt>
</event>
<event>
 4    3  0.9203887E-001  0.9874080E+02  0.7546771E-02  0.1282966E+00
          2   -1    0    0  501    0  0.00000000000E+00  0.00000000000E+00  0.27470080571E+02  0.27470080571E+02  0.00000000000E+00 0. -1.
         -2   -1    0    0    0  501 -0.00000000000E+00 -0.00000000000E+00 -0.13655137620E+04  0.13655137620E+04  0.00000000000E+00 0.  1.
         24    1    1    2    0    0  0.25053498279E+02  0.51525261781E+02 -0.69843869473E+02  0.12094590706E+03  0.80419002446E+02 0.  0.
        -24    1    1    2    0    0 -0.25053498279E+02 -0.51525261781E+02 -0.12681998120E+04  0.12720379355E+04  0.80419002446E+02 0.  0.
<mgrwt>
<rscale>  0 0.98740804E+02</rscale>
<asrwt>0</asrwt>
<pdfrwt beam="1">  1        2 0.42261672E-02 0.98740804E+02</pdfrwt>
<pdfrwt beam="2">  1       -2 0.21007899E+00 0.98740804E+02</pdfrwt>
<totfact> 0.24183126E+02</totfact>
</mgrwt>
</event>
<event>
 4    3  0.9203887E-001  0.8432877E+02  0.7546771E-02  0.1317197E+00
         -2   -1    0    0    0  501 -0.00000000000E+00  0.00000000000E+00  0.53438540658E+03  0.53438540658E+03  0.00000000000E+00 0.  1.
          2   -1    0    0  501    0  0.00000000000E+00 -0.00000000000E+00 -0.21888913019E+02  0.21888913019E+02  0.00000000000E+00 0. -1.
         24    1    1    2    0    0  0.22614840179E+02  0.11519340771E+02  0.82097266205E+02  0.11769155994E+03  0.80419002446E+02 0. -1.
        -24    1    1    2    0    0 -0.22614840179E+02 -0.11519340771E+02  0.43039922736E+03  0.43858275966E+03  0.80419002446E+02 0.  1.
<mgrwt>
<rscale>  0 0.84328774E+02</rscale>
<asrwt>0</asrwt>
<pdfrwt beam="1">  1        2 0.33675255E-02 0.84328774E+02</pdfrwt>
<pdfrwt beam="2">  1       -2 0.82213130E-01 0.84328774E+02</pdfrwt>
<totfact> 0.32808432E+03</totfact>
</mgrwt>
</event>
<event>
 4    3  0.9203887E-001  0.8127043E+02  0.7546771E-02  0.1325484E+00
         -2   -1    0    0    0  501 -0.00000000000E+00  0.00000000000E+00  0.64786460821E+01  0.64786460821E+01  0.00000000000E+00 0.  1.
          2   -1    0    0  501    0  0.00000000000E+00 -0.00000000000E+00 -0.10407752543E+04  0.10407752543E+04  0.00000000000E+00 0. -1.
         24    1    1    2    0    0  0.68510861405E+01  0.95252120290E+01 -0.59203991143E+03  0.59759195085E+03  0.80419002446E+02 0. -1.
        -24    1    1    2    0    0 -0.68510861405E+01 -0.95252120290E+01 -0.44225669683E+03  0.44966194957E+03  0.80419002446E+02 0.  1.
<mgrwt>
<rscale>  0 0.81270431E+02</rscale>
<asrwt>0</asrwt>
<pdfrwt beam="1">  1        2 0.16011922E+00 0.81270431E+02</pdfrwt>
<pdfrwt beam="2">  1       -2 0.99671509E-03 0.81270431E+02</pdfrwt>
<totfact> 0.47375975E+04</totfact>
</mgrwt>
</event>
<event>
 4    3  0.9203887E-001  0.9017803E+02  0.7546771E-02  0.1302421E+00
          1   -1    0    0  501    0  0.00000000000E+00  0.00000000000E+00  0.20189989375E+03  0.20189989375E+03  0.00000000000E+00 0. -1.
         -1   -1    0    0    0  501 -0.00000000000E+00 -0.00000000000E+00 -0.96310120480E+02  0.96310120480E+02  0.00000000000E+00 0.  1.
         24    1    1    2    0    0 -0.16564898494E+00 -0.40802365563E+02 -0.60935287841E+02  0.10883559038E+03  0.80419002446E+02 0.  1.
        -24    1    1    2    0    0  0.16564898494E+00  0.40802365563E+02  0.16652506112E+03  0.18937442385E+03  0.80419002446E+02 0. -1.
<mgrwt>
<rscale>  0 0.90178026E+02</rscale>
<asrwt>0</asrwt>
<pdfrwt beam="1">  1        1 0.31061522E-01 0.90178026E+02</pdfrwt>
<pdfrwt beam="2">  1       -1 0.14816942E-01 0.90178026E+02</pdfrwt>
<totfact> 0.44377061E+03</totfact>
</mgrwt>
</event>
<event>
 4    3  0.9203887E-001  0.8142482E+02  0.7546771E-02  0.1325056E+00
         -2   -1    0    0    0  501 -0.00000000000E+00  0.00000000000E+00  0.54249365919E+02  0.54249365919E+02  0.00000000000E+00 0.  1.
          2   -1    0    0  501    0  0.00000000000E+00 -0.00000000000E+00 -0.50329312179E+03  0.50329312179E+03  0.00000000000E+00 0. -1.
         24    1    1    2    0    0  0.11644361035E+02 -0.52148337280E+01 -0.46709650515E+03  0.47414042931E+03  0.80419002446E+02 0. -1.
        -24    1    1    2    0    0 -0.11644361035E+02  0.52148337280E+01  0.18052749272E+02  0.83402058400E+02  0.80419002446E+02 0.  0.
<mgrwt>
<rscale>  0 0.81424822E+02</rscale>
<asrwt>0</asrwt>
<pdfrwt beam="1">  1        2 0.77429709E-01 0.81424822E+02</pdfrwt>
<pdfrwt beam="2">  1       -2 0.83460565E-02 0.81424822E+02</pdfrwt>
<totfact> 0.51106002E+03</totfact>
</mgrwt>
</event>
<event>
 4    3  0.9203887E-001  0.8474694E+02  0.7546771E-02  0.1316096E+00
          1   -1    0    0  501    0  0.00000000000E+00  0.00000000000E+00  0.20238086435E+04  0.20238086435E+04  0.00000000000E+00 0. -1.
         -1   -1    0    0    0  501 -0.00000000000E+00 -0.00000000000E+00 -0.35615526133E+01  0.35615526133E+01  0.00000000000E+00 0.  1.
         24    1    1    2    0    0 -0.26452104858E+02 -0.38877267588E+01  0.94941001009E+03  0.95318487791E+03  0.80419002446E+02 0.  1.
        -24    1    1    2    0    0  0.26452104858E+02  0.38877267588E+01  0.10708370808E+04  0.10741853182E+04  0.80419002446E+02 0. -1.
<mgrwt>
<rscale>  0 0.84746942E+02</rscale>
<asrwt>0</asrwt>
<pdfrwt beam="1">  1        1 0.31135426E+00 0.84746942E+02</pdfrwt>
<pdfrwt beam="2">  1       -1 0.54793279E-03 0.84746942E+02</pdfrwt>
<totfact> 0.13826566E+04</totfact>
</mgrwt>
</event>
<event>
 4    3  0.9203887E-001  0.1003663E+03  0.7546771E-02  0.1279528E+00
          1   -1    0    0  501    0  0.00000000000E+00  0.00000000000E+00  0.92003710015E+03  0.92003710015E+03  0.00000000000E+00 0. -1.
         -1   -1    0    0    0  501 -0.00000000000E+00 -0.00000000000E+00 -0.62883340738E+02  0.62883340738E+02  0.00000000000E+00 0.  1.
         24    1    1    2    0    0 -0.32000617555E+02  0.50814773828E+02 -0.18053526719E+02  0.10197708833E+03  0.80419002446E+02 0.  1.
        -24    1    1    2    0    0  0.32000617555E+02 -0.50814773828E+02  0.87520728613E+03  0.88094335256E+03  0.80419002446E+02 0. -1.
<mgrwt>
<rscale>  0 0.10036631E+03</rscale>
<asrwt>0</asrwt>
<pdfrwt beam="1">  1        1 0.14154416E+00 0.10036631E+03</pdfrwt>
<pdfrwt beam="2">  1       -1 0.96743608E-02 0.10036631E+03</pdfrwt>
<totfact> 0.11808437E+03</totfact>
</mgrwt>
</event>
<event>
 4    3  0.9203887E-001  0.9592654E+02  0.7546771E-02  0.1289103E+00
          2   -1    0    0  501    0  0.00000000000E+00  0.00000000000E+00  0.71750166426E+03  0.71750166426E+03  0.00000000000E+00 0. -1.
         -2   -1    0    0    0  501 -0.00000000000E+00 -0.00000000000E+00 -0.14413182048E+02  0.14413182048E+02  0.00000000000E+00 0.  1.
         24    1    1    2    0    0 -0.33557566315E+02 -0.40106975698E+02  0.23006199965E+03  0.24925974283E+03  0.80419002446E+02 0. -1.
        -24    1    1    2    0    0  0.33557566315E+02  0.40106975698E+02  0.47302648256E+03  0.48265510348E+03  0.80419002446E+02 0. -1.
<mgrwt>
<rscale>  0 0.95926524E+02</rscale>
<asrwt>0</asrwt>
<pdfrwt beam="1">  1        2 0.11038484E+00 0.95926536E+02</pdfrwt>
<pdfrwt beam="2">  1       -2 0.22174132E-02 0.95926536E+02</pdfrwt>
<totfact> 0.24671185E+04</totfact>
</mgrwt>
</event>
<event>
 4    3  0.9203887E-001  0.1136544E+03  0.7546771E-02  0.1253948E+00
         -2   -1    0    0    0  501 -0.00000000000E+00  0.00000000000E+00  0.12109909309E+03  0.12109909309E+03  0.00000000000E+00 0.  1.
          2   -1    0    0  501    0  0.00000000000E+00 -0.00000000000E+00 -0.35441020555E+03  0.35441020555E+03  0.00000000000E+00 0. -1.
         24    1    1    2    0    0 -0.30385309482E+02  0.74342766762E+02 -0.31543725673E+03  0.33528792535E+03  0.80419002446E+02 0. -1.
        -24    1    1    2    0    0  0.30385309482E+02 -0.74342766762E+02  0.82126144267E+02  0.14022137330E+03  0.80419002446E+02 0.  1.
<mgrwt>
<rscale>  0 0.11365443E+03</rscale>
<asrwt>0</asrwt>
<pdfrwt beam="1">  1        2 0.54524646E-01 0.11365443E+03</pdfrwt>
<pdfrwt beam="2">  1       -2 0.18630630E-01 0.11365443E+03</pdfrwt>
<totfact> 0.21010534E+03</totfact>
</mgrwt>
</event>
<event>
 4    3  0.9203887E-001  0.8492469E+02  0.7546771E-02  0.1315630E+00
          4   -1    0    0  501    0  0.00000000000E+00  0.00000000000E+00  0.20578978174E+02  0.20578978174E+02  0.00000000000E+00 0. -1.
         -4   -1    0    0    0  501 -0.00000000000E+00 -0.00000000000E+00 -0.36552019633E+03  0.36552019633E+03  0.00000000000E+00 0.  1.
         24    1    1    2    0    0  0.63044633439E+01  0.26556366810E+02 -0.13329078008E+03  0.15804630614E+03  0.80419002446E+02 0. -1.
        -24    1    1    2    0    0 -0.63044633439E+01 -0.26556366810E+02 -0.21165043808E+03  0.22805286837E+03  0.80419002446E+02 0.  1.
<mgrwt>
<rscale>  0 0.84924689E+02</rscale>
<asrwt>0</asrwt>
<pdfrwt beam="1">  1        4 0.31659970E-02 0.84924689E+02</pdfrwt>
<pdfrwt beam="2">  1       -4 0.56233870E-01 0.84924689E+02</pdfrwt>
<totfact> 0.22033908E+03</totfact>
</mgrwt>
</event>
<event>
 4    3  0.9203887E-001  0.8227426E+02  0.7546771E-02  0.1322719E+00
          1   -1    0    0  501    0  0.00000000000E+00  0.00000000000E+00  0.17828362197E+04  0.17828362197E+04  0.00000000000E+00 0. -1.
         -1   -1    0    0    0  501 -0.00000000000E+00 -0.00000000000E+00 -0.38924586663E+01  0.38924586663E+01  0.00000000000E+00 0.  1.
         24    1    1    2    0    0 -0.12616044896E+02  0.11944590642E+02  0.74941557485E+03  0.75391826985E+03  0.80419002446E+02 0.  1.
        -24    1    1    2    0    0  0.12616044896E+02 -0.11944590642E+02  0.10295281861E+04  0.10328104085E+04  0.80419002446E+02 0. -1.
<mgrwt>
<rscale>  0 0.82274260E+02</rscale>
<asrwt>0</asrwt>
<pdfrwt beam="1">  1        1 0.27428184E+00 0.82274260E+02</pdfrwt>
<pdfrwt beam="2">  1       -1 0.59884122E-03 0.82274260E+02</pdfrwt>
<totfact> 0.17234429E+04</totfact>
</mgrwt>
</event>
<event>
 4    3  0.9203887E-001  0.9805592E+02  0.7546771E-02  0.1284438E+00
         -1   -1    0    0    0  501 -0.00000000000E+00  0.00000000000E+00  0.56530372288E+02  0.56530372288E+02  0.00000000000E+00 0.  1.
          1   -1    0    0  501    0  0.00000000000E+00 -0.00000000000E+00 -0.17389702598E+03  0.17389702598E+03  0.00000000000E+00 0. -1.
         24    1    1    2    0    0 -0.48889012289E+02 -0.27524749997E+02 -0.41624819020E+02  0.10652506230E+03  0.80419002446E+02 0. -1.
        -24    1    1    2    0    0  0.48889012289E+02  0.27524749997E+02 -0.75741834675E+02  0.12390233597E+03  0.80419002446E+02 0.  1.
<mgrwt>
<rscale>  0 0.98055919E+02</rscale>
<asrwt>0</asrwt>
<pdfrwt beam="1">  1        1 0.26753388E-01 0.98055919E+02</pdfrwt>
<pdfrwt beam="2">  1       -1 0.86969806E-02 0.98055919E+02</pdfrwt>
<totfact> 0.12089891E+04</totfact>
</mgrwt>
</event>
<event>
 4    3  0.9203887E-001  0.1348838E+03  0.7546771E-02  0.1220384E+00
          1   -1    0    0  501    0  0.00000000000E+00  0.00000000000E+00  0.29195535000E+03  0.29195535000E+03  0.00000000000E+00 0. -1.
         -1   -1    0    0    0  501 -0.00000000000E+00 -0.00000000000E+00 -0.10157283909E+03  0.10157283909E+03  0.00000000000E+00 0.  1.
         24    1    1    2    0    0  0.98254599565E+02  0.45524325238E+02 -0.27132765078E+02  0.13758573116E+03  0.80419002446E+02 0.  1.
        -24    1    1    2    0    0 -0.98254599565E+02 -0.45524325238E+02  0.21751527599E+03  0.25594245792E+03  0.80419002446E+02 0. -1.
<mgrwt>
<rscale>  0 0.13488383E+03</rscale>
<asrwt>0</asrwt>
<pdfrwt beam="1">  1        1 0.44916207E-01 0.13488383E+03</pdfrwt>
<pdfrwt beam="2">  1       -1 0.15626591E-01 0.13488383E+03</pdfrwt>
<totfact> 0.26524035E+03</totfact>
</mgrwt>
</event>
<event>
 4    3  0.9203887E-001  0.8388615E+02  0.7546771E-02  0.1318371E+00
          2   -1    0    0  501    0  0.00000000000E+00  0.00000000000E+00  0.30831202230E+03  0.30831202230E+03  0.00000000000E+00 0. -1.
         -2   -1    0    0    0  501 -0.00000000000E+00 -0.00000000000E+00 -0.55755389754E+02  0.55755389754E+02  0.00000000000E+00 0.  1.
         24    1    1    2    0    0 -0.23767632943E+02  0.21841093169E+01  0.26617711601E+03  0.27908268264E+03  0.80419002446E+02 0.  0.
        -24    1    1    2    0    0  0.23767632943E+02 -0.21841093169E+01 -0.13620483462E+02  0.84984729413E+02  0.80419002446E+02 0.  1.
<mgrwt>
<rscale>  0 0.83886153E+02</rscale>
<asrwt>0</asrwt>
<pdfrwt beam="1">  1        2 0.47432618E-01 0.83886153E+02</pdfrwt>
<pdfrwt beam="2">  1       -2 0.85777525E-02 0.83886153E+02</pdfrwt>
<totfact> 0.82251380E+03</totfact>
</mgrwt>
</event>
<event>
 4    3  0.9203887E-001  0.9751516E+02  0.7546771E-02  0.1285610E+00
         -1   -1    0    0    0  501 -0.00000000000E+00  0.00000000000E+00  0.17755230721E+03  0.17755230721E+03  0.00000000000E+00 0.  1.
          1   -1    0    0  501    0  0.00000000000E+00 -0.00000000000E+00 -0.73693233838E+02  0.73693233838E+02  0.00000000000E+00 0. -1.
         24    1    1    2    0    0  0.33250509819E+02  0.44004473425E+02  0.11759566760E+03  0.15276762444E+03  0.80419002446E+02 0.  1.
        -24    1    1    2    0    0 -0.33250509819E+02 -0.44004473425E+02 -0.13736594224E+02  0.98477916610E+02  0.80419002446E+02 0. -1.
<mgrwt>
<rscale>  0 0.97515158E+02</rscale>
<asrwt>0</asrwt>
<pdfrwt beam="1">  1        1 0.11337421E-01 0.97515158E+02</pdfrwt>
<pdfrwt beam="2">  1       -1 0.27315739E-01 0.97515158E+02</pdfrwt>
<totfact> 0.60150788E+03</totfact>
</mgrwt>
</event>
<event>
 4    3  0.9203887E-001  0.8300728E+02  0.7546771E-02  0.1320728E+00
          3   -1    0    0  501    0  0.00000000000E+00  0.00000000000E+00  0.42112231400E+02  0.42112231400E+02  0.00000000000E+00 0. -1.
         -3   -1    0    0    0  501 -0.00000000000E+00 -0.00000000000E+00 -0.25054156504E+03  0.25054156504E+03  0.00000000000E+00 0.  1.
         24    1    1    2    0    0 -0.14145330628E+01  0.20518075022E+02 -0.19040520893E+03  0.20771218513E+03  0.80419002446E+02 0.  1.
        -24    1    1    2    0    0  0.14145330628E+01 -0.20518075022E+02 -0.18024124703E+02  0.84941611311E+02  0.80419002446E+02 0.  0.
<mgrwt>
<rscale>  0 0.83007278E+02</rscale>
<asrwt>0</asrwt>
<pdfrwt beam="1">  1        3 0.64788049E-02 0.83007278E+02</pdfrwt>
<pdfrwt beam="2">  1       -3 0.38544856E-01 0.83007278E+02</pdfrwt>
<totfact> 0.20901363E+03</totfact>
</mgrwt>
</event>
<event>
 4    3  0.9203887E-001  0.9073160E+02  0.7546771E-02  0.1301090E+00
         -2   -1    0    0    0  501 -0.00000000000E+00  0.00000000000E+00  0.22547570562E+03  0.22547570562E+03  0.00000000000E+00 0.  1.
          2   -1    0    0  501    0  0.00000000000E+00 -0.00000000000E+00 -0.47376241452E+02  0.47376241452E+02  0.00000000000E+00 0. -1.
         24    1    1    2    0    0 -0.41115977579E+02  0.86303822930E+01  0.23714547191E+02  0.93779543685E+02  0.80419002446E+02 0.  1.
        -24    1    1    2    0    0  0.41115977579E+02 -0.86303822930E+01  0.15438491698E+03  0.17907240339E+03  0.80419002446E+02 0.  1.
<mgrwt>
<rscale>  0 0.90731599E+02</rscale>
<asrwt>0</asrwt>
<pdfrwt beam="1">  1        2 0.72886527E-02 0.90731599E+02</pdfrwt>
<pdfrwt beam="2">  1       -2 0.34688569E-01 0.90731599E+02</pdfrwt>
<totfact> 0.68265047E+03</totfact>
</mgrwt>
</event>
<event>
 4    3  0.9203887E-001  0.8923651E+02  0.7546771E-02  0.1304711E+00
          1   -1    0    0  501    0  0.00000000000E+00  0.00000000000E+00  0.87914454523E+03  0.87914454523E+03  0.00000000000E+00 0. -1.
         -1   -1    0    0    0  501 -0.00000000000E+00 -0.00000000000E+00 -0.11586360007E+02  0.11586360007E+02  0.00000000000E+00 0.  1.
         24    1    1    2    0    0  0.38274072881E+02  0.55703898788E+01  0.64183319759E+03  0.64800694702E+03  0.80419002446E+02 0.  0.
        -24    1    1    2    0    0 -0.38274072881E+02 -0.55703898788E+01  0.22572498763E+03  0.24272395822E+03  0.80419002446E+02 0.  0.
<mgrwt>
<rscale>  0 0.89236494E+02</rscale>
<asrwt>0</asrwt>
<pdfrwt beam="1">  1        1 0.13525295E+00 0.89236505E+02</pdfrwt>
<pdfrwt beam="2">  1       -1 0.17825176E-02 0.89236505E+02</pdfrwt>
<totfact> 0.14890583E+04</totfact>
</mgrwt>
</event>
<event>
 4    3  0.9203887E-001  0.8051270E+02  0.7546771E-02  0.1327603E+00
          2   -1    0    0  501    0  0.00000000000E+00  0.00000000000E+00  0.59471704445E+02  0.59471704445E+02  0.00000000000E+00 0. -1.
         -2   -1    0    0    0  501 -0.00000000000E+00 -0.00000000000E+00 -0.13138052684E+03  0.13138052684E+03  0.00000000000E+00 0.  1.
         24    1    1    2    0    0 -0.35706291928E+01 -0.15263172361E+01  0.34329245626E+01  0.80585854606E+02  0.80419002446E+02 0. -1.
        -24    1    1    2    0    0  0.35706291928E+01  0.15263172361E+01 -0.75341746961E+02  0.11026637668E+03  0.80419002446E+02 0.  0.
<mgrwt>
<rscale>  0 0.80512701E+02</rscale>
<asrwt>0</asrwt>
<pdfrwt beam="1">  1        2 0.91494931E-02 0.80512701E+02</pdfrwt>
<pdfrwt beam="2">  1       -2 0.20212389E-01 0.80512701E+02</pdfrwt>
<totfact> 0.13075685E+04</totfact>
</mgrwt>
</event>
<event>
 4    3  0.9203887E-001  0.8632193E+02  0.7546771E-02  0.1312011E+00
          1   -1    0    0  501    0  0.00000000000E+00  0.00000000000E+00  0.64869871289E+01  0.64869871289E+01  0.00000000000E+00 0. -1.
         -1   -1    0    0    0  501 -0.00000000000E+00 -0.00000000000E+00 -0.11566665983E+04  0.11566665983E+04  0.00000000000E+00 0.  1.
         24    1    1    2    0    0  0.30778076744E+02  0.60803037300E+01 -0.62341442737E+03  0.62936239506E+03  0.80419002446E+02 0. -1.
        -24    1    1    2    0    0 -0.30778076744E+02 -0.60803037300E+01 -0.52676518378E+03  0.53379119035E+03  0.80419002446E+02 0.  1.
<mgrwt>
<rscale>  0 0.86321933E+02</rscale>
<asrwt>0</asrwt>
<pdfrwt beam="1">  1        1 0.99799793E-03 0.86321933E+02</pdfrwt>
<pdfrwt beam="2">  1       -1 0.17794872E+00 0.86321933E+02</pdfrwt>
<totfact> 0.35625196E+03</totfact>
</mgrwt>
</event>
<event>
 4    3  0.9203887E-001  0.1304191E+03  0.7546771E-02  0.1226835E+00
         -1   -1    0    0    0  501 -0.00000000000E+00  0.00000000000E+00  0.60425287952E+02  0.60425287952E+02  0.00000000000E+00 0.  1.
          1   -1    0    0  501    0  0.00000000000E+00 -0.00000000000E+00 -0.78425613918E+03  0.78425613918E+03  0.00000000000E+00 0. -1.
         24    1    1    2    0    0 -0.35700243880E+02 -0.96267363496E+02 -0.23759584417E+02  0.13256563089E+03  0.80419002446E+02 0.  1.
        -24    1    1    2    0    0  0.35700243880E+02  0.96267363496E+02 -0.70007126681E+03  0.71211579624E+03  0.80419002446E+02 0. -1.
<mgrwt>
<rscale>  0 0.13041905E+03</rscale>
<asrwt>0</asrwt>
<pdfrwt beam="1">  1        1 0.12065479E+00 0.13041905E+03</pdfrwt>
<pdfrwt beam="2">  1       -1 0.92961982E-02 0.13041905E+03</pdfrwt>
<totfact> 0.16089482E+03</totfact>
</mgrwt>
</event>
<event>
 4    3  0.9203887E-001  0.1169617E+03  0.7546771E-02  0.1248195E+00
         -4   -1    0    0    0  501 -0.00000000000E+00  0.00000000000E+00  0.18796355608E+02  0.18796355608E+02  0.00000000000E+00 0.  1.
          4   -1    0    0  501    0  0.00000000000E+00 -0.00000000000E+00 -0.16011249620E+04  0.16011249620E+04  0.00000000000E+00 0. -1.
         24    1    1    2    0    0 -0.33319153465E+02  0.78119494837E+02 -0.13893535321E+04  0.13942680067E+04  0.80419002446E+02 0. -1.
        -24    1    1    2    0    0  0.33319153465E+02 -0.78119494837E+02 -0.19297507430E+03  0.22565331089E+03  0.80419002446E+02 0.  1.
<mgrwt>
<rscale>  0 0.11696169E+03</rscale>
<asrwt>0</asrwt>
<pdfrwt beam="1">  1        4 0.24632690E+00 0.11696169E+03</pdfrwt>
<pdfrwt beam="2">  1       -4 0.28917472E-02 0.11696169E+03</pdfrwt>
<totfact> 0.72910044E+01</totfact>
</mgrwt>
</event>
<event>
 4    3  0.9203887E-001  0.9184742E+02  0.7546771E-02  0.1298439E+00
         -2   -1    0    0    0  501 -0.00000000000E+00  0.00000000000E+00  0.31548155021E+01  0.31548155021E+01  0.00000000000E+00 0.  1.
          2   -1    0    0  501    0  0.00000000000E+00 -0.00000000000E+00 -0.26748058105E+04  0.26748058105E+04  0.00000000000E+00 0. -1.
         24    1    1    2    0    0  0.14038456904E+02 -0.42090984104E+02 -0.13124415827E+04  0.13156514938E+04  0.80419002446E+02 0.  0.
        -24    1    1    2    0    0 -0.14038456904E+02  0.42090984104E+02 -0.13592094123E+04  0.13623091322E+04  0.80419002446E+02 0.  1.
<mgrwt>
<rscale>  0 0.91847413E+02</rscale>
<asrwt>0</asrwt>
<pdfrwt beam="1">  1        2 0.41150897E+00 0.91847425E+02</pdfrwt>
<pdfrwt beam="2">  1       -2 0.48535577E-03 0.91847425E+02</pdfrwt>
<totfact> 0.18804252E+04</totfact>
</mgrwt>
</event>
<event>
 4    3  0.9203887E-001  0.8152014E+02  0.7546771E-02  0.1324792E+00
          2   -1    0    0  501    0  0.00000000000E+00  0.00000000000E+00  0.36530581992E+03  0.36530581992E+03  0.00000000000E+00 0. -1.
         -2   -1    0    0    0  501 -0.00000000000E+00 -0.00000000000E+00 -0.18192388648E+02  0.18192388648E+02  0.00000000000E+00 0.  1.
         24    1    1    2    0    0 -0.48375766872E+00 -0.13344640256E+02  0.17236650414E+03  0.19067181530E+03  0.80419002446E+02 0. -1.
        -24    1    1    2    0    0  0.48375766872E+00  0.13344640256E+02  0.17474692712E+03  0.19282639326E+03  0.80419002446E+02 0.  1.
<mgrwt>
<rscale>  0 0.81520127E+02</rscale>
<asrwt>0</asrwt>
<pdfrwt beam="1">  1        2 0.56200890E-01 0.81520137E+02</pdfrwt>
<pdfrwt beam="2">  1       -2 0.27988293E-02 0.81520137E+02</pdfrwt>
<totfact> 0.36183822E+04</totfact>
</mgrwt>
</event>
<event>
 4    3  0.9203887E-001  0.8442243E+02  0.7546771E-02  0.1316950E+00
         -2   -1    0    0    0  501 -0.00000000000E+00  0.00000000000E+00  0.83066433474E+02  0.83066433474E+02  0.00000000000E+00 0.  1.
          2   -1    0    0  501    0  0.00000000000E+00 -0.00000000000E+00 -0.35173524136E+03  0.35173524136E+03  0.00000000000E+00 0. -1.
         24    1    1    2    0    0  0.21038025664E+02  0.14742216278E+02 -0.32336876390E+03  0.33420727833E+03  0.80419002446E+02 0. -1.
        -24    1    1    2    0    0 -0.21038025664E+02 -0.14742216278E+02  0.54699956021E+02  0.10059439650E+03  0.80419002446E+02 0.  1.
<mgrwt>
<rscale>  0 0.84422434E+02</rscale>
<asrwt>0</asrwt>
<pdfrwt beam="1">  1        2 0.54113113E-01 0.84422434E+02</pdfrwt>
<pdfrwt beam="2">  1       -2 0.12779452E-01 0.84422434E+02</pdfrwt>
<totfact> 0.38531010E+03</totfact>
</mgrwt>
</event>
<event>
 4    3  0.9203887E-001  0.9780206E+02  0.7546771E-02  0.1284987E+00
         -2   -1    0    0    0  501 -0.00000000000E+00  0.00000000000E+00  0.48931760100E+03  0.48931760100E+03  0.00000000000E+00 0.  1.
          2   -1    0    0  501    0  0.00000000000E+00 -0.00000000000E+00 -0.35020645897E+02  0.35020645897E+02  0.00000000000E+00 0. -1.
         24    1    1    2    0    0 -0.13614024125E+02  0.53969298808E+02  0.52887570219E+02  0.11118605086E+03  0.80419002446E+02 0. -1.
        -24    1    1    2    0    0  0.13614024125E+02 -0.53969298808E+02  0.40140938489E+03  0.41315219605E+03  0.80419002446E+02 0.  1.
<mgrwt>
<rscale>  0 0.97802059E+02</rscale>
<asrwt>0</asrwt>
<pdfrwt beam="1">  1        2 0.53877920E-02 0.97802059E+02</pdfrwt>
<pdfrwt beam="2">  1       -2 0.75279626E-01 0.97802059E+02</pdfrwt>
<totfact> 0.21784543E+03</totfact>
</mgrwt>
</event>
<event>
 4    3  0.9203887E-001  0.9245129E+02  0.7546771E-02  0.1297022E+00
          1   -1    0    0  501    0  0.00000000000E+00  0.00000000000E+00  0.32790526492E+04  0.32790526492E+04  0.00000000000E+00 0. -1.
         -1   -1    0    0    0  501 -0.00000000000E+00 -0.00000000000E+00 -0.42516939932E+01  0.42516939932E+01  0.00000000000E+00 0.  1.
         24    1    1    2    0    0 -0.46376644774E+01 -0.45370890158E+02  0.61624241421E+03  0.62313879243E+03  0.80419002446E+02 0.  1.
        -24    1    1    2    0    0  0.46376644774E+01  0.45370890158E+02  0.26585585410E+04  0.26601655508E+04  0.80419002446E+02 0. -1.
<mgrwt>
<rscale>  0 0.92451293E+02</rscale>
<asrwt>0</asrwt>
<pdfrwt beam="1">  1        1 0.50446762E+00 0.92451293E+02</pdfrwt>
<pdfrwt beam="2">  1       -1 0.65410939E-03 0.92451293E+02</pdfrwt>
<totfact> 0.16195450E+03</totfact>
</mgrwt>
</event>
<event>
 4    3  0.9203887E-001  0.1265299E+03  0.7546771E-02  0.1232698E+00
          2   -1    0    0  501    0  0.00000000000E+00  0.00000000000E+00  0.48040481546E+03  0.48040481546E+03  0.00000000000E+00 0. -1.
         -2   -1    0    0    0  501 -0.00000000000E+00 -0.00000000000E+00 -0.38193667747E+02  0.38193667747E+02  0.00000000000E+00 0.  1.
         24    1    1    2    0    0  0.50193169756E+02 -0.83804753804E+02  0.31367791432E+03  0.33823607279E+03  0.80419002446E+02 0. -1.
        -24    1    1    2    0    0 -0.50193169756E+02  0.83804753804E+02  0.12853323339E+03  0.18036241041E+03  0.80419002446E+02 0.  1.
<mgrwt>
<rscale>  0 0.12652987E+03</rscale>
<asrwt>0</asrwt>
<pdfrwt beam="1">  1        2 0.73908429E-01 0.12652987E+03</pdfrwt>
<pdfrwt beam="2">  1       -2 0.58759492E-02 0.12652987E+03</pdfrwt>
<totfact> 0.94360888E+03</totfact>
</mgrwt>
</event>
<event>
 4    3  0.9203887E-001  0.1009530E+03  0.7546771E-02  0.1278305E+00
          1   -1    0    0  501    0  0.00000000000E+00  0.00000000000E+00  0.63819746570E+02  0.63819746570E+02  0.00000000000E+00 0. -1.
         -1   -1    0    0    0  501 -0.00000000000E+00 -0.00000000000E+00 -0.23287431342E+03  0.23287431342E+03  0.00000000000E+00 0.  1.
         24    1    1    2    0    0  0.49156454405E+02 -0.36165361806E+02 -0.16768852635E+03  0.19573182732E+03  0.80419002446E+02 0. -1.
        -24    1    1    2    0    0 -0.49156454405E+02  0.36165361806E+02 -0.13660405032E+01  0.10096223267E+03  0.80419002446E+02 0.  0.
<mgrwt>
<rscale>  0 0.10095299E+03</rscale>
<asrwt>0</asrwt>
<pdfrwt beam="1">  1        1 0.98184223E-02 0.10095299E+03</pdfrwt>
<pdfrwt beam="2">  1       -1 0.35826818E-01 0.10095299E+03</pdfrwt>
<totfact> 0.46213290E+03</totfact>
</mgrwt>
</event>
<event>
 4    3  0.9203887E-001  0.8737064E+02  0.7546771E-02  0.1309347E+00
          1   -1    0    0  501    0  0.00000000000E+00  0.00000000000E+00  0.27998318726E+03  0.27998318726E+03  0.00000000000E+00 0. -1.
         -1   -1    0    0    0  501 -0.00000000000E+00 -0.00000000000E+00 -0.28247324967E+02  0.28247324967E+02  0.00000000000E+00 0.  1.
         24    1    1    2    0    0  0.45915347649E+01 -0.33842742799E+02  0.97122214594E+02  0.13063825609E+03  0.80419002446E+02 0.  0.
        -24    1    1    2    0    0 -0.45915347649E+01  0.33842742799E+02  0.15461364770E+03  0.17759225614E+03  0.80419002446E+02 0.  1.
<mgrwt>
<rscale>  0 0.87370644E+02</rscale>
<asrwt>0</asrwt>
<pdfrwt beam="1">  1        1 0.43074335E-01 0.87370644E+02</pdfrwt>
<pdfrwt beam="2">  1       -1 0.43457425E-02 0.87370644E+02</pdfrwt>
<totfact> 0.18573206E+04</totfact>
</mgrwt>
</event>
<event>
 4    3  0.9203887E-001  0.9215715E+02  0.7546771E-02  0.1297710E+00
         -1   -1    0    0    0  501 -0.00000000000E+00  0.00000000000E+00  0.11697405565E+03  0.11697405565E+03  0.00000000000E+00 0.  1.
          1   -1    0    0  501    0  0.00000000000E+00 -0.00000000000E+00 -0.15049265223E+03  0.15049265223E+03  0.00000000000E+00 0. -1.
         24    1    1    2    0    0 -0.22351104964E+02 -0.39066006730E+02  0.79449647413E+02  0.12167656801E+03  0.80419002446E+02 0. -1.
        -24    1    1    2    0    0  0.22351104964E+02  0.39066006730E+02 -0.11296824400E+03  0.14579013986E+03  0.80419002446E+02 0.  0.
<mgrwt>
<rscale>  0 0.92157152E+02</rscale>
<asrwt>0</asrwt>
<pdfrwt beam="1">  1        1 0.23152716E-01 0.92157152E+02</pdfrwt>
<pdfrwt beam="2">  1       -1 0.17996009E-01 0.92157152E+02</pdfrwt>
<totfact> 0.47170866E+03</totfact>
</mgrwt>
</event>
<event>
 4    3  0.9203887E-001  0.8675017E+02  0.7546771E-02  0.1310918E+00
         -2   -1    0    0    0  501 -0.00000000000E+00  0.00000000000E+00  0.68107307133E+02  0.68107307133E+02  0.00000000000E+00 0.  1.
          2   -1    0    0  501    0  0.00000000000E+00 -0.00000000000E+00 -0.13650095290E+03  0.13650095290E+03  0.00000000000E+00 0. -1.
         24    1    1    2    0    0 -0.66264807792E+01 -0.31850608652E+02  0.10456425564E+02  0.87378053932E+02  0.80419002446E+02 0.  0.
        -24    1    1    2    0    0  0.66264807792E+01  0.31850608652E+02 -0.78850071332E+02  0.11723020610E+03  0.80419002446E+02 0. -1.
<mgrwt>
<rscale>  0 0.86750155E+02</rscale>
<asrwt>0</asrwt>
<pdfrwt beam="1">  1        2 0.21000146E-01 0.86750166E+02</pdfrwt>
<pdfrwt beam="2">  1       -2 0.10478047E-01 0.86750166E+02</pdfrwt>
<totfact> 0.14442815E+04</totfact>
</mgrwt>
</event>
<event>
 4    3  0.9203887E-001  0.8615110E+02  0.7546771E-02  0.1312449E+00
          1   -1    0    0  501    0  0.00000000000E+00  0.00000000000E+00  0.73766199318E+02  0.73766199318E+02  0.00000000000E+00 0. -1.
         -1   -1    0    0    0  501 -0.00000000000E+00 -0.00000000000E+00 -0.11272777577E+03  0.11272777577E+03  0.00000000000E+00 0.  1.
         24    1    1    2    0    0 -0.12850718901E+02  0.28100797467E+02 -0.50046531243E+02  0.99632660501E+02  0.80419002446E+02 0.  1.
        -24    1    1    2    0    0  0.12850718901E+02 -0.28100797467E+02  0.11084954793E+02  0.86861314587E+02  0.80419002446E+02 0. -1.
<mgrwt>
<rscale>  0 0.86151098E+02</rscale>
<asrwt>0</asrwt>
<pdfrwt beam="1">  1        1 0.11348646E-01 0.86151098E+02</pdfrwt>
<pdfrwt beam="2">  1       -1 0.17342735E-01 0.86151098E+02</pdfrwt>
<totfact> 0.12304738E+04</totfact>
</mgrwt>
</event>
<event>
 4    3  0.9203887E-001  0.8882325E+02  0.7546771E-02  0.1305727E+00
         -3   -1    0    0    0  501 -0.00000000000E+00  0.00000000000E+00  0.19509953454E+03  0.19509953454E+03  0.00000000000E+00 0.  1.
          3   -1    0    0  501    0  0.00000000000E+00 -0.00000000000E+00 -0.59294337836E+02  0.59294337836E+02  0.00000000000E+00 0. -1.
         24    1    1    2    0    0 -0.30781074280E+02 -0.21791621453E+02 -0.38257819738E+01  0.88905578348E+02  0.80419002446E+02 0. -1.
        -24    1    1    2    0    0  0.30781074280E+02  0.21791621453E+02  0.13963097868E+03  0.16548829403E+03  0.80419002446E+02 0.  1.
<mgrwt>
<rscale>  0 0.88823236E+02</rscale>
<asrwt>0</asrwt>
<pdfrwt beam="1">  1        3 0.91222059E-02 0.88823247E+02</pdfrwt>
<pdfrwt beam="2">  1       -3 0.30015313E-01 0.88823247E+02</pdfrwt>
<totfact> 0.19500351E+03</totfact>
</mgrwt>
</event>
<event>
 4    3  0.9203887E-001  0.8715362E+02  0.7546771E-02  0.1309895E+00
         -2   -1    0    0    0  501 -0.00000000000E+00  0.00000000000E+00  0.51359521505E+01  0.51359521505E+01  0.00000000000E+00 0.  1.
          2   -1    0    0  501    0  0.00000000000E+00 -0.00000000000E+00 -0.15036608878E+04  0.15036608878E+04  0.00000000000E+00 0. -1.
         24    1    1    2    0    0 -0.31474854944E+02  0.11741856056E+02 -0.84599608270E+03  0.85047347141E+03  0.80419002446E+02 0. -1.
        -24    1    1    2    0    0  0.31474854944E+02 -0.11741856056E+02 -0.65252885291E+03  0.65832336849E+03  0.80419002446E+02 0.  1.
<mgrwt>
<rscale>  0 0.87153621E+02</rscale>
<asrwt>0</asrwt>
<pdfrwt beam="1">  1        2 0.23133228E+00 0.87153621E+02</pdfrwt>
<pdfrwt beam="2">  1       -2 0.79014704E-03 0.87153621E+02</pdfrwt>
<totfact> 0.37470588E+04</totfact>
</mgrwt>
</event>
<event>
 4    3  0.9203887E-001  0.9355114E+02  0.7546771E-02  0.1294473E+00
          2   -1    0    0  501    0  0.00000000000E+00  0.00000000000E+00  0.19996779109E+03  0.19996779109E+03  0.00000000000E+00 0. -1.
         -2   -1    0    0    0  501 -0.00000000000E+00 -0.00000000000E+00 -0.24332665920E+03  0.24332665920E+03  0.00000000000E+00 0.  1.
         24    1    1    2    0    0  0.24235287449E+02 -0.41197705842E+02  0.17904709589E+03  0.20201405552E+03  0.80419002446E+02 0. -1.
        -24    1    1    2    0    0 -0.24235287449E+02  0.41197705842E+02 -0.22240596400E+03  0.24128039478E+03  0.80419002446E+02 0.  1.
<mgrwt>
<rscale>  0 0.93551142E+02</rscale>
<asrwt>0</asrwt>
<pdfrwt beam="1">  1        2 0.30764276E-01 0.93551142E+02</pdfrwt>
<pdfrwt beam="2">  1       -2 0.37434871E-01 0.93551142E+02</pdfrwt>
<totfact> 0.11222257E+03</totfact>
</mgrwt>
</event>
<event>
 4    3  0.9203887E-001  0.8763097E+02  0.7546771E-02  0.1308692E+00
          3   -1    0    0  501    0  0.00000000000E+00  0.00000000000E+00  0.22910466988E+03  0.22910466988E+03  0.00000000000E+00 0. -1.
         -3   -1    0    0    0  501 -0.00000000000E+00 -0.00000000000E+00 -0.35502779746E+02  0.35502779746E+02  0.00000000000E+00 0.  1.
         24    1    1    2    0    0  0.29273051939E+02  0.18843005087E+02  0.65520689757E+02  0.10941730737E+03  0.80419002446E+02 0.  1.
        -24    1    1    2    0    0 -0.29273051939E+02 -0.18843005087E+02  0.12808120038E+03  0.15519014226E+03  0.80419002446E+02 0.  0.
<mgrwt>
<rscale>  0 0.87630967E+02</rscale>
<asrwt>0</asrwt>
<pdfrwt beam="1">  1        3 0.35246871E-01 0.87630967E+02</pdfrwt>
<pdfrwt beam="2">  1       -3 0.54619663E-02 0.87630967E+02</pdfrwt>
<totfact> 0.32779399E+03</totfact>
</mgrwt>
</event>
<event>
 4    3  0.9203887E-001  0.9537003E+02  0.7546771E-02  0.1290345E+00
          1   -1    0    0  501    0  0.00000000000E+00  0.00000000000E+00  0.17627693059E+02  0.17627693059E+02  0.00000000000E+00 0. -1.
         -1   -1    0    0    0  501 -0.00000000000E+00 -0.00000000000E+00 -0.69149073174E+03  0.69149073174E+03  0.00000000000E+00 0.  1.
         24    1    1    2    0    0  0.41548133397E+02  0.30032955014E+02 -0.51556140564E+03  0.52430812002E+03  0.80419002446E+02 0.  1.
        -24    1    1    2    0    0 -0.41548133397E+02 -0.30032955014E+02 -0.15830163304E+03  0.18481030478E+03  0.80419002446E+02 0. -1.
<mgrwt>
<rscale>  0 0.95370025E+02</rscale>
<asrwt>0</asrwt>
<pdfrwt beam="1">  1        1 0.27119524E-02 0.95370025E+02</pdfrwt>
<pdfrwt beam="2">  1       -1 0.10638320E+00 0.95370025E+02</pdfrwt>
<totfact> 0.32343460E+03</totfact>
</mgrwt>
</event>
<event>
 4    3  0.9203887E-001  0.1220385E+03  0.7546771E-02  0.1239772E+00
          2   -1    0    0  501    0  0.00000000000E+00  0.00000000000E+00  0.22415450817E+03  0.22415450817E+03  0.00000000000E+00 0. -1.
         -2   -1    0    0    0  501 -0.00000000000E+00 -0.00000000000E+00 -0.78306046763E+02  0.78306046763E+02  0.00000000000E+00 0.  1.
         24    1    1    2    0    0 -0.80675783857E+02  0.43790396767E+02  0.13178791954E+03  0.17961473392E+03  0.80419002446E+02 0. -1.
        -24    1    1    2    0    0  0.80675783857E+02 -0.43790396767E+02  0.14060541874E+02  0.12284582102E+03  0.80419002446E+02 0.  1.
<mgrwt>
<rscale>  0 0.12203851E+03</rscale>
<asrwt>0</asrwt>
<pdfrwt beam="1">  1        2 0.34485309E-01 0.12203851E+03</pdfrwt>
<pdfrwt beam="2">  1       -2 0.12047084E-01 0.12203851E+03</pdfrwt>
<totfact> 0.69665093E+03</totfact>
</mgrwt>
</event>
<event>
 4    3  0.9203887E-001  0.8214234E+02  0.7546771E-02  0.1323079E+00
         -2   -1    0    0    0  501 -0.00000000000E+00  0.00000000000E+00  0.16047324110E+02  0.16047324110E+02  0.00000000000E+00 0.  1.
          2   -1    0    0  501    0  0.00000000000E+00 -0.00000000000E+00 -0.45961242593E+03  0.45961242593E+03  0.00000000000E+00 0. -1.
         24    1    1    2    0    0 -0.13259427140E+02 -0.10214495376E+02 -0.29119112052E+03  0.30255517339E+03  0.80419002446E+02 0.  0.
        -24    1    1    2    0    0  0.13259427140E+02  0.10214495376E+02 -0.15237398130E+03  0.17310457664E+03  0.80419002446E+02 0.  0.
<mgrwt>
<rscale>  0 0.82142342E+02</rscale>
<asrwt>0</asrwt>
<pdfrwt beam="1">  1        2 0.70709594E-01 0.82142342E+02</pdfrwt>
<pdfrwt beam="2">  1       -2 0.24688194E-02 0.82142342E+02</pdfrwt>
<totfact> 0.34094551E+04</totfact>
</mgrwt>
</event>
<event>
 4    3  0.9203887E-001  0.9124082E+02  0.7546771E-02  0.1299874E+00
          2   -1    0    0  501    0  0.00000000000E+00  0.00000000000E+00  0.95700480508E+03  0.95700480508E+03  0.00000000000E+00 0. -1.
         -2   -1    0    0    0  501 -0.00000000000E+00 -0.00000000000E+00 -0.91476830297E+01  0.91476830297E+01  0.00000000000E+00 0.  1.
         24    1    1    2    0    0 -0.11517815543E+02  0.41533263947E+02  0.58092735284E+03  0.58804887324E+03  0.80419002446E+02 0. -1.
        -24    1    1    2    0    0  0.11517815543E+02 -0.41533263947E+02  0.36692976921E+03  0.37810361487E+03  0.80419002446E+02 0.  1.
<mgrwt>
<rscale>  0 0.91240824E+02</rscale>
<asrwt>0</asrwt>
<pdfrwt beam="1">  1        2 0.14723143E+00 0.91240824E+02</pdfrwt>
<pdfrwt beam="2">  1       -2 0.14073366E-02 0.91240824E+02</pdfrwt>
<totfact> 0.32924752E+04</totfact>
</mgrwt>
</event>
<event>
 4    3  0.9203887E-001  0.1047708E+03  0.7546771E-02  0.1270572E+00
          2   -1    0    0  501    0  0.00000000000E+00  0.00000000000E+00  0.38856517773E+03  0.38856517773E+03  0.00000000000E+00 0. -1.
         -2   -1    0    0    0  501 -0.00000000000E+00 -0.00000000000E+00 -0.30321697777E+02  0.30321697777E+02  0.00000000000E+00 0.  1.
         24    1    1    2    0    0  0.61026096453E+01 -0.66876444452E+02  0.12437394995E+03  0.16262163462E+03  0.80419002446E+02 0.  0.
        -24    1    1    2    0    0 -0.61026096453E+01  0.66876444452E+02  0.23386953001E+03  0.25626524089E+03  0.80419002446E+02 0.  0.
<mgrwt>
<rscale>  0 0.10477079E+03</rscale>
<asrwt>0</asrwt>
<pdfrwt beam="1">  1        2 0.59779255E-01 0.10477081E+03</pdfrwt>
<pdfrwt beam="2">  1       -2 0.46648769E-02 0.10477081E+03</pdfrwt>
<totfact> 0.16483598E+04</totfact>
</mgrwt>
</event>
<event>
 4    3  0.9203887E-001  0.1398256E+03  0.7546771E-02  0.1213564E+00
          1   -1    0    0  501    0  0.00000000000E+00  0.00000000000E+00  0.21708253673E+03  0.21708253673E+03  0.00000000000E+00 0. -1.
         -1   -1    0    0    0  501 -0.00000000000E+00 -0.00000000000E+00 -0.14819572557E+03  0.14819572557E+03  0.00000000000E+00 0.  1.
         24    1    1    2    0    0  0.61512475684E+02 -0.96437492157E+02 -0.79945750657E+02  0.16106679844E+03  0.80419002446E+02 0.  1.
        -24    1    1    2    0    0 -0.61512475684E+02  0.96437492157E+02  0.14883256181E+03  0.20421146385E+03  0.80419002446E+02 0. -1.
<mgrwt>
<rscale>  0 0.13982557E+03</rscale>
<asrwt>0</asrwt>
<pdfrwt beam="1">  1        1 0.33397313E-01 0.13982557E+03</pdfrwt>
<pdfrwt beam="2">  1       -1 0.22799343E-01 0.13982557E+03</pdfrwt>
<totfact> 0.20954268E+03</totfact>
</mgrwt>
</event>
<event>
 4    3  0.9203887E-001  0.1290685E+03  0.7546771E-02  0.1228845E+00
         -2   -1    0    0    0  501 -0.00000000000E+00  0.00000000000E+00  0.28636346100E+03  0.28636346100E+03  0.00000000000E+00 0.  1.
          2   -1    0    0  501    0  0.00000000000E+00 -0.00000000000E+00 -0.85105767631E+02  0.85105767631E+02  0.00000000000E+00 0. -1.
         24    1    1    2    0    0  0.66724764141E+02 -0.75757874637E+02 -0.38558300276E+01  0.12912603571E+03  0.80419002446E+02 0.  1.
        -24    1    1    2    0    0 -0.66724764141E+02  0.75757874637E+02  0.20511352340E+03  0.24234319292E+03  0.80419002446E+02 0.  0.
<mgrwt>
<rscale>  0 0.12906845E+03</rscale>
<asrwt>0</asrwt>
<pdfrwt beam="1">  1        2 0.13093195E-01 0.12906845E+03</pdfrwt>
<pdfrwt beam="2">  1       -2 0.44055917E-01 0.12906845E+03</pdfrwt>
<totfact> 0.21866610E+03</totfact>
</mgrwt>
</event>
<event>
 4    3  0.9203887E-001  0.1094267E+03  0.7546771E-02  0.1261635E+00
          3   -1    0    0  501    0  0.00000000000E+00  0.00000000000E+00  0.19106187341E+02  0.19106187341E+02  0.00000000000E+00 0. -1.
         -3   -1    0    0    0  501 -0.00000000000E+00 -0.00000000000E+00 -0.62765495047E+03  0.62765495047E+03  0.00000000000E+00 0.  1.
         24    1    1    2    0    0 -0.45541647500E+02 -0.58591400081E+02 -0.31676230392E+03  0.33513067147E+03  0.80419002446E+02 0. -1.
        -24    1    1    2    0    0  0.45541647500E+02  0.58591400081E+02 -0.29178645920E+03  0.31163046634E+03  0.80419002446E+02 0.  1.
<mgrwt>
<rscale>  0 0.10942673E+03</rscale>
<asrwt>0</asrwt>
<pdfrwt beam="1">  1        3 0.29394135E-02 0.10942673E+03</pdfrwt>
<pdfrwt beam="2">  1       -3 0.96562299E-01 0.10942673E+03</pdfrwt>
<totfact> 0.11462423E+03</totfact>
</mgrwt>
</event>
<event>
 4    3  0.9203887E-001  0.8141722E+02  0.7546771E-02  0.1325077E+00
          2   -1    0    0  501    0  0.00000000000E+00  0.00000000000E+00  0.84705611259E+03  0.84705611259E+03  0.00000000000E+00 0. -1.
         -2   -1    0    0    0  501 -0.00000000000E+00 -0.00000000000E+00 -0.10213750592E+02  0.10213750592E+02  0.00000000000E+00 0.  1.
         24    1    1    2    0    0 -0.77993351360E+01  0.10035875549E+02  0.62568394026E+03  0.63095891901E+03  0.80419002446E+02 0.  0.
        -24    1    1    2    0    0  0.77993351360E+01 -0.10035875549E+02  0.21115842174E+03  0.22631094418E+03  0.80419002446E+02 0.  1.
<mgrwt>
<rscale>  0 0.81417224E+02</rscale>
<asrwt>0</asrwt>
<pdfrwt beam="1">  1        2 0.13031627E+00 0.81417224E+02</pdfrwt>
<pdfrwt beam="2">  1       -2 0.15713469E-02 0.81417224E+02</pdfrwt>
<totfact> 0.32514333E+04</totfact>
</mgrwt>
</event>
<event>
 4    3  0.9203887E-001  0.1017413E+03  0.7546771E-02  0.1276676E+00
          1   -1    0    0  501    0  0.00000000000E+00  0.00000000000E+00  0.42185326416E+03  0.42185326416E+03  0.00000000000E+00 0. -1.
         -1   -1    0    0    0  501 -0.00000000000E+00 -0.00000000000E+00 -0.37110859842E+02  0.37110859842E+02  0.00000000000E+00 0.  1.
         24    1    1    2    0    0 -0.21750995922E+02  0.58403577115E+02  0.58797540375E+02  0.11750936283E+03  0.80419002446E+02 0.  1.
        -24    1    1    2    0    0  0.21750995922E+02 -0.58403577115E+02  0.32594486394E+03  0.34145476117E+03  0.80419002446E+02 0. -1.
<mgrwt>
<rscale>  0 0.10174134E+03</rscale>
<asrwt>0</asrwt>
<pdfrwt beam="1">  1        1 0.64900499E-01 0.10174134E+03</pdfrwt>
<pdfrwt beam="2">  1       -1 0.57093634E-02 0.10174134E+03</pdfrwt>
<totfact> 0.76179958E+03</totfact>
</mgrwt>
</event>
<event>
 4    3  0.9203887E-001  0.8704620E+02  0.7546771E-02  0.1310167E+00
          1   -1    0    0  501    0  0.00000000000E+00  0.00000000000E+00  0.82673239954E+02  0.82673239954E+02  0.00000000000E+00 0. -1.
         -1   -1    0    0    0  501 -0.00000000000E+00 -0.00000000000E+00 -0.14563037975E+03  0.14563037975E+03  0.00000000000E+00 0.  1.
         24    1    1    2    0    0  0.33120842853E+02  0.35826393005E+01 -0.10097666136E+03  0.13331664423E+03  0.80419002446E+02 0.  1.
        -24    1    1    2    0    0 -0.33120842853E+02 -0.35826393005E+01  0.38019521562E+02  0.94986975474E+02  0.80419002446E+02 0. -1.
<mgrwt>
<rscale>  0 0.87046203E+02</rscale>
<asrwt>0</asrwt>
<pdfrwt beam="1">  1        1 0.12718960E-01 0.87046203E+02</pdfrwt>
<pdfrwt beam="2">  1       -1 0.22404674E-01 0.87046203E+02</pdfrwt>
<totfact> 0.70828282E+03</totfact>
</mgrwt>
</event>
<event>
 4    3  0.9203887E-001  0.8358021E+02  0.7546771E-02  0.1319188E+00
         -4   -1    0    0    0  501 -0.00000000000E+00  0.00000000000E+00  0.29700411483E+02  0.29700411483E+02  0.00000000000E+00 0.  1.
          4   -1    0    0  501    0  0.00000000000E+00 -0.00000000000E+00 -0.11925617371E+04  0.11925617371E+04  0.00000000000E+00 0. -1.
         24    1    1    2    0    0  0.19231005138E+02 -0.12190342036E+02 -0.11289898686E+04  0.11320794032E+04  0.80419002446E+02 0. -1.
        -24    1    1    2    0    0 -0.19231005138E+02  0.12190342036E+02 -0.33871457052E+02  0.90182745327E+02  0.80419002446E+02 0.  1.
<mgrwt>
<rscale>  0 0.83580213E+02</rscale>
<asrwt>0</asrwt>
<pdfrwt beam="1">  1        4 0.18347106E+00 0.83580213E+02</pdfrwt>
<pdfrwt beam="2">  1       -4 0.45692934E-02 0.83580213E+02</pdfrwt>
<totfact> 0.80110560E+01</totfact>
</mgrwt>
</event>
<event>
 4    3  0.9203887E-001  0.8155285E+02  0.7546771E-02  0.1324702E+00
         -2   -1    0    0    0  501 -0.00000000000E+00  0.00000000000E+00  0.92934512578E+02  0.92934512578E+02  0.00000000000E+00 0.  1.
          2   -1    0    0  501    0  0.00000000000E+00 -0.00000000000E+00 -0.99201494527E+03  0.99201494527E+03  0.00000000000E+00 0. -1.
         24    1    1    2    0    0  0.70500869183E+00  0.13533424826E+02 -0.97208133570E+03  0.97549627872E+03  0.80419002446E+02 0. -1.
        -24    1    1    2    0    0 -0.70500869183E+00 -0.13533424826E+02  0.73000903014E+02  0.10945317912E+03  0.80419002446E+02 0.  1.
<mgrwt>
<rscale>  0 0.81552845E+02</rscale>
<asrwt>0</asrwt>
<pdfrwt beam="1">  1        2 0.15261768E+00 0.81552845E+02</pdfrwt>
<pdfrwt beam="2">  1       -2 0.14297618E-01 0.81552845E+02</pdfrwt>
<totfact> 0.99007699E+02</totfact>
</mgrwt>
</event>
<event>
 4    3  0.9203887E-001  0.8386668E+02  0.7546771E-02  0.1318423E+00
         -2   -1    0    0    0  501 -0.00000000000E+00  0.00000000000E+00  0.13960478375E+03  0.13960478375E+03  0.00000000000E+00 0.  1.
          2   -1    0    0  501    0  0.00000000000E+00 -0.00000000000E+00 -0.29820862917E+03  0.29820862917E+03  0.00000000000E+00 0. -1.
         24    1    1    2    0    0  0.23799155791E+02 -0.67330455120E-01 -0.27886152130E+03  0.29119987700E+03  0.80419002446E+02 0. -1.
        -24    1    1    2    0    0 -0.23799155791E+02  0.67330455120E-01  0.12025767588E+03  0.14661353591E+03  0.80419002446E+02 0.  1.
<mgrwt>
<rscale>  0 0.83866682E+02</rscale>
<asrwt>0</asrwt>
<pdfrwt beam="1">  1        2 0.45878250E-01 0.83866682E+02</pdfrwt>
<pdfrwt beam="2">  1       -2 0.21477659E-01 0.83866682E+02</pdfrwt>
<totfact> 0.19578398E+03</totfact>
</mgrwt>
</event>
<event>
 4    3  0.9203887E-001  0.8577491E+02  0.7546771E-02  0.1313418E+00
          2   -1    0    0  501    0  0.00000000000E+00  0.00000000000E+00  0.42117133773E+01  0.42117133773E+01  0.00000000000E+00 0. -1.
         -2   -1    0    0    0  501 -0.00000000000E+00 -0.00000000000E+00 -0.17474440019E+04  0.17474440019E+04  0.00000000000E+00 0.  1.
         24    1    1    2    0    0 -0.75180066056E+01  0.28872103148E+02 -0.85580500760E+03  0.86009275416E+03  0.80419002446E+02 0.  1.
        -24    1    1    2    0    0  0.75180066056E+01 -0.28872103148E+02 -0.88742728092E+03  0.89156296112E+03  0.80419002446E+02 0. -1.
<mgrwt>
<rscale>  0 0.85774907E+02</rscale>
<asrwt>0</asrwt>
<pdfrwt beam="1">  1        2 0.64795572E-03 0.85774907E+02</pdfrwt>
<pdfrwt beam="2">  1       -2 0.26883761E+00 0.85774907E+02</pdfrwt>
<totfact> 0.13854634E+03</totfact>
</mgrwt>
</event>
<event>
 4    3  0.9203887E-001  0.8137103E+02  0.7546771E-02  0.1325205E+00
         -1   -1    0    0    0  501 -0.00000000000E+00  0.00000000000E+00  0.23543573565E+02  0.23543573565E+02  0.00000000000E+00 0.  1.
          1   -1    0    0  501    0  0.00000000000E+00 -0.00000000000E+00 -0.42482428076E+03  0.42482428076E+03  0.00000000000E+00 0. -1.
         24    1    1    2    0    0 -0.60483833061E+01  0.10837236441E+02 -0.70304802223E+02  0.10753608606E+03  0.80419002446E+02 0.  1.
        -24    1    1    2    0    0  0.60483833061E+01 -0.10837236441E+02 -0.33097590498E+03  0.34083176827E+03  0.80419002446E+02 0.  0.
<mgrwt>
<rscale>  0 0.81371030E+02</rscale>
<asrwt>0</asrwt>
<pdfrwt beam="1">  1        1 0.65357576E-01 0.81371030E+02</pdfrwt>
<pdfrwt beam="2">  1       -1 0.36220886E-02 0.81371030E+02</pdfrwt>
<totfact> 0.14390321E+04</totfact>
</mgrwt>
</event>
<event>
 4    3  0.9203887E-001  0.8348680E+02  0.7546771E-02  0.1319438E+00
         -2   -1    0    0    0  501 -0.00000000000E+00  0.00000000000E+00  0.67961220716E+02  0.67961220716E+02  0.00000000000E+00 0.  1.
          2   -1    0    0  501    0  0.00000000000E+00 -0.00000000000E+00 -0.10328001052E+03  0.10328001052E+03  0.00000000000E+00 0. -1.
         24    1    1    2    0    0  0.19590191854E+02 -0.10911228326E+02 -0.24812414673E+02  0.87095937889E+02  0.80419002446E+02 0. -1.
        -24    1    1    2    0    0 -0.19590191854E+02  0.10911228326E+02 -0.10506375135E+02  0.84145293352E+02  0.80419002446E+02 0.  1.
<mgrwt>
<rscale>  0 0.83486804E+02</rscale>
<asrwt>0</asrwt>
<pdfrwt beam="1">  1        2 0.15889232E-01 0.83486804E+02</pdfrwt>
<pdfrwt beam="2">  1       -2 0.10455572E-01 0.83486804E+02</pdfrwt>
<totfact> 0.19758354E+04</totfact>
</mgrwt>
</event>
<event>
 4    3  0.9203887E-001  0.1027212E+03  0.7546771E-02  0.1274675E+00
          2   -1    0    0  501    0  0.00000000000E+00  0.00000000000E+00  0.50532792502E+03  0.50532792502E+03  0.00000000000E+00 0. -1.
         -2   -1    0    0    0  501 -0.00000000000E+00 -0.00000000000E+00 -0.21283105431E+02  0.21283105431E+02  0.00000000000E+00 0.  1.
         24    1    1    2    0    0 -0.24270621138E+02  0.59121640589E+02  0.20582107195E+03  0.23003034811E+03  0.80419002446E+02 0.  1.
        -24    1    1    2    0    0  0.24270621138E+02 -0.59121640589E+02  0.27822374764E+03  0.29658068235E+03  0.80419002446E+02 0. -1.
<mgrwt>
<rscale>  0 0.10272122E+03</rscale>
<asrwt>0</asrwt>
<pdfrwt beam="1">  1        2 0.77742749E-01 0.10272124E+03</pdfrwt>
<pdfrwt beam="2">  1       -2 0.32743243E-02 0.10272124E+03</pdfrwt>
<totfact> 0.20931107E+04</totfact>
</mgrwt>
</event>
<event>
 4    3  0.9203887E-001  0.8336264E+02  0.7546771E-02  0.1319771E+00
         -2   -1    0    0    0  501 -0.00000000000E+00  0.00000000000E+00  0.44566603529E+03  0.44566603529E+03  0.00000000000E+00 0.  1.
          2   -1    0    0  501    0  0.00000000000E+00 -0.00000000000E+00 -0.53287913787E+03  0.53287913787E+03  0.00000000000E+00 0. -1.
         24    1    1    2    0    0 -0.50991377907E+01  0.21356806421E+02 -0.52566743017E+03  0.53223639248E+03  0.80419002446E+02 0. -1.
        -24    1    1    2    0    0  0.50991377907E+01 -0.21356806421E+02  0.43845432758E+03  0.44630878069E+03  0.80419002446E+02 0.  1.
<mgrwt>
<rscale>  0 0.83362644E+02</rscale>
<asrwt>0</asrwt>
<pdfrwt beam="1">  1        2 0.81981406E-01 0.83362644E+02</pdfrwt>
<pdfrwt beam="2">  1       -2 0.68564006E-01 0.83362644E+02</pdfrwt>
<totfact> 0.12112594E+02</totfact>
</mgrwt>
</event>
<event>
 4    3  0.9203887E-001  0.3391073E+03  0.7546771E-02  0.1067177E+00
          2   -1    0    0  501    0  0.00000000000E+00  0.00000000000E+00  0.99525841274E+03  0.99525841274E+03  0.00000000000E+00 0. -1.
         -2   -1    0    0    0  501 -0.00000000000E+00 -0.00000000000E+00 -0.53127668825E+03  0.53127668825E+03  0.00000000000E+00 0.  1.
         24    1    1    2    0    0  0.32865331130E+03  0.22660932162E+02  0.90717894498E+03  0.96848715584E+03  0.80419002446E+02 0. -1.
        -24    1    1    2    0    0 -0.32865331130E+03 -0.22660932162E+02 -0.44319722049E+03  0.55804794514E+03  0.80419002446E+02 0.  1.
<mgrwt>
<rscale>  0 0.33910726E+03</rscale>
<asrwt>0</asrwt>
<pdfrwt beam="1">  1        2 0.15311668E+00 0.33910726E+03</pdfrwt>
<pdfrwt beam="2">  1       -2 0.81734875E-01 0.33910726E+03</pdfrwt>
<totfact> 0.35897307E+01</totfact>
</mgrwt>
</event>
<event>
 4    3  0.9203887E-001  0.8721085E+02  0.7546771E-02  0.1309750E+00
         -1   -1    0    0    0  501 -0.00000000000E+00  0.00000000000E+00  0.30745916476E+02  0.30745916476E+02  0.00000000000E+00 0.  1.
          1   -1    0    0  501    0  0.00000000000E+00 -0.00000000000E+00 -0.42319476767E+03  0.42319476767E+03  0.00000000000E+00 0. -1.
         24    1    1    2    0    0  0.24284226301E+02  0.23426334415E+02 -0.49927783309E+02  0.10049137422E+03  0.80419002446E+02 0.  1.
        -24    1    1    2    0    0 -0.24284226301E+02 -0.23426334415E+02 -0.34252106789E+03  0.35344930993E+03  0.80419002446E+02 0. -1.
<mgrwt>
<rscale>  0 0.87210852E+02</rscale>
<asrwt>0</asrwt>
<pdfrwt beam="1">  1        1 0.65106880E-01 0.87210852E+02</pdfrwt>
<pdfrwt beam="2">  1       -1 0.47301415E-02 0.87210852E+02</pdfrwt>
<totfact> 0.98794068E+03</totfact>
</mgrwt>
</event>
<event>
 4    3  0.9203887E-001  0.8139378E+02  0.7546771E-02  0.1325142E+00
         -1   -1    0    0    0  501 -0.00000000000E+00  0.00000000000E+00  0.30071501269E+01  0.30071501269E+01  0.00000000000E+00 0.  1.
          1   -1    0    0  501    0  0.00000000000E+00 -0.00000000000E+00 -0.24545759078E+04  0.24545759078E+04  0.00000000000E+00 0. -1.
         24    1    1    2    0    0 -0.20868479529E+01  0.12384369038E+02 -0.16191255915E+04  0.16211701405E+04  0.80419002446E+02 0.  0.
        -24    1    1    2    0    0  0.20868479529E+01 -0.12384369038E+02 -0.83244316615E+03  0.83641291737E+03  0.80419002446E+02 0.  0.
<mgrwt>
<rscale>  0 0.81393766E+02</rscale>
<asrwt>0</asrwt>
<pdfrwt beam="1">  1        1 0.37762709E+00 0.81393776E+02</pdfrwt>
<pdfrwt beam="2">  1       -1 0.46263845E-03 0.81393776E+02</pdfrwt>
<totfact> 0.93436244E+03</totfact>
</mgrwt>
</event>
<event>
 4    3  0.9203887E-001  0.1262951E+03  0.7546771E-02  0.1233059E+00
          2   -1    0    0  501    0  0.00000000000E+00  0.00000000000E+00  0.24479073614E+04  0.24479073614E+04  0.00000000000E+00 0. -1.
         -2   -1    0    0    0  501 -0.00000000000E+00 -0.00000000000E+00 -0.18125362332E+02  0.18125362332E+02  0.00000000000E+00 0.  1.
         24    1    1    2    0    0  0.96760356213E+02 -0.10985126976E+02  0.22016941012E+04  0.22053134405E+04  0.80419002446E+02 0. -1.
        -24    1    1    2    0    0 -0.96760356213E+02  0.10985126976E+02  0.22808789784E+03  0.26071928322E+03  0.80419002446E+02 0.  1.
<mgrwt>
<rscale>  0 0.12629511E+03</rscale>
<asrwt>0</asrwt>
<pdfrwt beam="1">  1        2 0.37660087E+00 0.12629511E+03</pdfrwt>
<pdfrwt beam="2">  1       -2 0.27885192E-02 0.12629511E+03</pdfrwt>
<totfact> 0.20549298E+03</totfact>
</mgrwt>
</event>
<event>
 4    3  0.9203887E-001  0.1022800E+03  0.7546771E-02  0.1275573E+00
         -2   -1    0    0    0  501 -0.00000000000E+00  0.00000000000E+00  0.19946314488E+02  0.19946314488E+02  0.00000000000E+00 0.  1.
          2   -1    0    0  501    0  0.00000000000E+00 -0.00000000000E+00 -0.55473387997E+03  0.55473387997E+03  0.00000000000E+00 0. -1.
         24    1    1    2    0    0 -0.96039769306E+01 -0.62463998628E+02 -0.33451048645E+03  0.34979775442E+03  0.80419002446E+02 0.  1.
        -24    1    1    2    0    0  0.96039769306E+01  0.62463998628E+02 -0.20027707903E+03  0.22488244004E+03  0.80419002446E+02 0.  0.
<mgrwt>
<rscale>  0 0.10228002E+03</rscale>
<asrwt>0</asrwt>
<pdfrwt beam="1">  1        2 0.85343668E-01 0.10228002E+03</pdfrwt>
<pdfrwt beam="2">  1       -2 0.30686640E-02 0.10228002E+03</pdfrwt>
<totfact> 0.20766974E+04</totfact>
</mgrwt>
</event>
<event>
 4    3  0.9203887E-001  0.1140443E+03  0.7546771E-02  0.1253259E+00
          1   -1    0    0  501    0  0.00000000000E+00  0.00000000000E+00  0.20429712085E+03  0.20429712085E+03  0.00000000000E+00 0. -1.
         -1   -1    0    0    0  501 -0.00000000000E+00 -0.00000000000E+00 -0.81431557786E+02  0.81431557786E+02  0.00000000000E+00 0.  1.
         24    1    1    2    0    0 -0.38159073167E+02 -0.71293588435E+02 -0.53027626372E+01  0.11416753419E+03  0.80419002446E+02 0. -1.
        -24    1    1    2    0    0  0.38159073167E+02  0.71293588435E+02  0.12816832570E+03  0.17156114445E+03  0.80419002446E+02 0.  0.
<mgrwt>
<rscale>  0 0.11404432E+03</rscale>
<asrwt>0</asrwt>
<pdfrwt beam="1">  1        1 0.31430326E-01 0.11404432E+03</pdfrwt>
<pdfrwt beam="2">  1       -1 0.12527932E-01 0.11404432E+03</pdfrwt>
<totfact> 0.57582330E+03</totfact>
</mgrwt>
</event>
<event>
 4    3  0.9203887E-001  0.8428798E+02  0.7546771E-02  0.1317305E+00
         -1   -1    0    0    0  501 -0.00000000000E+00  0.00000000000E+00  0.25717817403E+03  0.25717817403E+03  0.00000000000E+00 0.  1.
          1   -1    0    0  501    0  0.00000000000E+00 -0.00000000000E+00 -0.27814218528E+02  0.27814218528E+02  0.00000000000E+00 0. -1.
         24    1    1    2    0    0 -0.84681377573E+01 -0.23780963552E+02  0.10291833433E+03  0.13302873028E+03  0.80419002446E+02 0. -1.
        -24    1    1    2    0    0  0.84681377573E+01  0.23780963552E+02  0.12644562117E+03  0.15196366228E+03  0.80419002446E+02 0.  1.
<mgrwt>
<rscale>  0 0.84287967E+02</rscale>
<asrwt>0</asrwt>
<pdfrwt beam="1">  1        1 0.42791107E-02 0.84287977E+02</pdfrwt>
<pdfrwt beam="2">  1       -1 0.39565871E-01 0.84287977E+02</pdfrwt>
<totfact> 0.11639109E+04</totfact>
</mgrwt>
</event>
<event>
 4    3  0.9203887E-001  0.9609037E+02  0.7546771E-02  0.1288739E+00
         -2   -1    0    0    0  501 -0.00000000000E+00  0.00000000000E+00  0.60377078544E+01  0.60377078544E+01  0.00000000000E+00 0.  1.
          2   -1    0    0  501    0  0.00000000000E+00 -0.00000000000E+00 -0.18011168859E+04  0.18011168859E+04  0.00000000000E+00 0. -1.
         24    1    1    2    0    0  0.61249583740E+01  0.52236272171E+02 -0.12485716555E+04  0.12522637654E+04  0.80419002446E+02 0. -1.
        -24    1    1    2    0    0 -0.61249583740E+01 -0.52236272171E+02 -0.54650752253E+03  0.55489082834E+03  0.80419002446E+02 0.  1.
<mgrwt>
<rscale>  0 0.96090370E+02</rscale>
<asrwt>0</asrwt>
<pdfrwt beam="1">  1        2 0.27709533E+00 0.96090370E+02</pdfrwt>
<pdfrwt beam="2">  1       -2 0.92887670E-03 0.96090370E+02</pdfrwt>
<totfact> 0.21261198E+04</totfact>
</mgrwt>
</event>
<event>
 4    3  0.9203887E-001  0.8798958E+02  0.7546771E-02  0.1307795E+00
         -2   -1    0    0    0  501 -0.00000000000E+00  0.00000000000E+00  0.16656556985E+02  0.16656556985E+02  0.00000000000E+00 0.  1.
          2   -1    0    0  501    0  0.00000000000E+00 -0.00000000000E+00 -0.51273676335E+03  0.51273676335E+03  0.00000000000E+00 0. -1.
         24    1    1    2    0    0  0.25147332358E+02 -0.25348789684E+02 -0.32896493501E+03  0.34052913808E+03  0.80419002446E+02 0. -1.
        -24    1    1    2    0    0 -0.25147332358E+02  0.25348789684E+02 -0.16711527136E+03  0.18886418225E+03  0.80419002446E+02 0.  1.
<mgrwt>
<rscale>  0 0.87989576E+02</rscale>
<asrwt>0</asrwt>
<pdfrwt beam="1">  1        2 0.78882574E-01 0.87989576E+02</pdfrwt>
<pdfrwt beam="2">  1       -2 0.25625474E-02 0.87989576E+02</pdfrwt>
<totfact> 0.28959956E+04</totfact>
</mgrwt>
</event>
<event>
 4    3  0.9203887E-001  0.9566331E+02  0.7546771E-02  0.1289689E+00
          2   -1    0    0  501    0  0.00000000000E+00  0.00000000000E+00  0.31853200175E+02  0.31853200175E+02  0.00000000000E+00 0. -1.
         -2   -1    0    0    0  501 -0.00000000000E+00 -0.00000000000E+00 -0.33596500591E+03  0.33596500591E+03  0.00000000000E+00 0.  1.
         24    1    1    2    0    0 -0.35500334331E+02  0.37735598975E+02 -0.22204959318E+03  0.24177983156E+03  0.80419002446E+02 0.  1.
        -24    1    1    2    0    0  0.35500334331E+02 -0.37735598975E+02 -0.82062212562E+02  0.12603837452E+03  0.80419002446E+02 0. -1.
<mgrwt>
<rscale>  0 0.95663302E+02</rscale>
<asrwt>0</asrwt>
<pdfrwt beam="1">  1        2 0.49004922E-02 0.95663314E+02</pdfrwt>
<pdfrwt beam="2">  1       -2 0.51686926E-01 0.95663314E+02</pdfrwt>
<totfact> 0.53299402E+03</totfact>
</mgrwt>
</event>
<event>
 4    3  0.9203887E-001  0.1055286E+03  0.7546771E-02  0.1269082E+00
         -1   -1    0    0    0  501 -0.00000000000E+00  0.00000000000E+00  0.23489555075E+03  0.23489555075E+03  0.00000000000E+00 0.  1.
          1   -1    0    0  501    0  0.00000000000E+00 -0.00000000000E+00 -0.74046837455E+02  0.74046837455E+02  0.00000000000E+00 0. -1.
         24    1    1    2    0    0 -0.62769909171E+02  0.27000006286E+02  0.17307314643E+03  0.20270814440E+03  0.80419002446E+02 0.  1.
        -24    1    1    2    0    0  0.62769909171E+02 -0.27000006286E+02 -0.12224433136E+02  0.10623424380E+03  0.80419002446E+02 0. -1.
<mgrwt>
<rscale>  0 0.10552856E+03</rscale>
<asrwt>0</asrwt>
<pdfrwt beam="1">  1        1 0.11391821E-01 0.10552856E+03</pdfrwt>
<pdfrwt beam="2">  1       -1 0.36137777E-01 0.10552856E+03</pdfrwt>
<totfact> 0.37587977E+03</totfact>
</mgrwt>
</event>
<event>
 4    3  0.9203887E-001  0.9277222E+02  0.7546771E-02  0.1296274E+00
         -2   -1    0    0    0  501 -0.00000000000E+00  0.00000000000E+00  0.33397165985E+02  0.33397165985E+02  0.00000000000E+00 0.  1.
          2   -1    0    0  501    0  0.00000000000E+00 -0.00000000000E+00 -0.53411743349E+03  0.53411743349E+03  0.00000000000E+00 0. -1.
         24    1    1    2    0    0 -0.87183162468E+01 -0.45425311887E+02 -0.45448968003E+03  0.46386156686E+03  0.80419002446E+02 0. -1.
        -24    1    1    2    0    0  0.87183162468E+01  0.45425311887E+02 -0.46230587473E+02  0.10365303262E+03  0.80419002446E+02 0.  1.
<mgrwt>
<rscale>  0 0.92772215E+02</rscale>
<asrwt>0</asrwt>
<pdfrwt beam="1">  1        2 0.82171909E-01 0.92772215E+02</pdfrwt>
<pdfrwt beam="2">  1       -2 0.51380258E-02 0.92772215E+02</pdfrwt>
<totfact> 0.10047040E+04</totfact>
</mgrwt>
</event>
<event>
 4    3  0.9203887E-001  0.8062488E+02  0.7546771E-02  0.1327287E+00
          2   -1    0    0  501    0  0.00000000000E+00  0.00000000000E+00  0.73665689473E+02  0.73665689473E+02  0.00000000000E+00 0. -1.
         -2   -1    0    0    0  501 -0.00000000000E+00 -0.00000000000E+00 -0.14970272269E+03  0.14970272269E+03  0.00000000000E+00 0.  1.
         24    1    1    2    0    0  0.55660856017E+01 -0.14743927287E+01  0.33542664841E+02  0.87324002782E+02  0.80419002446E+02 0.  0.
        -24    1    1    2    0    0 -0.55660856017E+01  0.14743927287E+01 -0.10957969806E+03  0.13604440938E+03  0.80419002446E+02 0.  0.
<mgrwt>
<rscale>  0 0.80624879E+02</rscale>
<asrwt>0</asrwt>
<pdfrwt beam="1">  1        2 0.11333183E-01 0.80624879E+02</pdfrwt>
<pdfrwt beam="2">  1       -2 0.23031188E-01 0.80624879E+02</pdfrwt>
<totfact> 0.81058913E+03</totfact>
</mgrwt>
</event>
<event>
 4    3  0.9203887E-001  0.9792463E+02  0.7546771E-02  0.1284722E+00
         -2   -1    0    0    0  501 -0.00000000000E+00  0.00000000000E+00  0.33311066983E+02  0.33311066983E+02  0.00000000000E+00 0.  1.
          2   -1    0    0  501    0  0.00000000000E+00 -0.00000000000E+00 -0.41864389090E+03  0.41864389090E+03  0.00000000000E+00 0. -1.
         24    1    1    2    0    0 -0.22376662034E+02  0.51198652039E+02 -0.31896674491E+03  0.33366003250E+03  0.80419002446E+02 0. -1.
        -24    1    1    2    0    0  0.22376662034E+02 -0.51198652039E+02 -0.66366079007E+02  0.11829492538E+03  0.80419002446E+02 0.  1.
<mgrwt>
<rscale>  0 0.97924629E+02</rscale>
<asrwt>0</asrwt>
<pdfrwt beam="1">  1        2 0.64406754E-01 0.97924629E+02</pdfrwt>
<pdfrwt beam="2">  1       -2 0.51247794E-02 0.97924629E+02</pdfrwt>
<totfact> 0.13163262E+04</totfact>
</mgrwt>
</event>
<event>
 4    3  0.9203887E-001  0.8147359E+02  0.7546771E-02  0.1324921E+00
          2   -1    0    0  501    0  0.00000000000E+00  0.00000000000E+00  0.38073542896E+03  0.38073542896E+03  0.00000000000E+00 0. -1.
         -2   -1    0    0    0  501 -0.00000000000E+00 -0.00000000000E+00 -0.17554647988E+02  0.17554647988E+02  0.00000000000E+00 0.  1.
         24    1    1    2    0    0  0.10652976162E+02 -0.75659973039E+01  0.19806304629E+03  0.21416562860E+03  0.80419002446E+02 0.  1.
        -24    1    1    2    0    0 -0.10652976162E+02  0.75659973039E+01  0.16511773469E+03  0.18412444835E+03  0.80419002446E+02 0.  0.
<mgrwt>
<rscale>  0 0.81473592E+02</rscale>
<asrwt>0</asrwt>
<pdfrwt beam="1">  1        2 0.58574675E-01 0.81473592E+02</pdfrwt>
<pdfrwt beam="2">  1       -2 0.27007154E-02 0.81473592E+02</pdfrwt>
<totfact> 0.36484940E+04</totfact>
</mgrwt>
</event>
<event>
 4    3  0.9203887E-001  0.9259155E+02  0.7546771E-02  0.1296695E+00
          1   -1    0    0  501    0  0.00000000000E+00  0.00000000000E+00  0.10890131132E+04  0.10890131132E+04  0.00000000000E+00 0. -1.
         -1   -1    0    0    0  501 -0.00000000000E+00 -0.00000000000E+00 -0.32944926402E+02  0.32944926402E+02  0.00000000000E+00 0.  1.
         24    1    1    2    0    0  0.42542672499E+02  0.17207548621E+02  0.38648684495E+02  0.10033401956E+03  0.80419002446E+02 0.  1.
        -24    1    1    2    0    0 -0.42542672499E+02 -0.17207548621E+02  0.10174195023E+04  0.10216240200E+04  0.80419002446E+02 0. -1.
<mgrwt>
<rscale>  0 0.92591547E+02</rscale>
<asrwt>0</asrwt>
<pdfrwt beam="1">  1        1 0.16754045E+00 0.92591547E+02</pdfrwt>
<pdfrwt beam="2">  1       -1 0.50684511E-02 0.92591547E+02</pdfrwt>
<totfact> 0.23281533E+03</totfact>
</mgrwt>
</event>
<event>
 4    3  0.9203887E-001  0.8747321E+02  0.7546771E-02  0.1309089E+00
          2   -1    0    0  501    0  0.00000000000E+00  0.00000000000E+00  0.75561684876E+02  0.75561684876E+02  0.00000000000E+00 0. -1.
         -2   -1    0    0    0  501 -0.00000000000E+00 -0.00000000000E+00 -0.10262690219E+03  0.10262690219E+03  0.00000000000E+00 0.  1.
         24    1    1    2    0    0  0.20524916694E+02 -0.27623787116E+02 -0.32596032223E+01  0.87533917926E+02  0.80419002446E+02 0. -1.
        -24    1    1    2    0    0 -0.20524916694E+02  0.27623787116E+02 -0.23805614090E+02  0.90654669138E+02  0.80419002446E+02 0.  1.
<mgrwt>
<rscale>  0 0.87473206E+02</rscale>
<asrwt>0</asrwt>
<pdfrwt beam="1">  1        2 0.11624875E-01 0.87473206E+02</pdfrwt>
<pdfrwt beam="2">  1       -2 0.15788754E-01 0.87473206E+02</pdfrwt>
<totfact> 0.14857977E+04</totfact>
</mgrwt>
</event>
<event>
 4    3  0.9203887E-001  0.8959666E+02  0.7546771E-02  0.1303831E+00
          1   -1    0    0  501    0  0.00000000000E+00  0.00000000000E+00  0.17778612431E+02  0.17778612431E+02  0.00000000000E+00 0. -1.
         -1   -1    0    0    0  501 -0.00000000000E+00 -0.00000000000E+00 -0.45432120471E+03  0.45432120471E+03  0.00000000000E+00 0.  1.
         24    1    1    2    0    0  0.28083403287E+02 -0.27778840278E+02 -0.19976569945E+03  0.21893810115E+03  0.80419002446E+02 0.  0.
        -24    1    1    2    0    0 -0.28083403287E+02  0.27778840278E+02 -0.23677689283E+03  0.25316171599E+03  0.80419002446E+02 0. -1.
<mgrwt>
<rscale>  0 0.89596649E+02</rscale>
<asrwt>0</asrwt>
<pdfrwt beam="1">  1        1 0.27351718E-02 0.89596660E+02</pdfrwt>
<pdfrwt beam="2">  1       -1 0.69895552E-01 0.89596660E+02</pdfrwt>
<totfact> 0.76149271E+03</totfact>
</mgrwt>
</event>
<event>
 4    3  0.9203887E-001  0.8947735E+02  0.7546771E-02  0.1304122E+00
         -2   -1    0    0    0  501 -0.00000000000E+00  0.00000000000E+00  0.30111236548E+03  0.30111236548E+03  0.00000000000E+00 0.  1.
          2   -1    0    0  501    0  0.00000000000E+00 -0.00000000000E+00 -0.15642342009E+03  0.15642342009E+03  0.00000000000E+00 0. -1.
         24    1    1    2    0    0  0.31164798359E+02 -0.23827193595E+02 -0.13607560524E+03  0.16285811649E+03  0.80419002446E+02 0. -1.
        -24    1    1    2    0    0 -0.31164798359E+02  0.23827193595E+02  0.28076455062E+03  0.29467766908E+03  0.80419002446E+02 0.  1.
<mgrwt>
<rscale>  0 0.89477348E+02</rscale>
<asrwt>0</asrwt>
<pdfrwt beam="1">  1        2 0.24065142E-01 0.89477348E+02</pdfrwt>
<pdfrwt beam="2">  1       -2 0.46324979E-01 0.89477348E+02</pdfrwt>
<totfact> 0.97616427E+02</totfact>
</mgrwt>
</event>
<event>
 4    3  0.9203887E-001  0.8679453E+02  0.7546771E-02  0.1310805E+00
         -2   -1    0    0    0  501 -0.00000000000E+00  0.00000000000E+00  0.11630740575E+04  0.11630740575E+04  0.00000000000E+00 0.  1.
          2   -1    0    0  501    0  0.00000000000E+00 -0.00000000000E+00 -0.73931392221E+01  0.73931392221E+01  0.00000000000E+00 0. -1.
         24    1    1    2    0    0 -0.54172514525E+01 -0.32198250043E+02  0.37183274570E+03  0.38182833924E+03  0.80419002446E+02 0. -1.
        -24    1    1    2    0    0  0.54172514525E+01  0.32198250043E+02  0.78384817255E+03  0.78863885745E+03  0.80419002446E+02 0.  1.
<mgrwt>
<rscale>  0 0.86794527E+02</rscale>
<asrwt>0</asrwt>
<pdfrwt beam="1">  1        2 0.11374070E-02 0.86794527E+02</pdfrwt>
<pdfrwt beam="2">  1       -2 0.17893432E+00 0.86794527E+02</pdfrwt>
<totfact> 0.21874514E+03</totfact>
</mgrwt>
</event>
<event>
 4    3  0.9203887E-001  0.8160487E+02  0.7546771E-02  0.1324558E+00
         -2   -1    0    0    0  501 -0.00000000000E+00  0.00000000000E+00  0.68620157457E+03  0.68620157457E+03  0.00000000000E+00 0.  1.
          2   -1    0    0  501    0  0.00000000000E+00 -0.00000000000E+00 -0.21420157684E+02  0.21420157684E+02  0.00000000000E+00 0. -1.
         24    1    1    2    0    0  0.12751141761E+02 -0.54357193974E+01  0.70729006553E+02  0.10799049488E+03  0.80419002446E+02 0. -1.
        -24    1    1    2    0    0 -0.12751141761E+02  0.54357193974E+01  0.59405241034E+03  0.59963123738E+03  0.80419002446E+02 0.  1.
<mgrwt>
<rscale>  0 0.81604869E+02</rscale>
<asrwt>0</asrwt>
<pdfrwt beam="1">  1        2 0.32954094E-02 0.81604869E+02</pdfrwt>
<pdfrwt beam="2">  1       -2 0.10556946E+00 0.81604869E+02</pdfrwt>
<totfact> 0.19206639E+03</totfact>
</mgrwt>
</event>
<event>
 4    3  0.9203887E-001  0.9644131E+02  0.7546771E-02  0.1287962E+00
         -1   -1    0    0    0  501 -0.00000000000E+00  0.00000000000E+00  0.81145819887E+02  0.81145819887E+02  0.00000000000E+00 0.  1.
          1   -1    0    0  501    0  0.00000000000E+00 -0.00000000000E+00 -0.14499466292E+03  0.14499466292E+03  0.00000000000E+00 0. -1.
         24    1    1    2    0    0  0.47195330322E+02 -0.24623391905E+02  0.19827763013E+02  0.98458452017E+02  0.80419002446E+02 0.  1.
        -24    1    1    2    0    0 -0.47195330322E+02  0.24623391905E+02 -0.83676606051E+02  0.12768203079E+03  0.80419002446E+02 0. -1.
<mgrwt>
<rscale>  0 0.96441312E+02</rscale>
<asrwt>0</asrwt>
<pdfrwt beam="1">  1        1 0.22306871E-01 0.96441312E+02</pdfrwt>
<pdfrwt beam="2">  1       -1 0.12483972E-01 0.96441312E+02</pdfrwt>
<totfact> 0.87477311E+03</totfact>
</mgrwt>
</event>
<event>
 4    3  0.9203887E-001  0.8129849E+02  0.7546771E-02  0.1325406E+00
          1   -1    0    0  501    0  0.00000000000E+00  0.00000000000E+00  0.25520343747E+03  0.25520343747E+03  0.00000000000E+00 0. -1.
         -1   -1    0    0    0  501 -0.00000000000E+00 -0.00000000000E+00 -0.53635677263E+02  0.53635677263E+02  0.00000000000E+00 0.  1.
         24    1    1    2    0    0  0.11173877967E+02 -0.41680862033E+01 -0.10262591500E+02  0.81943671080E+02  0.80419002446E+02 0.  0.
        -24    1    1    2    0    0 -0.11173877967E+02  0.41680862033E+01  0.21183035170E+03  0.22689544365E+03  0.80419002446E+02 0. -1.
<mgrwt>
<rscale>  0 0.81298490E+02</rscale>
<asrwt>0</asrwt>
<pdfrwt beam="1">  1        1 0.39262066E-01 0.81298490E+02</pdfrwt>
<pdfrwt beam="2">  1       -1 0.82516428E-02 0.81298490E+02</pdfrwt>
<totfact> 0.80387038E+03</totfact>
</mgrwt>
</event>
<event>
 4    3  0.9203887E-001  0.9525755E+02  0.7546771E-02  0.1290597E+00
          3   -1    0    0  501    0  0.00000000000E+00  0.00000000000E+00  0.50736275120E+02  0.50736275120E+02  0.00000000000E+00 0. -1.
         -3   -1    0    0    0  501 -0.00000000000E+00 -0.00000000000E+00 -0.25662845213E+03  0.25662845213E+03  0.00000000000E+00 0.  1.
         24    1    1    2    0    0  0.47813806262E+02  0.17906018961E+02 -0.18755405388E+03  0.21035808676E+03  0.80419002446E+02 0.  1.
        -24    1    1    2    0    0 -0.47813806262E+02 -0.17906018961E+02 -0.18338123126E+02  0.97006640487E+02  0.80419002446E+02 0. -1.
<mgrwt>
<rscale>  0 0.95257554E+02</rscale>
<asrwt>0</asrwt>
<pdfrwt beam="1">  1        3 0.78055808E-02 0.95257554E+02</pdfrwt>
<pdfrwt beam="2">  1       -3 0.39481300E-01 0.95257554E+02</pdfrwt>
<totfact> 0.15244700E+03</totfact>
</mgrwt>
</event>
<event>
 4    3  0.9203887E-001  0.8386260E+02  0.7546771E-02  0.1318434E+00
          1   -1    0    0  501    0  0.00000000000E+00  0.00000000000E+00  0.63769741420E+02  0.63769741420E+02  0.00000000000E+00 0. -1.
         -1   -1    0    0    0  501 -0.00000000000E+00 -0.00000000000E+00 -0.12778898099E+03  0.12778898099E+03  0.00000000000E+00 0.  1.
         24    1    1    2    0    0  0.22810720684E+02 -0.67372227125E+01 -0.67456359946E+02  0.10762571997E+03  0.80419002446E+02 0.  1.
        -24    1    1    2    0    0 -0.22810720684E+02  0.67372227125E+01  0.34371203733E+01  0.83933002441E+02  0.80419002446E+02 0.  0.
<mgrwt>
<rscale>  0 0.83862597E+02</rscale>
<asrwt>0</asrwt>
<pdfrwt beam="1">  1        1 0.98107295E-02 0.83862597E+02</pdfrwt>
<pdfrwt beam="2">  1       -1 0.19659843E-01 0.83862597E+02</pdfrwt>
<totfact> 0.12176943E+04</totfact>
</mgrwt>
</event>
<event>
 4    3  0.9203887E-001  0.1604971E+03  0.7546771E-02  0.1188137E+00
         -1   -1    0    0    0  501 -0.00000000000E+00  0.00000000000E+00  0.94443331545E+03  0.94443331545E+03  0.00000000000E+00 0.  1.
          1   -1    0    0  501    0  0.00000000000E+00 -0.00000000000E+00 -0.33652310618E+02  0.33652310618E+02  0.00000000000E+00 0. -1.
         24    1    1    2    0    0  0.26455631207E+02  0.13635326393E+03  0.66828353891E+03  0.68728612479E+03  0.80419002446E+02 0.  1.
        -24    1    1    2    0    0 -0.26455631207E+02 -0.13635326393E+03  0.24249746593E+03  0.29079950127E+03  0.80419002446E+02 0. -1.
<mgrwt>
<rscale>  0 0.16049713E+03</rscale>
<asrwt>0</asrwt>
<pdfrwt beam="1">  1        1 0.51772793E-02 0.16049713E+03</pdfrwt>
<pdfrwt beam="2">  1       -1 0.14529741E+00 0.16049713E+03</pdfrwt>
<totfact> 0.64719880E+02</totfact>
</mgrwt>
</event>
<event>
 4    3  0.9203887E-001  0.8349340E+02  0.7546771E-02  0.1319420E+00
          2   -1    0    0  501    0  0.00000000000E+00  0.00000000000E+00  0.96021693900E+03  0.96021693900E+03  0.00000000000E+00 0. -1.
         -2   -1    0    0    0  501 -0.00000000000E+00 -0.00000000000E+00 -0.37003036505E+02  0.37003036505E+02  0.00000000000E+00 0.  1.
         24    1    1    2    0    0  0.22252807012E+02 -0.29569740637E+01  0.90863539330E+03  0.91246338284E+03  0.80419002446E+02 0. -1.
        -24    1    1    2    0    0 -0.22252807012E+02  0.29569740637E+01  0.14578509198E+02  0.84756592666E+02  0.80419002446E+02 0.  1.
<mgrwt>
<rscale>  0 0.83493395E+02</rscale>
<asrwt>0</asrwt>
<pdfrwt beam="1">  1        2 0.14772566E+00 0.83493395E+02</pdfrwt>
<pdfrwt beam="2">  1       -2 0.56927756E-02 0.83493395E+02</pdfrwt>
<totfact> 0.42779068E+03</totfact>
</mgrwt>
</event>
<event>
 4    3  0.9203887E-001  0.9507280E+02  0.7546771E-02  0.1291012E+00
          2   -1    0    0  501    0  0.00000000000E+00  0.00000000000E+00  0.11342648147E+03  0.11342648147E+03  0.00000000000E+00 0. -1.
         -2   -1    0    0    0  501 -0.00000000000E+00 -0.00000000000E+00 -0.82613312938E+02  0.82613312938E+02  0.00000000000E+00 0.  1.
         24    1    1    2    0    0 -0.49433775794E+02  0.11310300659E+02  0.33848454764E+02  0.10091855595E+03  0.80419002446E+02 0.  1.
        -24    1    1    2    0    0  0.49433775794E+02 -0.11310300659E+02 -0.30352862264E+01  0.95121238465E+02  0.80419002446E+02 0.  0.
<mgrwt>
<rscale>  0 0.95072799E+02</rscale>
<asrwt>0</asrwt>
<pdfrwt beam="1">  1        2 0.17450228E-01 0.95072799E+02</pdfrwt>
<pdfrwt beam="2">  1       -2 0.12709741E-01 0.95072799E+02</pdfrwt>
<totfact> 0.13240612E+04</totfact>
</mgrwt>
</event>
<event>
 4    3  0.9203887E-001  0.9052734E+02  0.7546771E-02  0.1301580E+00
         -2   -1    0    0    0  501 -0.00000000000E+00  0.00000000000E+00  0.71308458714E+01  0.71308458714E+01  0.00000000000E+00 0.  1.
          2   -1    0    0  501    0  0.00000000000E+00 -0.00000000000E+00 -0.11677360680E+04  0.11677360680E+04  0.00000000000E+00 0. -1.
         24    1    1    2    0    0 -0.34062758057E+02 -0.23826709630E+02 -0.65419252522E+03  0.66042642254E+03  0.80419002446E+02 0.  1.
        -24    1    1    2    0    0  0.34062758057E+02  0.23826709630E+02 -0.50641269688E+03  0.51444049130E+03  0.80419002446E+02 0. -1.
<mgrwt>
<rscale>  0 0.90527341E+02</rscale>
<asrwt>0</asrwt>
<pdfrwt beam="1">  1        2 0.17965165E+00 0.90527341E+02</pdfrwt>
<pdfrwt beam="2">  1       -2 0.10970535E-02 0.90527341E+02</pdfrwt>
<totfact> 0.35522175E+04</totfact>
</mgrwt>
</event>
<event>
 4    3  0.9203887E-001  0.8448962E+02  0.7546771E-02  0.1316773E+00
          2   -1    0    0  501    0  0.00000000000E+00  0.00000000000E+00  0.27425826384E+04  0.27425826384E+04  0.00000000000E+00 0. -1.
         -2   -1    0    0    0  501 -0.00000000000E+00 -0.00000000000E+00 -0.29536207690E+01  0.29536207690E+01  0.00000000000E+00 0.  1.
         24    1    1    2    0    0  0.13544458420E+02  0.22086824115E+02  0.18428997986E+04  0.18448355385E+04  0.80419002446E+02 0.  0.
        -24    1    1    2    0    0 -0.13544458420E+02 -0.22086824115E+02  0.89672921894E+03  0.90070072067E+03  0.80419002446E+02 0.  0.
<mgrwt>
<rscale>  0 0.84489621E+02</rscale>
<asrwt>0</asrwt>
<pdfrwt beam="1">  1        2 0.42193376E+00 0.84489621E+02</pdfrwt>
<pdfrwt beam="2">  1       -2 0.45440539E-03 0.84489621E+02</pdfrwt>
<totfact> 0.18885965E+04</totfact>
</mgrwt>
</event>
<event>
 4    3  0.9203887E-001  0.8303515E+02  0.7546771E-02  0.1320652E+00
         -2   -1    0    0    0  501 -0.00000000000E+00  0.00000000000E+00  0.27708643548E+04  0.27708643548E+04  0.00000000000E+00 0.  1.
          2   -1    0    0  501    0  0.00000000000E+00 -0.00000000000E+00 -0.24883391577E+01  0.24883391577E+01  0.00000000000E+00 0. -1.
         24    1    1    2    0    0 -0.39600784977E+01 -0.20296239108E+02  0.13821579815E+04  0.13846499635E+04  0.80419002446E+02 0. -1.
        -24    1    1    2    0    0  0.39600784977E+01  0.20296239108E+02  0.13862180341E+04  0.13887027305E+04  0.80419002446E+02 0.  1.
<mgrwt>
<rscale>  0 0.83035146E+02</rscale>
<asrwt>0</asrwt>
<pdfrwt beam="1">  1        2 0.38282363E-03 0.83035146E+02</pdfrwt>
<pdfrwt beam="2">  1       -2 0.42628436E+00 0.83035146E+02</pdfrwt>
<totfact> 0.33550384E+02</totfact>
</mgrwt>
</event>
<event>
 4    3  0.9203887E-001  0.9182892E+02  0.7546771E-02  0.1298482E+00
          3   -1    0    0  501    0  0.00000000000E+00  0.00000000000E+00  0.15030489158E+03  0.15030489158E+03  0.00000000000E+00 0. -1.
         -3   -1    0    0    0  501 -0.00000000000E+00 -0.00000000000E+00 -0.21662005060E+03  0.21662005060E+03  0.00000000000E+00 0.  1.
         24    1    1    2    0    0  0.55781248884E+01  0.43979767525E+02 -0.19108536059E+03  0.21200510941E+03  0.80419002446E+02 0.  0.
        -24    1    1    2    0    0 -0.55781248884E+01 -0.43979767525E+02  0.12477020158E+03  0.15491983277E+03  0.80419002446E+02 0.  0.
<mgrwt>
<rscale>  0 0.91828925E+02</rscale>
<asrwt>0</asrwt>
<pdfrwt beam="1">  1        3 0.23123830E-01 0.91828925E+02</pdfrwt>
<pdfrwt beam="2">  1       -3 0.33326161E-01 0.91828925E+02</pdfrwt>
<totfact> 0.33514384E+02</totfact>
</mgrwt>
</event>
