<event>
 4    1  0.8653772E-009  0.2575680E+03  0.7818608E-02  0.1108613E+00
         -4   -1    0    0    0  501 -0.00000000000E+00  0.00000000000E+00  0.31382840208E+03  0.31383097179E+03  0.12700000000E+01 0. -1.
          4   -1    0    0  501    0  0.00000000000E+00 -0.00000000000E+00 -0.28122329503E+03  0.28122616267E+03  0.12700000000E+01 0. -1.
    8880022    1    1    2    0    0 -0.94735905784E+02 -0.18432241956E+03  0.16456641597E+03  0.30565242430E+03  0.15294330000E+03 0.  0.
    8880022    1    1    2    0    0  0.94735905784E+02  0.18432241956E+03 -0.13196130892E+03  0.28940471016E+03  0.15294330000E+03 0.  0.
<mgrwt>
<rscale>  0 0.25756805E+03</rscale>
<asrwt>0</asrwt>
<pdfrwt beam="1">  1        4 0.43265541E-01 0.25756805E+03</pdfrwt>
<pdfrwt beam="2">  1       -4 0.48281711E-01 0.25756805E+03</pdfrwt>
<totfact> 0.39561476E+01</totfact>
</mgrwt>
</event>
<event>
 4    1  0.8653772E-009  0.2553542E+03  0.7818608E-02  0.1109967E+00
         -4   -1    0    0    0  501 -0.00000000000E+00  0.00000000000E+00  0.10380842541E+04  0.10380850309E+04  0.12700000000E+01 0. -1.
          4   -1    0    0  501    0  0.00000000000E+00 -0.00000000000E+00 -0.97421194256E+02  0.97429471877E+02  0.12700000000E+01 0. -1.
    8880022    1    1    2    0    0 -0.88066248944E+02 -0.18454932862E+03  0.13192251204E+03  0.28741837293E+03  0.15294330000E+03 0.  0.
    8880022    1    1    2    0    0  0.88066248944E+02  0.18454932862E+03  0.80874054776E+03  0.84809612987E+03  0.15294330000E+03 0.  0.
<mgrwt>
<rscale>  0 0.25535421E+03</rscale>
<asrwt>0</asrwt>
<pdfrwt beam="1">  1        4 0.14988572E-01 0.25535421E+03</pdfrwt>
<pdfrwt beam="2">  1       -4 0.15970597E+00 0.25535421E+03</pdfrwt>
<totfact> 0.18451281E+01</totfact>
</mgrwt>
</event>
<event>
 4    1  0.8653772E-009  0.1561590E+03  0.7818608E-02  0.1193103E+00
          4   -1    0    0  501    0  0.00000000000E+00  0.00000000000E+00  0.64580212730E+02  0.64592699094E+02  0.12700000000E+01 0.  1.
         -4   -1    0    0    0  501 -0.00000000000E+00 -0.00000000000E+00 -0.38441153347E+03  0.38441363135E+03  0.12700000000E+01 0.  1.
    8880022    1    1    2    0    0 -0.11702206124E+02  0.29275326868E+02 -0.12992719093E+03  0.20314210383E+03  0.15294330000E+03 0. -1.
    8880022    1    1    2    0    0  0.11702206124E+02 -0.29275326868E+02 -0.18990412981E+03  0.24586422661E+03  0.15294330000E+03 0. -1.
<mgrwt>
<rscale>  0 0.15615902E+03</rscale>
<asrwt>0</asrwt>
<pdfrwt beam="1">  1        4 0.99365394E-02 0.15615902E+03</pdfrwt>
<pdfrwt beam="2">  1       -4 0.59141357E-01 0.15615902E+03</pdfrwt>
<totfact> 0.35809354E+02</totfact>
</mgrwt>
</event>
<event>
 4    1  0.8653772E-009  0.2966927E+03  0.7818608E-02  0.1086906E+00
          4   -1    0    0  501    0  0.00000000000E+00  0.00000000000E+00  0.30775861998E+03  0.30776124037E+03  0.12700000000E+01 0.  1.
         -4   -1    0    0    0  501 -0.00000000000E+00 -0.00000000000E+00 -0.39663881737E+03  0.39664085058E+03  0.12700000000E+01 0.  1.
    8880022    1    1    2    0    0  0.19536463872E+02  0.25348221778E+03 -0.23043707686E+03  0.37566981189E+03  0.15294330000E+03 0.  0.
    8880022    1    1    2    0    0 -0.19536463872E+02 -0.25348221778E+03  0.14155687947E+03  0.32873227906E+03  0.15294330000E+03 0.  0.
<mgrwt>
<rscale>  0 0.29669270E+03</rscale>
<asrwt>0</asrwt>
<pdfrwt beam="1">  1        4 0.47347838E-01 0.29669270E+03</pdfrwt>
<pdfrwt beam="2">  1       -4 0.61021715E-01 0.29669270E+03</pdfrwt>
<totfact> 0.20436442E+01</totfact>
</mgrwt>
</event>
<event>
 4    1  0.8653772E-009  0.1824387E+03  0.7818608E-02  0.1165464E+00
          4   -1    0    0  501    0  0.00000000000E+00  0.00000000000E+00  0.22245752788E+03  0.22246115304E+03  0.12700000000E+01 0. -1.
         -4   -1    0    0    0  501 -0.00000000000E+00 -0.00000000000E+00 -0.15168071731E+03  0.15168603398E+03  0.12700000000E+01 0. -1.
    8880022    1    1    2    0    0 -0.63494170765E+02  0.76555350195E+02  0.57237638384E+02  0.19120677715E+03  0.15294330000E+03 0.  0.
    8880022    1    1    2    0    0  0.63494170765E+02 -0.76555350195E+02  0.13539172185E+02  0.18294040987E+03  0.15294330000E+03 0.  0.
<mgrwt>
<rscale>  0 0.18243871E+03</rscale>
<asrwt>0</asrwt>
<pdfrwt beam="1">  1        4 0.34224923E-01 0.18243871E+03</pdfrwt>
<pdfrwt beam="2">  1       -4 0.23336183E-01 0.18243871E+03</pdfrwt>
<totfact> 0.24627031E+02</totfact>
</mgrwt>
</event>
<event>
 4    1  0.8653772E-009  0.1825415E+03  0.7818608E-02  0.1165366E+00
          4   -1    0    0  501    0  0.00000000000E+00  0.00000000000E+00  0.55573887338E+03  0.55574032451E+03  0.12700000000E+01 0. -1.
         -4   -1    0    0    0  501 -0.00000000000E+00 -0.00000000000E+00 -0.69253120393E+02  0.69264764376E+02  0.12700000000E+01 0. -1.
    8880022    1    1    2    0    0 -0.95768937452E+02  0.27533012622E+02  0.35776587524E+03  0.40164391029E+03  0.15294330000E+03 0.  0.
    8880022    1    1    2    0    0  0.95768937452E+02 -0.27533012622E+02  0.12871987774E+03  0.22336117860E+03  0.15294330000E+03 0.  0.
<mgrwt>
<rscale>  0 0.18254153E+03</rscale>
<asrwt>0</asrwt>
<pdfrwt beam="1">  1        4 0.85499298E-01 0.18254153E+03</pdfrwt>
<pdfrwt beam="2">  1       -4 0.10655333E-01 0.18254153E+03</pdfrwt>
<totfact> 0.14633950E+02</totfact>
</mgrwt>
</event>
<event>
 4    1  0.8653772E-009  0.1711711E+03  0.7818608E-02  0.1176632E+00
          4   -1    0    0  501    0  0.00000000000E+00  0.00000000000E+00  0.48851428562E+03  0.48851593644E+03  0.12700000000E+01 0. -1.
         -4   -1    0    0    0  501 -0.00000000000E+00 -0.00000000000E+00 -0.61937553101E+02  0.61950572105E+02  0.12700000000E+01 0. -1.
    8880022    1    1    2    0    0  0.40158251389E+02 -0.65537910293E+02  0.16421877026E+03  0.23720742055E+03  0.15294330000E+03 0. -1.
    8880022    1    1    2    0    0 -0.40158251389E+02  0.65537910293E+02  0.26235796225E+03  0.31325908800E+03  0.15294330000E+03 0. -1.
<mgrwt>
<rscale>  0 0.17117113E+03</rscale>
<asrwt>0</asrwt>
<pdfrwt beam="1">  1        4 0.75157173E-01 0.17117113E+03</pdfrwt>
<pdfrwt beam="2">  1       -4 0.95299827E-02 0.17117113E+03</pdfrwt>
<totfact> 0.23322389E+02</totfact>
</mgrwt>
</event>
<event>
 4    1  0.8653772E-009  0.1965308E+03  0.7818608E-02  0.1152699E+00
          4   -1    0    0  501    0  0.00000000000E+00  0.00000000000E+00  0.71757872231E+02  0.71769109840E+02  0.12700000000E+01 0. -1.
         -4   -1    0    0    0  501 -0.00000000000E+00 -0.00000000000E+00 -0.62526329976E+03  0.62526458954E+03  0.12700000000E+01 0. -1.
    8880022    1    1    2    0    0 -0.62719929098E+02 -0.10629626618E+03 -0.40679742900E+03  0.45178367276E+03  0.15294330000E+03 0.  0.
    8880022    1    1    2    0    0  0.62719929098E+02  0.10629626618E+03 -0.14670799853E+03  0.24525002662E+03  0.15294330000E+03 0.  0.
<mgrwt>
<rscale>  0 0.19653076E+03</rscale>
<asrwt>0</asrwt>
<pdfrwt beam="1">  1        4 0.11040637E-01 0.19653076E+03</pdfrwt>
<pdfrwt beam="2">  1       -4 0.96195314E-01 0.19653076E+03</pdfrwt>
<totfact> 0.10637647E+02</totfact>
</mgrwt>
</event>
<event>
 4    1  0.8653772E-009  0.1806562E+03  0.7818608E-02  0.1167169E+00
          4   -1    0    0  501    0  0.00000000000E+00  0.00000000000E+00  0.10217719517E+03  0.10218508752E+03  0.12700000000E+01 0.  1.
         -4   -1    0    0    0  501 -0.00000000000E+00 -0.00000000000E+00 -0.33757880535E+03  0.33758119427E+03  0.12700000000E+01 0.  1.
    8880022    1    1    2    0    0  0.40998431098E+02 -0.86972060173E+02 -0.16873824253E+03  0.24720286833E+03  0.15294330000E+03 0.  0.
    8880022    1    1    2    0    0 -0.40998431098E+02  0.86972060173E+02 -0.66663367661E+02  0.19256341347E+03  0.15294330000E+03 0.  0.
<mgrwt>
<rscale>  0 0.18065620E+03</rscale>
<asrwt>0</asrwt>
<pdfrwt beam="1">  1        4 0.15720360E-01 0.18065620E+03</pdfrwt>
<pdfrwt beam="2">  1       -4 0.51935991E-01 0.18065620E+03</pdfrwt>
<totfact> 0.21790093E+02</totfact>
</mgrwt>
</event>
<event>
 4    1  0.8653772E-009  0.1903040E+03  0.7818608E-02  0.1158187E+00
          4   -1    0    0  501    0  0.00000000000E+00  0.00000000000E+00  0.25912978725E+03  0.25913289938E+03  0.12700000000E+01 0. -1.
         -4   -1    0    0    0  501 -0.00000000000E+00 -0.00000000000E+00 -0.21446444078E+03  0.21446820104E+03  0.12700000000E+01 0. -1.
    8880022    1    1    2    0    0  0.48681037811E+02 -0.10224528797E+03  0.16209639875E+03  0.24998167504E+03  0.15294330000E+03 0.  0.
    8880022    1    1    2    0    0 -0.48681037811E+02  0.10224528797E+03 -0.11743105227E+03  0.22361942538E+03  0.15294330000E+03 0.  0.
<mgrwt>
<rscale>  0 0.19030396E+03</rscale>
<asrwt>0</asrwt>
<pdfrwt beam="1">  1        4 0.39866650E-01 0.19030396E+03</pdfrwt>
<pdfrwt beam="2">  1       -4 0.32995058E-01 0.19030396E+03</pdfrwt>
<totfact> 0.95753518E+01</totfact>
</mgrwt>
</event>
<event>
 4    1  0.8653772E-009  0.3813672E+03  0.7818608E-02  0.1050430E+00
         -4   -1    0    0    0  501 -0.00000000000E+00  0.00000000000E+00  0.16984534155E+03  0.16985008963E+03  0.12700000000E+01 0.  1.
          4   -1    0    0  501    0  0.00000000000E+00 -0.00000000000E+00 -0.94191690897E+03  0.94191776515E+03  0.12700000000E+01 0.  1.
    8880022    1    1    2    0    0  0.17456901698E+03  0.30261354642E+03 -0.55363201039E+03  0.67227178738E+03  0.15294330000E+03 0.  0.
    8880022    1    1    2    0    0 -0.17456901698E+03 -0.30261354642E+03 -0.21843955703E+03  0.43949606740E+03  0.15294330000E+03 0.  0.
<mgrwt>
<rscale>  0 0.38136722E+03</rscale>
<asrwt>0</asrwt>
<pdfrwt beam="1">  1        4 0.14491072E+00 0.38136722E+03</pdfrwt>
<pdfrwt beam="2">  1       -4 0.26130484E-01 0.38136722E+03</pdfrwt>
<totfact> 0.88536424E+00</totfact>
</mgrwt>
</event>
<event>
 4    1  0.8653772E-009  0.2446231E+03  0.7818608E-02  0.1116751E+00
         -4   -1    0    0    0  501 -0.00000000000E+00  0.00000000000E+00  0.12181108287E+03  0.12181770319E+03  0.12700000000E+01 0.  1.
          4   -1    0    0  501    0  0.00000000000E+00 -0.00000000000E+00 -0.78857589470E+03  0.78857691736E+03  0.12700000000E+01 0.  1.
    8880022    1    1    2    0    0 -0.83069208945E+02 -0.17189629159E+03 -0.61289577212E+03  0.65991037955E+03  0.15294330000E+03 0.  0.
    8880022    1    1    2    0    0  0.83069208945E+02  0.17189629159E+03 -0.53869039703E+02  0.25048424100E+03  0.15294330000E+03 0.  0.
<mgrwt>
<rscale>  0 0.24462314E+03</rscale>
<asrwt>0</asrwt>
<pdfrwt beam="1">  1        4 0.12131995E+00 0.24462314E+03</pdfrwt>
<pdfrwt beam="2">  1       -4 0.18740755E-01 0.24462314E+03</pdfrwt>
<totfact> 0.24797860E+01</totfact>
</mgrwt>
</event>
<event>
 4    1  0.8653772E-009  0.4087824E+03  0.7818608E-02  0.1040780E+00
          4   -1    0    0  501    0  0.00000000000E+00  0.00000000000E+00  0.81945891821E+03  0.81945990234E+03  0.12700000000E+01 0. -1.
         -4   -1    0    0    0  501 -0.00000000000E+00 -0.00000000000E+00 -0.54971890449E+03  0.54972037151E+03  0.12700000000E+01 0. -1.
    8880022    1    1    2    0    0  0.33148538347E+03 -0.18392607349E+03  0.67783694978E+03  0.79155918507E+03  0.15294330000E+03 0.  0.
    8880022    1    1    2    0    0 -0.33148538347E+03  0.18392607349E+03 -0.40809693606E+03  0.57762108878E+03  0.15294330000E+03 0.  0.
<mgrwt>
<rscale>  0 0.40878235E+03</rscale>
<asrwt>0</asrwt>
<pdfrwt beam="1">  1        4 0.12607079E+00 0.40878235E+03</pdfrwt>
<pdfrwt beam="2">  1       -4 0.84572328E-01 0.40878235E+03</pdfrwt>
<totfact> 0.11137218E+00</totfact>
</mgrwt>
</event>
<event>
 4    1  0.8653772E-009  0.2834970E+03  0.7818608E-02  0.1093794E+00
          4   -1    0    0  501    0  0.00000000000E+00  0.00000000000E+00  0.52690624751E+03  0.52690777805E+03  0.12700000000E+01 0. -1.
         -4   -1    0    0    0  501 -0.00000000000E+00 -0.00000000000E+00 -0.15336984076E+03  0.15337509888E+03  0.12700000000E+01 0. -1.
    8880022    1    1    2    0    0 -0.15905352960E+03  0.17799116127E+03  0.21196050182E+03  0.35397427324E+03  0.15294330000E+03 0.  0.
    8880022    1    1    2    0    0  0.15905352960E+03 -0.17799116127E+03  0.16157590494E+03  0.32630860369E+03  0.15294330000E+03 0.  0.
<mgrwt>
<rscale>  0 0.28349697E+03</rscale>
<asrwt>0</asrwt>
<pdfrwt beam="1">  1        4 0.81063022E-01 0.28349697E+03</pdfrwt>
<pdfrwt beam="2">  1       -4 0.23595882E-01 0.28349697E+03</pdfrwt>
<totfact> 0.42425566E+01</totfact>
</mgrwt>
</event>
<event>
 4    1  0.8653772E-009  0.2006913E+03  0.7818608E-02  0.1149157E+00
         -4   -1    0    0    0  501 -0.00000000000E+00  0.00000000000E+00  0.35284732688E+03  0.35284961243E+03  0.12700000000E+01 0.  1.
          4   -1    0    0  501    0  0.00000000000E+00 -0.00000000000E+00 -0.20514169963E+03  0.20514563077E+03  0.12700000000E+01 0.  1.
    8880022    1    1    2    0    0 -0.78626686053E-02  0.12994364661E+03 -0.11196375902E+03  0.22981054742E+03  0.15294330000E+03 0.  0.
    8880022    1    1    2    0    0  0.78626686053E-02 -0.12994364661E+03  0.25966938628E+03  0.32818469578E+03  0.15294330000E+03 0.  0.
<mgrwt>
<rscale>  0 0.20069132E+03</rscale>
<asrwt>0</asrwt>
<pdfrwt beam="1">  1        4 0.31560740E-01 0.20069132E+03</pdfrwt>
<pdfrwt beam="2">  1       -4 0.54284682E-01 0.20069132E+03</pdfrwt>
<totfact> 0.56124764E+01</totfact>
</mgrwt>
</event>
<event>
 4    1  0.8653772E-009  0.1802331E+03  0.7818608E-02  0.1167578E+00
          4   -1    0    0  501    0  0.00000000000E+00  0.00000000000E+00  0.14180101878E+03  0.14180670586E+03  0.12700000000E+01 0.  1.
         -4   -1    0    0    0  501 -0.00000000000E+00 -0.00000000000E+00 -0.24319720445E+03  0.24320052046E+03  0.12700000000E+01 0.  1.
    8880022    1    1    2    0    0  0.94550603865E+01  0.94883713771E+02 -0.43010779342E+01  0.18028441306E+03  0.15294330000E+03 0.  0.
    8880022    1    1    2    0    0 -0.94550603865E+01 -0.94883713771E+02 -0.97095107740E+02  0.20472281326E+03  0.15294330000E+03 0.  0.
<mgrwt>
<rscale>  0 0.18023310E+03</rscale>
<asrwt>0</asrwt>
<pdfrwt beam="1">  1        4 0.21816234E-01 0.18023310E+03</pdfrwt>
<pdfrwt beam="2">  1       -4 0.37415647E-01 0.18023310E+03</pdfrwt>
<totfact> 0.23379543E+02</totfact>
</mgrwt>
</event>
<event>
 4    1  0.8653772E-009  0.2133132E+03  0.7818608E-02  0.1138969E+00
         -4   -1    0    0    0  501 -0.00000000000E+00  0.00000000000E+00  0.83222779449E+03  0.83222876351E+03  0.12700000000E+01 0. -1.
          4   -1    0    0  501    0  0.00000000000E+00 -0.00000000000E+00 -0.56872071720E+02  0.56886250024E+02  0.12700000000E+01 0. -1.
    8880022    1    1    2    0    0  0.13860550660E+03  0.53845798364E+02  0.30015650084E+03  0.36823421144E+03  0.15294330000E+03 0.  1.
    8880022    1    1    2    0    0 -0.13860550660E+03 -0.53845798364E+02  0.47519922192E+03  0.52088080210E+03  0.15294330000E+03 0.  1.
<mgrwt>
<rscale>  0 0.21331317E+03</rscale>
<asrwt>0</asrwt>
<pdfrwt beam="1">  1        4 0.87507139E-02 0.21331317E+03</pdfrwt>
<pdfrwt beam="2">  1       -4 0.12803622E+00 0.21331317E+03</pdfrwt>
<totfact> 0.80555905E+01</totfact>
</mgrwt>
</event>
<event>
 4    1  0.8653772E-009  0.5771105E+03  0.7818608E-02  0.9954066E-01
         -4   -1    0    0    0  501 -0.00000000000E+00  0.00000000000E+00  0.74711119652E+03  0.74711227594E+03  0.12700000000E+01 0.  1.
          4   -1    0    0  501    0  0.00000000000E+00 -0.00000000000E+00 -0.46868671168E+03  0.46868843233E+03  0.12700000000E+01 0.  1.
    8880022    1    1    2    0    0 -0.76223811750E+02  0.55123029064E+03  0.27357367686E+03  0.63866979926E+03  0.15294330000E+03 0.  0.
    8880022    1    1    2    0    0  0.76223811750E+02 -0.55123029064E+03  0.48508079824E+01  0.57713090902E+03  0.15294330000E+03 0.  0.
<mgrwt>
<rscale>  0 0.57711052E+03</rscale>
<asrwt>0</asrwt>
<pdfrwt beam="1">  1        4 0.72105864E-01 0.57711052E+03</pdfrwt>
<pdfrwt beam="2">  1       -4 0.11494040E+00 0.57711052E+03</pdfrwt>
<totfact> 0.20195247E+00</totfact>
</mgrwt>
</event>
<event>
 4    1  0.8653772E-009  0.1732815E+03  0.7818608E-02  0.1174468E+00
          4   -1    0    0  501    0  0.00000000000E+00  0.00000000000E+00  0.22774089486E+02  0.22809472854E+02  0.12700000000E+01 0.  1.
         -4   -1    0    0    0  501 -0.00000000000E+00 -0.00000000000E+00 -0.17936759550E+04  0.17936764046E+04  0.12700000000E+01 0.  1.
    8880022    1    1    2    0    0  0.73657937080E+02 -0.34775470567E+02 -0.13534657208E+04  0.13645130763E+04  0.15294330000E+03 0.  0.
    8880022    1    1    2    0    0 -0.73657937080E+02  0.34775470567E+02 -0.41743614477E+03  0.45197280120E+03  0.15294330000E+03 0.  0.
<mgrwt>
<rscale>  0 0.17328150E+03</rscale>
<asrwt>0</asrwt>
<pdfrwt beam="1">  1        4 0.35064639E-02 0.17328150E+03</pdfrwt>
<pdfrwt beam="2">  1       -4 0.27595279E+00 0.17328150E+03</pdfrwt>
<totfact> 0.37932129E+01</totfact>
</mgrwt>
</event>
<event>
 4    1  0.8653772E-009  0.2334657E+03  0.7818608E-02  0.1124224E+00
          4   -1    0    0  501    0  0.00000000000E+00  0.00000000000E+00  0.42865849125E+03  0.42866037258E+03  0.12700000000E+01 0. -1.
         -4   -1    0    0    0  501 -0.00000000000E+00 -0.00000000000E+00 -0.44536999904E+03  0.44537180978E+03  0.12700000000E+01 0. -1.
    8880022    1    1    2    0    0  0.10417546507E+03 -0.14234490105E+03 -0.37775645659E+03  0.44407903788E+03  0.15294330000E+03 0.  0.
    8880022    1    1    2    0    0 -0.10417546507E+03  0.14234490105E+03  0.36104494880E+03  0.42995314448E+03  0.15294330000E+03 0.  0.
<mgrwt>
<rscale>  0 0.23346574E+03</rscale>
<asrwt>0</asrwt>
<pdfrwt beam="1">  1        4 0.65947744E-01 0.23346574E+03</pdfrwt>
<pdfrwt beam="2">  1       -4 0.68518746E-01 0.23346574E+03</pdfrwt>
<totfact> 0.77780495E+00</totfact>
</mgrwt>
</event>
<event>
 4    1  0.8653772E-009  0.1628601E+03  0.7818608E-02  0.1185505E+00
          4   -1    0    0  501    0  0.00000000000E+00  0.00000000000E+00  0.22982889945E+03  0.22983240834E+03  0.12700000000E+01 0.  1.
         -4   -1    0    0    0  501 -0.00000000000E+00 -0.00000000000E+00 -0.25856224492E+03  0.25856536388E+03  0.12700000000E+01 0.  1.
    8880022    1    1    2    0    0  0.20265324046E+02  0.52163816353E+02  0.16734071450E+03  0.23350870399E+03  0.15294330000E+03 0.  1.
    8880022    1    1    2    0    0 -0.20265324046E+02 -0.52163816353E+02 -0.19607405997E+03  0.25488906823E+03  0.15294330000E+03 0.  1.
<mgrwt>
<rscale>  0 0.16286006E+03</rscale>
<asrwt>0</asrwt>
<pdfrwt beam="1">  1        4 0.35358802E-01 0.16286006E+03</pdfrwt>
<pdfrwt beam="2">  1       -4 0.39779317E-01 0.16286006E+03</pdfrwt>
<totfact> 0.82300562E+01</totfact>
</mgrwt>
</event>
<event>
 4    1  0.8653772E-009  0.2751956E+03  0.7818608E-02  0.1098342E+00
         -4   -1    0    0    0  501 -0.00000000000E+00  0.00000000000E+00  0.31523112742E+03  0.31523368569E+03  0.12700000000E+01 0.  1.
          4   -1    0    0  501    0  0.00000000000E+00 -0.00000000000E+00 -0.26624575645E+03  0.26624878540E+03  0.12700000000E+01 0.  1.
    8880022    1    1    2    0    0  0.19201718044E+03 -0.12437997530E+03  0.11535819136E+03  0.29839594697E+03  0.15294330000E+03 0.  0.
    8880022    1    1    2    0    0 -0.19201718044E+03  0.12437997530E+03 -0.66372820393E+02  0.28308652412E+03  0.15294330000E+03 0.  0.
<mgrwt>
<rscale>  0 0.27519562E+03</rscale>
<asrwt>0</asrwt>
<pdfrwt beam="1">  1        4 0.40961315E-01 0.27519562E+03</pdfrwt>
<pdfrwt beam="2">  1       -4 0.48497526E-01 0.27519562E+03</pdfrwt>
<totfact> 0.44062199E+01</totfact>
</mgrwt>
</event>
<event>
 4    1  0.8653772E-009  0.1685484E+03  0.7818608E-02  0.1179370E+00
         -4   -1    0    0    0  501 -0.00000000000E+00  0.00000000000E+00  0.74911858988E+03  0.74911966642E+03  0.12700000000E+01 0.  1.
          4   -1    0    0  501    0  0.00000000000E+00 -0.00000000000E+00 -0.39848751111E+02  0.39868983748E+02  0.12700000000E+01 0.  1.
    8880022    1    1    2    0    0  0.58492933930E+00  0.70827653130E+02  0.26766385108E+03  0.31631074718E+03  0.15294330000E+03 0.  1.
    8880022    1    1    2    0    0 -0.58492933930E+00 -0.70827653130E+02  0.44160598769E+03  0.47267790299E+03  0.15294330000E+03 0.  1.
<mgrwt>
<rscale>  0 0.16854837E+03</rscale>
<asrwt>0</asrwt>
<pdfrwt beam="1">  1        4 0.61322165E-02 0.16854837E+03</pdfrwt>
<pdfrwt beam="2">  1       -4 0.11525065E+00 0.16854837E+03</pdfrwt>
<totfact> 0.18161567E+02</totfact>
</mgrwt>
</event>
<event>
 4    1  0.8653772E-009  0.2925603E+03  0.7818608E-02  0.1089020E+00
         -4   -1    0    0    0  501 -0.00000000000E+00  0.00000000000E+00  0.33945366168E+03  0.33945603740E+03  0.12700000000E+01 0.  1.
          4   -1    0    0  501    0  0.00000000000E+00 -0.00000000000E+00 -0.25537620005E+03  0.25537935792E+03  0.12700000000E+01 0.  1.
    8880022    1    1    2    0    0 -0.60623681142E+02 -0.24191872931E+03  0.75518129131E+02  0.30214986869E+03  0.15294330000E+03 0.  1.
    8880022    1    1    2    0    0  0.60623681142E+02  0.24191872931E+03  0.85593325016E+01  0.29268552662E+03  0.15294330000E+03 0.  1.
<mgrwt>
<rscale>  0 0.29256034E+03</rscale>
<asrwt>0</asrwt>
<pdfrwt beam="1">  1        4 0.39289072E-01 0.29256034E+03</pdfrwt>
<pdfrwt beam="2">  1       -4 0.52224066E-01 0.29256034E+03</pdfrwt>
<totfact> 0.41337024E+01</totfact>
</mgrwt>
</event>
<event>
 4    1  0.8653772E-009  0.2571261E+03  0.7818608E-02  0.1108882E+00
         -4   -1    0    0    0  501 -0.00000000000E+00  0.00000000000E+00  0.23324122023E+03  0.23324467778E+03  0.12700000000E+01 0.  1.
          4   -1    0    0  501    0  0.00000000000E+00 -0.00000000000E+00 -0.29265829325E+03  0.29266104884E+03  0.12700000000E+01 0.  1.
    8880022    1    1    2    0    0  0.18544262749E+03  0.91286440639E+02 -0.76351282668E+02  0.26822258241E+03  0.15294330000E+03 0.  0.
    8880022    1    1    2    0    0 -0.18544262749E+03 -0.91286440639E+02  0.16934209651E+02  0.25768314421E+03  0.15294330000E+03 0.  0.
<mgrwt>
<rscale>  0 0.25712611E+03</rscale>
<asrwt>0</asrwt>
<pdfrwt beam="1">  1        4 0.45024831E-01 0.25712611E+03</pdfrwt>
<pdfrwt beam="2">  1       -4 0.35883743E-01 0.25712611E+03</pdfrwt>
<totfact> 0.66166745E+01</totfact>
</mgrwt>
</event>
<event>
 4    1  0.8653772E-009  0.1953786E+03  0.7818608E-02  0.1153698E+00
         -4   -1    0    0    0  501 -0.00000000000E+00  0.00000000000E+00  0.22342246990E+02  0.22378313175E+02  0.12700000000E+01 0.  1.
          4   -1    0    0  501    0  0.00000000000E+00 -0.00000000000E+00 -0.17421924192E+04  0.17421928821E+04  0.12700000000E+01 0.  1.
    8880022    1    1    2    0    0  0.11395147535E+03  0.42381732544E+02 -0.73476853029E+03  0.76030099047E+03  0.15294330000E+03 0.  0.
    8880022    1    1    2    0    0 -0.11395147535E+03 -0.42381732544E+02 -0.98508164194E+03  0.10042702048E+04  0.15294330000E+03 0.  0.
<mgrwt>
<rscale>  0 0.19537861E+03</rscale>
<asrwt>0</asrwt>
<pdfrwt beam="1">  1        4 0.26803231E+00 0.19537861E+03</pdfrwt>
<pdfrwt beam="2">  1       -4 0.34400801E-02 0.19537861E+03</pdfrwt>
<totfact> 0.43920983E+01</totfact>
</mgrwt>
</event>
<event>
 4    1  0.8653772E-009  0.2834082E+03  0.7818608E-02  0.1093842E+00
          4   -1    0    0  501    0  0.00000000000E+00  0.00000000000E+00  0.38089379193E+03  0.38089590918E+03  0.12700000000E+01 0. -1.
         -4   -1    0    0    0  501 -0.00000000000E+00 -0.00000000000E+00 -0.57577069680E+03  0.57577209744E+03  0.12700000000E+01 0.  1.
    8880022    1    1    2    0    0 -0.12512452755E+03 -0.20315604768E+03  0.28335814264E+03  0.40076429122E+03  0.15294330000E+03 0.  0.
    8880022    1    1    2    0    0  0.12512452755E+03  0.20315604768E+03 -0.47823504751E+03  0.55590371540E+03  0.15294330000E+03 0.  0.
<mgrwt>
<rscale>  0 0.28340815E+03</rscale>
<asrwt>0</asrwt>
<pdfrwt beam="1">  1        4 0.58599315E-01 0.28340815E+03</pdfrwt>
<pdfrwt beam="2">  1       -4 0.88580379E-01 0.28340815E+03</pdfrwt>
<totfact> 0.57250398E+00</totfact>
</mgrwt>
</event>
<event>
 4    1  0.8653772E-009  0.2005179E+03  0.7818608E-02  0.1149303E+00
         -4   -1    0    0    0  501 -0.00000000000E+00  0.00000000000E+00  0.12329131308E+04  0.12329137850E+04  0.12700000000E+01 0.  1.
          4   -1    0    0  501    0  0.00000000000E+00 -0.00000000000E+00 -0.32643885498E+02  0.32668580630E+02  0.12700000000E+01 0.  1.
    8880022    1    1    2    0    0  0.93980412576E+02 -0.89350099921E+02  0.62367163538E+03  0.65511351696E+03  0.15294330000E+03 0.  1.
    8880022    1    1    2    0    0 -0.93980412576E+02  0.89350099921E+02  0.57659760997E+03  0.61046884862E+03  0.15294330000E+03 0.  1.
<mgrwt>
<rscale>  0 0.20051786E+03</rscale>
<asrwt>0</asrwt>
<pdfrwt beam="1">  1        4 0.50240871E-02 0.20051786E+03</pdfrwt>
<pdfrwt beam="2">  1       -4 0.18968086E+00 0.20051786E+03</pdfrwt>
<totfact> 0.71226105E+01</totfact>
</mgrwt>
</event>
<event>
 4    1  0.8653772E-009  0.1639340E+03  0.7818608E-02  0.1184326E+00
          4   -1    0    0  501    0  0.00000000000E+00  0.00000000000E+00  0.16679079374E+03  0.16679562877E+03  0.12700000000E+01 0. -1.
         -4   -1    0    0    0  501 -0.00000000000E+00 -0.00000000000E+00 -0.19973410913E+03  0.19973814671E+03  0.12700000000E+01 0. -1.
    8880022    1    1    2    0    0 -0.44400915261E+02 -0.38874790349E+02  0.64110897698E+02  0.17602429042E+03  0.15294330000E+03 0. -1.
    8880022    1    1    2    0    0  0.44400915261E+02  0.38874790349E+02 -0.97054213094E+02  0.19050948505E+03  0.15294330000E+03 0. -1.
<mgrwt>
<rscale>  0 0.16393396E+03</rscale>
<asrwt>0</asrwt>
<pdfrwt beam="1">  1        4 0.25660805E-01 0.16393396E+03</pdfrwt>
<pdfrwt beam="2">  1       -4 0.30729007E-01 0.16393396E+03</pdfrwt>
<totfact> 0.24968718E+02</totfact>
</mgrwt>
</event>
<event>
 4    1  0.8653772E-009  0.2072190E+03  0.7818608E-02  0.1143787E+00
         -4   -1    0    0    0  501 -0.00000000000E+00  0.00000000000E+00  0.22162720396E+03  0.22163084269E+03  0.12700000000E+01 0. -1.
          4   -1    0    0  501    0  0.00000000000E+00 -0.00000000000E+00 -0.24274564302E+03  0.24274896520E+03  0.12700000000E+01 0. -1.
    8880022    1    1    2    0    0 -0.82271635017E+02  0.11304623710E+03 -0.11488292743E+03  0.23693419694E+03  0.15294330000E+03 0.  0.
    8880022    1    1    2    0    0  0.82271635017E+02 -0.11304623710E+03  0.93764488357E+02  0.22744561096E+03  0.15294330000E+03 0.  0.
<mgrwt>
<rscale>  0 0.20721903E+03</rscale>
<asrwt>0</asrwt>
<pdfrwt beam="1">  1        4 0.37346019E-01 0.20721903E+03</pdfrwt>
<pdfrwt beam="2">  1       -4 0.34097028E-01 0.20721903E+03</pdfrwt>
<totfact> 0.10338799E+02</totfact>
</mgrwt>
</event>
<event>
 4    1  0.8653772E-009  0.1579097E+03  0.7818608E-02  0.1191077E+00
         -4   -1    0    0    0  501 -0.00000000000E+00  0.00000000000E+00  0.34785502396E+03  0.34785734230E+03  0.12700000000E+01 0.  1.
          4   -1    0    0  501    0  0.00000000000E+00 -0.00000000000E+00 -0.11730318634E+03  0.11731006106E+03  0.12700000000E+01 0.  1.
    8880022    1    1    2    0    0  0.21237002696E+02 -0.33057780983E+02 -0.29774236881E+02  0.16069220692E+03  0.15294330000E+03 0.  0.
    8880022    1    1    2    0    0 -0.21237002696E+02  0.33057780983E+02  0.26032607450E+03  0.30447519644E+03  0.15294330000E+03 0.  0.
<mgrwt>
<rscale>  0 0.15790972E+03</rscale>
<asrwt>0</asrwt>
<pdfrwt beam="1">  1        4 0.18047351E-01 0.15790972E+03</pdfrwt>
<pdfrwt beam="2">  1       -4 0.53516864E-01 0.15790972E+03</pdfrwt>
<totfact> 0.15697743E+02</totfact>
</mgrwt>
</event>
<event>
 4    1  0.8653772E-009  0.3231236E+03  0.7818608E-02  0.1074221E+00
          4   -1    0    0  501    0  0.00000000000E+00  0.00000000000E+00  0.35878637160E+03  0.35878861931E+03  0.12700000000E+01 0. -1.
         -4   -1    0    0    0  501 -0.00000000000E+00 -0.00000000000E+00 -0.29158907923E+03  0.29159184493E+03  0.12700000000E+01 0. -1.
    8880022    1    1    2    0    0  0.21320602249E+03  0.18857466823E+03  0.18996327374E+02  0.32368152093E+03  0.15294330000E+03 0.  0.
    8880022    1    1    2    0    0 -0.21320602249E+03 -0.18857466823E+03  0.48200964995E+02  0.32669894331E+03  0.15294330000E+03 0.  0.
<mgrwt>
<rscale>  0 0.32312361E+03</rscale>
<asrwt>0</asrwt>
<pdfrwt beam="1">  1        4 0.55198289E-01 0.32312361E+03</pdfrwt>
<pdfrwt beam="2">  1       -4 0.44860244E-01 0.32312361E+03</pdfrwt>
<totfact> 0.28440536E+01</totfact>
</mgrwt>
</event>
<event>
 4    1  0.8653772E-009  0.2670685E+03  0.7818608E-02  0.1102969E+00
          4   -1    0    0  501    0  0.00000000000E+00  0.00000000000E+00  0.17940024466E+03  0.17940473986E+03  0.12700000000E+01 0.  1.
         -4   -1    0    0    0  501 -0.00000000000E+00 -0.00000000000E+00 -0.62994060312E+03  0.62994188332E+03  0.12700000000E+01 0.  1.
    8880022    1    1    2    0    0  0.13158714832E+03 -0.17498221371E+03  0.20509222624E+02  0.26785487478E+03  0.15294330000E+03 0.  0.
    8880022    1    1    2    0    0 -0.13158714832E+03  0.17498221371E+03 -0.47104958109E+03  0.54149174839E+03  0.15294330000E+03 0.  0.
<mgrwt>
<rscale>  0 0.26706854E+03</rscale>
<asrwt>0</asrwt>
<pdfrwt beam="1">  1        4 0.27600482E-01 0.26706854E+03</pdfrwt>
<pdfrwt beam="2">  1       -4 0.96914382E-01 0.26706854E+03</pdfrwt>
<totfact> 0.20884283E+01</totfact>
</mgrwt>
</event>
<event>
 4    1  0.8653772E-009  0.3139132E+03  0.7818608E-02  0.1078485E+00
         -4   -1    0    0    0  501 -0.00000000000E+00  0.00000000000E+00  0.60420225031E+03  0.60420358505E+03  0.12700000000E+01 0. -1.
          4   -1    0    0  501    0  0.00000000000E+00 -0.00000000000E+00 -0.23126522117E+03  0.23126870826E+03  0.12700000000E+01 0. -1.
    8880022    1    1    2    0    0  0.20483255119E+02 -0.27336844307E+03  0.41327537169E+03  0.51897789478E+03  0.15294330000E+03 0.  0.
    8880022    1    1    2    0    0 -0.20483255119E+02  0.27336844307E+03 -0.40338342546E+02  0.31649439853E+03  0.15294330000E+03 0.  0.
<mgrwt>
<rscale>  0 0.31391324E+03</rscale>
<asrwt>0</asrwt>
<pdfrwt beam="1">  1        4 0.35579636E-01 0.31391324E+03</pdfrwt>
<pdfrwt beam="2">  1       -4 0.92954563E-01 0.31391324E+03</pdfrwt>
<totfact> 0.14281698E+01</totfact>
</mgrwt>
</event>
<event>
 4    1  0.8653772E-009  0.1791400E+03  0.7818608E-02  0.1168638E+00
          4   -1    0    0  501    0  0.00000000000E+00  0.00000000000E+00  0.23885361320E+03  0.23885698951E+03  0.12700000000E+01 0.  1.
         -4   -1    0    0    0  501 -0.00000000000E+00 -0.00000000000E+00 -0.13995934126E+03  0.13996510317E+03  0.12700000000E+01 0.  1.
    8880022    1    1    2    0    0 -0.18233369026E+02 -0.91471523336E+02  0.11520818882E+02  0.17951010448E+03  0.15294330000E+03 0. -1.
    8880022    1    1    2    0    0  0.18233369026E+02  0.91471523336E+02  0.87373453059E+02  0.19931198820E+03  0.15294330000E+03 0. -1.
<mgrwt>
<rscale>  0 0.17914002E+03</rscale>
<asrwt>0</asrwt>
<pdfrwt beam="1">  1        4 0.36747412E-01 0.17914002E+03</pdfrwt>
<pdfrwt beam="2">  1       -4 0.21532910E-01 0.17914002E+03</pdfrwt>
<totfact> 0.24779612E+02</totfact>
</mgrwt>
</event>
<event>
 4    1  0.8653772E-009  0.2601958E+03  0.7818608E-02  0.1107026E+00
          4   -1    0    0  501    0  0.00000000000E+00  0.00000000000E+00  0.40168925021E+03  0.40169125785E+03  0.12700000000E+01 0.  1.
         -4   -1    0    0    0  501 -0.00000000000E+00 -0.00000000000E+00 -0.21519415569E+03  0.21519790320E+03  0.12700000000E+01 0.  1.
    8880022    1    1    2    0    0 -0.70347189953E+02 -0.19839721672E+03 -0.50370856784E+02  0.26502652502E+03  0.15294330000E+03 0.  0.
    8880022    1    1    2    0    0  0.70347189953E+02  0.19839721672E+03  0.23686595131E+03  0.35186263604E+03  0.15294330000E+03 0.  0.
<mgrwt>
<rscale>  0 0.26019576E+03</rscale>
<asrwt>0</asrwt>
<pdfrwt beam="1">  1        4 0.61798788E-01 0.26019576E+03</pdfrwt>
<pdfrwt beam="2">  1       -4 0.33107236E-01 0.26019576E+03</pdfrwt>
<totfact> 0.40090129E+01</totfact>
</mgrwt>
</event>
<event>
 4    1  0.8653772E-009  0.2473750E+03  0.7818608E-02  0.1114975E+00
         -4   -1    0    0    0  501 -0.00000000000E+00  0.00000000000E+00  0.78692285505E+03  0.78692387986E+03  0.12700000000E+01 0.  1.
          4   -1    0    0  501    0  0.00000000000E+00 -0.00000000000E+00 -0.98180325311E+02  0.98188538934E+02  0.12700000000E+01 0.  1.
    8880022    1    1    2    0    0 -0.16048424623E+03 -0.10976132928E+03  0.14254065048E+03  0.28550347239E+03  0.15294330000E+03 0.  0.
    8880022    1    1    2    0    0  0.16048424623E+03  0.10976132928E+03  0.54620187926E+03  0.59960894641E+03  0.15294330000E+03 0.  0.
<mgrwt>
<rscale>  0 0.24737501E+03</rscale>
<asrwt>0</asrwt>
<pdfrwt beam="1">  1        4 0.15105376E-01 0.24737501E+03</pdfrwt>
<pdfrwt beam="2">  1       -4 0.12106576E+00 0.24737501E+03</pdfrwt>
<totfact> 0.36684360E+01</totfact>
</mgrwt>
</event>
<event>
 4    1  0.8653772E-009  0.2297247E+03  0.7818608E-02  0.1126834E+00
          4   -1    0    0  501    0  0.00000000000E+00  0.00000000000E+00  0.16727655187E+03  0.16728137286E+03  0.12700000000E+01 0.  1.
         -4   -1    0    0    0  501 -0.00000000000E+00 -0.00000000000E+00 -0.39100118324E+03  0.39100324576E+03  0.12700000000E+01 0.  1.
    8880022    1    1    2    0    0  0.41947683116E+02  0.16619916299E+03  0.10819502214E+02  0.22997931329E+03  0.15294330000E+03 0.  0.
    8880022    1    1    2    0    0 -0.41947683116E+02 -0.16619916299E+03 -0.23454413358E+03  0.32830530533E+03  0.15294330000E+03 0.  0.
<mgrwt>
<rscale>  0 0.22972467E+03</rscale>
<asrwt>0</asrwt>
<pdfrwt beam="1">  1        4 0.25735384E-01 0.22972467E+03</pdfrwt>
<pdfrwt beam="2">  1       -4 0.60154558E-01 0.22972467E+03</pdfrwt>
<totfact> 0.67683784E+01</totfact>
</mgrwt>
</event>
<event>
 4    1  0.8653772E-009  0.1584868E+03  0.7818608E-02  0.1190416E+00
          4   -1    0    0  501    0  0.00000000000E+00  0.00000000000E+00  0.26389674076E+02  0.26420215704E+02  0.12700000000E+01 0.  1.
         -4   -1    0    0    0  501 -0.00000000000E+00 -0.00000000000E+00 -0.12077383309E+04  0.12077389986E+04  0.12700000000E+01 0.  1.
    8880022    1    1    2    0    0  0.26923911592E+02  0.31646597776E+02 -0.30629512483E+03  0.34486919358E+03  0.15294330000E+03 0.  0.
    8880022    1    1    2    0    0 -0.26923911592E+02 -0.31646597776E+02 -0.87505353196E+03  0.88929002074E+03  0.15294330000E+03 0.  0.
<mgrwt>
<rscale>  0 0.15848677E+03</rscale>
<asrwt>0</asrwt>
<pdfrwt beam="1">  1        4 0.40623515E-02 0.15848677E+03</pdfrwt>
<pdfrwt beam="2">  1       -4 0.18580825E+00 0.15848677E+03</pdfrwt>
<totfact> 0.10314725E+02</totfact>
</mgrwt>
</event>
<event>
 4    1  0.8653772E-009  0.2118193E+03  0.7818608E-02  0.1140133E+00
          4   -1    0    0  501    0  0.00000000000E+00  0.00000000000E+00  0.16984728314E+03  0.16985203116E+03  0.12700000000E+01 0. -1.
         -4   -1    0    0    0  501 -0.00000000000E+00 -0.00000000000E+00 -0.31274336388E+03  0.31274594250E+03  0.12700000000E+01 0. -1.
    8880022    1    1    2    0    0 -0.11737884393E+03  0.87738015808E+02 -0.16655890581E+03  0.26946108168E+03  0.15294330000E+03 0.  0.
    8880022    1    1    2    0    0  0.11737884393E+03 -0.87738015808E+02  0.23662825068E+02  0.21313689198E+03  0.15294330000E+03 0.  0.
<mgrwt>
<rscale>  0 0.21181928E+03</rscale>
<asrwt>0</asrwt>
<pdfrwt beam="1">  1        4 0.26130915E-01 0.21181928E+03</pdfrwt>
<pdfrwt beam="2">  1       -4 0.48114927E-01 0.21181928E+03</pdfrwt>
<totfact> 0.10364511E+02</totfact>
</mgrwt>
</event>
<event>
 4    1  0.8653772E-009  0.1863645E+03  0.7818608E-02  0.1161782E+00
          4   -1    0    0  501    0  0.00000000000E+00  0.00000000000E+00  0.50872786478E+02  0.50888636295E+02  0.12700000000E+01 0.  1.
         -4   -1    0    0    0  501 -0.00000000000E+00 -0.00000000000E+00 -0.68625398920E+03  0.68625516434E+03  0.12700000000E+01 0.  1.
    8880022    1    1    2    0    0  0.10056385711E+03  0.35028575022E+02 -0.29077715866E+03  0.34537385460E+03  0.15294330000E+03 0. -1.
    8880022    1    1    2    0    0 -0.10056385711E+03 -0.35028575022E+02 -0.34460404406E+03  0.39176994604E+03  0.15294330000E+03 0. -1.
<mgrwt>
<rscale>  0 0.18636454E+03</rscale>
<asrwt>0</asrwt>
<pdfrwt beam="1">  1        4 0.78278926E-02 0.18636454E+03</pdfrwt>
<pdfrwt beam="2">  1       -4 0.10557884E+00 0.18636454E+03</pdfrwt>
<totfact> 0.15175454E+02</totfact>
</mgrwt>
</event>
<event>
 4    1  0.8653772E-009  0.2654663E+03  0.7818608E-02  0.1103903E+00
         -4   -1    0    0    0  501 -0.00000000000E+00  0.00000000000E+00  0.43689474017E+02  0.43707928799E+02  0.12700000000E+01 0.  1.
          4   -1    0    0  501    0  0.00000000000E+00 -0.00000000000E+00 -0.18562649987E+04  0.18562654332E+04  0.12700000000E+01 0.  1.
    8880022    1    1    2    0    0 -0.15942538408E+03 -0.14718778313E+03 -0.12504241306E+04  0.12782929461E+04  0.15294330000E+03 0.  0.
    8880022    1    1    2    0    0  0.15942538408E+03  0.14718778313E+03 -0.56215139413E+03  0.62168041591E+03  0.15294330000E+03 0.  0.
<mgrwt>
<rscale>  0 0.26546629E+03</rscale>
<asrwt>0</asrwt>
<pdfrwt beam="1">  1        4 0.28558062E+00 0.26546629E+03</pdfrwt>
<pdfrwt beam="2">  1       -4 0.67229120E-02 0.26546629E+03</pdfrwt>
<totfact> 0.11918693E+01</totfact>
</mgrwt>
</event>
<event>
 4    1  0.8653772E-009  0.2862796E+03  0.7818608E-02  0.1092308E+00
         -4   -1    0    0    0  501 -0.00000000000E+00  0.00000000000E+00  0.15017720860E+04  0.15017726230E+04  0.12700000000E+01 0. -1.
          4   -1    0    0  501    0  0.00000000000E+00 -0.00000000000E+00 -0.72249163158E+02  0.72260324363E+02  0.12700000000E+01 0. -1.
    8880022    1    1    2    0    0 -0.23873155820E+03 -0.39643185421E+02  0.32542950356E+03  0.43342860292E+03  0.15294330000E+03 0.  0.
    8880022    1    1    2    0    0  0.23873155820E+03  0.39643185421E+02  0.11040934193E+04  0.11406043444E+04  0.15294330000E+03 0.  0.
<mgrwt>
<rscale>  0 0.28627957E+03</rscale>
<asrwt>0</asrwt>
<pdfrwt beam="1">  1        4 0.11116155E-01 0.28627957E+03</pdfrwt>
<pdfrwt beam="2">  1       -4 0.23104277E+00 0.28627957E+03</pdfrwt>
<totfact> 0.10769291E+01</totfact>
</mgrwt>
</event>
<event>
 4    1  0.8653772E-009  0.1915603E+03  0.7818608E-02  0.1157062E+00
          4   -1    0    0  501    0  0.00000000000E+00  0.00000000000E+00  0.19789136707E+03  0.19789544224E+03  0.12700000000E+01 0. -1.
         -4   -1    0    0    0  501 -0.00000000000E+00 -0.00000000000E+00 -0.18592788199E+03  0.18593221938E+03  0.12700000000E+01 0. -1.
    8880022    1    1    2    0    0 -0.58331214521E+02  0.99504612483E+02 -0.40123927934E+01  0.19160232463E+03  0.15294330000E+03 0. -1.
    8880022    1    1    2    0    0  0.58331214521E+02 -0.99504612483E+02  0.15975877868E+02  0.19222533699E+03  0.15294330000E+03 0. -1.
<mgrwt>
<rscale>  0 0.19156031E+03</rscale>
<asrwt>0</asrwt>
<pdfrwt beam="1">  1        4 0.30445473E-01 0.19156031E+03</pdfrwt>
<pdfrwt beam="2">  1       -4 0.28604937E-01 0.19156031E+03</pdfrwt>
<totfact> 0.21253247E+02</totfact>
</mgrwt>
</event>
<event>
 4    1  0.8653772E-009  0.1952886E+03  0.7818608E-02  0.1153776E+00
          4   -1    0    0  501    0  0.00000000000E+00  0.00000000000E+00  0.16630851597E+02  0.16679272311E+02  0.12700000000E+01 0. -1.
         -4   -1    0    0    0  501 -0.00000000000E+00 -0.00000000000E+00 -0.23345982438E+04  0.23345985893E+04  0.12700000000E+01 0. -1.
    8880022    1    1    2    0    0 -0.91153537102E+02 -0.80231058373E+02 -0.99613936437E+03  0.10151016089E+04  0.15294330000E+03 0.  1.
    8880022    1    1    2    0    0  0.91153537102E+02  0.80231058373E+02 -0.13218280279E+04  0.13361762527E+04  0.15294330000E+03 0.  1.
<mgrwt>
<rscale>  0 0.19528861E+03</rscale>
<asrwt>0</asrwt>
<pdfrwt beam="1">  1        4 0.25623457E-02 0.19528861E+03</pdfrwt>
<pdfrwt beam="2">  1       -4 0.35917245E+00 0.19528861E+03</pdfrwt>
<totfact> 0.19996941E+01</totfact>
</mgrwt>
</event>
<event>
 4    1  0.8653772E-009  0.1969516E+03  0.7818608E-02  0.1152337E+00
          4   -1    0    0  501    0  0.00000000000E+00  0.00000000000E+00  0.22975471456E+03  0.22975822458E+03  0.12700000000E+01 0.  1.
         -4   -1    0    0    0  501 -0.00000000000E+00 -0.00000000000E+00 -0.18167612680E+03  0.18168056569E+03  0.12700000000E+01 0.  1.
    8880022    1    1    2    0    0 -0.11958150454E+03  0.33144130787E+02  0.78752510612E+02  0.21211289583E+03  0.15294330000E+03 0.  1.
    8880022    1    1    2    0    0  0.11958150454E+03 -0.33144130787E+02 -0.30673922856E+02  0.19932589444E+03  0.15294330000E+03 0.  1.
<mgrwt>
<rscale>  0 0.19695157E+03</rscale>
<asrwt>0</asrwt>
<pdfrwt beam="1">  1        4 0.35347490E-01 0.19695157E+03</pdfrwt>
<pdfrwt beam="2">  1       -4 0.27950785E-01 0.19695157E+03</pdfrwt>
<totfact> 0.16720796E+02</totfact>
</mgrwt>
</event>
<event>
 4    1  0.8653772E-009  0.2081540E+03  0.7818608E-02  0.1143036E+00
          4   -1    0    0  501    0  0.00000000000E+00  0.00000000000E+00  0.29492686063E+02  0.29520017466E+02  0.12700000000E+01 0.  1.
         -4   -1    0    0    0  501 -0.00000000000E+00 -0.00000000000E+00 -0.14883347464E+04  0.14883352882E+04  0.12700000000E+01 0.  1.
    8880022    1    1    2    0    0  0.78861883702E+02  0.11712067957E+03 -0.64160139819E+03  0.67452239211E+03  0.15294330000E+03 0.  0.
    8880022    1    1    2    0    0 -0.78861883702E+02 -0.11712067957E+03 -0.81724066211E+03  0.84333291356E+03  0.15294330000E+03 0.  0.
<mgrwt>
<rscale>  0 0.20815404E+03</rscale>
<asrwt>0</asrwt>
<pdfrwt beam="1">  1        4 0.45394816E-02 0.20815404E+03</pdfrwt>
<pdfrwt beam="2">  1       -4 0.22897666E+00 0.20815404E+03</pdfrwt>
<totfact> 0.48100090E+01</totfact>
</mgrwt>
</event>
<event>
 4    1  0.8653772E-009  0.2117036E+03  0.7818608E-02  0.1140224E+00
          4   -1    0    0  501    0  0.00000000000E+00  0.00000000000E+00  0.31675479588E+03  0.31675734185E+03  0.12700000000E+01 0.  1.
         -4   -1    0    0    0  501 -0.00000000000E+00 -0.00000000000E+00 -0.14726613736E+03  0.14727161340E+03  0.12700000000E+01 0.  1.
    8880022    1    1    2    0    0 -0.14551190085E+03  0.15907261318E+02  0.38781891117E+02  0.21522649081E+03  0.15294330000E+03 0.  0.
    8880022    1    1    2    0    0  0.14551190085E+03 -0.15907261318E+02  0.13070676740E+03  0.24880246444E+03  0.15294330000E+03 0.  0.
<mgrwt>
<rscale>  0 0.21170358E+03</rscale>
<asrwt>0</asrwt>
<pdfrwt beam="1">  1        4 0.48732124E-01 0.21170358E+03</pdfrwt>
<pdfrwt beam="2">  1       -4 0.22656946E-01 0.21170358E+03</pdfrwt>
<totfact> 0.13159163E+02</totfact>
</mgrwt>
</event>
<event>
 4    1  0.8653772E-009  0.2811303E+03  0.7818608E-02  0.1095073E+00
         -4   -1    0    0    0  501 -0.00000000000E+00  0.00000000000E+00  0.46230075459E+03  0.46230249902E+03  0.12700000000E+01 0. -1.
          4   -1    0    0  501    0  0.00000000000E+00 -0.00000000000E+00 -0.17167218465E+03  0.17167688220E+03  0.12700000000E+01 0. -1.
    8880022    1    1    2    0    0 -0.19062783988E+03  0.13893743342E+03  0.12481271965E+03  0.30759137138E+03  0.15294330000E+03 0.  0.
    8880022    1    1    2    0    0  0.19062783988E+03 -0.13893743342E+03  0.16581585029E+03  0.32638800984E+03  0.15294330000E+03 0.  0.
<mgrwt>
<rscale>  0 0.28113028E+03</rscale>
<asrwt>0</asrwt>
<pdfrwt beam="1">  1        4 0.26411601E-01 0.28113028E+03</pdfrwt>
<pdfrwt beam="2">  1       -4 0.71123687E-01 0.28113028E+03</pdfrwt>
<totfact> 0.45911680E+01</totfact>
</mgrwt>
</event>
<event>
 4    1  0.8653772E-009  0.1678444E+03  0.7818608E-02  0.1180115E+00
          4   -1    0    0  501    0  0.00000000000E+00  0.00000000000E+00  0.10041498281E+04  0.10041506312E+04  0.12700000000E+01 0. -1.
         -4   -1    0    0    0  501 -0.00000000000E+00 -0.00000000000E+00 -0.31678575378E+02  0.31704022426E+02  0.12700000000E+01 0. -1.
    8880022    1    1    2    0    0  0.23868453281E+02 -0.64887381033E+02  0.31078553945E+03  0.35321293836E+03  0.15294330000E+03 0.  0.
    8880022    1    1    2    0    0 -0.23868453281E+02  0.64887381033E+02  0.66168571324E+03  0.68264171525E+03  0.15294330000E+03 0.  0.
<mgrwt>
<rscale>  0 0.16784436E+03</rscale>
<asrwt>0</asrwt>
<pdfrwt beam="1">  1        4 0.15448659E+00 0.16784436E+03</pdfrwt>
<pdfrwt beam="2">  1       -4 0.48756468E-02 0.16784436E+03</pdfrwt>
<totfact> 0.12719650E+02</totfact>
</mgrwt>
</event>
<event>
 4    1  0.8653772E-009  0.1669004E+03  0.7818608E-02  0.1181119E+00
          4   -1    0    0  501    0  0.00000000000E+00  0.00000000000E+00  0.16463392532E+03  0.16463882369E+03  0.12700000000E+01 0.  1.
         -4   -1    0    0    0  501 -0.00000000000E+00 -0.00000000000E+00 -0.18851648108E+03  0.18852075891E+03  0.12700000000E+01 0.  1.
    8880022    1    1    2    0    0 -0.54973130611E+02  0.37974124166E+02  0.44598226598E+02  0.17275628505E+03  0.15294330000E+03 0.  0.
    8880022    1    1    2    0    0  0.54973130611E+02 -0.37974124166E+02 -0.68480782362E+02  0.18040329754E+03  0.15294330000E+03 0.  0.
<mgrwt>
<rscale>  0 0.16690037E+03</rscale>
<asrwt>0</asrwt>
<pdfrwt beam="1">  1        4 0.25329002E-01 0.16690037E+03</pdfrwt>
<pdfrwt beam="2">  1       -4 0.29003241E-01 0.16690037E+03</pdfrwt>
<totfact> 0.28627262E+02</totfact>
</mgrwt>
</event>
<event>
 4    1  0.8653772E-009  0.1805569E+03  0.7818608E-02  0.1167265E+00
         -4   -1    0    0    0  501 -0.00000000000E+00  0.00000000000E+00  0.31214754123E+04  0.31214756707E+04  0.12700000000E+01 0. -1.
          4   -1    0    0  501    0  0.00000000000E+00 -0.00000000000E+00 -0.11144576963E+02  0.11216706098E+02  0.12700000000E+01 0. -1.
    8880022    1    1    2    0    0  0.32350393770E+02 -0.90347139627E+02  0.11530574654E+04  0.11671085319E+04  0.15294330000E+03 0.  0.
    8880022    1    1    2    0    0 -0.32350393770E+02  0.90347139627E+02  0.19572733699E+04  0.19655838449E+04  0.15294330000E+03 0.  0.
<mgrwt>
<rscale>  0 0.18055693E+03</rscale>
<asrwt>0</asrwt>
<pdfrwt beam="1">  1        4 0.17201183E-02 0.18055693E+03</pdfrwt>
<pdfrwt beam="2">  1       -4 0.48023262E+00 0.18055693E+03</pdfrwt>
<totfact> 0.54608368E+00</totfact>
</mgrwt>
</event>
<event>
 4    1  0.8653772E-009  0.4147444E+03  0.7818608E-02  0.1038791E+00
         -4   -1    0    0    0  501 -0.00000000000E+00  0.00000000000E+00  0.62186994192E+03  0.62187123874E+03  0.12700000000E+01 0.  1.
          4   -1    0    0  501    0  0.00000000000E+00 -0.00000000000E+00 -0.27666108461E+03  0.27666399953E+03  0.12700000000E+01 0.  1.
    8880022    1    1    2    0    0  0.51815627630E+02 -0.38201620116E+03  0.16608633412E+03  0.44676342801E+03  0.15294330000E+03 0.  0.
    8880022    1    1    2    0    0 -0.51815627630E+02  0.38201620116E+03  0.17912252319E+03  0.45177181026E+03  0.15294330000E+03 0.  0.
<mgrwt>
<rscale>  0 0.41474437E+03</rscale>
<asrwt>0</asrwt>
<pdfrwt beam="1">  1        4 0.42563568E-01 0.41474437E+03</pdfrwt>
<pdfrwt beam="2">  1       -4 0.95672622E-01 0.41474437E+03</pdfrwt>
<totfact> 0.95074501E+00</totfact>
</mgrwt>
</event>
<event>
 4    1  0.8653772E-009  0.2255269E+03  0.7818608E-02  0.1129828E+00
          4   -1    0    0  501    0  0.00000000000E+00  0.00000000000E+00  0.91277227524E+03  0.91277315875E+03  0.12700000000E+01 0.  1.
         -4   -1    0    0    0  501 -0.00000000000E+00 -0.00000000000E+00 -0.10710995461E+03  0.10711748353E+03  0.12700000000E+01 0.  1.
    8880022    1    1    2    0    0  0.15051223670E+03  0.69403045379E+02  0.75605145803E+03  0.78897159411E+03  0.15294330000E+03 0.  0.
    8880022    1    1    2    0    0 -0.15051223670E+03 -0.69403045379E+02  0.49610862593E+02  0.23091904817E+03  0.15294330000E+03 0.  0.
<mgrwt>
<rscale>  0 0.22552687E+03</rscale>
<asrwt>0</asrwt>
<pdfrwt beam="1">  1        4 0.14042715E+00 0.22552687E+03</pdfrwt>
<pdfrwt beam="2">  1       -4 0.16479102E-01 0.22552687E+03</pdfrwt>
<totfact> 0.21537387E+01</totfact>
</mgrwt>
</event>
<event>
 4    1  0.8653772E-009  0.1774993E+03  0.7818608E-02  0.1170245E+00
          4   -1    0    0  501    0  0.00000000000E+00  0.00000000000E+00  0.13172768519E+03  0.13173380715E+03  0.12700000000E+01 0.  1.
         -4   -1    0    0    0  501 -0.00000000000E+00 -0.00000000000E+00 -0.24600851979E+03  0.24601179791E+03  0.12700000000E+01 0.  1.
    8880022    1    1    2    0    0  0.89084348727E+02 -0.13354371039E+02 -0.88648492245E+02  0.19840506195E+03  0.15294330000E+03 0. -1.
    8880022    1    1    2    0    0 -0.89084348727E+02  0.13354371039E+02 -0.25632342353E+02  0.17934054311E+03  0.15294330000E+03 0. -1.
<mgrwt>
<rscale>  0 0.17749933E+03</rscale>
<asrwt>0</asrwt>
<pdfrwt beam="1">  1        4 0.20266521E-01 0.17749933E+03</pdfrwt>
<pdfrwt beam="2">  1       -4 0.37848188E-01 0.17749933E+03</pdfrwt>
<totfact> 0.26073542E+02</totfact>
</mgrwt>
</event>
<event>
 4    1  0.8653772E-009  0.1704807E+03  0.7818608E-02  0.1177347E+00
         -4   -1    0    0    0  501 -0.00000000000E+00  0.00000000000E+00  0.28676517612E+02  0.28704626149E+02  0.12700000000E+01 0.  1.
          4   -1    0    0  501    0  0.00000000000E+00 -0.00000000000E+00 -0.10820391068E+04  0.10820398521E+04  0.12700000000E+01 0.  1.
    8880022    1    1    2    0    0 -0.62807230464E+02  0.41560461577E+02 -0.66698868408E+03  0.68843124412E+03  0.15294330000E+03 0.  0.
    8880022    1    1    2    0    0  0.62807230464E+02 -0.41560461577E+02 -0.38637390507E+03  0.42231323410E+03  0.15294330000E+03 0.  0.
<mgrwt>
<rscale>  0 0.17048071E+03</rscale>
<asrwt>0</asrwt>
<pdfrwt beam="1">  1        4 0.16646974E+00 0.17048071E+03</pdfrwt>
<pdfrwt beam="2">  1       -4 0.44139923E-02 0.17048071E+03</pdfrwt>
<totfact> 0.12293914E+02</totfact>
</mgrwt>
</event>
<event>
 4    1  0.8653772E-009  0.1562551E+03  0.7818608E-02  0.1192991E+00
          4   -1    0    0  501    0  0.00000000000E+00  0.00000000000E+00  0.39818154832E+02  0.39838403008E+02  0.12700000000E+01 0. -1.
         -4   -1    0    0    0  501 -0.00000000000E+00 -0.00000000000E+00 -0.61345779572E+03  0.61345911031E+03  0.12700000000E+01 0. -1.
    8880022    1    1    2    0    0  0.31251354228E+02  0.68815107119E+01 -0.27791818575E+03  0.31883251609E+03  0.15294330000E+03 0.  0.
    8880022    1    1    2    0    0 -0.31251354228E+02 -0.68815107119E+01 -0.29572145513E+03  0.33446499723E+03  0.15294330000E+03 0.  0.
<mgrwt>
<rscale>  0 0.15625510E+03</rscale>
<asrwt>0</asrwt>
<pdfrwt beam="1">  1        4 0.61275291E-02 0.15625510E+03</pdfrwt>
<pdfrwt beam="2">  1       -4 0.94379774E-01 0.15625510E+03</pdfrwt>
<totfact> 0.28680687E+02</totfact>
</mgrwt>
</event>
<event>
 4    1  0.8653772E-009  0.2112300E+03  0.7818608E-02  0.1140596E+00
         -4   -1    0    0    0  501 -0.00000000000E+00  0.00000000000E+00  0.26228223979E+03  0.26228531452E+03  0.12700000000E+01 0.  1.
          4   -1    0    0  501    0  0.00000000000E+00 -0.00000000000E+00 -0.18133364430E+03  0.18133809157E+03  0.12700000000E+01 0.  1.
    8880022    1    1    2    0    0  0.23935783221E+02  0.14371331587E+03 -0.14712438773E+02  0.21174170054E+03  0.15294330000E+03 0.  0.
    8880022    1    1    2    0    0 -0.23935783221E+02 -0.14371331587E+03  0.95661034265E+02  0.23188170555E+03  0.15294330000E+03 0.  0.
<mgrwt>
<rscale>  0 0.21122995E+03</rscale>
<asrwt>0</asrwt>
<pdfrwt beam="1">  1        4 0.27898062E-01 0.21122995E+03</pdfrwt>
<pdfrwt beam="2">  1       -4 0.40351693E-01 0.21122995E+03</pdfrwt>
<totfact> 0.13059427E+02</totfact>
</mgrwt>
</event>
<event>
 4    1  0.8653772E-009  0.3790796E+03  0.7818608E-02  0.1051274E+00
         -4   -1    0    0    0  501 -0.00000000000E+00  0.00000000000E+00  0.11265680112E+03  0.11266395936E+03  0.12700000000E+01 0. -1.
          4   -1    0    0  501    0  0.00000000000E+00 -0.00000000000E+00 -0.13932459585E+04  0.13932465374E+04  0.12700000000E+01 0. -1.
    8880022    1    1    2    0    0  0.32001042179E+03  0.13380204589E+03 -0.85916738632E+03  0.93907928753E+03  0.15294330000E+03 0.  0.
    8880022    1    1    2    0    0 -0.32001042179E+03 -0.13380204589E+03 -0.42142177109E+03  0.56683120918E+03  0.15294330000E+03 0.  0.
<mgrwt>
<rscale>  0 0.37907956E+03</rscale>
<asrwt>0</asrwt>
<pdfrwt beam="1">  1        4 0.21434612E+00 0.37907956E+03</pdfrwt>
<pdfrwt beam="2">  1       -4 0.17332412E-01 0.37907956E+03</pdfrwt>
<totfact> 0.63020403E+00</totfact>
</mgrwt>
</event>
<event>
 4    1  0.8653772E-009  0.1632419E+03  0.7818608E-02  0.1185085E+00
          4   -1    0    0  501    0  0.00000000000E+00  0.00000000000E+00  0.20754830721E+03  0.20755219278E+03  0.12700000000E+01 0.  1.
         -4   -1    0    0    0  501 -0.00000000000E+00 -0.00000000000E+00 -0.14958113055E+03  0.14958652184E+03  0.12700000000E+01 0.  1.
    8880022    1    1    2    0    0 -0.26413161354E+02  0.50582788324E+02 -0.38232977590E+02  0.16765943802E+03  0.15294330000E+03 0.  0.
    8880022    1    1    2    0    0  0.26413161354E+02 -0.50582788324E+02  0.96200154252E+02  0.18947927660E+03  0.15294330000E+03 0.  0.
<mgrwt>
<rscale>  0 0.16324193E+03</rscale>
<asrwt>0</asrwt>
<pdfrwt beam="1">  1        4 0.31931222E-01 0.16324193E+03</pdfrwt>
<pdfrwt beam="2">  1       -4 0.23013196E-01 0.16324193E+03</pdfrwt>
<totfact> 0.28355757E+02</totfact>
</mgrwt>
</event>
<event>
 4    1  0.8653772E-009  0.1737035E+03  0.7818608E-02  0.1174040E+00
         -4   -1    0    0    0  501 -0.00000000000E+00  0.00000000000E+00  0.47780779180E+02  0.47797654326E+02  0.12700000000E+01 0.  1.
          4   -1    0    0  501    0  0.00000000000E+00 -0.00000000000E+00 -0.71370134717E+03  0.71370247712E+03  0.12700000000E+01 0.  1.
    8880022    1    1    2    0    0 -0.82188152453E+02 -0.51358427226E+01 -0.20363258987E+03  0.26765491581E+03  0.15294330000E+03 0.  0.
    8880022    1    1    2    0    0  0.82188152453E+02  0.51358427226E+01 -0.46228797811E+03  0.49384521564E+03  0.15294330000E+03 0.  0.
<mgrwt>
<rscale>  0 0.17370355E+03</rscale>
<asrwt>0</asrwt>
<pdfrwt beam="1">  1        4 0.10980158E+00 0.17370355E+03</pdfrwt>
<pdfrwt beam="2">  1       -4 0.73522746E-02 0.17370355E+03</pdfrwt>
<totfact> 0.15188578E+02</totfact>
</mgrwt>
</event>
<event>
 4    1  0.8653772E-009  0.1896310E+03  0.7818608E-02  0.1158795E+00
         -4   -1    0    0    0  501 -0.00000000000E+00  0.00000000000E+00  0.18578701370E+03  0.18579135437E+03  0.12700000000E+01 0.  1.
          4   -1    0    0  501    0  0.00000000000E+00 -0.00000000000E+00 -0.19703291792E+03  0.19703701085E+03  0.12700000000E+01 0.  1.
    8880022    1    1    2    0    0  0.34760474032E+02  0.10658318642E+03  0.19840984310E+02  0.19066615813E+03  0.15294330000E+03 0.  0.
    8880022    1    1    2    0    0 -0.34760474032E+02 -0.10658318642E+03 -0.31086888536E+02  0.19216220709E+03  0.15294330000E+03 0.  0.
<mgrwt>
<rscale>  0 0.18963101E+03</rscale>
<asrwt>0</asrwt>
<pdfrwt beam="1">  1        4 0.30313405E-01 0.18963101E+03</pdfrwt>
<pdfrwt beam="2">  1       -4 0.28583266E-01 0.18963101E+03</pdfrwt>
<totfact> 0.21426717E+02</totfact>
</mgrwt>
</event>
<event>
 4    1  0.8653772E-009  0.2493550E+03  0.7818608E-02  0.1113713E+00
         -4   -1    0    0    0  501 -0.00000000000E+00  0.00000000000E+00  0.89486823473E+02  0.89495834960E+02  0.12700000000E+01 0. -1.
          4   -1    0    0  501    0  0.00000000000E+00 -0.00000000000E+00 -0.80659453671E+03  0.80659553653E+03  0.12700000000E+01 0. -1.
    8880022    1    1    2    0    0 -0.60055517500E+02  0.18756230754E+03 -0.52536870852E+03  0.58154124299E+03  0.15294330000E+03 0.  0.
    8880022    1    1    2    0    0  0.60055517500E+02 -0.18756230754E+03 -0.19173900471E+03  0.31455012850E+03  0.15294330000E+03 0.  0.
<mgrwt>
<rscale>  0 0.24935504E+03</rscale>
<asrwt>0</asrwt>
<pdfrwt beam="1">  1        4 0.12409223E+00 0.24935504E+03</pdfrwt>
<pdfrwt beam="2">  1       -4 0.13767974E-01 0.24935504E+03</pdfrwt>
<totfact> 0.40677117E+01</totfact>
</mgrwt>
</event>
<event>
 4    1  0.8653772E-009  0.1977900E+03  0.7818608E-02  0.1151617E+00
         -4   -1    0    0    0  501 -0.00000000000E+00  0.00000000000E+00  0.85265393498E+03  0.85265488080E+03  0.12700000000E+01 0.  1.
          4   -1    0    0  501    0  0.00000000000E+00 -0.00000000000E+00 -0.59451195033E+02  0.59464758394E+02  0.12700000000E+01 0.  1.
    8880022    1    1    2    0    0  0.10024002967E+03 -0.75373637180E+02  0.61453536947E+03  0.64558084085E+03  0.15294330000E+03 0.  0.
    8880022    1    1    2    0    0 -0.10024002967E+03  0.75373637180E+02  0.17866737048E+03  0.26653879834E+03  0.15294330000E+03 0.  0.
<mgrwt>
<rscale>  0 0.19779004E+03</rscale>
<asrwt>0</asrwt>
<pdfrwt beam="1">  1        4 0.91474538E-02 0.19779004E+03</pdfrwt>
<pdfrwt beam="2">  1       -4 0.13117864E+00 0.19779004E+03</pdfrwt>
<totfact> 0.69763421E+01</totfact>
</mgrwt>
</event>
<event>
 4    1  0.8653772E-009  0.2099205E+03  0.7818608E-02  0.1141629E+00
         -4   -1    0    0    0  501 -0.00000000000E+00  0.00000000000E+00  0.54657030625E+02  0.54671783369E+02  0.12700000000E+01 0. -1.
          4   -1    0    0  501    0  0.00000000000E+00 -0.00000000000E+00 -0.95322277113E+03  0.95322361715E+03  0.12700000000E+01 0. -1.
    8880022    1    1    2    0    0 -0.14292888936E+03  0.15694418244E+02 -0.64725425483E+03  0.68044449119E+03  0.15294330000E+03 0.  0.
    8880022    1    1    2    0    0  0.14292888936E+03 -0.15694418244E+02 -0.25131148567E+03  0.32745090933E+03  0.15294330000E+03 0.  0.
<mgrwt>
<rscale>  0 0.20992054E+03</rscale>
<asrwt>0</asrwt>
<pdfrwt beam="1">  1        4 0.14665085E+00 0.20992054E+03</pdfrwt>
<pdfrwt beam="2">  1       -4 0.84099745E-02 0.20992054E+03</pdfrwt>
<totfact> 0.61094555E+01</totfact>
</mgrwt>
</event>
<event>
 4    1  0.8653772E-009  0.2019354E+03  0.7818608E-02  0.1148116E+00
         -4   -1    0    0    0  501 -0.00000000000E+00  0.00000000000E+00  0.53727603103E+03  0.53727753203E+03  0.12700000000E+01 0. -1.
          4   -1    0    0  501    0  0.00000000000E+00 -0.00000000000E+00 -0.82513461486E+02  0.82523234464E+02  0.12700000000E+01 0. -1.
    8880022    1    1    2    0    0  0.25021282400E+01 -0.13183323256E+03  0.31517268245E+03  0.37431502058E+03  0.15294330000E+03 0.  0.
    8880022    1    1    2    0    0 -0.25021282400E+01  0.13183323256E+03  0.13958988709E+03  0.24548574591E+03  0.15294330000E+03 0.  0.
<mgrwt>
<rscale>  0 0.20193542E+03</rscale>
<asrwt>0</asrwt>
<pdfrwt beam="1">  1        4 0.12695246E-01 0.20193542E+03</pdfrwt>
<pdfrwt beam="2">  1       -4 0.82658715E-01 0.20193542E+03</pdfrwt>
<totfact> 0.11854696E+02</totfact>
</mgrwt>
</event>
<event>
 4    1  0.8653772E-009  0.2027248E+03  0.7818608E-02  0.1147460E+00
          4   -1    0    0  501    0  0.00000000000E+00  0.00000000000E+00  0.23599882719E+04  0.23599886137E+04  0.12700000000E+01 0. -1.
         -4   -1    0    0    0  501 -0.00000000000E+00 -0.00000000000E+00 -0.17505105875E+02  0.17551114828E+02  0.12700000000E+01 0. -1.
    8880022    1    1    2    0    0  0.65545411700E+02 -0.11579931968E+03  0.12672119910E+04  0.12833251991E+04  0.15294330000E+03 0.  0.
    8880022    1    1    2    0    0 -0.65545411700E+02  0.11579931968E+03  0.10752711750E+04  0.10942145294E+04  0.15294330000E+03 0.  0.
<mgrwt>
<rscale>  0 0.20272478E+03</rscale>
<asrwt>0</asrwt>
<pdfrwt beam="1">  1        4 0.36307880E+00 0.20272478E+03</pdfrwt>
<pdfrwt beam="2">  1       -4 0.26966578E-02 0.20272478E+03</pdfrwt>
<totfact> 0.17473232E+01</totfact>
</mgrwt>
</event>
<event>
 4    1  0.8653772E-009  0.2329306E+03  0.7818608E-02  0.1124594E+00
          4   -1    0    0  501    0  0.00000000000E+00  0.00000000000E+00  0.33906650051E+03  0.33906887895E+03  0.12700000000E+01 0. -1.
         -4   -1    0    0    0  501 -0.00000000000E+00 -0.00000000000E+00 -0.17742321178E+03  0.17742775707E+03  0.12700000000E+01 0. -1.
    8880022    1    1    2    0    0 -0.13005979347E+03  0.11810787758E+03  0.16171890723E+03  0.28356600395E+03  0.15294330000E+03 0. -1.
    8880022    1    1    2    0    0  0.13005979347E+03 -0.11810787758E+03 -0.75618496033E-01  0.23293063207E+03  0.15294330000E+03 0. -1.
<mgrwt>
<rscale>  0 0.23293062E+03</rscale>
<asrwt>0</asrwt>
<pdfrwt beam="1">  1        4 0.52164609E-01 0.23293062E+03</pdfrwt>
<pdfrwt beam="2">  1       -4 0.27296412E-01 0.23293062E+03</pdfrwt>
<totfact> 0.81853813E+01</totfact>
</mgrwt>
</event>
<event>
 4    1  0.8653772E-009  0.1540510E+03  0.7818608E-02  0.1195582E+00
         -4   -1    0    0    0  501 -0.00000000000E+00  0.00000000000E+00  0.53570618097E+02  0.53585669944E+02  0.12700000000E+01 0. -1.
          4   -1    0    0  501    0  0.00000000000E+00 -0.00000000000E+00 -0.20946860420E+04  0.20946864270E+04  0.12700000000E+01 0. -1.
    8880022    1    1    2    0    0 -0.43935536079E+01 -0.17909904092E+02 -0.66724740851E+02  0.16788064818E+03  0.15294330000E+03 0.  0.
    8880022    1    1    2    0    0  0.43935536079E+01  0.17909904092E+02 -0.19743906831E+04  0.19803914488E+04  0.15294330000E+03 0.  0.
<mgrwt>
<rscale>  0 0.15405103E+03</rscale>
<asrwt>0</asrwt>
<pdfrwt beam="1">  1        4 0.32226052E+00 0.15405103E+03</pdfrwt>
<pdfrwt beam="2">  1       -4 0.82428226E-02 0.15405103E+03</pdfrwt>
<totfact> 0.50509817E+00</totfact>
</mgrwt>
</event>
<event>
 4    1  0.8653772E-009  0.1838055E+03  0.7818608E-02  0.1164170E+00
          4   -1    0    0  501    0  0.00000000000E+00  0.00000000000E+00  0.47579591390E+02  0.47596537866E+02  0.12700000000E+01 0.  1.
         -4   -1    0    0    0  501 -0.00000000000E+00 -0.00000000000E+00 -0.73471180473E+03  0.73471290237E+03  0.12700000000E+01 0.  1.
    8880022    1    1    2    0    0  0.11344385792E+02 -0.10131199652E+03 -0.41542064148E+03  0.45426729809E+03  0.15294330000E+03 0.  0.
    8880022    1    1    2    0    0 -0.11344385792E+02  0.10131199652E+03 -0.27171157186E+03  0.32804214215E+03  0.15294330000E+03 0.  0.
<mgrwt>
<rscale>  0 0.18380552E+03</rscale>
<asrwt>0</asrwt>
<pdfrwt beam="1">  1        4 0.73213257E-02 0.18380552E+03</pdfrwt>
<pdfrwt beam="2">  1       -4 0.11303396E+00 0.18380552E+03</pdfrwt>
<totfact> 0.14395497E+02</totfact>
</mgrwt>
</event>
<event>
 4    1  0.8653772E-009  0.2274469E+03  0.7818608E-02  0.1128450E+00
          4   -1    0    0  501    0  0.00000000000E+00  0.00000000000E+00  0.27053602625E+04  0.27053605606E+04  0.12700000000E+01 0.  1.
         -4   -1    0    0    0  501 -0.00000000000E+00 -0.00000000000E+00 -0.20790501515E+02  0.20829254745E+02  0.12700000000E+01 0.  1.
    8880022    1    1    2    0    0 -0.15302777000E+03 -0.70163563006E+02  0.95405516256E+03  0.98079219522E+03  0.15294330000E+03 0.  0.
    8880022    1    1    2    0    0  0.15302777000E+03  0.70163563006E+02  0.17305145984E+04  0.17453976201E+04  0.15294330000E+03 0.  0.
<mgrwt>
<rscale>  0 0.22744687E+03</rscale>
<asrwt>0</asrwt>
<pdfrwt beam="1">  1        4 0.41621218E+00 0.22744687E+03</pdfrwt>
<pdfrwt beam="2">  1       -4 0.32015434E-02 0.22744687E+03</pdfrwt>
<totfact> 0.59897272E+00</totfact>
</mgrwt>
</event>
<event>
 4    1  0.8653772E-009  0.2957517E+03  0.7818608E-02  0.1087384E+00
          4   -1    0    0  501    0  0.00000000000E+00  0.00000000000E+00  0.49791272833E+03  0.49791434799E+03  0.12700000000E+01 0. -1.
         -4   -1    0    0    0  501 -0.00000000000E+00 -0.00000000000E+00 -0.37528095832E+03  0.37528310724E+03  0.12700000000E+01 0. -1.
    8880022    1    1    2    0    0  0.52873113580E+02 -0.24755172670E+03 -0.25710125740E+03  0.39188025353E+03  0.15294330000E+03 0.  0.
    8880022    1    1    2    0    0 -0.52873113580E+02  0.24755172670E+03  0.37973302741E+03  0.48131720170E+03  0.15294330000E+03 0.  0.
<mgrwt>
<rscale>  0 0.29575171E+03</rscale>
<asrwt>0</asrwt>
<pdfrwt beam="1">  1        4 0.76602247E-01 0.29575171E+03</pdfrwt>
<pdfrwt beam="2">  1       -4 0.57735823E-01 0.29575171E+03</pdfrwt>
<totfact> 0.82250468E+00</totfact>
</mgrwt>
</event>
<event>
 4    1  0.8653772E-009  0.1580968E+03  0.7818608E-02  0.1190862E+00
          4   -1    0    0  501    0  0.00000000000E+00  0.00000000000E+00  0.21256773763E+03  0.21257153144E+03  0.12700000000E+01 0.  1.
         -4   -1    0    0    0  501 -0.00000000000E+00 -0.00000000000E+00 -0.69274234736E+03  0.69274351150E+03  0.12700000000E+01 0.  1.
    8880022    1    1    2    0    0  0.12037412418E+02 -0.38184566133E+02 -0.65254382809E+03  0.67142241620E+03  0.15294330000E+03 0.  0.
    8880022    1    1    2    0    0 -0.12037412418E+02  0.38184566133E+02  0.17236921836E+03  0.23389262673E+03  0.15294330000E+03 0.  0.
<mgrwt>
<rscale>  0 0.15809685E+03</rscale>
<asrwt>0</asrwt>
<pdfrwt beam="1">  1        4 0.32703111E-01 0.15809685E+03</pdfrwt>
<pdfrwt beam="2">  1       -4 0.10657613E+00 0.15809685E+03</pdfrwt>
<totfact> 0.11505987E+01</totfact>
</mgrwt>
</event>
<event>
 4    1  0.8653772E-009  0.1576523E+03  0.7818608E-02  0.1191373E+00
         -4   -1    0    0    0  501 -0.00000000000E+00  0.00000000000E+00  0.10687870358E+03  0.10688624878E+03  0.12700000000E+01 0.  1.
          4   -1    0    0  501    0  0.00000000000E+00 -0.00000000000E+00 -0.25843381625E+03  0.25843693676E+03  0.12700000000E+01 0.  1.
    8880022    1    1    2    0    0 -0.31298261348E+02  0.21977408411E+02 -0.17947209884E+02  0.15867054863E+03  0.15294330000E+03 0.  0.
    8880022    1    1    2    0    0  0.31298261348E+02 -0.21977408411E+02 -0.13360790279E+03  0.20665263692E+03  0.15294330000E+03 0.  0.
<mgrwt>
<rscale>  0 0.15765228E+03</rscale>
<asrwt>0</asrwt>
<pdfrwt beam="1">  1        4 0.39759869E-01 0.15765228E+03</pdfrwt>
<pdfrwt beam="2">  1       -4 0.16443698E-01 0.15765228E+03</pdfrwt>
<totfact> 0.33720816E+02</totfact>
</mgrwt>
</event>
<event>
 4    1  0.8653772E-009  0.1988217E+03  0.7818608E-02  0.1150737E+00
         -4   -1    0    0    0  501 -0.00000000000E+00  0.00000000000E+00  0.66644114918E+03  0.66644235927E+03  0.12700000000E+01 0.  1.
          4   -1    0    0  501    0  0.00000000000E+00 -0.00000000000E+00 -0.18946109583E+03  0.18946535232E+03  0.12700000000E+01 0.  1.
    8880022    1    1    2    0    0  0.41732910846E+02  0.11998666249E+03 -0.11620410106E+03  0.23028999358E+03  0.15294330000E+03 0.  0.
    8880022    1    1    2    0    0 -0.41732910846E+02 -0.11998666249E+03  0.59318415442E+03  0.62561771801E+03  0.15294330000E+03 0.  0.
<mgrwt>
<rscale>  0 0.19882175E+03</rscale>
<asrwt>0</asrwt>
<pdfrwt beam="1">  1        4 0.29148282E-01 0.19882175E+03</pdfrwt>
<pdfrwt beam="2">  1       -4 0.10252983E+00 0.19882175E+03</pdfrwt>
<totfact> 0.16061427E+01</totfact>
</mgrwt>
</event>
<event>
 4    1  0.8653772E-009  0.2087089E+03  0.7818608E-02  0.1142593E+00
          4   -1    0    0  501    0  0.00000000000E+00  0.00000000000E+00  0.89631853184E+02  0.89640850092E+02  0.12700000000E+01 0.  1.
         -4   -1    0    0    0  501 -0.00000000000E+00 -0.00000000000E+00 -0.62150921112E+03  0.62151050869E+03  0.12700000000E+01 0.  1.
    8880022    1    1    2    0    0 -0.97426872415E+02  0.10332353634E+03 -0.99875310618E+02  0.23137519166E+03  0.15294330000E+03 0.  0.
    8880022    1    1    2    0    0  0.97426872415E+02 -0.10332353634E+03 -0.43200204732E+03  0.47977616712E+03  0.15294330000E+03 0.  0.
<mgrwt>
<rscale>  0 0.20870889E+03</rscale>
<asrwt>0</asrwt>
<pdfrwt beam="1">  1        4 0.13790308E-01 0.20870889E+03</pdfrwt>
<pdfrwt beam="2">  1       -4 0.95617591E-01 0.20870889E+03</pdfrwt>
<totfact> 0.74005666E+01</totfact>
</mgrwt>
</event>
<event>
 4    1  0.8653772E-009  0.2317349E+03  0.7818608E-02  0.1125425E+00
         -4   -1    0    0    0  501 -0.00000000000E+00  0.00000000000E+00  0.87625666158E+02  0.87634869028E+02  0.12700000000E+01 0.  1.
          4   -1    0    0  501    0  0.00000000000E+00 -0.00000000000E+00 -0.61445192343E+03  0.61445323590E+03  0.12700000000E+01 0.  1.
    8880022    1    1    2    0    0  0.10225544763E+03  0.14090145723E+03 -0.24523408612E+03  0.33740303382E+03  0.15294330000E+03 0.  0.
    8880022    1    1    2    0    0 -0.10225544763E+03 -0.14090145723E+03 -0.28159217115E+03  0.36468507111E+03  0.15294330000E+03 0.  0.
<mgrwt>
<rscale>  0 0.23173487E+03</rscale>
<asrwt>0</asrwt>
<pdfrwt beam="1">  1        4 0.94531871E-01 0.23173487E+03</pdfrwt>
<pdfrwt beam="2">  1       -4 0.13481681E-01 0.23173487E+03</pdfrwt>
<totfact> 0.80086192E+01</totfact>
</mgrwt>
</event>
<event>
 4    1  0.8653772E-009  0.1987463E+03  0.7818608E-02  0.1150801E+00
          4   -1    0    0  501    0  0.00000000000E+00  0.00000000000E+00  0.37546132931E+03  0.37546347719E+03  0.12700000000E+01 0. -1.
         -4   -1    0    0    0  501 -0.00000000000E+00 -0.00000000000E+00 -0.12263557805E+03  0.12264215386E+03  0.12700000000E+01 0. -1.
    8880022    1    1    2    0    0 -0.90683342895E+01  0.12659458135E+03  0.32502841370E+02  0.20138647031E+03  0.15294330000E+03 0. -1.
    8880022    1    1    2    0    0  0.90683342895E+01 -0.12659458135E+03  0.22032290989E+03  0.29671916074E+03  0.15294330000E+03 0. -1.
<mgrwt>
<rscale>  0 0.19874626E+03</rscale>
<asrwt>0</asrwt>
<pdfrwt beam="1">  1        4 0.57763951E-01 0.19874626E+03</pdfrwt>
<pdfrwt beam="2">  1       -4 0.18867683E-01 0.19874626E+03</pdfrwt>
<totfact> 0.12794570E+02</totfact>
</mgrwt>
</event>
<event>
 4    1  0.8653772E-009  0.3979368E+03  0.7818608E-02  0.1044496E+00
          4   -1    0    0  501    0  0.00000000000E+00  0.00000000000E+00  0.68682467593E+03  0.68682585010E+03  0.12700000000E+01 0. -1.
         -4   -1    0    0    0  501 -0.00000000000E+00 -0.00000000000E+00 -0.14048641635E+04  0.14048647375E+04  0.12700000000E+01 0.  1.
    8880022    1    1    2    0    0  0.11029708198E+03 -0.35042340713E+03 -0.13152023320E+04  0.13740854550E+04  0.15294330000E+03 0.  0.
    8880022    1    1    2    0    0 -0.11029708198E+03  0.35042340713E+03  0.59716284444E+03  0.71760513261E+03  0.15294330000E+03 0.  0.
<mgrwt>
<rscale>  0 0.39793676E+03</rscale>
<asrwt>0</asrwt>
<pdfrwt beam="1">  1        4 0.10566547E+00 0.39793676E+03</pdfrwt>
<pdfrwt beam="2">  1       -4 0.21613308E+00 0.39793676E+03</pdfrwt>
<totfact> 0.15046703E-01</totfact>
</mgrwt>
</event>
<event>
 4    1  0.8653772E-009  0.1890394E+03  0.7818608E-02  0.1159331E+00
         -4   -1    0    0    0  501 -0.00000000000E+00  0.00000000000E+00  0.16491881869E+03  0.16492370860E+03  0.12700000000E+01 0. -1.
          4   -1    0    0  501    0  0.00000000000E+00 -0.00000000000E+00 -0.22344980833E+03  0.22345341738E+03  0.12700000000E+01 0. -1.
    8880022    1    1    2    0    0 -0.46609564381E+02  0.10085521075E+03 -0.63070919473E+02  0.19928326304E+03  0.15294330000E+03 0. -1.
    8880022    1    1    2    0    0  0.46609564381E+02 -0.10085521075E+03  0.45399298422E+01  0.18909386295E+03  0.15294330000E+03 0. -1.
<mgrwt>
<rscale>  0 0.18903936E+03</rscale>
<asrwt>0</asrwt>
<pdfrwt beam="1">  1        4 0.34377547E-01 0.18903936E+03</pdfrwt>
<pdfrwt beam="2">  1       -4 0.25372780E-01 0.18903936E+03</pdfrwt>
<totfact> 0.21029298E+02</totfact>
</mgrwt>
</event>
<event>
 4    1  0.8653772E-009  0.1836799E+03  0.7818608E-02  0.1164288E+00
         -4   -1    0    0    0  501 -0.00000000000E+00  0.00000000000E+00  0.22867332143E+02  0.22902571457E+02  0.12700000000E+01 0. -1.
          4   -1    0    0  501    0  0.00000000000E+00 -0.00000000000E+00 -0.15323309367E+04  0.15323314630E+04  0.12700000000E+01 0. -1.
    8880022    1    1    2    0    0 -0.49016191649E+01  0.10160036506E+03 -0.90615963696E+03  0.92458834122E+03  0.15294330000E+03 0.  0.
    8880022    1    1    2    0    0  0.49016191649E+01 -0.10160036506E+03 -0.60330396757E+03  0.63064569320E+03  0.15294330000E+03 0.  0.
<mgrwt>
<rscale>  0 0.18367992E+03</rscale>
<asrwt>0</asrwt>
<pdfrwt beam="1">  1        4 0.23574589E+00 0.18367992E+03</pdfrwt>
<pdfrwt beam="2">  1       -4 0.35208035E-02 0.18367992E+03</pdfrwt>
<totfact> 0.65027873E+01</totfact>
</mgrwt>
</event>
<event>
 4    1  0.8653772E-009  0.1575326E+03  0.7818608E-02  0.1191511E+00
          4   -1    0    0  501    0  0.00000000000E+00  0.00000000000E+00  0.19371486054E+03  0.19371902357E+03  0.12700000000E+01 0.  1.
         -4   -1    0    0    0  501 -0.00000000000E+00 -0.00000000000E+00 -0.13535195423E+03  0.13535791227E+03  0.12700000000E+01 0.  1.
    8880022    1    1    2    0    0 -0.23286568853E+02  0.29708819295E+02  0.67266115104E+02  0.17129291138E+03  0.15294330000E+03 0. -1.
    8880022    1    1    2    0    0  0.23286568853E+02 -0.29708819295E+02 -0.89032087981E+01  0.15778402446E+03  0.15294330000E+03 0. -1.
<mgrwt>
<rscale>  0 0.15753264E+03</rscale>
<asrwt>0</asrwt>
<pdfrwt beam="1">  1        4 0.29803065E-01 0.15753264E+03</pdfrwt>
<pdfrwt beam="2">  1       -4 0.20824156E-01 0.15753264E+03</pdfrwt>
<totfact> 0.38561349E+02</totfact>
</mgrwt>
</event>
<event>
 4    1  0.8653772E-009  0.1664531E+03  0.7818608E-02  0.1181598E+00
          4   -1    0    0  501    0  0.00000000000E+00  0.00000000000E+00  0.23786722767E+03  0.23787061798E+03  0.12700000000E+01 0.  1.
         -4   -1    0    0    0  501 -0.00000000000E+00 -0.00000000000E+00 -0.11953224911E+03  0.11953899563E+03  0.12700000000E+01 0.  1.
    8880022    1    1    2    0    0  0.44761737725E+02 -0.48076594165E+02  0.87761533528E+02  0.18817202729E+03  0.15294330000E+03 0.  1.
    8880022    1    1    2    0    0 -0.44761737725E+02  0.48076594165E+02  0.30573445033E+02  0.16923758633E+03  0.15294330000E+03 0.  1.
<mgrwt>
<rscale>  0 0.16645307E+03</rscale>
<asrwt>0</asrwt>
<pdfrwt beam="1">  1        4 0.36595738E-01 0.16645307E+03</pdfrwt>
<pdfrwt beam="2">  1       -4 0.18390357E-01 0.16645307E+03</pdfrwt>
<totfact> 0.32821420E+02</totfact>
</mgrwt>
</event>
<event>
 4    1  0.8653772E-009  0.1920495E+03  0.7818608E-02  0.1156626E+00
         -4   -1    0    0    0  501 -0.00000000000E+00  0.00000000000E+00  0.81598825322E+02  0.81608707832E+02  0.12700000000E+01 0. -1.
          4   -1    0    0  501    0  0.00000000000E+00 -0.00000000000E+00 -0.49346534231E+03  0.49346697656E+03  0.12700000000E+01 0. -1.
    8880022    1    1    2    0    0  0.92850545850E+02 -0.69786275123E+02 -0.28931723098E+03  0.34725705352E+03  0.15294330000E+03 0.  0.
    8880022    1    1    2    0    0 -0.92850545850E+02  0.69786275123E+02 -0.12254928601E+03  0.22781863088E+03  0.15294330000E+03 0.  0.
<mgrwt>
<rscale>  0 0.19204948E+03</rscale>
<asrwt>0</asrwt>
<pdfrwt beam="1">  1        4 0.75918629E-01 0.19204948E+03</pdfrwt>
<pdfrwt beam="2">  1       -4 0.12554552E-01 0.19204948E+03</pdfrwt>
<totfact> 0.14502637E+02</totfact>
</mgrwt>
</event>
<event>
 4    1  0.8653772E-009  0.1715176E+03  0.7818608E-02  0.1176274E+00
          4   -1    0    0  501    0  0.00000000000E+00  0.00000000000E+00  0.52518186087E+03  0.52518339643E+03  0.12700000000E+01 0.  1.
         -4   -1    0    0    0  501 -0.00000000000E+00 -0.00000000000E+00 -0.14060022812E+03  0.14060596377E+03  0.12700000000E+01 0.  1.
    8880022    1    1    2    0    0 -0.34569099245E+02 -0.69509829196E+02  0.45049584370E+03  0.48204231887E+03  0.15294330000E+03 0.  0.
    8880022    1    1    2    0    0  0.34569099245E+02  0.69509829196E+02 -0.65914210950E+02  0.18374704133E+03  0.15294330000E+03 0.  0.
<mgrwt>
<rscale>  0 0.17151761E+03</rscale>
<asrwt>0</asrwt>
<pdfrwt beam="1">  1        4 0.80797769E-01 0.17151761E+03</pdfrwt>
<pdfrwt beam="2">  1       -4 0.21631364E-01 0.17151761E+03</pdfrwt>
<totfact> 0.47369636E+01</totfact>
</mgrwt>
</event>
<event>
 4    1  0.8653772E-009  0.2635885E+03  0.7818608E-02  0.1105006E+00
          4   -1    0    0  501    0  0.00000000000E+00  0.00000000000E+00  0.23340908314E+03  0.23341253821E+03  0.12700000000E+01 0. -1.
         -4   -1    0    0    0  501 -0.00000000000E+00 -0.00000000000E+00 -0.29794037194E+03  0.29794307867E+03  0.12700000000E+01 0. -1.
    8880022    1    1    2    0    0 -0.19008043650E+02 -0.21383628806E+03 -0.24161450290E+02  0.26469358230E+03  0.15294330000E+03 0.  0.
    8880022    1    1    2    0    0  0.19008043650E+02  0.21383628806E+03 -0.40369838506E+02  0.26666203459E+03  0.15294330000E+03 0.  0.
<mgrwt>
<rscale>  0 0.26358854E+03</rscale>
<asrwt>0</asrwt>
<pdfrwt beam="1">  1        4 0.35909564E-01 0.26358854E+03</pdfrwt>
<pdfrwt beam="2">  1       -4 0.45837454E-01 0.26358854E+03</pdfrwt>
<totfact> 0.63893370E+01</totfact>
</mgrwt>
</event>
<event>
 4    1  0.8653772E-009  0.1859189E+03  0.7818608E-02  0.1162195E+00
          4   -1    0    0  501    0  0.00000000000E+00  0.00000000000E+00  0.14326434601E+03  0.14326997500E+03  0.12700000000E+01 0.  1.
         -4   -1    0    0    0  501 -0.00000000000E+00 -0.00000000000E+00 -0.28498830778E+03  0.28499113753E+03  0.12700000000E+01 0.  1.
    8880022    1    1    2    0    0  0.58695078030E+02  0.87915058148E+02  0.13013478272E+02  0.18637374618E+03  0.15294330000E+03 0.  1.
    8880022    1    1    2    0    0 -0.58695078030E+02 -0.87915058148E+02 -0.15473744005E+03  0.24188736635E+03  0.15294330000E+03 0.  1.
<mgrwt>
<rscale>  0 0.18591886E+03</rscale>
<asrwt>0</asrwt>
<pdfrwt beam="1">  1        4 0.22041319E-01 0.18591886E+03</pdfrwt>
<pdfrwt beam="2">  1       -4 0.43845005E-01 0.18591886E+03</pdfrwt>
<totfact> 0.16833763E+02</totfact>
</mgrwt>
</event>
<event>
 4    1  0.8653772E-009  0.1582351E+03  0.7818608E-02  0.1190704E+00
         -4   -1    0    0    0  501 -0.00000000000E+00  0.00000000000E+00  0.14115014393E+03  0.14115585723E+03  0.12700000000E+01 0.  1.
          4   -1    0    0  501    0  0.00000000000E+00 -0.00000000000E+00 -0.17895571786E+03  0.17896022422E+03  0.12700000000E+01 0.  1.
    8880022    1    1    2    0    0  0.39116475918E+02  0.10798526633E+02 -0.38676927735E+01  0.15828240246E+03  0.15294330000E+03 0.  1.
    8880022    1    1    2    0    0 -0.39116475918E+02 -0.10798526633E+02 -0.33937881153E+02  0.16183367900E+03  0.15294330000E+03 0.  1.
<mgrwt>
<rscale>  0 0.15823514E+03</rscale>
<asrwt>0</asrwt>
<pdfrwt beam="1">  1        4 0.27532435E-01 0.15823514E+03</pdfrwt>
<pdfrwt beam="2">  1       -4 0.21716193E-01 0.15823514E+03</pdfrwt>
<totfact> 0.41520284E+02</totfact>
</mgrwt>
</event>
<event>
 4    1  0.8653772E-009  0.2202586E+03  0.7818608E-02  0.1133690E+00
         -4   -1    0    0    0  501 -0.00000000000E+00  0.00000000000E+00  0.72649243569E+03  0.72649354575E+03  0.12700000000E+01 0.  1.
          4   -1    0    0  501    0  0.00000000000E+00 -0.00000000000E+00 -0.95735808134E+02  0.95744231466E+02  0.12700000000E+01 0.  1.
    8880022    1    1    2    0    0  0.28586914701E+01 -0.15847410444E+03  0.54149868236E+03  0.58458078133E+03  0.15294330000E+03 0.  0.
    8880022    1    1    2    0    0 -0.28586914701E+01  0.15847410444E+03  0.89257945197E+02  0.23765699588E+03  0.15294330000E+03 0.  0.
<mgrwt>
<rscale>  0 0.22025864E+03</rscale>
<asrwt>0</asrwt>
<pdfrwt beam="1">  1        4 0.14729319E-01 0.22025864E+03</pdfrwt>
<pdfrwt beam="2">  1       -4 0.11176880E+00 0.22025864E+03</pdfrwt>
<totfact> 0.45948929E+01</totfact>
</mgrwt>
</event>
<event>
 4    1  0.8653772E-009  0.2854722E+03  0.7818608E-02  0.1092737E+00
         -4   -1    0    0    0  501 -0.00000000000E+00  0.00000000000E+00  0.84338061994E+03  0.84338157615E+03  0.12700000000E+01 0.  1.
          4   -1    0    0  501    0  0.00000000000E+00 -0.00000000000E+00 -0.98798975026E+02  0.98807137223E+02  0.12700000000E+01 0.  1.
    8880022    1    1    2    0    0 -0.34601701111E+02  0.23854866551E+03  0.44219955551E+03  0.52634099540E+03  0.15294330000E+03 0.  0.
    8880022    1    1    2    0    0  0.34601701111E+02 -0.23854866551E+03  0.30238208941E+03  0.41584771797E+03  0.15294330000E+03 0.  0.
<mgrwt>
<rscale>  0 0.28547223E+03</rscale>
<asrwt>0</asrwt>
<pdfrwt beam="1">  1        4 0.15200544E-01 0.28547223E+03</pdfrwt>
<pdfrwt beam="2">  1       -4 0.12975156E+00 0.28547223E+03</pdfrwt>
<totfact> 0.30984299E+01</totfact>
</mgrwt>
</event>
<event>
 4    1  0.8653772E-009  0.2390865E+03  0.7818608E-02  0.1120403E+00
          4   -1    0    0  501    0  0.00000000000E+00  0.00000000000E+00  0.17587384974E+03  0.17587843506E+03  0.12700000000E+01 0.  1.
         -4   -1    0    0    0  501 -0.00000000000E+00 -0.00000000000E+00 -0.35842361034E+03  0.35842586032E+03  0.12700000000E+01 0.  1.
    8880022    1    1    2    0    0  0.73001606896E+02  0.16864594531E+03 -0.97059489275E+01  0.23928340506E+03  0.15294330000E+03 0.  0.
    8880022    1    1    2    0    0 -0.73001606896E+02 -0.16864594531E+03 -0.17284381167E+03  0.29502089032E+03  0.15294330000E+03 0.  0.
<mgrwt>
<rscale>  0 0.23908647E+03</rscale>
<asrwt>0</asrwt>
<pdfrwt beam="1">  1        4 0.27058041E-01 0.23908647E+03</pdfrwt>
<pdfrwt beam="2">  1       -4 0.55142620E-01 0.23908647E+03</pdfrwt>
<totfact> 0.74355396E+01</totfact>
</mgrwt>
</event>
<event>
 4    1  0.8653772E-009  0.1534488E+03  0.7818608E-02  0.1196298E+00
         -4   -1    0    0    0  501 -0.00000000000E+00  0.00000000000E+00  0.15873649544E+04  0.15873654624E+04  0.12700000000E+01 0.  1.
          4   -1    0    0  501    0  0.00000000000E+00 -0.00000000000E+00 -0.15554919480E+02  0.15606678699E+02  0.12700000000E+01 0.  1.
    8880022    1    1    2    0    0 -0.29853766903E+01  0.12081471347E+02  0.61034500473E+03  0.62933898039E+03  0.15294330000E+03 0.  1.
    8880022    1    1    2    0    0  0.29853766903E+01 -0.12081471347E+02  0.96146503016E+03  0.97363316072E+03  0.15294330000E+03 0.  1.
<mgrwt>
<rscale>  0 0.15344878E+03</rscale>
<asrwt>0</asrwt>
<pdfrwt beam="1">  1        4 0.23970873E-02 0.15344878E+03</pdfrwt>
<pdfrwt beam="2">  1       -4 0.24421379E+00 0.15344878E+03</pdfrwt>
<totfact> 0.10397115E+02</totfact>
</mgrwt>
</event>
<event>
 4    1  0.8653772E-009  0.2249396E+03  0.7818608E-02  0.1130253E+00
         -4   -1    0    0    0  501 -0.00000000000E+00  0.00000000000E+00  0.85640388251E+03  0.85640482417E+03  0.12700000000E+01 0.  1.
          4   -1    0    0  501    0  0.00000000000E+00 -0.00000000000E+00 -0.19212955299E+03  0.19213375037E+03  0.12700000000E+01 0.  1.
    8880022    1    1    2    0    0 -0.11327456838E+03  0.11989587398E+03 -0.10414035623E+03  0.24787701638E+03  0.15294330000E+03 0.  0.
    8880022    1    1    2    0    0  0.11327456838E+03 -0.11989587398E+03  0.76841468575E+03  0.80066155816E+03  0.15294330000E+03 0.  0.
<mgrwt>
<rscale>  0 0.22493955E+03</rscale>
<asrwt>0</asrwt>
<pdfrwt beam="1">  1        4 0.29558788E-01 0.22493955E+03</pdfrwt>
<pdfrwt beam="2">  1       -4 0.13175484E+00 0.22493955E+03</pdfrwt>
<totfact> 0.86278666E+00</totfact>
</mgrwt>
</event>
<event>
 4    1  0.8653772E-009  0.2301998E+03  0.7818608E-02  0.1126499E+00
         -4   -1    0    0    0  501 -0.00000000000E+00  0.00000000000E+00  0.42004856197E+03  0.42005048186E+03  0.12700000000E+01 0. -1.
          4   -1    0    0  501    0  0.00000000000E+00 -0.00000000000E+00 -0.15301629242E+03  0.15302156268E+03  0.12700000000E+01 0. -1.
    8880022    1    1    2    0    0  0.77400452114E+02 -0.15365375837E+03  0.13457775982E+02  0.23059287109E+03  0.15294330000E+03 0.  0.
    8880022    1    1    2    0    0 -0.77400452114E+02  0.15365375837E+03  0.25357449356E+03  0.34247917345E+03  0.15294330000E+03 0.  0.
<mgrwt>
<rscale>  0 0.23019983E+03</rscale>
<asrwt>0</asrwt>
<pdfrwt beam="1">  1        4 0.23541521E-01 0.23019983E+03</pdfrwt>
<pdfrwt beam="2">  1       -4 0.64623409E-01 0.23019983E+03</pdfrwt>
<totfact> 0.68572228E+01</totfact>
</mgrwt>
</event>
<event>
 4    1  0.8653772E-009  0.3046832E+03  0.7818608E-02  0.1082923E+00
          4   -1    0    0  501    0  0.00000000000E+00  0.00000000000E+00  0.41346257999E+03  0.41346453047E+03  0.12700000000E+01 0.  1.
         -4   -1    0    0    0  501 -0.00000000000E+00 -0.00000000000E+00 -0.22458459400E+03  0.22458818482E+03  0.12700000000E+01 0.  1.
    8880022    1    1    2    0    0 -0.11753780042E+03  0.23584963665E+03  0.99904570210E+02  0.32064429170E+03  0.15294330000E+03 0.  0.
    8880022    1    1    2    0    0  0.11753780042E+03 -0.23584963665E+03  0.88973415786E+02  0.31740842359E+03  0.15294330000E+03 0.  0.
<mgrwt>
<rscale>  0 0.30468318E+03</rscale>
<asrwt>0</asrwt>
<pdfrwt beam="1">  1        4 0.63610053E-01 0.30468318E+03</pdfrwt>
<pdfrwt beam="2">  1       -4 0.34551903E-01 0.30468318E+03</pdfrwt>
<totfact> 0.35210816E+01</totfact>
</mgrwt>
</event>
<event>
 4    1  0.8653772E-009  0.1648252E+03  0.7818608E-02  0.1183354E+00
          4   -1    0    0  501    0  0.00000000000E+00  0.00000000000E+00  0.11494082949E+03  0.11494784550E+03  0.12700000000E+01 0.  1.
         -4   -1    0    0    0  501 -0.00000000000E+00 -0.00000000000E+00 -0.52113678278E+03  0.52113833026E+03  0.12700000000E+01 0.  1.
    8880022    1    1    2    0    0 -0.48292887628E+02 -0.37993323298E+02  0.32011978219E+02  0.16790507847E+03  0.15294330000E+03 0.  0.
    8880022    1    1    2    0    0  0.48292887628E+02  0.37993323298E+02 -0.43820793151E+03  0.46818109729E+03  0.15294330000E+03 0.  0.
<mgrwt>
<rscale>  0 0.16482521E+03</rscale>
<asrwt>0</asrwt>
<pdfrwt beam="1">  1        4 0.17683864E-01 0.16482521E+03</pdfrwt>
<pdfrwt beam="2">  1       -4 0.80175547E-01 0.16482521E+03</pdfrwt>
<totfact> 0.68933298E+01</totfact>
</mgrwt>
</event>
<event>
 4    1  0.8653772E-009  0.1959264E+03  0.7818608E-02  0.1153222E+00
          4   -1    0    0  501    0  0.00000000000E+00  0.00000000000E+00  0.55104597220E+03  0.55104743568E+03  0.12700000000E+01 0. -1.
         -4   -1    0    0    0  501 -0.00000000000E+00 -0.00000000000E+00 -0.69701284690E+02  0.69712853818E+02  0.12700000000E+01 0. -1.
    8880022    1    1    2    0    0 -0.26419531172E+02  0.11957219379E+03  0.24866981546E+03  0.31658147654E+03  0.15294330000E+03 0.  0.
    8880022    1    1    2    0    0  0.26419531172E+02 -0.11957219379E+03  0.23267487205E+03  0.30417881296E+03  0.15294330000E+03 0.  0.
<mgrwt>
<rscale>  0 0.19592640E+03</rscale>
<asrwt>0</asrwt>
<pdfrwt beam="1">  1        4 0.84777302E-01 0.19592640E+03</pdfrwt>
<pdfrwt beam="2">  1       -4 0.10724278E-01 0.19592640E+03</pdfrwt>
<totfact> 0.14907220E+02</totfact>
</mgrwt>
</event>
<event>
 4    1  0.8653772E-009  0.1893268E+03  0.7818608E-02  0.1159070E+00
          4   -1    0    0  501    0  0.00000000000E+00  0.00000000000E+00  0.31024619921E+03  0.31024879858E+03  0.12700000000E+01 0. -1.
         -4   -1    0    0    0  501 -0.00000000000E+00 -0.00000000000E+00 -0.16035293262E+03  0.16035796176E+03  0.12700000000E+01 0. -1.
    8880022    1    1    2    0    0  0.60009473565E+02 -0.94084180718E+02 -0.49456319986E+02  0.19567971428E+03  0.15294330000E+03 0.  0.
    8880022    1    1    2    0    0 -0.60009473565E+02  0.94084180718E+02  0.19934958657E+03  0.27492704607E+03  0.15294330000E+03 0.  0.
<mgrwt>
<rscale>  0 0.18932676E+03</rscale>
<asrwt>0</asrwt>
<pdfrwt beam="1">  1        4 0.47730772E-01 0.18932676E+03</pdfrwt>
<pdfrwt beam="2">  1       -4 0.24670269E-01 0.18932676E+03</pdfrwt>
<totfact> 0.11550544E+02</totfact>
</mgrwt>
</event>
<event>
 4    1  0.8653772E-009  0.2316599E+03  0.7818608E-02  0.1125477E+00
         -4   -1    0    0    0  501 -0.00000000000E+00  0.00000000000E+00  0.85424848634E+02  0.85434288574E+02  0.12700000000E+01 0.  1.
          4   -1    0    0  501    0  0.00000000000E+00 -0.00000000000E+00 -0.75672987265E+03  0.75673093835E+03  0.12700000000E+01 0.  1.
    8880022    1    1    2    0    0 -0.17396855431E+03  0.31008603842E+01 -0.50920200578E+03  0.55942203114E+03  0.15294330000E+03 0.  0.
    8880022    1    1    2    0    0  0.17396855431E+03 -0.31008603842E+01 -0.16210301824E+03  0.28274319578E+03  0.15294330000E+03 0.  0.
<mgrwt>
<rscale>  0 0.23165994E+03</rscale>
<asrwt>0</asrwt>
<pdfrwt beam="1">  1        4 0.11642078E+00 0.23165994E+03</pdfrwt>
<pdfrwt beam="2">  1       -4 0.13143093E-01 0.23165994E+03</pdfrwt>
<totfact> 0.51162432E+01</totfact>
</mgrwt>
</event>
<event>
 4    1  0.8653772E-009  0.2161724E+03  0.7818608E-02  0.1136769E+00
         -4   -1    0    0    0  501 -0.00000000000E+00  0.00000000000E+00  0.29150943497E+03  0.29151220142E+03  0.12700000000E+01 0.  1.
          4   -1    0    0  501    0  0.00000000000E+00 -0.00000000000E+00 -0.23040122445E+03  0.23040472462E+03  0.12700000000E+01 0.  1.
    8880022    1    1    2    0    0  0.44786939067E+02  0.14605814294E+03  0.17449609607E+03  0.27781179166E+03  0.15294330000E+03 0.  0.
    8880022    1    1    2    0    0 -0.44786939067E+02 -0.14605814294E+03 -0.11338788554E+03  0.24410513438E+03  0.15294330000E+03 0.  0.
<mgrwt>
<rscale>  0 0.21617239E+03</rscale>
<asrwt>0</asrwt>
<pdfrwt beam="1">  1        4 0.35446824E-01 0.21617239E+03</pdfrwt>
<pdfrwt beam="2">  1       -4 0.44848087E-01 0.21617239E+03</pdfrwt>
<totfact> 0.66929698E+01</totfact>
</mgrwt>
</event>
<event>
 4    1  0.8653772E-009  0.1930914E+03  0.7818608E-02  0.1155702E+00
          4   -1    0    0  501    0  0.00000000000E+00  0.00000000000E+00  0.60223056793E+03  0.60223190703E+03  0.12700000000E+01 0. -1.
         -4   -1    0    0    0  501 -0.00000000000E+00 -0.00000000000E+00 -0.73278241750E+02  0.73289246237E+02  0.12700000000E+01 0. -1.
    8880022    1    1    2    0    0  0.60843871184E+02  0.10094888015E+03  0.13140833756E+03  0.23356467468E+03  0.15294330000E+03 0.  0.
    8880022    1    1    2    0    0 -0.60843871184E+02 -0.10094888015E+03  0.39754398861E+03  0.44195647858E+03  0.15294330000E+03 0.  0.
<mgrwt>
<rscale>  0 0.19309144E+03</rscale>
<asrwt>0</asrwt>
<pdfrwt beam="1">  1        4 0.92651809E-01 0.19309144E+03</pdfrwt>
<pdfrwt beam="2">  1       -4 0.11274525E-01 0.19309144E+03</pdfrwt>
<totfact> 0.11161912E+02</totfact>
</mgrwt>
</event>
<event>
 4    1  0.8653772E-009  0.1724738E+03  0.7818608E-02  0.1175292E+00
         -4   -1    0    0    0  501 -0.00000000000E+00  0.00000000000E+00  0.42152340863E+03  0.42152532181E+03  0.12700000000E+01 0. -1.
          4   -1    0    0  501    0  0.00000000000E+00 -0.00000000000E+00 -0.71703928536E+02  0.71715174597E+02  0.12700000000E+01 0. -1.
    8880022    1    1    2    0    0  0.29733476056E+02  0.73969494677E+02  0.14380293522E+03  0.22455846218E+03  0.15294330000E+03 0. -1.
    8880022    1    1    2    0    0 -0.29733476056E+02 -0.73969494677E+02  0.20601654487E+03  0.26868203423E+03  0.15294330000E+03 0. -1.
<mgrwt>
<rscale>  0 0.17247382E+03</rscale>
<asrwt>0</asrwt>
<pdfrwt beam="1">  1        4 0.11032386E-01 0.17247382E+03</pdfrwt>
<pdfrwt beam="2">  1       -4 0.64850766E-01 0.17247382E+03</pdfrwt>
<totfact> 0.25077740E+02</totfact>
</mgrwt>
</event>
<event>
 4    1  0.8653772E-009  0.2004358E+03  0.7818608E-02  0.1149372E+00
          4   -1    0    0  501    0  0.00000000000E+00  0.00000000000E+00  0.24693950168E+03  0.24694276744E+03  0.12700000000E+01 0. -1.
         -4   -1    0    0    0  501 -0.00000000000E+00 -0.00000000000E+00 -0.20136299886E+03  0.20136700378E+03  0.12700000000E+01 0. -1.
    8880022    1    1    2    0    0  0.12948296600E+03 -0.41253058808E+01  0.12102953017E+03  0.23414238578E+03  0.15294330000E+03 0.  0.
    8880022    1    1    2    0    0 -0.12948296600E+03  0.41253058808E+01 -0.75453027352E+02  0.21416738544E+03  0.15294330000E+03 0.  0.
<mgrwt>
<rscale>  0 0.20043580E+03</rscale>
<asrwt>0</asrwt>
<pdfrwt beam="1">  1        4 0.37991252E-01 0.20043580E+03</pdfrwt>
<pdfrwt beam="2">  1       -4 0.30979482E-01 0.20043580E+03</pdfrwt>
<totfact> 0.11970425E+02</totfact>
</mgrwt>
</event>
<event>
 4    1  0.8653772E-009  0.3741069E+03  0.7818608E-02  0.1053134E+00
         -4   -1    0    0    0  501 -0.00000000000E+00  0.00000000000E+00  0.13667369964E+04  0.13667375865E+04  0.12700000000E+01 0.  1.
          4   -1    0    0  501    0  0.00000000000E+00 -0.00000000000E+00 -0.31842490479E+03  0.31842743741E+03  0.12700000000E+01 0.  1.
    8880022    1    1    2    0    0 -0.33450095050E+03 -0.68362459433E+02  0.12181567624E+04  0.12743083859E+04  0.15294330000E+03 0.  0.
    8880022    1    1    2    0    0  0.33450095050E+03  0.68362459433E+02 -0.16984467074E+03  0.41085663794E+03  0.15294330000E+03 0.  0.
<mgrwt>
<rscale>  0 0.37410689E+03</rscale>
<asrwt>0</asrwt>
<pdfrwt beam="1">  1        4 0.48988688E-01 0.37410689E+03</pdfrwt>
<pdfrwt beam="2">  1       -4 0.21026747E+00 0.37410689E+03</pdfrwt>
<totfact> 0.90356810E-01</totfact>
</mgrwt>
</event>
<event>
 4    1  0.8653772E-009  0.1645572E+03  0.7818608E-02  0.1183646E+00
         -4   -1    0    0    0  501 -0.00000000000E+00  0.00000000000E+00  0.33679197728E+03  0.33679437178E+03  0.12700000000E+01 0. -1.
          4   -1    0    0  501    0  0.00000000000E+00 -0.00000000000E+00 -0.13073151865E+03  0.13073768725E+03  0.12700000000E+01 0. -1.
    8880022    1    1    2    0    0  0.60707704025E+02  0.14136828721E+01 -0.42018590864E+02  0.16983709495E+03  0.15294330000E+03 0. -1.
    8880022    1    1    2    0    0 -0.60707704025E+02 -0.14136828721E+01  0.24807904950E+03  0.29769496409E+03  0.15294330000E+03 0. -1.
<mgrwt>
<rscale>  0 0.16455721E+03</rscale>
<asrwt>0</asrwt>
<pdfrwt beam="1">  1        4 0.20113200E-01 0.16455721E+03</pdfrwt>
<pdfrwt beam="2">  1       -4 0.51814809E-01 0.16455721E+03</pdfrwt>
<totfact> 0.13900677E+02</totfact>
</mgrwt>
</event>
<event>
 4    1  0.8653772E-009  0.1810543E+03  0.7818608E-02  0.1166787E+00
          4   -1    0    0  501    0  0.00000000000E+00  0.00000000000E+00  0.45275473619E+03  0.45275651739E+03  0.12700000000E+01 0.  1.
         -4   -1    0    0    0  501 -0.00000000000E+00 -0.00000000000E+00 -0.73217268166E+02  0.73228281816E+02  0.12700000000E+01 0.  1.
    8880022    1    1    2    0    0 -0.85063054047E+02  0.46403401250E+02  0.21763368303E+03  0.28309904948E+03  0.15294330000E+03 0. -1.
    8880022    1    1    2    0    0  0.85063054047E+02 -0.46403401250E+02  0.16190378499E+03  0.24288574972E+03  0.15294330000E+03 0. -1.
<mgrwt>
<rscale>  0 0.18105428E+03</rscale>
<asrwt>0</asrwt>
<pdfrwt beam="1">  1        4 0.69655561E-01 0.18105428E+03</pdfrwt>
<pdfrwt beam="2">  1       -4 0.11265179E-01 0.18105428E+03</pdfrwt>
<totfact> 0.20906809E+02</totfact>
</mgrwt>
</event>
<event>
 4    1  0.8653772E-009  0.4067987E+03  0.7818608E-02  0.1041451E+00
         -4   -1    0    0    0  501 -0.00000000000E+00  0.00000000000E+00  0.99118772682E+03  0.99118854044E+03  0.12700000000E+01 0. -1.
          4   -1    0    0  501    0  0.00000000000E+00 -0.00000000000E+00 -0.16696178837E+03  0.16696661845E+03  0.12700000000E+01 0. -1.
    8880022    1    1    2    0    0 -0.15954242375E+03 -0.34152565788E+03  0.41627051123E+03  0.58203638331E+03  0.15294330000E+03 0.  0.
    8880022    1    1    2    0    0  0.15954242375E+03  0.34152565788E+03  0.40795542722E+03  0.57611877558E+03  0.15294330000E+03 0.  0.
<mgrwt>
<rscale>  0 0.40679874E+03</rscale>
<asrwt>0</asrwt>
<pdfrwt beam="1">  1        4 0.25686864E-01 0.40679874E+03</pdfrwt>
<pdfrwt beam="2">  1       -4 0.15249085E+00 0.40679874E+03</pdfrwt>
<totfact> 0.80292482E+00</totfact>
</mgrwt>
</event>
<event>
 4    1  0.8653772E-009  0.1903851E+03  0.7818608E-02  0.1158114E+00
          4   -1    0    0  501    0  0.00000000000E+00  0.00000000000E+00  0.91507688162E+02  0.91516500659E+02  0.12700000000E+01 0.  1.
         -4   -1    0    0    0  501 -0.00000000000E+00 -0.00000000000E+00 -0.58530144717E+03  0.58530282500E+03  0.12700000000E+01 0.  1.
    8880022    1    1    2    0    0  0.11335171013E+03  0.24971137376E+01 -0.43931264095E+03  0.47879233001E+03  0.15294330000E+03 0.  0.
    8880022    1    1    2    0    0 -0.11335171013E+03 -0.24971137376E+01 -0.54481118055E+02  0.19802699565E+03  0.15294330000E+03 0.  0.
<mgrwt>
<rscale>  0 0.19038513E+03</rscale>
<asrwt>0</asrwt>
<pdfrwt beam="1">  1        4 0.14078890E-01 0.19038513E+03</pdfrwt>
<pdfrwt beam="2">  1       -4 0.90047158E-01 0.19038513E+03</pdfrwt>
<totfact> 0.80957969E+01</totfact>
</mgrwt>
</event>
<event>
 4    1  0.8653772E-009  0.2179458E+03  0.7818608E-02  0.1135424E+00
          4   -1    0    0  501    0  0.00000000000E+00  0.00000000000E+00  0.67175206712E+02  0.67187210813E+02  0.12700000000E+01 0. -1.
         -4   -1    0    0    0  501 -0.00000000000E+00 -0.00000000000E+00 -0.85099108489E+03  0.85099203255E+03  0.12700000000E+01 0. -1.
    8880022    1    1    2    0    0  0.58740425610E+02  0.14372990627E+03 -0.20308916446E+03  0.29790197263E+03  0.15294330000E+03 0.  0.
    8880022    1    1    2    0    0 -0.58740425610E+02 -0.14372990627E+03 -0.58072671372E+03  0.62027727074E+03  0.15294330000E+03 0.  0.
<mgrwt>
<rscale>  0 0.21794581E+03</rscale>
<asrwt>0</asrwt>
<pdfrwt beam="1">  1        4 0.10335644E-01 0.21794581E+03</pdfrwt>
<pdfrwt beam="2">  1       -4 0.13092269E+00 0.21794581E+03</pdfrwt>
<totfact> 0.57644396E+01</totfact>
</mgrwt>
</event>
<event>
 4    1  0.8653772E-009  0.2153158E+03  0.7818608E-02  0.1137424E+00
         -4   -1    0    0    0  501 -0.00000000000E+00  0.00000000000E+00  0.33256657327E+03  0.33256899819E+03  0.12700000000E+01 0.  1.
          4   -1    0    0  501    0  0.00000000000E+00 -0.00000000000E+00 -0.16315802441E+03  0.16316296709E+03  0.12700000000E+01 0.  1.
    8880022    1    1    2    0    0  0.44709199507E+02  0.14481131356E+03  0.17929106093E+03  0.28018951907E+03  0.15294330000E+03 0.  0.
    8880022    1    1    2    0    0 -0.44709199507E+02 -0.14481131356E+03 -0.98825120656E+01  0.21554244620E+03  0.15294330000E+03 0.  0.
<mgrwt>
<rscale>  0 0.21531577E+03</rscale>
<asrwt>0</asrwt>
<pdfrwt beam="1">  1        4 0.25101801E-01 0.21531577E+03</pdfrwt>
<pdfrwt beam="2">  1       -4 0.51164655E-01 0.21531577E+03</pdfrwt>
<totfact> 0.98693200E+01</totfact>
</mgrwt>
</event>
<event>
 4    1  0.8653772E-009  0.1838728E+03  0.7818608E-02  0.1164107E+00
          4   -1    0    0  501    0  0.00000000000E+00  0.00000000000E+00  0.10263783791E+03  0.10264569484E+03  0.12700000000E+01 0.  1.
         -4   -1    0    0    0  501 -0.00000000000E+00 -0.00000000000E+00 -0.44984829519E+03  0.44985008790E+03  0.12700000000E+01 0.  1.
    8880022    1    1    2    0    0  0.78893410666E+02 -0.64756439701E+02 -0.31655879466E+03  0.36608563236E+03  0.15294330000E+03 0.  0.
    8880022    1    1    2    0    0 -0.78893410666E+02  0.64756439701E+02 -0.30651662619E+02  0.18641015038E+03  0.15294330000E+03 0.  0.
<mgrwt>
<rscale>  0 0.18387284E+03</rscale>
<asrwt>0</asrwt>
<pdfrwt beam="1">  1        4 0.15791179E-01 0.18387284E+03</pdfrwt>
<pdfrwt beam="2">  1       -4 0.69208171E-01 0.18387284E+03</pdfrwt>
<totfact> 0.11816404E+02</totfact>
</mgrwt>
</event>
<event>
 4    1  0.8653772E-009  0.1809300E+03  0.7818608E-02  0.1166906E+00
         -4   -1    0    0    0  501 -0.00000000000E+00  0.00000000000E+00  0.88329087852E+02  0.88338217441E+02  0.12700000000E+01 0.  1.
          4   -1    0    0  501    0  0.00000000000E+00 -0.00000000000E+00 -0.38784673132E+03  0.38784881062E+03  0.12700000000E+01 0.  1.
    8880022    1    1    2    0    0  0.52080191514E+02  0.81435012129E+02 -0.19999375935E+03  0.26969086811E+03  0.15294330000E+03 0.  0.
    8880022    1    1    2    0    0 -0.52080191514E+02 -0.81435012129E+02 -0.99523884127E+02  0.20649615995E+03  0.15294330000E+03 0.  0.
<mgrwt>
<rscale>  0 0.18092999E+03</rscale>
<asrwt>0</asrwt>
<pdfrwt beam="1">  1        4 0.59669589E-01 0.18092999E+03</pdfrwt>
<pdfrwt beam="2">  1       -4 0.13589953E-01 0.18092999E+03</pdfrwt>
<totfact> 0.21058624E+02</totfact>
</mgrwt>
</event>
<event>
 4    1  0.8653772E-009  0.1678827E+03  0.7818608E-02  0.1180074E+00
          4   -1    0    0  501    0  0.00000000000E+00  0.00000000000E+00  0.37886780488E+03  0.37886993345E+03  0.12700000000E+01 0.  1.
         -4   -1    0    0    0  501 -0.00000000000E+00 -0.00000000000E+00 -0.74434055107E+02  0.74444888741E+02  0.12700000000E+01 0.  1.
    8880022    1    1    2    0    0  0.45140532025E+02  0.52490826339E+02  0.15809942913E+03  0.23060797251E+03  0.15294330000E+03 0.  0.
    8880022    1    1    2    0    0 -0.45140532025E+02 -0.52490826339E+02  0.14633432065E+03  0.22270684968E+03  0.15294330000E+03 0.  0.
<mgrwt>
<rscale>  0 0.16788272E+03</rscale>
<asrwt>0</asrwt>
<pdfrwt beam="1">  1        4 0.58288352E-01 0.16788272E+03</pdfrwt>
<pdfrwt beam="2">  1       -4 0.11452390E-01 0.16788272E+03</pdfrwt>
<totfact> 0.29364105E+02</totfact>
</mgrwt>
</event>
<event>
 4    1  0.8653772E-009  0.2807722E+03  0.7818608E-02  0.1095268E+00
         -4   -1    0    0    0  501 -0.00000000000E+00  0.00000000000E+00  0.12798167847E+03  0.12798797960E+03  0.12700000000E+01 0. -1.
          4   -1    0    0  501    0  0.00000000000E+00 -0.00000000000E+00 -0.65971105507E+03  0.65971227749E+03  0.12700000000E+01 0. -1.
    8880022    1    1    2    0    0  0.30528980208E+02 -0.23347233769E+03 -0.36730276369E+03  0.46232491208E+03  0.15294330000E+03 0.  0.
    8880022    1    1    2    0    0 -0.30528980208E+02  0.23347233769E+03 -0.16442661291E+03  0.32537534502E+03  0.15294330000E+03 0.  0.
<mgrwt>
<rscale>  0 0.28077216E+03</rscale>
<asrwt>0</asrwt>
<pdfrwt beam="1">  1        4 0.10149458E+00 0.28077216E+03</pdfrwt>
<pdfrwt beam="2">  1       -4 0.19690068E-01 0.28077216E+03</pdfrwt>
<totfact> 0.35250235E+01</totfact>
</mgrwt>
</event>
<event>
 4    1  0.8653772E-009  0.1926423E+03  0.7818608E-02  0.1156100E+00
         -4   -1    0    0    0  501 -0.00000000000E+00  0.00000000000E+00  0.15067710573E+04  0.15067715925E+04  0.12700000000E+01 0. -1.
          4   -1    0    0  501    0  0.00000000000E+00 -0.00000000000E+00 -0.24986698113E+02  0.25018952468E+02  0.12700000000E+01 0. -1.
    8880022    1    1    2    0    0  0.99418628331E+02 -0.61930151715E+02  0.83454289736E+03  0.85648870856E+03  0.15294330000E+03 0.  0.
    8880022    1    1    2    0    0 -0.99418628331E+02  0.61930151715E+02  0.64724146183E+03  0.67530183643E+03  0.15294330000E+03 0.  0.
<mgrwt>
<rscale>  0 0.19264231E+03</rscale>
<asrwt>0</asrwt>
<pdfrwt beam="1">  1        4 0.38466287E-02 0.19264231E+03</pdfrwt>
<pdfrwt beam="2">  1       -4 0.23181351E+00 0.19264231E+03</pdfrwt>
<totfact> 0.59896369E+01</totfact>
</mgrwt>
</event>
<event>
 4    1  0.8653772E-009  0.1616270E+03  0.7818608E-02  0.1186872E+00
         -4   -1    0    0    0  501 -0.00000000000E+00  0.00000000000E+00  0.25336686941E+03  0.25337005233E+03  0.12700000000E+01 0.  1.
          4   -1    0    0  501    0  0.00000000000E+00 -0.00000000000E+00 -0.24530726779E+03  0.24531055528E+03  0.12700000000E+01 0.  1.
    8880022    1    1    2    0    0  0.78324499902E+01 -0.51674834357E+02 -0.18581348450E+03  0.24627208493E+03  0.15294330000E+03 0.  0.
    8880022    1    1    2    0    0 -0.78324499902E+01  0.51674834357E+02  0.19387308613E+03  0.25240852267E+03  0.15294330000E+03 0.  0.
<mgrwt>
<rscale>  0 0.16162701E+03</rscale>
<asrwt>0</asrwt>
<pdfrwt beam="1">  1        4 0.37740077E-01 0.16162701E+03</pdfrwt>
<pdfrwt beam="2">  1       -4 0.38980016E-01 0.16162701E+03</pdfrwt>
<totfact> 0.75361019E+01</totfact>
</mgrwt>
</event>
<event>
 4    1  0.8653772E-009  0.1662325E+03  0.7818608E-02  0.1181835E+00
          4   -1    0    0  501    0  0.00000000000E+00  0.00000000000E+00  0.13056666006E+03  0.13057283645E+03  0.12700000000E+01 0.  1.
         -4   -1    0    0    0  501 -0.00000000000E+00 -0.00000000000E+00 -0.25031507878E+03  0.25031830050E+03  0.12700000000E+01 0.  1.
    8880022    1    1    2    0    0  0.52803663780E+02  0.38122891584E+02 -0.13474345139E+03  0.21398372013E+03  0.15294330000E+03 0.  0.
    8880022    1    1    2    0    0 -0.52803663780E+02 -0.38122891584E+02  0.14995032675E+02  0.16690741682E+03  0.15294330000E+03 0.  0.
<mgrwt>
<rscale>  0 0.16623247E+03</rscale>
<asrwt>0</asrwt>
<pdfrwt beam="1">  1        4 0.20087901E-01 0.16623247E+03</pdfrwt>
<pdfrwt beam="2">  1       -4 0.38510735E-01 0.16623247E+03</pdfrwt>
<totfact> 0.25335454E+02</totfact>
</mgrwt>
</event>
<event>
 4    1  0.8653772E-009  0.2307414E+03  0.7818608E-02  0.1126119E+00
          4   -1    0    0  501    0  0.00000000000E+00  0.00000000000E+00  0.89593553035E+03  0.89593643047E+03  0.12700000000E+01 0. -1.
         -4   -1    0    0    0  501 -0.00000000000E+00 -0.00000000000E+00 -0.59473783263E+02  0.59487341473E+02  0.12700000000E+01 0. -1.
    8880022    1    1    2    0    0 -0.26518769072E+02  0.17072401273E+03  0.40359888566E+03  0.46490176076E+03  0.15294330000E+03 0.  1.
    8880022    1    1    2    0    0  0.26518769072E+02 -0.17072401273E+03  0.43286286143E+03  0.49052201118E+03  0.15294330000E+03 0.  1.
<mgrwt>
<rscale>  0 0.23074138E+03</rscale>
<asrwt>0</asrwt>
<pdfrwt beam="1">  1        4 0.13783735E+00 0.23074138E+03</pdfrwt>
<pdfrwt beam="2">  1       -4 0.91509249E-02 0.23074138E+03</pdfrwt>
<totfact> 0.62737621E+01</totfact>
</mgrwt>
</event>
<event>
 4    1  0.8653772E-009  0.1878733E+03  0.7818608E-02  0.1160394E+00
          4   -1    0    0  501    0  0.00000000000E+00  0.00000000000E+00  0.32267705863E+02  0.32292688672E+02  0.12700000000E+01 0.  1.
         -4   -1    0    0    0  501 -0.00000000000E+00 -0.00000000000E+00 -0.10961903487E+04  0.10961910843E+04  0.12700000000E+01 0.  1.
    8880022    1    1    2    0    0  0.32909296861E+02  0.10402735198E+03 -0.56036872083E+03  0.59102408417E+03  0.15294330000E+03 0. -1.
    8880022    1    1    2    0    0 -0.32909296861E+02 -0.10402735198E+03 -0.50355392197E+03  0.53745968884E+03  0.15294330000E+03 0. -1.
<mgrwt>
<rscale>  0 0.18787327E+03</rscale>
<asrwt>0</asrwt>
<pdfrwt beam="1">  1        4 0.49662416E-02 0.18787327E+03</pdfrwt>
<pdfrwt beam="2">  1       -4 0.16864662E+00 0.18787327E+03</pdfrwt>
<totfact> 0.99491277E+01</totfact>
</mgrwt>
</event>
<event>
 4    1  0.8653772E-009  0.2161192E+03  0.7818608E-02  0.1136810E+00
          4   -1    0    0  501    0  0.00000000000E+00  0.00000000000E+00  0.70520368753E+03  0.70520483110E+03  0.12700000000E+01 0. -1.
         -4   -1    0    0    0  501 -0.00000000000E+00 -0.00000000000E+00 -0.66230827816E+02  0.66243003050E+02  0.12700000000E+01 0. -1.
    8880022    1    1    2    0    0  0.89078387825E+02 -0.12401979012E+03  0.31598877846E+03  0.38282689123E+03  0.15294330000E+03 0.  0.
    8880022    1    1    2    0    0 -0.89078387825E+02  0.12401979012E+03  0.32298408125E+03  0.38862094292E+03  0.15294330000E+03 0.  0.
<mgrwt>
<rscale>  0 0.21611923E+03</rscale>
<asrwt>0</asrwt>
<pdfrwt beam="1">  1        4 0.10849390E+00 0.21611923E+03</pdfrwt>
<pdfrwt beam="2">  1       -4 0.10190382E-01 0.21611923E+03</pdfrwt>
<totfact> 0.93103861E+01</totfact>
</mgrwt>
</event>
<event>
 4    1  0.8653772E-009  0.2062953E+03  0.7818608E-02  0.1144534E+00
         -4   -1    0    0    0  501 -0.00000000000E+00  0.00000000000E+00  0.11250465635E+03  0.11251182427E+03  0.12700000000E+01 0.  1.
          4   -1    0    0  501    0  0.00000000000E+00 -0.00000000000E+00 -0.38514160305E+03  0.38514369694E+03  0.12700000000E+01 0.  1.
    8880022    1    1    2    0    0  0.10249466095E+03 -0.93064175471E+02 -0.10304633362E+03  0.23059986159E+03  0.15294330000E+03 0.  0.
    8880022    1    1    2    0    0 -0.10249466095E+03  0.93064175471E+02 -0.16959061308E+03  0.26705565962E+03  0.15294330000E+03 0.  0.
<mgrwt>
<rscale>  0 0.20629530E+03</rscale>
<asrwt>0</asrwt>
<pdfrwt beam="1">  1        4 0.59253266E-01 0.20629530E+03</pdfrwt>
<pdfrwt beam="2">  1       -4 0.17309121E-01 0.20629530E+03</pdfrwt>
<totfact> 0.14226756E+02</totfact>
</mgrwt>
</event>
<event>
 4    1  0.8653772E-009  0.1662538E+03  0.7818608E-02  0.1181812E+00
          4   -1    0    0  501    0  0.00000000000E+00  0.00000000000E+00  0.21182213526E+03  0.21182594243E+03  0.12700000000E+01 0.  1.
         -4   -1    0    0    0  501 -0.00000000000E+00 -0.00000000000E+00 -0.13395286128E+03  0.13395888154E+03  0.12700000000E+01 0.  1.
    8880022    1    1    2    0    0 -0.30354016571E+01 -0.65111092144E+02  0.66770844682E+02  0.17916100775E+03  0.15294330000E+03 0.  0.
    8880022    1    1    2    0    0  0.30354016571E+01  0.65111092144E+02  0.11098429300E+02  0.16662381622E+03  0.15294330000E+03 0.  0.
<mgrwt>
<rscale>  0 0.16625378E+03</rscale>
<asrwt>0</asrwt>
<pdfrwt beam="1">  1        4 0.32588777E-01 0.16625378E+03</pdfrwt>
<pdfrwt beam="2">  1       -4 0.20608888E-01 0.16625378E+03</pdfrwt>
<totfact> 0.33450300E+02</totfact>
</mgrwt>
</event>
<event>
 4    1  0.8653772E-009  0.1760418E+03  0.7818608E-02  0.1171690E+00
          4   -1    0    0  501    0  0.00000000000E+00  0.00000000000E+00  0.19465467344E+03  0.19465881637E+03  0.12700000000E+01 0.  1.
         -4   -1    0    0    0  501 -0.00000000000E+00 -0.00000000000E+00 -0.15929836827E+03  0.15930343070E+03  0.12700000000E+01 0.  1.
    8880022    1    1    2    0    0  0.21358650492E+02  0.84515581142E+02  0.13288983852E+02  0.17654270167E+03  0.15294330000E+03 0.  0.
    8880022    1    1    2    0    0 -0.21358650492E+02 -0.84515581142E+02  0.22067321314E+02  0.17741954540E+03  0.15294330000E+03 0.  0.
<mgrwt>
<rscale>  0 0.17604184E+03</rscale>
<asrwt>0</asrwt>
<pdfrwt beam="1">  1        4 0.29947581E-01 0.17604184E+03</pdfrwt>
<pdfrwt beam="2">  1       -4 0.24508149E-01 0.17604184E+03</pdfrwt>
<totfact> 0.28891021E+02</totfact>
</mgrwt>
</event>
<event>
 4    1  0.8653772E-009  0.2162188E+03  0.7818608E-02  0.1136734E+00
         -4   -1    0    0    0  501 -0.00000000000E+00  0.00000000000E+00  0.12934488970E+03  0.12935112443E+03  0.12700000000E+01 0.  1.
          4   -1    0    0  501    0  0.00000000000E+00 -0.00000000000E+00 -0.36297724963E+03  0.36297947139E+03  0.12700000000E+01 0.  1.
    8880022    1    1    2    0    0  0.93930296772E+01  0.15254738984E+03 -0.13291248245E+03  0.25380369611E+03  0.15294330000E+03 0. -1.
    8880022    1    1    2    0    0 -0.93930296772E+01 -0.15254738984E+03 -0.10071987748E+03  0.23852689971E+03  0.15294330000E+03 0. -1.
<mgrwt>
<rscale>  0 0.21621884E+03</rscale>
<asrwt>0</asrwt>
<pdfrwt beam="1">  1        4 0.55843304E-01 0.21621884E+03</pdfrwt>
<pdfrwt beam="2">  1       -4 0.19899864E-01 0.21621884E+03</pdfrwt>
<totfact> 0.12618564E+02</totfact>
</mgrwt>
</event>
<event>
 4    1  0.8653772E-009  0.1697489E+03  0.7818608E-02  0.1178110E+00
          4   -1    0    0  501    0  0.00000000000E+00  0.00000000000E+00  0.65778077295E+03  0.65778199897E+03  0.12700000000E+01 0. -1.
         -4   -1    0    0    0  501 -0.00000000000E+00 -0.00000000000E+00 -0.12556143764E+03  0.12556786023E+03  0.12700000000E+01 0. -1.
    8880022    1    1    2    0    0  0.29101948392E+02  0.67647081059E+02  0.58216297682E+03  0.60640616386E+03  0.15294330000E+03 0.  0.
    8880022    1    1    2    0    0 -0.29101948392E+02 -0.67647081059E+02 -0.49943641514E+02  0.17694369533E+03  0.15294330000E+03 0.  0.
<mgrwt>
<rscale>  0 0.16974894E+03</rscale>
<asrwt>0</asrwt>
<pdfrwt beam="1">  1        4 0.10119763E+00 0.16974894E+03</pdfrwt>
<pdfrwt beam="2">  1       -4 0.19317733E-01 0.16974894E+03</pdfrwt>
<totfact> 0.34793459E+01</totfact>
</mgrwt>
</event>
<event>
 4    1  0.8653772E-009  0.3166316E+03  0.7818608E-02  0.1077210E+00
         -4   -1    0    0    0  501 -0.00000000000E+00  0.00000000000E+00  0.38527467647E+03  0.38527676965E+03  0.12700000000E+01 0. -1.
          4   -1    0    0  501    0  0.00000000000E+00 -0.00000000000E+00 -0.36043601883E+03  0.36043825625E+03  0.12700000000E+01 0. -1.
    8880022    1    1    2    0    0  0.23359074236E+03  0.14932939988E+03 -0.18419149132E+03  0.36630869915E+03  0.15294330000E+03 0.  0.
    8880022    1    1    2    0    0 -0.23359074236E+03 -0.14932939988E+03  0.20903014896E+03  0.37940632675E+03  0.15294330000E+03 0.  0.
<mgrwt>
<rscale>  0 0.31663158E+03</rscale>
<asrwt>0</asrwt>
<pdfrwt beam="1">  1        4 0.55452029E-01 0.31663158E+03</pdfrwt>
<pdfrwt beam="2">  1       -4 0.59273360E-01 0.31663158E+03</pdfrwt>
<totfact> 0.15740516E+01</totfact>
</mgrwt>
</event>
<event>
 4    1  0.8653772E-009  0.1607583E+03  0.7818608E-02  0.1187843E+00
          4   -1    0    0  501    0  0.00000000000E+00  0.00000000000E+00  0.56316830411E+02  0.56331148466E+02  0.12700000000E+01 0. -1.
         -4   -1    0    0    0  501 -0.00000000000E+00 -0.00000000000E+00 -0.69163687708E+03  0.69163804309E+03  0.12700000000E+01 0. -1.
    8880022    1    1    2    0    0  0.11925473079E+02  0.48055669204E+02 -0.53464038152E+03  0.55828626601E+03  0.15294330000E+03 0.  0.
    8880022    1    1    2    0    0 -0.11925473079E+02 -0.48055669204E+02 -0.10067966515E+03  0.18968292554E+03  0.15294330000E+03 0.  0.
<mgrwt>
<rscale>  0 0.16075826E+03</rscale>
<asrwt>0</asrwt>
<pdfrwt beam="1">  1        4 0.86653194E-02 0.16075826E+03</pdfrwt>
<pdfrwt beam="2">  1       -4 0.10640686E+00 0.16075826E+03</pdfrwt>
<totfact> 0.12304034E+02</totfact>
</mgrwt>
</event>
<event>
 4    1  0.8653772E-009  0.2459152E+03  0.7818608E-02  0.1115914E+00
         -4   -1    0    0    0  501 -0.00000000000E+00  0.00000000000E+00  0.33715737293E+03  0.33715976483E+03  0.12700000000E+01 0. -1.
          4   -1    0    0  501    0  0.00000000000E+00 -0.00000000000E+00 -0.22201770626E+03  0.22202133860E+03  0.12700000000E+01 0. -1.
    8880022    1    1    2    0    0 -0.18262985623E+03  0.61065197528E+02 -0.64982580343E+02  0.25435607227E+03  0.15294330000E+03 0.  1.
    8880022    1    1    2    0    0  0.18262985623E+03 -0.61065197528E+02  0.18012224701E+03  0.30482503116E+03  0.15294330000E+03 0.  1.
<mgrwt>
<rscale>  0 0.24591518E+03</rscale>
<asrwt>0</asrwt>
<pdfrwt beam="1">  1        4 0.34157034E-01 0.24591518E+03</pdfrwt>
<pdfrwt beam="2">  1       -4 0.51870828E-01 0.24591518E+03</pdfrwt>
<totfact> 0.54229043E+01</totfact>
</mgrwt>
</event>
<event>
 4    1  0.8653772E-009  0.1581941E+03  0.7818608E-02  0.1190751E+00
          4   -1    0    0  501    0  0.00000000000E+00  0.00000000000E+00  0.33594933705E+03  0.33595173755E+03  0.12700000000E+01 0.  1.
         -4   -1    0    0    0  501 -0.00000000000E+00 -0.00000000000E+00 -0.98797306652E+02  0.98805468987E+02  0.12700000000E+01 0.  1.
    8880022    1    1    2    0    0 -0.40067277142E+02  0.53225495582E+01  0.10744598116E+02  0.15855855586E+03  0.15294330000E+03 0.  0.
    8880022    1    1    2    0    0  0.40067277142E+02 -0.53225495582E+01  0.22640743228E+03  0.27619865068E+03  0.15294330000E+03 0.  0.
<mgrwt>
<rscale>  0 0.15819409E+03</rscale>
<asrwt>0</asrwt>
<pdfrwt beam="1">  1        4 0.51685325E-01 0.15819409E+03</pdfrwt>
<pdfrwt beam="2">  1       -4 0.15200398E-01 0.15819409E+03</pdfrwt>
<totfact> 0.22856468E+02</totfact>
</mgrwt>
</event>
<event>
 4    1  0.8653772E-009  0.1786156E+03  0.7818608E-02  0.1169150E+00
          4   -1    0    0  501    0  0.00000000000E+00  0.00000000000E+00  0.13298477799E+03  0.13299084208E+03  0.12700000000E+01 0. -1.
         -4   -1    0    0    0  501 -0.00000000000E+00 -0.00000000000E+00 -0.15975230062E+04  0.15975235110E+04  0.12700000000E+01 0.  1.
    8880022    1    1    2    0    0  0.77881635793E+02 -0.49460377833E+02  0.65379637129E+02  0.19020522636E+03  0.15294330000E+03 0.  0.
    8880022    1    1    2    0    0 -0.77881635793E+02  0.49460377833E+02 -0.15299178653E+04  0.15403091267E+04  0.15294330000E+03 0.  0.
<mgrwt>
<rscale>  0 0.17861560E+03</rscale>
<asrwt>0</asrwt>
<pdfrwt beam="1">  1        4 0.20459703E-01 0.17861560E+03</pdfrwt>
<pdfrwt beam="2">  1       -4 0.24577326E+00 0.17861560E+03</pdfrwt>
<totfact> 0.29326300E+00</totfact>
</mgrwt>
</event>
<event>
 4    1  0.8653772E-009  0.2215914E+03  0.7818608E-02  0.1132702E+00
          4   -1    0    0  501    0  0.00000000000E+00  0.00000000000E+00  0.28036851771E+03  0.28037139408E+03  0.12700000000E+01 0. -1.
         -4   -1    0    0    0  501 -0.00000000000E+00 -0.00000000000E+00 -0.23464692962E+03  0.23465036646E+03  0.12700000000E+01 0. -1.
    8880022    1    1    2    0    0 -0.14749907523E+03 -0.62889767154E+02  0.15254902969E+03  0.26902408718E+03  0.15294330000E+03 0.  0.
    8880022    1    1    2    0    0  0.14749907523E+03  0.62889767154E+02 -0.10682744160E+03  0.24599767336E+03  0.15294330000E+03 0.  0.
<mgrwt>
<rscale>  0 0.22159141E+03</rscale>
<asrwt>0</asrwt>
<pdfrwt beam="1">  1        4 0.43134104E-01 0.22159141E+03</pdfrwt>
<pdfrwt beam="2">  1       -4 0.36100013E-01 0.22159141E+03</pdfrwt>
<totfact> 0.70075185E+01</totfact>
</mgrwt>
</event>
<event>
 4    1  0.8653772E-009  0.1706938E+03  0.7818608E-02  0.1177126E+00
          4   -1    0    0  501    0  0.00000000000E+00  0.00000000000E+00  0.69604825135E+02  0.69616410293E+02  0.12700000000E+01 0. -1.
         -4   -1    0    0    0  501 -0.00000000000E+00 -0.00000000000E+00 -0.54687422386E+03  0.54687569851E+03  0.12700000000E+01 0. -1.
    8880022    1    1    2    0    0 -0.65590209386E+02 -0.37981997601E+02 -0.38794980382E+03  0.42384125685E+03  0.15294330000E+03 0.  0.
    8880022    1    1    2    0    0  0.65590209386E+02  0.37981997601E+02 -0.89319594899E+02  0.19265085195E+03  0.15294330000E+03 0.  0.
<mgrwt>
<rscale>  0 0.17069376E+03</rscale>
<asrwt>0</asrwt>
<pdfrwt beam="1">  1        4 0.10709440E-01 0.17069376E+03</pdfrwt>
<pdfrwt beam="2">  1       -4 0.84135498E-01 0.17069376E+03</pdfrwt>
<totfact> 0.14891413E+02</totfact>
</mgrwt>
</event>
<event>
 4    1  0.8653772E-009  0.1631830E+03  0.7818608E-02  0.1185149E+00
         -4   -1    0    0    0  501 -0.00000000000E+00  0.00000000000E+00  0.11459327048E+03  0.11460030776E+03  0.12700000000E+01 0.  1.
          4   -1    0    0  501    0  0.00000000000E+00 -0.00000000000E+00 -0.50516346965E+03  0.50516506606E+03  0.12700000000E+01 0.  1.
    8880022    1    1    2    0    0  0.41526475713E+02  0.38891892712E+02 -0.42300575029E+03  0.45339005867E+03  0.15294330000E+03 0.  0.
    8880022    1    1    2    0    0 -0.41526475713E+02 -0.38891892712E+02  0.32435551120E+02  0.16637531516E+03  0.15294330000E+03 0.  0.
<mgrwt>
<rscale>  0 0.16318297E+03</rscale>
<asrwt>0</asrwt>
<pdfrwt beam="1">  1        4 0.77718119E-01 0.16318297E+03</pdfrwt>
<pdfrwt beam="2">  1       -4 0.17630398E-01 0.16318297E+03</pdfrwt>
<totfact> 0.74151426E+01</totfact>
</mgrwt>
</event>
<event>
 4    1  0.8653772E-009  0.2005754E+03  0.7818608E-02  0.1149254E+00
         -4   -1    0    0    0  501 -0.00000000000E+00  0.00000000000E+00  0.89221312872E+02  0.89230351174E+02  0.12700000000E+01 0. -1.
          4   -1    0    0  501    0  0.00000000000E+00 -0.00000000000E+00 -0.70157721365E+03  0.70157836314E+03  0.12700000000E+01 0. -1.
    8880022    1    1    2    0    0  0.42174643721E+02  0.12271976725E+03 -0.54254144559E+03  0.57843038911E+03  0.15294330000E+03 0.  0.
    8880022    1    1    2    0    0 -0.42174643721E+02 -0.12271976725E+03 -0.69814455193E+02  0.21237832520E+03  0.15294330000E+03 0.  0.
<mgrwt>
<rscale>  0 0.20057541E+03</rscale>
<asrwt>0</asrwt>
<pdfrwt beam="1">  1        4 0.10793574E+00 0.20057541E+03</pdfrwt>
<pdfrwt beam="2">  1       -4 0.13727140E-01 0.20057541E+03</pdfrwt>
<totfact> 0.55884813E+01</totfact>
</mgrwt>
</event>
<event>
 4    1  0.8653772E-009  0.1608842E+03  0.7818608E-02  0.1187702E+00
         -4   -1    0    0    0  501 -0.00000000000E+00  0.00000000000E+00  0.64904176829E+02  0.64916600881E+02  0.12700000000E+01 0.  1.
          4   -1    0    0  501    0  0.00000000000E+00 -0.00000000000E+00 -0.50995107990E+03  0.50995266132E+03  0.12700000000E+01 0.  1.
    8880022    1    1    2    0    0 -0.46812605432E+02 -0.17339565588E+02 -0.35674677073E+03  0.39134638366E+03  0.15294330000E+03 0.  0.
    8880022    1    1    2    0    0  0.46812605432E+02  0.17339565588E+02 -0.88300132335E+02  0.18352287854E+03  0.15294330000E+03 0.  0.
<mgrwt>
<rscale>  0 0.16088422E+03</rscale>
<asrwt>0</asrwt>
<pdfrwt beam="1">  1        4 0.78455087E-01 0.16088422E+03</pdfrwt>
<pdfrwt beam="2">  1       -4 0.99863357E-02 0.16088422E+03</pdfrwt>
<totfact> 0.19412716E+02</totfact>
</mgrwt>
</event>
<event>
 4    1  0.8653772E-009  0.1561698E+03  0.7818608E-02  0.1193090E+00
         -4   -1    0    0    0  501 -0.00000000000E+00  0.00000000000E+00  0.35339615291E+03  0.35339843490E+03  0.12700000000E+01 0.  1.
          4   -1    0    0  501    0  0.00000000000E+00 -0.00000000000E+00 -0.72847464110E+02  0.72858533661E+02  0.12700000000E+01 0.  1.
    8880022    1    1    2    0    0 -0.19177264635E+01  0.31522400532E+02  0.18921929962E+03  0.24534248668E+03  0.15294330000E+03 0. -1.
    8880022    1    1    2    0    0  0.19177264635E+01 -0.31522400532E+02  0.91329389184E+02  0.18091448188E+03  0.15294330000E+03 0. -1.
<mgrwt>
<rscale>  0 0.15616976E+03</rscale>
<asrwt>0</asrwt>
<pdfrwt beam="1">  1        4 0.11208329E-01 0.15616976E+03</pdfrwt>
<pdfrwt beam="2">  1       -4 0.54369667E-01 0.15616976E+03</pdfrwt>
<totfact> 0.34788719E+02</totfact>
</mgrwt>
</event>
<event>
 4    1  0.8653772E-009  0.1805823E+03  0.7818608E-02  0.1167241E+00
          4   -1    0    0  501    0  0.00000000000E+00  0.00000000000E+00  0.13562251753E+03  0.13562846368E+03  0.12700000000E+01 0.  1.
         -4   -1    0    0    0  501 -0.00000000000E+00 -0.00000000000E+00 -0.27107850834E+03  0.27108148329E+03  0.12700000000E+01 0.  1.
    8880022    1    1    2    0    0 -0.89026044432E+02  0.35953630020E+02  0.64418355206E+00  0.18058341033E+03  0.15294330000E+03 0.  0.
    8880022    1    1    2    0    0  0.89026044432E+02 -0.35953630020E+02 -0.13610017436E+03  0.22612653665E+03  0.15294330000E+03 0.  0.
<mgrwt>
<rscale>  0 0.18058226E+03</rscale>
<asrwt>0</asrwt>
<pdfrwt beam="1">  1        4 0.20865689E-01 0.18058226E+03</pdfrwt>
<pdfrwt beam="2">  1       -4 0.41705072E-01 0.18058226E+03</pdfrwt>
<totfact> 0.20469685E+02</totfact>
</mgrwt>
</event>
<event>
 4    1  0.8653772E-009  0.1811878E+03  0.7818608E-02  0.1166658E+00
         -4   -1    0    0    0  501 -0.00000000000E+00  0.00000000000E+00  0.26195401747E+03  0.26195709605E+03  0.12700000000E+01 0.  1.
          4   -1    0    0  501    0  0.00000000000E+00 -0.00000000000E+00 -0.12536160917E+03  0.12536804199E+03  0.12700000000E+01 0.  1.
    8880022    1    1    2    0    0  0.71716746165E+02 -0.65529183837E+02  0.71967243616E+02  0.19495718192E+03  0.15294330000E+03 0. -1.
    8880022    1    1    2    0    0 -0.71716746165E+02  0.65529183837E+02  0.64625164685E+02  0.19236795612E+03  0.15294330000E+03 0. -1.
<mgrwt>
<rscale>  0 0.18118780E+03</rscale>
<asrwt>0</asrwt>
<pdfrwt beam="1">  1        4 0.19287133E-01 0.18118780E+03</pdfrwt>
<pdfrwt beam="2">  1       -4 0.40301350E-01 0.18118780E+03</pdfrwt>
<totfact> 0.25277501E+02</totfact>
</mgrwt>
</event>
<event>
 4    1  0.8653772E-009  0.2008591E+03  0.7818608E-02  0.1149016E+00
         -4   -1    0    0    0  501 -0.00000000000E+00  0.00000000000E+00  0.15963569464E+04  0.15963574516E+04  0.12700000000E+01 0.  1.
          4   -1    0    0  501    0  0.00000000000E+00 -0.00000000000E+00 -0.32697980811E+02  0.32722635118E+02  0.12700000000E+01 0.  1.
    8880022    1    1    2    0    0 -0.10826678154E+03  0.72325849271E+02  0.39341452273E+03  0.44172317595E+03  0.15294330000E+03 0.  0.
    8880022    1    1    2    0    0  0.10826678154E+03 -0.72325849271E+02  0.11702444428E+04  0.11873569107E+04  0.15294330000E+03 0.  0.
<mgrwt>
<rscale>  0 0.20085910E+03</rscale>
<asrwt>0</asrwt>
<pdfrwt beam="1">  1        4 0.50323947E-02 0.20085910E+03</pdfrwt>
<pdfrwt beam="2">  1       -4 0.24559527E+00 0.20085910E+03</pdfrwt>
<totfact> 0.32348442E+01</totfact>
</mgrwt>
</event>
<event>
 4    1  0.8653772E-009  0.2336026E+03  0.7818608E-02  0.1124129E+00
          4   -1    0    0  501    0  0.00000000000E+00  0.00000000000E+00  0.35424503970E+03  0.35424731623E+03  0.12700000000E+01 0. -1.
         -4   -1    0    0    0  501 -0.00000000000E+00 -0.00000000000E+00 -0.15911627915E+03  0.15912134738E+03  0.12700000000E+01 0. -1.
    8880022    1    1    2    0    0  0.79316664520E+02  0.15775740445E+03  0.14340600322E+03  0.27410849440E+03  0.15294330000E+03 0.  0.
    8880022    1    1    2    0    0 -0.79316664520E+02 -0.15775740445E+03  0.51722757334E+02  0.23926016921E+03  0.15294330000E+03 0.  0.
<mgrwt>
<rscale>  0 0.23360262E+03</rscale>
<asrwt>0</asrwt>
<pdfrwt beam="1">  1        4 0.54499801E-01 0.23360262E+03</pdfrwt>
<pdfrwt beam="2">  1       -4 0.24479993E-01 0.23360262E+03</pdfrwt>
<totfact> 0.91671001E+01</totfact>
</mgrwt>
</event>
<event>
 4    1  0.8653772E-009  0.2309248E+03  0.7818608E-02  0.1125991E+00
         -4   -1    0    0    0  501 -0.00000000000E+00  0.00000000000E+00  0.77123075566E+02  0.77133531520E+02  0.12700000000E+01 0.  1.
          4   -1    0    0  501    0  0.00000000000E+00 -0.00000000000E+00 -0.69227441295E+03  0.69227557787E+03  0.12700000000E+01 0.  1.
    8880022    1    1    2    0    0 -0.10175863834E+03 -0.13992776420E+03 -0.32135984346E+03  0.39572515927E+03  0.15294330000E+03 0.  0.
    8880022    1    1    2    0    0  0.10175863834E+03  0.13992776420E+03 -0.29379149392E+03  0.37368395013E+03  0.15294330000E+03 0.  0.
<mgrwt>
<rscale>  0 0.23092478E+03</rscale>
<asrwt>0</asrwt>
<pdfrwt beam="1">  1        4 0.10650465E+00 0.23092478E+03</pdfrwt>
<pdfrwt beam="2">  1       -4 0.11865983E-01 0.23092478E+03</pdfrwt>
<totfact> 0.75556601E+01</totfact>
</mgrwt>
</event>
<event>
 4    1  0.8653772E-009  0.1618070E+03  0.7818608E-02  0.1186672E+00
         -4   -1    0    0    0  501 -0.00000000000E+00  0.00000000000E+00  0.55721978013E+02  0.55736448880E+02  0.12700000000E+01 0. -1.
          4   -1    0    0  501    0  0.00000000000E+00 -0.00000000000E+00 -0.47366144569E+03  0.47366314828E+03  0.12700000000E+01 0. -1.
    8880022    1    1    2    0    0  0.49728353405E+02  0.17803134845E+02 -0.18501901572E+03  0.24579167995E+03  0.15294330000E+03 0.  1.
    8880022    1    1    2    0    0 -0.49728353405E+02 -0.17803134845E+02 -0.23292045196E+03  0.28360791720E+03  0.15294330000E+03 0.  1.
<mgrwt>
<rscale>  0 0.16180703E+03</rscale>
<asrwt>0</asrwt>
<pdfrwt beam="1">  1        4 0.72872233E-01 0.16180703E+03</pdfrwt>
<pdfrwt beam="2">  1       -4 0.85738564E-02 0.16180703E+03</pdfrwt>
<totfact> 0.29527364E+02</totfact>
</mgrwt>
</event>
<event>
 4    1  0.8653772E-009  0.1620597E+03  0.7818608E-02  0.1186391E+00
         -4   -1    0    0    0  501 -0.00000000000E+00  0.00000000000E+00  0.22364707768E+03  0.22365068356E+03  0.12700000000E+01 0. -1.
          4   -1    0    0  501    0  0.00000000000E+00 -0.00000000000E+00 -0.11743591680E+03  0.11744278374E+03  0.12700000000E+01 0. -1.
    8880022    1    1    2    0    0 -0.52427973856E+02  0.11090873935E+02  0.54813041368E+02  0.17107841023E+03  0.15294330000E+03 0. -1.
    8880022    1    1    2    0    0  0.52427973856E+02 -0.11090873935E+02  0.51398119519E+02  0.17001505708E+03  0.15294330000E+03 0. -1.
<mgrwt>
<rscale>  0 0.16205972E+03</rscale>
<asrwt>0</asrwt>
<pdfrwt beam="1">  1        4 0.18067870E-01 0.16205972E+03</pdfrwt>
<pdfrwt beam="2">  1       -4 0.34408048E-01 0.16205972E+03</pdfrwt>
<totfact> 0.38009479E+02</totfact>
</mgrwt>
</event>
<event>
 4    1  0.8653772E-009  0.1580527E+03  0.7818608E-02  0.1190913E+00
          4   -1    0    0  501    0  0.00000000000E+00  0.00000000000E+00  0.17197652389E+03  0.17198121313E+03  0.12700000000E+01 0. -1.
         -4   -1    0    0    0  501 -0.00000000000E+00 -0.00000000000E+00 -0.14815498910E+03  0.14816043229E+03  0.12700000000E+01 0. -1.
    8880022    1    1    2    0    0 -0.19034534091E+02 -0.35024186038E+02  0.34336787367E+02  0.16173952849E+03  0.15294330000E+03 0. -1.
    8880022    1    1    2    0    0  0.19034534091E+02  0.35024186038E+02 -0.10515252579E+02  0.15840211693E+03  0.15294330000E+03 0. -1.
<mgrwt>
<rscale>  0 0.15805271E+03</rscale>
<asrwt>0</asrwt>
<pdfrwt beam="1">  1        4 0.26458706E-01 0.15805271E+03</pdfrwt>
<pdfrwt beam="2">  1       -4 0.22793855E-01 0.15805271E+03</pdfrwt>
<totfact> 0.40930813E+02</totfact>
</mgrwt>
</event>
<event>
 4    1  0.8653772E-009  0.3039590E+03  0.7818608E-02  0.1083278E+00
          4   -1    0    0  501    0  0.00000000000E+00  0.00000000000E+00  0.27652766815E+03  0.27653058448E+03  0.12700000000E+01 0.  1.
         -4   -1    0    0    0  501 -0.00000000000E+00 -0.00000000000E+00 -0.38535606129E+03  0.38535815403E+03  0.12700000000E+01 0.  1.
    8880022    1    1    2    0    0 -0.26024048002E+03 -0.35697295182E+02 -0.17510385751E+03  0.35078828124E+03  0.15294330000E+03 0.  0.
    8880022    1    1    2    0    0  0.26024048002E+03  0.35697295182E+02  0.66275464366E+02  0.31110045727E+03  0.15294330000E+03 0.  0.
<mgrwt>
<rscale>  0 0.30395897E+03</rscale>
<asrwt>0</asrwt>
<pdfrwt beam="1">  1        4 0.42543104E-01 0.30395897E+03</pdfrwt>
<pdfrwt beam="2">  1       -4 0.59285933E-01 0.30395897E+03</pdfrwt>
<totfact> 0.27075689E+01</totfact>
</mgrwt>
</event>
<event>
 4    1  0.8653772E-009  0.3368684E+03  0.7818608E-02  0.1068138E+00
         -4   -1    0    0    0  501 -0.00000000000E+00  0.00000000000E+00  0.46154052289E+03  0.46154227019E+03  0.12700000000E+01 0.  1.
          4   -1    0    0  501    0  0.00000000000E+00 -0.00000000000E+00 -0.39523745927E+03  0.39523949969E+03  0.12700000000E+01 0.  1.
    8880022    1    1    2    0    0 -0.27885890139E+03  0.11102415655E+03  0.29650445531E+03  0.44877076025E+03  0.15294330000E+03 0.  0.
    8880022    1    1    2    0    0  0.27885890139E+03 -0.11102415655E+03 -0.23020139169E+03  0.40801100962E+03  0.15294330000E+03 0.  0.
<mgrwt>
<rscale>  0 0.33686838E+03</rscale>
<asrwt>0</asrwt>
<pdfrwt beam="1">  1        4 0.60806054E-01 0.33686838E+03</pdfrwt>
<pdfrwt beam="2">  1       -4 0.71006525E-01 0.33686838E+03</pdfrwt>
<totfact> 0.87891581E+00</totfact>
</mgrwt>
</event>
<event>
 4    1  0.8653772E-009  0.1807170E+03  0.7818608E-02  0.1167111E+00
          4   -1    0    0  501    0  0.00000000000E+00  0.00000000000E+00  0.15612667361E+04  0.15612672526E+04  0.12700000000E+01 0.  1.
         -4   -1    0    0    0  501 -0.00000000000E+00 -0.00000000000E+00 -0.21803279049E+02  0.21840235284E+02  0.12700000000E+01 0.  1.
    8880022    1    1    2    0    0 -0.96261684217E+02 -0.81576433522E+00  0.60860296407E+03  0.63486707129E+03  0.15294330000E+03 0. -1.
    8880022    1    1    2    0    0  0.96261684217E+02  0.81576433522E+00  0.93086049297E+03  0.94824041661E+03  0.15294330000E+03 0. -1.
<mgrwt>
<rscale>  0 0.18071699E+03</rscale>
<asrwt>0</asrwt>
<pdfrwt beam="1">  1        4 0.24019772E+00 0.18071699E+03</pdfrwt>
<pdfrwt beam="2">  1       -4 0.33572338E-02 0.18071699E+03</pdfrwt>
<totfact> 0.65896969E+01</totfact>
</mgrwt>
</event>
<event>
 4    1  0.8653772E-009  0.3362053E+03  0.7818608E-02  0.1068424E+00
          4   -1    0    0  501    0  0.00000000000E+00  0.00000000000E+00  0.19114802978E+03  0.19115224872E+03  0.12700000000E+01 0. -1.
         -4   -1    0    0    0  501 -0.00000000000E+00 -0.00000000000E+00 -0.59712389122E+03  0.59712524177E+03  0.12700000000E+01 0. -1.
    8880022    1    1    2    0    0 -0.80040459044E+02  0.28850632116E+03 -0.24180705780E+03  0.41413123361E+03  0.15294330000E+03 0.  0.
    8880022    1    1    2    0    0  0.80040459044E+02 -0.28850632116E+03 -0.16416880364E+03  0.37414625688E+03  0.15294330000E+03 0.  0.
<mgrwt>
<rscale>  0 0.33620533E+03</rscale>
<asrwt>0</asrwt>
<pdfrwt beam="1">  1        4 0.29407818E-01 0.33620533E+03</pdfrwt>
<pdfrwt beam="2">  1       -4 0.91865642E-01 0.33620533E+03</pdfrwt>
<totfact> 0.21361261E+01</totfact>
</mgrwt>
</event>
<event>
 4    1  0.8653772E-009  0.1605866E+03  0.7818608E-02  0.1188036E+00
          4   -1    0    0  501    0  0.00000000000E+00  0.00000000000E+00  0.92752588625E+03  0.92752675571E+03  0.12700000000E+01 0.  1.
         -4   -1    0    0    0  501 -0.00000000000E+00 -0.00000000000E+00 -0.64940209413E+02  0.64952626572E+02  0.12700000000E+01 0.  1.
    8880022    1    1    2    0    0  0.33571078374E+02  0.35628442762E+02  0.56011697209E+02  0.17007459092E+03  0.15294330000E+03 0.  0.
    8880022    1    1    2    0    0 -0.33571078374E+02 -0.35628442762E+02  0.80657397963E+03  0.82240479137E+03  0.15294330000E+03 0.  0.
<mgrwt>
<rscale>  0 0.16058660E+03</rscale>
<asrwt>0</asrwt>
<pdfrwt beam="1">  1        4 0.14269730E+00 0.16058660E+03</pdfrwt>
<pdfrwt beam="2">  1       -4 0.99918243E-02 0.16058660E+03</pdfrwt>
<totfact> 0.47442313E+01</totfact>
</mgrwt>
</event>
<event>
 4    1  0.8653772E-009  0.1754028E+03  0.7818608E-02  0.1172328E+00
         -4   -1    0    0    0  501 -0.00000000000E+00  0.00000000000E+00  0.13883574328E+04  0.13883580137E+04  0.12700000000E+01 0.  1.
          4   -1    0    0  501    0  0.00000000000E+00 -0.00000000000E+00 -0.10679295425E+03  0.10680050551E+03  0.12700000000E+01 0.  1.
    8880022    1    1    2    0    0  0.83198220456E+02 -0.21272952097E+02  0.13062971290E+04  0.13180206085E+04  0.15294330000E+03 0.  0.
    8880022    1    1    2    0    0 -0.83198220456E+02  0.21272952097E+02 -0.24732650409E+02  0.17713791065E+03  0.15294330000E+03 0.  0.
<mgrwt>
<rscale>  0 0.17540278E+03</rscale>
<asrwt>0</asrwt>
<pdfrwt beam="1">  1        4 0.16430310E-01 0.17540278E+03</pdfrwt>
<pdfrwt beam="2">  1       -4 0.21359409E+00 0.17540278E+03</pdfrwt>
<totfact> 0.67464629E+00</totfact>
</mgrwt>
</event>
<event>
 4    1  0.8653772E-009  0.4014028E+03  0.7818608E-02  0.1043295E+00
          4   -1    0    0  501    0  0.00000000000E+00  0.00000000000E+00  0.45913174391E+02  0.45930735707E+02  0.12700000000E+01 0. -1.
         -4   -1    0    0    0  501 -0.00000000000E+00 -0.00000000000E+00 -0.35086486746E+04  0.35086489044E+04  0.12700000000E+01 0. -1.
    8880022    1    1    2    0    0 -0.26899423947E+03 -0.25568468175E+03 -0.17348204276E+04  0.17806532864E+04  0.15294330000E+03 0.  0.
    8880022    1    1    2    0    0  0.26899423947E+03  0.25568468175E+03 -0.17279150726E+04  0.17739263538E+04  0.15294330000E+03 0.  0.
<mgrwt>
<rscale>  0 0.40140280E+03</rscale>
<asrwt>0</asrwt>
<pdfrwt beam="1">  1        4 0.70649366E-02 0.40140280E+03</pdfrwt>
<pdfrwt beam="2">  1       -4 0.53979326E+00 0.40140280E+03</pdfrwt>
<totfact> 0.18593301E-01</totfact>
</mgrwt>
</event>
<event>
 4    1  0.8653772E-009  0.3606377E+03  0.7818608E-02  0.1058332E+00
         -4   -1    0    0    0  501 -0.00000000000E+00  0.00000000000E+00  0.45880714978E+03  0.45880890749E+03  0.12700000000E+01 0.  1.
          4   -1    0    0  501    0  0.00000000000E+00 -0.00000000000E+00 -0.35688710954E+03  0.35688936921E+03  0.12700000000E+01 0.  1.
    8880022    1    1    2    0    0 -0.28662718409E+03  0.15656557983E+03 -0.13402279769E+03  0.38473586623E+03  0.15294330000E+03 0.  0.
    8880022    1    1    2    0    0  0.28662718409E+03 -0.15656557983E+03  0.23594283793E+03  0.43096241046E+03  0.15294330000E+03 0.  0.
<mgrwt>
<rscale>  0 0.36063774E+03</rscale>
<asrwt>0</asrwt>
<pdfrwt beam="1">  1        4 0.54906019E-01 0.36063774E+03</pdfrwt>
<pdfrwt beam="2">  1       -4 0.70586024E-01 0.36063774E+03</pdfrwt>
<totfact> 0.11109830E+01</totfact>
</mgrwt>
</event>
<event>
 4    1  0.8653772E-009  0.5598695E+03  0.7818608E-02  0.9992350E-01
          4   -1    0    0  501    0  0.00000000000E+00  0.00000000000E+00  0.15111235061E+04  0.15111240398E+04  0.12700000000E+01 0.  1.
         -4   -1    0    0    0  501 -0.00000000000E+00 -0.00000000000E+00 -0.20888821680E+03  0.20889207744E+03  0.12700000000E+01 0.  1.
    8880022    1    1    2    0    0 -0.46588420948E+03  0.27021114583E+03  0.72300988408E+03  0.91443813649E+03  0.15294330000E+03 0.  0.
    8880022    1    1    2    0    0  0.46588420948E+03 -0.27021114583E+03  0.57922540524E+03  0.80557798075E+03  0.15294330000E+03 0.  0.
<mgrwt>
<rscale>  0 0.55986946E+03</rscale>
<asrwt>0</asrwt>
<pdfrwt beam="1">  1        4 0.23248088E+00 0.55986946E+03</pdfrwt>
<pdfrwt beam="2">  1       -4 0.32136986E-01 0.55986946E+03</pdfrwt>
<totfact> 0.15337117E+00</totfact>
</mgrwt>
</event>
<event>
 4    1  0.8653772E-009  0.4209941E+03  0.7818608E-02  0.1036743E+00
         -4   -1    0    0    0  501 -0.00000000000E+00  0.00000000000E+00  0.14287517919E+04  0.14287523563E+04  0.12700000000E+01 0. -1.
          4   -1    0    0  501    0  0.00000000000E+00 -0.00000000000E+00 -0.12676825134E+03  0.12677461279E+03  0.12700000000E+01 0. -1.
    8880022    1    1    2    0    0 -0.16781276063E+03  0.35451836479E+03  0.53701512913E+03  0.68236448877E+03  0.15294330000E+03 0.  0.
    8880022    1    1    2    0    0  0.16781276063E+03 -0.35451836479E+03  0.76496841141E+03  0.87316248034E+03  0.15294330000E+03 0.  0.
<mgrwt>
<rscale>  0 0.42099412E+03</rscale>
<asrwt>0</asrwt>
<pdfrwt beam="1">  1        4 0.19503340E-01 0.42099412E+03</pdfrwt>
<pdfrwt beam="2">  1       -4 0.21980850E+00 0.42099412E+03</pdfrwt>
<totfact> 0.47153869E+00</totfact>
</mgrwt>
</event>
<event>
 4    1  0.8653772E-009  0.1859334E+03  0.7818608E-02  0.1162181E+00
          4   -1    0    0  501    0  0.00000000000E+00  0.00000000000E+00  0.27324661199E+03  0.27324956334E+03  0.12700000000E+01 0.  1.
         -4   -1    0    0    0  501 -0.00000000000E+00 -0.00000000000E+00 -0.18873845575E+03  0.18874272855E+03  0.12700000000E+01 0.  1.
    8880022    1    1    2    0    0 -0.74626615677E+02  0.74902941477E+02 -0.90377668868E+02  0.20673499572E+03  0.15294330000E+03 0.  0.
    8880022    1    1    2    0    0  0.74626615677E+02 -0.74902941477E+02  0.17488582511E+03  0.25525729617E+03  0.15294330000E+03 0.  0.
<mgrwt>
<rscale>  0 0.18593342E+03</rscale>
<asrwt>0</asrwt>
<pdfrwt beam="1">  1        4 0.42038496E-01 0.18593342E+03</pdfrwt>
<pdfrwt beam="2">  1       -4 0.29037241E-01 0.18593342E+03</pdfrwt>
<totfact> 0.10963244E+02</totfact>
</mgrwt>
</event>
<event>
 4    1  0.8653772E-009  0.6059075E+03  0.7818608E-02  0.9893225E-01
          4   -1    0    0  501    0  0.00000000000E+00  0.00000000000E+00  0.61587972638E+03  0.61588103581E+03  0.12700000000E+01 0. -1.
         -4   -1    0    0    0  501 -0.00000000000E+00 -0.00000000000E+00 -0.65001264413E+03  0.65001388479E+03  0.12700000000E+01 0.  1.
    8880022    1    1    2    0    0 -0.50927487074E+03  0.29046743773E+03 -0.19936156132E+03  0.63786276854E+03  0.15294330000E+03 0.  0.
    8880022    1    1    2    0    0  0.50927487074E+03 -0.29046743773E+03  0.16522864358E+03  0.62803215206E+03  0.15294330000E+03 0.  0.
<mgrwt>
<rscale>  0 0.60590748E+03</rscale>
<asrwt>0</asrwt>
<pdfrwt beam="1">  1        4 0.94750924E-01 0.60590748E+03</pdfrwt>
<pdfrwt beam="2">  1       -4 0.10000214E+00 0.60590748E+03</pdfrwt>
<totfact> 0.15147411E+00</totfact>
</mgrwt>
</event>
<event>
 4    1  0.8653772E-009  0.1594352E+03  0.7818608E-02  0.1189336E+00
          4   -1    0    0  501    0  0.00000000000E+00  0.00000000000E+00  0.86056704417E+03  0.86056798128E+03  0.12700000000E+01 0. -1.
         -4   -1    0    0    0  501 -0.00000000000E+00 -0.00000000000E+00 -0.36762077869E+02  0.36784008336E+02  0.12700000000E+01 0. -1.
    8880022    1    1    2    0    0 -0.11349903423E+01  0.45018321923E+02  0.61092676386E+03  0.63138823344E+03  0.15294330000E+03 0.  0.
    8880022    1    1    2    0    0  0.11349903423E+01 -0.45018321923E+02  0.21287820244E+03  0.26596375618E+03  0.15294330000E+03 0.  0.
<mgrwt>
<rscale>  0 0.15943522E+03</rscale>
<asrwt>0</asrwt>
<pdfrwt beam="1">  1        4 0.13239668E+00 0.15943522E+03</pdfrwt>
<pdfrwt beam="2">  1       -4 0.56574637E-02 0.15943522E+03</pdfrwt>
<totfact> 0.14657115E+02</totfact>
</mgrwt>
</event>
<event>
 4    1  0.8653772E-009  0.3672176E+03  0.7818608E-02  0.1055762E+00
          4   -1    0    0  501    0  0.00000000000E+00  0.00000000000E+00  0.76910520478E+03  0.76910625333E+03  0.12700000000E+01 0. -1.
         -4   -1    0    0    0  501 -0.00000000000E+00 -0.00000000000E+00 -0.22245934363E+03  0.22246296876E+03  0.12700000000E+01 0. -1.
    8880022    1    1    2    0    0 -0.33024062372E+03 -0.48972113007E+02  0.50152255120E+03  0.62158962330E+03  0.15294330000E+03 0.  0.
    8880022    1    1    2    0    0  0.33024062372E+03  0.48972113007E+02  0.45123309946E+02  0.36997959880E+03  0.15294330000E+03 0.  0.
<mgrwt>
<rscale>  0 0.36721763E+03</rscale>
<asrwt>0</asrwt>
<pdfrwt beam="1">  1        4 0.11832424E+00 0.36721763E+03</pdfrwt>
<pdfrwt beam="2">  1       -4 0.34224874E-01 0.36721763E+03</pdfrwt>
<totfact> 0.87606892E+00</totfact>
</mgrwt>
</event>
<event>
 4    1  0.8653772E-009  0.1667466E+03  0.7818608E-02  0.1181284E+00
         -4   -1    0    0    0  501 -0.00000000000E+00  0.00000000000E+00  0.14430012436E+03  0.14430571295E+03  0.12700000000E+01 0. -1.
          4   -1    0    0  501    0  0.00000000000E+00 -0.00000000000E+00 -0.67446735349E+03  0.67446854917E+03  0.12700000000E+01 0. -1.
    8880022    1    1    2    0    0  0.50349009918E+02  0.43333070058E+02  0.80920898539E+02  0.18534460498E+03  0.15294330000E+03 0.  0.
    8880022    1    1    2    0    0 -0.50349009918E+02 -0.43333070058E+02 -0.61108812767E+03  0.63342965715E+03  0.15294330000E+03 0.  0.
<mgrwt>
<rscale>  0 0.16674661E+03</rscale>
<asrwt>0</asrwt>
<pdfrwt beam="1">  1        4 0.10376473E+00 0.16674661E+03</pdfrwt>
<pdfrwt beam="2">  1       -4 0.22200541E-01 0.16674661E+03</pdfrwt>
<totfact> 0.25440555E+01</totfact>
</mgrwt>
</event>
<event>
 4    1  0.8653772E-009  0.2041617E+03  0.7818608E-02  0.1146275E+00
          4   -1    0    0  501    0  0.00000000000E+00  0.00000000000E+00  0.16199514556E+03  0.16200012372E+03  0.12700000000E+01 0. -1.
         -4   -1    0    0    0  501 -0.00000000000E+00 -0.00000000000E+00 -0.25752330969E+03  0.25752644123E+03  0.12700000000E+01 0. -1.
    8880022    1    1    2    0    0  0.65303652487E+02  0.11843044251E+03 -0.54030955479E+02  0.21119027891E+03  0.15294330000E+03 0.  0.
    8880022    1    1    2    0    0 -0.65303652487E+02 -0.11843044251E+03 -0.41497208650E+02  0.20833628604E+03  0.15294330000E+03 0.  0.
<mgrwt>
<rscale>  0 0.20416168E+03</rscale>
<asrwt>0</asrwt>
<pdfrwt beam="1">  1        4 0.24922954E-01 0.20416168E+03</pdfrwt>
<pdfrwt beam="2">  1       -4 0.39619595E-01 0.20416168E+03</pdfrwt>
<totfact> 0.16651219E+02</totfact>
</mgrwt>
</event>
<event>
 4    1  0.8653772E-009  0.1939687E+03  0.7818608E-02  0.1154930E+00
          4   -1    0    0  501    0  0.00000000000E+00  0.00000000000E+00  0.35437477836E+03  0.35437705405E+03  0.12700000000E+01 0. -1.
         -4   -1    0    0    0  501 -0.00000000000E+00 -0.00000000000E+00 -0.10883601284E+03  0.10884342236E+03  0.12700000000E+01 0. -1.
    8880022    1    1    2    0    0 -0.11929003057E+03 -0.14514121164E+01  0.86475983829E+02  0.21237223638E+03  0.15294330000E+03 0.  0.
    8880022    1    1    2    0    0  0.11929003057E+03  0.14514121164E+01  0.15906278170E+03  0.25084824003E+03  0.15294330000E+03 0.  0.
<mgrwt>
<rscale>  0 0.19396874E+03</rscale>
<asrwt>0</asrwt>
<pdfrwt beam="1">  1        4 0.54519941E-01 0.19396874E+03</pdfrwt>
<pdfrwt beam="2">  1       -4 0.16744747E-01 0.19396874E+03</pdfrwt>
<totfact> 0.17816055E+02</totfact>
</mgrwt>
</event>
<event>
 4    1  0.8653772E-009  0.2000513E+03  0.7818608E-02  0.1149696E+00
         -4   -1    0    0    0  501 -0.00000000000E+00  0.00000000000E+00  0.13823326211E+04  0.13823332045E+04  0.12700000000E+01 0.  1.
          4   -1    0    0  501    0  0.00000000000E+00 -0.00000000000E+00 -0.29216606915E+02  0.29244196340E+02  0.12700000000E+01 0.  1.
    8880022    1    1    2    0    0 -0.71903546372E+02 -0.10704559422E+03  0.74557828395E+03  0.77195045808E+03  0.15294330000E+03 0.  0.
    8880022    1    1    2    0    0  0.71903546372E+02  0.10704559422E+03  0.60753773020E+03  0.63962694272E+03  0.15294330000E+03 0.  0.
<mgrwt>
<rscale>  0 0.20005132E+03</rscale>
<asrwt>0</asrwt>
<pdfrwt beam="1">  1        4 0.44970306E-02 0.20005132E+03</pdfrwt>
<pdfrwt beam="2">  1       -4 0.21266868E+00 0.20005132E+03</pdfrwt>
<totfact> 0.61059974E+01</totfact>
</mgrwt>
</event>
<event>
 4    1  0.8653772E-009  0.1659001E+03  0.7818608E-02  0.1182192E+00
         -4   -1    0    0    0  501 -0.00000000000E+00  0.00000000000E+00  0.23377796212E+03  0.23378141173E+03  0.12700000000E+01 0. -1.
          4   -1    0    0  501    0  0.00000000000E+00 -0.00000000000E+00 -0.24404193400E+03  0.24404523853E+03  0.12700000000E+01 0. -1.
    8880022    1    1    2    0    0  0.33023101953E+02  0.55142223001E+02 -0.17701575079E+03  0.24260548028E+03  0.15294330000E+03 0.  0.
    8880022    1    1    2    0    0 -0.33023101953E+02 -0.55142223001E+02  0.16675177891E+03  0.23522116998E+03  0.15294330000E+03 0.  0.
<mgrwt>
<rscale>  0 0.16590010E+03</rscale>
<asrwt>0</asrwt>
<pdfrwt beam="1">  1        4 0.37545432E-01 0.16590010E+03</pdfrwt>
<pdfrwt beam="2">  1       -4 0.35966360E-01 0.16590010E+03</pdfrwt>
<totfact> 0.89432260E+01</totfact>
</mgrwt>
</event>
<event>
 4    1  0.8653772E-009  0.3003003E+03  0.7818608E-02  0.1085091E+00
          4   -1    0    0  501    0  0.00000000000E+00  0.00000000000E+00  0.54527753255E+03  0.54527901152E+03  0.12700000000E+01 0. -1.
         -4   -1    0    0    0  501 -0.00000000000E+00 -0.00000000000E+00 -0.23229014467E+03  0.23229361638E+03  0.12700000000E+01 0. -1.
    8880022    1    1    2    0    0  0.25640159967E+03 -0.32355308144E+02  0.36515216552E+03  0.47277521432E+03  0.15294330000E+03 0.  0.
    8880022    1    1    2    0    0 -0.25640159967E+03  0.32355308144E+02 -0.52164777633E+02  0.30479741357E+03  0.15294330000E+03 0.  0.
<mgrwt>
<rscale>  0 0.30030035E+03</rscale>
<asrwt>0</asrwt>
<pdfrwt beam="1">  1        4 0.83889230E-01 0.30030035E+03</pdfrwt>
<pdfrwt beam="2">  1       -4 0.35737327E-01 0.30030035E+03</pdfrwt>
<totfact> 0.17851030E+01</totfact>
</mgrwt>
</event>
<event>
 4    1  0.8653772E-009  0.1588678E+03  0.7818608E-02  0.1189981E+00
          4   -1    0    0  501    0  0.00000000000E+00  0.00000000000E+00  0.16724755693E+03  0.16725237875E+03  0.12700000000E+01 0.  1.
         -4   -1    0    0    0  501 -0.00000000000E+00 -0.00000000000E+00 -0.15168538847E+03  0.15169070498E+03  0.12700000000E+01 0.  1.
    8880022    1    1    2    0    0 -0.31500373046E+02  0.29241141206E+02  0.19268935474E+02  0.16003206782E+03  0.15294330000E+03 0.  0.
    8880022    1    1    2    0    0  0.31500373046E+02 -0.29241141206E+02 -0.37067670229E+01  0.15891101591E+03  0.15294330000E+03 0.  0.
<mgrwt>
<rscale>  0 0.15886778E+03</rscale>
<asrwt>0</asrwt>
<pdfrwt beam="1">  1        4 0.25731173E-01 0.15886778E+03</pdfrwt>
<pdfrwt beam="2">  1       -4 0.23336994E-01 0.15886778E+03</pdfrwt>
<totfact> 0.41328044E+02</totfact>
</mgrwt>
</event>
<event>
 4    1  0.8653772E-009  0.1815439E+03  0.7818608E-02  0.1166317E+00
          4   -1    0    0  501    0  0.00000000000E+00  0.00000000000E+00  0.15236084884E+04  0.15236090177E+04  0.12700000000E+01 0. -1.
         -4   -1    0    0    0  501 -0.00000000000E+00 -0.00000000000E+00 -0.21627989581E+02  0.21665244825E+02  0.12700000000E+01 0. -1.
    8880022    1    1    2    0    0 -0.91918950225E+02 -0.33428394290E+02  0.73033210310E+03  0.75255776176E+03  0.15294330000E+03 0.  0.
    8880022    1    1    2    0    0  0.91918950225E+02  0.33428394290E+02  0.77164839573E+03  0.79271650077E+03  0.15294330000E+03 0.  0.
<mgrwt>
<rscale>  0 0.18154395E+03</rscale>
<asrwt>0</asrwt>
<pdfrwt beam="1">  1        4 0.23440420E+00 0.18154395E+03</pdfrwt>
<pdfrwt beam="2">  1       -4 0.33302897E-02 0.18154395E+03</pdfrwt>
<totfact> 0.72244219E+01</totfact>
</mgrwt>
</event>
<event>
 4    1  0.8653772E-009  0.1998585E+03  0.7818608E-02  0.1149858E+00
          4   -1    0    0  501    0  0.00000000000E+00  0.00000000000E+00  0.49952586878E+03  0.49952748321E+03  0.12700000000E+01 0. -1.
         -4   -1    0    0    0  501 -0.00000000000E+00 -0.00000000000E+00 -0.95836729652E+02  0.95845144115E+02  0.12700000000E+01 0. -1.
    8880022    1    1    2    0    0  0.32132485686E+02 -0.12457640828E+03  0.80671856137E+02  0.21552582102E+03  0.15294330000E+03 0. -1.
    8880022    1    1    2    0    0 -0.32132485686E+02  0.12457640828E+03  0.32301728299E+03  0.37984680631E+03  0.15294330000E+03 0. -1.
<mgrwt>
<rscale>  0 0.19985853E+03</rscale>
<asrwt>0</asrwt>
<pdfrwt beam="1">  1        4 0.76850906E-01 0.19985853E+03</pdfrwt>
<pdfrwt beam="2">  1       -4 0.14744883E-01 0.19985853E+03</pdfrwt>
<totfact> 0.10724479E+02</totfact>
</mgrwt>
</event>
<event>
 4    1  0.8653772E-009  0.1622802E+03  0.7818608E-02  0.1186146E+00
         -4   -1    0    0    0  501 -0.00000000000E+00  0.00000000000E+00  0.12401404139E+03  0.12402054411E+03  0.12700000000E+01 0. -1.
          4   -1    0    0  501    0  0.00000000000E+00 -0.00000000000E+00 -0.21246974345E+03  0.21247353902E+03  0.12700000000E+01 0. -1.
    8880022    1    1    2    0    0 -0.19662003210E+01 -0.54215604599E+02 -0.40067371205E+02  0.16715335766E+03  0.15294330000E+03 0.  1.
    8880022    1    1    2    0    0  0.19662003210E+01  0.54215604599E+02 -0.48388330857E+02  0.16934072547E+03  0.15294330000E+03 0.  1.
<mgrwt>
<rscale>  0 0.16228016E+03</rscale>
<asrwt>0</asrwt>
<pdfrwt beam="1">  1        4 0.32688445E-01 0.16228016E+03</pdfrwt>
<pdfrwt beam="2">  1       -4 0.19079876E-01 0.16228016E+03</pdfrwt>
<totfact> 0.38061241E+02</totfact>
</mgrwt>
</event>
<event>
 4    1  0.8653772E-009  0.1827799E+03  0.7818608E-02  0.1165139E+00
         -4   -1    0    0    0  501 -0.00000000000E+00  0.00000000000E+00  0.21135527991E+04  0.21135531807E+04  0.12700000000E+01 0. -1.
          4   -1    0    0  501    0  0.00000000000E+00 -0.00000000000E+00 -0.19865297090E+02  0.19905851614E+02  0.12700000000E+01 0. -1.
    8880022    1    1    2    0    0  0.78072404781E+01 -0.99779171946E+02  0.56371071153E+03  0.59260294925E+03  0.15294330000E+03 0.  0.
    8880022    1    1    2    0    0 -0.78072404781E+01  0.99779171946E+02  0.15299767905E+04  0.15408560830E+04  0.15294330000E+03 0.  0.
<mgrwt>
<rscale>  0 0.18277989E+03</rscale>
<asrwt>0</asrwt>
<pdfrwt beam="1">  1        4 0.30593503E-02 0.18277989E+03</pdfrwt>
<pdfrwt beam="2">  1       -4 0.32516492E+00 0.18277989E+03</pdfrwt>
<totfact> 0.24316228E+01</totfact>
</mgrwt>
</event>
<event>
 4    1  0.8653772E-009  0.4238046E+03  0.7818608E-02  0.1035835E+00
         -4   -1    0    0    0  501 -0.00000000000E+00  0.00000000000E+00  0.24716400160E+03  0.24716726439E+03  0.12700000000E+01 0. -1.
          4   -1    0    0  501    0  0.00000000000E+00 -0.00000000000E+00 -0.11101935616E+04  0.11101942880E+04  0.12700000000E+01 0. -1.
    8880022    1    1    2    0    0  0.22836385903E+03 -0.32259673287E+03 -0.83040907238E+03  0.93230337588E+03  0.15294330000E+03 0.  0.
    8880022    1    1    2    0    0 -0.22836385903E+03  0.32259673287E+03 -0.32620487598E+02  0.42505817649E+03  0.15294330000E+03 0.  0.
<mgrwt>
<rscale>  0 0.42380462E+03</rscale>
<asrwt>0</asrwt>
<pdfrwt beam="1">  1        4 0.17079931E+00 0.42380462E+03</pdfrwt>
<pdfrwt beam="2">  1       -4 0.38025539E-01 0.42380462E+03</pdfrwt>
<totfact> 0.27637215E+00</totfact>
</mgrwt>
</event>
<event>
 4    1  0.8653772E-009  0.1647543E+03  0.7818608E-02  0.1183431E+00
         -4   -1    0    0    0  501 -0.00000000000E+00  0.00000000000E+00  0.59074619133E+03  0.59074755647E+03  0.12700000000E+01 0. -1.
          4   -1    0    0  501    0  0.00000000000E+00 -0.00000000000E+00 -0.65779012774E+02  0.65791271621E+02  0.12700000000E+01 0. -1.
    8880022    1    1    2    0    0  0.40939625271E+02  0.45566082086E+02  0.82219064511E+02  0.18413024830E+03  0.15294330000E+03 0.  0.
    8880022    1    1    2    0    0 -0.40939625271E+02 -0.45566082086E+02  0.44274811405E+03  0.47240857979E+03  0.15294330000E+03 0.  0.
<mgrwt>
<rscale>  0 0.16475428E+03</rscale>
<asrwt>0</asrwt>
<pdfrwt beam="1">  1        4 0.10120896E-01 0.16475428E+03</pdfrwt>
<pdfrwt beam="2">  1       -4 0.90885077E-01 0.16475428E+03</pdfrwt>
<totfact> 0.13697060E+02</totfact>
</mgrwt>
</event>
<event>
 4    1  0.8653772E-009  0.3769953E+03  0.7818608E-02  0.1052050E+00
         -4   -1    0    0    0  501 -0.00000000000E+00  0.00000000000E+00  0.38340350934E+03  0.38340561273E+03  0.12700000000E+01 0. -1.
          4   -1    0    0  501    0  0.00000000000E+00 -0.00000000000E+00 -0.39206185344E+03  0.39206391038E+03  0.12700000000E+01 0. -1.
    8880022    1    1    2    0    0  0.16756374572E+03 -0.30109164894E+03 -0.94855865672E+02  0.38874551857E+03  0.15294330000E+03 0.  0.
    8880022    1    1    2    0    0 -0.16756374572E+03  0.30109164894E+03  0.86197521574E+02  0.38672400454E+03  0.15294330000E+03 0.  0.
<mgrwt>
<rscale>  0 0.37699528E+03</rscale>
<asrwt>0</asrwt>
<pdfrwt beam="1">  1        4 0.60317528E-01 0.37699528E+03</pdfrwt>
<pdfrwt beam="2">  1       -4 0.58985476E-01 0.37699528E+03</pdfrwt>
<totfact> 0.13469030E+01</totfact>
</mgrwt>
</event>
<event>
 4    1  0.8653772E-009  0.1569935E+03  0.7818608E-02  0.1192133E+00
         -4   -1    0    0    0  501 -0.00000000000E+00  0.00000000000E+00  0.15172243856E+03  0.15172775377E+03  0.12700000000E+01 0. -1.
          4   -1    0    0  501    0  0.00000000000E+00 -0.00000000000E+00 -0.22226381992E+03  0.22226744823E+03  0.12700000000E+01 0. -1.
    8880022    1    1    2    0    0 -0.27917867849E+02 -0.21815359360E+02  0.61744511419E+02  0.16869900698E+03  0.15294330000E+03 0.  0.
    8880022    1    1    2    0    0  0.27917867849E+02  0.21815359360E+02 -0.13228589277E+03  0.20529619502E+03  0.15294330000E+03 0.  0.
<mgrwt>
<rscale>  0 0.15699354E+03</rscale>
<asrwt>0</asrwt>
<pdfrwt beam="1">  1        4 0.34195122E-01 0.15699354E+03</pdfrwt>
<pdfrwt beam="2">  1       -4 0.23342602E-01 0.15699354E+03</pdfrwt>
<totfact> 0.24059942E+02</totfact>
</mgrwt>
</event>
<event>
 4    1  0.8653772E-009  0.1587368E+03  0.7818608E-02  0.1190130E+00
         -4   -1    0    0    0  501 -0.00000000000E+00  0.00000000000E+00  0.13019417385E+04  0.13019423579E+04  0.12700000000E+01 0. -1.
          4   -1    0    0  501    0  0.00000000000E+00 -0.00000000000E+00 -0.97295414841E+02  0.97303703163E+02  0.12700000000E+01 0. -1.
    8880022    1    1    2    0    0 -0.16456511707E+02 -0.39177869594E+02  0.12285123610E+04  0.12387251497E+04  0.15294330000E+03 0.  0.
    8880022    1    1    2    0    0  0.16456511707E+02  0.39177869594E+02 -0.23866037366E+02  0.16052091140E+03  0.15294330000E+03 0.  0.
<mgrwt>
<rscale>  0 0.15873681E+03</rscale>
<asrwt>0</asrwt>
<pdfrwt beam="1">  1        4 0.14969211E-01 0.15873681E+03</pdfrwt>
<pdfrwt beam="2">  1       -4 0.20029942E+00 0.15873681E+03</pdfrwt>
<totfact> 0.95282819E+00</totfact>
</mgrwt>
</event>
<event>
 4    1  0.8653772E-009  0.1573272E+03  0.7818608E-02  0.1191748E+00
          4   -1    0    0  501    0  0.00000000000E+00  0.00000000000E+00  0.10867234735E+02  0.10941192384E+02  0.12700000000E+01 0.  1.
         -4   -1    0    0    0  501 -0.00000000000E+00 -0.00000000000E+00 -0.22834051261E+04  0.22834054793E+04  0.12700000000E+01 0.  1.
    8880022    1    1    2    0    0 -0.10683830942E+02  0.35299482328E+02 -0.10479170343E+04  0.10596612485E+04  0.15294330000E+03 0.  1.
    8880022    1    1    2    0    0  0.10683830942E+02 -0.35299482328E+02 -0.12246208570E+04  0.12346854231E+04  0.15294330000E+03 0.  1.
<mgrwt>
<rscale>  0 0.15732721E+03</rscale>
<asrwt>0</asrwt>
<pdfrwt beam="1">  1        4 0.16776003E-02 0.15732721E+03</pdfrwt>
<pdfrwt beam="2">  1       -4 0.35129843E+00 0.15732721E+03</pdfrwt>
<totfact> 0.42588090E+01</totfact>
</mgrwt>
</event>
<event>
 4    1  0.8653772E-009  0.2345760E+03  0.7818608E-02  0.1123460E+00
          4   -1    0    0  501    0  0.00000000000E+00  0.00000000000E+00  0.25687603749E+03  0.25687917692E+03  0.12700000000E+01 0. -1.
         -4   -1    0    0    0  501 -0.00000000000E+00 -0.00000000000E+00 -0.49997571058E+03  0.49997732356E+03  0.12700000000E+01 0. -1.
    8880022    1    1    2    0    0  0.10921595802E+03 -0.14037844109E+03  0.16454831098E+03  0.28653452125E+03  0.15294330000E+03 0.  0.
    8880022    1    1    2    0    0 -0.10921595802E+03  0.14037844109E+03 -0.40764798407E+03  0.47032197923E+03  0.15294330000E+03 0.  0.
<mgrwt>
<rscale>  0 0.23457597E+03</rscale>
<asrwt>0</asrwt>
<pdfrwt beam="1">  1        4 0.39519756E-01 0.23457597E+03</pdfrwt>
<pdfrwt beam="2">  1       -4 0.76919706E-01 0.23457597E+03</pdfrwt>
<totfact> 0.17405521E+01</totfact>
</mgrwt>
</event>
<event>
 4    1  0.8653772E-009  0.2810738E+03  0.7818608E-02  0.1095104E+00
          4   -1    0    0  501    0  0.00000000000E+00  0.00000000000E+00  0.19248842152E+04  0.19248846341E+04  0.12700000000E+01 0.  1.
         -4   -1    0    0    0  501 -0.00000000000E+00 -0.00000000000E+00 -0.44048115659E+02  0.44066420244E+02  0.12700000000E+01 0.  1.
    8880022    1    1    2    0    0 -0.96512435853E+02 -0.21516550282E+03  0.11979524144E+04  0.12304846542E+04  0.15294330000E+03 0.  0.
    8880022    1    1    2    0    0  0.96512435853E+02  0.21516550282E+03  0.68288368509E+03  0.73846640022E+03  0.15294330000E+03 0.  0.
<mgrwt>
<rscale>  0 0.28107383E+03</rscale>
<asrwt>0</asrwt>
<pdfrwt beam="1">  1        4 0.29613739E+00 0.28107383E+03</pdfrwt>
<pdfrwt beam="2">  1       -4 0.67780755E-02 0.28107383E+03</pdfrwt>
<totfact> 0.10204509E+01</totfact>
</mgrwt>
</event>
<event>
 4    1  0.8653772E-009  0.2122903E+03  0.7818608E-02  0.1139765E+00
          4   -1    0    0  501    0  0.00000000000E+00  0.00000000000E+00  0.12516070312E+03  0.12516714627E+03  0.12700000000E+01 0.  1.
         -4   -1    0    0    0  501 -0.00000000000E+00 -0.00000000000E+00 -0.39417268904E+03  0.39417473497E+03  0.12700000000E+01 0.  1.
    8880022    1    1    2    0    0 -0.98656223335E+02  0.10928152933E+03 -0.58113749245E+02  0.22010080400E+03  0.15294330000E+03 0.  0.
    8880022    1    1    2    0    0  0.98656223335E+02 -0.10928152933E+03 -0.21089823668E+03  0.29924107724E+03  0.15294330000E+03 0.  0.
<mgrwt>
<rscale>  0 0.21229026E+03</rscale>
<asrwt>0</asrwt>
<pdfrwt beam="1">  1        4 0.19256146E-01 0.21229026E+03</pdfrwt>
<pdfrwt beam="2">  1       -4 0.60642605E-01 0.21229026E+03</pdfrwt>
<totfact> 0.11227958E+02</totfact>
</mgrwt>
</event>
<event>
 4    1  0.8653772E-009  0.1765077E+03  0.7818608E-02  0.1171226E+00
         -4   -1    0    0    0  501 -0.00000000000E+00  0.00000000000E+00  0.76953838074E+03  0.76953942870E+03  0.12700000000E+01 0. -1.
          4   -1    0    0  501    0  0.00000000000E+00 -0.00000000000E+00 -0.40516375638E+02  0.40536275048E+02  0.12700000000E+01 0. -1.
    8880022    1    1    2    0    0  0.51926014648E+02 -0.71182773974E+02  0.35144806590E+03  0.39328195274E+03  0.15294330000E+03 0.  0.
    8880022    1    1    2    0    0 -0.51926014648E+02  0.71182773974E+02  0.37757393920E+03  0.41679375102E+03  0.15294330000E+03 0.  0.
<mgrwt>
<rscale>  0 0.17650765E+03</rscale>
<asrwt>0</asrwt>
<pdfrwt beam="1">  1        4 0.62349005E-02 0.17650765E+03</pdfrwt>
<pdfrwt beam="2">  1       -4 0.11839212E+00 0.17650765E+03</pdfrwt>
<totfact> 0.16688951E+02</totfact>
</mgrwt>
</event>
<event>
 4    1  0.8653772E-009  0.1887733E+03  0.7818608E-02  0.1159572E+00
          4   -1    0    0  501    0  0.00000000000E+00  0.00000000000E+00  0.25935383723E+03  0.25935694667E+03  0.12700000000E+01 0. -1.
         -4   -1    0    0    0  501 -0.00000000000E+00 -0.00000000000E+00 -0.14578706419E+03  0.14579259578E+03  0.12700000000E+01 0. -1.
    8880022    1    1    2    0    0  0.11056092125E+03  0.44699498921E+01  0.81782526104E+01  0.18895034954E+03  0.15294330000E+03 0.  0.
    8880022    1    1    2    0    0 -0.11056092125E+03 -0.44699498921E+01  0.10538852043E+03  0.21619919291E+03  0.15294330000E+03 0.  0.
<mgrwt>
<rscale>  0 0.18877328E+03</rscale>
<asrwt>0</asrwt>
<pdfrwt beam="1">  1        4 0.39901255E-01 0.18877328E+03</pdfrwt>
<pdfrwt beam="2">  1       -4 0.22429444E-01 0.18877328E+03</pdfrwt>
<totfact> 0.19721455E+02</totfact>
</mgrwt>
</event>
<event>
 4    1  0.8653772E-009  0.1832931E+03  0.7818608E-02  0.1164653E+00
         -4   -1    0    0    0  501 -0.00000000000E+00  0.00000000000E+00  0.14371925028E+03  0.14372486146E+03  0.12700000000E+01 0. -1.
          4   -1    0    0  501    0  0.00000000000E+00 -0.00000000000E+00 -0.23491174036E+03  0.23491517333E+03  0.12700000000E+01 0. -1.
    8880022    1    1    2    0    0 -0.95132865235E+02 -0.33977153631E+02 -0.58898634879E+02  0.19252379391E+03  0.15294330000E+03 0.  0.
    8880022    1    1    2    0    0  0.95132865235E+02  0.33977153631E+02 -0.32293855203E+02  0.18611624087E+03  0.15294330000E+03 0.  0.
<mgrwt>
<rscale>  0 0.18329310E+03</rscale>
<asrwt>0</asrwt>
<pdfrwt beam="1">  1        4 0.36140964E-01 0.18329310E+03</pdfrwt>
<pdfrwt beam="2">  1       -4 0.22111350E-01 0.18329310E+03</pdfrwt>
<totfact> 0.24477485E+02</totfact>
</mgrwt>
</event>
<event>
 4    1  0.8653772E-009  0.2015294E+03  0.7818608E-02  0.1148455E+00
         -4   -1    0    0    0  501 -0.00000000000E+00  0.00000000000E+00  0.25553055413E+03  0.25553371009E+03  0.12700000000E+01 0.  1.
          4   -1    0    0  501    0  0.00000000000E+00 -0.00000000000E+00 -0.26197331968E+03  0.26197639802E+03  0.12700000000E+01 0.  1.
    8880022    1    1    2    0    0 -0.88664608027E+02  0.96752442181E+02  0.15905548372E+03  0.25673478085E+03  0.15294330000E+03 0.  0.
    8880022    1    1    2    0    0  0.88664608027E+02 -0.96752442181E+02 -0.16549824926E+03  0.26077532726E+03  0.15294330000E+03 0.  0.
<mgrwt>
<rscale>  0 0.20152940E+03</rscale>
<asrwt>0</asrwt>
<pdfrwt beam="1">  1        4 0.40304067E-01 0.20152940E+03</pdfrwt>
<pdfrwt beam="2">  1       -4 0.39312873E-01 0.20152940E+03</pdfrwt>
<totfact> 0.67058355E+01</totfact>
</mgrwt>
</event>
<event>
 4    1  0.8653772E-009  0.1571457E+03  0.7818608E-02  0.1191957E+00
          4   -1    0    0  501    0  0.00000000000E+00  0.00000000000E+00  0.14690385933E+03  0.14690934887E+03  0.12700000000E+01 0.  1.
         -4   -1    0    0    0  501 -0.00000000000E+00 -0.00000000000E+00 -0.19364322982E+03  0.19364739439E+03  0.12700000000E+01 0.  1.
    8880022    1    1    2    0    0 -0.34297511384E+02  0.11259939341E+02  0.38484071402E+02  0.16178931450E+03  0.15294330000E+03 0.  0.
    8880022    1    1    2    0    0  0.34297511384E+02 -0.11259939341E+02 -0.85223441895E+02  0.17876742876E+03  0.15294330000E+03 0.  0.
<mgrwt>
<rscale>  0 0.15714566E+03</rscale>
<asrwt>0</asrwt>
<pdfrwt beam="1">  1        4 0.22601336E-01 0.15714566E+03</pdfrwt>
<pdfrwt beam="2">  1       -4 0.29792009E-01 0.15714566E+03</pdfrwt>
<totfact> 0.33227053E+02</totfact>
</mgrwt>
</event>
<event>
 4    1  0.8653772E-009  0.2081035E+03  0.7818608E-02  0.1143077E+00
         -4   -1    0    0    0  501 -0.00000000000E+00  0.00000000000E+00  0.58167902817E+03  0.58168041458E+03  0.12700000000E+01 0. -1.
          4   -1    0    0  501    0  0.00000000000E+00 -0.00000000000E+00 -0.11505473074E+03  0.11506173980E+03  0.12700000000E+01 0. -1.
    8880022    1    1    2    0    0  0.49998850104E+02  0.13196794869E+03  0.26352492181E+02  0.20976541982E+03  0.15294330000E+03 0.  0.
    8880022    1    1    2    0    0 -0.49998850104E+02 -0.13196794869E+03  0.44027180525E+03  0.48697673456E+03  0.15294330000E+03 0.  0.
<mgrwt>
<rscale>  0 0.20810353E+03</rscale>
<asrwt>0</asrwt>
<pdfrwt beam="1">  1        4 0.17701374E-01 0.20810353E+03</pdfrwt>
<pdfrwt beam="2">  1       -4 0.89489728E-01 0.20810353E+03</pdfrwt>
<totfact> 0.55380497E+01</totfact>
</mgrwt>
</event>
<event>
 4    1  0.8653772E-009  0.2325702E+03  0.7818608E-02  0.1124844E+00
          4   -1    0    0  501    0  0.00000000000E+00  0.00000000000E+00  0.11939722096E+03  0.11940397511E+03  0.12700000000E+01 0.  1.
         -4   -1    0    0    0  501 -0.00000000000E+00 -0.00000000000E+00 -0.30634059848E+04  0.30634062480E+04  0.12700000000E+01 0.  1.
    8880022    1    1    2    0    0  0.16135322192E+03  0.68281727300E+02 -0.29410398377E+04  0.29502210487E+04  0.15294330000E+03 0.  0.
    8880022    1    1    2    0    0 -0.16135322192E+03 -0.68281727300E+02 -0.29689261220E+01  0.23258917439E+03  0.15294330000E+03 0.  0.
<mgrwt>
<rscale>  0 0.23257022E+03</rscale>
<asrwt>0</asrwt>
<pdfrwt beam="1">  1        4 0.18369345E-01 0.23257022E+03</pdfrwt>
<pdfrwt beam="2">  1       -4 0.47129371E+00 0.23257022E+03</pdfrwt>
<totfact> 0.12864975E-01</totfact>
</mgrwt>
</event>
<event>
 4    1  0.8653772E-009  0.1638583E+03  0.7818608E-02  0.1184408E+00
         -4   -1    0    0    0  501 -0.00000000000E+00  0.00000000000E+00  0.17205059583E+03  0.17205528305E+03  0.12700000000E+01 0.  1.
          4   -1    0    0  501    0  0.00000000000E+00 -0.00000000000E+00 -0.15815760430E+03  0.15816270324E+03  0.12700000000E+01 0.  1.
    8880022    1    1    2    0    0  0.20469952185E+02 -0.55125917289E+02 -0.12127861511E+02  0.16430649330E+03  0.15294330000E+03 0. -1.
    8880022    1    1    2    0    0 -0.20469952185E+02  0.55125917289E+02  0.26020853041E+02  0.16591149299E+03  0.15294330000E+03 0. -1.
<mgrwt>
<rscale>  0 0.16385829E+03</rscale>
<asrwt>0</asrwt>
<pdfrwt beam="1">  1        4 0.24332692E-01 0.16385829E+03</pdfrwt>
<pdfrwt beam="2">  1       -4 0.26470075E-01 0.16385829E+03</pdfrwt>
<totfact> 0.36497118E+02</totfact>
</mgrwt>
</event>
<event>
 4    1  0.8653772E-009  0.2248114E+03  0.7818608E-02  0.1130346E+00
         -4   -1    0    0    0  501 -0.00000000000E+00  0.00000000000E+00  0.13169138727E+03  0.13169751091E+03  0.12700000000E+01 0.  1.
          4   -1    0    0  501    0  0.00000000000E+00 -0.00000000000E+00 -0.81890540858E+03  0.81890639337E+03  0.12700000000E+01 0.  1.
    8880022    1    1    2    0    0  0.13274775486E+03  0.97603954121E+02 -0.69007837780E+03  0.72577428916E+03  0.15294330000E+03 0.  0.
    8880022    1    1    2    0    0 -0.13274775486E+03 -0.97603954121E+02  0.28643564901E+01  0.22482961512E+03  0.15294330000E+03 0.  0.
<mgrwt>
<rscale>  0 0.22481137E+03</rscale>
<asrwt>0</asrwt>
<pdfrwt beam="1">  1        4 0.12598599E+00 0.22481137E+03</pdfrwt>
<pdfrwt beam="2">  1       -4 0.20260761E-01 0.22481137E+03</pdfrwt>
<totfact> 0.19466586E+01</totfact>
</mgrwt>
</event>
<event>
 4    1  0.8653772E-009  0.1561116E+03  0.7818608E-02  0.1193158E+00
          4   -1    0    0  501    0  0.00000000000E+00  0.00000000000E+00  0.89552417254E+03  0.89552507308E+03  0.12700000000E+01 0. -1.
         -4   -1    0    0    0  501 -0.00000000000E+00 -0.00000000000E+00 -0.27201424227E+02  0.27231055432E+02  0.12700000000E+01 0. -1.
    8880022    1    1    2    0    0  0.13530316374E+02  0.28215192120E+02  0.43910632673E+03  0.46603131410E+03  0.15294330000E+03 0.  1.
    8880022    1    1    2    0    0 -0.13530316374E+02 -0.28215192120E+02  0.42921642158E+03  0.45672481441E+03  0.15294330000E+03 0.  1.
<mgrwt>
<rscale>  0 0.15611156E+03</rscale>
<asrwt>0</asrwt>
<pdfrwt beam="1">  1        4 0.13777530E+00 0.15611156E+03</pdfrwt>
<pdfrwt beam="2">  1       -4 0.41871830E-02 0.15611156E+03</pdfrwt>
<totfact> 0.21487487E+02</totfact>
</mgrwt>
</event>
<event>
 4    1  0.8653772E-009  0.2502972E+03  0.7818608E-02  0.1113117E+00
         -4   -1    0    0    0  501 -0.00000000000E+00  0.00000000000E+00  0.31565910679E+03  0.31566166159E+03  0.12700000000E+01 0. -1.
          4   -1    0    0  501    0  0.00000000000E+00 -0.00000000000E+00 -0.25679097068E+03  0.25679411116E+03  0.12700000000E+01 0. -1.
    8880022    1    1    2    0    0  0.16105151908E+03 -0.11540984536E+03 -0.10697759119E+03  0.27220007758E+03  0.15294330000E+03 0.  0.
    8880022    1    1    2    0    0 -0.16105151908E+03  0.11540984536E+03  0.16584572730E+03  0.30025569517E+03  0.15294330000E+03 0.  0.
<mgrwt>
<rscale>  0 0.25029718E+03</rscale>
<asrwt>0</asrwt>
<pdfrwt beam="1">  1        4 0.39506741E-01 0.25029718E+03</pdfrwt>
<pdfrwt beam="2">  1       -4 0.48563378E-01 0.25029718E+03</pdfrwt>
<totfact> 0.46753550E+01</totfact>
</mgrwt>
</event>
<event>
 4    1  0.8653772E-009  0.2377817E+03  0.7818608E-02  0.1121279E+00
         -4   -1    0    0    0  501 -0.00000000000E+00  0.00000000000E+00  0.39205410173E+02  0.39225974645E+02  0.12700000000E+01 0.  1.
          4   -1    0    0  501    0  0.00000000000E+00 -0.00000000000E+00 -0.14630819740E+04  0.14630825252E+04  0.12700000000E+01 0.  1.
    8880022    1    1    2    0    0  0.84398765566E+02 -0.16132366812E+03 -0.62124310533E+03  0.66519405173E+03  0.15294330000E+03 0.  0.
    8880022    1    1    2    0    0 -0.84398765566E+02  0.16132366812E+03 -0.80263345848E+03  0.83711444809E+03  0.15294330000E+03 0.  0.
<mgrwt>
<rscale>  0 0.23778169E+03</rscale>
<asrwt>0</asrwt>
<pdfrwt beam="1">  1        4 0.22509112E+00 0.23778169E+03</pdfrwt>
<pdfrwt beam="2">  1       -4 0.60332270E-02 0.23778169E+03</pdfrwt>
<totfact> 0.32314979E+01</totfact>
</mgrwt>
</event>
<event>
 4    1  0.8653772E-009  0.2258862E+03  0.7818608E-02  0.1129569E+00
         -4   -1    0    0    0  501 -0.00000000000E+00  0.00000000000E+00  0.60410948770E+02  0.60424296696E+02  0.12700000000E+01 0. -1.
          4   -1    0    0  501    0  0.00000000000E+00 -0.00000000000E+00 -0.88478125192E+03  0.88478216338E+03  0.12700000000E+01 0. -1.
    8880022    1    1    2    0    0 -0.16613972692E+03 -0.55235413309E+01 -0.51300189592E+03  0.56053145907E+03  0.15294330000E+03 0.  0.
    8880022    1    1    2    0    0  0.16613972692E+03  0.55235413309E+01 -0.31136840722E+03  0.38467500101E+03  0.15294330000E+03 0.  0.
<mgrwt>
<rscale>  0 0.22588619E+03</rscale>
<asrwt>0</asrwt>
<pdfrwt beam="1">  1        4 0.13612128E+00 0.22588619E+03</pdfrwt>
<pdfrwt beam="2">  1       -4 0.92950896E-02 0.22588619E+03</pdfrwt>
<totfact> 0.62905057E+01</totfact>
</mgrwt>
</event>
<event>
 4    1  0.8653772E-009  0.1550893E+03  0.7818608E-02  0.1194355E+00
          4   -1    0    0  501    0  0.00000000000E+00  0.00000000000E+00  0.57175004748E+02  0.57189107949E+02  0.12700000000E+01 0.  1.
         -4   -1    0    0    0  501 -0.00000000000E+00 -0.00000000000E+00 -0.44944654104E+03  0.44944833535E+03  0.12700000000E+01 0.  1.
    8880022    1    1    2    0    0 -0.15361264295E+02  0.20617233873E+02 -0.13198111588E+03  0.20364603295E+03  0.15294330000E+03 0.  0.
    8880022    1    1    2    0    0  0.15361264295E+02 -0.20617233873E+02 -0.26029042041E+03  0.30299141035E+03  0.15294330000E+03 0.  0.
<mgrwt>
<rscale>  0 0.15508930E+03</rscale>
<asrwt>0</asrwt>
<pdfrwt beam="1">  1        4 0.87973777E-02 0.15508930E+03</pdfrwt>
<pdfrwt beam="2">  1       -4 0.69146842E-01 0.15508930E+03</pdfrwt>
<totfact> 0.31462366E+02</totfact>
</mgrwt>
</event>
<event>
 4    1  0.8653772E-009  0.6901937E+03  0.7818608E-02  0.9734151E-01
         -4   -1    0    0    0  501 -0.00000000000E+00  0.00000000000E+00  0.74932723400E+03  0.74932831023E+03  0.12700000000E+01 0.  1.
          4   -1    0    0  501    0  0.00000000000E+00 -0.00000000000E+00 -0.67651054915E+03  0.67651174122E+03  0.12700000000E+01 0.  1.
    8880022    1    1    2    0    0 -0.18936510907E+03  0.64584561769E+03 -0.13864008740E+03  0.70398042108E+03  0.15294330000E+03 0.  0.
    8880022    1    1    2    0    0  0.18936510907E+03 -0.64584561769E+03  0.21145677225E+03  0.72185963038E+03  0.15294330000E+03 0.  0.
<mgrwt>
<rscale>  0 0.69019371E+03</rscale>
<asrwt>0</asrwt>
<pdfrwt beam="1">  1        4 0.10407872E+00 0.69019371E+03</pdfrwt>
<pdfrwt beam="2">  1       -4 0.11528129E+00 0.69019371E+03</pdfrwt>
<totfact> 0.85729800E-01</totfact>
</mgrwt>
</event>
<event>
 4    1  0.8653772E-009  0.2298129E+03  0.7818608E-02  0.1126772E+00
          4   -1    0    0  501    0  0.00000000000E+00  0.00000000000E+00  0.13441474304E+04  0.13441480303E+04  0.12700000000E+01 0.  1.
         -4   -1    0    0    0  501 -0.00000000000E+00 -0.00000000000E+00 -0.39495670323E+02  0.39516083742E+02  0.12700000000E+01 0.  1.
    8880022    1    1    2    0    0  0.88299812881E+02  0.14705592344E+03  0.60132457715E+03  0.64374311776E+03  0.15294330000E+03 0.  0.
    8880022    1    1    2    0    0 -0.88299812881E+02 -0.14705592344E+03  0.70332718291E+03  0.73992099633E+03  0.15294330000E+03 0.  0.
<mgrwt>
<rscale>  0 0.22981287E+03</rscale>
<asrwt>0</asrwt>
<pdfrwt beam="1">  1        4 0.20679354E+00 0.22981287E+03</pdfrwt>
<pdfrwt beam="2">  1       -4 0.60778732E-02 0.22981287E+03</pdfrwt>
<totfact> 0.41221455E+01</totfact>
</mgrwt>
</event>
<event>
 4    1  0.8653772E-009  0.2095371E+03  0.7818608E-02  0.1141933E+00
         -4   -1    0    0    0  501 -0.00000000000E+00  0.00000000000E+00  0.10165432200E+03  0.10166225495E+03  0.12700000000E+01 0. -1.
          4   -1    0    0  501    0  0.00000000000E+00 -0.00000000000E+00 -0.44572973682E+03  0.44573154609E+03  0.12700000000E+01 0. -1.
    8880022    1    1    2    0    0  0.12547468816E+03 -0.69067083654E+02 -0.22026995989E+03  0.30401425569E+03  0.15294330000E+03 0.  0.
    8880022    1    1    2    0    0 -0.12547468816E+03  0.69067083654E+02 -0.12380545493E+03  0.24337954535E+03  0.15294330000E+03 0.  0.
<mgrwt>
<rscale>  0 0.20953714E+03</rscale>
<asrwt>0</asrwt>
<pdfrwt beam="1">  1        4 0.68574554E-01 0.20953714E+03</pdfrwt>
<pdfrwt beam="2">  1       -4 0.15639876E-01 0.20953714E+03</pdfrwt>
<totfact> 0.12486767E+02</totfact>
</mgrwt>
</event>
<event>
 4    1  0.8653772E-009  0.5506474E+03  0.7818608E-02  0.1001344E+00
          4   -1    0    0  501    0  0.00000000000E+00  0.00000000000E+00  0.10283670711E+04  0.10283678553E+04  0.12700000000E+01 0. -1.
         -4   -1    0    0    0  501 -0.00000000000E+00 -0.00000000000E+00 -0.29546886223E+03  0.29547159161E+03  0.12700000000E+01 0. -1.
    8880022    1    1    2    0    0 -0.90957479621E+01  0.52890278694E+03  0.33606531793E+03  0.64509878437E+03  0.15294330000E+03 0.  0.
    8880022    1    1    2    0    0  0.90957479621E+01 -0.52890278694E+03  0.39683289096E+03  0.67874066257E+03  0.15294330000E+03 0.  0.
<mgrwt>
<rscale>  0 0.55064739E+03</rscale>
<asrwt>0</asrwt>
<pdfrwt beam="1">  1        4 0.15821059E+00 0.55064739E+03</pdfrwt>
<pdfrwt beam="2">  1       -4 0.45457017E-01 0.55064739E+03</pdfrwt>
<totfact> 0.23848163E+00</totfact>
</mgrwt>
</event>
<event>
 4    1  0.8653772E-009  0.1614020E+03  0.7818608E-02  0.1187123E+00
         -4   -1    0    0    0  501 -0.00000000000E+00  0.00000000000E+00  0.43171589831E+03  0.43171776632E+03  0.12700000000E+01 0. -1.
          4   -1    0    0  501    0  0.00000000000E+00 -0.00000000000E+00 -0.69392110322E+02  0.69403730987E+02  0.12700000000E+01 0. -1.
    8880022    1    1    2    0    0 -0.31327958870E+02  0.40957347991E+02  0.90641107914E+02  0.18511188190E+03  0.15294330000E+03 0.  0.
    8880022    1    1    2    0    0  0.31327958870E+02 -0.40957347991E+02  0.27168268008E+03  0.31600961541E+03  0.15294330000E+03 0.  0.
<mgrwt>
<rscale>  0 0.16140198E+03</rscale>
<asrwt>0</asrwt>
<pdfrwt beam="1">  1        4 0.10676747E-01 0.16140198E+03</pdfrwt>
<pdfrwt beam="2">  1       -4 0.66418869E-01 0.16140198E+03</pdfrwt>
<totfact> 0.24924161E+02</totfact>
</mgrwt>
</event>
<event>
 4    1  0.8653772E-009  0.2611881E+03  0.7818608E-02  0.1106431E+00
          4   -1    0    0  501    0  0.00000000000E+00  0.00000000000E+00  0.35037859789E+03  0.35038089954E+03  0.12700000000E+01 0.  1.
         -4   -1    0    0    0  501 -0.00000000000E+00 -0.00000000000E+00 -0.20090149766E+03  0.20090551178E+03  0.12700000000E+01 0.  1.
    8880022    1    1    2    0    0  0.20671387506E+03 -0.45792375174E+02  0.12318052321E+03  0.28877787671E+03  0.15294330000E+03 0.  0.
    8880022    1    1    2    0    0 -0.20671387506E+03  0.45792375174E+02  0.26296577018E+02  0.26250853461E+03  0.15294330000E+03 0.  0.
<mgrwt>
<rscale>  0 0.26118809E+03</rscale>
<asrwt>0</asrwt>
<pdfrwt beam="1">  1        4 0.53904886E-01 0.26118809E+03</pdfrwt>
<pdfrwt beam="2">  1       -4 0.30908409E-01 0.26118809E+03</pdfrwt>
<totfact> 0.61137177E+01</totfact>
</mgrwt>
</event>
<event>
 4    1  0.8653772E-009  0.1789986E+03  0.7818608E-02  0.1168776E+00
         -4   -1    0    0    0  501 -0.00000000000E+00  0.00000000000E+00  0.23468323453E+03  0.23468667084E+03  0.12700000000E+01 0.  1.
          4   -1    0    0  501    0  0.00000000000E+00 -0.00000000000E+00 -0.13651911912E+03  0.13652502623E+03  0.12700000000E+01 0.  1.
    8880022    1    1    2    0    0  0.66907659243E+02 -0.64592521869E+02  0.49112450920E+02  0.18561388579E+03  0.15294330000E+03 0.  0.
    8880022    1    1    2    0    0 -0.66907659243E+02  0.64592521869E+02  0.49051664486E+02  0.18559781128E+03  0.15294330000E+03 0.  0.
<mgrwt>
<rscale>  0 0.17899855E+03</rscale>
<asrwt>0</asrwt>
<pdfrwt beam="1">  1        4 0.21003660E-01 0.17899855E+03</pdfrwt>
<pdfrwt beam="2">  1       -4 0.36105831E-01 0.17899855E+03</pdfrwt>
<totfact> 0.26832400E+02</totfact>
</mgrwt>
</event>
<event>
 4    1  0.8653772E-009  0.2699241E+03  0.7818608E-02  0.1101323E+00
         -4   -1    0    0    0  501 -0.00000000000E+00  0.00000000000E+00  0.47864838884E+03  0.47865007369E+03  0.12700000000E+01 0.  1.
          4   -1    0    0  501    0  0.00000000000E+00 -0.00000000000E+00 -0.16213598112E+03  0.16214095496E+03  0.12700000000E+01 0.  1.
    8880022    1    1    2    0    0  0.95481658547E+02  0.20087463624E+03  0.23751445953E+03  0.35954434790E+03  0.15294330000E+03 0.  0.
    8880022    1    1    2    0    0 -0.95481658547E+02 -0.20087463624E+03  0.78997948184E+02  0.28124668075E+03  0.15294330000E+03 0.  0.
<mgrwt>
<rscale>  0 0.26992410E+03</rscale>
<asrwt>0</asrwt>
<pdfrwt beam="1">  1        4 0.24944509E-01 0.26992410E+03</pdfrwt>
<pdfrwt beam="2">  1       -4 0.73638727E-01 0.26992410E+03</pdfrwt>
<totfact> 0.47143581E+01</totfact>
</mgrwt>
</event>
<event>
 4    1  0.8653772E-009  0.2540629E+03  0.7818608E-02  0.1110764E+00
          4   -1    0    0  501    0  0.00000000000E+00  0.00000000000E+00  0.17510568454E+03  0.17511028998E+03  0.12700000000E+01 0. -1.
         -4   -1    0    0    0  501 -0.00000000000E+00 -0.00000000000E+00 -0.37095411250E+03  0.37095628648E+03  0.12700000000E+01 0. -1.
    8880022    1    1    2    0    0 -0.17748098989E+03  0.98269153175E+02 -0.11961694267E+03  0.28081345093E+03  0.15294330000E+03 0.  0.
    8880022    1    1    2    0    0  0.17748098989E+03 -0.98269153175E+02 -0.76231485294E+02  0.26525312553E+03  0.15294330000E+03 0.  0.
<mgrwt>
<rscale>  0 0.25406295E+03</rscale>
<asrwt>0</asrwt>
<pdfrwt beam="1">  1        4 0.26939857E-01 0.25406295E+03</pdfrwt>
<pdfrwt beam="2">  1       -4 0.57070385E-01 0.25406295E+03</pdfrwt>
<totfact> 0.70240053E+01</totfact>
</mgrwt>
</event>
<event>
 4    1  0.8653772E-009  0.2514281E+03  0.7818608E-02  0.1112406E+00
         -4   -1    0    0    0  501 -0.00000000000E+00  0.00000000000E+00  0.32015474977E+03  0.32015726870E+03  0.12700000000E+01 0.  1.
          4   -1    0    0  501    0  0.00000000000E+00 -0.00000000000E+00 -0.50256801375E+03  0.50256961841E+03  0.12700000000E+01 0.  1.
    8880022    1    1    2    0    0 -0.15774566662E+03  0.12223241611E+03  0.22931712035E+03  0.34029759562E+03  0.15294330000E+03 0.  0.
    8880022    1    1    2    0    0  0.15774566662E+03 -0.12223241611E+03 -0.41173038433E+03  0.48242929148E+03  0.15294330000E+03 0.  0.
<mgrwt>
<rscale>  0 0.25142814E+03</rscale>
<asrwt>0</asrwt>
<pdfrwt beam="1">  1        4 0.77318473E-01 0.25142814E+03</pdfrwt>
<pdfrwt beam="2">  1       -4 0.49254894E-01 0.25142814E+03</pdfrwt>
<totfact> 0.11090459E+01</totfact>
</mgrwt>
</event>
<event>
 4    1  0.8653772E-009  0.1565301E+03  0.7818608E-02  0.1192671E+00
         -4   -1    0    0    0  501 -0.00000000000E+00  0.00000000000E+00  0.52334607332E+02  0.52350014561E+02  0.12700000000E+01 0.  1.
          4   -1    0    0  501    0  0.00000000000E+00 -0.00000000000E+00 -0.53278433893E+03  0.53278585258E+03  0.12700000000E+01 0.  1.
    8880022    1    1    2    0    0 -0.28904853406E+02  0.16568708709E+02 -0.13827574214E+03  0.20885843660E+03  0.15294330000E+03 0.  1.
    8880022    1    1    2    0    0  0.28904853406E+02 -0.16568708709E+02 -0.34217398946E+03  0.37627743054E+03  0.15294330000E+03 0.  1.
<mgrwt>
<rscale>  0 0.15653008E+03</rscale>
<asrwt>0</asrwt>
<pdfrwt beam="1">  1        4 0.81968119E-01 0.15653008E+03</pdfrwt>
<pdfrwt beam="2">  1       -4 0.80527800E-02 0.15653008E+03</pdfrwt>
<totfact> 0.25149115E+02</totfact>
</mgrwt>
</event>
<event>
 4    1  0.8653772E-009  0.1868789E+03  0.7818608E-02  0.1161307E+00
          4   -1    0    0  501    0  0.00000000000E+00  0.00000000000E+00  0.56263260857E+02  0.56277592541E+02  0.12700000000E+01 0.  1.
         -4   -1    0    0    0  501 -0.00000000000E+00 -0.00000000000E+00 -0.62315579125E+03  0.62315708539E+03  0.12700000000E+01 0.  1.
    8880022    1    1    2    0    0 -0.89805614845E+02  0.58881397196E+02 -0.26180038366E+03  0.32165689996E+03  0.15294330000E+03 0.  1.
    8880022    1    1    2    0    0  0.89805614845E+02 -0.58881397196E+02 -0.30509214673E+03  0.35777777797E+03  0.15294330000E+03 0.  1.
<mgrwt>
<rscale>  0 0.18687889E+03</rscale>
<asrwt>0</asrwt>
<pdfrwt beam="1">  1        4 0.86570887E-02 0.18687889E+03</pdfrwt>
<pdfrwt beam="2">  1       -4 0.95871319E-01 0.18687889E+03</pdfrwt>
<totfact> 0.16070713E+02</totfact>
</mgrwt>
</event>
<event>
 4    1  0.8653772E-009  0.2151624E+03  0.7818608E-02  0.1137542E+00
         -4   -1    0    0    0  501 -0.00000000000E+00  0.00000000000E+00  0.44157178901E+02  0.44175438294E+02  0.12700000000E+01 0. -1.
          4   -1    0    0  501    0  0.00000000000E+00 -0.00000000000E+00 -0.10592041005E+04  0.10592048618E+04  0.12700000000E+01 0. -1.
    8880022    1    1    2    0    0 -0.94495545612E+02  0.11821085611E+03 -0.56381731495E+03  0.60347728400E+03  0.15294330000E+03 0. -1.
    8880022    1    1    2    0    0  0.94495545612E+02 -0.11821085611E+03 -0.45122960660E+03  0.49990301613E+03  0.15294330000E+03 0. -1.
<mgrwt>
<rscale>  0 0.21516242E+03</rscale>
<asrwt>0</asrwt>
<pdfrwt beam="1">  1        4 0.16295592E+00 0.21516242E+03</pdfrwt>
<pdfrwt beam="2">  1       -4 0.67948761E-02 0.21516242E+03</pdfrwt>
<totfact> 0.66370379E+01</totfact>
</mgrwt>
</event>
<event>
 4    1  0.8653772E-009  0.2198702E+03  0.7818608E-02  0.1133980E+00
          4   -1    0    0  501    0  0.00000000000E+00  0.00000000000E+00  0.13305954022E+03  0.13306560090E+03  0.12700000000E+01 0. -1.
         -4   -1    0    0    0  501 -0.00000000000E+00 -0.00000000000E+00 -0.43373138906E+03  0.43373324839E+03  0.12700000000E+01 0. -1.
    8880022    1    1    2    0    0 -0.11520210643E+03 -0.10807269371E+03 -0.36137353069E+02  0.22282009280E+03  0.15294330000E+03 0.  0.
    8880022    1    1    2    0    0  0.11520210643E+03  0.10807269371E+03 -0.26453449578E+03  0.34397875650E+03  0.15294330000E+03 0.  0.
<mgrwt>
<rscale>  0 0.21987016E+03</rscale>
<asrwt>0</asrwt>
<pdfrwt beam="1">  1        4 0.20471308E-01 0.21987016E+03</pdfrwt>
<pdfrwt beam="2">  1       -4 0.66728514E-01 0.21987016E+03</pdfrwt>
<totfact> 0.82243731E+01</totfact>
</mgrwt>
</event>
<event>
 4    1  0.8653772E-009  0.3084231E+03  0.7818608E-02  0.1081104E+00
         -4   -1    0    0    0  501 -0.00000000000E+00  0.00000000000E+00  0.79420196048E+02  0.79430349617E+02  0.12700000000E+01 0. -1.
          4   -1    0    0  501    0  0.00000000000E+00 -0.00000000000E+00 -0.12088704613E+04  0.12088711285E+04  0.12700000000E+01 0. -1.
    8880022    1    1    2    0    0  0.17548349469E+02 -0.26725490965E+03 -0.50267617617E+03  0.58975259424E+03  0.15294330000E+03 0.  0.
    8880022    1    1    2    0    0 -0.17548349469E+02  0.26725490965E+03 -0.62677408912E+03  0.69854888383E+03  0.15294330000E+03 0.  0.
<mgrwt>
<rscale>  0 0.30842306E+03</rscale>
<asrwt>0</asrwt>
<pdfrwt beam="1">  1        4 0.18598089E+00 0.30842306E+03</pdfrwt>
<pdfrwt beam="2">  1       -4 0.12219325E-01 0.30842306E+03</pdfrwt>
<totfact> 0.17631495E+01</totfact>
</mgrwt>
</event>
<event>
 4    1  0.8653772E-009  0.2467044E+03  0.7818608E-02  0.1115405E+00
          4   -1    0    0  501    0  0.00000000000E+00  0.00000000000E+00  0.58240156455E+03  0.58240294924E+03  0.12700000000E+01 0. -1.
         -4   -1    0    0    0  501 -0.00000000000E+00 -0.00000000000E+00 -0.13472728156E+03  0.13473326722E+03  0.12700000000E+01 0. -1.
    8880022    1    1    2    0    0  0.12780066926E+02  0.19315297230E+03  0.39367829569E+03  0.46459192237E+03  0.15294330000E+03 0.  1.
    8880022    1    1    2    0    0 -0.12780066926E+02 -0.19315297230E+03  0.53995987304E+02  0.25254429409E+03  0.15294330000E+03 0.  1.
<mgrwt>
<rscale>  0 0.24670439E+03</rscale>
<asrwt>0</asrwt>
<pdfrwt beam="1">  1        4 0.89600808E-01 0.24670439E+03</pdfrwt>
<pdfrwt beam="2">  1       -4 0.20727841E-01 0.24670439E+03</pdfrwt>
<totfact> 0.42312797E+01</totfact>
</mgrwt>
</event>
<event>
 4    1  0.8653772E-009  0.3359341E+03  0.7818608E-02  0.1068541E+00
          4   -1    0    0  501    0  0.00000000000E+00  0.00000000000E+00  0.14967495509E+04  0.14967500897E+04  0.12700000000E+01 0.  1.
         -4   -1    0    0    0  501 -0.00000000000E+00 -0.00000000000E+00 -0.75424389677E+02  0.75435081084E+02  0.12700000000E+01 0.  1.
    8880022    1    1    2    0    0 -0.43042996306E+02  0.29598541428E+03  0.69436447022E+03  0.77135837036E+03  0.15294330000E+03 0.  0.
    8880022    1    1    2    0    0  0.43042996306E+02 -0.29598541428E+03  0.72696069095E+03  0.80082680038E+03  0.15294330000E+03 0.  0.
<mgrwt>
<rscale>  0 0.33593410E+03</rscale>
<asrwt>0</asrwt>
<pdfrwt beam="1">  1        4 0.23027001E+00 0.33593410E+03</pdfrwt>
<pdfrwt beam="2">  1       -4 0.11604617E-01 0.33593410E+03</pdfrwt>
<totfact> 0.10180546E+01</totfact>
</mgrwt>
</event>
<event>
 4    1  0.8653772E-009  0.1543558E+03  0.7818608E-02  0.1195221E+00
         -4   -1    0    0    0  501 -0.00000000000E+00  0.00000000000E+00  0.64168624190E+03  0.64168749866E+03  0.12700000000E+01 0. -1.
          4   -1    0    0  501    0  0.00000000000E+00 -0.00000000000E+00 -0.38928392399E+02  0.38949103132E+02  0.12700000000E+01 0. -1.
    8880022    1    1    2    0    0 -0.20385113843E+02  0.43016196792E+01  0.37475428724E+03  0.40529802074E+03  0.15294330000E+03 0.  1.
    8880022    1    1    2    0    0  0.20385113843E+02 -0.43016196792E+01  0.22800356226E+03  0.27533858105E+03  0.15294330000E+03 0.  1.
<mgrwt>
<rscale>  0 0.15435579E+03</rscale>
<asrwt>0</asrwt>
<pdfrwt beam="1">  1        4 0.59906733E-02 0.15435579E+03</pdfrwt>
<pdfrwt beam="2">  1       -4 0.98722649E-01 0.15435579E+03</pdfrwt>
<totfact> 0.26775495E+02</totfact>
</mgrwt>
</event>
<event>
 4    1  0.8653772E-009  0.2185019E+03  0.7818608E-02  0.1135005E+00
         -4   -1    0    0    0  501 -0.00000000000E+00  0.00000000000E+00  0.66238695384E+03  0.66238817133E+03  0.12700000000E+01 0. -1.
          4   -1    0    0  501    0  0.00000000000E+00 -0.00000000000E+00 -0.74534041459E+02  0.74544860562E+02  0.12700000000E+01 0. -1.
    8880022    1    1    2    0    0 -0.10796804741E+03 -0.11266902280E+03  0.22694228136E+03  0.31503310944E+03  0.15294330000E+03 0.  0.
    8880022    1    1    2    0    0  0.10796804741E+03  0.11266902280E+03  0.36091063102E+03  0.42189992245E+03  0.15294330000E+03 0.  0.
<mgrwt>
<rscale>  0 0.21850186E+03</rscale>
<asrwt>0</asrwt>
<pdfrwt beam="1">  1        4 0.11467702E-01 0.21850186E+03</pdfrwt>
<pdfrwt beam="2">  1       -4 0.10190661E+00 0.21850186E+03</pdfrwt>
<totfact> 0.88339252E+01</totfact>
</mgrwt>
</event>
<event>
 4    1  0.8653772E-009  0.1858017E+03  0.7818608E-02  0.1162303E+00
         -4   -1    0    0    0  501 -0.00000000000E+00  0.00000000000E+00  0.62046122571E+02  0.62059118798E+02  0.12700000000E+01 0.  1.
          4   -1    0    0  501    0  0.00000000000E+00 -0.00000000000E+00 -0.55787545331E+03  0.55787689888E+03  0.12700000000E+01 0.  1.
    8880022    1    1    2    0    0  0.43713957499E+02 -0.96019303359E+02 -0.26425591758E+03  0.32303786108E+03  0.15294330000E+03 0.  1.
    8880022    1    1    2    0    0 -0.43713957499E+02  0.96019303359E+02 -0.23157341316E+03  0.29689815661E+03  0.15294330000E+03 0.  1.
<mgrwt>
<rscale>  0 0.18580169E+03</rscale>
<asrwt>0</asrwt>
<pdfrwt beam="1">  1        4 0.85828100E-01 0.18580169E+03</pdfrwt>
<pdfrwt beam="2">  1       -4 0.95466686E-02 0.18580169E+03</pdfrwt>
<totfact> 0.17527645E+02</totfact>
</mgrwt>
</event>
<event>
 4    1  0.8653772E-009  0.2021146E+03  0.7818608E-02  0.1147967E+00
          4   -1    0    0  501    0  0.00000000000E+00  0.00000000000E+00  0.31896763331E+03  0.31897016162E+03  0.12700000000E+01 0.  1.
         -4   -1    0    0    0  501 -0.00000000000E+00 -0.00000000000E+00 -0.14825882134E+03  0.14826426072E+03  0.12700000000E+01 0.  1.
    8880022    1    1    2    0    0  0.80007693433E+02  0.10515439613E+03 -0.86386840395E+00  0.20211649442E+03  0.15294330000E+03 0.  0.
    8880022    1    1    2    0    0 -0.80007693433E+02 -0.10515439613E+03  0.17157268037E+03  0.26511792791E+03  0.15294330000E+03 0.  0.
<mgrwt>
<rscale>  0 0.20211465E+03</rscale>
<asrwt>0</asrwt>
<pdfrwt beam="1">  1        4 0.49072555E-01 0.20211465E+03</pdfrwt>
<pdfrwt beam="2">  1       -4 0.22809663E-01 0.20211465E+03</pdfrwt>
<totfact> 0.12732425E+02</totfact>
</mgrwt>
</event>
<event>
 4    1  0.8653772E-009  0.1767785E+03  0.7818608E-02  0.1170958E+00
          4   -1    0    0  501    0  0.00000000000E+00  0.00000000000E+00  0.28313682099E+02  0.28342150483E+02  0.12700000000E+01 0.  1.
         -4   -1    0    0    0  501 -0.00000000000E+00 -0.00000000000E+00 -0.12473543716E+04  0.12473550181E+04  0.12700000000E+01 0.  1.
    8880022    1    1    2    0    0  0.81518490042E+02  0.34838736073E+02 -0.82639673514E+03  0.84509302365E+03  0.15294330000E+03 0.  0.
    8880022    1    1    2    0    0 -0.81518490042E+02 -0.34838736073E+02 -0.39264395436E+03  0.43060414497E+03  0.15294330000E+03 0.  0.
<mgrwt>
<rscale>  0 0.17677855E+03</rscale>
<asrwt>0</asrwt>
<pdfrwt beam="1">  1        4 0.43581917E-02 0.17677855E+03</pdfrwt>
<pdfrwt beam="2">  1       -4 0.19190287E+00 0.17677855E+03</pdfrwt>
<totfact> 0.85400604E+01</totfact>
</mgrwt>
</event>
<event>
 4    1  0.8653772E-009  0.2130247E+03  0.7818608E-02  0.1139193E+00
          4   -1    0    0  501    0  0.00000000000E+00  0.00000000000E+00  0.12895567598E+04  0.12895573852E+04  0.12700000000E+01 0. -1.
         -4   -1    0    0    0  501 -0.00000000000E+00 -0.00000000000E+00 -0.36931357267E+02  0.36953187272E+02  0.12700000000E+01 0. -1.
    8880022    1    1    2    0    0  0.14097848136E+03  0.45966641630E+02  0.77078784573E+03  0.79968332513E+03  0.15294330000E+03 0.  0.
    8880022    1    1    2    0    0 -0.14097848136E+03 -0.45966641630E+02  0.48183755678E+03  0.52682724729E+03  0.15294330000E+03 0.  0.
<mgrwt>
<rscale>  0 0.21302469E+03</rscale>
<asrwt>0</asrwt>
<pdfrwt beam="1">  1        4 0.19839512E+00 0.21302469E+03</pdfrwt>
<pdfrwt beam="2">  1       -4 0.56834734E-02 0.21302469E+03</pdfrwt>
<totfact> 0.51576198E+01</totfact>
</mgrwt>
</event>
<event>
 4    1  0.8653772E-009  0.3153680E+03  0.7818608E-02  0.1077801E+00
          4   -1    0    0  501    0  0.00000000000E+00  0.00000000000E+00  0.40412326900E+04  0.40412328896E+04  0.12700000000E+01 0. -1.
         -4   -1    0    0    0  501 -0.00000000000E+00 -0.00000000000E+00 -0.25266282564E+02  0.25298180461E+02  0.12700000000E+01 0. -1.
    8880022    1    1    2    0    0  0.21168065111E+03  0.17679546944E+03  0.23394413447E+04  0.23606022101E+04  0.15294330000E+03 0.  0.
    8880022    1    1    2    0    0 -0.21168065111E+03 -0.17679546944E+03  0.16765250628E+04  0.17059288599E+04  0.15294330000E+03 0.  0.
<mgrwt>
<rscale>  0 0.31536802E+03</rscale>
<asrwt>0</asrwt>
<pdfrwt beam="1">  1        4 0.62173095E+00 0.31536802E+03</pdfrwt>
<pdfrwt beam="2">  1       -4 0.38895871E-02 0.31536802E+03</pdfrwt>
<totfact> 0.97527267E-02</totfact>
</mgrwt>
</event>
<event>
 4    1  0.8653772E-009  0.3749684E+03  0.7818608E-02  0.1052809E+00
          4   -1    0    0  501    0  0.00000000000E+00  0.00000000000E+00  0.84923060358E+03  0.84923155321E+03  0.12700000000E+01 0.  1.
         -4   -1    0    0    0  501 -0.00000000000E+00 -0.00000000000E+00 -0.18425659333E+03  0.18426097006E+03  0.12700000000E+01 0.  1.
    8880022    1    1    2    0    0  0.32103770530E+03 -0.11893048801E+03  0.49709234303E+03  0.62265730520E+03  0.15294330000E+03 0.  0.
    8880022    1    1    2    0    0 -0.32103770530E+03  0.11893048801E+03  0.16788166722E+03  0.41083521806E+03  0.15294330000E+03 0.  0.
<mgrwt>
<rscale>  0 0.37496843E+03</rscale>
<asrwt>0</asrwt>
<pdfrwt beam="1">  1        4 0.13065127E+00 0.37496843E+03</pdfrwt>
<pdfrwt beam="2">  1       -4 0.28347577E-01 0.37496843E+03</pdfrwt>
<totfact> 0.98714900E+00</totfact>
</mgrwt>
</event>
<event>
 4    1  0.8653772E-009  0.2928535E+03  0.7818608E-02  0.1088869E+00
          4   -1    0    0  501    0  0.00000000000E+00  0.00000000000E+00  0.79674745482E+03  0.79674846699E+03  0.12700000000E+01 0. -1.
         -4   -1    0    0    0  501 -0.00000000000E+00 -0.00000000000E+00 -0.31483278537E+03  0.31483534688E+03  0.12700000000E+01 0. -1.
    8880022    1    1    2    0    0  0.12776708404E+03  0.21458590270E+03 -0.20992035675E+03  0.36031895120E+03  0.15294330000E+03 0.  0.
    8880022    1    1    2    0    0 -0.12776708404E+03 -0.21458590270E+03  0.69183502620E+03  0.75126486267E+03  0.15294330000E+03 0.  0.
<mgrwt>
<rscale>  0 0.29285353E+03</rscale>
<asrwt>0</asrwt>
<pdfrwt beam="1">  1        4 0.12257680E+00 0.29285353E+03</pdfrwt>
<pdfrwt beam="2">  1       -4 0.48436089E-01 0.29285353E+03</pdfrwt>
<totfact> 0.39500413E+00</totfact>
</mgrwt>
</event>
<event>
 4    1  0.8653772E-009  0.1623014E+03  0.7818608E-02  0.1186123E+00
         -4   -1    0    0    0  501 -0.00000000000E+00  0.00000000000E+00  0.11027067664E+04  0.11027074977E+04  0.12700000000E+01 0.  1.
          4   -1    0    0  501    0  0.00000000000E+00 -0.00000000000E+00 -0.28261617857E+02  0.28290138633E+02  0.12700000000E+01 0.  1.
    8880022    1    1    2    0    0  0.21856901675E+01  0.54270808435E+02  0.31444636405E+03  0.35386193179E+03  0.15294330000E+03 0.  1.
    8880022    1    1    2    0    0 -0.21856901675E+01 -0.54270808435E+02  0.75999878448E+03  0.77713570457E+03  0.15294330000E+03 0.  1.
<mgrwt>
<rscale>  0 0.16230142E+03</rscale>
<asrwt>0</asrwt>
<pdfrwt beam="1">  1        4 0.43501920E-02 0.16230142E+03</pdfrwt>
<pdfrwt beam="2">  1       -4 0.16964942E+00 0.16230142E+03</pdfrwt>
<totfact> 0.11885045E+02</totfact>
</mgrwt>
</event>
<event>
 4    1  0.8653772E-009  0.2470052E+03  0.7818608E-02  0.1115212E+00
          4   -1    0    0  501    0  0.00000000000E+00  0.00000000000E+00  0.97831638791E+03  0.97831721223E+03  0.12700000000E+01 0.  1.
         -4   -1    0    0    0  501 -0.00000000000E+00 -0.00000000000E+00 -0.72465389627E+02  0.72476517534E+02  0.12700000000E+01 0.  1.
    8880022    1    1    2    0    0 -0.10422628279E+03  0.16357501362E+03  0.64914180641E+03  0.69454779602E+03  0.15294330000E+03 0.  0.
    8880022    1    1    2    0    0  0.10422628279E+03 -0.16357501362E+03  0.25670919187E+03  0.35624593375E+03  0.15294330000E+03 0.  0.
<mgrwt>
<rscale>  0 0.24700517E+03</rscale>
<asrwt>0</asrwt>
<pdfrwt beam="1">  1        4 0.15051112E+00 0.24700517E+03</pdfrwt>
<pdfrwt beam="2">  1       -4 0.11149442E-01 0.24700517E+03</pdfrwt>
<totfact> 0.36006270E+01</totfact>
</mgrwt>
</event>
<event>
 4    1  0.8653772E-009  0.1579098E+03  0.7818608E-02  0.1191077E+00
          4   -1    0    0  501    0  0.00000000000E+00  0.00000000000E+00  0.17254334828E+03  0.17254802211E+03  0.12700000000E+01 0. -1.
         -4   -1    0    0    0  501 -0.00000000000E+00 -0.00000000000E+00 -0.15814515313E+03  0.15815025248E+03  0.12700000000E+01 0. -1.
    8880022    1    1    2    0    0  0.25172538054E+01 -0.39211285147E+02 -0.41354631438E+02  0.16323516780E+03  0.15294330000E+03 0. -1.
    8880022    1    1    2    0    0 -0.25172538054E+01  0.39211285147E+02  0.55752826588E+02  0.16746310679E+03  0.15294330000E+03 0. -1.
<mgrwt>
<rscale>  0 0.15790983E+03</rscale>
<asrwt>0</asrwt>
<pdfrwt beam="1">  1        4 0.26545882E-01 0.15790983E+03</pdfrwt>
<pdfrwt beam="2">  1       -4 0.24330775E-01 0.15790983E+03</pdfrwt>
<totfact> 0.36075107E+02</totfact>
</mgrwt>
</event>
<event>
 4    1  0.8653772E-009  0.4403753E+03  0.7818608E-02  0.1030632E+00
         -4   -1    0    0    0  501 -0.00000000000E+00  0.00000000000E+00  0.37524542492E+03  0.37524757405E+03  0.12700000000E+01 0.  1.
          4   -1    0    0  501    0  0.00000000000E+00 -0.00000000000E+00 -0.51680514600E+03  0.51680670645E+03  0.12700000000E+01 0.  1.
    8880022    1    1    2    0    0  0.22180927554E+03 -0.34833807261E+03 -0.70754710630E+02  0.44602314922E+03  0.15294330000E+03 0.  0.
    8880022    1    1    2    0    0 -0.22180927554E+03  0.34833807261E+03 -0.70805010444E+02  0.44603113128E+03  0.15294330000E+03 0.  0.
<mgrwt>
<rscale>  0 0.44037532E+03</rscale>
<asrwt>0</asrwt>
<pdfrwt beam="1">  1        4 0.79508769E-01 0.44037532E+03</pdfrwt>
<pdfrwt beam="2">  1       -4 0.57730351E-01 0.44037532E+03</pdfrwt>
<totfact> 0.77466848E+00</totfact>
</mgrwt>
</event>
<event>
 4    1  0.8653772E-009  0.1717782E+03  0.7818608E-02  0.1176006E+00
          4   -1    0    0  501    0  0.00000000000E+00  0.00000000000E+00  0.98874492961E+03  0.98874574524E+03  0.12700000000E+01 0.  1.
         -4   -1    0    0    0  501 -0.00000000000E+00 -0.00000000000E+00 -0.35628048466E+02  0.35650676536E+02  0.12700000000E+01 0.  1.
    8880022    1    1    2    0    0  0.44749653454E+02  0.64137016244E+02  0.68312174652E+03  0.70438843114E+03  0.15294330000E+03 0.  1.
    8880022    1    1    2    0    0 -0.44749653454E+02 -0.64137016244E+02  0.26999513463E+03  0.32000799064E+03  0.15294330000E+03 0.  1.
<mgrwt>
<rscale>  0 0.17177817E+03</rscale>
<asrwt>0</asrwt>
<pdfrwt beam="1">  1        4 0.15211639E+00 0.17177817E+03</pdfrwt>
<pdfrwt beam="2">  1       -4 0.54830423E-02 0.17177817E+03</pdfrwt>
<totfact> 0.10981725E+02</totfact>
</mgrwt>
</event>
<event>
 4    1  0.8653772E-009  0.2688961E+03  0.7818608E-02  0.1101913E+00
         -4   -1    0    0    0  501 -0.00000000000E+00  0.00000000000E+00  0.19485900636E+03  0.19486314495E+03  0.12700000000E+01 0.  1.
          4   -1    0    0  501    0  0.00000000000E+00 -0.00000000000E+00 -0.39917464597E+03  0.39917666626E+03  0.12700000000E+01 0.  1.
    8880022    1    1    2    0    0 -0.21666465475E+03 -0.44383203983E+02 -0.18099109765E+03  0.32413403379E+03  0.15294330000E+03 0.  0.
    8880022    1    1    2    0    0  0.21666465475E+03  0.44383203983E+02 -0.23324541953E+02  0.26990577743E+03  0.15294330000E+03 0.  0.
<mgrwt>
<rscale>  0 0.26889607E+03</rscale>
<asrwt>0</asrwt>
<pdfrwt beam="1">  1        4 0.61411957E-01 0.26889607E+03</pdfrwt>
<pdfrwt beam="2">  1       -4 0.29978783E-01 0.26889607E+03</pdfrwt>
<totfact> 0.49370809E+01</totfact>
</mgrwt>
</event>
<event>
 4    1  0.8653772E-009  0.1800859E+03  0.7818608E-02  0.1167720E+00
         -4   -1    0    0    0  501 -0.00000000000E+00  0.00000000000E+00  0.65339391680E+03  0.65339515105E+03  0.12700000000E+01 0.  1.
          4   -1    0    0  501    0  0.00000000000E+00 -0.00000000000E+00 -0.54432485922E+02  0.54447299507E+02  0.12700000000E+01 0.  1.
    8880022    1    1    2    0    0 -0.86056900056E+02  0.40416448131E+02  0.19431800069E+03  0.26493474241E+03  0.15294330000E+03 0.  0.
    8880022    1    1    2    0    0  0.86056900056E+02 -0.40416448131E+02  0.40464343019E+03  0.44290770815E+03  0.15294330000E+03 0.  0.
<mgrwt>
<rscale>  0 0.18008590E+03</rscale>
<asrwt>0</asrwt>
<pdfrwt beam="1">  1        4 0.83754633E-02 0.18008590E+03</pdfrwt>
<pdfrwt beam="2">  1       -4 0.10052337E+00 0.18008590E+03</pdfrwt>
<totfact> 0.15135214E+02</totfact>
</mgrwt>
</event>
<event>
 4    1  0.8653772E-009  0.1573708E+03  0.7818608E-02  0.1191697E+00
         -4   -1    0    0    0  501 -0.00000000000E+00  0.00000000000E+00  0.10040192822E+03  0.10040996011E+03  0.12700000000E+01 0. -1.
          4   -1    0    0  501    0  0.00000000000E+00 -0.00000000000E+00 -0.24768573285E+03  0.24768898877E+03  0.12700000000E+01 0. -1.
    8880022    1    1    2    0    0 -0.36365633407E+02 -0.71741712600E+01 -0.62359272539E+02  0.16927569203E+03  0.15294330000E+03 0.  1.
    8880022    1    1    2    0    0  0.36365633407E+02  0.71741712600E+01 -0.84924532096E+02  0.17882325686E+03  0.15294330000E+03 0.  1.
<mgrwt>
<rscale>  0 0.15737084E+03</rscale>
<asrwt>0</asrwt>
<pdfrwt beam="1">  1        4 0.38106365E-01 0.15737084E+03</pdfrwt>
<pdfrwt beam="2">  1       -4 0.15447319E-01 0.15737084E+03</pdfrwt>
<totfact> 0.40911779E+02</totfact>
</mgrwt>
</event>
<event>
 4    1  0.8653772E-009  0.1820075E+03  0.7818608E-02  0.1165874E+00
          4   -1    0    0  501    0  0.00000000000E+00  0.00000000000E+00  0.15998309298E+03  0.15998813374E+03  0.12700000000E+01 0.  1.
         -4   -1    0    0    0  501 -0.00000000000E+00 -0.00000000000E+00 -0.21168843734E+03  0.21169224692E+03  0.12700000000E+01 0.  1.
    8880022    1    1    2    0    0 -0.17633392361E+02 -0.97078046357E+02  0.16448099053E+01  0.18201495000E+03  0.15294330000E+03 0. -1.
    8880022    1    1    2    0    0  0.17633392361E+02  0.97078046357E+02 -0.53350154268E+02  0.18966543066E+03  0.15294330000E+03 0. -1.
<mgrwt>
<rscale>  0 0.18200752E+03</rscale>
<asrwt>0</asrwt>
<pdfrwt beam="1">  1        4 0.24613464E-01 0.18200752E+03</pdfrwt>
<pdfrwt beam="2">  1       -4 0.32568133E-01 0.18200752E+03</pdfrwt>
<totfact> 0.24549926E+02</totfact>
</mgrwt>
</event>
<event>
 4    1  0.8653772E-009  0.1584780E+03  0.7818608E-02  0.1190426E+00
         -4   -1    0    0    0  501 -0.00000000000E+00  0.00000000000E+00  0.31807539554E+03  0.31807793093E+03  0.12700000000E+01 0.  1.
          4   -1    0    0  501    0  0.00000000000E+00 -0.00000000000E+00 -0.79653889070E+02  0.79664012854E+02  0.12700000000E+01 0.  1.
    8880022    1    1    2    0    0  0.66792958978E+01 -0.40975797722E+02  0.10054666604E+03  0.18768301484E+03  0.15294330000E+03 0.  0.
    8880022    1    1    2    0    0 -0.66792958978E+01  0.40975797722E+02  0.13787484043E+03  0.21005892895E+03  0.15294330000E+03 0.  0.
<mgrwt>
<rscale>  0 0.15847802E+03</rscale>
<asrwt>0</asrwt>
<pdfrwt beam="1">  1        4 0.12255418E-01 0.15847802E+03</pdfrwt>
<pdfrwt beam="2">  1       -4 0.48935649E-01 0.15847802E+03</pdfrwt>
<totfact> 0.37161850E+02</totfact>
</mgrwt>
</event>
<event>
 4    1  0.8653772E-009  0.2200929E+03  0.7818608E-02  0.1133814E+00
          4   -1    0    0  501    0  0.00000000000E+00  0.00000000000E+00  0.12579382488E+04  0.12579388899E+04  0.12700000000E+01 0. -1.
         -4   -1    0    0    0  501 -0.00000000000E+00 -0.00000000000E+00 -0.38991827134E+02  0.39012504191E+02  0.12700000000E+01 0. -1.
    8880022    1    1    2    0    0  0.33738457199E+02 -0.15463168014E+03  0.68250226714E+03  0.71711243028E+03  0.15294330000E+03 0.  1.
    8880022    1    1    2    0    0 -0.33738457199E+02  0.15463168014E+03  0.53644415453E+03  0.57983896381E+03  0.15294330000E+03 0.  1.
<mgrwt>
<rscale>  0 0.22009292E+03</rscale>
<asrwt>0</asrwt>
<pdfrwt beam="1">  1        4 0.19353059E+00 0.22009292E+03</pdfrwt>
<pdfrwt beam="2">  1       -4 0.60003828E-02 0.22009292E+03</pdfrwt>
<totfact> 0.50856515E+01</totfact>
</mgrwt>
</event>
<event>
 4    1  0.8653772E-009  0.2008062E+03  0.7818608E-02  0.1149061E+00
         -4   -1    0    0    0  501 -0.00000000000E+00  0.00000000000E+00  0.20751232418E+03  0.20751621041E+03  0.12700000000E+01 0.  1.
          4   -1    0    0  501    0  0.00000000000E+00 -0.00000000000E+00 -0.20306870182E+03  0.20307267309E+03  0.12700000000E+01 0.  1.
    8880022    1    1    2    0    0 -0.69017326117E+02  0.11030898480E+03  0.44859445457E+02  0.20575589006E+03  0.15294330000E+03 0.  0.
    8880022    1    1    2    0    0  0.69017326117E+02 -0.11030898480E+03 -0.40415823098E+02  0.20483299345E+03  0.15294330000E+03 0.  0.
<mgrwt>
<rscale>  0 0.20080617E+03</rscale>
<asrwt>0</asrwt>
<pdfrwt beam="1">  1        4 0.31241943E-01 0.20080617E+03</pdfrwt>
<pdfrwt beam="2">  1       -4 0.31925577E-01 0.20080617E+03</pdfrwt>
<totfact> 0.16522590E+02</totfact>
</mgrwt>
</event>
<event>
 4    1  0.8653772E-009  0.2085506E+03  0.7818608E-02  0.1142719E+00
         -4   -1    0    0    0  501 -0.00000000000E+00  0.00000000000E+00  0.93573447868E+03  0.93573534051E+03  0.12700000000E+01 0. -1.
          4   -1    0    0  501    0  0.00000000000E+00 -0.00000000000E+00 -0.67509865620E+02  0.67521810225E+02  0.12700000000E+01 0. -1.
    8880022    1    1    2    0    0  0.36583901079E+02  0.13697922167E+03  0.15411023766E+03  0.25931314535E+03  0.15294330000E+03 0.  0.
    8880022    1    1    2    0    0 -0.36583901079E+02 -0.13697922167E+03  0.71411437540E+03  0.74394400538E+03  0.15294330000E+03 0.  0.
<mgrwt>
<rscale>  0 0.20855057E+03</rscale>
<asrwt>0</asrwt>
<pdfrwt beam="1">  1        4 0.10387118E-01 0.20855057E+03</pdfrwt>
<pdfrwt beam="2">  1       -4 0.14396014E+00 0.20855057E+03</pdfrwt>
<totfact> 0.44791815E+01</totfact>
</mgrwt>
</event>
<event>
 4    1  0.8653772E-009  0.1886316E+03  0.7818608E-02  0.1159701E+00
          4   -1    0    0  501    0  0.00000000000E+00  0.00000000000E+00  0.67549128990E+02  0.67561066653E+02  0.12700000000E+01 0. -1.
         -4   -1    0    0    0  501 -0.00000000000E+00 -0.00000000000E+00 -0.14088776325E+04  0.14088782049E+04  0.12700000000E+01 0. -1.
    8880022    1    1    2    0    0  0.10104728672E+03  0.44493716085E+02 -0.12548161786E+04  0.12689151036E+04  0.15294330000E+03 0.  0.
    8880022    1    1    2    0    0 -0.10104728672E+03 -0.44493716085E+02 -0.86512324878E+02  0.20752416798E+03  0.15294330000E+03 0.  0.
<mgrwt>
<rscale>  0 0.18863165E+03</rscale>
<asrwt>0</asrwt>
<pdfrwt beam="1">  1        4 0.10393137E-01 0.18863165E+03</pdfrwt>
<pdfrwt beam="2">  1       -4 0.21675135E+00 0.18863165E+03</pdfrwt>
<totfact> 0.14362950E+01</totfact>
</mgrwt>
</event>
<event>
 4    1  0.8653772E-009  0.2205282E+03  0.7818608E-02  0.1133490E+00
          4   -1    0    0  501    0  0.00000000000E+00  0.00000000000E+00  0.59503364346E+03  0.59503499876E+03  0.12700000000E+01 0. -1.
         -4   -1    0    0    0  501 -0.00000000000E+00 -0.00000000000E+00 -0.90911251480E+02  0.90920121787E+02  0.12700000000E+01 0. -1.
    8880022    1    1    2    0    0  0.18195918176E+02 -0.15782883822E+03  0.36108210317E+03  0.42309924587E+03  0.15294330000E+03 0.  0.
    8880022    1    1    2    0    0 -0.18195918176E+02  0.15782883822E+03  0.14304028881E+03  0.26285587467E+03  0.15294330000E+03 0.  0.
<mgrwt>
<rscale>  0 0.22052820E+03</rscale>
<asrwt>0</asrwt>
<pdfrwt beam="1">  1        4 0.91544425E-01 0.22052820E+03</pdfrwt>
<pdfrwt beam="2">  1       -4 0.13987133E-01 0.22052820E+03</pdfrwt>
<totfact> 0.80352080E+01</totfact>
</mgrwt>
</event>
<event>
 4    1  0.8653772E-009  0.1783838E+03  0.7818608E-02  0.1169376E+00
          4   -1    0    0  501    0  0.00000000000E+00  0.00000000000E+00  0.41028472086E+02  0.41048123242E+02  0.12700000000E+01 0.  1.
         -4   -1    0    0    0  501 -0.00000000000E+00 -0.00000000000E+00 -0.79233714488E+03  0.79233816269E+03  0.12700000000E+01 0.  1.
    8880022    1    1    2    0    0  0.24235908370E+02  0.88553709454E+02 -0.31468251568E+03  0.36172624649E+03  0.15294330000E+03 0.  1.
    8880022    1    1    2    0    0 -0.24235908370E+02 -0.88553709454E+02 -0.43662615711E+03  0.47166003944E+03  0.15294330000E+03 0.  1.
<mgrwt>
<rscale>  0 0.17838383E+03</rscale>
<asrwt>0</asrwt>
<pdfrwt beam="1">  1        4 0.63136631E-02 0.17838383E+03</pdfrwt>
<pdfrwt beam="2">  1       -4 0.12189960E+00 0.17838383E+03</pdfrwt>
<totfact> 0.15254511E+02</totfact>
</mgrwt>
</event>
<event>
 4    1  0.8653772E-009  0.1688397E+03  0.7818608E-02  0.1179063E+00
         -4   -1    0    0    0  501 -0.00000000000E+00  0.00000000000E+00  0.93126905220E+01  0.93988884853E+01  0.12700000000E+01 0.  1.
          4   -1    0    0  501    0  0.00000000000E+00 -0.00000000000E+00 -0.36504601358E+04  0.36504603567E+04  0.12700000000E+01 0.  1.
    8880022    1    1    2    0    0 -0.51913328753E+02 -0.49195504068E+02 -0.10764926334E+04  0.10896528044E+04  0.15294330000E+03 0.  1.
    8880022    1    1    2    0    0  0.51913328753E+02  0.49195504068E+02 -0.25646548118E+04  0.25702064408E+04  0.15294330000E+03 0.  1.
<mgrwt>
<rscale>  0 0.16883970E+03</rscale>
<asrwt>0</asrwt>
<pdfrwt beam="1">  1        4 0.56161476E+00 0.16883970E+03</pdfrwt>
<pdfrwt beam="2">  1       -4 0.14393721E-02 0.16883970E+03</pdfrwt>
<totfact> 0.15984446E+00</totfact>
</mgrwt>
</event>
<event>
 4    1  0.8653772E-009  0.2531812E+03  0.7818608E-02  0.1111311E+00
         -4   -1    0    0    0  501 -0.00000000000E+00  0.00000000000E+00  0.16943470130E+03  0.16943946088E+03  0.12700000000E+01 0.  1.
          4   -1    0    0  501    0  0.00000000000E+00 -0.00000000000E+00 -0.39644034183E+03  0.39644237605E+03  0.12700000000E+01 0.  1.
    8880022    1    1    2    0    0  0.19126327496E+03  0.64245079994E+02 -0.17400993958E+03  0.30721357838E+03  0.15294330000E+03 0.  0.
    8880022    1    1    2    0    0 -0.19126327496E+03 -0.64245079994E+02 -0.52995700953E+02  0.25866825856E+03  0.15294330000E+03 0.  0.
<mgrwt>
<rscale>  0 0.25318121E+03</rscale>
<asrwt>0</asrwt>
<pdfrwt beam="1">  1        4 0.60991344E-01 0.25318121E+03</pdfrwt>
<pdfrwt beam="2">  1       -4 0.26067400E-01 0.25318121E+03</pdfrwt>
<totfact> 0.64883374E+01</totfact>
</mgrwt>
</event>
<event>
 4    1  0.8653772E-009  0.1543669E+03  0.7818608E-02  0.1195207E+00
         -4   -1    0    0    0  501 -0.00000000000E+00  0.00000000000E+00  0.56170686854E+02  0.56185042152E+02  0.12700000000E+01 0. -1.
          4   -1    0    0  501    0  0.00000000000E+00 -0.00000000000E+00 -0.43245279998E+03  0.43245466481E+03  0.12700000000E+01 0. -1.
    8880022    1    1    2    0    0 -0.13400157997E+02  0.16060415130E+02 -0.15430478531E+03  0.21826387917E+03  0.15294330000E+03 0. -1.
    8880022    1    1    2    0    0  0.13400157997E+02 -0.16060415130E+02 -0.22197732782E+03  0.27037582779E+03  0.15294330000E+03 0. -1.
<mgrwt>
<rscale>  0 0.15436695E+03</rscale>
<asrwt>0</asrwt>
<pdfrwt beam="1">  1        4 0.66532445E-01 0.15436695E+03</pdfrwt>
<pdfrwt beam="2">  1       -4 0.86428921E-02 0.15436695E+03</pdfrwt>
<totfact> 0.35180599E+02</totfact>
</mgrwt>
</event>
<event>
 4    1  0.8653772E-009  0.1596332E+03  0.7818608E-02  0.1189111E+00
          4   -1    0    0  501    0  0.00000000000E+00  0.00000000000E+00  0.25025680420E+03  0.25026002667E+03  0.12700000000E+01 0. -1.
         -4   -1    0    0    0  501 -0.00000000000E+00 -0.00000000000E+00 -0.10217528180E+03  0.10218317431E+03  0.12700000000E+01 0. -1.
    8880022    1    1    2    0    0 -0.32599131849E+02 -0.32068928145E+02  0.63630298409E+02  0.17184757036E+03  0.15294330000E+03 0.  1.
    8880022    1    1    2    0    0  0.32599131849E+02  0.32068928145E+02  0.84451223989E+02  0.18059563062E+03  0.15294330000E+03 0.  1.
<mgrwt>
<rscale>  0 0.15963324E+03</rscale>
<asrwt>0</asrwt>
<pdfrwt beam="1">  1        4 0.38501902E-01 0.15963324E+03</pdfrwt>
<pdfrwt beam="2">  1       -4 0.15720129E-01 0.15963324E+03</pdfrwt>
<totfact> 0.38977883E+02</totfact>
</mgrwt>
</event>
<event>
 4    1  0.8653772E-009  0.1774233E+03  0.7818608E-02  0.1170320E+00
         -4   -1    0    0    0  501 -0.00000000000E+00  0.00000000000E+00  0.45269319617E+02  0.45287130607E+02  0.12700000000E+01 0.  1.
          4   -1    0    0  501    0  0.00000000000E+00 -0.00000000000E+00 -0.76329248844E+03  0.76329354498E+03  0.12700000000E+01 0.  1.
    8880022    1    1    2    0    0 -0.89097590515E+02  0.12206948061E+02 -0.47974752009E+03  0.51150437561E+03  0.15294330000E+03 0.  1.
    8880022    1    1    2    0    0  0.89097590515E+02 -0.12206948061E+02 -0.23827564873E+03  0.29707629998E+03  0.15294330000E+03 0.  1.
<mgrwt>
<rscale>  0 0.17742334E+03</rscale>
<asrwt>0</asrwt>
<pdfrwt beam="1">  1        4 0.11743106E+00 0.17742334E+03</pdfrwt>
<pdfrwt beam="2">  1       -4 0.69659626E-02 0.17742334E+03</pdfrwt>
<totfact> 0.14193486E+02</totfact>
</mgrwt>
</event>
<event>
 4    1  0.8653772E-009  0.1900900E+03  0.7818608E-02  0.1158380E+00
         -4   -1    0    0    0  501 -0.00000000000E+00  0.00000000000E+00  0.60020610738E+02  0.60034045453E+02  0.12700000000E+01 0. -1.
          4   -1    0    0  501    0  0.00000000000E+00 -0.00000000000E+00 -0.77690715361E+03  0.77690819163E+03  0.12700000000E+01 0. -1.
    8880022    1    1    2    0    0  0.10540197260E+03  0.40410342528E+02 -0.15985930214E+03  0.24837314892E+03  0.15294330000E+03 0. -1.
    8880022    1    1    2    0    0 -0.10540197260E+03 -0.40410342528E+02 -0.55702724073E+03  0.58856908816E+03  0.15294330000E+03 0. -1.
<mgrwt>
<rscale>  0 0.19009004E+03</rscale>
<asrwt>0</asrwt>
<pdfrwt beam="1">  1        4 0.11952528E+00 0.19009004E+03</pdfrwt>
<pdfrwt beam="2">  1       -4 0.92350540E-02 0.19009004E+03</pdfrwt>
<totfact> 0.85817514E+01</totfact>
</mgrwt>
</event>
<event>
 4    1  0.8653772E-009  0.2986957E+03  0.7818608E-02  0.1085894E+00
          4   -1    0    0  501    0  0.00000000000E+00  0.00000000000E+00  0.69173926925E+03  0.69174043508E+03  0.12700000000E+01 0. -1.
         -4   -1    0    0    0  501 -0.00000000000E+00 -0.00000000000E+00 -0.22045468583E+03  0.22045834392E+03  0.12700000000E+01 0. -1.
    8880022    1    1    2    0    0  0.11325951892E+03  0.23021669345E+03 -0.58163006423E+02  0.30430582133E+03  0.15294330000E+03 0.  0.
    8880022    1    1    2    0    0 -0.11325951892E+03 -0.23021669345E+03  0.52944758984E+03  0.60789295766E+03  0.15294330000E+03 0.  0.
<mgrwt>
<rscale>  0 0.29869566E+03</rscale>
<asrwt>0</asrwt>
<pdfrwt beam="1">  1        4 0.10642180E+00 0.29869566E+03</pdfrwt>
<pdfrwt beam="2">  1       -4 0.33916477E-01 0.29869566E+03</pdfrwt>
<totfact> 0.11367167E+01</totfact>
</mgrwt>
</event>
<event>
 4    1  0.8653772E-009  0.3189422E+03  0.7818608E-02  0.1076137E+00
          4   -1    0    0  501    0  0.00000000000E+00  0.00000000000E+00  0.10437256012E+04  0.10437263739E+04  0.12700000000E+01 0. -1.
         -4   -1    0    0    0  501 -0.00000000000E+00 -0.00000000000E+00 -0.10802945485E+03  0.10803691968E+03  0.12700000000E+01 0. -1.
    8880022    1    1    2    0    0 -0.56319366214E+02 -0.27415432865E+03  0.28770355587E+03  0.42953167054E+03  0.15294330000E+03 0.  0.
    8880022    1    1    2    0    0  0.56319366214E+02  0.27415432865E+03  0.64799259049E+03  0.72223162300E+03  0.15294330000E+03 0.  0.
<mgrwt>
<rscale>  0 0.31894219E+03</rscale>
<asrwt>0</asrwt>
<pdfrwt beam="1">  1        4 0.16057380E+00 0.31894219E+03</pdfrwt>
<pdfrwt beam="2">  1       -4 0.16620551E-01 0.31894219E+03</pdfrwt>
<totfact> 0.15378361E+01</totfact>
</mgrwt>
</event>
<event>
 4    1  0.8653772E-009  0.2384673E+03  0.7818608E-02  0.1120818E+00
         -4   -1    0    0    0  501 -0.00000000000E+00  0.00000000000E+00  0.16664770761E+03  0.16665254679E+03  0.12700000000E+01 0.  1.
          4   -1    0    0  501    0  0.00000000000E+00 -0.00000000000E+00 -0.36659403877E+03  0.36659623861E+03  0.12700000000E+01 0.  1.
    8880022    1    1    2    0    0  0.13125612991E+03 -0.12746303552E+03 -0.29838699991E+02  0.24032685679E+03  0.15294330000E+03 0.  0.
    8880022    1    1    2    0    0 -0.13125612991E+03  0.12746303552E+03 -0.17010763118E+03  0.29292192861E+03  0.15294330000E+03 0.  0.
<mgrwt>
<rscale>  0 0.23846729E+03</rscale>
<asrwt>0</asrwt>
<pdfrwt beam="1">  1        4 0.56399624E-01 0.23846729E+03</pdfrwt>
<pdfrwt beam="2">  1       -4 0.25638650E-01 0.23846729E+03</pdfrwt>
<totfact> 0.78454421E+01</totfact>
</mgrwt>
</event>
<event>
 4    1  0.8653772E-009  0.1792193E+03  0.7818608E-02  0.1168561E+00
         -4   -1    0    0    0  501 -0.00000000000E+00  0.00000000000E+00  0.39977396933E+02  0.39997564496E+02  0.12700000000E+01 0. -1.
          4   -1    0    0  501    0  0.00000000000E+00 -0.00000000000E+00 -0.81994895313E+03  0.81994993666E+03  0.12700000000E+01 0. -1.
    8880022    1    1    2    0    0  0.58215657398E+02 -0.73067397782E+02 -0.45140165903E+03  0.48567789550E+03  0.15294330000E+03 0.  0.
    8880022    1    1    2    0    0 -0.58215657398E+02  0.73067397782E+02 -0.32856989716E+03  0.37426960566E+03  0.15294330000E+03 0.  0.
<mgrwt>
<rscale>  0 0.17921931E+03</rscale>
<asrwt>0</asrwt>
<pdfrwt beam="1">  1        4 0.12614761E+00 0.17921931E+03</pdfrwt>
<pdfrwt beam="2">  1       -4 0.61519964E-02 0.17921931E+03</pdfrwt>
<totfact> 0.14648895E+02</totfact>
</mgrwt>
</event>
<event>
 4    1  0.8653772E-009  0.1966909E+03  0.7818608E-02  0.1152561E+00
         -4   -1    0    0    0  501 -0.00000000000E+00  0.00000000000E+00  0.31057134026E+02  0.31083089839E+02  0.12700000000E+01 0. -1.
          4   -1    0    0  501    0  0.00000000000E+00 -0.00000000000E+00 -0.12458885011E+04  0.12458891484E+04  0.12700000000E+01 0. -1.
    8880022    1    1    2    0    0  0.22592234744E+02 -0.12159458699E+03 -0.59171568236E+03  0.62355012182E+03  0.15294330000E+03 0. -1.
    8880022    1    1    2    0    0 -0.22592234744E+02  0.12159458699E+03 -0.62311568469E+03  0.65342211638E+03  0.15294330000E+03 0. -1.
<mgrwt>
<rscale>  0 0.19669089E+03</rscale>
<asrwt>0</asrwt>
<pdfrwt beam="1">  1        4 0.19167716E+00 0.19669089E+03</pdfrwt>
<pdfrwt beam="2">  1       -4 0.47800680E-02 0.19669089E+03</pdfrwt>
<totfact> 0.74790359E+01</totfact>
</mgrwt>
</event>
<event>
 4    1  0.8653772E-009  0.2060656E+03  0.7818608E-02  0.1144720E+00
         -4   -1    0    0    0  501 -0.00000000000E+00  0.00000000000E+00  0.31804939146E+03  0.31805192707E+03  0.12700000000E+01 0. -1.
          4   -1    0    0  501    0  0.00000000000E+00 -0.00000000000E+00 -0.13640204237E+03  0.13640795454E+03  0.12700000000E+01 0. -1.
    8880022    1    1    2    0    0 -0.97077634037E+02 -0.98220641799E+02  0.12394013565E+03  0.24046657095E+03  0.15294330000E+03 0.  0.
    8880022    1    1    2    0    0  0.97077634037E+02  0.98220641799E+02  0.57707213443E+02  0.21399331065E+03  0.15294330000E+03 0.  0.
<mgrwt>
<rscale>  0 0.20606556E+03</rscale>
<asrwt>0</asrwt>
<pdfrwt beam="1">  1        4 0.20985580E-01 0.20606556E+03</pdfrwt>
<pdfrwt beam="2">  1       -4 0.48931325E-01 0.20606556E+03</pdfrwt>
<totfact> 0.14961178E+02</totfact>
</mgrwt>
</event>
<event>
 4    1  0.8653772E-009  0.1571631E+03  0.7818608E-02  0.1191937E+00
          4   -1    0    0  501    0  0.00000000000E+00  0.00000000000E+00  0.63406228570E+03  0.63406355758E+03  0.12700000000E+01 0.  1.
         -4   -1    0    0    0  501 -0.00000000000E+00 -0.00000000000E+00 -0.42398626301E+02  0.42417642700E+02  0.12700000000E+01 0.  1.
    8880022    1    1    2    0    0 -0.32517438168E+02 -0.15849294870E+02  0.39235910318E+03  0.42266523727E+03  0.15294330000E+03 0. -1.
    8880022    1    1    2    0    0  0.32517438168E+02  0.15849294870E+02  0.19930455622E+03  0.25381596301E+03  0.15294330000E+03 0. -1.
<mgrwt>
<rscale>  0 0.15716309E+03</rscale>
<asrwt>0</asrwt>
<pdfrwt beam="1">  1        4 0.97549594E-01 0.15716309E+03</pdfrwt>
<pdfrwt beam="2">  1       -4 0.65244269E-02 0.15716309E+03</pdfrwt>
<totfact> 0.24015205E+02</totfact>
</mgrwt>
</event>
<event>
 4    1  0.8653772E-009  0.1704334E+03  0.7818608E-02  0.1177397E+00
         -4   -1    0    0    0  501 -0.00000000000E+00  0.00000000000E+00  0.62526690654E+02  0.62539587016E+02  0.12700000000E+01 0.  1.
          4   -1    0    0  501    0  0.00000000000E+00 -0.00000000000E+00 -0.77703962186E+03  0.77704065971E+03  0.12700000000E+01 0.  1.
    8880022    1    1    2    0    0  0.12797029989E+02 -0.74108798236E+02 -0.62348762366E+03  0.64636239667E+03  0.15294330000E+03 0.  0.
    8880022    1    1    2    0    0 -0.12797029989E+02  0.74108798236E+02 -0.91025307548E+02  0.19321785006E+03  0.15294330000E+03 0.  0.
<mgrwt>
<rscale>  0 0.17043336E+03</rscale>
<asrwt>0</asrwt>
<pdfrwt beam="1">  1        4 0.11954562E+00 0.17043336E+03</pdfrwt>
<pdfrwt beam="2">  1       -4 0.96205633E-02 0.17043336E+03</pdfrwt>
<totfact> 0.78890955E+01</totfact>
</mgrwt>
</event>
<event>
 4    1  0.8653772E-009  0.1981190E+03  0.7818608E-02  0.1151336E+00
          4   -1    0    0  501    0  0.00000000000E+00  0.00000000000E+00  0.16662584675E+03  0.16663068656E+03  0.12700000000E+01 0. -1.
         -4   -1    0    0    0  501 -0.00000000000E+00 -0.00000000000E+00 -0.33907349318E+03  0.33907587157E+03  0.12700000000E+01 0. -1.
    8880022    1    1    2    0    0  0.71097894106E+02  0.10394514403E+03  0.53485823616E+02  0.20521181705E+03  0.15294330000E+03 0.  0.
    8880022    1    1    2    0    0 -0.71097894106E+02 -0.10394514403E+03 -0.22593347005E+03  0.30049474108E+03  0.15294330000E+03 0.  0.
<mgrwt>
<rscale>  0 0.19811905E+03</rscale>
<asrwt>0</asrwt>
<pdfrwt beam="1">  1        4 0.25635301E-01 0.19811905E+03</pdfrwt>
<pdfrwt beam="2">  1       -4 0.52165708E-01 0.19811905E+03</pdfrwt>
<totfact> 0.90186614E+01</totfact>
</mgrwt>
</event>
<event>
 4    1  0.8653772E-009  0.1644130E+03  0.7818608E-02  0.1183803E+00
         -4   -1    0    0    0  501 -0.00000000000E+00  0.00000000000E+00  0.44894298813E+02  0.44912258527E+02  0.12700000000E+01 0.  1.
          4   -1    0    0  501    0  0.00000000000E+00 -0.00000000000E+00 -0.60375567135E+03  0.60375700708E+03  0.12700000000E+01 0.  1.
    8880022    1    1    2    0    0 -0.56972968990E+02 -0.19851285933E+02 -0.26183452229E+03  0.30917464777E+03  0.15294330000E+03 0.  1.
    8880022    1    1    2    0    0  0.56972968990E+02  0.19851285933E+02 -0.29702685025E+03  0.33949461783E+03  0.15294330000E+03 0.  1.
<mgrwt>
<rscale>  0 0.16441303E+03</rscale>
<asrwt>0</asrwt>
<pdfrwt beam="1">  1        4 0.92886966E-01 0.16441303E+03</pdfrwt>
<pdfrwt beam="2">  1       -4 0.69082999E-02 0.16441303E+03</pdfrwt>
<totfact> 0.24645341E+02</totfact>
</mgrwt>
</event>
<event>
 4    1  0.8653772E-009  0.1585666E+03  0.7818608E-02  0.1190325E+00
         -4   -1    0    0    0  501 -0.00000000000E+00  0.00000000000E+00  0.18174007089E+03  0.18174450822E+03  0.12700000000E+01 0.  1.
          4   -1    0    0  501    0  0.00000000000E+00 -0.00000000000E+00 -0.16286189136E+03  0.16286684303E+03  0.12700000000E+01 0.  1.
    8880022    1    1    2    0    0  0.41385047263E+02 -0.62438717450E+01 -0.57420489045E+02  0.16864303617E+03  0.15294330000E+03 0.  0.
    8880022    1    1    2    0    0 -0.41385047263E+02  0.62438717450E+01  0.76298668576E+02  0.17596831508E+03  0.15294330000E+03 0.  0.
<mgrwt>
<rscale>  0 0.15856658E+03</rscale>
<asrwt>0</asrwt>
<pdfrwt beam="1">  1        4 0.25056398E-01 0.15856658E+03</pdfrwt>
<pdfrwt beam="2">  1       -4 0.27960733E-01 0.15856658E+03</pdfrwt>
<totfact> 0.31024832E+02</totfact>
</mgrwt>
</event>
<event>
 4    1  0.8653772E-009  0.1694680E+03  0.7818608E-02  0.1178404E+00
         -4   -1    0    0    0  501 -0.00000000000E+00  0.00000000000E+00  0.14933413384E+03  0.14933953404E+03  0.12700000000E+01 0. -1.
          4   -1    0    0  501    0  0.00000000000E+00 -0.00000000000E+00 -0.29236505921E+03  0.29236781756E+03  0.12700000000E+01 0. -1.
    8880022    1    1    2    0    0 -0.51084132873E+02 -0.52135977735E+02 -0.20071613579E+03  0.26269063361E+03  0.15294330000E+03 0.  0.
    8880022    1    1    2    0    0  0.51084132873E+02  0.52135977735E+02  0.57685210417E+02  0.17901671799E+03  0.15294330000E+03 0.  0.
<mgrwt>
<rscale>  0 0.16946800E+03</rscale>
<asrwt>0</asrwt>
<pdfrwt beam="1">  1        4 0.44979867E-01 0.16946800E+03</pdfrwt>
<pdfrwt beam="2">  1       -4 0.22975110E-01 0.16946800E+03</pdfrwt>
<totfact> 0.14612170E+02</totfact>
</mgrwt>
</event>
<event>
 4    1  0.8653772E-009  0.2644236E+03  0.7818608E-02  0.1104514E+00
         -4   -1    0    0    0  501 -0.00000000000E+00  0.00000000000E+00  0.29586930357E+03  0.29587202925E+03  0.12700000000E+01 0.  1.
          4   -1    0    0  501    0  0.00000000000E+00 -0.00000000000E+00 -0.23966485797E+03  0.23966822286E+03  0.12700000000E+01 0.  1.
    8880022    1    1    2    0    0  0.20001581347E+03  0.80758189468E+02  0.59761046059E+02  0.27109268977E+03  0.15294330000E+03 0.  0.
    8880022    1    1    2    0    0 -0.20001581347E+03 -0.80758189468E+02 -0.35566004672E+01  0.26444756234E+03  0.15294330000E+03 0.  0.
<mgrwt>
<rscale>  0 0.26442364E+03</rscale>
<asrwt>0</asrwt>
<pdfrwt beam="1">  1        4 0.36871985E-01 0.26442364E+03</pdfrwt>
<pdfrwt beam="2">  1       -4 0.45518823E-01 0.26442364E+03</pdfrwt>
<totfact> 0.61544436E+01</totfact>
</mgrwt>
</event>
<event>
 4    1  0.8653772E-009  0.3076852E+03  0.7818608E-02  0.1081461E+00
          4   -1    0    0  501    0  0.00000000000E+00  0.00000000000E+00  0.19409397686E+03  0.19409813176E+03  0.12700000000E+01 0.  1.
         -4   -1    0    0    0  501 -0.00000000000E+00 -0.00000000000E+00 -0.48894256494E+03  0.48894421431E+03  0.12700000000E+01 0.  1.
    8880022    1    1    2    0    0 -0.10551878129E+03 -0.24524331933E+03 -0.16433328868E+03  0.34882027129E+03  0.15294330000E+03 0.  0.
    8880022    1    1    2    0    0  0.10551878129E+03  0.24524331933E+03 -0.13051529939E+03  0.33422207478E+03  0.15294330000E+03 0.  0.
<mgrwt>
<rscale>  0 0.30768515E+03</rscale>
<asrwt>0</asrwt>
<pdfrwt beam="1">  1        4 0.29861058E-01 0.30768515E+03</pdfrwt>
<pdfrwt beam="2">  1       -4 0.75222379E-01 0.30768515E+03</pdfrwt>
<totfact> 0.32391795E+01</totfact>
</mgrwt>
</event>
<event>
 4    1  0.8653772E-009  0.1947251E+03  0.7818608E-02  0.1154267E+00
         -4   -1    0    0    0  501 -0.00000000000E+00  0.00000000000E+00  0.10540223724E+03  0.10540988813E+03  0.12700000000E+01 0. -1.
          4   -1    0    0  501    0  0.00000000000E+00 -0.00000000000E+00 -0.41713184880E+03  0.41713378212E+03  0.12700000000E+01 0. -1.
    8880022    1    1    2    0    0 -0.47835029528E+02  0.11062555477E+03 -0.25279122781E+03  0.31909443945E+03  0.15294330000E+03 0.  0.
    8880022    1    1    2    0    0  0.47835029528E+02 -0.11062555477E+03 -0.58938383754E+02  0.20344923080E+03  0.15294330000E+03 0.  0.
<mgrwt>
<rscale>  0 0.19472508E+03</rscale>
<asrwt>0</asrwt>
<pdfrwt beam="1">  1        4 0.64174867E-01 0.19472508E+03</pdfrwt>
<pdfrwt beam="2">  1       -4 0.16216466E-01 0.19472508E+03</pdfrwt>
<totfact> 0.13375527E+02</totfact>
</mgrwt>
</event>
<event>
 4    1  0.8653772E-009  0.2063201E+03  0.7818608E-02  0.1144514E+00
          4   -1    0    0  501    0  0.00000000000E+00  0.00000000000E+00  0.32300724954E+02  0.32325682244E+02  0.12700000000E+01 0. -1.
         -4   -1    0    0    0  501 -0.00000000000E+00 -0.00000000000E+00 -0.14440631436E+04  0.14440637021E+04  0.12700000000E+01 0. -1.
    8880022    1    1    2    0    0  0.50784419212E+02 -0.12883046228E+03 -0.48719694744E+03  0.52908304061E+03  0.15294330000E+03 0.  0.
    8880022    1    1    2    0    0 -0.50784419212E+02  0.12883046228E+03 -0.92456547122E+03  0.94730634371E+03  0.15294330000E+03 0.  0.
<mgrwt>
<rscale>  0 0.20632014E+03</rscale>
<asrwt>0</asrwt>
<pdfrwt beam="1">  1        4 0.49713062E-02 0.20632014E+03</pdfrwt>
<pdfrwt beam="2">  1       -4 0.22216547E+00 0.20632014E+03</pdfrwt>
<totfact> 0.45594289E+01</totfact>
</mgrwt>
</event>
<event>
 4    1  0.8653772E-009  0.1654979E+03  0.7818608E-02  0.1182626E+00
          4   -1    0    0  501    0  0.00000000000E+00  0.00000000000E+00  0.28097139981E+03  0.28097427001E+03  0.12700000000E+01 0. -1.
         -4   -1    0    0    0  501 -0.00000000000E+00 -0.00000000000E+00 -0.97736567249E+02  0.97744818162E+02  0.12700000000E+01 0. -1.
    8880022    1    1    2    0    0  0.25222159104E+00 -0.63228488751E+02  0.81806132131E+02  0.18461257182E+03  0.15294330000E+03 0. -1.
    8880022    1    1    2    0    0 -0.25222159104E+00  0.63228488751E+02  0.10142870043E+03  0.19410651635E+03  0.15294330000E+03 0. -1.
<mgrwt>
<rscale>  0 0.16549791E+03</rscale>
<asrwt>0</asrwt>
<pdfrwt beam="1">  1        4 0.43227224E-01 0.16549791E+03</pdfrwt>
<pdfrwt beam="2">  1       -4 0.15037251E-01 0.16549791E+03</pdfrwt>
<totfact> 0.33712089E+02</totfact>
</mgrwt>
</event>
<event>
 4    1  0.8653772E-009  0.2550488E+03  0.7818608E-02  0.1110155E+00
          4   -1    0    0  501    0  0.00000000000E+00  0.00000000000E+00  0.21369260238E+03  0.21369637623E+03  0.12700000000E+01 0.  1.
         -4   -1    0    0    0  501 -0.00000000000E+00 -0.00000000000E+00 -0.31533471503E+03  0.31533727247E+03  0.12700000000E+01 0.  1.
    8880022    1    1    2    0    0 -0.52343305645E+02 -0.19727754841E+03 -0.15664455942E+01  0.25505364047E+03  0.15294330000E+03 0.  0.
    8880022    1    1    2    0    0  0.52343305645E+02  0.19727754841E+03 -0.10007566706E+03  0.27398000822E+03  0.15294330000E+03 0.  0.
<mgrwt>
<rscale>  0 0.25504883E+03</rscale>
<asrwt>0</asrwt>
<pdfrwt beam="1">  1        4 0.32876272E-01 0.25504883E+03</pdfrwt>
<pdfrwt beam="2">  1       -4 0.48513520E-01 0.25504883E+03</pdfrwt>
<totfact> 0.67327585E+01</totfact>
</mgrwt>
</event>
<event>
 4    1  0.8653772E-009  0.1810230E+03  0.7818608E-02  0.1166817E+00
          4   -1    0    0  501    0  0.00000000000E+00  0.00000000000E+00  0.65665036865E+03  0.65665159678E+03  0.12700000000E+01 0. -1.
         -4   -1    0    0    0  501 -0.00000000000E+00 -0.00000000000E+00 -0.57992129429E+02  0.58006033959E+02  0.12700000000E+01 0. -1.
    8880022    1    1    2    0    0  0.90895526417E+02 -0.33401826239E+02  0.16582220796E+03  0.24549202917E+03  0.15294330000E+03 0.  0.
    8880022    1    1    2    0    0 -0.90895526417E+02  0.33401826239E+02  0.43283603126E+03  0.46916560157E+03  0.15294330000E+03 0.  0.
<mgrwt>
<rscale>  0 0.18102301E+03</rscale>
<asrwt>0</asrwt>
<pdfrwt beam="1">  1        4 0.10102429E+00 0.18102301E+03</pdfrwt>
<pdfrwt beam="2">  1       -4 0.89230304E-02 0.18102301E+03</pdfrwt>
<totfact> 0.13464403E+02</totfact>
</mgrwt>
</event>
<event>
 4    1  0.8653772E-009  0.1782666E+03  0.7818608E-02  0.1169491E+00
          4   -1    0    0  501    0  0.00000000000E+00  0.00000000000E+00  0.31322081661E+03  0.31322339130E+03  0.12700000000E+01 0.  1.
         -4   -1    0    0    0  501 -0.00000000000E+00 -0.00000000000E+00 -0.10153462901E+03  0.10154257131E+03  0.12700000000E+01 0.  1.
    8880022    1    1    2    0    0 -0.25830662329E+02  0.87864117693E+02  0.99918104882E+02  0.20435901495E+03  0.15294330000E+03 0.  0.
    8880022    1    1    2    0    0  0.25830662329E+02 -0.87864117693E+02  0.11176808271E+03  0.21040694766E+03  0.15294330000E+03 0.  0.
<mgrwt>
<rscale>  0 0.17826660E+03</rscale>
<asrwt>0</asrwt>
<pdfrwt beam="1">  1        4 0.48188626E-01 0.17826660E+03</pdfrwt>
<pdfrwt beam="2">  1       -4 0.15621521E-01 0.17826660E+03</pdfrwt>
<totfact> 0.25633389E+02</totfact>
</mgrwt>
</event>
<event>
 4    1  0.8653772E-009  0.2282520E+03  0.7818608E-02  0.1127876E+00
          4   -1    0    0  501    0  0.00000000000E+00  0.00000000000E+00  0.24851179084E+03  0.24851503594E+03  0.12700000000E+01 0. -1.
         -4   -1    0    0    0  501 -0.00000000000E+00 -0.00000000000E+00 -0.23907369066E+03  0.23907706387E+03  0.12700000000E+01 0. -1.
    8880022    1    1    2    0    0 -0.11110568146E+03  0.12791737871E+03  0.90264389827E+02  0.24545191243E+03  0.15294330000E+03 0.  0.
    8880022    1    1    2    0    0  0.11110568146E+03 -0.12791737871E+03 -0.80826289644E+02  0.24214018738E+03  0.15294330000E+03 0.  0.
<mgrwt>
<rscale>  0 0.22825201E+03</rscale>
<asrwt>0</asrwt>
<pdfrwt beam="1">  1        4 0.38233092E-01 0.22825201E+03</pdfrwt>
<pdfrwt beam="2">  1       -4 0.36781077E-01 0.22825201E+03</pdfrwt>
<totfact> 0.86225917E+01</totfact>
</mgrwt>
</event>
<event>
 4    1  0.8653772E-009  0.1551958E+03  0.7818608E-02  0.1194230E+00
          4   -1    0    0  501    0  0.00000000000E+00  0.00000000000E+00  0.27295431422E+03  0.27295726872E+03  0.12700000000E+01 0. -1.
         -4   -1    0    0    0  501 -0.00000000000E+00 -0.00000000000E+00 -0.88536588499E+02  0.88545696694E+02  0.12700000000E+01 0. -1.
    8880022    1    1    2    0    0 -0.13812007977E+02  0.22434290356E+02  0.81622694449E+02  0.17535103710E+03  0.15294330000E+03 0.  0.
    8880022    1    1    2    0    0  0.13812007977E+02 -0.22434290356E+02  0.10279503127E+03  0.18615192832E+03  0.15294330000E+03 0.  0.
<mgrwt>
<rscale>  0 0.15519575E+03</rscale>
<asrwt>0</asrwt>
<pdfrwt beam="1">  1        4 0.41993900E-01 0.15519575E+03</pdfrwt>
<pdfrwt beam="2">  1       -4 0.13621941E-01 0.15519575E+03</pdfrwt>
<totfact> 0.41957745E+02</totfact>
</mgrwt>
</event>
<event>
 4    1  0.8653772E-009  0.1846757E+03  0.7818608E-02  0.1163353E+00
         -4   -1    0    0    0  501 -0.00000000000E+00  0.00000000000E+00  0.93876030616E+02  0.93884620808E+02  0.12700000000E+01 0. -1.
          4   -1    0    0  501    0  0.00000000000E+00 -0.00000000000E+00 -0.50165155233E+03  0.50165315992E+03  0.12700000000E+01 0. -1.
    8880022    1    1    2    0    0 -0.33157501656E+02  0.98051179849E+02 -0.47498133965E+02  0.19068607587E+03  0.15294330000E+03 0.  0.
    8880022    1    1    2    0    0  0.33157501656E+02 -0.98051179849E+02 -0.36027738775E+03  0.40485170485E+03  0.15294330000E+03 0.  0.
<mgrwt>
<rscale>  0 0.18467568E+03</rscale>
<asrwt>0</asrwt>
<pdfrwt beam="1">  1        4 0.77177945E-01 0.18467568E+03</pdfrwt>
<pdfrwt beam="2">  1       -4 0.14443251E-01 0.18467568E+03</pdfrwt>
<totfact> 0.10896149E+02</totfact>
</mgrwt>
</event>
<event>
 4    1  0.8653772E-009  0.1839084E+03  0.7818608E-02  0.1164073E+00
          4   -1    0    0  501    0  0.00000000000E+00  0.00000000000E+00  0.15314239290E+03  0.15314765882E+03  0.12700000000E+01 0.  1.
         -4   -1    0    0    0  501 -0.00000000000E+00 -0.00000000000E+00 -0.47137301257E+03  0.47137472342E+03  0.12700000000E+01 0.  1.
    8880022    1    1    2    0    0 -0.62352547326E+02  0.80887667026E+02  0.68531022680E+02  0.19626209242E+03  0.15294330000E+03 0.  0.
    8880022    1    1    2    0    0  0.62352547326E+02 -0.80887667026E+02 -0.38676164235E+03  0.42826028983E+03  0.15294330000E+03 0.  0.
<mgrwt>
<rscale>  0 0.18390842E+03</rscale>
<asrwt>0</asrwt>
<pdfrwt beam="1">  1        4 0.23560905E-01 0.18390842E+03</pdfrwt>
<pdfrwt beam="2">  1       -4 0.72519461E-01 0.18390842E+03</pdfrwt>
<totfact> 0.51867404E+01</totfact>
</mgrwt>
</event>
<event>
 4    1  0.8653772E-009  0.1603231E+03  0.7818608E-02  0.1188332E+00
         -4   -1    0    0    0  501 -0.00000000000E+00  0.00000000000E+00  0.27099741236E+03  0.27100038821E+03  0.12700000000E+01 0.  1.
          4   -1    0    0  501    0  0.00000000000E+00 -0.00000000000E+00 -0.14597067732E+03  0.14597620196E+03  0.12700000000E+01 0.  1.
    8880022    1    1    2    0    0  0.21613559053E+02  0.42949910737E+02  0.18590189658E+03  0.24548525197E+03  0.15294330000E+03 0.  0.
    8880022    1    1    2    0    0 -0.21613559053E+02 -0.42949910737E+02 -0.60875161545E+02  0.17149133819E+03  0.15294330000E+03 0.  0.
<mgrwt>
<rscale>  0 0.16032309E+03</rscale>
<asrwt>0</asrwt>
<pdfrwt beam="1">  1        4 0.22457681E-01 0.16032309E+03</pdfrwt>
<pdfrwt beam="2">  1       -4 0.41692563E-01 0.16032309E+03</pdfrwt>
<totfact> 0.17581149E+02</totfact>
</mgrwt>
</event>
<event>
 4    1  0.8653772E-009  0.2423417E+03  0.7818608E-02  0.1118243E+00
         -4   -1    0    0    0  501 -0.00000000000E+00  0.00000000000E+00  0.92658201201E+02  0.92666904285E+02  0.12700000000E+01 0. -1.
          4   -1    0    0  501    0  0.00000000000E+00 -0.00000000000E+00 -0.66000070420E+03  0.66000192609E+03  0.12700000000E+01 0. -1.
    8880022    1    1    2    0    0 -0.16239388427E+03 -0.94689364740E+02 -0.35866661805E+03  0.43286400331E+03  0.15294330000E+03 0. -1.
    8880022    1    1    2    0    0  0.16239388427E+03  0.94689364740E+02 -0.20867588495E+03  0.31980482707E+03  0.15294330000E+03 0. -1.
<mgrwt>
<rscale>  0 0.24234171E+03</rscale>
<asrwt>0</asrwt>
<pdfrwt beam="1">  1        4 0.10153933E+00 0.24234171E+03</pdfrwt>
<pdfrwt beam="2">  1       -4 0.14255872E-01 0.24234171E+03</pdfrwt>
<totfact> 0.61786065E+01</totfact>
</mgrwt>
</event>
<event>
 4    1  0.8653772E-009  0.1843225E+03  0.7818608E-02  0.1163684E+00
         -4   -1    0    0    0  501 -0.00000000000E+00  0.00000000000E+00  0.96046941112E+02  0.96055337160E+02  0.12700000000E+01 0. -1.
          4   -1    0    0  501    0  0.00000000000E+00 -0.00000000000E+00 -0.58779296285E+03  0.58779433485E+03  0.12700000000E+01 0. -1.
    8880022    1    1    2    0    0  0.54465150129E+02  0.87273540613E+02 -0.30096916020E+02  0.18676348904E+03  0.15294330000E+03 0.  0.
    8880022    1    1    2    0    0 -0.54465150129E+02 -0.87273540613E+02 -0.46164910572E+03  0.49708618297E+03  0.15294330000E+03 0.  0.
<mgrwt>
<rscale>  0 0.18432248E+03</rscale>
<asrwt>0</asrwt>
<pdfrwt beam="1">  1        4 0.90430436E-01 0.18432248E+03</pdfrwt>
<pdfrwt beam="2">  1       -4 0.14777204E-01 0.18432248E+03</pdfrwt>
<totfact> 0.73338923E+01</totfact>
</mgrwt>
</event>
<event>
 4    1  0.8653772E-009  0.1639617E+03  0.7818608E-02  0.1184295E+00
          4   -1    0    0  501    0  0.00000000000E+00  0.00000000000E+00  0.30097972121E+03  0.30098240062E+03  0.12700000000E+01 0. -1.
         -4   -1    0    0    0  501 -0.00000000000E+00 -0.00000000000E+00 -0.10552636495E+03  0.10553400684E+03  0.12700000000E+01 0. -1.
    8880022    1    1    2    0    0  0.16241776094E+02  0.56815282606E+02  0.17739637614E+03  0.24156344696E+03  0.15294330000E+03 0.  1.
    8880022    1    1    2    0    0 -0.16241776094E+02 -0.56815282606E+02  0.18056980130E+02  0.16495296049E+03  0.15294330000E+03 0.  1.
<mgrwt>
<rscale>  0 0.16396166E+03</rscale>
<asrwt>0</asrwt>
<pdfrwt beam="1">  1        4 0.46305366E-01 0.16396166E+03</pdfrwt>
<pdfrwt beam="2">  1       -4 0.16235620E-01 0.16396166E+03</pdfrwt>
<totfact> 0.25613441E+02</totfact>
</mgrwt>
</event>
<event>
 4    1  0.8653772E-009  0.1931425E+03  0.7818608E-02  0.1155657E+00
          4   -1    0    0  501    0  0.00000000000E+00  0.00000000000E+00  0.15960476334E+03  0.15960981606E+03  0.12700000000E+01 0.  1.
         -4   -1    0    0    0  501 -0.00000000000E+00 -0.00000000000E+00 -0.25314747026E+03  0.25315065593E+03  0.12700000000E+01 0.  1.
    8880022    1    1    2    0    0 -0.54067175746E+02  0.10482903742E+03 -0.10394742657E+03  0.21933788338E+03  0.15294330000E+03 0.  0.
    8880022    1    1    2    0    0  0.54067175746E+02 -0.10482903742E+03  0.10404719655E+02  0.19342258861E+03  0.15294330000E+03 0.  0.
<mgrwt>
<rscale>  0 0.19314254E+03</rscale>
<asrwt>0</asrwt>
<pdfrwt beam="1">  1        4 0.24555213E-01 0.19314254E+03</pdfrwt>
<pdfrwt beam="2">  1       -4 0.38946398E-01 0.19314254E+03</pdfrwt>
<totfact> 0.17567726E+02</totfact>
</mgrwt>
</event>
<event>
 4    1  0.8653772E-009  0.3998148E+03  0.7818608E-02  0.1043844E+00
         -4   -1    0    0    0  501 -0.00000000000E+00  0.00000000000E+00  0.46760795651E+03  0.46760968114E+03  0.12700000000E+01 0. -1.
          4   -1    0    0  501    0  0.00000000000E+00 -0.00000000000E+00 -0.35579339621E+03  0.35579566283E+03  0.12700000000E+01 0. -1.
    8880022    1    1    2    0    0  0.53049600821E+02 -0.36557619757E+03 -0.25604170874E+02  0.40063380156E+03  0.15294330000E+03 0.  0.
    8880022    1    1    2    0    0 -0.53049600821E+02  0.36557619757E+03  0.13741873118E+03  0.42277154240E+03  0.15294330000E+03 0.  0.
<mgrwt>
<rscale>  0 0.39981479E+03</rscale>
<asrwt>0</asrwt>
<pdfrwt beam="1">  1        4 0.54737752E-01 0.39981479E+03</pdfrwt>
<pdfrwt beam="2">  1       -4 0.71939993E-01 0.39981479E+03</pdfrwt>
<totfact> 0.10792647E+01</totfact>
</mgrwt>
</event>
<event>
 4    1  0.8653772E-009  0.3025110E+03  0.7818608E-02  0.1083992E+00
         -4   -1    0    0    0  501 -0.00000000000E+00  0.00000000000E+00  0.20732753798E+03  0.20733142768E+03  0.12700000000E+01 0.  1.
          4   -1    0    0  501    0  0.00000000000E+00 -0.00000000000E+00 -0.47229244503E+03  0.47229415255E+03  0.12700000000E+01 0.  1.
    8880022    1    1    2    0    0 -0.12046303281E+02 -0.26072232408E+03 -0.45552243726E+02  0.30592140105E+03  0.15294330000E+03 0.  0.
    8880022    1    1    2    0    0  0.12046303281E+02  0.26072232408E+03 -0.21941266333E+03  0.37370417919E+03  0.15294330000E+03 0.  0.
<mgrwt>
<rscale>  0 0.30251099E+03</rscale>
<asrwt>0</asrwt>
<pdfrwt beam="1">  1        4 0.72660806E-01 0.30251099E+03</pdfrwt>
<pdfrwt beam="2">  1       -4 0.31896975E-01 0.30251099E+03</pdfrwt>
<totfact> 0.30754461E+01</totfact>
</mgrwt>
</event>
<event>
 4    1  0.8653772E-009  0.1994760E+03  0.7818608E-02  0.1150182E+00
          4   -1    0    0  501    0  0.00000000000E+00  0.00000000000E+00  0.10196179258E+03  0.10196970161E+03  0.12700000000E+01 0.  1.
         -4   -1    0    0    0  501 -0.00000000000E+00 -0.00000000000E+00 -0.46763999700E+03  0.46764172150E+03  0.12700000000E+01 0.  1.
    8880022    1    1    2    0    0 -0.12318275478E+03 -0.35000705748E+02 -0.66962588450E+02  0.21041549787E+03  0.15294330000E+03 0.  1.
    8880022    1    1    2    0    0  0.12318275478E+03  0.35000705748E+02 -0.29871561596E+03  0.35919592524E+03  0.15294330000E+03 0.  1.
<mgrwt>
<rscale>  0 0.19947605E+03</rscale>
<asrwt>0</asrwt>
<pdfrwt beam="1">  1        4 0.15687171E-01 0.19947605E+03</pdfrwt>
<pdfrwt beam="2">  1       -4 0.71945354E-01 0.19947605E+03</pdfrwt>
<totfact> 0.11113867E+02</totfact>
</mgrwt>
</event>
<event>
 4    1  0.8653772E-009  0.2039612E+03  0.7818608E-02  0.1146439E+00
          4   -1    0    0  501    0  0.00000000000E+00  0.00000000000E+00  0.18471551493E+04  0.18471555859E+04  0.12700000000E+01 0.  1.
         -4   -1    0    0    0  501 -0.00000000000E+00 -0.00000000000E+00 -0.34161860821E+02  0.34185459406E+02  0.12700000000E+01 0.  1.
    8880022    1    1    2    0    0  0.65713809219E+02 -0.11785679213E+03  0.14557917151E+04  0.14700101016E+04  0.15294330000E+03 0. -1.
    8880022    1    1    2    0    0 -0.65713809219E+02  0.11785679213E+03  0.35720157345E+03  0.41133094373E+03  0.15294330000E+03 0. -1.
<mgrwt>
<rscale>  0 0.20396122E+03</rscale>
<asrwt>0</asrwt>
<pdfrwt beam="1">  1        4 0.28417954E+00 0.20396122E+03</pdfrwt>
<pdfrwt beam="2">  1       -4 0.52575201E-02 0.20396122E+03</pdfrwt>
<totfact> 0.17946968E+01</totfact>
</mgrwt>
</event>
<event>
 4    1  0.8653772E-009  0.1654841E+03  0.7818608E-02  0.1182641E+00
          4   -1    0    0  501    0  0.00000000000E+00  0.00000000000E+00  0.32695170789E+02  0.32719827215E+02  0.12700000000E+01 0. -1.
         -4   -1    0    0    0  501 -0.00000000000E+00 -0.00000000000E+00 -0.88658028710E+03  0.88658119672E+03  0.12700000000E+01 0. -1.
    8880022    1    1    2    0    0  0.53430104207E+02  0.33742698494E+02 -0.31851414911E+03  0.35893768531E+03  0.15294330000E+03 0. -1.
    8880022    1    1    2    0    0 -0.53430104207E+02 -0.33742698494E+02 -0.53537096720E+03  0.56036333862E+03  0.15294330000E+03 0. -1.
<mgrwt>
<rscale>  0 0.16548413E+03</rscale>
<asrwt>0</asrwt>
<pdfrwt beam="1">  1        4 0.50319936E-02 0.16548413E+03</pdfrwt>
<pdfrwt beam="2">  1       -4 0.13639892E+00 0.16548413E+03</pdfrwt>
<totfact> 0.16551847E+02</totfact>
</mgrwt>
</event>
<event>
 4    1  0.8653772E-009  0.1739552E+03  0.7818608E-02  0.1173785E+00
         -4   -1    0    0    0  501 -0.00000000000E+00  0.00000000000E+00  0.26931532907E+02  0.26961460730E+02  0.12700000000E+01 0.  1.
          4   -1    0    0  501    0  0.00000000000E+00 -0.00000000000E+00 -0.11248924345E+04  0.11248931514E+04  0.12700000000E+01 0.  1.
    8880022    1    1    2    0    0 -0.82850469576E+02  0.21390075363E+01 -0.57290242733E+03  0.59873000586E+03  0.15294330000E+03 0.  0.
    8880022    1    1    2    0    0  0.82850469576E+02 -0.21390075363E+01 -0.52505847422E+03  0.55312460624E+03  0.15294330000E+03 0.  0.
<mgrwt>
<rscale>  0 0.17395525E+03</rscale>
<asrwt>0</asrwt>
<pdfrwt beam="1">  1        4 0.17306270E+00 0.17395525E+03</pdfrwt>
<pdfrwt beam="2">  1       -4 0.41456709E-02 0.17395525E+03</pdfrwt>
<totfact> 0.12283955E+02</totfact>
</mgrwt>
</event>
<event>
 4    1  0.8653772E-009  0.1838074E+03  0.7818608E-02  0.1164168E+00
          4   -1    0    0  501    0  0.00000000000E+00  0.00000000000E+00  0.93247364476E+02  0.93256012577E+02  0.12700000000E+01 0. -1.
         -4   -1    0    0    0  501 -0.00000000000E+00 -0.00000000000E+00 -0.37900319703E+03  0.37900532484E+03  0.12700000000E+01 0. -1.
    8880022    1    1    2    0    0  0.10104325431E+03 -0.13555500758E+02 -0.19246213388E+03  0.26613308106E+03  0.15294330000E+03 0.  1.
    8880022    1    1    2    0    0 -0.10104325431E+03  0.13555500758E+02 -0.93293698674E+02  0.20612825636E+03  0.15294330000E+03 0.  1.
<mgrwt>
<rscale>  0 0.18380736E+03</rscale>
<asrwt>0</asrwt>
<pdfrwt beam="1">  1        4 0.14346578E-01 0.18380736E+03</pdfrwt>
<pdfrwt beam="2">  1       -4 0.58309012E-01 0.18380736E+03</pdfrwt>
<totfact> 0.20162876E+02</totfact>
</mgrwt>
</event>
<event>
 4    1  0.8653772E-009  0.2636248E+03  0.7818608E-02  0.1104985E+00
          4   -1    0    0  501    0  0.00000000000E+00  0.00000000000E+00  0.52857990783E+03  0.52858143352E+03  0.12700000000E+01 0.  1.
         -4   -1    0    0    0  501 -0.00000000000E+00 -0.00000000000E+00 -0.13232999894E+03  0.13233609303E+03  0.12700000000E+01 0.  1.
    8880022    1    1    2    0    0 -0.21067090770E+03  0.41522854064E+02  0.22467326932E+03  0.34637567715E+03  0.15294330000E+03 0.  0.
    8880022    1    1    2    0    0  0.21067090770E+03 -0.41522854064E+02  0.17157663957E+03  0.31454184940E+03  0.15294330000E+03 0.  0.
<mgrwt>
<rscale>  0 0.26362479E+03</rscale>
<asrwt>0</asrwt>
<pdfrwt beam="1">  1        4 0.81320571E-01 0.26362479E+03</pdfrwt>
<pdfrwt beam="2">  1       -4 0.20359048E-01 0.26362479E+03</pdfrwt>
<totfact> 0.54865876E+01</totfact>
</mgrwt>
</event>
<event>
 4    1  0.8653772E-009  0.1650580E+03  0.7818608E-02  0.1183102E+00
          4   -1    0    0  501    0  0.00000000000E+00  0.00000000000E+00  0.31497968869E+02  0.31523561709E+02  0.12700000000E+01 0.  1.
         -4   -1    0    0    0  501 -0.00000000000E+00 -0.00000000000E+00 -0.10888422658E+04  0.10888430065E+04  0.12700000000E+01 0.  1.
    8880022    1    1    2    0    0  0.57147491623E+02  0.24220801385E+02 -0.27444111655E+03  0.32025312252E+03  0.15294330000E+03 0.  0.
    8880022    1    1    2    0    0 -0.57147491623E+02 -0.24220801385E+02 -0.78290318041E+03  0.80011344566E+03  0.15294330000E+03 0.  0.
<mgrwt>
<rscale>  0 0.16505798E+03</rscale>
<asrwt>0</asrwt>
<pdfrwt beam="1">  1        4 0.48478678E-02 0.16505798E+03</pdfrwt>
<pdfrwt beam="2">  1       -4 0.16751619E+00 0.16505798E+03</pdfrwt>
<totfact> 0.10353338E+02</totfact>
</mgrwt>
</event>
<event>
 4    1  0.8653772E-009  0.1912798E+03  0.7818608E-02  0.1157312E+00
          4   -1    0    0  501    0  0.00000000000E+00  0.00000000000E+00  0.78154699513E+03  0.78154802699E+03  0.12700000000E+01 0.  1.
         -4   -1    0    0    0  501 -0.00000000000E+00 -0.00000000000E+00 -0.66209905529E+02  0.66222084610E+02  0.12700000000E+01 0.  1.
    8880022    1    1    2    0    0  0.47858320802E+02 -0.10443132187E+03  0.12821788644E+03  0.23027765692E+03  0.15294330000E+03 0.  0.
    8880022    1    1    2    0    0 -0.47858320802E+02  0.10443132187E+03  0.58711920316E+03  0.61749245468E+03  0.15294330000E+03 0.  0.
<mgrwt>
<rscale>  0 0.19127983E+03</rscale>
<asrwt>0</asrwt>
<pdfrwt beam="1">  1        4 0.12023902E+00 0.19127983E+03</pdfrwt>
<pdfrwt beam="2">  1       -4 0.10187155E-01 0.19127983E+03</pdfrwt>
<totfact> 0.71700246E+01</totfact>
</mgrwt>
</event>
<event>
 4    1  0.8653772E-009  0.1850897E+03  0.7818608E-02  0.1162966E+00
         -4   -1    0    0    0  501 -0.00000000000E+00  0.00000000000E+00  0.10102402058E+04  0.10102410041E+04  0.12700000000E+01 0.  1.
          4   -1    0    0  501    0  0.00000000000E+00 -0.00000000000E+00 -0.34488995340E+02  0.34512370240E+02  0.12700000000E+01 0.  1.
    8880022    1    1    2    0    0  0.63315055913E+02  0.82811498943E+02  0.55621881626E+03  0.58620607745E+03  0.15294330000E+03 0.  0.
    8880022    1    1    2    0    0 -0.63315055913E+02 -0.82811498943E+02  0.41953239418E+03  0.45854729684E+03  0.15294330000E+03 0.  0.
<mgrwt>
<rscale>  0 0.18508969E+03</rscale>
<asrwt>0</asrwt>
<pdfrwt beam="1">  1        4 0.53078587E-02 0.18508969E+03</pdfrwt>
<pdfrwt beam="2">  1       -4 0.15542343E+00 0.18508969E+03</pdfrwt>
<totfact> 0.11061866E+02</totfact>
</mgrwt>
</event>
<event>
 4    1  0.8653772E-009  0.1808240E+03  0.7818608E-02  0.1167008E+00
         -4   -1    0    0    0  501 -0.00000000000E+00  0.00000000000E+00  0.34561914455E+03  0.34562147789E+03  0.12700000000E+01 0.  1.
          4   -1    0    0  501    0  0.00000000000E+00 -0.00000000000E+00 -0.14669608650E+03  0.14670158382E+03  0.12700000000E+01 0. -1.
    8880022    1    1    2    0    0 -0.39530543737E+02  0.87994407089E+02  0.24615379509E+03  0.30543251860E+03  0.15294330000E+03 0.  0.
    8880022    1    1    2    0    0  0.39530543737E+02 -0.87994407089E+02 -0.47230737047E+02  0.18689054311E+03  0.15294330000E+03 0. -1.
<mgrwt>
<rscale>  0 0.18082404E+03</rscale>
<asrwt>0</asrwt>
<pdfrwt beam="1">  1        4 0.22569231E-01 0.18082404E+03</pdfrwt>
<pdfrwt beam="2">  1       -4 0.53172778E-01 0.18082404E+03</pdfrwt>
<totfact> 0.10833962E+02</totfact>
</mgrwt>
</event>
<event>
 4    1  0.8653772E-009  0.1565035E+03  0.7818608E-02  0.1192702E+00
         -4   -1    0    0    0  501 -0.00000000000E+00  0.00000000000E+00  0.73710539218E+02  0.73721479175E+02  0.12700000000E+01 0. -1.
          4   -1    0    0  501    0  0.00000000000E+00 -0.00000000000E+00 -0.39264674760E+03  0.39264880148E+03  0.12700000000E+01 0. -1.
    8880022    1    1    2    0    0 -0.22609871922E+02 -0.24299977510E+02 -0.68017975448E+02  0.17064522617E+03  0.15294330000E+03 0.  1.
    8880022    1    1    2    0    0  0.22609871922E+02  0.24299977510E+02 -0.25091823294E+03  0.29572505448E+03  0.15294330000E+03 0.  1.
<mgrwt>
<rscale>  0 0.15650351E+03</rscale>
<asrwt>0</asrwt>
<pdfrwt beam="1">  1        4 0.60408190E-01 0.15650351E+03</pdfrwt>
<pdfrwt beam="2">  1       -4 0.11341083E-01 0.15650351E+03</pdfrwt>
<totfact> 0.27371014E+02</totfact>
</mgrwt>
</event>
<event>
 4    1  0.8653772E-009  0.2111315E+03  0.7818608E-02  0.1140673E+00
         -4   -1    0    0    0  501 -0.00000000000E+00  0.00000000000E+00  0.21479286875E+03  0.21479662326E+03  0.12700000000E+01 0. -1.
          4   -1    0    0  501    0  0.00000000000E+00 -0.00000000000E+00 -0.30339750500E+03  0.30340016305E+03  0.12700000000E+01 0. -1.
    8880022    1    1    2    0    0 -0.11916662279E+03 -0.83571404197E+02  0.10134436110E+03  0.23419478245E+03  0.15294330000E+03 0.  0.
    8880022    1    1    2    0    0  0.11916662279E+03  0.83571404197E+02 -0.18994899736E+03  0.28400200386E+03  0.15294330000E+03 0.  0.
<mgrwt>
<rscale>  0 0.21113151E+03</rscale>
<asrwt>0</asrwt>
<pdfrwt beam="1">  1        4 0.46677033E-01 0.21113151E+03</pdfrwt>
<pdfrwt beam="2">  1       -4 0.33045550E-01 0.21113151E+03</pdfrwt>
<totfact> 0.70518958E+01</totfact>
</mgrwt>
</event>
<event>
 4    1  0.8653772E-009  0.1534030E+03  0.7818608E-02  0.1196353E+00
         -4   -1    0    0    0  501 -0.00000000000E+00  0.00000000000E+00  0.53767647235E+02  0.53782643940E+02  0.12700000000E+01 0. -1.
          4   -1    0    0  501    0  0.00000000000E+00 -0.00000000000E+00 -0.44184268815E+03  0.44184451335E+03  0.12700000000E+01 0. -1.
    8880022    1    1    2    0    0 -0.11827501179E+02  0.96868014158E+00 -0.21834072638E+03  0.26684293871E+03  0.15294330000E+03 0.  1.
    8880022    1    1    2    0    0  0.11827501179E+02 -0.96868014158E+00 -0.16973431453E+03  0.22878421858E+03  0.15294330000E+03 0.  1.
<mgrwt>
<rscale>  0 0.15340300E+03</rscale>
<asrwt>0</asrwt>
<pdfrwt beam="1">  1        4 0.67977090E-01 0.15340300E+03</pdfrwt>
<pdfrwt beam="2">  1       -4 0.82732400E-02 0.15340300E+03</pdfrwt>
<totfact> 0.36093491E+02</totfact>
</mgrwt>
</event>
<event>
 4    1  0.8653772E-009  0.2581619E+03  0.7818608E-02  0.1108253E+00
          4   -1    0    0  501    0  0.00000000000E+00  0.00000000000E+00  0.57820528416E+03  0.57820667891E+03  0.12700000000E+01 0. -1.
         -4   -1    0    0    0  501 -0.00000000000E+00 -0.00000000000E+00 -0.16394497084E+03  0.16394988979E+03  0.12700000000E+01 0. -1.
    8880022    1    1    2    0    0 -0.42055901723E+02  0.20368408508E+03  0.40933835021E+03  0.48394776924E+03  0.15294330000E+03 0.  0.
    8880022    1    1    2    0    0  0.42055901723E+02 -0.20368408508E+03  0.49219631162E+01  0.25820879946E+03  0.15294330000E+03 0.  0.
<mgrwt>
<rscale>  0 0.25816188E+03</rscale>
<asrwt>0</asrwt>
<pdfrwt beam="1">  1        4 0.88955145E-01 0.25816188E+03</pdfrwt>
<pdfrwt beam="2">  1       -4 0.25222789E-01 0.25816188E+03</pdfrwt>
<totfact> 0.30061074E+01</totfact>
</mgrwt>
</event>
<event>
 4    1  0.8653772E-009  0.2719326E+03  0.7818608E-02  0.1100179E+00
          4   -1    0    0  501    0  0.00000000000E+00  0.00000000000E+00  0.10733760387E+03  0.10734511682E+03  0.12700000000E+01 0. -1.
         -4   -1    0    0    0  501 -0.00000000000E+00 -0.00000000000E+00 -0.75485469252E+03  0.75485576087E+03  0.12700000000E+01 0. -1.
    8880022    1    1    2    0    0 -0.20176134746E+03 -0.99237356496E+02 -0.19632100809E+03  0.33539422399E+03  0.15294330000E+03 0.  0.
    8880022    1    1    2    0    0  0.20176134746E+03  0.99237356496E+02 -0.45119608056E+03  0.52680665370E+03  0.15294330000E+03 0.  0.
<mgrwt>
<rscale>  0 0.27193262E+03</rscale>
<asrwt>0</asrwt>
<pdfrwt beam="1">  1        4 0.16514138E-01 0.27193262E+03</pdfrwt>
<pdfrwt beam="2">  1       -4 0.11613215E+00 0.27193262E+03</pdfrwt>
<totfact> 0.34968086E+01</totfact>
</mgrwt>
</event>
<event>
 4    1  0.8653772E-009  0.1598240E+03  0.7818608E-02  0.1188896E+00
          4   -1    0    0  501    0  0.00000000000E+00  0.00000000000E+00  0.34630081418E+03  0.34630314293E+03  0.12700000000E+01 0.  1.
         -4   -1    0    0    0  501 -0.00000000000E+00 -0.00000000000E+00 -0.75816584323E+02  0.75827220432E+02  0.12700000000E+01 0.  1.
    8880022    1    1    2    0    0 -0.74532110500E+01 -0.45787719304E+02  0.17005535735E+03  0.23337211310E+03  0.15294330000E+03 0.  0.
    8880022    1    1    2    0    0  0.74532110500E+01  0.45787719304E+02  0.10042887251E+03  0.18875825026E+03  0.15294330000E+03 0.  0.
<mgrwt>
<rscale>  0 0.15982402E+03</rscale>
<asrwt>0</asrwt>
<pdfrwt beam="1">  1        4 0.53278046E-01 0.15982402E+03</pdfrwt>
<pdfrwt beam="2">  1       -4 0.11665087E-01 0.15982402E+03</pdfrwt>
<totfact> 0.34026610E+02</totfact>
</mgrwt>
</event>
<event>
 4    1  0.8653772E-009  0.3170227E+03  0.7818608E-02  0.1077028E+00
         -4   -1    0    0    0  501 -0.00000000000E+00  0.00000000000E+00  0.19972625314E+03  0.19973029088E+03  0.12700000000E+01 0. -1.
          4   -1    0    0  501    0  0.00000000000E+00 -0.00000000000E+00 -0.50875622049E+03  0.50875780563E+03  0.12700000000E+01 0. -1.
    8880022    1    1    2    0    0  0.20452496966E+03  0.18783303525E+03 -0.19154933417E+03  0.37039777643E+03  0.15294330000E+03 0.  0.
    8880022    1    1    2    0    0 -0.20452496966E+03 -0.18783303525E+03 -0.11748063318E+03  0.33809032008E+03  0.15294330000E+03 0.  0.
<mgrwt>
<rscale>  0 0.31702266E+03</rscale>
<asrwt>0</asrwt>
<pdfrwt beam="1">  1        4 0.78270620E-01 0.31702266E+03</pdfrwt>
<pdfrwt beam="2">  1       -4 0.30727549E-01 0.31702266E+03</pdfrwt>
<totfact> 0.28131335E+01</totfact>
</mgrwt>
</event>
<event>
 4    1  0.8653772E-009  0.2719797E+03  0.7818608E-02  0.1100152E+00
          4   -1    0    0  501    0  0.00000000000E+00  0.00000000000E+00  0.20124813428E+03  0.20125214148E+03  0.12700000000E+01 0.  1.
         -4   -1    0    0    0  501 -0.00000000000E+00 -0.00000000000E+00 -0.45220315380E+03  0.45220493717E+03  0.12700000000E+01 0.  1.
    8880022    1    1    2    0    0  0.30038522346E+02  0.22288779263E+03  0.15876502725E+02  0.27244264952E+03  0.15294330000E+03 0.  0.
    8880022    1    1    2    0    0 -0.30038522346E+02 -0.22288779263E+03 -0.26683152224E+03  0.38101442913E+03  0.15294330000E+03 0.  0.
<mgrwt>
<rscale>  0 0.27197966E+03</rscale>
<asrwt>0</asrwt>
<pdfrwt beam="1">  1        4 0.30961697E-01 0.27197966E+03</pdfrwt>
<pdfrwt beam="2">  1       -4 0.69570161E-01 0.27197966E+03</pdfrwt>
<totfact> 0.35480208E+01</totfact>
</mgrwt>
</event>
<event>
 4    1  0.8653772E-009  0.1603341E+03  0.7818608E-02  0.1188320E+00
         -4   -1    0    0    0  501 -0.00000000000E+00  0.00000000000E+00  0.98400739392E+03  0.98400821348E+03  0.12700000000E+01 0.  1.
          4   -1    0    0  501    0  0.00000000000E+00 -0.00000000000E+00 -0.32342377980E+02  0.32367303153E+02  0.12700000000E+01 0.  1.
    8880022    1    1    2    0    0  0.53751458722E+01 -0.47817220882E+02  0.69884140578E+03  0.71699814662E+03  0.15294330000E+03 0.  0.
    8880022    1    1    2    0    0 -0.53751458722E+01  0.47817220882E+02  0.25282361016E+03  0.29937737001E+03  0.15294330000E+03 0.  0.
<mgrwt>
<rscale>  0 0.16033413E+03</rscale>
<asrwt>0</asrwt>
<pdfrwt beam="1">  1        4 0.49777314E-02 0.16033413E+03</pdfrwt>
<pdfrwt beam="2">  1       -4 0.15138772E+00 0.16033413E+03</pdfrwt>
<totfact> 0.12876824E+02</totfact>
</mgrwt>
</event>
<event>
 4    1  0.8653772E-009  0.1623124E+03  0.7818608E-02  0.1186111E+00
         -4   -1    0    0    0  501 -0.00000000000E+00  0.00000000000E+00  0.15261373777E+02  0.15314125165E+02  0.12700000000E+01 0. -1.
          4   -1    0    0  501    0  0.00000000000E+00 -0.00000000000E+00 -0.19970883739E+04  0.19970887777E+04  0.12700000000E+01 0. -1.
    8880022    1    1    2    0    0  0.54321831842E+02  0.16726025844E+01 -0.61832152898E+03  0.63927054150E+03  0.15294330000E+03 0. -1.
    8880022    1    1    2    0    0 -0.54321831842E+02 -0.16726025844E+01 -0.13635054711E+04  0.13731323613E+04  0.15294330000E+03 0. -1.
<mgrwt>
<rscale>  0 0.16231239E+03</rscale>
<asrwt>0</asrwt>
<pdfrwt beam="1">  1        4 0.30724825E+00 0.16231239E+03</pdfrwt>
<pdfrwt beam="2">  1       -4 0.23519941E-02 0.16231239E+03</pdfrwt>
<totfact> 0.46446249E+01</totfact>
</mgrwt>
</event>
<event>
 4    1  0.8653772E-009  0.2131717E+03  0.7818608E-02  0.1139079E+00
          4   -1    0    0  501    0  0.00000000000E+00  0.00000000000E+00  0.88340087510E+03  0.88340178799E+03  0.12700000000E+01 0. -1.
         -4   -1    0    0    0  501 -0.00000000000E+00 -0.00000000000E+00 -0.65467399755E+02  0.65479716941E+02  0.12700000000E+01 0. -1.
    8880022    1    1    2    0    0 -0.36317071261E+02  0.14398462418E+03  0.62862330150E+03  0.66378415910E+03  0.15294330000E+03 0.  0.
    8880022    1    1    2    0    0  0.36317071261E+02 -0.14398462418E+03  0.18931017384E+03  0.28509734583E+03  0.15294330000E+03 0.  0.
<mgrwt>
<rscale>  0 0.21317166E+03</rscale>
<asrwt>0</asrwt>
<pdfrwt beam="1">  1        4 0.13590885E+00 0.21317166E+03</pdfrwt>
<pdfrwt beam="2">  1       -4 0.10072925E-01 0.21317166E+03</pdfrwt>
<totfact> 0.54734849E+01</totfact>
</mgrwt>
</event>
<event>
 4    1  0.8653772E-009  0.1875655E+03  0.7818608E-02  0.1160676E+00
         -4   -1    0    0    0  501 -0.00000000000E+00  0.00000000000E+00  0.47763773685E+02  0.47780654837E+02  0.12700000000E+01 0.  1.
          4   -1    0    0  501    0  0.00000000000E+00 -0.00000000000E+00 -0.73697617885E+03  0.73697727312E+03  0.12700000000E+01 0.  1.
    8880022    1    1    2    0    0 -0.10113402988E+02 -0.10810589321E+03 -0.35547184606E+03  0.40192169812E+03  0.15294330000E+03 0.  0.
    8880022    1    1    2    0    0  0.10113402988E+02  0.10810589321E+03 -0.33374055911E+03  0.38283622984E+03  0.15294330000E+03 0.  0.
<mgrwt>
<rscale>  0 0.18756550E+03</rscale>
<asrwt>0</asrwt>
<pdfrwt beam="1">  1        4 0.11338233E+00 0.18756550E+03</pdfrwt>
<pdfrwt beam="2">  1       -4 0.73496561E-02 0.18756550E+03</pdfrwt>
<totfact> 0.14241152E+02</totfact>
</mgrwt>
</event>
<event>
 4    1  0.8653772E-009  0.2815966E+03  0.7818608E-02  0.1094820E+00
         -4   -1    0    0    0  501 -0.00000000000E+00  0.00000000000E+00  0.42969440264E+03  0.42969627943E+03  0.12700000000E+01 0. -1.
          4   -1    0    0  501    0  0.00000000000E+00 -0.00000000000E+00 -0.24184817264E+03  0.24185150715E+03  0.12700000000E+01 0. -1.
    8880022    1    1    2    0    0 -0.22070088087E+03 -0.84830065481E+02  0.25737424665E+03  0.38149465879E+03  0.15294330000E+03 0.  0.
    8880022    1    1    2    0    0  0.22070088087E+03  0.84830065481E+02 -0.69528016655E+02  0.29005312779E+03  0.15294330000E+03 0.  0.
<mgrwt>
<rscale>  0 0.28159665E+03</rscale>
<asrwt>0</asrwt>
<pdfrwt beam="1">  1        4 0.37207812E-01 0.28159665E+03</pdfrwt>
<pdfrwt beam="2">  1       -4 0.66107232E-01 0.28159665E+03</pdfrwt>
<totfact> 0.27809475E+01</totfact>
</mgrwt>
</event>
<event>
 4    1  0.8653772E-009  0.3547684E+03  0.7818608E-02  0.1060675E+00
         -4   -1    0    0    0  501 -0.00000000000E+00  0.00000000000E+00  0.22931375897E+03  0.22931727574E+03  0.12700000000E+01 0. -1.
          4   -1    0    0  501    0  0.00000000000E+00 -0.00000000000E+00 -0.56763946332E+03  0.56764088403E+03  0.12700000000E+01 0. -1.
    8880022    1    1    2    0    0 -0.30903020324E+03  0.83482286320E+02 -0.96663546591E+02  0.36770158131E+03  0.15294330000E+03 0.  0.
    8880022    1    1    2    0    0  0.30903020324E+03 -0.83482286320E+02 -0.24166215777E+03  0.42925657846E+03  0.15294330000E+03 0.  0.
<mgrwt>
<rscale>  0 0.35476839E+03</rscale>
<asrwt>0</asrwt>
<pdfrwt beam="1">  1        4 0.87329527E-01 0.35476839E+03</pdfrwt>
<pdfrwt beam="2">  1       -4 0.35279420E-01 0.35476839E+03</pdfrwt>
<totfact> 0.16921177E+01</totfact>
</mgrwt>
</event>
<event>
 4    1  0.8653772E-009  0.2983387E+03  0.7818608E-02  0.1086074E+00
         -4   -1    0    0    0  501 -0.00000000000E+00  0.00000000000E+00  0.26882276474E+03  0.26882576465E+03  0.12700000000E+01 0.  1.
          4   -1    0    0  501    0  0.00000000000E+00 -0.00000000000E+00 -0.39377993201E+03  0.39378197997E+03  0.12700000000E+01 0.  1.
    8880022    1    1    2    0    0 -0.18741762731E+03 -0.17461086557E+03 -0.19466843604E+03  0.35623275314E+03  0.15294330000E+03 0.  0.
    8880022    1    1    2    0    0  0.18741762731E+03  0.17461086557E+03  0.69711268776E+02  0.30637499149E+03  0.15294330000E+03 0.  0.
<mgrwt>
<rscale>  0 0.29833869E+03</rscale>
<asrwt>0</asrwt>
<pdfrwt beam="1">  1        4 0.60581916E-01 0.29833869E+03</pdfrwt>
<pdfrwt beam="2">  1       -4 0.41357737E-01 0.29833869E+03</pdfrwt>
<totfact> 0.27323567E+01</totfact>
</mgrwt>
</event>
<event>
 4    1  0.8653772E-009  0.2270416E+03  0.7818608E-02  0.1128739E+00
          4   -1    0    0  501    0  0.00000000000E+00  0.00000000000E+00  0.98848090197E+03  0.98848171781E+03  0.12700000000E+01 0. -1.
         -4   -1    0    0    0  501 -0.00000000000E+00 -0.00000000000E+00 -0.96668696061E+02  0.96677038112E+02  0.12700000000E+01 0. -1.
    8880022    1    1    2    0    0 -0.12870969423E+03 -0.10765714997E+03  0.77682520240E+02  0.23996348534E+03  0.15294330000E+03 0.  0.
    8880022    1    1    2    0    0  0.12870969423E+03  0.10765714997E+03  0.81412968567E+03  0.84519527059E+03  0.15294330000E+03 0.  0.
<mgrwt>
<rscale>  0 0.22704163E+03</rscale>
<asrwt>0</asrwt>
<pdfrwt beam="1">  1        4 0.15207469E+00 0.22704163E+03</pdfrwt>
<pdfrwt beam="2">  1       -4 0.14872811E-01 0.22704163E+03</pdfrwt>
<totfact> 0.21063103E+01</totfact>
</mgrwt>
</event>
<event>
 4    1  0.8653772E-009  0.2746797E+03  0.7818608E-02  0.1098631E+00
         -4   -1    0    0    0  501 -0.00000000000E+00  0.00000000000E+00  0.50311019307E+03  0.50311179600E+03  0.12700000000E+01 0. -1.
          4   -1    0    0  501    0  0.00000000000E+00 -0.00000000000E+00 -0.27224486560E+03  0.27224782781E+03  0.12700000000E+01 0. -1.
    8880022    1    1    2    0    0  0.20308479558E+03 -0.10398971405E+03 -0.14438828040E+03  0.31031745577E+03  0.15294330000E+03 0.  0.
    8880022    1    1    2    0    0 -0.20308479558E+03  0.10398971405E+03  0.37525360787E+03  0.46504216804E+03  0.15294330000E+03 0.  0.
<mgrwt>
<rscale>  0 0.27467972E+03</rscale>
<asrwt>0</asrwt>
<pdfrwt beam="1">  1        4 0.41884177E-01 0.27467972E+03</pdfrwt>
<pdfrwt beam="2">  1       -4 0.77401919E-01 0.27467972E+03</pdfrwt>
<totfact> 0.15494941E+01</totfact>
</mgrwt>
</event>
<event>
 4    1  0.8653772E-009  0.1542915E+03  0.7818608E-02  0.1195297E+00
         -4   -1    0    0    0  501 -0.00000000000E+00  0.00000000000E+00  0.57443611396E+03  0.57443751786E+03  0.12700000000E+01 0. -1.
          4   -1    0    0  501    0  0.00000000000E+00 -0.00000000000E+00 -0.56792202355E+02  0.56806400593E+02  0.12700000000E+01 0. -1.
    8880022    1    1    2    0    0 -0.20352432825E+02  0.22560817373E-01  0.42294367727E+03  0.45020798437E+03  0.15294330000E+03 0.  0.
    8880022    1    1    2    0    0  0.20352432825E+02 -0.22560817373E-01  0.94700234333E+02  0.18103593408E+03  0.15294330000E+03 0.  0.
<mgrwt>
<rscale>  0 0.15429153E+03</rscale>
<asrwt>0</asrwt>
<pdfrwt beam="1">  1        4 0.87384620E-02 0.15429153E+03</pdfrwt>
<pdfrwt beam="2">  1       -4 0.88375988E-01 0.15429153E+03</pdfrwt>
<totfact> 0.18492373E+02</totfact>
</mgrwt>
</event>
<event>
 4    1  0.8653772E-009  0.1860257E+03  0.7818608E-02  0.1162096E+00
         -4   -1    0    0    0  501 -0.00000000000E+00  0.00000000000E+00  0.71830565882E+03  0.71830678153E+03  0.12700000000E+01 0.  1.
          4   -1    0    0  501    0  0.00000000000E+00 -0.00000000000E+00 -0.51424657875E+02  0.51440337650E+02  0.12700000000E+01 0.  1.
    8880022    1    1    2    0    0  0.90010808791E+02  0.55784873740E+02  0.23658934009E+03  0.30096522506E+03  0.15294330000E+03 0.  1.
    8880022    1    1    2    0    0 -0.90010808791E+02 -0.55784873740E+02  0.43029166086E+03  0.46878189412E+03  0.15294330000E+03 0.  1.
<mgrwt>
<rscale>  0 0.18602567E+03</rscale>
<asrwt>0</asrwt>
<pdfrwt beam="1">  1        4 0.79127795E-02 0.18602567E+03</pdfrwt>
<pdfrwt beam="2">  1       -4 0.11050984E+00 0.18602567E+03</pdfrwt>
<totfact> 0.13374542E+02</totfact>
</mgrwt>
</event>
<event>
 4    1  0.8653772E-009  0.2426313E+03  0.7818608E-02  0.1118052E+00
          4   -1    0    0  501    0  0.00000000000E+00  0.00000000000E+00  0.15188688283E+03  0.15189219228E+03  0.12700000000E+01 0.  1.
         -4   -1    0    0    0  501 -0.00000000000E+00 -0.00000000000E+00 -0.40138664163E+03  0.40138865078E+03  0.12700000000E+01 0.  1.
    8880022    1    1    2    0    0 -0.13475675607E+02  0.18787413348E+03 -0.17606117832E+03  0.29977904428E+03  0.15294330000E+03 0.  0.
    8880022    1    1    2    0    0  0.13475675607E+02 -0.18787413348E+03 -0.73438580484E+02  0.25350179878E+03  0.15294330000E+03 0.  0.
<mgrwt>
<rscale>  0 0.24263128E+03</rscale>
<asrwt>0</asrwt>
<pdfrwt beam="1">  1        4 0.23367776E-01 0.24263128E+03</pdfrwt>
<pdfrwt beam="2">  1       -4 0.61752353E-01 0.24263128E+03</pdfrwt>
<totfact> 0.77106402E+01</totfact>
</mgrwt>
</event>
<event>
 4    1  0.8653772E-009  0.2278832E+03  0.7818608E-02  0.1128139E+00
         -4   -1    0    0    0  501 -0.00000000000E+00  0.00000000000E+00  0.56244009275E+02  0.56258345864E+02  0.12700000000E+01 0. -1.
          4   -1    0    0  501    0  0.00000000000E+00 -0.00000000000E+00 -0.11613755396E+04  0.11613762340E+04  0.12700000000E+01 0. -1.
    8880022    1    1    2    0    0  0.96218046526E+02 -0.13885677765E+03 -0.82828368746E+03  0.85906032215E+03  0.15294330000E+03 0.  0.
    8880022    1    1    2    0    0 -0.96218046526E+02  0.13885677765E+03 -0.27684784290E+03  0.35857425773E+03  0.15294330000E+03 0.  0.
<mgrwt>
<rscale>  0 0.22788324E+03</rscale>
<asrwt>0</asrwt>
<pdfrwt beam="1">  1        4 0.17867430E+00 0.22788324E+03</pdfrwt>
<pdfrwt beam="2">  1       -4 0.86540816E-02 0.22788324E+03</pdfrwt>
<totfact> 0.34757500E+01</totfact>
</mgrwt>
</event>
<event>
 4    1  0.8653772E-009  0.4515725E+03  0.7818608E-02  0.1027254E+00
          4   -1    0    0  501    0  0.00000000000E+00  0.00000000000E+00  0.21828824442E+03  0.21829193882E+03  0.12700000000E+01 0. -1.
         -4   -1    0    0    0  501 -0.00000000000E+00 -0.00000000000E+00 -0.15355786900E+04  0.15355792152E+04  0.12700000000E+01 0.  1.
    8880022    1    1    2    0    0  0.42346205584E+03  0.34726267566E+02 -0.12074543167E+04  0.12891328894E+04  0.15294330000E+03 0.  1.
    8880022    1    1    2    0    0 -0.42346205584E+03 -0.34726267566E+02 -0.10983612883E+03  0.46473826463E+03  0.15294330000E+03 0.  0.
<mgrwt>
<rscale>  0 0.45157245E+03</rscale>
<asrwt>0</asrwt>
<pdfrwt beam="1">  1        4 0.33583132E-01 0.45157245E+03</pdfrwt>
<pdfrwt beam="2">  1       -4 0.23624319E+00 0.45157245E+03</pdfrwt>
<totfact> 0.13351996E+00</totfact>
</mgrwt>
</event>
<event>
 4    1  0.8653772E-009  0.2558040E+03  0.7818608E-02  0.1109691E+00
         -4   -1    0    0    0  501 -0.00000000000E+00  0.00000000000E+00  0.19041512576E+03  0.19041936094E+03  0.12700000000E+01 0. -1.
          4   -1    0    0  501    0  0.00000000000E+00 -0.00000000000E+00 -0.36471115298E+03  0.36471336418E+03  0.12700000000E+01 0. -1.
    8880022    1    1    2    0    0  0.64547612896E+02  0.19462184099E+03 -0.15386693004E+03  0.29851422160E+03  0.15294330000E+03 0.  0.
    8880022    1    1    2    0    0 -0.64547612896E+02 -0.19462184099E+03 -0.20429097176E+02  0.25661850351E+03  0.15294330000E+03 0.  0.
<mgrwt>
<rscale>  0 0.25580404E+03</rscale>
<asrwt>0</asrwt>
<pdfrwt beam="1">  1        4 0.56109904E-01 0.25580404E+03</pdfrwt>
<pdfrwt beam="2">  1       -4 0.29295131E-01 0.25580404E+03</pdfrwt>
<totfact> 0.62141172E+01</totfact>
</mgrwt>
</event>
<event>
 4    1  0.8653772E-009  0.1918149E+03  0.7818608E-02  0.1156835E+00
         -4   -1    0    0    0  501 -0.00000000000E+00  0.00000000000E+00  0.25930456732E+02  0.25961538597E+02  0.12700000000E+01 0. -1.
          4   -1    0    0  501    0  0.00000000000E+00 -0.00000000000E+00 -0.14608613177E+04  0.14608618698E+04  0.12700000000E+01 0. -1.
    8880022    1    1    2    0    0  0.48991045016E+02 -0.10488652028E+03 -0.59017009424E+03  0.62055918153E+03  0.15294330000E+03 0.  0.
    8880022    1    1    2    0    0 -0.48991045016E+02  0.10488652028E+03 -0.84476076678E+03  0.86626422686E+03  0.15294330000E+03 0.  0.
<mgrwt>
<rscale>  0 0.19181490E+03</rscale>
<asrwt>0</asrwt>
<pdfrwt beam="1">  1        4 0.22475026E+00 0.19181490E+03</pdfrwt>
<pdfrwt beam="2">  1       -4 0.39917356E-02 0.19181490E+03</pdfrwt>
<totfact> 0.62187392E+01</totfact>
</mgrwt>
</event>
<event>
 4    1  0.8653772E-009  0.3198073E+03  0.7818608E-02  0.1075738E+00
          4   -1    0    0  501    0  0.00000000000E+00  0.00000000000E+00  0.39320956305E+03  0.39321161399E+03  0.12700000000E+01 0.  1.
         -4   -1    0    0    0  501 -0.00000000000E+00 -0.00000000000E+00 -0.28031338432E+03  0.28031626127E+03  0.12700000000E+01 0.  1.
    8880022    1    1    2    0    0 -0.26311427304E+03 -0.98264665253E+02  0.14687250713E+03  0.35192080285E+03  0.15294330000E+03 0.  0.
    8880022    1    1    2    0    0  0.26311427304E+03  0.98264665253E+02 -0.33976328399E+02  0.32160707240E+03  0.15294330000E+03 0.  0.
<mgrwt>
<rscale>  0 0.31980731E+03</rscale>
<asrwt>0</asrwt>
<pdfrwt beam="1">  1        4 0.60494158E-01 0.31980731E+03</pdfrwt>
<pdfrwt beam="2">  1       -4 0.43125515E-01 0.31980731E+03</pdfrwt>
<totfact> 0.25343654E+01</totfact>
</mgrwt>
</event>
<event>
 4    1  0.8653772E-009  0.2810117E+03  0.7818608E-02  0.1095138E+00
          4   -1    0    0  501    0  0.00000000000E+00  0.00000000000E+00  0.79576628827E+03  0.79576730170E+03  0.12700000000E+01 0. -1.
         -4   -1    0    0    0  501 -0.00000000000E+00 -0.00000000000E+00 -0.10147004551E+03  0.10147799286E+03  0.12700000000E+01 0. -1.
    8880022    1    1    2    0    0 -0.20107120678E+03  0.12307029970E+03  0.28048744828E+03  0.39704003642E+03  0.15294330000E+03 0.  0.
    8880022    1    1    2    0    0  0.20107120678E+03 -0.12307029970E+03  0.41380879449E+03  0.50020525814E+03  0.15294330000E+03 0.  0.
<mgrwt>
<rscale>  0 0.28101171E+03</rscale>
<asrwt>0</asrwt>
<pdfrwt beam="1">  1        4 0.12242627E+00 0.28101171E+03</pdfrwt>
<pdfrwt beam="2">  1       -4 0.15611466E-01 0.28101171E+03</pdfrwt>
<totfact> 0.34084621E+01</totfact>
</mgrwt>
</event>
<event>
 4    1  0.8653772E-009  0.1818159E+03  0.7818608E-02  0.1166057E+00
          4   -1    0    0  501    0  0.00000000000E+00  0.00000000000E+00  0.44352135292E+02  0.44370314456E+02  0.12700000000E+01 0.  1.
         -4   -1    0    0    0  501 -0.00000000000E+00 -0.00000000000E+00 -0.74963842912E+03  0.74963950490E+03  0.12700000000E+01 0.  1.
    8880022    1    1    2    0    0 -0.34730231672E+02 -0.91973716483E+02 -0.32195542359E+03  0.36974626612E+03  0.15294330000E+03 0.  0.
    8880022    1    1    2    0    0  0.34730231672E+02  0.91973716483E+02 -0.38333087023E+03  0.42426355323E+03  0.15294330000E+03 0.  0.
<mgrwt>
<rscale>  0 0.18181586E+03</rscale>
<asrwt>0</asrwt>
<pdfrwt beam="1">  1        4 0.68248871E-02 0.18181586E+03</pdfrwt>
<pdfrwt beam="2">  1       -4 0.11533046E+00 0.18181586E+03</pdfrwt>
<totfact> 0.15384170E+02</totfact>
</mgrwt>
</event>
<event>
 4    1  0.8653772E-009  0.2240877E+03  0.7818608E-02  0.1130872E+00
          4   -1    0    0  501    0  0.00000000000E+00  0.00000000000E+00  0.33355860993E+03  0.33356102764E+03  0.12700000000E+01 0.  1.
         -4   -1    0    0    0  501 -0.00000000000E+00 -0.00000000000E+00 -0.15257236605E+03  0.15257765164E+03  0.12700000000E+01 0.  1.
    8880022    1    1    2    0    0 -0.10396869196E+03 -0.12654699805E+03  0.11855686607E+03  0.25351728763E+03  0.15294330000E+03 0. -1.
    8880022    1    1    2    0    0  0.10396869196E+03  0.12654699805E+03  0.62429377820E+02  0.23262139165E+03  0.15294330000E+03 0. -1.
<mgrwt>
<rscale>  0 0.22408767E+03</rscale>
<asrwt>0</asrwt>
<pdfrwt beam="1">  1        4 0.51317301E-01 0.22408767E+03</pdfrwt>
<pdfrwt beam="2">  1       -4 0.23473265E-01 0.22408767E+03</pdfrwt>
<totfact> 0.11169067E+02</totfact>
</mgrwt>
</event>
<event>
 4    1  0.8653772E-009  0.2272595E+03  0.7818608E-02  0.1128584E+00
          4   -1    0    0  501    0  0.00000000000E+00  0.00000000000E+00  0.15664515689E+04  0.15664520837E+04  0.12700000000E+01 0.  1.
         -4   -1    0    0    0  501 -0.00000000000E+00 -0.00000000000E+00 -0.41040622171E+02  0.41060267512E+02  0.12700000000E+01 0.  1.
    8880022    1    1    2    0    0 -0.12909232241E+03  0.10765872685E+03  0.40610856584E+03  0.46537194741E+03  0.15294330000E+03 0.  0.
    8880022    1    1    2    0    0  0.12909232241E+03 -0.10765872685E+03  0.11193023809E+04  0.11421404038E+04  0.15294330000E+03 0.  0.
<mgrwt>
<rscale>  0 0.22725950E+03</rscale>
<asrwt>0</asrwt>
<pdfrwt beam="1">  1        4 0.24099407E+00 0.22725950E+03</pdfrwt>
<pdfrwt beam="2">  1       -4 0.63154934E-02 0.22725950E+03</pdfrwt>
<totfact> 0.23990288E+01</totfact>
</mgrwt>
</event>
<event>
 4    1  0.8653772E-009  0.3807854E+03  0.7818608E-02  0.1050644E+00
         -4   -1    0    0    0  501 -0.00000000000E+00  0.00000000000E+00  0.77434644594E+02  0.77445058482E+02  0.12700000000E+01 0.  1.
          4   -1    0    0  501    0  0.00000000000E+00 -0.00000000000E+00 -0.18969493538E+04  0.18969497789E+04  0.12700000000E+01 0.  1.
    8880022    1    1    2    0    0  0.34499199234E+03 -0.50856292157E+02 -0.79740290683E+03  0.88365654305E+03  0.15294330000E+03 0.  0.
    8880022    1    1    2    0    0 -0.34499199234E+03  0.50856292157E+02 -0.10221118024E+04  0.10907382944E+04  0.15294330000E+03 0.  0.
<mgrwt>
<rscale>  0 0.38078536E+03</rscale>
<asrwt>0</asrwt>
<pdfrwt beam="1">  1        4 0.29183916E+00 0.38078536E+03</pdfrwt>
<pdfrwt beam="2">  1       -4 0.11913857E-01 0.38078536E+03</pdfrwt>
<totfact> 0.41741259E+00</totfact>
</mgrwt>
</event>
<event>
 4    1  0.8653772E-009  0.1534108E+03  0.7818608E-02  0.1196343E+00
         -4   -1    0    0    0  501 -0.00000000000E+00  0.00000000000E+00  0.28985958731E+02  0.29013767483E+02  0.12700000000E+01 0.  1.
          4   -1    0    0  501    0  0.00000000000E+00 -0.00000000000E+00 -0.11421961728E+04  0.11421968788E+04  0.12700000000E+01 0.  1.
    8880022    1    1    2    0    0  0.68376369128E+01 -0.98218395109E+01 -0.24151937145E+03  0.28612319306E+03  0.15294330000E+03 0.  0.
    8880022    1    1    2    0    0 -0.68376369128E+01  0.98218395109E+01 -0.87169084259E+03  0.88508745324E+03  0.15294330000E+03 0.  0.
<mgrwt>
<rscale>  0 0.15341080E+03</rscale>
<asrwt>0</asrwt>
<pdfrwt beam="1">  1        4 0.17572465E+00 0.15341080E+03</pdfrwt>
<pdfrwt beam="2">  1       -4 0.44615726E-02 0.15341080E+03</pdfrwt>
<totfact> 0.10300554E+02</totfact>
</mgrwt>
</event>
<event>
 4    1  0.8653772E-009  0.2033815E+03  0.7818608E-02  0.1146917E+00
          4   -1    0    0  501    0  0.00000000000E+00  0.00000000000E+00  0.63668506797E+02  0.63681171926E+02  0.12700000000E+01 0.  1.
         -4   -1    0    0    0  501 -0.00000000000E+00 -0.00000000000E+00 -0.94322609731E+03  0.94322695230E+03  0.12700000000E+01 0.  1.
    8880022    1    1    2    0    0 -0.13399897545E+03 -0.40834547283E+01 -0.72067492124E+03  0.74882334041E+03  0.15294330000E+03 0. -1.
    8880022    1    1    2    0    0  0.13399897545E+03  0.40834547283E+01 -0.15888266927E+03  0.25808478381E+03  0.15294330000E+03 0. -1.
<mgrwt>
<rscale>  0 0.20338155E+03</rscale>
<asrwt>0</asrwt>
<pdfrwt beam="1">  1        4 0.97961956E-02 0.20338155E+03</pdfrwt>
<pdfrwt beam="2">  1       -4 0.14511274E+00 0.20338155E+03</pdfrwt>
<totfact> 0.48351759E+01</totfact>
</mgrwt>
</event>
<event>
 4    1  0.8653772E-009  0.1850750E+03  0.7818608E-02  0.1162980E+00
          4   -1    0    0  501    0  0.00000000000E+00  0.00000000000E+00  0.24894101771E+02  0.24926475944E+02  0.12700000000E+01 0.  1.
         -4   -1    0    0    0  501 -0.00000000000E+00 -0.00000000000E+00 -0.17851562174E+04  0.17851566692E+04  0.12700000000E+01 0.  1.
    8880022    1    1    2    0    0  0.94487739069E+02  0.43967809247E+02 -0.44632577842E+03  0.48317642180E+03  0.15294330000E+03 0.  1.
    8880022    1    1    2    0    0 -0.94487739069E+02 -0.43967809247E+02 -0.13139363372E+04  0.13269067233E+04  0.15294330000E+03 0.  1.
<mgrwt>
<rscale>  0 0.18507500E+03</rscale>
<asrwt>0</asrwt>
<pdfrwt beam="1">  1        4 0.38323883E-02 0.18507500E+03</pdfrwt>
<pdfrwt beam="2">  1       -4 0.27464184E+00 0.18507500E+03</pdfrwt>
<totfact> 0.33699306E+01</totfact>
</mgrwt>
</event>
<event>
 4    1  0.8653772E-009  0.1926254E+03  0.7818608E-02  0.1156114E+00
         -4   -1    0    0    0  501 -0.00000000000E+00  0.00000000000E+00  0.91956641916E+03  0.91956729615E+03  0.12700000000E+01 0. -1.
          4   -1    0    0  501    0  0.00000000000E+00 -0.00000000000E+00 -0.69439020603E+02  0.69450633419E+02  0.12700000000E+01 0. -1.
    8880022    1    1    2    0    0 -0.51386031873E+02 -0.10522539602E+03  0.74514890295E+03  0.76964371551E+03  0.15294330000E+03 0.  0.
    8880022    1    1    2    0    0  0.51386031873E+02  0.10522539602E+03  0.10497849560E+03  0.21937421406E+03  0.15294330000E+03 0.  0.
<mgrwt>
<rscale>  0 0.19262544E+03</rscale>
<asrwt>0</asrwt>
<pdfrwt beam="1">  1        4 0.10683888E-01 0.19262544E+03</pdfrwt>
<pdfrwt beam="2">  1       -4 0.14147271E+00 0.19262544E+03</pdfrwt>
<totfact> 0.44236859E+01</totfact>
</mgrwt>
</event>
<event>
 4    1  0.8653772E-009  0.1536198E+03  0.7818608E-02  0.1196094E+00
          4   -1    0    0  501    0  0.00000000000E+00  0.00000000000E+00  0.25803475817E+03  0.25803788351E+03  0.12700000000E+01 0.  1.
         -4   -1    0    0    0  501 -0.00000000000E+00 -0.00000000000E+00 -0.18283619270E+03  0.18284060342E+03  0.12700000000E+01 0.  1.
    8880022    1    1    2    0    0  0.84395189581E+01  0.11669061506E+02  0.19344307251E+03  0.24702078413E+03  0.15294330000E+03 0.  0.
    8880022    1    1    2    0    0 -0.84395189581E+01 -0.11669061506E+02 -0.11824450703E+03  0.19385770280E+03  0.15294330000E+03 0.  0.
<mgrwt>
<rscale>  0 0.15361981E+03</rscale>
<asrwt>0</asrwt>
<pdfrwt beam="1">  1        4 0.39698235E-01 0.15361981E+03</pdfrwt>
<pdfrwt beam="2">  1       -4 0.28129225E-01 0.15361981E+03</pdfrwt>
<totfact> 0.12674273E+02</totfact>
</mgrwt>
</event>
<event>
 4    1  0.8653772E-009  0.3151472E+03  0.7818608E-02  0.1077905E+00
         -4   -1    0    0    0  501 -0.00000000000E+00  0.00000000000E+00  0.26960193161E+03  0.26960492286E+03  0.12700000000E+01 0. -1.
          4   -1    0    0  501    0  0.00000000000E+00 -0.00000000000E+00 -0.38850132592E+03  0.38850340172E+03  0.12700000000E+01 0. -1.
    8880022    1    1    2    0    0  0.84038805939E+02 -0.26241876276E+03  0.15434436484E+02  0.31552496382E+03  0.15294330000E+03 0.  0.
    8880022    1    1    2    0    0 -0.84038805939E+02  0.26241876276E+03 -0.13433383080E+03  0.34258336075E+03  0.15294330000E+03 0.  0.
<mgrwt>
<rscale>  0 0.31514724E+03</rscale>
<asrwt>0</asrwt>
<pdfrwt beam="1">  1        4 0.59769825E-01 0.31514724E+03</pdfrwt>
<pdfrwt beam="2">  1       -4 0.41477610E-01 0.31514724E+03</pdfrwt>
<totfact> 0.28094937E+01</totfact>
</mgrwt>
</event>
<event>
 4    1  0.8653772E-009  0.2147080E+03  0.7818608E-02  0.1137891E+00
          4   -1    0    0  501    0  0.00000000000E+00  0.00000000000E+00  0.80296601462E+02  0.80306644223E+02  0.12700000000E+01 0. -1.
         -4   -1    0    0    0  501 -0.00000000000E+00 -0.00000000000E+00 -0.58432258234E+03  0.58432396248E+03  0.12700000000E+01 0. -1.
    8880022    1    1    2    0    0  0.39834218224E+02 -0.14533108742E+03 -0.29603354660E+03  0.36569851468E+03  0.15294330000E+03 0.  0.
    8880022    1    1    2    0    0 -0.39834218224E+02  0.14533108742E+03 -0.20799243428E+03  0.29893209202E+03  0.15294330000E+03 0.  0.
<mgrwt>
<rscale>  0 0.21470804E+03</rscale>
<asrwt>0</asrwt>
<pdfrwt beam="1">  1        4 0.12354202E-01 0.21470804E+03</pdfrwt>
<pdfrwt beam="2">  1       -4 0.89896658E-01 0.21470804E+03</pdfrwt>
<totfact> 0.10361522E+02</totfact>
</mgrwt>
</event>
<event>
 4    1  0.8653772E-009  0.2402034E+03  0.7818608E-02  0.1119657E+00
         -4   -1    0    0    0  501 -0.00000000000E+00  0.00000000000E+00  0.17356923960E+03  0.17357388581E+03  0.12700000000E+01 0. -1.
          4   -1    0    0  501    0  0.00000000000E+00 -0.00000000000E+00 -0.43245577817E+03  0.43245764298E+03  0.12700000000E+01 0. -1.
    8880022    1    1    2    0    0 -0.16563431306E+03 -0.82893397952E+02  0.16301648991E+02  0.24075597160E+03  0.15294330000E+03 0.  0.
    8880022    1    1    2    0    0  0.16563431306E+03  0.82893397952E+02 -0.27518818756E+03  0.36527555719E+03  0.15294330000E+03 0.  0.
<mgrwt>
<rscale>  0 0.24020344E+03</rscale>
<asrwt>0</asrwt>
<pdfrwt beam="1">  1        4 0.66532158E-01 0.24020344E+03</pdfrwt>
<pdfrwt beam="2">  1       -4 0.26703461E-01 0.24020344E+03</pdfrwt>
<totfact> 0.51143845E+01</totfact>
</mgrwt>
</event>
<event>
 4    1  0.8653772E-009  0.2042799E+03  0.7818608E-02  0.1146177E+00
         -4   -1    0    0    0  501 -0.00000000000E+00  0.00000000000E+00  0.99526704972E+02  0.99534807492E+02  0.12700000000E+01 0. -1.
          4   -1    0    0  501    0  0.00000000000E+00 -0.00000000000E+00 -0.65848216932E+03  0.65848339403E+03  0.12700000000E+01 0. -1.
    8880022    1    1    2    0    0 -0.10859912837E+03  0.80900220648E+02 -0.51036646125E+02  0.21055880092E+03  0.15294330000E+03 0.  0.
    8880022    1    1    2    0    0  0.10859912837E+03 -0.80900220648E+02 -0.50791881822E+03  0.54745940060E+03  0.15294330000E+03 0.  0.
<mgrwt>
<rscale>  0 0.20427988E+03</rscale>
<asrwt>0</asrwt>
<pdfrwt beam="1">  1        4 0.10130566E+00 0.20427988E+03</pdfrwt>
<pdfrwt beam="2">  1       -4 0.15312519E-01 0.20427988E+03</pdfrwt>
<totfact> 0.53693677E+01</totfact>
</mgrwt>
</event>
<event>
 4    1  0.8653772E-009  0.2245288E+03  0.7818608E-02  0.1130551E+00
          4   -1    0    0  501    0  0.00000000000E+00  0.00000000000E+00  0.14104607135E+03  0.14105178887E+03  0.12700000000E+01 0. -1.
         -4   -1    0    0    0  501 -0.00000000000E+00 -0.00000000000E+00 -0.60641890434E+03  0.60642023420E+03  0.12700000000E+01 0. -1.
    8880022    1    1    2    0    0  0.11119965238E+03  0.12106258139E+03 -0.47217451981E+03  0.52284026382E+03  0.15294330000E+03 0.  0.
    8880022    1    1    2    0    0 -0.11119965238E+03 -0.12106258139E+03  0.68016868122E+01  0.22463175924E+03  0.15294330000E+03 0.  0.
<mgrwt>
<rscale>  0 0.22452876E+03</rscale>
<asrwt>0</asrwt>
<pdfrwt beam="1">  1        4 0.21699938E-01 0.22452876E+03</pdfrwt>
<pdfrwt beam="2">  1       -4 0.93295757E-01 0.22452876E+03</pdfrwt>
<totfact> 0.35108883E+01</totfact>
</mgrwt>
</event>
<event>
 4    1  0.8653772E-009  0.2417095E+03  0.7818608E-02  0.1118659E+00
          4   -1    0    0  501    0  0.00000000000E+00  0.00000000000E+00  0.51254309022E+02  0.51270040894E+02  0.12700000000E+01 0. -1.
         -4   -1    0    0    0  501 -0.00000000000E+00 -0.00000000000E+00 -0.12901640373E+04  0.12901646624E+04  0.12700000000E+01 0. -1.
    8880022    1    1    2    0    0 -0.55602228750E+02  0.17871824863E+03 -0.84851771427E+03  0.88227307829E+03  0.15294330000E+03 0.  0.
    8880022    1    1    2    0    0  0.55602228750E+02 -0.17871824863E+03 -0.39039201402E+03  0.45916162499E+03  0.15294330000E+03 0.  0.
<mgrwt>
<rscale>  0 0.24170948E+03</rscale>
<asrwt>0</asrwt>
<pdfrwt beam="1">  1        4 0.78865375E-02 0.24170948E+03</pdfrwt>
<pdfrwt beam="2">  1       -4 0.19848801E+00 0.24170948E+03</pdfrwt>
<totfact> 0.30315013E+01</totfact>
</mgrwt>
</event>
<event>
 4    1  0.8653772E-009  0.2027492E+03  0.7818608E-02  0.1147440E+00
          4   -1    0    0  501    0  0.00000000000E+00  0.00000000000E+00  0.29601393459E+03  0.29601665894E+03  0.12700000000E+01 0. -1.
         -4   -1    0    0    0  501 -0.00000000000E+00 -0.00000000000E+00 -0.14719420051E+03  0.14719967923E+03  0.12700000000E+01 0. -1.
    8880022    1    1    2    0    0  0.13274560072E+03  0.97051066753E+01  0.21689065979E+02  0.20390598864E+03  0.15294330000E+03 0.  0.
    8880022    1    1    2    0    0 -0.13274560072E+03 -0.97051066753E+01  0.12713066809E+03  0.23931034953E+03  0.15294330000E+03 0.  0.
<mgrwt>
<rscale>  0 0.20274920E+03</rscale>
<asrwt>0</asrwt>
<pdfrwt beam="1">  1        4 0.45541236E-01 0.20274920E+03</pdfrwt>
<pdfrwt beam="2">  1       -4 0.22645893E-01 0.20274920E+03</pdfrwt>
<totfact> 0.15027089E+02</totfact>
</mgrwt>
</event>
<event>
 4    1  0.8653772E-009  0.2330226E+03  0.7818608E-02  0.1124530E+00
         -4   -1    0    0    0  501 -0.00000000000E+00  0.00000000000E+00  0.30643034709E+03  0.30643297884E+03  0.12700000000E+01 0.  1.
          4   -1    0    0  501    0  0.00000000000E+00 -0.00000000000E+00 -0.17784926292E+03  0.17785379732E+03  0.12700000000E+01 0.  1.
    8880022    1    1    2    0    0 -0.15046641348E+03  0.90927080742E+02  0.49599293764E+02  0.23824277231E+03  0.15294330000E+03 0.  0.
    8880022    1    1    2    0    0  0.15046641348E+03 -0.90927080742E+02  0.78981790414E+02  0.24604400385E+03  0.15294330000E+03 0.  0.
<mgrwt>
<rscale>  0 0.23302259E+03</rscale>
<asrwt>0</asrwt>
<pdfrwt beam="1">  1        4 0.27361977E-01 0.23302259E+03</pdfrwt>
<pdfrwt beam="2">  1       -4 0.47143681E-01 0.23302259E+03</pdfrwt>
<totfact> 0.10034368E+02</totfact>
</mgrwt>
</event>
<event>
 4    1  0.8653772E-009  0.3411784E+03  0.7818608E-02  0.1066295E+00
          4   -1    0    0  501    0  0.00000000000E+00  0.00000000000E+00  0.30475803786E+03  0.30476068405E+03  0.12700000000E+01 0.  1.
         -4   -1    0    0    0  501 -0.00000000000E+00 -0.00000000000E+00 -0.40309257958E+03  0.40309458024E+03  0.12700000000E+01 0.  1.
    8880022    1    1    2    0    0 -0.22918316294E+03 -0.20121170118E+03  0.31897168306E+02  0.34266624174E+03  0.15294330000E+03 0.  0.
    8880022    1    1    2    0    0  0.22918316294E+03  0.20121170118E+03 -0.13023171003E+03  0.36518902254E+03  0.15294330000E+03 0.  0.
<mgrwt>
<rscale>  0 0.34117843E+03</rscale>
<asrwt>0</asrwt>
<pdfrwt beam="1">  1        4 0.46886209E-01 0.34117843E+03</pdfrwt>
<pdfrwt beam="2">  1       -4 0.62014601E-01 0.34117843E+03</pdfrwt>
<totfact> 0.20374497E+01</totfact>
</mgrwt>
</event>
<event>
 4    1  0.8653772E-009  0.1552950E+03  0.7818608E-02  0.1194113E+00
          4   -1    0    0  501    0  0.00000000000E+00  0.00000000000E+00  0.10042983969E+03  0.10043786935E+03  0.12700000000E+01 0. -1.
         -4   -1    0    0    0  501 -0.00000000000E+00 -0.00000000000E+00 -0.30339881939E+03  0.30340147743E+03  0.12700000000E+01 0. -1.
    8880022    1    1    2    0    0 -0.21680054713E+02 -0.15964580188E+02 -0.92669137731E+01  0.15557127402E+03  0.15294330000E+03 0.  0.
    8880022    1    1    2    0    0  0.21680054713E+02  0.15964580188E+02 -0.19370206593E+03  0.24826807277E+03  0.15294330000E+03 0.  0.
<mgrwt>
<rscale>  0 0.15529503E+03</rscale>
<asrwt>0</asrwt>
<pdfrwt beam="1">  1        4 0.15451567E-01 0.15529503E+03</pdfrwt>
<pdfrwt beam="2">  1       -4 0.46677563E-01 0.15529503E+03</pdfrwt>
<totfact> 0.27245776E+02</totfact>
</mgrwt>
</event>
<event>
 4    1  0.8653772E-009  0.1898327E+03  0.7818608E-02  0.1158612E+00
          4   -1    0    0  501    0  0.00000000000E+00  0.00000000000E+00  0.11423040358E+03  0.11423746321E+03  0.12700000000E+01 0.  1.
         -4   -1    0    0    0  501 -0.00000000000E+00 -0.00000000000E+00 -0.53625419549E+03  0.53625569935E+03  0.12700000000E+01 0.  1.
    8880022    1    1    2    0    0  0.16579644044E+02 -0.11122007617E+03 -0.23111709354E+01  0.18984673941E+03  0.15294330000E+03 0.  0.
    8880022    1    1    2    0    0 -0.16579644044E+02  0.11122007617E+03 -0.41971262098E+03  0.46064642315E+03  0.15294330000E+03 0.  0.
<mgrwt>
<rscale>  0 0.18983267E+03</rscale>
<asrwt>0</asrwt>
<pdfrwt beam="1">  1        4 0.17574567E-01 0.18983267E+03</pdfrwt>
<pdfrwt beam="2">  1       -4 0.82501303E-01 0.18983267E+03</pdfrwt>
<totfact> 0.66647803E+01</totfact>
</mgrwt>
</event>
<event>
 4    1  0.8653772E-009  0.2619899E+03  0.7818608E-02  0.1105954E+00
         -4   -1    0    0    0  501 -0.00000000000E+00  0.00000000000E+00  0.46221936772E+03  0.46222111245E+03  0.12700000000E+01 0. -1.
          4   -1    0    0  501    0  0.00000000000E+00 -0.00000000000E+00 -0.15095239101E+03  0.15095773333E+03  0.12700000000E+01 0. -1.
    8880022    1    1    2    0    0  0.12288746889E+03  0.17362519509E+03  0.19476351917E+03  0.32645293657E+03  0.15294330000E+03 0.  0.
    8880022    1    1    2    0    0 -0.12288746889E+03 -0.17362519509E+03  0.11650345754E+03  0.28672590921E+03  0.15294330000E+03 0.  0.
<mgrwt>
<rscale>  0 0.26198987E+03</rscale>
<asrwt>0</asrwt>
<pdfrwt beam="1">  1        4 0.23223990E-01 0.26198987E+03</pdfrwt>
<pdfrwt beam="2">  1       -4 0.71111217E-01 0.26198987E+03</pdfrwt>
<totfact> 0.57970680E+01</totfact>
</mgrwt>
</event>
<event>
 4    1  0.8653772E-009  0.2600648E+03  0.7818608E-02  0.1107104E+00
         -4   -1    0    0    0  501 -0.00000000000E+00  0.00000000000E+00  0.32909971724E+03  0.32910216770E+03  0.12700000000E+01 0. -1.
          4   -1    0    0  501    0  0.00000000000E+00 -0.00000000000E+00 -0.23887817168E+03  0.23888154764E+03  0.12700000000E+01 0. -1.
    8880022    1    1    2    0    0 -0.12471415145E+01  0.21033419739E+03 -0.61035340670E+02  0.26713104608E+03  0.15294330000E+03 0.  0.
    8880022    1    1    2    0    0  0.12471415145E+01 -0.21033419739E+03  0.15125688623E+03  0.30085266926E+03  0.15294330000E+03 0.  0.
<mgrwt>
<rscale>  0 0.26006477E+03</rscale>
<asrwt>0</asrwt>
<pdfrwt beam="1">  1        4 0.36750936E-01 0.26006477E+03</pdfrwt>
<pdfrwt beam="2">  1       -4 0.50631174E-01 0.26006477E+03</pdfrwt>
<totfact> 0.49706686E+01</totfact>
</mgrwt>
</event>
<event>
 4    1  0.8653772E-009  0.1548260E+03  0.7818608E-02  0.1194665E+00
          4   -1    0    0  501    0  0.00000000000E+00  0.00000000000E+00  0.35765185382E+03  0.35765410866E+03  0.12700000000E+01 0.  1.
         -4   -1    0    0    0  501 -0.00000000000E+00 -0.00000000000E+00 -0.68737588960E+02  0.68749320259E+02  0.12700000000E+01 0.  1.
    8880022    1    1    2    0    0  0.23225474149E+02  0.63254123226E+01  0.11071015506E+03  0.19033608417E+03  0.15294330000E+03 0.  1.
    8880022    1    1    2    0    0 -0.23225474149E+02 -0.63254123226E+01  0.17820410980E+03  0.23606734475E+03  0.15294330000E+03 0.  1.
<mgrwt>
<rscale>  0 0.15482599E+03</rscale>
<asrwt>0</asrwt>
<pdfrwt beam="1">  1        4 0.55024437E-01 0.15482599E+03</pdfrwt>
<pdfrwt beam="2">  1       -4 0.10576090E-01 0.15482599E+03</pdfrwt>
<totfact> 0.37400858E+02</totfact>
</mgrwt>
</event>
<event>
 4    1  0.8653772E-009  0.1579222E+03  0.7818608E-02  0.1191063E+00
         -4   -1    0    0    0  501 -0.00000000000E+00  0.00000000000E+00  0.13046713415E+03  0.13047331526E+03  0.12700000000E+01 0.  1.
          4   -1    0    0  501    0  0.00000000000E+00 -0.00000000000E+00 -0.40748443641E+03  0.40748641550E+03  0.12700000000E+01 0.  1.
    8880022    1    1    2    0    0  0.37260905259E+02  0.12625171014E+02 -0.33449695713E+03  0.36990219971E+03  0.15294330000E+03 0.  0.
    8880022    1    1    2    0    0 -0.37260905259E+02 -0.12625171014E+02  0.57479654873E+02  0.16805753105E+03  0.15294330000E+03 0.  0.
<mgrwt>
<rscale>  0 0.15792221E+03</rscale>
<asrwt>0</asrwt>
<pdfrwt beam="1">  1        4 0.62690541E-01 0.15792221E+03</pdfrwt>
<pdfrwt beam="2">  1       -4 0.20072495E-01 0.15792221E+03</pdfrwt>
<totfact> 0.93121818E+01</totfact>
</mgrwt>
</event>
<event>
 4    1  0.8653772E-009  0.4464048E+03  0.7818608E-02  0.1028800E+00
         -4   -1    0    0    0  501 -0.00000000000E+00  0.00000000000E+00  0.78618745278E+03  0.78618847856E+03  0.12700000000E+01 0. -1.
          4   -1    0    0  501    0  0.00000000000E+00 -0.00000000000E+00 -0.52340010554E+03  0.52340164633E+03  0.12700000000E+01 0. -1.
    8880022    1    1    2    0    0  0.15572911636E+03 -0.38940217723E+03  0.60162612937E+03  0.74915369977E+03  0.15294330000E+03 0.  0.
    8880022    1    1    2    0    0 -0.15572911636E+03  0.38940217723E+03 -0.33883878213E+03  0.56043642512E+03  0.15294330000E+03 0.  0.
<mgrwt>
<rscale>  0 0.44640482E+03</rscale>
<asrwt>0</asrwt>
<pdfrwt beam="1">  1        4 0.80523291E-01 0.44640482E+03</pdfrwt>
<pdfrwt beam="2">  1       -4 0.12095211E+00 0.44640482E+03</pdfrwt>
<totfact> 0.13828177E+00</totfact>
</mgrwt>
</event>
<event>
 4    1  0.8653772E-009  0.1691149E+03  0.7818608E-02  0.1178774E+00
         -4   -1    0    0    0  501 -0.00000000000E+00  0.00000000000E+00  0.19176050950E+03  0.19176471496E+03  0.12700000000E+01 0.  1.
          4   -1    0    0  501    0  0.00000000000E+00 -0.00000000000E+00 -0.23478683534E+03  0.23479027013E+03  0.12700000000E+01 0.  1.
    8880022    1    1    2    0    0 -0.70824323907E+02 -0.13859892815E+02 -0.15032880837E+03  0.22627104350E+03  0.15294330000E+03 0.  0.
    8880022    1    1    2    0    0  0.70824323907E+02  0.13859892815E+02  0.10730248253E+03  0.20028394159E+03  0.15294330000E+03 0.  0.
<mgrwt>
<rscale>  0 0.16911486E+03</rscale>
<asrwt>0</asrwt>
<pdfrwt beam="1">  1        4 0.36121640E-01 0.16911486E+03</pdfrwt>
<pdfrwt beam="2">  1       -4 0.29502204E-01 0.16911486E+03</pdfrwt>
<totfact> 0.14146412E+02</totfact>
</mgrwt>
</event>
<event>
 4    1  0.8653772E-009  0.2893741E+03  0.7818608E-02  0.1090676E+00
          4   -1    0    0  501    0  0.00000000000E+00  0.00000000000E+00  0.20239067826E+03  0.20239466284E+03  0.12700000000E+01 0. -1.
         -4   -1    0    0    0  501 -0.00000000000E+00 -0.00000000000E+00 -0.55394152650E+03  0.55394298234E+03  0.12700000000E+01 0. -1.
    8880022    1    1    2    0    0 -0.21799421556E+03  0.11324406715E+03  0.14481348568E+02  0.28973618903E+03  0.15294330000E+03 0.  0.
    8880022    1    1    2    0    0  0.21799421556E+03 -0.11324406715E+03 -0.36603219682E+03  0.46660145615E+03  0.15294330000E+03 0.  0.
<mgrwt>
<rscale>  0 0.28937407E+03</rscale>
<asrwt>0</asrwt>
<pdfrwt beam="1">  1        4 0.31137446E-01 0.28937407E+03</pdfrwt>
<pdfrwt beam="2">  1       -4 0.85222191E-01 0.28937407E+03</pdfrwt>
<totfact> 0.22453285E+01</totfact>
</mgrwt>
</event>
<event>
 4    1  0.8653772E-009  0.1533074E+03  0.7818608E-02  0.1196467E+00
         -4   -1    0    0    0  501 -0.00000000000E+00  0.00000000000E+00  0.68147611138E+03  0.68147729477E+03  0.12700000000E+01 0.  1.
          4   -1    0    0  501    0  0.00000000000E+00 -0.00000000000E+00 -0.35450583854E+02  0.35473325127E+02  0.12700000000E+01 0.  1.
    8880022    1    1    2    0    0  0.10439080149E+02 -0.15916389696E+01  0.26358690150E+03  0.30492821347E+03  0.15294330000E+03 0.  0.
    8880022    1    1    2    0    0 -0.10439080149E+02  0.15916389696E+01  0.38243862603E+03  0.41202240643E+03  0.15294330000E+03 0.  0.
<mgrwt>
<rscale>  0 0.15330741E+03</rscale>
<asrwt>0</asrwt>
<pdfrwt beam="1">  1        4 0.54557761E-02 0.15330741E+03</pdfrwt>
<pdfrwt beam="2">  1       -4 0.10484432E+00 0.15330741E+03</pdfrwt>
<totfact> 0.27058682E+02</totfact>
</mgrwt>
</event>
<event>
 4    1  0.8653772E-009  0.1949610E+03  0.7818608E-02  0.1154061E+00
         -4   -1    0    0    0  501 -0.00000000000E+00  0.00000000000E+00  0.45123469060E+03  0.45123647780E+03  0.12700000000E+01 0. -1.
          4   -1    0    0  501    0  0.00000000000E+00 -0.00000000000E+00 -0.12560043804E+03  0.12560685863E+03  0.12700000000E+01 0. -1.
    8880022    1    1    2    0    0  0.11263457702E+03 -0.43949878894E+02  0.32834423915E+03  0.38186349943E+03  0.15294330000E+03 0.  0.
    8880022    1    1    2    0    0 -0.11263457702E+03  0.43949878894E+02 -0.27099865955E+01  0.19497983700E+03  0.15294330000E+03 0.  0.
<mgrwt>
<rscale>  0 0.19496100E+03</rscale>
<asrwt>0</asrwt>
<pdfrwt beam="1">  1        4 0.19323776E-01 0.19496100E+03</pdfrwt>
<pdfrwt beam="2">  1       -4 0.69421353E-01 0.19496100E+03</pdfrwt>
<totfact> 0.82536051E+01</totfact>
</mgrwt>
</event>
<event>
 4    1  0.8653772E-009  0.6564404E+03  0.7818608E-02  0.9794769E-01
         -4   -1    0    0    0  501 -0.00000000000E+00  0.00000000000E+00  0.22210081606E+03  0.22210444704E+03  0.12700000000E+01 0. -1.
          4   -1    0    0  501    0  0.00000000000E+00 -0.00000000000E+00 -0.24390779948E+04  0.24390783254E+04  0.12700000000E+01 0. -1.
    8880022    1    1    2    0    0  0.15420013625E+03  0.61947124135E+03 -0.50669284858E+03  0.82924760880E+03  0.15294330000E+03 0.  0.
    8880022    1    1    2    0    0 -0.15420013625E+03 -0.61947124135E+03 -0.17102843302E+04  0.18319351637E+04  0.15294330000E+03 0.  0.
<mgrwt>
<rscale>  0 0.65644037E+03</rscale>
<asrwt>0</asrwt>
<pdfrwt beam="1">  1        4 0.37524305E+00 0.65644037E+03</pdfrwt>
<pdfrwt beam="2">  1       -4 0.34169663E-01 0.65644037E+03</pdfrwt>
<totfact> 0.17554219E-01</totfact>
</mgrwt>
</event>
<event>
 4    1  0.8653772E-009  0.1587057E+03  0.7818608E-02  0.1190166E+00
         -4   -1    0    0    0  501 -0.00000000000E+00  0.00000000000E+00  0.13085134309E+03  0.13085750605E+03  0.12700000000E+01 0.  1.
          4   -1    0    0  501    0  0.00000000000E+00 -0.00000000000E+00 -0.89416666463E+03  0.89416756653E+03  0.12700000000E+01 0.  1.
    8880022    1    1    2    0    0  0.35347393756E+01  0.42229580583E+02 -0.83566808954E+03  0.85060486758E+03  0.15294330000E+03 0.  0.
    8880022    1    1    2    0    0 -0.35347393756E+01 -0.42229580583E+02  0.72352768006E+02  0.17442020500E+03  0.15294330000E+03 0.  0.
<mgrwt>
<rscale>  0 0.15870565E+03</rscale>
<asrwt>0</asrwt>
<pdfrwt beam="1">  1        4 0.13756464E+00 0.15870565E+03</pdfrwt>
<pdfrwt beam="2">  1       -4 0.20131520E-01 0.15870565E+03</pdfrwt>
<totfact> 0.15305667E+01</totfact>
</mgrwt>
</event>
<event>
 4    1  0.8653772E-009  0.1606158E+03  0.7818608E-02  0.1188003E+00
         -4   -1    0    0    0  501 -0.00000000000E+00  0.00000000000E+00  0.79072351530E+03  0.79072453519E+03  0.12700000000E+01 0.  1.
          4   -1    0    0  501    0  0.00000000000E+00 -0.00000000000E+00 -0.33971050590E+02  0.33994781632E+02  0.12700000000E+01 0.  1.
    8880022    1    1    2    0    0  0.43624878801E+02 -0.22419837001E+02  0.29591941995E+03  0.33669828521E+03  0.15294330000E+03 0.  1.
    8880022    1    1    2    0    0 -0.43624878801E+02  0.22419837001E+02  0.46083304476E+03  0.48802103161E+03  0.15294330000E+03 0.  1.
<mgrwt>
<rscale>  0 0.16061579E+03</rscale>
<asrwt>0</asrwt>
<pdfrwt beam="1">  1        4 0.52282195E-02 0.16061579E+03</pdfrwt>
<pdfrwt beam="2">  1       -4 0.12165167E+00 0.16061579E+03</pdfrwt>
<totfact> 0.20513939E+02</totfact>
</mgrwt>
</event>
<event>
 4    1  0.8653772E-009  0.1818347E+03  0.7818608E-02  0.1166039E+00
          4   -1    0    0  501    0  0.00000000000E+00  0.00000000000E+00  0.12979711842E+04  0.12979718055E+04  0.12700000000E+01 0. -1.
         -4   -1    0    0    0  501 -0.00000000000E+00 -0.00000000000E+00 -0.36839132879E+02  0.36861017502E+02  0.12700000000E+01 0. -1.
    8880022    1    1    2    0    0 -0.23193029670E+02  0.95573476436E+02  0.25972145670E+03  0.31704746349E+03  0.15294330000E+03 0.  0.
    8880022    1    1    2    0    0  0.23193029670E+02 -0.95573476436E+02  0.10014105946E+04  0.10177853595E+04  0.15294330000E+03 0.  0.
<mgrwt>
<rscale>  0 0.18183470E+03</rscale>
<asrwt>0</asrwt>
<pdfrwt beam="1">  1        4 0.19968961E+00 0.18183470E+03</pdfrwt>
<pdfrwt beam="2">  1       -4 0.56692901E-02 0.18183470E+03</pdfrwt>
<totfact> 0.49986171E+01</totfact>
</mgrwt>
</event>
<event>
 4    1  0.8653772E-009  0.3407739E+03  0.7818608E-02  0.1066467E+00
          4   -1    0    0  501    0  0.00000000000E+00  0.00000000000E+00  0.81593317912E+03  0.81593416750E+03  0.12700000000E+01 0. -1.
         -4   -1    0    0    0  501 -0.00000000000E+00 -0.00000000000E+00 -0.15369233114E+03  0.15369757822E+03  0.12700000000E+01 0. -1.
    8880022    1    1    2    0    0 -0.21799503740E+03  0.21263427774E+03  0.19924443050E+03  0.39474696769E+03  0.15294330000E+03 0.  0.
    8880022    1    1    2    0    0  0.21799503740E+03 -0.21263427774E+03  0.46299641748E+03  0.57488477803E+03  0.15294330000E+03 0.  0.
<mgrwt>
<rscale>  0 0.34077386E+03</rscale>
<asrwt>0</asrwt>
<pdfrwt beam="1">  1        4 0.12552866E+00 0.34077386E+03</pdfrwt>
<pdfrwt beam="2">  1       -4 0.23645454E-01 0.34077386E+03</pdfrwt>
<totfact> 0.15278846E+01</totfact>
</mgrwt>
</event>
<event>
 4    1  0.8653772E-009  0.1957871E+03  0.7818608E-02  0.1153343E+00
          4   -1    0    0  501    0  0.00000000000E+00  0.00000000000E+00  0.11391991775E+03  0.11392699663E+03  0.12700000000E+01 0.  1.
         -4   -1    0    0    0  501 -0.00000000000E+00 -0.00000000000E+00 -0.37244404979E+03  0.37244621507E+03  0.12700000000E+01 0.  1.
    8880022    1    1    2    0    0  0.11554955718E+03  0.39865275550E+02 -0.53681937699E+02  0.20301316167E+03  0.15294330000E+03 0.  0.
    8880022    1    1    2    0    0 -0.11554955718E+03 -0.39865275550E+02 -0.20484219434E+03  0.28336005003E+03  0.15294330000E+03 0.  0.
<mgrwt>
<rscale>  0 0.19578711E+03</rscale>
<asrwt>0</asrwt>
<pdfrwt beam="1">  1        4 0.17526852E-01 0.19578711E+03</pdfrwt>
<pdfrwt beam="2">  1       -4 0.57299795E-01 0.19578711E+03</pdfrwt>
<totfact> 0.14822116E+02</totfact>
</mgrwt>
</event>
<event>
 4    1  0.8653772E-009  0.1663951E+03  0.7818608E-02  0.1181660E+00
         -4   -1    0    0    0  501 -0.00000000000E+00  0.00000000000E+00  0.17624148746E+03  0.17624606322E+03  0.12700000000E+01 0. -1.
          4   -1    0    0  501    0  0.00000000000E+00 -0.00000000000E+00 -0.19090289493E+03  0.19090711928E+03  0.12700000000E+01 0. -1.
    8880022    1    1    2    0    0  0.65069067266E+02  0.78537123883E+01 -0.84588883305E+02  0.18666171677E+03  0.15294330000E+03 0. -1.
    8880022    1    1    2    0    0 -0.65069067266E+02 -0.78537123883E+01  0.69927475834E+02  0.18049146574E+03  0.15294330000E+03 0. -1.
<mgrwt>
<rscale>  0 0.16639506E+03</rscale>
<asrwt>0</asrwt>
<pdfrwt beam="1">  1        4 0.29370353E-01 0.16639506E+03</pdfrwt>
<pdfrwt beam="2">  1       -4 0.27114752E-01 0.16639506E+03</pdfrwt>
<totfact> 0.24607121E+02</totfact>
</mgrwt>
</event>
<event>
 4    1  0.8653772E-009  0.2408914E+03  0.7818608E-02  0.1119200E+00
         -4   -1    0    0    0  501 -0.00000000000E+00  0.00000000000E+00  0.61111161855E+02  0.61124356874E+02  0.12700000000E+01 0. -1.
          4   -1    0    0  501    0  0.00000000000E+00 -0.00000000000E+00 -0.95213319995E+03  0.95213404694E+03  0.12700000000E+01 0. -1.
    8880022    1    1    2    0    0  0.22629975491E+02  0.18472920958E+03 -0.47244159717E+03  0.53031095823E+03  0.15294330000E+03 0. -1.
    8880022    1    1    2    0    0 -0.22629975491E+02 -0.18472920958E+03 -0.41858044092E+03  0.48294744559E+03  0.15294330000E+03 0. -1.
<mgrwt>
<rscale>  0 0.24089136E+03</rscale>
<asrwt>0</asrwt>
<pdfrwt beam="1">  1        4 0.14648310E+00 0.24089136E+03</pdfrwt>
<pdfrwt beam="2">  1       -4 0.94027981E-02 0.24089136E+03</pdfrwt>
<totfact> 0.51538258E+01</totfact>
</mgrwt>
</event>
<event>
 4    1  0.8653772E-009  0.1942571E+03  0.7818608E-02  0.1154677E+00
          4   -1    0    0  501    0  0.00000000000E+00  0.00000000000E+00  0.81936736082E+03  0.81936834506E+03  0.12700000000E+01 0.  1.
         -4   -1    0    0    0  501 -0.00000000000E+00 -0.00000000000E+00 -0.54571416442E+02  0.54586192324E+02  0.12700000000E+01 0.  1.
    8880022    1    1    2    0    0 -0.96780872802E+02  0.70552260129E+02  0.20969883741E+03  0.28584858610E+03  0.15294330000E+03 0.  1.
    8880022    1    1    2    0    0  0.96780872802E+02 -0.70552260129E+02  0.55509710697E+03  0.58810595128E+03  0.15294330000E+03 0.  1.
<mgrwt>
<rscale>  0 0.19425708E+03</rscale>
<asrwt>0</asrwt>
<pdfrwt beam="1">  1        4 0.12605771E+00 0.19425708E+03</pdfrwt>
<pdfrwt beam="2">  1       -4 0.83968159E-02 0.19425708E+03</pdfrwt>
<totfact> 0.88674912E+01</totfact>
</mgrwt>
</event>
<event>
 4    1  0.8653772E-009  0.1692131E+03  0.7818608E-02  0.1178671E+00
         -4   -1    0    0    0  501 -0.00000000000E+00  0.00000000000E+00  0.48087635453E+03  0.48087803157E+03  0.12700000000E+01 0. -1.
          4   -1    0    0  501    0  0.00000000000E+00 -0.00000000000E+00 -0.16630336754E+03  0.16630821674E+03  0.12700000000E+01 0. -1.
    8880022    1    1    2    0    0  0.31469566066E+02 -0.65200271228E+02 -0.10198571752E+03  0.19757061661E+03  0.15294330000E+03 0.  0.
    8880022    1    1    2    0    0 -0.31469566066E+02  0.65200271228E+02  0.41655870450E+03  0.44961563170E+03  0.15294330000E+03 0.  0.
<mgrwt>
<rscale>  0 0.16921307E+03</rscale>
<asrwt>0</asrwt>
<pdfrwt beam="1">  1        4 0.25585636E-01 0.16921307E+03</pdfrwt>
<pdfrwt beam="2">  1       -4 0.73981478E-01 0.16921307E+03</pdfrwt>
<totfact> 0.42170317E+01</totfact>
</mgrwt>
</event>
<event>
 4    1  0.8653772E-009  0.2192864E+03  0.7818608E-02  0.1134416E+00
          4   -1    0    0  501    0  0.00000000000E+00  0.00000000000E+00  0.16720493695E+03  0.16720976000E+03  0.12700000000E+01 0.  1.
         -4   -1    0    0    0  501 -0.00000000000E+00 -0.00000000000E+00 -0.29572002244E+03  0.29572274950E+03  0.12700000000E+01 0.  1.
    8880022    1    1    2    0    0  0.15670767782E+03  0.11729158138E+02 -0.10265971398E+03  0.24212711399E+03  0.15294330000E+03 0.  0.
    8880022    1    1    2    0    0 -0.15670767782E+03 -0.11729158138E+02 -0.25855371516E+02  0.22080539552E+03  0.15294330000E+03 0.  0.
<mgrwt>
<rscale>  0 0.21928639E+03</rscale>
<asrwt>0</asrwt>
<pdfrwt beam="1">  1        4 0.25724417E-01 0.21928639E+03</pdfrwt>
<pdfrwt beam="2">  1       -4 0.45495969E-01 0.21928639E+03</pdfrwt>
<totfact> 0.12015929E+02</totfact>
</mgrwt>
</event>
<event>
 4    1  0.8653772E-009  0.1537656E+03  0.7818608E-02  0.1195921E+00
         -4   -1    0    0    0  501 -0.00000000000E+00  0.00000000000E+00  0.14637414126E+02  0.14692405939E+02  0.12700000000E+01 0. -1.
          4   -1    0    0  501    0  0.00000000000E+00 -0.00000000000E+00 -0.17067388782E+04  0.17067393507E+04  0.12700000000E+01 0. -1.
    8880022    1    1    2    0    0  0.12012268806E+02 -0.10388715990E+02 -0.64350260348E+03  0.66161882812E+03  0.15294330000E+03 0.  1.
    8880022    1    1    2    0    0 -0.12012268806E+02  0.10388715990E+02 -0.10485988606E+04  0.10598129285E+04  0.15294330000E+03 0.  1.
<mgrwt>
<rscale>  0 0.15376564E+03</rscale>
<asrwt>0</asrwt>
<pdfrwt beam="1">  1        4 0.26257932E+00 0.15376564E+03</pdfrwt>
<pdfrwt beam="2">  1       -4 0.22561777E-02 0.15376564E+03</pdfrwt>
<totfact> 0.89427355E+01</totfact>
</mgrwt>
</event>
<event>
 4    1  0.8653772E-009  0.3046073E+03  0.7818608E-02  0.1082960E+00
          4   -1    0    0  501    0  0.00000000000E+00  0.00000000000E+00  0.17858945831E+03  0.17859397392E+03  0.12700000000E+01 0. -1.
         -4   -1    0    0    0  501 -0.00000000000E+00 -0.00000000000E+00 -0.86636372368E+03  0.86636465453E+03  0.12700000000E+01 0. -1.
    8880022    1    1    2    0    0 -0.18239022876E+03  0.19007307608E+03 -0.13308369869E+02  0.30489790999E+03  0.15294330000E+03 0.  0.
    8880022    1    1    2    0    0  0.18239022876E+03 -0.19007307608E+03 -0.67446589550E+03  0.74006071846E+03  0.15294330000E+03 0.  0.
<mgrwt>
<rscale>  0 0.30460733E+03</rscale>
<asrwt>0</asrwt>
<pdfrwt beam="1">  1        4 0.27475721E-01 0.30460733E+03</pdfrwt>
<pdfrwt beam="2">  1       -4 0.13328714E+00 0.30460733E+03</pdfrwt>
<totfact> 0.98387415E+00</totfact>
</mgrwt>
</event>
<event>
 4    1  0.8653772E-009  0.4079351E+03  0.7818608E-02  0.1041066E+00
         -4   -1    0    0    0  501 -0.00000000000E+00  0.00000000000E+00  0.24649205902E+03  0.24649533070E+03  0.12700000000E+01 0.  1.
          4   -1    0    0  501    0  0.00000000000E+00 -0.00000000000E+00 -0.18456537157E+04  0.18456541527E+04  0.12700000000E+01 0.  1.
    8880022    1    1    2    0    0 -0.35284506194E+03 -0.13608723968E+03 -0.16326501800E+04  0.16828421310E+04  0.15294330000E+03 0.  0.
    8880022    1    1    2    0    0  0.35284506194E+03  0.13608723968E+03  0.33488523270E+02  0.40930735242E+03  0.15294330000E+03 0.  0.
<mgrwt>
<rscale>  0 0.40793508E+03</rscale>
<asrwt>0</asrwt>
<pdfrwt beam="1">  1        4 0.28394700E+00 0.40793508E+03</pdfrwt>
<pdfrwt beam="2">  1       -4 0.37922142E-01 0.40793508E+03</pdfrwt>
<totfact> 0.54301596E-01</totfact>
</mgrwt>
</event>
<event>
 4    1  0.8653772E-009  0.2118075E+03  0.7818608E-02  0.1140143E+00
          4   -1    0    0  501    0  0.00000000000E+00  0.00000000000E+00  0.21148498941E+03  0.21148880265E+03  0.12700000000E+01 0. -1.
         -4   -1    0    0    0  501 -0.00000000000E+00 -0.00000000000E+00 -0.21735726921E+03  0.21736097943E+03  0.12700000000E+01 0. -1.
    8880022    1    1    2    0    0  0.11619269635E+03 -0.89274895403E+02  0.30338744529E+02  0.21396925496E+03  0.15294330000E+03 0.  0.
    8880022    1    1    2    0    0 -0.11619269635E+03  0.89274895403E+02 -0.36211024330E+02  0.21488052711E+03  0.15294330000E+03 0.  0.
<mgrwt>
<rscale>  0 0.21180747E+03</rscale>
<asrwt>0</asrwt>
<pdfrwt beam="1">  1        4 0.32536731E-01 0.21180747E+03</pdfrwt>
<pdfrwt beam="2">  1       -4 0.33440159E-01 0.21180747E+03</pdfrwt>
<totfact> 0.14080896E+02</totfact>
</mgrwt>
</event>
<event>
 4    1  0.8653772E-009  0.2470942E+03  0.7818608E-02  0.1115155E+00
         -4   -1    0    0    0  501 -0.00000000000E+00  0.00000000000E+00  0.11020972245E+04  0.11020979563E+04  0.12700000000E+01 0.  1.
          4   -1    0    0  501    0  0.00000000000E+00 -0.00000000000E+00 -0.88163733092E+02  0.88172879802E+02  0.12700000000E+01 0.  1.
    8880022    1    1    2    0    0  0.35677433855E+01  0.19403902621E+03  0.86978880782E+03  0.90420578173E+03  0.15294330000E+03 0.  0.
    8880022    1    1    2    0    0 -0.35677433855E+01 -0.19403902621E+03  0.14414468361E+03  0.28606505433E+03  0.15294330000E+03 0.  0.
<mgrwt>
<rscale>  0 0.24709416E+03</rscale>
<asrwt>0</asrwt>
<pdfrwt beam="1">  1        4 0.13564412E-01 0.24709416E+03</pdfrwt>
<pdfrwt beam="2">  1       -4 0.16955417E+00 0.24709416E+03</pdfrwt>
<totfact> 0.18684727E+01</totfact>
</mgrwt>
</event>
<event>
 4    1  0.8653772E-009  0.1684014E+03  0.7818608E-02  0.1179525E+00
         -4   -1    0    0    0  501 -0.00000000000E+00  0.00000000000E+00  0.20163207550E+03  0.20163607507E+03  0.12700000000E+01 0. -1.
          4   -1    0    0  501    0  0.00000000000E+00 -0.00000000000E+00 -0.15983601774E+03  0.15984106314E+03  0.12700000000E+01 0. -1.
    8880022    1    1    2    0    0  0.14673963665E+02 -0.68935181190E+02  0.83532800804E+02  0.18798076029E+03  0.15294330000E+03 0.  0.
    8880022    1    1    2    0    0 -0.14673963665E+02  0.68935181190E+02 -0.41736743041E+02  0.17349637792E+03  0.15294330000E+03 0.  0.
<mgrwt>
<rscale>  0 0.16840142E+03</rscale>
<asrwt>0</asrwt>
<pdfrwt beam="1">  1        4 0.24590853E-01 0.16840142E+03</pdfrwt>
<pdfrwt beam="2">  1       -4 0.31021015E-01 0.16840142E+03</pdfrwt>
<totfact> 0.26655466E+02</totfact>
</mgrwt>
</event>
<event>
 4    1  0.8653772E-009  0.1612062E+03  0.7818608E-02  0.1187342E+00
         -4   -1    0    0    0  501 -0.00000000000E+00  0.00000000000E+00  0.13205209544E+04  0.13205215651E+04  0.12700000000E+01 0. -1.
          4   -1    0    0  501    0  0.00000000000E+00 -0.00000000000E+00 -0.19726212461E+02  0.19767052336E+02  0.12700000000E+01 0. -1.
    8880022    1    1    2    0    0  0.17386882473E+01  0.50919158636E+02  0.61119903635E+03  0.63210101946E+03  0.15294330000E+03 0.  1.
    8880022    1    1    2    0    0 -0.17386882473E+01 -0.50919158636E+02  0.68959570562E+03  0.70818759802E+03  0.15294330000E+03 0.  1.
<mgrwt>
<rscale>  0 0.16120619E+03</rscale>
<asrwt>0</asrwt>
<pdfrwt beam="1">  1        4 0.30379908E-02 0.16120619E+03</pdfrwt>
<pdfrwt beam="2">  1       -4 0.20316023E+00 0.16120619E+03</pdfrwt>
<totfact> 0.12714404E+02</totfact>
</mgrwt>
</event>
<event>
 4    1  0.8653772E-009  0.2053108E+03  0.7818608E-02  0.1145334E+00
          4   -1    0    0  501    0  0.00000000000E+00  0.00000000000E+00  0.91291619141E+03  0.91291707478E+03  0.12700000000E+01 0.  1.
         -4   -1    0    0    0  501 -0.00000000000E+00 -0.00000000000E+00 -0.59485555560E+02  0.59499111088E+02  0.12700000000E+01 0.  1.
    8880022    1    1    2    0    0 -0.13201708058E+03 -0.36501441046E+02  0.65677294566E+03  0.68811570243E+03  0.15294330000E+03 0.  0.
    8880022    1    1    2    0    0  0.13201708058E+03  0.36501441046E+02  0.19665769019E+03  0.28430048344E+03  0.15294330000E+03 0.  0.
<mgrwt>
<rscale>  0 0.20531078E+03</rscale>
<asrwt>0</asrwt>
<pdfrwt beam="1">  1        4 0.14044976E+00 0.20531078E+03</pdfrwt>
<pdfrwt beam="2">  1       -4 0.91527346E-02 0.20531078E+03</pdfrwt>
<totfact> 0.59004951E+01</totfact>
</mgrwt>
</event>
<event>
 4    1  0.8653772E-009  0.2890360E+03  0.7818608E-02  0.1090854E+00
         -4   -1    0    0    0  501 -0.00000000000E+00  0.00000000000E+00  0.52813718373E+03  0.52813871070E+03  0.12700000000E+01 0.  1.
          4   -1    0    0  501    0  0.00000000000E+00 -0.00000000000E+00 -0.17563307708E+03  0.17563766870E+03  0.12700000000E+01 0.  1.
    8880022    1    1    2    0    0  0.16861650623E+03 -0.17809731791E+03  0.65319899828E+02  0.29632502956E+03  0.15294330000E+03 0.  0.
    8880022    1    1    2    0    0 -0.16861650623E+03  0.17809731791E+03  0.28718420682E+03  0.40745134983E+03  0.15294330000E+03 0.  0.
<mgrwt>
<rscale>  0 0.28903604E+03</rscale>
<asrwt>0</asrwt>
<pdfrwt beam="1">  1        4 0.27020944E-01 0.28903604E+03</pdfrwt>
<pdfrwt beam="2">  1       -4 0.81252344E-01 0.28903604E+03</pdfrwt>
<totfact> 0.32788649E+01</totfact>
</mgrwt>
</event>
<event>
 4    1  0.8653772E-009  0.2236208E+03  0.7818608E-02  0.1131212E+00
         -4   -1    0    0    0  501 -0.00000000000E+00  0.00000000000E+00  0.15915952009E+04  0.15915957076E+04  0.12700000000E+01 0. -1.
          4   -1    0    0  501    0  0.00000000000E+00 -0.00000000000E+00 -0.31659973222E+02  0.31685435209E+02  0.12700000000E+01 0. -1.
    8880022    1    1    2    0    0  0.69855587796E+02 -0.14742721555E+03  0.70724539296E+03  0.74175621730E+03  0.15294330000E+03 0.  0.
    8880022    1    1    2    0    0 -0.69855587796E+02  0.14742721555E+03  0.85268983474E+03  0.88152492552E+03  0.15294330000E+03 0.  0.
<mgrwt>
<rscale>  0 0.22362075E+03</rscale>
<asrwt>0</asrwt>
<pdfrwt beam="1">  1        4 0.48727622E-02 0.22362075E+03</pdfrwt>
<pdfrwt beam="2">  1       -4 0.24486282E+00 0.22362075E+03</pdfrwt>
<totfact> 0.34724910E+01</totfact>
</mgrwt>
</event>
<event>
 4    1  0.8653772E-009  0.1616534E+03  0.7818608E-02  0.1186843E+00
          4   -1    0    0  501    0  0.00000000000E+00  0.00000000000E+00  0.82869070699E+02  0.82878801744E+02  0.12700000000E+01 0. -1.
         -4   -1    0    0    0  501 -0.00000000000E+00 -0.00000000000E+00 -0.41097913817E+03  0.41098110043E+03  0.12700000000E+01 0. -1.
    8880022    1    1    2    0    0 -0.47366237178E+02  0.22284361863E+02 -0.28319181458E+03  0.32608190700E+03  0.15294330000E+03 0.  0.
    8880022    1    1    2    0    0  0.47366237178E+02 -0.22284361863E+02 -0.44918252883E+02  0.16777799518E+03  0.15294330000E+03 0.  0.
<mgrwt>
<rscale>  0 0.16165335E+03</rscale>
<asrwt>0</asrwt>
<pdfrwt beam="1">  1        4 0.12749988E-01 0.16165335E+03</pdfrwt>
<pdfrwt beam="2">  1       -4 0.63228458E-01 0.16165335E+03</pdfrwt>
<totfact> 0.20436488E+02</totfact>
</mgrwt>
</event>
<event>
 4    1  0.8653772E-009  0.1866758E+03  0.7818608E-02  0.1161494E+00
          4   -1    0    0  501    0  0.00000000000E+00  0.00000000000E+00  0.18632912724E+03  0.18633345528E+03  0.12700000000E+01 0. -1.
         -4   -1    0    0    0  501 -0.00000000000E+00 -0.00000000000E+00 -0.20747046432E+03  0.20747435134E+03  0.12700000000E+01 0. -1.
    8880022    1    1    2    0    0  0.60068778737E+02  0.88588695410E+02  0.51256159157E+02  0.19358476696E+03  0.15294330000E+03 0.  0.
    8880022    1    1    2    0    0 -0.60068778737E+02 -0.88588695410E+02 -0.72397496240E+02  0.20022303966E+03  0.15294330000E+03 0.  0.
<mgrwt>
<rscale>  0 0.18667584E+03</rscale>
<asrwt>0</asrwt>
<pdfrwt beam="1">  1        4 0.28666651E-01 0.18667584E+03</pdfrwt>
<pdfrwt beam="2">  1       -4 0.31919165E-01 0.18667584E+03</pdfrwt>
<totfact> 0.19259364E+02</totfact>
</mgrwt>
</event>
<event>
 4    1  0.8653772E-009  0.1709100E+03  0.7818608E-02  0.1176902E+00
         -4   -1    0    0    0  501 -0.00000000000E+00  0.00000000000E+00  0.25395215188E+03  0.25395532746E+03  0.12700000000E+01 0. -1.
          4   -1    0    0  501    0  0.00000000000E+00 -0.00000000000E+00 -0.14325317458E+03  0.14325880401E+03  0.12700000000E+01 0. -1.
    8880022    1    1    2    0    0 -0.40245364665E+02 -0.64798787749E+02  0.14352445386E+03  0.22318040716E+03  0.15294330000E+03 0.  0.
    8880022    1    1    2    0    0  0.40245364665E+02  0.64798787749E+02 -0.32825476558E+02  0.17403372431E+03  0.15294330000E+03 0.  0.
<mgrwt>
<rscale>  0 0.17090999E+03</rscale>
<asrwt>0</asrwt>
<pdfrwt beam="1">  1        4 0.22039627E-01 0.17090999E+03</pdfrwt>
<pdfrwt beam="2">  1       -4 0.39070239E-01 0.17090999E+03</pdfrwt>
<totfact> 0.20900361E+02</totfact>
</mgrwt>
</event>
<event>
 4    1  0.8653772E-009  0.2015418E+03  0.7818608E-02  0.1148445E+00
          4   -1    0    0  501    0  0.00000000000E+00  0.00000000000E+00  0.66814511308E+02  0.66826580201E+02  0.12700000000E+01 0. -1.
         -4   -1    0    0    0  501 -0.00000000000E+00 -0.00000000000E+00 -0.70982899822E+03  0.70983013434E+03  0.12700000000E+01 0. -1.
    8880022    1    1    2    0    0  0.15072196636E+02  0.13038502552E+03 -0.46868094485E+03  0.51017732904E+03  0.15294330000E+03 0.  0.
    8880022    1    1    2    0    0 -0.15072196636E+02 -0.13038502552E+03 -0.17433354206E+03  0.26647938549E+03  0.15294330000E+03 0.  0.
<mgrwt>
<rscale>  0 0.20154175E+03</rscale>
<asrwt>0</asrwt>
<pdfrwt beam="1">  1        4 0.10280172E-01 0.20154175E+03</pdfrwt>
<pdfrwt beam="2">  1       -4 0.10920547E+00 0.20154175E+03</pdfrwt>
<totfact> 0.89509471E+01</totfact>
</mgrwt>
</event>
<event>
 4    1  0.8653772E-009  0.1544868E+03  0.7818608E-02  0.1195066E+00
         -4   -1    0    0    0  501 -0.00000000000E+00  0.00000000000E+00  0.12332189372E+04  0.12332195912E+04  0.12700000000E+01 0.  1.
          4   -1    0    0  501    0  0.00000000000E+00 -0.00000000000E+00 -0.19744085012E+02  0.19784887994E+02  0.12700000000E+01 0.  1.
    8880022    1    1    2    0    0 -0.18946673445E+02  0.10749442159E+02  0.51624155817E+03  0.53886132385E+03  0.15294330000E+03 0.  1.
    8880022    1    1    2    0    0  0.18946673445E+02 -0.10749442159E+02  0.69723329405E+03  0.71414315531E+03  0.15294330000E+03 0.  1.
<mgrwt>
<rscale>  0 0.15448683E+03</rscale>
<asrwt>0</asrwt>
<pdfrwt beam="1">  1        4 0.30407406E-02 0.15448683E+03</pdfrwt>
<pdfrwt beam="2">  1       -4 0.18972917E+00 0.15448683E+03</pdfrwt>
<totfact> 0.15336731E+02</totfact>
</mgrwt>
</event>
<event>
 4    1  0.8653772E-009  0.1725287E+03  0.7818608E-02  0.1175236E+00
         -4   -1    0    0    0  501 -0.00000000000E+00  0.00000000000E+00  0.12270019401E+04  0.12270025973E+04  0.12700000000E+01 0.  1.
          4   -1    0    0  501    0  0.00000000000E+00 -0.00000000000E+00 -0.88854179095E+02  0.88863254738E+02  0.12700000000E+01 0.  1.
    8880022    1    1    2    0    0  0.53125371800E+02  0.59600243979E+02  0.80947653807E+01  0.17271847745E+03  0.15294330000E+03 0.  0.
    8880022    1    1    2    0    0 -0.53125371800E+02 -0.59600243979E+02  0.11300529956E+04  0.11431473746E+04  0.15294330000E+03 0.  0.
<mgrwt>
<rscale>  0 0.17252869E+03</rscale>
<asrwt>0</asrwt>
<pdfrwt beam="1">  1        4 0.13670624E-01 0.17252869E+03</pdfrwt>
<pdfrwt beam="2">  1       -4 0.18877026E+00 0.17252869E+03</pdfrwt>
<totfact> 0.13304104E+01</totfact>
</mgrwt>
</event>
<event>
 4    1  0.8653772E-009  0.2199078E+03  0.7818608E-02  0.1133952E+00
          4   -1    0    0  501    0  0.00000000000E+00  0.00000000000E+00  0.78543971874E+03  0.78544074549E+03  0.12700000000E+01 0.  1.
         -4   -1    0    0    0  501 -0.00000000000E+00 -0.00000000000E+00 -0.67156354302E+02  0.67168361772E+02  0.12700000000E+01 0.  1.
    8880022    1    1    2    0    0 -0.15726417138E+03 -0.15354378656E+02  0.23611558771E+03  0.32266081311E+03  0.15294330000E+03 0.  0.
    8880022    1    1    2    0    0  0.15726417138E+03  0.15354378656E+02  0.48216777673E+03  0.52994829415E+03  0.15294330000E+03 0.  0.
<mgrwt>
<rscale>  0 0.21990778E+03</rscale>
<asrwt>0</asrwt>
<pdfrwt beam="1">  1        4 0.12083789E+00 0.21990778E+03</pdfrwt>
<pdfrwt beam="2">  1       -4 0.10332749E-01 0.21990778E+03</pdfrwt>
<totfact> 0.70333972E+01</totfact>
</mgrwt>
</event>
<event>
 4    1  0.8653772E-009  0.2285919E+03  0.7818608E-02  0.1127635E+00
         -4   -1    0    0    0  501 -0.00000000000E+00  0.00000000000E+00  0.78624655601E+02  0.78634911893E+02  0.12700000000E+01 0.  1.
          4   -1    0    0  501    0  0.00000000000E+00 -0.00000000000E+00 -0.10680326145E+04  0.10680333696E+04  0.12700000000E+01 0.  1.
    8880022    1    1    2    0    0 -0.14235552707E+03  0.92722709310E+02 -0.14231212665E+03  0.26927122259E+03  0.15294330000E+03 0.  0.
    8880022    1    1    2    0    0  0.14235552707E+03 -0.92722709310E+02 -0.84709583227E+03  0.87739705890E+03  0.15294330000E+03 0.  0.
<mgrwt>
<rscale>  0 0.22859189E+03</rscale>
<asrwt>0</asrwt>
<pdfrwt beam="1">  1        4 0.16431355E+00 0.22859189E+03</pdfrwt>
<pdfrwt beam="2">  1       -4 0.12096949E-01 0.22859189E+03</pdfrwt>
<totfact> 0.24651033E+01</totfact>
</mgrwt>
</event>
<event>
 4    1  0.8653772E-009  0.4173105E+03  0.7818608E-02  0.1037945E+00
         -4   -1    0    0    0  501 -0.00000000000E+00  0.00000000000E+00  0.39618585040E+03  0.39618788593E+03  0.12700000000E+01 0. -1.
          4   -1    0    0  501    0  0.00000000000E+00 -0.00000000000E+00 -0.71022905841E+03  0.71023019388E+03  0.12700000000E+01 0. -1.
    8880022    1    1    2    0    0 -0.25292496475E+03  0.29459354707E+03 -0.49853704679E+03  0.65014401159E+03  0.15294330000E+03 0.  0.
    8880022    1    1    2    0    0  0.25292496475E+03 -0.29459354707E+03  0.18449383878E+03  0.45627406823E+03  0.15294330000E+03 0.  0.
<mgrwt>
<rscale>  0 0.41731049E+03</rscale>
<asrwt>0</asrwt>
<pdfrwt beam="1">  1        4 0.10926625E+00 0.41731049E+03</pdfrwt>
<pdfrwt beam="2">  1       -4 0.60951913E-01 0.41731049E+03</pdfrwt>
<totfact> 0.32728784E+00</totfact>
</mgrwt>
</event>
<event>
 4    1  0.8653772E-009  0.1644584E+03  0.7818608E-02  0.1183753E+00
          4   -1    0    0  501    0  0.00000000000E+00  0.00000000000E+00  0.33259483706E+03  0.33259726177E+03  0.12700000000E+01 0.  1.
         -4   -1    0    0    0  501 -0.00000000000E+00 -0.00000000000E+00 -0.95793550699E+02  0.95801968954E+02  0.12700000000E+01 0.  1.
    8880022    1    1    2    0    0 -0.58261632097E+02  0.16139751038E+02  0.35122841447E+02  0.16816710839E+03  0.15294330000E+03 0.  0.
    8880022    1    1    2    0    0  0.58261632097E+02 -0.16139751038E+02  0.20167844491E+03  0.26023212234E+03  0.15294330000E+03 0.  0.
<mgrwt>
<rscale>  0 0.16445839E+03</rscale>
<asrwt>0</asrwt>
<pdfrwt beam="1">  1        4 0.51169270E-01 0.16445839E+03</pdfrwt>
<pdfrwt beam="2">  1       -4 0.14738303E-01 0.16445839E+03</pdfrwt>
<totfact> 0.24787328E+02</totfact>
</mgrwt>
</event>
<event>
 4    1  0.8653772E-009  0.4277235E+03  0.7818608E-02  0.1034582E+00
          4   -1    0    0  501    0  0.00000000000E+00  0.00000000000E+00  0.47943820771E+03  0.47943988978E+03  0.12700000000E+01 0. -1.
         -4   -1    0    0    0  501 -0.00000000000E+00 -0.00000000000E+00 -0.78439138623E+03  0.78439241435E+03  0.12700000000E+01 0.  1.
    8880022    1    1    2    0    0  0.14498511324E+03  0.37220295867E+03 -0.60531274055E+03  0.74118209125E+03  0.15294330000E+03 0.  0.
    8880022    1    1    2    0    0 -0.14498511324E+03 -0.37220295867E+03  0.30035956203E+03  0.52265021287E+03  0.15294330000E+03 0.  0.
<mgrwt>
<rscale>  0 0.42772348E+03</rscale>
<asrwt>0</asrwt>
<pdfrwt beam="1">  1        4 0.73759933E-01 0.42772348E+03</pdfrwt>
<pdfrwt beam="2">  1       -4 0.12067581E+00 0.42772348E+03</pdfrwt>
<totfact> 0.16925450E+00</totfact>
</mgrwt>
</event>
<event>
 4    1  0.8653772E-009  0.1771905E+03  0.7818608E-02  0.1170550E+00
          4   -1    0    0  501    0  0.00000000000E+00  0.00000000000E+00  0.24435155684E+03  0.24435485718E+03  0.12700000000E+01 0. -1.
         -4   -1    0    0    0  501 -0.00000000000E+00 -0.00000000000E+00 -0.22766647367E+03  0.22767001588E+03  0.12700000000E+01 0. -1.
    8880022    1    1    2    0    0  0.63847692474E+02  0.62676096964E+02 -0.14743331690E+03  0.23050608866E+03  0.15294330000E+03 0.  0.
    8880022    1    1    2    0    0 -0.63847692474E+02 -0.62676096964E+02  0.16411840006E+03  0.24151878440E+03  0.15294330000E+03 0.  0.
<mgrwt>
<rscale>  0 0.17719050E+03</rscale>
<asrwt>0</asrwt>
<pdfrwt beam="1">  1        4 0.37593074E-01 0.17719050E+03</pdfrwt>
<pdfrwt beam="2">  1       -4 0.35026138E-01 0.17719050E+03</pdfrwt>
<totfact> 0.94804463E+01</totfact>
</mgrwt>
</event>
<event>
 4    1  0.8653772E-009  0.1691603E+03  0.7818608E-02  0.1178726E+00
          4   -1    0    0  501    0  0.00000000000E+00  0.00000000000E+00  0.27577900958E+03  0.27578193383E+03  0.12700000000E+01 0.  1.
         -4   -1    0    0    0  501 -0.00000000000E+00 -0.00000000000E+00 -0.10418762474E+03  0.10419536482E+03  0.12700000000E+01 0.  1.
    8880022    1    1    2    0    0 -0.56466256197E+02 -0.45112398518E+02  0.98051115319E+02  0.19552299307E+03  0.15294330000E+03 0.  0.
    8880022    1    1    2    0    0  0.56466256197E+02  0.45112398518E+02  0.73540269520E+02  0.18445430557E+03  0.15294330000E+03 0.  0.
<mgrwt>
<rscale>  0 0.16916034E+03</rscale>
<asrwt>0</asrwt>
<pdfrwt beam="1">  1        4 0.42428360E-01 0.16916034E+03</pdfrwt>
<pdfrwt beam="2">  1       -4 0.16029686E-01 0.16916034E+03</pdfrwt>
<totfact> 0.31384793E+02</totfact>
</mgrwt>
</event>
<event>
 4    1  0.8653772E-009  0.2165558E+03  0.7818608E-02  0.1136477E+00
          4   -1    0    0  501    0  0.00000000000E+00  0.00000000000E+00  0.59688785918E+03  0.59688921027E+03  0.12700000000E+01 0.  1.
         -4   -1    0    0    0  501 -0.00000000000E+00 -0.00000000000E+00 -0.10756837439E+03  0.10757587122E+03  0.12700000000E+01 0.  1.
    8880022    1    1    2    0    0  0.75264393764E+02 -0.13356650781E+03  0.61758706972E+02  0.22518999063E+03  0.15294330000E+03 0.  0.
    8880022    1    1    2    0    0 -0.75264393764E+02  0.13356650781E+03  0.42756077782E+03  0.47927509086E+03  0.15294330000E+03 0.  0.
<mgrwt>
<rscale>  0 0.21655575E+03</rscale>
<asrwt>0</asrwt>
<pdfrwt beam="1">  1        4 0.91829584E-01 0.21655575E+03</pdfrwt>
<pdfrwt beam="2">  1       -4 0.16549661E-01 0.21655575E+03</pdfrwt>
<totfact> 0.59149482E+01</totfact>
</mgrwt>
</event>
<event>
 4    1  0.8653772E-009  0.3862672E+03  0.7818608E-02  0.1048641E+00
         -4   -1    0    0    0  501 -0.00000000000E+00  0.00000000000E+00  0.26799253496E+04  0.26799256505E+04  0.12700000000E+01 0.  1.
          4   -1    0    0  501    0  0.00000000000E+00 -0.00000000000E+00 -0.69593583014E+02  0.69605170043E+02  0.12700000000E+01 0.  1.
    8880022    1    1    2    0    0  0.19409428515E+03 -0.29688068222E+03  0.19201047130E+04  0.19585720546E+04  0.15294330000E+03 0.  0.
    8880022    1    1    2    0    0 -0.19409428515E+03  0.29688068222E+03  0.69022705360E+03  0.79095876602E+03  0.15294330000E+03 0.  0.
<mgrwt>
<rscale>  0 0.38626724E+03</rscale>
<asrwt>0</asrwt>
<pdfrwt beam="1">  1        4 0.10707618E-01 0.38626724E+03</pdfrwt>
<pdfrwt beam="2">  1       -4 0.41229719E+00 0.38626724E+03</pdfrwt>
<totfact> 0.86048338E-01</totfact>
</mgrwt>
</event>
<event>
 4    1  0.8653772E-009  0.3543890E+03  0.7818608E-02  0.1060828E+00
          4   -1    0    0  501    0  0.00000000000E+00  0.00000000000E+00  0.16222056902E+03  0.16222554026E+03  0.12700000000E+01 0. -1.
         -4   -1    0    0    0  501 -0.00000000000E+00 -0.00000000000E+00 -0.93210651977E+03  0.93210738496E+03  0.12700000000E+01 0. -1.
    8880022    1    1    2    0    0 -0.17457008007E+03  0.26781556419E+03 -0.15972346480E+03  0.38871985735E+03  0.15294330000E+03 0.  0.
    8880022    1    1    2    0    0  0.17457008007E+03 -0.26781556419E+03 -0.61016248595E+03  0.70561306787E+03  0.15294330000E+03 0.  0.
<mgrwt>
<rscale>  0 0.35438897E+03</rscale>
<asrwt>0</asrwt>
<pdfrwt beam="1">  1        4 0.24957460E-01 0.35438897E+03</pdfrwt>
<pdfrwt beam="2">  1       -4 0.14340145E+00 0.35438897E+03</pdfrwt>
<totfact> 0.98810070E+00</totfact>
</mgrwt>
</event>
<event>
 4    1  0.8653772E-009  0.1966490E+03  0.7818608E-02  0.1152597E+00
          4   -1    0    0  501    0  0.00000000000E+00  0.00000000000E+00  0.27678122932E+04  0.27678125846E+04  0.12700000000E+01 0. -1.
         -4   -1    0    0    0  501 -0.00000000000E+00 -0.00000000000E+00 -0.15005902716E+02  0.15059549008E+02  0.12700000000E+01 0. -1.
    8880022    1    1    2    0    0  0.91686800252E+02 -0.82901716873E+02  0.17461288975E+04  0.17571673067E+04  0.15294330000E+03 0.  0.
    8880022    1    1    2    0    0 -0.91686800252E+02  0.82901716873E+02  0.10066774929E+04  0.10257048268E+04  0.15294330000E+03 0.  0.
<mgrwt>
<rscale>  0 0.19664897E+03</rscale>
<asrwt>0</asrwt>
<pdfrwt beam="1">  1        4 0.42582151E+00 0.19664897E+03</pdfrwt>
<pdfrwt beam="2">  1       -4 0.23127490E-02 0.19664897E+03</pdfrwt>
<totfact> 0.85621911E+00</totfact>
</mgrwt>
</event>
<event>
 4    1  0.8653772E-009  0.1845310E+03  0.7818608E-02  0.1163489E+00
         -4   -1    0    0    0  501 -0.00000000000E+00  0.00000000000E+00  0.10356845539E+03  0.10357624174E+03  0.12700000000E+01 0. -1.
          4   -1    0    0  501    0  0.00000000000E+00 -0.00000000000E+00 -0.52782523612E+03  0.52782676399E+03  0.12700000000E+01 0. -1.
    8880022    1    1    2    0    0 -0.58029709051E+02 -0.85396618059E+02 -0.40600350367E+03  0.44597144249E+03  0.15294330000E+03 0.  0.
    8880022    1    1    2    0    0  0.58029709051E+02  0.85396618059E+02 -0.18253277057E+02  0.18543156324E+03  0.15294330000E+03 0.  0.
<mgrwt>
<rscale>  0 0.18453098E+03</rscale>
<asrwt>0</asrwt>
<pdfrwt beam="1">  1        4 0.81204598E-01 0.18453098E+03</pdfrwt>
<pdfrwt beam="2">  1       -4 0.15934325E-01 0.18453098E+03</pdfrwt>
<totfact> 0.81865358E+01</totfact>
</mgrwt>
</event>
<event>
 4    1  0.8653772E-009  0.1533461E+03  0.7818608E-02  0.1196421E+00
         -4   -1    0    0    0  501 -0.00000000000E+00  0.00000000000E+00  0.67473369421E+02  0.67485320485E+02  0.12700000000E+01 0. -1.
          4   -1    0    0  501    0  0.00000000000E+00 -0.00000000000E+00 -0.34863156928E+03  0.34863388246E+03  0.12700000000E+01 0. -1.
    8880022    1    1    2    0    0 -0.15728355426E+01  0.10995481724E+02 -0.13602188256E+03  0.20498043804E+03  0.15294330000E+03 0.  1.
    8880022    1    1    2    0    0  0.15728355426E+01 -0.10995481724E+02 -0.14513631730E+03  0.21113876490E+03  0.15294330000E+03 0.  1.
<mgrwt>
<rscale>  0 0.15334610E+03</rscale>
<asrwt>0</asrwt>
<pdfrwt beam="1">  1        4 0.53636722E-01 0.15334610E+03</pdfrwt>
<pdfrwt beam="2">  1       -4 0.10381616E-01 0.15334610E+03</pdfrwt>
<totfact> 0.40621378E+02</totfact>
</mgrwt>
</event>
<event>
 4    1  0.8653772E-009  0.1929372E+03  0.7818608E-02  0.1155839E+00
         -4   -1    0    0    0  501 -0.00000000000E+00  0.00000000000E+00  0.10302460757E+03  0.10303243501E+03  0.12700000000E+01 0. -1.
          4   -1    0    0  501    0  0.00000000000E+00 -0.00000000000E+00 -0.40232601640E+03  0.40232802086E+03  0.12700000000E+01 0. -1.
    8880022    1    1    2    0    0 -0.39787273595E+01 -0.11754692209E+03 -0.23034172476E+03  0.30046975280E+03  0.15294330000E+03 0.  0.
    8880022    1    1    2    0    0  0.39787273595E+01  0.11754692209E+03 -0.68959684068E+02  0.20489070307E+03  0.15294330000E+03 0.  0.
<mgrwt>
<rscale>  0 0.19293720E+03</rscale>
<asrwt>0</asrwt>
<pdfrwt beam="1">  1        4 0.61897066E-01 0.19293720E+03</pdfrwt>
<pdfrwt beam="2">  1       -4 0.15850696E-01 0.19293720E+03</pdfrwt>
<totfact> 0.15023713E+02</totfact>
</mgrwt>
</event>
<event>
 4    1  0.8653772E-009  0.2050859E+03  0.7818608E-02  0.1145518E+00
          4   -1    0    0  501    0  0.00000000000E+00  0.00000000000E+00  0.12797103688E+03  0.12797733854E+03  0.12700000000E+01 0. -1.
         -4   -1    0    0    0  501 -0.00000000000E+00 -0.00000000000E+00 -0.36836551188E+03  0.36836770113E+03  0.12700000000E+01 0. -1.
    8880022    1    1    2    0    0 -0.13663134947E+03 -0.66089187806E+00 -0.20168011193E+03  0.28763706819E+03  0.15294330000E+03 0.  1.
    8880022    1    1    2    0    0  0.13663134947E+03  0.66089187806E+00 -0.38714363069E+02  0.20870797148E+03  0.15294330000E+03 0.  1.
<mgrwt>
<rscale>  0 0.20508587E+03</rscale>
<asrwt>0</asrwt>
<pdfrwt beam="1">  1        4 0.19688505E-01 0.20508587E+03</pdfrwt>
<pdfrwt beam="2">  1       -4 0.56672270E-01 0.20508587E+03</pdfrwt>
<totfact> 0.12384673E+02</totfact>
</mgrwt>
</event>
<event>
 4    1  0.8653772E-009  0.5507627E+03  0.7818608E-02  0.1001318E+00
         -4   -1    0    0    0  501 -0.00000000000E+00  0.00000000000E+00  0.13954062959E+04  0.13954068738E+04  0.12700000000E+01 0.  1.
          4   -1    0    0  501    0  0.00000000000E+00 -0.00000000000E+00 -0.34220557991E+03  0.34220793652E+03  0.12700000000E+01 0. -1.
    8880022    1    1    2    0    0  0.41983091916E+03 -0.32200914920E+03  0.18821320409E+01  0.55076591061E+03  0.15294330000E+03 0.  0.
    8880022    1    1    2    0    0 -0.41983091916E+03  0.32200914920E+03  0.10513185840E+04  0.11868488997E+04  0.15294330000E+03 0.  0.
<mgrwt>
<rscale>  0 0.55076269E+03</rscale>
<asrwt>0</asrwt>
<pdfrwt beam="1">  1        4 0.52647238E-01 0.55076269E+03</pdfrwt>
<pdfrwt beam="2">  1       -4 0.21467812E+00 0.55076269E+03</pdfrwt>
<totfact> 0.72728701E-01</totfact>
</mgrwt>
</event>
<event>
 4    1  0.8653772E-009  0.2079246E+03  0.7818608E-02  0.1143220E+00
          4   -1    0    0  501    0  0.00000000000E+00  0.00000000000E+00  0.11575940240E+04  0.11575947206E+04  0.12700000000E+01 0.  1.
         -4   -1    0    0    0  501 -0.00000000000E+00 -0.00000000000E+00 -0.85586387759E+02  0.85595809883E+02  0.12700000000E+01 0.  1.
    8880022    1    1    2    0    0  0.41064694663E+02  0.13473924507E+03  0.10026815316E+04  0.10240131249E+04  0.15294330000E+03 0.  0.
    8880022    1    1    2    0    0 -0.41064694663E+02 -0.13473924507E+03  0.69326104649E+02  0.21917740557E+03  0.15294330000E+03 0.  0.
<mgrwt>
<rscale>  0 0.20792457E+03</rscale>
<asrwt>0</asrwt>
<pdfrwt beam="1">  1        4 0.17809215E+00 0.20792457E+03</pdfrwt>
<pdfrwt beam="2">  1       -4 0.13167916E-01 0.20792457E+03</pdfrwt>
<totfact> 0.16964160E+01</totfact>
</mgrwt>
</event>
<event>
 4    1  0.8653772E-009  0.2432717E+03  0.7818608E-02  0.1117632E+00
          4   -1    0    0  501    0  0.00000000000E+00  0.00000000000E+00  0.28139265662E+04  0.28139268528E+04  0.12700000000E+01 0.  1.
         -4   -1    0    0    0  501 -0.00000000000E+00 -0.00000000000E+00 -0.21102287009E+02  0.21140468704E+02  0.12700000000E+01 0.  1.
    8880022    1    1    2    0    0 -0.18600759510E+03 -0.34505410191E+02  0.14890279446E+04  0.15087694727E+04  0.15294330000E+03 0.  0.
    8880022    1    1    2    0    0  0.18600759510E+03  0.34505410191E+02  0.13037963346E+04  0.13262978488E+04  0.15294330000E+03 0.  0.
<mgrwt>
<rscale>  0 0.24327166E+03</rscale>
<asrwt>0</asrwt>
<pdfrwt beam="1">  1        4 0.43291456E+00 0.24327166E+03</pdfrwt>
<pdfrwt beam="2">  1       -4 0.32494661E-02 0.24327166E+03</pdfrwt>
<totfact> 0.44790192E+00</totfact>
</mgrwt>
</event>
<event>
 4    1  0.8653772E-009  0.2061628E+03  0.7818608E-02  0.1144641E+00
         -4   -1    0    0    0  501 -0.00000000000E+00  0.00000000000E+00  0.11112319217E+03  0.11113044919E+03  0.12700000000E+01 0.  1.
          4   -1    0    0  501    0  0.00000000000E+00 -0.00000000000E+00 -0.40339864990E+03  0.40340064903E+03  0.12700000000E+01 0.  1.
    8880022    1    1    2    0    0 -0.74887404334E+02 -0.11620378594E+03 -0.20474168305E+03  0.29055507737E+03  0.15294330000E+03 0.  1.
    8880022    1    1    2    0    0  0.74887404334E+02  0.11620378594E+03 -0.87533774680E+02  0.22397602086E+03  0.15294330000E+03 0.  1.
<mgrwt>
<rscale>  0 0.20616279E+03</rscale>
<asrwt>0</asrwt>
<pdfrwt beam="1">  1        4 0.62062042E-01 0.20616279E+03</pdfrwt>
<pdfrwt beam="2">  1       -4 0.17096588E-01 0.20616279E+03</pdfrwt>
<totfact> 0.13181403E+02</totfact>
</mgrwt>
</event>
<event>
 4    1  0.8653772E-009  0.2251440E+03  0.7818608E-02  0.1130105E+00
         -4   -1    0    0    0  501 -0.00000000000E+00  0.00000000000E+00  0.75577865867E+02  0.75588535566E+02  0.12700000000E+01 0.  1.
          4   -1    0    0  501    0  0.00000000000E+00 -0.00000000000E+00 -0.78123777149E+03  0.78123880376E+03  0.12700000000E+01 0.  1.
    8880022    1    1    2    0    0  0.16094488043E+03  0.37348250598E+02 -0.51402290074E+03  0.56116783751E+03  0.15294330000E+03 0.  0.
    8880022    1    1    2    0    0 -0.16094488043E+03 -0.37348250598E+02 -0.19163700488E+03  0.29565950182E+03  0.15294330000E+03 0.  0.
<mgrwt>
<rscale>  0 0.22514395E+03</rscale>
<asrwt>0</asrwt>
<pdfrwt beam="1">  1        4 0.12019132E+00 0.22514395E+03</pdfrwt>
<pdfrwt beam="2">  1       -4 0.11628265E-01 0.22514395E+03</pdfrwt>
<totfact> 0.58360414E+01</totfact>
</mgrwt>
</event>
<event>
 4    1  0.8653772E-009  0.1766325E+03  0.7818608E-02  0.1171103E+00
          4   -1    0    0  501    0  0.00000000000E+00  0.00000000000E+00  0.11009811752E+03  0.11010544211E+03  0.12700000000E+01 0.  1.
         -4   -1    0    0    0  501 -0.00000000000E+00 -0.00000000000E+00 -0.28465203281E+03  0.28465486590E+03  0.12700000000E+01 0.  1.
    8880022    1    1    2    0    0 -0.21876222615E+02  0.85608472050E+02 -0.10059194316E+03  0.20326773391E+03  0.15294330000E+03 0.  0.
    8880022    1    1    2    0    0  0.21876222615E+02 -0.85608472050E+02 -0.73961972118E+02  0.19149257410E+03  0.15294330000E+03 0.  0.
<mgrwt>
<rscale>  0 0.17663248E+03</rscale>
<asrwt>0</asrwt>
<pdfrwt beam="1">  1        4 0.16938953E-01 0.17663248E+03</pdfrwt>
<pdfrwt beam="2">  1       -4 0.43793401E-01 0.17663248E+03</pdfrwt>
<totfact> 0.26907461E+02</totfact>
</mgrwt>
</event>
<event>
 4    1  0.8653772E-009  0.1651774E+03  0.7818608E-02  0.1182972E+00
          4   -1    0    0  501    0  0.00000000000E+00  0.00000000000E+00  0.41939427726E+03  0.41939620014E+03  0.12700000000E+01 0. -1.
         -4   -1    0    0    0  501 -0.00000000000E+00 -0.00000000000E+00 -0.71234469703E+02  0.71245789868E+02  0.12700000000E+01 0. -1.
    8880022    1    1    2    0    0  0.42377556838E+02  0.45782614792E+02  0.10178210522E+03  0.19401844010E+03  0.15294330000E+03 0. -1.
    8880022    1    1    2    0    0 -0.42377556838E+02 -0.45782614792E+02  0.24637770233E+03  0.29662354991E+03  0.15294330000E+03 0. -1.
<mgrwt>
<rscale>  0 0.16517735E+03</rscale>
<asrwt>0</asrwt>
<pdfrwt beam="1">  1        4 0.64523215E-01 0.16517735E+03</pdfrwt>
<pdfrwt beam="2">  1       -4 0.10960168E-01 0.16517735E+03</pdfrwt>
<totfact> 0.25456929E+02</totfact>
</mgrwt>
</event>
<event>
 4    1  0.8653772E-009  0.1593801E+03  0.7818608E-02  0.1189398E+00
          4   -1    0    0  501    0  0.00000000000E+00  0.00000000000E+00  0.64529081431E+02  0.64541577687E+02  0.12700000000E+01 0.  1.
         -4   -1    0    0    0  501 -0.00000000000E+00 -0.00000000000E+00 -0.62995508107E+03  0.62995636124E+03  0.12700000000E+01 0.  1.
    8880022    1    1    2    0    0  0.23197662719E+02  0.38369703107E+02 -0.49541089343E+03  0.52041711349E+03  0.15294330000E+03 0.  0.
    8880022    1    1    2    0    0 -0.23197662719E+02 -0.38369703107E+02 -0.70015106213E+02  0.17408082544E+03  0.15294330000E+03 0.  0.
<mgrwt>
<rscale>  0 0.15938011E+03</rscale>
<asrwt>0</asrwt>
<pdfrwt beam="1">  1        4 0.99286111E-02 0.15938011E+03</pdfrwt>
<pdfrwt beam="2">  1       -4 0.96917222E-01 0.15938011E+03</pdfrwt>
<totfact> 0.12153488E+02</totfact>
</mgrwt>
</event>
<event>
 4    1  0.8653772E-009  0.1598976E+03  0.7818608E-02  0.1188812E+00
          4   -1    0    0  501    0  0.00000000000E+00  0.00000000000E+00  0.73593158190E+03  0.73593267772E+03  0.12700000000E+01 0.  1.
         -4   -1    0    0    0  501 -0.00000000000E+00 -0.00000000000E+00 -0.41745169000E+02  0.41764482935E+02  0.12700000000E+01 0.  1.
    8880022    1    1    2    0    0  0.10553835407E+02  0.45433566474E+02  0.18771705482E+03  0.24658657321E+03  0.15294330000E+03 0.  0.
    8880022    1    1    2    0    0 -0.10553835407E+02 -0.45433566474E+02  0.50646935808E+03  0.53111058744E+03  0.15294330000E+03 0.  0.
<mgrwt>
<rscale>  0 0.15989761E+03</rscale>
<asrwt>0</asrwt>
<pdfrwt beam="1">  1        4 0.11322180E+00 0.15989761E+03</pdfrwt>
<pdfrwt beam="2">  1       -4 0.64239045E-02 0.15989761E+03</pdfrwt>
<totfact> 0.17417775E+02</totfact>
</mgrwt>
</event>
<event>
 4    1  0.8653772E-009  0.2236510E+03  0.7818608E-02  0.1131190E+00
          4   -1    0    0  501    0  0.00000000000E+00  0.00000000000E+00  0.58549183903E+02  0.58562956173E+02  0.12700000000E+01 0. -1.
         -4   -1    0    0    0  501 -0.00000000000E+00 -0.00000000000E+00 -0.12320391851E+04  0.12320398397E+04  0.12700000000E+01 0. -1.
    8880022    1    1    2    0    0 -0.14565959539E+03  0.73562122983E+02 -0.94409851733E+03  0.97022768828E+03  0.15294330000E+03 0. -1.
    8880022    1    1    2    0    0  0.14565959539E+03 -0.73562122983E+02 -0.22939148392E+03  0.32037510761E+03  0.15294330000E+03 0. -1.
<mgrwt>
<rscale>  0 0.22365097E+03</rscale>
<asrwt>0</asrwt>
<pdfrwt beam="1">  1        4 0.90086775E-02 0.22365097E+03</pdfrwt>
<pdfrwt beam="2">  1       -4 0.18954558E+00 0.22365097E+03</pdfrwt>
<totfact> 0.27487160E+01</totfact>
</mgrwt>
</event>
<event>
 4    1  0.8653772E-009  0.1606034E+03  0.7818608E-02  0.1188017E+00
         -4   -1    0    0    0  501 -0.00000000000E+00  0.00000000000E+00  0.80263229998E+02  0.80273276933E+02  0.12700000000E+01 0.  1.
          4   -1    0    0  501    0  0.00000000000E+00 -0.00000000000E+00 -0.37047907859E+03  0.37048125536E+03  0.12700000000E+01 0.  1.
    8880022    1    1    2    0    0  0.37647832137E+02 -0.31376028078E+02 -0.63019718577E+02  0.17252522235E+03  0.15294330000E+03 0.  1.
    8880022    1    1    2    0    0 -0.37647832137E+02  0.31376028078E+02 -0.22719613002E+03  0.27822930994E+03  0.15294330000E+03 0.  1.
<mgrwt>
<rscale>  0 0.16060345E+03</rscale>
<asrwt>0</asrwt>
<pdfrwt beam="1">  1        4 0.56997721E-01 0.16060345E+03</pdfrwt>
<pdfrwt beam="2">  1       -4 0.12349130E-01 0.16060345E+03</pdfrwt>
<totfact> 0.26842487E+02</totfact>
</mgrwt>
</event>
<event>
 4    1  0.8653772E-009  0.2253643E+03  0.7818608E-02  0.1129946E+00
         -4   -1    0    0    0  501 -0.00000000000E+00  0.00000000000E+00  0.32769933628E+03  0.32770179721E+03  0.12700000000E+01 0. -1.
          4   -1    0    0  501    0  0.00000000000E+00 -0.00000000000E+00 -0.16427010095E+03  0.16427501017E+03  0.12700000000E+01 0. -1.
    8880022    1    1    2    0    0 -0.10449060928E+03  0.12837113524E+03  0.23221144469E+02  0.22655752107E+03  0.15294330000E+03 0.  0.
    8880022    1    1    2    0    0  0.10449060928E+03 -0.12837113524E+03  0.14020809086E+03  0.26541928631E+03  0.15294330000E+03 0.  0.
<mgrwt>
<rscale>  0 0.22536435E+03</rscale>
<asrwt>0</asrwt>
<pdfrwt beam="1">  1        4 0.25272890E-01 0.22536435E+03</pdfrwt>
<pdfrwt beam="2">  1       -4 0.50415849E-01 0.22536435E+03</pdfrwt>
<totfact> 0.10106171E+02</totfact>
</mgrwt>
</event>
<event>
 4    1  0.8653772E-009  0.2055352E+03  0.7818608E-02  0.1145151E+00
          4   -1    0    0  501    0  0.00000000000E+00  0.00000000000E+00  0.63361146660E+03  0.63361273938E+03  0.12700000000E+01 0.  1.
         -4   -1    0    0    0  501 -0.00000000000E+00 -0.00000000000E+00 -0.67065476249E+02  0.67077499987E+02  0.12700000000E+01 0.  1.
    8880022    1    1    2    0    0 -0.12901803409E+03 -0.46983324966E+02  0.31032455946E+03  0.37221777384E+03  0.15294330000E+03 0.  1.
    8880022    1    1    2    0    0  0.12901803409E+03  0.46983324966E+02  0.25622143089E+03  0.32847246552E+03  0.15294330000E+03 0.  1.
<mgrwt>
<rscale>  0 0.20553525E+03</rscale>
<asrwt>0</asrwt>
<pdfrwt beam="1">  1        4 0.97479710E-01 0.20553525E+03</pdfrwt>
<pdfrwt beam="2">  1       -4 0.10318788E-01 0.20553525E+03</pdfrwt>
<totfact> 0.11647482E+02</totfact>
</mgrwt>
</event>
<event>
 4    1  0.8653772E-009  0.1666643E+03  0.7818608E-02  0.1181372E+00
         -4   -1    0    0    0  501 -0.00000000000E+00  0.00000000000E+00  0.51295351040E+03  0.51295508257E+03  0.12700000000E+01 0.  1.
          4   -1    0    0  501    0  0.00000000000E+00 -0.00000000000E+00 -0.54855783243E+02  0.54870482549E+02  0.12700000000E+01 0.  1.
    8880022    1    1    2    0    0 -0.65150681268E+02  0.11863341962E+02  0.19666796605E+03  0.25778923957E+03  0.15294330000E+03 0.  0.
    8880022    1    1    2    0    0  0.65150681268E+02 -0.11863341962E+02  0.26142976111E+03  0.31003632555E+03  0.15294330000E+03 0.  0.
<mgrwt>
<rscale>  0 0.16666434E+03</rscale>
<asrwt>0</asrwt>
<pdfrwt beam="1">  1        4 0.84406031E-02 0.16666434E+03</pdfrwt>
<pdfrwt beam="2">  1       -4 0.78917174E-01 0.16666434E+03</pdfrwt>
<totfact> 0.25563037E+02</totfact>
</mgrwt>
</event>
<event>
 4    1  0.8653772E-009  0.1895462E+03  0.7818608E-02  0.1158871E+00
         -4   -1    0    0    0  501 -0.00000000000E+00  0.00000000000E+00  0.13463659590E+03  0.13464258559E+03  0.12700000000E+01 0.  1.
          4   -1    0    0  501    0  0.00000000000E+00 -0.00000000000E+00 -0.36221126390E+03  0.36221349036E+03  0.12700000000E+01 0.  1.
    8880022    1    1    2    0    0  0.10693911284E+03  0.33168465566E+02  0.13689447647E+02  0.19003992990E+03  0.15294330000E+03 0.  0.
    8880022    1    1    2    0    0 -0.10693911284E+03 -0.33168465566E+02 -0.24126411565E+03  0.30681614605E+03  0.15294330000E+03 0.  0.
<mgrwt>
<rscale>  0 0.18954623E+03</rscale>
<asrwt>0</asrwt>
<pdfrwt beam="1">  1        4 0.55725441E-01 0.18954623E+03</pdfrwt>
<pdfrwt beam="2">  1       -4 0.20713955E-01 0.18954623E+03</pdfrwt>
<totfact> 0.11573242E+02</totfact>
</mgrwt>
</event>
<event>
 4    1  0.8653772E-009  0.1655641E+03  0.7818608E-02  0.1182554E+00
          4   -1    0    0  501    0  0.00000000000E+00  0.00000000000E+00  0.20213966858E+04  0.20213970848E+04  0.12700000000E+01 0. -1.
         -4   -1    0    0    0  501 -0.00000000000E+00 -0.00000000000E+00 -0.15401253883E+02  0.15453527790E+02  0.12700000000E+01 0. -1.
    8880022    1    1    2    0    0 -0.63268262768E+02  0.41162780348E+01  0.64870279307E+03  0.66949741117E+03  0.15294330000E+03 0.  0.
    8880022    1    1    2    0    0  0.63268262768E+02 -0.41162780348E+01  0.13572926389E+04  0.13673532014E+04  0.15294330000E+03 0.  0.
<mgrwt>
<rscale>  0 0.16556410E+03</rscale>
<asrwt>0</asrwt>
<pdfrwt beam="1">  1        4 0.31098833E+00 0.16556410E+03</pdfrwt>
<pdfrwt beam="2">  1       -4 0.23734741E-02 0.16556410E+03</pdfrwt>
<totfact> 0.43608208E+01</totfact>
</mgrwt>
</event>
<event>
 4    1  0.8653772E-009  0.1637901E+03  0.7818608E-02  0.1184483E+00
         -4   -1    0    0    0  501 -0.00000000000E+00  0.00000000000E+00  0.67919041260E+02  0.67930913917E+02  0.12700000000E+01 0. -1.
          4   -1    0    0  501    0  0.00000000000E+00 -0.00000000000E+00 -0.39499994167E+03  0.39500198331E+03  0.12700000000E+01 0. -1.
    8880022    1    1    2    0    0 -0.58593663469E+02  0.15211338299E+01 -0.16638553043E+03  0.23347661339E+03  0.15294330000E+03 0. -1.
    8880022    1    1    2    0    0  0.58593663469E+02 -0.15211338299E+01 -0.16069536998E+03  0.22945628384E+03  0.15294330000E+03 0. -1.
<mgrwt>
<rscale>  0 0.16379006E+03</rscale>
<asrwt>0</asrwt>
<pdfrwt beam="1">  1        4 0.60770291E-01 0.16379006E+03</pdfrwt>
<pdfrwt beam="2">  1       -4 0.10450154E-01 0.16379006E+03</pdfrwt>
<totfact> 0.31309819E+02</totfact>
</mgrwt>
</event>
<event>
 4    1  0.8653772E-009  0.2821661E+03  0.7818608E-02  0.1094512E+00
         -4   -1    0    0    0  501 -0.00000000000E+00  0.00000000000E+00  0.78496005217E+03  0.78496107955E+03  0.12700000000E+01 0.  1.
          4   -1    0    0  501    0  0.00000000000E+00 -0.00000000000E+00 -0.19519631653E+03  0.19520044797E+03  0.12700000000E+01 0.  1.
    8880022    1    1    2    0    0  0.15354674584E+03 -0.18069151518E+03 -0.44791552945E+02  0.28569907778E+03  0.15294330000E+03 0.  0.
    8880022    1    1    2    0    0 -0.15354674584E+03  0.18069151518E+03  0.63455528858E+03  0.69446244974E+03  0.15294330000E+03 0.  0.
<mgrwt>
<rscale>  0 0.28216605E+03</rscale>
<asrwt>0</asrwt>
<pdfrwt beam="1">  1        4 0.30030599E-01 0.28216605E+03</pdfrwt>
<pdfrwt beam="2">  1       -4 0.12076348E+00 0.28216605E+03</pdfrwt>
<totfact> 0.10558152E+01</totfact>
</mgrwt>
</event>
<event>
 4    1  0.8653772E-009  0.3898885E+03  0.7818608E-02  0.1047338E+00
          4   -1    0    0  501    0  0.00000000000E+00  0.00000000000E+00  0.69136245219E+03  0.69136361865E+03  0.12700000000E+01 0.  1.
         -4   -1    0    0    0  501 -0.00000000000E+00 -0.00000000000E+00 -0.23637980459E+03  0.23638321624E+03  0.12700000000E+01 0.  1.
    8880022    1    1    2    0    0  0.11668906359E+02  0.35844832773E+03  0.35007785988E+03  0.52399191599E+03  0.15294330000E+03 0.  0.
    8880022    1    1    2    0    0 -0.11668906359E+02 -0.35844832773E+03  0.10490478771E+03  0.40375491889E+03  0.15294330000E+03 0.  0.
<mgrwt>
<rscale>  0 0.38988847E+03</rscale>
<asrwt>0</asrwt>
<pdfrwt beam="1">  1        4 0.10636380E+00 0.38988847E+03</pdfrwt>
<pdfrwt beam="2">  1       -4 0.36366477E-01 0.38988847E+03</pdfrwt>
<totfact> 0.10096512E+01</totfact>
</mgrwt>
</event>
<event>
 4    1  0.8653772E-009  0.1886166E+03  0.7818608E-02  0.1159715E+00
         -4   -1    0    0    0  501 -0.00000000000E+00  0.00000000000E+00  0.55952851326E+03  0.55952995456E+03  0.12700000000E+01 0.  1.
          4   -1    0    0  501    0  0.00000000000E+00 -0.00000000000E+00 -0.97708366315E+02  0.97716619610E+02  0.12700000000E+01 0.  1.
    8880022    1    1    2    0    0 -0.10179940331E+03 -0.42678528610E+02  0.42513179548E+03  0.46509490629E+03  0.15294330000E+03 0.  0.
    8880022    1    1    2    0    0  0.10179940331E+03  0.42678528610E+02  0.36688351466E+02  0.19215166788E+03  0.15294330000E+03 0.  0.
<mgrwt>
<rscale>  0 0.18861662E+03</rscale>
<asrwt>0</asrwt>
<pdfrwt beam="1">  1        4 0.15032803E-01 0.18861662E+03</pdfrwt>
<pdfrwt beam="2">  1       -4 0.86082052E-01 0.18861662E+03</pdfrwt>
<totfact> 0.79825100E+01</totfact>
</mgrwt>
</event>
<event>
 4    1  0.8653772E-009  0.1947071E+03  0.7818608E-02  0.1154283E+00
         -4   -1    0    0    0  501 -0.00000000000E+00  0.00000000000E+00  0.20313613022E+02  0.20353274282E+02  0.12700000000E+01 0. -1.
          4   -1    0    0  501    0  0.00000000000E+00 -0.00000000000E+00 -0.21728183682E+04  0.21728187393E+04  0.12700000000E+01 0. -1.
    8880022    1    1    2    0    0 -0.64845626197E+02  0.10155902178E+03 -0.66312437146E+03  0.69111849576E+03  0.15294330000E+03 0.  0.
    8880022    1    1    2    0    0  0.64845626197E+02 -0.10155902178E+03 -0.14893803837E+04  0.15020535179E+04  0.15294330000E+03 0.  0.
<mgrwt>
<rscale>  0 0.19470707E+03</rscale>
<asrwt>0</asrwt>
<pdfrwt beam="1">  1        4 0.33428265E+00 0.19470707E+03</pdfrwt>
<pdfrwt beam="2">  1       -4 0.31282524E-02 0.19470707E+03</pdfrwt>
<totfact> 0.20768413E+01</totfact>
</mgrwt>
</event>
<event>
 4    1  0.8653772E-009  0.2550678E+03  0.7818608E-02  0.1110143E+00
          4   -1    0    0  501    0  0.00000000000E+00  0.00000000000E+00  0.72141043243E+03  0.72141155030E+03  0.12700000000E+01 0. -1.
         -4   -1    0    0    0  501 -0.00000000000E+00 -0.00000000000E+00 -0.97067387423E+02  0.97075695213E+02  0.12700000000E+01 0. -1.
    8880022    1    1    2    0    0 -0.18493309655E+03 -0.86415804028E+02  0.42119164896E+03  0.49240430497E+03  0.15294330000E+03 0.  0.
    8880022    1    1    2    0    0  0.18493309655E+03  0.86415804028E+02  0.20315139604E+03  0.32608294054E+03  0.15294330000E+03 0.  0.
<mgrwt>
<rscale>  0 0.25506782E+03</rscale>
<asrwt>0</asrwt>
<pdfrwt beam="1">  1        4 0.11098695E+00 0.25506782E+03</pdfrwt>
<pdfrwt beam="2">  1       -4 0.14934169E-01 0.25506782E+03</pdfrwt>
<totfact> 0.46327586E+01</totfact>
</mgrwt>
</event>
<event>
 4    1  0.8653772E-009  0.1642994E+03  0.7818608E-02  0.1183927E+00
         -4   -1    0    0    0  501 -0.00000000000E+00  0.00000000000E+00  0.18661290342E+03  0.18661722488E+03  0.12700000000E+01 0.  1.
          4   -1    0    0  501    0  0.00000000000E+00 -0.00000000000E+00 -0.16668501124E+03  0.16668984934E+03  0.12700000000E+01 0.  1.
    8880022    1    1    2    0    0 -0.59914720323E+02 -0.35858710485E+01 -0.54270260603E+02  0.17303047819E+03  0.15294330000E+03 0.  0.
    8880022    1    1    2    0    0  0.59914720323E+02  0.35858710485E+01  0.74198152780E+02  0.18027659602E+03  0.15294330000E+03 0.  0.
<mgrwt>
<rscale>  0 0.16429938E+03</rscale>
<asrwt>0</asrwt>
<pdfrwt beam="1">  1        4 0.25644553E-01 0.16429938E+03</pdfrwt>
<pdfrwt beam="2">  1       -4 0.28710382E-01 0.16429938E+03</pdfrwt>
<totfact> 0.28443522E+02</totfact>
</mgrwt>
</event>
<event>
 4    1  0.8653772E-009  0.1706234E+03  0.7818608E-02  0.1177199E+00
         -4   -1    0    0    0  501 -0.00000000000E+00  0.00000000000E+00  0.39530439324E+02  0.39550834797E+02  0.12700000000E+01 0. -1.
          4   -1    0    0  501    0  0.00000000000E+00 -0.00000000000E+00 -0.74009408620E+03  0.74009517586E+03  0.12700000000E+01 0. -1.
    8880022    1    1    2    0    0  0.74876973187E+02  0.10682979196E+02 -0.32216173297E+03  0.36455523911E+03  0.15294330000E+03 0.  0.
    8880022    1    1    2    0    0 -0.74876973187E+02 -0.10682979196E+02 -0.37840191391E+03  0.41509077155E+03  0.15294330000E+03 0.  0.
<mgrwt>
<rscale>  0 0.17062339E+03</rscale>
<asrwt>0</asrwt>
<pdfrwt beam="1">  1        4 0.11386227E+00 0.17062339E+03</pdfrwt>
<pdfrwt beam="2">  1       -4 0.60832593E-02 0.17062339E+03</pdfrwt>
<totfact> 0.18976062E+02</totfact>
</mgrwt>
</event>
<event>
 4    1  0.8653772E-009  0.2511297E+03  0.7818608E-02  0.1112593E+00
          4   -1    0    0  501    0  0.00000000000E+00  0.00000000000E+00  0.54573689726E+02  0.54588464993E+02  0.12700000000E+01 0. -1.
         -4   -1    0    0    0  501 -0.00000000000E+00 -0.00000000000E+00 -0.13258297342E+04  0.13258303425E+04  0.12700000000E+01 0. -1.
    8880022    1    1    2    0    0 -0.14272825654E+03 -0.13893574227E+03 -0.38819801361E+03  0.46234602462E+03  0.15294330000E+03 0.  0.
    8880022    1    1    2    0    0  0.14272825654E+03  0.13893574227E+03 -0.88305803090E+03  0.91807278287E+03  0.15294330000E+03 0.  0.
<mgrwt>
<rscale>  0 0.25112974E+03</rscale>
<asrwt>0</asrwt>
<pdfrwt beam="1">  1        4 0.83971366E-02 0.25112974E+03</pdfrwt>
<pdfrwt beam="2">  1       -4 0.20397496E+00 0.25112974E+03</pdfrwt>
<totfact> 0.25265851E+01</totfact>
</mgrwt>
</event>
<event>
 4    1  0.8653772E-009  0.1675808E+03  0.7818608E-02  0.1180394E+00
         -4   -1    0    0    0  501 -0.00000000000E+00  0.00000000000E+00  0.41478132001E+02  0.41497570222E+02  0.12700000000E+01 0. -1.
          4   -1    0    0  501    0  0.00000000000E+00 -0.00000000000E+00 -0.84457311442E+03  0.84457406928E+03  0.12700000000E+01 0. -1.
    8880022    1    1    2    0    0 -0.18192945056E+02 -0.66035573576E+02 -0.20413885655E+03  0.26411362327E+03  0.15294330000E+03 0.  0.
    8880022    1    1    2    0    0  0.18192945056E+02  0.66035573576E+02 -0.59895612587E+03  0.62195801624E+03  0.15294330000E+03 0.  0.
<mgrwt>
<rscale>  0 0.16758083E+03</rscale>
<asrwt>0</asrwt>
<pdfrwt beam="1">  1        4 0.12993588E+00 0.16758083E+03</pdfrwt>
<pdfrwt beam="2">  1       -4 0.63828204E-02 0.16758083E+03</pdfrwt>
<totfact> 0.12700196E+02</totfact>
</mgrwt>
</event>
<event>
 4    1  0.8653772E-009  0.1631441E+03  0.7818608E-02  0.1185192E+00
          4   -1    0    0  501    0  0.00000000000E+00  0.00000000000E+00  0.16235925200E+03  0.16236421899E+03  0.12700000000E+01 0. -1.
         -4   -1    0    0    0  501 -0.00000000000E+00 -0.00000000000E+00 -0.20958529253E+03  0.20958914033E+03  0.12700000000E+01 0. -1.
    8880022    1    1    2    0    0  0.55433359023E+02  0.12307800344E+02 -0.11041873568E+03  0.19699819656E+03  0.15294330000E+03 0.  0.
    8880022    1    1    2    0    0 -0.55433359023E+02 -0.12307800344E+02  0.63192695151E+02  0.17495516276E+03  0.15294330000E+03 0.  0.
<mgrwt>
<rscale>  0 0.16314408E+03</rscale>
<asrwt>0</asrwt>
<pdfrwt beam="1">  1        4 0.24979024E-01 0.16314408E+03</pdfrwt>
<pdfrwt beam="2">  1       -4 0.32244569E-01 0.16314408E+03</pdfrwt>
<totfact> 0.23924360E+02</totfact>
</mgrwt>
</event>
<event>
 4    1  0.8653772E-009  0.2044814E+03  0.7818608E-02  0.1146012E+00
          4   -1    0    0  501    0  0.00000000000E+00  0.00000000000E+00  0.79020257895E+02  0.79030462847E+02  0.12700000000E+01 0.  1.
         -4   -1    0    0    0  501 -0.00000000000E+00 -0.00000000000E+00 -0.80348214054E+03  0.80348314423E+03  0.12700000000E+01 0.  1.
    8880022    1    1    2    0    0 -0.11283392474E+03  0.75428633632E+02 -0.62009078441E+03  0.65293583702E+03  0.15294330000E+03 0.  0.
    8880022    1    1    2    0    0  0.11283392474E+03 -0.75428633632E+02 -0.10437109824E+03  0.22957777006E+03  0.15294330000E+03 0.  0.
<mgrwt>
<rscale>  0 0.20448136E+03</rscale>
<asrwt>0</asrwt>
<pdfrwt beam="1">  1        4 0.12157825E-01 0.20448136E+03</pdfrwt>
<pdfrwt beam="2">  1       -4 0.12361349E+00 0.20448136E+03</pdfrwt>
<totfact> 0.49900024E+01</totfact>
</mgrwt>
</event>
<event>
 4    1  0.8653772E-009  0.1599051E+03  0.7818608E-02  0.1188804E+00
         -4   -1    0    0    0  501 -0.00000000000E+00  0.00000000000E+00  0.77324197126E+03  0.77324301420E+03  0.12700000000E+01 0. -1.
          4   -1    0    0  501    0  0.00000000000E+00 -0.00000000000E+00 -0.33568280329E+02  0.33592295906E+02  0.12700000000E+01 0. -1.
    8880022    1    1    2    0    0  0.43098746390E+02  0.17902551986E+02  0.41970972803E+03  0.44913907882E+03  0.15294330000E+03 0. -1.
    8880022    1    1    2    0    0 -0.43098746390E+02 -0.17902551986E+02  0.31996396290E+03  0.35769623129E+03  0.15294330000E+03 0. -1.
<mgrwt>
<rscale>  0 0.15990515E+03</rscale>
<asrwt>0</asrwt>
<pdfrwt beam="1">  1        4 0.51662786E-02 0.15990515E+03</pdfrwt>
<pdfrwt beam="2">  1       -4 0.11896223E+00 0.15990515E+03</pdfrwt>
<totfact> 0.22061028E+02</totfact>
</mgrwt>
</event>
<event>
 4    1  0.8653772E-009  0.1814496E+03  0.7818608E-02  0.1166407E+00
         -4   -1    0    0    0  501 -0.00000000000E+00  0.00000000000E+00  0.29005233864E+02  0.29033024154E+02  0.12700000000E+01 0. -1.
          4   -1    0    0  501    0  0.00000000000E+00 -0.00000000000E+00 -0.13644774683E+04  0.13644780593E+04  0.12700000000E+01 0. -1.
    8880022    1    1    2    0    0  0.36624958803E+02 -0.90503583998E+02 -0.95376204685E+03  0.97086867358E+03  0.15294330000E+03 0. -1.
    8880022    1    1    2    0    0 -0.36624958803E+02  0.90503583998E+02 -0.38171018758E+03  0.42264240989E+03  0.15294330000E+03 0. -1.
<mgrwt>
<rscale>  0 0.18144955E+03</rscale>
<asrwt>0</asrwt>
<pdfrwt beam="1">  1        4 0.20992174E+00 0.18144955E+03</pdfrwt>
<pdfrwt beam="2">  1       -4 0.44645279E-02 0.18144955E+03</pdfrwt>
<totfact> 0.63548950E+01</totfact>
</mgrwt>
</event>
<event>
 4    1  0.8653772E-009  0.2039812E+03  0.7818608E-02  0.1146423E+00
          4   -1    0    0  501    0  0.00000000000E+00  0.00000000000E+00  0.52851124596E+03  0.52851277185E+03  0.12700000000E+01 0. -1.
         -4   -1    0    0    0  501 -0.00000000000E+00 -0.00000000000E+00 -0.81493486073E+02  0.81503381355E+02  0.12700000000E+01 0. -1.
    8880022    1    1    2    0    0 -0.57800437126E+02  0.12196633960E+03  0.27976628888E+03  0.34623331431E+03  0.15294330000E+03 0.  0.
    8880022    1    1    2    0    0  0.57800437126E+02 -0.12196633960E+03  0.16725147101E+03  0.26378283890E+03  0.15294330000E+03 0.  0.
<mgrwt>
<rscale>  0 0.20398120E+03</rscale>
<asrwt>0</asrwt>
<pdfrwt beam="1">  1        4 0.81310300E-01 0.20398120E+03</pdfrwt>
<pdfrwt beam="2">  1       -4 0.12538338E-01 0.20398120E+03</pdfrwt>
<totfact> 0.12584707E+02</totfact>
</mgrwt>
</event>
<event>
 4    1  0.8653772E-009  0.1684894E+03  0.7818608E-02  0.1179432E+00
         -4   -1    0    0    0  501 -0.00000000000E+00  0.00000000000E+00  0.30745254455E+03  0.30745516755E+03  0.12700000000E+01 0.  1.
          4   -1    0    0  501    0  0.00000000000E+00 -0.00000000000E+00 -0.92353935737E+02  0.92362667491E+02  0.12700000000E+01 0.  1.
    8880022    1    1    2    0    0 -0.67815251683E+02  0.19952675840E+02  0.11091553539E+03  0.20171992128E+03  0.15294330000E+03 0.  0.
    8880022    1    1    2    0    0  0.67815251683E+02 -0.19952675840E+02  0.10418307343E+03  0.19809791376E+03  0.15294330000E+03 0.  0.
<mgrwt>
<rscale>  0 0.16848938E+03</rscale>
<asrwt>0</asrwt>
<pdfrwt beam="1">  1        4 0.14209171E-01 0.16848938E+03</pdfrwt>
<pdfrwt beam="2">  1       -4 0.47301265E-01 0.16848938E+03</pdfrwt>
<totfact> 0.31143068E+02</totfact>
</mgrwt>
</event>
<event>
 4    1  0.8653772E-009  0.2095381E+03  0.7818608E-02  0.1141932E+00
         -4   -1    0    0    0  501 -0.00000000000E+00  0.00000000000E+00  0.51110857809E+03  0.51111015593E+03  0.12700000000E+01 0.  1.
          4   -1    0    0  501    0  0.00000000000E+00 -0.00000000000E+00 -0.88248135079E+02  0.88257273042E+02  0.12700000000E+01 0.  1.
    8880022    1    1    2    0    0 -0.14055112903E+03  0.27566772750E+02  0.26033827670E+03  0.33418889593E+03  0.15294330000E+03 0.  0.
    8880022    1    1    2    0    0  0.14055112903E+03 -0.27566772750E+02  0.16252216631E+03  0.26517853305E+03  0.15294330000E+03 0.  0.
<mgrwt>
<rscale>  0 0.20953806E+03</rscale>
<asrwt>0</asrwt>
<pdfrwt beam="1">  1        4 0.13577461E-01 0.20953806E+03</pdfrwt>
<pdfrwt beam="2">  1       -4 0.78632912E-01 0.20953806E+03</pdfrwt>
<totfact> 0.11851136E+02</totfact>
</mgrwt>
</event>
<event>
 4    1  0.8653772E-009  0.1795042E+03  0.7818608E-02  0.1168284E+00
         -4   -1    0    0    0  501 -0.00000000000E+00  0.00000000000E+00  0.24197525980E+03  0.24197859256E+03  0.12700000000E+01 0.  1.
          4   -1    0    0  501    0  0.00000000000E+00 -0.00000000000E+00 -0.16518091378E+03  0.16518579593E+03  0.12700000000E+01 0.  1.
    8880022    1    1    2    0    0  0.69917346947E+02  0.62782773437E+02 -0.51243474765E+02  0.18667527626E+03  0.15294330000E+03 0.  0.
    8880022    1    1    2    0    0 -0.69917346947E+02 -0.62782773437E+02  0.12803782079E+03  0.22048911223E+03  0.15294330000E+03 0.  0.
<mgrwt>
<rscale>  0 0.17950422E+03</rscale>
<asrwt>0</asrwt>
<pdfrwt beam="1">  1        4 0.25413080E-01 0.17950422E+03</pdfrwt>
<pdfrwt beam="2">  1       -4 0.37227595E-01 0.17950422E+03</pdfrwt>
<totfact> 0.17809670E+02</totfact>
</mgrwt>
</event>
<event>
 4    1  0.8653772E-009  0.1854164E+03  0.7818608E-02  0.1162662E+00
          4   -1    0    0  501    0  0.00000000000E+00  0.00000000000E+00  0.23227444012E+03  0.23227791206E+03  0.12700000000E+01 0.  1.
         -4   -1    0    0    0  501 -0.00000000000E+00 -0.00000000000E+00 -0.32548838220E+03  0.32549085985E+03  0.12700000000E+01 0.  1.
    8880022    1    1    2    0    0 -0.10215054432E+03 -0.23513056611E+02  0.15932867311E+03  0.24446855959E+03  0.15294330000E+03 0.  0.
    8880022    1    1    2    0    0  0.10215054432E+03  0.23513056611E+02 -0.25254261520E+03  0.31330021232E+03  0.15294330000E+03 0.  0.
<mgrwt>
<rscale>  0 0.18541642E+03</rscale>
<asrwt>0</asrwt>
<pdfrwt beam="1">  1        4 0.35734987E-01 0.18541642E+03</pdfrwt>
<pdfrwt beam="2">  1       -4 0.50075593E-01 0.18541642E+03</pdfrwt>
<totfact> 0.51640485E+01</totfact>
</mgrwt>
</event>
<event>
 4    1  0.8653772E-009  0.1705722E+03  0.7818608E-02  0.1177252E+00
          4   -1    0    0  501    0  0.00000000000E+00  0.00000000000E+00  0.76462556539E+02  0.76473102804E+02  0.12700000000E+01 0. -1.
         -4   -1    0    0    0  501 -0.00000000000E+00 -0.00000000000E+00 -0.38049373936E+03  0.38049585884E+03  0.12700000000E+01 0. -1.
    8880022    1    1    2    0    0  0.64072973162E+02  0.39973533600E+02 -0.15367549605E+03  0.22958885073E+03  0.15294330000E+03 0. -1.
    8880022    1    1    2    0    0 -0.64072973162E+02 -0.39973533600E+02 -0.15035568677E+03  0.22738011091E+03  0.15294330000E+03 0. -1.
<mgrwt>
<rscale>  0 0.17057222E+03</rscale>
<asrwt>0</asrwt>
<pdfrwt beam="1">  1        4 0.11764445E-01 0.17057222E+03</pdfrwt>
<pdfrwt beam="2">  1       -4 0.58538472E-01 0.17057222E+03</pdfrwt>
<totfact> 0.27864145E+02</totfact>
</mgrwt>
</event>
<event>
 4    1  0.8653772E-009  0.2916443E+03  0.7818608E-02  0.1089494E+00
         -4   -1    0    0    0  501 -0.00000000000E+00  0.00000000000E+00  0.39309236052E+03  0.39309441206E+03  0.12700000000E+01 0. -1.
          4   -1    0    0  501    0  0.00000000000E+00 -0.00000000000E+00 -0.27793634377E+03  0.27793924532E+03  0.12700000000E+01 0. -1.
    8880022    1    1    2    0    0 -0.14506758377E+03 -0.20154443091E+03 -0.10032769846E+03  0.30841864663E+03  0.15294330000E+03 0.  0.
    8880022    1    1    2    0    0  0.14506758377E+03  0.20154443091E+03  0.21548371521E+03  0.36261501076E+03  0.15294330000E+03 0.  0.
<mgrwt>
<rscale>  0 0.29164433E+03</rscale>
<asrwt>0</asrwt>
<pdfrwt beam="1">  1        4 0.42759819E-01 0.29164433E+03</pdfrwt>
<pdfrwt beam="2">  1       -4 0.60476129E-01 0.29164433E+03</pdfrwt>
<totfact> 0.25594521E+01</totfact>
</mgrwt>
</event>
<event>
 4    1  0.8653772E-009  0.3412756E+03  0.7818608E-02  0.1066254E+00
          4   -1    0    0  501    0  0.00000000000E+00  0.00000000000E+00  0.17364895656E+03  0.17365360064E+03  0.12700000000E+01 0.  1.
         -4   -1    0    0    0  501 -0.00000000000E+00 -0.00000000000E+00 -0.67958159887E+03  0.67958278555E+03  0.12700000000E+01 0.  1.
    8880022    1    1    2    0    0  0.26836819135E+03 -0.14510640720E+03 -0.30173446301E+03  0.45553561302E+03  0.15294330000E+03 0.  0.
    8880022    1    1    2    0    0 -0.26836819135E+03  0.14510640720E+03 -0.20419817929E+03  0.39770077317E+03  0.15294330000E+03 0.  0.
<mgrwt>
<rscale>  0 0.34127556E+03</rscale>
<asrwt>0</asrwt>
<pdfrwt beam="1">  1        4 0.26715673E-01 0.34127556E+03</pdfrwt>
<pdfrwt beam="2">  1       -4 0.10455146E+00 0.34127556E+03</pdfrwt>
<totfact> 0.18949199E+01</totfact>
</mgrwt>
</event>
<event>
 4    1  0.8653772E-009  0.3149694E+03  0.7818608E-02  0.1077988E+00
          4   -1    0    0  501    0  0.00000000000E+00  0.00000000000E+00  0.26943879861E+04  0.26943882855E+04  0.12700000000E+01 0. -1.
         -4   -1    0    0    0  501 -0.00000000000E+00 -0.00000000000E+00 -0.41502357864E+02  0.41521784744E+02  0.12700000000E+01 0. -1.
    8880022    1    1    2    0    0 -0.25857596188E+03 -0.94618039157E+02  0.17863889495E+04  0.18139435584E+04  0.15294330000E+03 0.  0.
    8880022    1    1    2    0    0  0.25857596188E+03  0.94618039157E+02  0.86649667881E+03  0.92196651175E+03  0.15294330000E+03 0.  0.
<mgrwt>
<rscale>  0 0.31496945E+03</rscale>
<asrwt>0</asrwt>
<pdfrwt beam="1">  1        4 0.41452288E+00 0.31496945E+03</pdfrwt>
<pdfrwt beam="2">  1       -4 0.63864935E-02 0.31496945E+03</pdfrwt>
<totfact> 0.20039335E+00</totfact>
</mgrwt>
</event>
<event>
 4    1  0.8653772E-009  0.1765197E+03  0.7818608E-02  0.1171214E+00
          4   -1    0    0  501    0  0.00000000000E+00  0.00000000000E+00  0.90540243359E+03  0.90540332430E+03  0.12700000000E+01 0. -1.
         -4   -1    0    0    0  501 -0.00000000000E+00 -0.00000000000E+00 -0.34782173804E+02  0.34805351808E+02  0.12700000000E+01 0. -1.
    8880022    1    1    2    0    0  0.54359183468E+02  0.69373082413E+02  0.48443306775E+03  0.51559150064E+03  0.15294330000E+03 0.  1.
    8880022    1    1    2    0    0 -0.54359183468E+02 -0.69373082413E+02  0.38618719203E+03  0.42461717546E+03  0.15294330000E+03 0.  1.
<mgrwt>
<rscale>  0 0.17651968E+03</rscale>
<asrwt>0</asrwt>
<pdfrwt beam="1">  1        4 0.13929452E+00 0.17651968E+03</pdfrwt>
<pdfrwt beam="2">  1       -4 0.53529555E-02 0.17651968E+03</pdfrwt>
<totfact> 0.14341768E+02</totfact>
</mgrwt>
</event>
<event>
 4    1  0.8653772E-009  0.1875441E+03  0.7818608E-02  0.1160695E+00
          4   -1    0    0  501    0  0.00000000000E+00  0.00000000000E+00  0.26887868467E+03  0.26888168396E+03  0.12700000000E+01 0.  1.
         -4   -1    0    0    0  501 -0.00000000000E+00 -0.00000000000E+00 -0.17671543315E+03  0.17671999665E+03  0.12700000000E+01 0.  1.
    8880022    1    1    2    0    0  0.51795999269E+02  0.95385041285E+02  0.15964025267E+03  0.24628803245E+03  0.15294330000E+03 0.  0.
    8880022    1    1    2    0    0 -0.51795999269E+02 -0.95385041285E+02 -0.67477001155E+02  0.19931364816E+03  0.15294330000E+03 0.  0.
<mgrwt>
<rscale>  0 0.18754409E+03</rscale>
<asrwt>0</asrwt>
<pdfrwt beam="1">  1        4 0.41366533E-01 0.18754409E+03</pdfrwt>
<pdfrwt beam="2">  1       -4 0.27187572E-01 0.18754409E+03</pdfrwt>
<totfact> 0.12833571E+02</totfact>
</mgrwt>
</event>
<event>
 4    1  0.8653772E-009  0.2935746E+03  0.7818608E-02  0.1088497E+00
         -4   -1    0    0    0  501 -0.00000000000E+00  0.00000000000E+00  0.62828361041E+03  0.62828489398E+03  0.12700000000E+01 0.  1.
          4   -1    0    0  501    0  0.00000000000E+00 -0.00000000000E+00 -0.24981952043E+03  0.24982274854E+03  0.12700000000E+01 0.  1.
    8880022    1    1    2    0    0 -0.14738911550E+03  0.20265939258E+03  0.48405356177E+03  0.56612179294E+03  0.15294330000E+03 0.  0.
    8880022    1    1    2    0    0  0.14738911550E+03 -0.20265939258E+03 -0.10558947179E+03  0.31198584958E+03  0.15294330000E+03 0.  0.
<mgrwt>
<rscale>  0 0.29357458E+03</rscale>
<asrwt>0</asrwt>
<pdfrwt beam="1">  1        4 0.38434119E-01 0.29357458E+03</pdfrwt>
<pdfrwt beam="2">  1       -4 0.96659364E-01 0.29357458E+03</pdfrwt>
<totfact> 0.11142500E+01</totfact>
</mgrwt>
</event>
<event>
 4    1  0.8653772E-009  0.1567624E+03  0.7818608E-02  0.1192401E+00
         -4   -1    0    0    0  501 -0.00000000000E+00  0.00000000000E+00  0.26047733967E+03  0.26048043570E+03  0.12700000000E+01 0.  1.
          4   -1    0    0  501    0  0.00000000000E+00 -0.00000000000E+00 -0.14469844415E+03  0.14470401736E+03  0.12700000000E+01 0.  1.
    8880022    1    1    2    0    0 -0.13814860557E+02  0.31495397877E+02  0.17740622743E+03  0.23674339063E+03  0.15294330000E+03 0.  0.
    8880022    1    1    2    0    0  0.13814860557E+02 -0.31495397877E+02 -0.61627331910E+02  0.16844106243E+03  0.15294330000E+03 0.  0.
<mgrwt>
<rscale>  0 0.15676244E+03</rscale>
<asrwt>0</asrwt>
<pdfrwt beam="1">  1        4 0.22261966E-01 0.15676244E+03</pdfrwt>
<pdfrwt beam="2">  1       -4 0.40074104E-01 0.15676244E+03</pdfrwt>
<totfact> 0.19250036E+02</totfact>
</mgrwt>
</event>
<event>
 4    1  0.8653772E-009  0.1941093E+03  0.7818608E-02  0.1154806E+00
         -4   -1    0    0    0  501 -0.00000000000E+00  0.00000000000E+00  0.51687139638E+03  0.51687295663E+03  0.12700000000E+01 0.  1.
          4   -1    0    0  501    0  0.00000000000E+00 -0.00000000000E+00 -0.73025100195E+02  0.73036142823E+02  0.12700000000E+01 0.  1.
    8880022    1    1    2    0    0 -0.84099891604E+02 -0.84935220756E+02  0.23461251817E+03  0.30450200359E+03  0.15294330000E+03 0.  0.
    8880022    1    1    2    0    0  0.84099891604E+02  0.84935220756E+02  0.20923377802E+03  0.28540709586E+03  0.15294330000E+03 0.  0.
<mgrwt>
<rscale>  0 0.19410934E+03</rscale>
<asrwt>0</asrwt>
<pdfrwt beam="1">  1        4 0.11235600E-01 0.19410934E+03</pdfrwt>
<pdfrwt beam="2">  1       -4 0.79519645E-01 0.19410934E+03</pdfrwt>
<totfact> 0.15866925E+02</totfact>
</mgrwt>
</event>
<event>
 4    1  0.8653772E-009  0.2795373E+03  0.7818608E-02  0.1095942E+00
         -4   -1    0    0    0  501 -0.00000000000E+00  0.00000000000E+00  0.30484994080E+03  0.30485258619E+03  0.12700000000E+01 0.  1.
          4   -1    0    0  501    0  0.00000000000E+00 -0.00000000000E+00 -0.26462610992E+03  0.26462915741E+03  0.12700000000E+01 0.  1.
    8880022    1    1    2    0    0  0.23074592438E+03  0.38803884378E+02  0.70554884675E+02  0.28830377699E+03  0.15294330000E+03 0.  0.
    8880022    1    1    2    0    0 -0.23074592438E+03 -0.38803884378E+02 -0.30331053797E+02  0.28117796660E+03  0.15294330000E+03 0.  0.
<mgrwt>
<rscale>  0 0.27953725E+03</rscale>
<asrwt>0</asrwt>
<pdfrwt beam="1">  1        4 0.40712147E-01 0.27953725E+03</pdfrwt>
<pdfrwt beam="2">  1       -4 0.46900429E-01 0.27953725E+03</pdfrwt>
<totfact> 0.47853338E+01</totfact>
</mgrwt>
</event>
<event>
 4    1  0.8653772E-009  0.2606710E+03  0.7818608E-02  0.1106741E+00
          4   -1    0    0  501    0  0.00000000000E+00  0.00000000000E+00  0.23320372306E+03  0.23320718117E+03  0.12700000000E+01 0.  1.
         -4   -1    0    0    0  501 -0.00000000000E+00 -0.00000000000E+00 -0.30454573983E+03  0.30454838786E+03  0.12700000000E+01 0.  1.
    8880022    1    1    2    0    0 -0.89739736051E+02  0.19106146805E+03 -0.91604431662E+02  0.27629826224E+03  0.15294330000E+03 0.  0.
    8880022    1    1    2    0    0  0.89739736051E+02 -0.19106146805E+03  0.20262414893E+02  0.26145730679E+03  0.15294330000E+03 0.  0.
<mgrwt>
<rscale>  0 0.26067098E+03</rscale>
<asrwt>0</asrwt>
<pdfrwt beam="1">  1        4 0.35877965E-01 0.26067098E+03</pdfrwt>
<pdfrwt beam="2">  1       -4 0.46853661E-01 0.26067098E+03</pdfrwt>
<totfact> 0.61128736E+01</totfact>
</mgrwt>
</event>
<event>
 4    1  0.8653772E-009  0.1792850E+03  0.7818608E-02  0.1168497E+00
         -4   -1    0    0    0  501 -0.00000000000E+00  0.00000000000E+00  0.11108111557E+03  0.11108837534E+03  0.12700000000E+01 0. -1.
          4   -1    0    0  501    0  0.00000000000E+00 -0.00000000000E+00 -0.55263598163E+03  0.55263744091E+03  0.12700000000E+01 0. -1.
    8880022    1    1    2    0    0 -0.92451915411E+02 -0.14286187583E+02 -0.44983835588E+03  0.48424957538E+03  0.15294330000E+03 0.  0.
    8880022    1    1    2    0    0  0.92451915411E+02  0.14286187583E+02  0.82834898137E+01  0.17947624087E+03  0.15294330000E+03 0.  0.
<mgrwt>
<rscale>  0 0.17928498E+03</rscale>
<asrwt>0</asrwt>
<pdfrwt beam="1">  1        4 0.85021589E-01 0.17928498E+03</pdfrwt>
<pdfrwt beam="2">  1       -4 0.17090073E-01 0.17928498E+03</pdfrwt>
<totfact> 0.64981039E+01</totfact>
</mgrwt>
</event>
<event>
 4    1  0.8653772E-009  0.1822975E+03  0.7818608E-02  0.1165598E+00
          4   -1    0    0  501    0  0.00000000000E+00  0.00000000000E+00  0.61050463776E+03  0.61050595871E+03  0.12700000000E+01 0.  1.
         -4   -1    0    0    0  501 -0.00000000000E+00 -0.00000000000E+00 -0.13443839102E+03  0.13444438955E+03  0.12700000000E+01 0.  1.
    8880022    1    1    2    0    0 -0.68024655267E+02  0.72203800200E+02  0.52537350949E+03  0.55610225676E+03  0.15294330000E+03 0.  0.
    8880022    1    1    2    0    0  0.68024655267E+02 -0.72203800200E+02 -0.49307262754E+02  0.18884809150E+03  0.15294330000E+03 0.  0.
<mgrwt>
<rscale>  0 0.18229755E+03</rscale>
<asrwt>0</asrwt>
<pdfrwt beam="1">  1        4 0.93924352E-01 0.18229755E+03</pdfrwt>
<pdfrwt beam="2">  1       -4 0.20683393E-01 0.18229755E+03</pdfrwt>
<totfact> 0.36854762E+01</totfact>
</mgrwt>
</event>
<event>
 4    1  0.8653772E-009  0.2506737E+03  0.7818608E-02  0.1112880E+00
          4   -1    0    0  501    0  0.00000000000E+00  0.00000000000E+00  0.45621874398E+03  0.45622051166E+03  0.12700000000E+01 0.  1.
         -4   -1    0    0    0  501 -0.00000000000E+00 -0.00000000000E+00 -0.17298908222E+03  0.17299374401E+03  0.12700000000E+01 0.  1.
    8880022    1    1    2    0    0  0.18806913115E+03  0.63840760230E+02  0.28364663090E+03  0.37854022903E+03  0.15294330000E+03 0.  0.
    8880022    1    1    2    0    0 -0.18806913115E+03 -0.63840760230E+02 -0.41696913101E+00  0.25067402665E+03  0.15294330000E+03 0.  0.
<mgrwt>
<rscale>  0 0.25067368E+03</rscale>
<asrwt>0</asrwt>
<pdfrwt beam="1">  1        4 0.70187992E-01 0.25067368E+03</pdfrwt>
<pdfrwt beam="2">  1       -4 0.26614200E-01 0.25067368E+03</pdfrwt>
<totfact> 0.46025710E+01</totfact>
</mgrwt>
</event>
<event>
 4    1  0.8653772E-009  0.3752063E+03  0.7818608E-02  0.1052720E+00
         -4   -1    0    0    0  501 -0.00000000000E+00  0.00000000000E+00  0.67964991352E+03  0.67965110009E+03  0.12700000000E+01 0.  1.
          4   -1    0    0  501    0  0.00000000000E+00 -0.00000000000E+00 -0.59476169820E+03  0.59476305412E+03  0.12700000000E+01 0. -1.
    8880022    1    1    2    0    0  0.33068875975E+03 -0.89627276215E+02 -0.47197371948E+03  0.60294191210E+03  0.15294330000E+03 0.  0.
    8880022    1    1    2    0    0 -0.33068875975E+03  0.89627276215E+02  0.55686193481E+03  0.67147224211E+03  0.15294330000E+03 0.  0.
<mgrwt>
<rscale>  0 0.37520629E+03</rscale>
<asrwt>0</asrwt>
<pdfrwt beam="1">  1        4 0.91501995E-01 0.37520629E+03</pdfrwt>
<pdfrwt beam="2">  1       -4 0.10456172E+00 0.37520629E+03</pdfrwt>
<totfact> 0.14641014E+00</totfact>
</mgrwt>
</event>
<event>
 4    1  0.8653772E-009  0.3575113E+03  0.7818608E-02  0.1059574E+00
         -4   -1    0    0    0  501 -0.00000000000E+00  0.00000000000E+00  0.46272811109E+03  0.46272985390E+03  0.12700000000E+01 0. -1.
          4   -1    0    0  501    0  0.00000000000E+00 -0.00000000000E+00 -0.30778645481E+03  0.30778907496E+03  0.12700000000E+01 0. -1.
    8880022    1    1    2    0    0 -0.22217088488E+03 -0.23465460016E+03  0.20085804603E+03  0.41007108059E+03  0.15294330000E+03 0.  0.
    8880022    1    1    2    0    0  0.22217088488E+03  0.23465460016E+03 -0.45916389744E+02  0.36044784828E+03  0.15294330000E+03 0.  0.
<mgrwt>
<rscale>  0 0.35751131E+03</rscale>
<asrwt>0</asrwt>
<pdfrwt beam="1">  1        4 0.47352098E-01 0.35751131E+03</pdfrwt>
<pdfrwt beam="2">  1       -4 0.71189276E-01 0.35751131E+03</pdfrwt>
<totfact> 0.14831292E+01</totfact>
</mgrwt>
</event>
<event>
 4    1  0.8653772E-009  0.2652566E+03  0.7818608E-02  0.1104025E+00
          4   -1    0    0  501    0  0.00000000000E+00  0.00000000000E+00  0.17739863370E+03  0.17740317962E+03  0.12700000000E+01 0. -1.
         -4   -1    0    0    0  501 -0.00000000000E+00 -0.00000000000E+00 -0.43732900507E+03  0.43733084910E+03  0.12700000000E+01 0. -1.
    8880022    1    1    2    0    0 -0.21634832600E+03 -0.12759133029E+02 -0.22374639325E+03  0.34702088574E+03  0.15294330000E+03 0.  0.
    8880022    1    1    2    0    0  0.21634832600E+03  0.12759133029E+02 -0.36183978123E+02  0.26771314298E+03  0.15294330000E+03 0.  0.
<mgrwt>
<rscale>  0 0.26525657E+03</rscale>
<asrwt>0</asrwt>
<pdfrwt beam="1">  1        4 0.27292589E-01 0.26525657E+03</pdfrwt>
<pdfrwt beam="2">  1       -4 0.67281876E-01 0.26525657E+03</pdfrwt>
<totfact> 0.48418482E+01</totfact>
</mgrwt>
</event>
<event>
 4    1  0.8653772E-009  0.1587543E+03  0.7818608E-02  0.1190110E+00
         -4   -1    0    0    0  501 -0.00000000000E+00  0.00000000000E+00  0.63895985852E+02  0.63908605900E+02  0.12700000000E+01 0. -1.
          4   -1    0    0  501    0  0.00000000000E+00 -0.00000000000E+00 -0.52208854189E+03  0.52209008655E+03  0.12700000000E+01 0. -1.
    8880022    1    1    2    0    0  0.54643584386E+01 -0.42206989679E+02 -0.37400382966E+03  0.40630260497E+03  0.15294330000E+03 0.  0.
    8880022    1    1    2    0    0 -0.54643584386E+01  0.42206989679E+02 -0.84188726378E+02  0.17969608748E+03  0.15294330000E+03 0.  0.
<mgrwt>
<rscale>  0 0.15875435E+03</rscale>
<asrwt>0</asrwt>
<pdfrwt beam="1">  1        4 0.80322401E-01 0.15875435E+03</pdfrwt>
<pdfrwt beam="2">  1       -4 0.98312416E-02 0.15875435E+03</pdfrwt>
<totfact> 0.18879600E+02</totfact>
</mgrwt>
</event>
<event>
 4    1  0.8653772E-009  0.2400432E+03  0.7818608E-02  0.1119764E+00
         -4   -1    0    0    0  501 -0.00000000000E+00  0.00000000000E+00  0.14183495350E+04  0.14183501036E+04  0.12700000000E+01 0.  1.
          4   -1    0    0  501    0  0.00000000000E+00 -0.00000000000E+00 -0.80570392348E+02  0.80580400986E+02  0.12700000000E+01 0.  1.
    8880022    1    1    2    0    0  0.18435578017E+03  0.15557447105E+02  0.11966189978E+04  0.12204580152E+04  0.15294330000E+03 0.  0.
    8880022    1    1    2    0    0 -0.18435578017E+03 -0.15557447105E+02  0.14116014481E+03  0.27847248938E+03  0.15294330000E+03 0.  0.
<mgrwt>
<rscale>  0 0.24004321E+03</rscale>
<asrwt>0</asrwt>
<pdfrwt beam="1">  1        4 0.12396260E-01 0.24004321E+03</pdfrwt>
<pdfrwt beam="2">  1       -4 0.21820842E+00 0.24004321E+03</pdfrwt>
<totfact> 0.10569674E+01</totfact>
</mgrwt>
</event>
<event>
 4    1  0.8653772E-009  0.1545247E+03  0.7818608E-02  0.1195021E+00
         -4   -1    0    0    0  501 -0.00000000000E+00  0.00000000000E+00  0.34628166184E+03  0.34628399072E+03  0.12700000000E+01 0.  1.
          4   -1    0    0  501    0  0.00000000000E+00 -0.00000000000E+00 -0.12067803357E+03  0.12068471604E+03  0.12700000000E+01 0.  1.
    8880022    1    1    2    0    0  0.21468085967E+02  0.50363195917E+01  0.26566387199E+03  0.30733562945E+03  0.15294330000E+03 0.  0.
    8880022    1    1    2    0    0 -0.21468085967E+02 -0.50363195917E+01 -0.40060243724E+02  0.15963307731E+03  0.15294330000E+03 0.  0.
<mgrwt>
<rscale>  0 0.15452474E+03</rscale>
<asrwt>0</asrwt>
<pdfrwt beam="1">  1        4 0.18566545E-01 0.15452474E+03</pdfrwt>
<pdfrwt beam="2">  1       -4 0.53274794E-01 0.15452474E+03</pdfrwt>
<totfact> 0.15009252E+02</totfact>
</mgrwt>
</event>
<event>
 4    1  0.8653772E-009  0.2661577E+03  0.7818608E-02  0.1103499E+00
          4   -1    0    0  501    0  0.00000000000E+00  0.00000000000E+00  0.25044991372E+03  0.25045313371E+03  0.12700000000E+01 0. -1.
         -4   -1    0    0    0  501 -0.00000000000E+00 -0.00000000000E+00 -0.29485221800E+03  0.29485495308E+03  0.12700000000E+01 0. -1.
    8880022    1    1    2    0    0  0.53753298540E+02  0.21108963024E+03  0.32821635041E+02  0.26817375308E+03  0.15294330000E+03 0.  0.
    8880022    1    1    2    0    0 -0.53753298540E+02 -0.21108963024E+03 -0.77223939315E+02  0.27713433371E+03  0.15294330000E+03 0.  0.
<mgrwt>
<rscale>  0 0.26615766E+03</rscale>
<asrwt>0</asrwt>
<pdfrwt beam="1">  1        4 0.38531214E-01 0.26615766E+03</pdfrwt>
<pdfrwt beam="2">  1       -4 0.45362338E-01 0.26615766E+03</pdfrwt>
<totfact> 0.56854283E+01</totfact>
</mgrwt>
</event>
<event>
 4    1  0.8653772E-009  0.2935230E+03  0.7818608E-02  0.1088524E+00
          4   -1    0    0  501    0  0.00000000000E+00  0.00000000000E+00  0.34477664432E+03  0.34477898336E+03  0.12700000000E+01 0.  1.
         -4   -1    0    0    0  501 -0.00000000000E+00 -0.00000000000E+00 -0.34472187090E+03  0.34472421032E+03  0.12700000000E+01 0.  1.
    8880022    1    1    2    0    0  0.18136997229E+03  0.17282658600E+03  0.18085303281E+03  0.34476596144E+03  0.15294330000E+03 0.  0.
    8880022    1    1    2    0    0 -0.18136997229E+03 -0.17282658600E+03 -0.18079825939E+03  0.34473723224E+03  0.15294330000E+03 0.  0.
<mgrwt>
<rscale>  0 0.29352300E+03</rscale>
<asrwt>0</asrwt>
<pdfrwt beam="1">  1        4 0.53042920E-01 0.29352300E+03</pdfrwt>
<pdfrwt beam="2">  1       -4 0.53034494E-01 0.29352300E+03</pdfrwt>
<totfact> 0.21712424E+01</totfact>
</mgrwt>
</event>
<event>
 4    1  0.8653772E-009  0.3072529E+03  0.7818608E-02  0.1081670E+00
          4   -1    0    0  501    0  0.00000000000E+00  0.00000000000E+00  0.84982560425E+03  0.84982655321E+03  0.12700000000E+01 0.  1.
         -4   -1    0    0    0  501 -0.00000000000E+00 -0.00000000000E+00 -0.11639682112E+03  0.11640374936E+03  0.12700000000E+01 0.  1.
    8880022    1    1    2    0    0  0.20185589223E+03  0.17397375116E+03  0.26348411748E+03  0.40475696473E+03  0.15294330000E+03 0.  0.
    8880022    1    1    2    0    0 -0.20185589223E+03 -0.17397375116E+03  0.46994466565E+03  0.56147333784E+03  0.15294330000E+03 0.  0.
<mgrwt>
<rscale>  0 0.30725286E+03</rscale>
<asrwt>0</asrwt>
<pdfrwt beam="1">  1        4 0.13074301E+00 0.30725286E+03</pdfrwt>
<pdfrwt beam="2">  1       -4 0.17907809E-01 0.30725286E+03</pdfrwt>
<totfact> 0.22810466E+01</totfact>
</mgrwt>
</event>
<event>
 4    1  0.8653772E-009  0.2010833E+03  0.7818608E-02  0.1148828E+00
          4   -1    0    0  501    0  0.00000000000E+00  0.00000000000E+00  0.45131992977E+02  0.45149858140E+02  0.12700000000E+01 0.  1.
         -4   -1    0    0    0  501 -0.00000000000E+00 -0.00000000000E+00 -0.14562798796E+04  0.14562804334E+04  0.12700000000E+01 0.  1.
    8880022    1    1    2    0    0 -0.15051124228E+02 -0.12967764978E+03 -0.23981546740E+03  0.31296316175E+03  0.15294330000E+03 0.  0.
    8880022    1    1    2    0    0  0.15051124228E+02  0.12967764978E+03 -0.11713324193E+04  0.11884671298E+04  0.15294330000E+03 0.  0.
<mgrwt>
<rscale>  0 0.20108327E+03</rscale>
<asrwt>0</asrwt>
<pdfrwt beam="1">  1        4 0.69448015E-02 0.20108327E+03</pdfrwt>
<pdfrwt beam="2">  1       -4 0.22404444E+00 0.20108327E+03</pdfrwt>
<totfact> 0.25642943E+01</totfact>
</mgrwt>
</event>
<event>
 4    1  0.8653772E-009  0.1999001E+03  0.7818608E-02  0.1149823E+00
         -4   -1    0    0    0  501 -0.00000000000E+00  0.00000000000E+00  0.11074637886E+04  0.11074645168E+04  0.12700000000E+01 0.  1.
          4   -1    0    0  501    0  0.00000000000E+00 -0.00000000000E+00 -0.36167656286E+02  0.36189946964E+02  0.12700000000E+01 0.  1.
    8880022    1    1    2    0    0  0.10529236743E+03  0.74039851027E+02  0.50602929699E+03  0.54408242446E+03  0.15294330000E+03 0.  0.
    8880022    1    1    2    0    0 -0.10529236743E+03 -0.74039851027E+02  0.56526683535E+03  0.59957203932E+03  0.15294330000E+03 0.  0.
<mgrwt>
<rscale>  0 0.19990006E+03</rscale>
<asrwt>0</asrwt>
<pdfrwt beam="1">  1        4 0.55660261E-02 0.19990006E+03</pdfrwt>
<pdfrwt beam="2">  1       -4 0.17038080E+00 0.19990006E+03</pdfrwt>
<totfact> 0.81048529E+01</totfact>
</mgrwt>
</event>
<event>
 4    1  0.8653772E-009  0.1887286E+03  0.7818608E-02  0.1159613E+00
         -4   -1    0    0    0  501 -0.00000000000E+00  0.00000000000E+00  0.32936141878E+03  0.32936386729E+03  0.12700000000E+01 0. -1.
          4   -1    0    0  501    0  0.00000000000E+00 -0.00000000000E+00 -0.11376950935E+03  0.11377659758E+03  0.12700000000E+01 0. -1.
    8880022    1    1    2    0    0 -0.98769811272E+01  0.11013297072E+03  0.58499852988E+02  0.19758722583E+03  0.15294330000E+03 0.  0.
    8880022    1    1    2    0    0  0.98769811272E+01 -0.11013297072E+03  0.15709205644E+03  0.24555323905E+03  0.15294330000E+03 0.  0.
<mgrwt>
<rscale>  0 0.18872859E+03</rscale>
<asrwt>0</asrwt>
<pdfrwt beam="1">  1        4 0.17503735E-01 0.18872859E+03</pdfrwt>
<pdfrwt beam="2">  1       -4 0.50671720E-01 0.18872859E+03</pdfrwt>
<totfact> 0.19074348E+02</totfact>
</mgrwt>
</event>
<event>
 4    1  0.8653772E-009  0.1655079E+03  0.7818608E-02  0.1182615E+00
         -4   -1    0    0    0  501 -0.00000000000E+00  0.00000000000E+00  0.13523115983E+03  0.13523712319E+03  0.12700000000E+01 0.  1.
          4   -1    0    0  501    0  0.00000000000E+00 -0.00000000000E+00 -0.20358724825E+03  0.20359120942E+03  0.12700000000E+01 0.  1.
    8880022    1    1    2    0    0  0.53810201069E+02  0.33251695242E+02 -0.22090803787E+02  0.16697565572E+03  0.15294330000E+03 0.  1.
    8880022    1    1    2    0    0 -0.53810201069E+02 -0.33251695242E+02 -0.46265284638E+02  0.17185267689E+03  0.15294330000E+03 0.  1.
<mgrwt>
<rscale>  0 0.16550790E+03</rscale>
<asrwt>0</asrwt>
<pdfrwt beam="1">  1        4 0.31321879E-01 0.16550790E+03</pdfrwt>
<pdfrwt beam="2">  1       -4 0.20805557E-01 0.16550790E+03</pdfrwt>
<totfact> 0.35444232E+02</totfact>
</mgrwt>
</event>
<event>
 4    1  0.8653772E-009  0.1604509E+03  0.7818608E-02  0.1188189E+00
          4   -1    0    0  501    0  0.00000000000E+00  0.00000000000E+00  0.62571240111E+02  0.62584127293E+02  0.12700000000E+01 0.  1.
         -4   -1    0    0    0  501 -0.00000000000E+00 -0.00000000000E+00 -0.64597349182E+03  0.64597474024E+03  0.12700000000E+01 0.  1.
    8880022    1    1    2    0    0 -0.22755446298E+02 -0.42837353437E+02 -0.50519498490E+03  0.53006270852E+03  0.15294330000E+03 0.  0.
    8880022    1    1    2    0    0  0.22755446298E+02  0.42837353437E+02 -0.78207266810E+02  0.17849615901E+03  0.15294330000E+03 0.  0.
<mgrwt>
<rscale>  0 0.16045093E+03</rscale>
<asrwt>0</asrwt>
<pdfrwt beam="1">  1        4 0.96274324E-02 0.16045093E+03</pdfrwt>
<pdfrwt beam="2">  1       -4 0.99381620E-01 0.16045093E+03</pdfrwt>
<totfact> 0.12093260E+02</totfact>
</mgrwt>
</event>
<event>
 4    1  0.8653772E-009  0.4360702E+03  0.7818608E-02  0.1031959E+00
          4   -1    0    0  501    0  0.00000000000E+00  0.00000000000E+00  0.85916819687E+03  0.85916913551E+03  0.12700000000E+01 0. -1.
         -4   -1    0    0    0  501 -0.00000000000E+00 -0.00000000000E+00 -0.22217963197E+03  0.22218326166E+03  0.12700000000E+01 0. -1.
    8880022    1    1    2    0    0 -0.32997431362E+03  0.24058793100E+03  0.35204134948E+03  0.56043765483E+03  0.15294330000E+03 0.  0.
    8880022    1    1    2    0    0  0.32997431362E+03 -0.24058793100E+03  0.28494721542E+03  0.52091474233E+03  0.15294330000E+03 0.  0.
<mgrwt>
<rscale>  0 0.43607024E+03</rscale>
<asrwt>0</asrwt>
<pdfrwt beam="1">  1        4 0.13218008E+00 0.43607024E+03</pdfrwt>
<pdfrwt beam="2">  1       -4 0.34181833E-01 0.43607024E+03</pdfrwt>
<totfact> 0.67199038E+00</totfact>
</mgrwt>
</event>
<event>
 4    1  0.8653772E-009  0.1594195E+03  0.7818608E-02  0.1189354E+00
          4   -1    0    0  501    0  0.00000000000E+00  0.00000000000E+00  0.47508222129E+03  0.47508391878E+03  0.12700000000E+01 0.  1.
         -4   -1    0    0    0  501 -0.00000000000E+00 -0.00000000000E+00 -0.55300804731E+02  0.55315385779E+02  0.12700000000E+01 0.  1.
    8880022    1    1    2    0    0 -0.14377314697E+02  0.42617152308E+02  0.16185301206E+03  0.22718049955E+03  0.15294330000E+03 0.  1.
    8880022    1    1    2    0    0  0.14377314697E+02 -0.42617152308E+02  0.25792840450E+03  0.30321880501E+03  0.15294330000E+03 0.  1.
<mgrwt>
<rscale>  0 0.15941952E+03</rscale>
<asrwt>0</asrwt>
<pdfrwt beam="1">  1        4 0.73090826E-01 0.15941952E+03</pdfrwt>
<pdfrwt beam="2">  1       -4 0.85090682E-02 0.15941952E+03</pdfrwt>
<totfact> 0.29634669E+02</totfact>
</mgrwt>
</event>
<event>
 4    1  0.8653772E-009  0.1820409E+03  0.7818608E-02  0.1165842E+00
          4   -1    0    0  501    0  0.00000000000E+00  0.00000000000E+00  0.64972573004E+03  0.64972697126E+03  0.12700000000E+01 0. -1.
         -4   -1    0    0    0  501 -0.00000000000E+00 -0.00000000000E+00 -0.50998512177E+02  0.51014322933E+02  0.12700000000E+01 0. -1.
    8880022    1    1    2    0    0  0.91616836426E+02  0.36791109031E+02  0.29655039954E+03  0.34796698536E+03  0.15294330000E+03 0.  0.
    8880022    1    1    2    0    0 -0.91616836426E+02 -0.36791109031E+02  0.30217681832E+03  0.35277430883E+03  0.15294330000E+03 0.  0.
<mgrwt>
<rscale>  0 0.18204088E+03</rscale>
<asrwt>0</asrwt>
<pdfrwt beam="1">  1        4 0.99959107E-01 0.18204088E+03</pdfrwt>
<pdfrwt beam="2">  1       -4 0.78472374E-02 0.18204088E+03</pdfrwt>
<totfact> 0.17123517E+02</totfact>
</mgrwt>
</event>
<event>
 4    1  0.8653772E-009  0.2299878E+03  0.7818608E-02  0.1126648E+00
          4   -1    0    0  501    0  0.00000000000E+00  0.00000000000E+00  0.19303201028E+04  0.19303205206E+04  0.12700000000E+01 0.  1.
         -4   -1    0    0    0  501 -0.00000000000E+00 -0.00000000000E+00 -0.50770981857E+02  0.50786863446E+02  0.12700000000E+01 0.  1.
    8880022    1    1    2    0    0  0.17116480879E+03 -0.14329007252E+02  0.16118737203E+04  0.16281987764E+04  0.15294330000E+03 0.  0.
    8880022    1    1    2    0    0 -0.17116480879E+03  0.14329007252E+02  0.26767540062E+03  0.35290860762E+03  0.15294330000E+03 0.  0.
<mgrwt>
<rscale>  0 0.22998775E+03</rscale>
<asrwt>0</asrwt>
<pdfrwt beam="1">  1        4 0.29697358E+00 0.22998775E+03</pdfrwt>
<pdfrwt beam="2">  1       -4 0.78121741E-02 0.22998775E+03</pdfrwt>
<totfact> 0.79076595E+00</totfact>
</mgrwt>
</event>
<event>
 4    1  0.8653772E-009  0.2645943E+03  0.7818608E-02  0.1104414E+00
          4   -1    0    0  501    0  0.00000000000E+00  0.00000000000E+00  0.18641157141E+03  0.18641589754E+03  0.12700000000E+01 0. -1.
         -4   -1    0    0    0  501 -0.00000000000E+00 -0.00000000000E+00 -0.42034489860E+03  0.42034681714E+03  0.12700000000E+01 0. -1.
    8880022    1    1    2    0    0 -0.50995280798E+01  0.21585298454E+03 -0.17938577645E+02  0.26520173775E+03  0.15294330000E+03 0.  0.
    8880022    1    1    2    0    0  0.50995280798E+01 -0.21585298454E+03 -0.21599474955E+03  0.34156097694E+03  0.15294330000E+03 0.  0.
<mgrwt>
<rscale>  0 0.26459435E+03</rscale>
<asrwt>0</asrwt>
<pdfrwt beam="1">  1        4 0.28679184E-01 0.26459435E+03</pdfrwt>
<pdfrwt beam="2">  1       -4 0.64668926E-01 0.26459435E+03</pdfrwt>
<totfact> 0.48004772E+01</totfact>
</mgrwt>
</event>
<event>
 4    1  0.8653772E-009  0.1701267E+03  0.7818608E-02  0.1177716E+00
         -4   -1    0    0    0  501 -0.00000000000E+00  0.00000000000E+00  0.62227632335E+02  0.62240590663E+02  0.12700000000E+01 0. -1.
          4   -1    0    0  501    0  0.00000000000E+00 -0.00000000000E+00 -0.61823749080E+03  0.61823879524E+03  0.12700000000E+01 0. -1.
    8880022    1    1    2    0    0  0.72976597006E+02 -0.15028804213E+02 -0.44736373291E+03  0.47862032051E+03  0.15294330000E+03 0.  0.
    8880022    1    1    2    0    0 -0.72976597006E+02  0.15028804213E+02 -0.10864612556E+03  0.20185906539E+03  0.15294330000E+03 0.  0.
<mgrwt>
<rscale>  0 0.17012672E+03</rscale>
<asrwt>0</asrwt>
<pdfrwt beam="1">  1        4 0.95114553E-01 0.17012672E+03</pdfrwt>
<pdfrwt beam="2">  1       -4 0.95745795E-02 0.17012672E+03</pdfrwt>
<totfact> 0.13623295E+02</totfact>
</mgrwt>
</event>
<event>
 4    1  0.8653772E-009  0.1765976E+03  0.7818608E-02  0.1171137E+00
         -4   -1    0    0    0  501 -0.00000000000E+00  0.00000000000E+00  0.32253809313E+02  0.32278802878E+02  0.12700000000E+01 0.  1.
          4   -1    0    0  501    0  0.00000000000E+00 -0.00000000000E+00 -0.16292662257E+04  0.16292667207E+04  0.12700000000E+01 0.  1.
    8880022    1    1    2    0    0 -0.71634234732E+02  0.51610201401E+02 -0.13283619661E+04  0.13400493433E+04  0.15294330000E+03 0.  0.
    8880022    1    1    2    0    0  0.71634234732E+02 -0.51610201401E+02 -0.26865045036E+03  0.32149618033E+03  0.15294330000E+03 0.  0.
<mgrwt>
<rscale>  0 0.17659765E+03</rscale>
<asrwt>0</asrwt>
<pdfrwt beam="1">  1        4 0.25065824E+00 0.17659765E+03</pdfrwt>
<pdfrwt beam="2">  1       -4 0.49640864E-02 0.17659765E+03</pdfrwt>
<totfact> 0.30549718E+01</totfact>
</mgrwt>
</event>
<event>
 4    1  0.8653772E-009  0.1531257E+03  0.7818608E-02  0.1196684E+00
         -4   -1    0    0    0  501 -0.00000000000E+00  0.00000000000E+00  0.35290959091E+02  0.35313803159E+02  0.12700000000E+01 0. -1.
          4   -1    0    0  501    0  0.00000000000E+00 -0.00000000000E+00 -0.67251506137E+03  0.67251626052E+03  0.12700000000E+01 0. -1.
    8880022    1    1    2    0    0  0.29881004006E+01  0.68482622318E+01 -0.27917987592E+03  0.31841621122E+03  0.15294330000E+03 0. -1.
    8880022    1    1    2    0    0 -0.29881004006E+01 -0.68482622318E+01 -0.35804422636E+03  0.38941385246E+03  0.15294330000E+03 0. -1.
<mgrwt>
<rscale>  0 0.15312570E+03</rscale>
<asrwt>0</asrwt>
<pdfrwt beam="1">  1        4 0.10346570E+00 0.15312570E+03</pdfrwt>
<pdfrwt beam="2">  1       -4 0.54312283E-02 0.15312570E+03</pdfrwt>
<totfact> 0.28109821E+02</totfact>
</mgrwt>
</event>
<event>
 4    1  0.8653772E-009  0.2980911E+03  0.7818608E-02  0.1086199E+00
         -4   -1    0    0    0  501 -0.00000000000E+00  0.00000000000E+00  0.16090649035E+03  0.16091150219E+03  0.12700000000E+01 0. -1.
          4   -1    0    0  501    0  0.00000000000E+00 -0.00000000000E+00 -0.55464600178E+03  0.55464745577E+03  0.12700000000E+01 0. -1.
    8880022    1    1    2    0    0  0.12410890602E+03  0.22374898265E+03 -0.22052591687E+03  0.37079638728E+03  0.15294330000E+03 0.  0.
    8880022    1    1    2    0    0 -0.12410890602E+03 -0.22374898265E+03 -0.17321359456E+03  0.34476257069E+03  0.15294330000E+03 0.  0.
<mgrwt>
<rscale>  0 0.29809106E+03</rscale>
<asrwt>0</asrwt>
<pdfrwt beam="1">  1        4 0.85330651E-01 0.29809106E+03</pdfrwt>
<pdfrwt beam="2">  1       -4 0.24755342E-01 0.29809106E+03</pdfrwt>
<totfact> 0.34703013E+01</totfact>
</mgrwt>
</event>
<event>
 4    1  0.8653772E-009  0.3885084E+03  0.7818608E-02  0.1047833E+00
         -4   -1    0    0    0  501 -0.00000000000E+00  0.00000000000E+00  0.64512705418E+03  0.64512830424E+03  0.12700000000E+01 0.  1.
          4   -1    0    0  501    0  0.00000000000E+00 -0.00000000000E+00 -0.26021631528E+03  0.26021941441E+03  0.12700000000E+01 0.  1.
    8880022    1    1    2    0    0  0.10372758147E+03  0.34174218794E+03  0.33623435297E+03  0.51380183662E+03  0.15294330000E+03 0.  0.
    8880022    1    1    2    0    0 -0.10372758147E+03 -0.34174218794E+03  0.48676385928E+02  0.39154588204E+03  0.15294330000E+03 0.  0.
<mgrwt>
<rscale>  0 0.38850841E+03</rscale>
<asrwt>0</asrwt>
<pdfrwt beam="1">  1        4 0.40033614E-01 0.38850841E+03</pdfrwt>
<pdfrwt beam="2">  1       -4 0.99250649E-01 0.38850841E+03</pdfrwt>
<totfact> 0.98313301E+00</totfact>
</mgrwt>
</event>
<event>
 4    1  0.8653772E-009  0.1726907E+03  0.7818608E-02  0.1175071E+00
          4   -1    0    0  501    0  0.00000000000E+00  0.00000000000E+00  0.62031675610E+02  0.62044674864E+02  0.12700000000E+01 0.  1.
         -4   -1    0    0    0  501 -0.00000000000E+00 -0.00000000000E+00 -0.56392109989E+03  0.56392252996E+03  0.12700000000E+01 0.  1.
    8880022    1    1    2    0    0  0.35003132766E+02  0.72147149726E+02 -0.13070563120E+03  0.21657803573E+03  0.15294330000E+03 0.  0.
    8880022    1    1    2    0    0 -0.35003132766E+02 -0.72147149726E+02 -0.37118379308E+03  0.40938916910E+03  0.15294330000E+03 0.  0.
<mgrwt>
<rscale>  0 0.17269072E+03</rscale>
<asrwt>0</asrwt>
<pdfrwt beam="1">  1        4 0.95444450E-02 0.17269072E+03</pdfrwt>
<pdfrwt beam="2">  1       -4 0.86758199E-01 0.17269072E+03</pdfrwt>
<totfact> 0.16923163E+02</totfact>
</mgrwt>
</event>
<event>
 4    1  0.8653772E-009  0.1769283E+03  0.7818608E-02  0.1170809E+00
          4   -1    0    0  501    0  0.00000000000E+00  0.00000000000E+00  0.11110225274E+03  0.11110951113E+03  0.12700000000E+01 0.  1.
         -4   -1    0    0    0  501 -0.00000000000E+00 -0.00000000000E+00 -0.36419840838E+03  0.36420062269E+03  0.12700000000E+01 0.  1.
    8880022    1    1    2    0    0 -0.56973107949E+02 -0.68308382726E+02 -0.23963102493E+03  0.29787019203E+03  0.15294330000E+03 0.  0.
    8880022    1    1    2    0    0  0.56973107949E+02  0.68308382726E+02 -0.13465130720E+02  0.17743994178E+03  0.15294330000E+03 0.  0.
<mgrwt>
<rscale>  0 0.17692830E+03</rscale>
<asrwt>0</asrwt>
<pdfrwt beam="1">  1        4 0.17093383E-01 0.17692830E+03</pdfrwt>
<pdfrwt beam="2">  1       -4 0.56031252E-01 0.17692830E+03</pdfrwt>
<totfact> 0.15997945E+02</totfact>
</mgrwt>
</event>
<event>
 4    1  0.8653772E-009  0.1666931E+03  0.7818608E-02  0.1181341E+00
          4   -1    0    0  501    0  0.00000000000E+00  0.00000000000E+00  0.28692483593E+04  0.28692486404E+04  0.12700000000E+01 0. -1.
         -4   -1    0    0    0  501 -0.00000000000E+00 -0.00000000000E+00 -0.11723950514E+02  0.11792536439E+02  0.12700000000E+01 0. -1.
    8880022    1    1    2    0    0 -0.23787172399E+01 -0.66251581852E+02  0.20337879454E+04  0.20406077502E+04  0.15294330000E+03 0.  0.
    8880022    1    1    2    0    0  0.23787172399E+01  0.66251581852E+02  0.82373646337E+03  0.84043342657E+03  0.15294330000E+03 0.  0.
<mgrwt>
<rscale>  0 0.16669308E+03</rscale>
<asrwt>0</asrwt>
<pdfrwt beam="1">  1        4 0.44142790E+00 0.16669308E+03</pdfrwt>
<pdfrwt beam="2">  1       -4 0.18089831E-02 0.16669308E+03</pdfrwt>
<totfact> 0.97060404E+00</totfact>
</mgrwt>
</event>
<event>
 4    1  0.8653772E-009  0.1543974E+03  0.7818608E-02  0.1195171E+00
         -4   -1    0    0    0  501 -0.00000000000E+00  0.00000000000E+00  0.34551155882E+03  0.34551389289E+03  0.12700000000E+01 0. -1.
          4   -1    0    0  501    0  0.00000000000E+00 -0.00000000000E+00 -0.16817101512E+03  0.16817581047E+03  0.12700000000E+01 0. -1.
    8880022    1    1    2    0    0 -0.18728526054E+02 -0.98048073556E+01  0.28591415256E+03  0.32493914444E+03  0.15294330000E+03 0.  0.
    8880022    1    1    2    0    0  0.18728526054E+02  0.98048073556E+01 -0.10857360887E+03  0.18875055892E+03  0.15294330000E+03 0.  0.
<mgrwt>
<rscale>  0 0.15439736E+03</rscale>
<asrwt>0</asrwt>
<pdfrwt beam="1">  1        4 0.25873012E-01 0.15439736E+03</pdfrwt>
<pdfrwt beam="2">  1       -4 0.53156173E-01 0.15439736E+03</pdfrwt>
<totfact> 0.82331535E+01</totfact>
</mgrwt>
</event>
<event>
 4    1  0.8653772E-009  0.1927551E+03  0.7818608E-02  0.1156000E+00
          4   -1    0    0  501    0  0.00000000000E+00  0.00000000000E+00  0.18135066828E+03  0.18135511514E+03  0.12700000000E+01 0.  1.
         -4   -1    0    0    0  501 -0.00000000000E+00 -0.00000000000E+00 -0.20490195645E+03  0.20490589220E+03  0.12700000000E+01 0.  1.
    8880022    1    1    2    0    0 -0.10527393915E+03  0.51771440386E+02 -0.14267917549E+02  0.19328246374E+03  0.15294330000E+03 0.  0.
    8880022    1    1    2    0    0  0.10527393915E+03 -0.51771440386E+02 -0.92833706221E+01  0.19297854360E+03  0.15294330000E+03 0.  0.
<mgrwt>
<rscale>  0 0.19275512E+03</rscale>
<asrwt>0</asrwt>
<pdfrwt beam="1">  1        4 0.27900748E-01 0.19275512E+03</pdfrwt>
<pdfrwt beam="2">  1       -4 0.31524023E-01 0.19275512E+03</pdfrwt>
<totfact> 0.20863747E+02</totfact>
</mgrwt>
</event>
<event>
 4    1  0.8653772E-009  0.2993363E+03  0.7818608E-02  0.1085573E+00
          4   -1    0    0  501    0  0.00000000000E+00  0.00000000000E+00  0.26062437003E+03  0.26062746431E+03  0.12700000000E+01 0.  1.
         -4   -1    0    0    0  501 -0.00000000000E+00 -0.00000000000E+00 -0.42824702541E+03  0.42824890855E+03  0.12700000000E+01 0.  1.
    8880022    1    1    2    0    0  0.21302160827E+02  0.25643083819E+03  0.69147412740E+02  0.30721909859E+03  0.15294330000E+03 0.  0.
    8880022    1    1    2    0    0 -0.21302160827E+02 -0.25643083819E+03 -0.23677006812E+03  0.38165727427E+03  0.15294330000E+03 0.  0.
<mgrwt>
<rscale>  0 0.29933628E+03</rscale>
<asrwt>0</asrwt>
<pdfrwt beam="1">  1        4 0.40096440E-01 0.29933628E+03</pdfrwt>
<pdfrwt beam="2">  1       -4 0.65884541E-01 0.29933628E+03</pdfrwt>
<totfact> 0.24275512E+01</totfact>
</mgrwt>
</event>
<event>
 4    1  0.8653772E-009  0.1766196E+03  0.7818608E-02  0.1171115E+00
         -4   -1    0    0    0  501 -0.00000000000E+00  0.00000000000E+00  0.16568272622E+03  0.16568759358E+03  0.12700000000E+01 0. -1.
          4   -1    0    0  501    0  0.00000000000E+00 -0.00000000000E+00 -0.36130075473E+03  0.36130298680E+03  0.12700000000E+01 0. -1.
    8880022    1    1    2    0    0 -0.28693822765E+02  0.83543365308E+02  0.84537256941E+02  0.19580865706E+03  0.15294330000E+03 0.  0.
    8880022    1    1    2    0    0  0.28693822765E+02 -0.83543365308E+02 -0.28015528545E+03  0.33118192332E+03  0.15294330000E+03 0.  0.
<mgrwt>
<rscale>  0 0.17661960E+03</rscale>
<asrwt>0</asrwt>
<pdfrwt beam="1">  1        4 0.55585277E-01 0.17661960E+03</pdfrwt>
<pdfrwt beam="2">  1       -4 0.25490196E-01 0.17661960E+03</pdfrwt>
<totfact> 0.78645366E+01</totfact>
</mgrwt>
</event>
<event>
 4    1  0.8653772E-009  0.2804122E+03  0.7818608E-02  0.1095464E+00
         -4   -1    0    0    0  501 -0.00000000000E+00  0.00000000000E+00  0.20215837186E+03  0.20216236102E+03  0.12700000000E+01 0.  1.
          4   -1    0    0  501    0  0.00000000000E+00 -0.00000000000E+00 -0.39122131623E+03  0.39122337759E+03  0.12700000000E+01 0.  1.
    8880022    1    1    2    0    0 -0.23502452949E+03  0.16762113173E+01 -0.11714521050E+03  0.30389799688E+03  0.15294330000E+03 0.  0.
    8880022    1    1    2    0    0  0.23502452949E+03 -0.16762113173E+01 -0.71917733871E+02  0.28948774172E+03  0.15294330000E+03 0.  0.
<mgrwt>
<rscale>  0 0.28041218E+03</rscale>
<asrwt>0</asrwt>
<pdfrwt beam="1">  1        4 0.60188360E-01 0.28041218E+03</pdfrwt>
<pdfrwt beam="2">  1       -4 0.31101753E-01 0.28041218E+03</pdfrwt>
<totfact> 0.48239478E+01</totfact>
</mgrwt>
</event>
<event>
 4    1  0.8653772E-009  0.1545052E+03  0.7818608E-02  0.1195044E+00
          4   -1    0    0  501    0  0.00000000000E+00  0.00000000000E+00  0.35755478402E+03  0.35755703948E+03  0.12700000000E+01 0. -1.
         -4   -1    0    0    0  501 -0.00000000000E+00 -0.00000000000E+00 -0.87498244588E+02  0.87507460859E+02  0.12700000000E+01 0. -1.
    8880022    1    1    2    0    0 -0.20003531663E+02 -0.89469577014E+01  0.26687270589E+02  0.15679302522E+03  0.15294330000E+03 0.  0.
    8880022    1    1    2    0    0  0.20003531663E+02  0.89469577014E+01  0.24336926885E+03  0.28827147512E+03  0.15294330000E+03 0.  0.
<mgrwt>
<rscale>  0 0.15450515E+03</rscale>
<asrwt>0</asrwt>
<pdfrwt beam="1">  1        4 0.55009310E-01 0.15450515E+03</pdfrwt>
<pdfrwt beam="2">  1       -4 0.13462151E-01 0.15450515E+03</pdfrwt>
<totfact> 0.24734475E+02</totfact>
</mgrwt>
</event>
<event>
 4    1  0.8653772E-009  0.1666791E+03  0.7818608E-02  0.1181356E+00
          4   -1    0    0  501    0  0.00000000000E+00  0.00000000000E+00  0.62643460256E+03  0.62643588992E+03  0.12700000000E+01 0.  1.
         -4   -1    0    0    0  501 -0.00000000000E+00 -0.00000000000E+00 -0.45907596913E+02  0.45925160363E+02  0.12700000000E+01 0.  1.
    8880022    1    1    2    0    0 -0.42982378377E+02  0.50425905641E+02  0.22813105265E+03  0.28253439969E+03  0.15294330000E+03 0.  0.
    8880022    1    1    2    0    0  0.42982378377E+02 -0.50425905641E+02  0.35239595299E+03  0.38982665059E+03  0.15294330000E+03 0.  0.
<mgrwt>
<rscale>  0 0.16667906E+03</rscale>
<asrwt>0</asrwt>
<pdfrwt beam="1">  1        4 0.96376003E-01 0.16667906E+03</pdfrwt>
<pdfrwt beam="2">  1       -4 0.70641574E-02 0.16667906E+03</pdfrwt>
<totfact> 0.21877145E+02</totfact>
</mgrwt>
</event>
<event>
 4    1  0.8653772E-009  0.2240389E+03  0.7818608E-02  0.1130907E+00
          4   -1    0    0  501    0  0.00000000000E+00  0.00000000000E+00  0.26558561200E+03  0.26558864848E+03  0.12700000000E+01 0. -1.
         -4   -1    0    0    0  501 -0.00000000000E+00 -0.00000000000E+00 -0.19223779515E+03  0.19224199017E+03  0.12700000000E+01 0. -1.
    8880022    1    1    2    0    0  0.16206660043E+03 -0.23156046871E+02  0.66449137456E+02  0.23368552879E+03  0.15294330000E+03 0.  0.
    8880022    1    1    2    0    0 -0.16206660043E+03  0.23156046871E+02  0.68986793973E+01  0.22414510986E+03  0.15294330000E+03 0.  0.
<mgrwt>
<rscale>  0 0.22403892E+03</rscale>
<asrwt>0</asrwt>
<pdfrwt beam="1">  1        4 0.40859881E-01 0.22403892E+03</pdfrwt>
<pdfrwt beam="2">  1       -4 0.29575602E-01 0.22403892E+03</pdfrwt>
<totfact> 0.11493498E+02</totfact>
</mgrwt>
</event>
<event>
 4    1  0.8653772E-009  0.3037887E+03  0.7818608E-02  0.1083362E+00
         -4   -1    0    0    0  501 -0.00000000000E+00  0.00000000000E+00  0.87750170731E+02  0.87759360545E+02  0.12700000000E+01 0.  1.
          4   -1    0    0  501    0  0.00000000000E+00 -0.00000000000E+00 -0.11990160393E+04  0.11990167119E+04  0.12700000000E+01 0.  1.
    8880022    1    1    2    0    0  0.25410470631E+03 -0.65777672695E+02 -0.33007029157E+03  0.44859107703E+03  0.15294330000E+03 0.  0.
    8880022    1    1    2    0    0 -0.25410470631E+03  0.65777672695E+02 -0.78119557700E+03  0.83818499542E+03  0.15294330000E+03 0.  0.
<mgrwt>
<rscale>  0 0.30378867E+03</rscale>
<asrwt>0</asrwt>
<pdfrwt beam="1">  1        4 0.18446475E+00 0.30378867E+03</pdfrwt>
<pdfrwt beam="2">  1       -4 0.13500786E-01 0.30378867E+03</pdfrwt>
<totfact> 0.15142851E+01</totfact>
</mgrwt>
</event>
<event>
 4    1  0.8653772E-009  0.1936314E+03  0.7818608E-02  0.1155226E+00
         -4   -1    0    0    0  501 -0.00000000000E+00  0.00000000000E+00  0.51541155426E+03  0.51541311893E+03  0.12700000000E+01 0. -1.
          4   -1    0    0  501    0  0.00000000000E+00 -0.00000000000E+00 -0.74022398000E+02  0.74033291874E+02  0.12700000000E+01 0. -1.
    8880022    1    1    2    0    0 -0.28980875284E+02 -0.11515895425E+03  0.25953120677E+03  0.32380484274E+03  0.15294330000E+03 0.  0.
    8880022    1    1    2    0    0  0.28980875284E+02  0.11515895425E+03  0.18185794948E+03  0.26564156806E+03  0.15294330000E+03 0.  0.
<mgrwt>
<rscale>  0 0.19363143E+03</rscale>
<asrwt>0</asrwt>
<pdfrwt beam="1">  1        4 0.11389019E-01 0.19363143E+03</pdfrwt>
<pdfrwt beam="2">  1       -4 0.79295045E-01 0.19363143E+03</pdfrwt>
<totfact> 0.15594732E+02</totfact>
</mgrwt>
</event>
<event>
 4    1  0.8653772E-009  0.1809698E+03  0.7818608E-02  0.1166868E+00
          4   -1    0    0  501    0  0.00000000000E+00  0.00000000000E+00  0.11351160742E+03  0.11351871176E+03  0.12700000000E+01 0.  1.
         -4   -1    0    0    0  501 -0.00000000000E+00 -0.00000000000E+00 -0.37278963504E+03  0.37279179832E+03  0.12700000000E+01 0.  1.
    8880022    1    1    2    0    0 -0.94889036414E+02  0.18828041864E+02 -0.24525915757E+03  0.30479851013E+03  0.15294330000E+03 0.  0.
    8880022    1    1    2    0    0  0.94889036414E+02 -0.18828041864E+02 -0.14018870052E+02  0.18151199995E+03  0.15294330000E+03 0.  0.
<mgrwt>
<rscale>  0 0.18096982E+03</rscale>
<asrwt>0</asrwt>
<pdfrwt beam="1">  1        4 0.17464037E-01 0.18096982E+03</pdfrwt>
<pdfrwt beam="2">  1       -4 0.57352964E-01 0.18096982E+03</pdfrwt>
<totfact> 0.14715682E+02</totfact>
</mgrwt>
</event>
<event>
 4    1  0.8653772E-009  0.2067340E+03  0.7818608E-02  0.1144179E+00
          4   -1    0    0  501    0  0.00000000000E+00  0.00000000000E+00  0.20035091937E+04  0.20035095962E+04  0.12700000000E+01 0.  1.
         -4   -1    0    0    0  501 -0.00000000000E+00 -0.00000000000E+00 -0.22510218789E+02  0.22546016276E+02  0.12700000000E+01 0.  1.
    8880022    1    1    2    0    0  0.10046326074E+02 -0.13873125838E+03  0.75704207958E+03  0.78476216396E+03  0.15294330000E+03 0.  0.
    8880022    1    1    2    0    0 -0.10046326074E+02  0.13873125838E+03  0.12239568953E+04  0.12412934485E+04  0.15294330000E+03 0.  0.
<mgrwt>
<rscale>  0 0.20673399E+03</rscale>
<asrwt>0</asrwt>
<pdfrwt beam="1">  1        4 0.30823495E+00 0.20673399E+03</pdfrwt>
<pdfrwt beam="2">  1       -4 0.34658954E-02 0.20673399E+03</pdfrwt>
<totfact> 0.25347489E+01</totfact>
</mgrwt>
</event>
<event>
 4    1  0.8653772E-009  0.5283416E+03  0.7818608E-02  0.1006635E+00
          4   -1    0    0  501    0  0.00000000000E+00  0.00000000000E+00  0.34125760278E+03  0.34125996595E+03  0.12700000000E+01 0. -1.
         -4   -1    0    0    0  501 -0.00000000000E+00 -0.00000000000E+00 -0.11357746658E+04  0.11357753758E+04  0.12700000000E+01 0. -1.
    8880022    1    1    2    0    0  0.14011749108E+03  0.48592206079E+03 -0.78790646518E+03  0.94865241862E+03  0.15294330000E+03 0.  0.
    8880022    1    1    2    0    0 -0.14011749108E+03 -0.48592206079E+03 -0.66105978340E+01  0.52838292317E+03  0.15294330000E+03 0.  0.
<mgrwt>
<rscale>  0 0.52834157E+03</rscale>
<asrwt>0</asrwt>
<pdfrwt beam="1">  1        4 0.52501407E-01 0.52834157E+03</pdfrwt>
<pdfrwt beam="2">  1       -4 0.17473480E+00 0.52834157E+03</pdfrwt>
<totfact> 0.13435711E+00</totfact>
</mgrwt>
</event>
<event>
 4    1  0.8653772E-009  0.1953460E+03  0.7818608E-02  0.1153726E+00
         -4   -1    0    0    0  501 -0.00000000000E+00  0.00000000000E+00  0.25643555531E+03  0.25643870014E+03  0.12700000000E+01 0.  1.
          4   -1    0    0  501    0  0.00000000000E+00 -0.00000000000E+00 -0.16137578956E+03  0.16138078682E+03  0.12700000000E+01 0.  1.
    8880022    1    1    2    0    0  0.10675078690E+03  0.58074639926E+02 -0.10780872040E+02  0.19564323276E+03  0.15294330000E+03 0.  0.
    8880022    1    1    2    0    0 -0.10675078690E+03 -0.58074639926E+02  0.10584063780E+03  0.22217625420E+03  0.15294330000E+03 0.  0.
<mgrwt>
<rscale>  0 0.19534597E+03</rscale>
<asrwt>0</asrwt>
<pdfrwt beam="1">  1        4 0.24827671E-01 0.19534597E+03</pdfrwt>
<pdfrwt beam="2">  1       -4 0.39452249E-01 0.19534597E+03</pdfrwt>
<totfact> 0.16805395E+02</totfact>
</mgrwt>
</event>
<event>
 4    1  0.8653772E-009  0.1697998E+03  0.7818608E-02  0.1178057E+00
         -4   -1    0    0    0  501 -0.00000000000E+00  0.00000000000E+00  0.10794797341E+04  0.10794804811E+04  0.12700000000E+01 0.  1.
          4   -1    0    0  501    0  0.00000000000E+00 -0.00000000000E+00 -0.27253863716E+02  0.27283437970E+02  0.12700000000E+01 0.  1.
    8880022    1    1    2    0    0  0.22386155353E+02 -0.70279220787E+02  0.44679166586E+03  0.47796940752E+03  0.15294330000E+03 0.  0.
    8880022    1    1    2    0    0 -0.22386155353E+02  0.70279220787E+02  0.60543420449E+03  0.62879451159E+03  0.15294330000E+03 0.  0.
<mgrwt>
<rscale>  0 0.16979977E+03</rscale>
<asrwt>0</asrwt>
<pdfrwt beam="1">  1        4 0.41952349E-02 0.16979977E+03</pdfrwt>
<pdfrwt beam="2">  1       -4 0.16607612E+00 0.16979977E+03</pdfrwt>
<totfact> 0.13413636E+02</totfact>
</mgrwt>
</event>
<event>
 4    1  0.8653772E-009  0.1874663E+03  0.7818608E-02  0.1160767E+00
          4   -1    0    0  501    0  0.00000000000E+00  0.00000000000E+00  0.40770126991E+03  0.40770324794E+03  0.12700000000E+01 0. -1.
         -4   -1    0    0    0  501 -0.00000000000E+00 -0.00000000000E+00 -0.86657703519E+02  0.86667009174E+02  0.12700000000E+01 0. -1.
    8880022    1    1    2    0    0 -0.40144133906E+02 -0.10069963491E+03  0.17863006090E+03  0.25894462657E+03  0.15294330000E+03 0.  0.
    8880022    1    1    2    0    0  0.40144133906E+02  0.10069963491E+03  0.14241350548E+03  0.23542563054E+03  0.15294330000E+03 0.  0.
<mgrwt>
<rscale>  0 0.18746632E+03</rscale>
<asrwt>0</asrwt>
<pdfrwt beam="1">  1        4 0.62724140E-01 0.18746632E+03</pdfrwt>
<pdfrwt beam="2">  1       -4 0.13332822E-01 0.18746632E+03</pdfrwt>
<totfact> 0.19692288E+02</totfact>
</mgrwt>
</event>
<event>
 4    1  0.8653772E-009  0.1618905E+03  0.7818608E-02  0.1186579E+00
          4   -1    0    0  501    0  0.00000000000E+00  0.00000000000E+00  0.38499893496E+02  0.38520834612E+02  0.12700000000E+01 0.  1.
         -4   -1    0    0    0  501 -0.00000000000E+00 -0.00000000000E+00 -0.68218695198E+03  0.68218813414E+03  0.12700000000E+01 0.  1.
    8880022    1    1    2    0    0 -0.52882821297E+02 -0.45054510970E+01 -0.33956696249E+03  0.37618382064E+03  0.15294330000E+03 0.  1.
    8880022    1    1    2    0    0  0.52882821297E+02  0.45054510970E+01 -0.30412009600E+03  0.34452514811E+03  0.15294330000E+03 0.  1.
<mgrwt>
<rscale>  0 0.16189053E+03</rscale>
<asrwt>0</asrwt>
<pdfrwt beam="1">  1        4 0.59247629E-02 0.16189053E+03</pdfrwt>
<pdfrwt beam="2">  1       -4 0.10495353E+00 0.16189053E+03</pdfrwt>
<totfact> 0.23826128E+02</totfact>
</mgrwt>
</event>
<event>
 4    1  0.8653772E-009  0.1657075E+03  0.7818608E-02  0.1182400E+00
         -4   -1    0    0    0  501 -0.00000000000E+00  0.00000000000E+00  0.14566572387E+04  0.14566577923E+04  0.12700000000E+01 0.  1.
          4   -1    0    0  501    0  0.00000000000E+00 -0.00000000000E+00 -0.28020532008E+02  0.28049297924E+02  0.12700000000E+01 0.  1.
    8880022    1    1    2    0    0  0.63104644143E+01  0.63462634545E+02  0.28941366785E+03  0.33349550537E+03  0.15294330000E+03 0.  0.
    8880022    1    1    2    0    0 -0.63104644143E+01 -0.63462634545E+02  0.11392230388E+04  0.11512115849E+04  0.15294330000E+03 0.  0.
<mgrwt>
<rscale>  0 0.16570752E+03</rscale>
<asrwt>0</asrwt>
<pdfrwt beam="1">  1        4 0.43131067E-02 0.16570752E+03</pdfrwt>
<pdfrwt beam="2">  1       -4 0.22410336E+00 0.16570752E+03</pdfrwt>
<totfact> 0.54568377E+01</totfact>
</mgrwt>
</event>
<event>
 4    1  0.8653772E-009  0.2562099E+03  0.7818608E-02  0.1109442E+00
          4   -1    0    0  501    0  0.00000000000E+00  0.00000000000E+00  0.20105692730E+03  0.20106093832E+03  0.12700000000E+01 0. -1.
         -4   -1    0    0    0  501 -0.00000000000E+00 -0.00000000000E+00 -0.32927497170E+03  0.32927742086E+03  0.12700000000E+01 0. -1.
    8880022    1    1    2    0    0  0.67375896998E+02  0.19419669433E+03 -0.39694969198E+02  0.25926667965E+03  0.15294330000E+03 0.  0.
    8880022    1    1    2    0    0 -0.67375896998E+02 -0.19419669433E+03 -0.88523075201E+02  0.27107167953E+03  0.15294330000E+03 0.  0.
<mgrwt>
<rscale>  0 0.25620992E+03</rscale>
<asrwt>0</asrwt>
<pdfrwt beam="1">  1        4 0.30932332E-01 0.25620992E+03</pdfrwt>
<pdfrwt beam="2">  1       -4 0.50658185E-01 0.25620992E+03</pdfrwt>
<totfact> 0.69308490E+01</totfact>
</mgrwt>
</event>
<event>
 4    1  0.8653772E-009  0.1576156E+03  0.7818608E-02  0.1191415E+00
          4   -1    0    0  501    0  0.00000000000E+00  0.00000000000E+00  0.17778664439E+03  0.17779118038E+03  0.12700000000E+01 0.  1.
         -4   -1    0    0    0  501 -0.00000000000E+00 -0.00000000000E+00 -0.13999516453E+03  0.14000092496E+03  0.12700000000E+01 0.  1.
    8880022    1    1    2    0    0  0.29418881188E+02  0.24198367254E+02  0.11901904934E+02  0.15806435368E+03  0.15294330000E+03 0. -1.
    8880022    1    1    2    0    0 -0.29418881188E+02 -0.24198367254E+02  0.25889574925E+02  0.15972775167E+03  0.15294330000E+03 0. -1.
<mgrwt>
<rscale>  0 0.15761562E+03</rscale>
<asrwt>0</asrwt>
<pdfrwt beam="1">  1        4 0.27352584E-01 0.15761562E+03</pdfrwt>
<pdfrwt beam="2">  1       -4 0.21538510E-01 0.15761562E+03</pdfrwt>
<totfact> 0.42636063E+02</totfact>
</mgrwt>
</event>
<event>
 4    1  0.8653772E-009  0.2167343E+03  0.7818608E-02  0.1136341E+00
          4   -1    0    0  501    0  0.00000000000E+00  0.00000000000E+00  0.26587363529E+03  0.26587666848E+03  0.12700000000E+01 0. -1.
         -4   -1    0    0    0  501 -0.00000000000E+00 -0.00000000000E+00 -0.17679631078E+03  0.17680087218E+03  0.12700000000E+01 0. -1.
    8880022    1    1    2    0    0  0.47325763806E+02  0.14609026450E+03  0.38637602924E+02  0.22015133585E+03  0.15294330000E+03 0.  0.
    8880022    1    1    2    0    0 -0.47325763806E+02 -0.14609026450E+03  0.50439721592E+02  0.22252620482E+03  0.15294330000E+03 0.  0.
<mgrwt>
<rscale>  0 0.21673428E+03</rscale>
<asrwt>0</asrwt>
<pdfrwt beam="1">  1        4 0.40904220E-01 0.21673428E+03</pdfrwt>
<pdfrwt beam="2">  1       -4 0.27200017E-01 0.21673428E+03</pdfrwt>
<totfact> 0.13379993E+02</totfact>
</mgrwt>
</event>
<event>
 4    1  0.8653772E-009  0.3098534E+03  0.7818608E-02  0.1080416E+00
          4   -1    0    0  501    0  0.00000000000E+00  0.00000000000E+00  0.48109564589E+02  0.48126324449E+02  0.12700000000E+01 0. -1.
         -4   -1    0    0    0  501 -0.00000000000E+00 -0.00000000000E+00 -0.23577299358E+04  0.23577302778E+04  0.12700000000E+01 0. -1.
    8880022    1    1    2    0    0  0.76334173514E+02 -0.25843871504E+03 -0.16264613131E+04  0.16557129979E+04  0.15294330000E+03 0.  0.
    8880022    1    1    2    0    0 -0.76334173514E+02  0.25843871504E+03 -0.68315905813E+03  0.75014360438E+03  0.15294330000E+03 0.  0.
<mgrwt>
<rscale>  0 0.30985340E+03</rscale>
<asrwt>0</asrwt>
<pdfrwt beam="1">  1        4 0.74027888E-02 0.30985340E+03</pdfrwt>
<pdfrwt beam="2">  1       -4 0.36272891E+00 0.30985340E+03</pdfrwt>
<totfact> 0.34507884E+00</totfact>
</mgrwt>
</event>
<event>
 4    1  0.8653772E-009  0.2543452E+03  0.7818608E-02  0.1110589E+00
          4   -1    0    0  501    0  0.00000000000E+00  0.00000000000E+00  0.16820400611E+04  0.16820405405E+04  0.12700000000E+01 0.  1.
         -4   -1    0    0    0  501 -0.00000000000E+00 -0.00000000000E+00 -0.85400634796E+02  0.85410077412E+02  0.12700000000E+01 0.  1.
    8880022    1    1    2    0    0  0.84783651621E+02 -0.18469318220E+03  0.14535160272E+04  0.14756016852E+04  0.15294330000E+03 0.  0.
    8880022    1    1    2    0    0 -0.84783651621E+02  0.18469318220E+03  0.14312339907E+03  0.29184893269E+03  0.15294330000E+03 0.  0.
<mgrwt>
<rscale>  0 0.25434522E+03</rscale>
<asrwt>0</asrwt>
<pdfrwt beam="1">  1        4 0.25877615E+00 0.25434522E+03</pdfrwt>
<pdfrwt beam="2">  1       -4 0.13139323E-01 0.25434522E+03</pdfrwt>
<totfact> 0.54796773E+00</totfact>
</mgrwt>
</event>
<event>
 4    1  0.8653772E-009  0.3321911E+03  0.7818608E-02  0.1070171E+00
          4   -1    0    0  501    0  0.00000000000E+00  0.00000000000E+00  0.15028808617E+03  0.15029345210E+03  0.12700000000E+01 0. -1.
         -4   -1    0    0    0  501 -0.00000000000E+00 -0.00000000000E+00 -0.73440184543E+03  0.73440294353E+03  0.12700000000E+01 0. -1.
    8880022    1    1    2    0    0  0.99272409192E+02 -0.27767655592E+03 -0.28556495479E+03  0.43806195607E+03  0.15294330000E+03 0.  0.
    8880022    1    1    2    0    0 -0.99272409192E+02  0.27767655592E+03 -0.29854880447E+03  0.44663443956E+03  0.15294330000E+03 0.  0.
<mgrwt>
<rscale>  0 0.33219111E+03</rscale>
<asrwt>0</asrwt>
<pdfrwt beam="1">  1        4 0.23121742E-01 0.33219111E+03</pdfrwt>
<pdfrwt beam="2">  1       -4 0.11298539E+00 0.33219111E+03</pdfrwt>
<totfact> 0.20584233E+01</totfact>
</mgrwt>
</event>
<event>
 4    1  0.8653772E-009  0.1676246E+03  0.7818608E-02  0.1180348E+00
         -4   -1    0    0    0  501 -0.00000000000E+00  0.00000000000E+00  0.10875115624E+03  0.10875857154E+03  0.12700000000E+01 0.  1.
          4   -1    0    0  501    0  0.00000000000E+00 -0.00000000000E+00 -0.35840805268E+03  0.35841030276E+03  0.12700000000E+01 0.  1.
    8880022    1    1    2    0    0  0.68249388976E+02  0.69549053693E+01 -0.24824425496E+03  0.29953833301E+03  0.15294330000E+03 0.  0.
    8880022    1    1    2    0    0 -0.68249388976E+02 -0.69549053693E+01 -0.14126414743E+01  0.16763054130E+03  0.15294330000E+03 0.  0.
<mgrwt>
<rscale>  0 0.16762459E+03</rscale>
<asrwt>0</asrwt>
<pdfrwt beam="1">  1        4 0.55140443E-01 0.16762459E+03</pdfrwt>
<pdfrwt beam="2">  1       -4 0.16731691E-01 0.16762459E+03</pdfrwt>
<totfact> 0.17039309E+02</totfact>
</mgrwt>
</event>
<event>
 4    1  0.8653772E-009  0.1731979E+03  0.7818608E-02  0.1174553E+00
         -4   -1    0    0    0  501 -0.00000000000E+00  0.00000000000E+00  0.73112966605E+02  0.73123995964E+02  0.12700000000E+01 0. -1.
          4   -1    0    0  501    0  0.00000000000E+00 -0.00000000000E+00 -0.42773550801E+03  0.42773739340E+03  0.12700000000E+01 0. -1.
    8880022    1    1    2    0    0  0.20370571085E+02 -0.78682229849E+02 -0.22794866065E+03  0.28628324849E+03  0.15294330000E+03 0.  1.
    8880022    1    1    2    0    0 -0.20370571085E+02  0.78682229849E+02 -0.12667388076E+03  0.21457814088E+03  0.15294330000E+03 0.  1.
<mgrwt>
<rscale>  0 0.17319788E+03</rscale>
<asrwt>0</asrwt>
<pdfrwt beam="1">  1        4 0.65806455E-01 0.17319788E+03</pdfrwt>
<pdfrwt beam="2">  1       -4 0.11249142E-01 0.17319788E+03</pdfrwt>
<totfact> 0.23525401E+02</totfact>
</mgrwt>
</event>
<event>
 4    1  0.8653772E-009  0.2169051E+03  0.7818608E-02  0.1136212E+00
         -4   -1    0    0    0  501 -0.00000000000E+00  0.00000000000E+00  0.27650665585E+03  0.27650957240E+03  0.12700000000E+01 0. -1.
          4   -1    0    0  501    0  0.00000000000E+00 -0.00000000000E+00 -0.17690424347E+03  0.17690880209E+03  0.12700000000E+01 0. -1.
    8880022    1    1    2    0    0  0.15069661231E+03 -0.30768766801E+02  0.94116219767E+02  0.23644386609E+03  0.15294330000E+03 0.  0.
    8880022    1    1    2    0    0 -0.15069661231E+03  0.30768766801E+02  0.54861926128E+01  0.21697450840E+03  0.15294330000E+03 0.  0.
<mgrwt>
<rscale>  0 0.21690514E+03</rscale>
<asrwt>0</asrwt>
<pdfrwt beam="1">  1        4 0.27216612E-01 0.21690514E+03</pdfrwt>
<pdfrwt beam="2">  1       -4 0.42540061E-01 0.21690514E+03</pdfrwt>
<totfact> 0.12358323E+02</totfact>
</mgrwt>
</event>
<event>
 4    1  0.8653772E-009  0.2752864E+03  0.7818608E-02  0.1098292E+00
         -4   -1    0    0    0  501 -0.00000000000E+00  0.00000000000E+00  0.14360213842E+04  0.14360219458E+04  0.12700000000E+01 0. -1.
          4   -1    0    0  501    0  0.00000000000E+00 -0.00000000000E+00 -0.96974663126E+02  0.96982978859E+02  0.12700000000E+01 0. -1.
    8880022    1    1    2    0    0 -0.22857689172E+03 -0.11982361082E+02  0.15201400759E+03  0.31446920982E+03  0.15294330000E+03 0.  0.
    8880022    1    1    2    0    0  0.22857689172E+03  0.11982361082E+02  0.11870327135E+04  0.12185357148E+04  0.15294330000E+03 0.  0.
<mgrwt>
<rscale>  0 0.27528644E+03</rscale>
<asrwt>0</asrwt>
<pdfrwt beam="1">  1        4 0.14919860E-01 0.27528644E+03</pdfrwt>
<pdfrwt beam="2">  1       -4 0.22092707E+00 0.27528644E+03</pdfrwt>
<totfact> 0.74065704E+00</totfact>
</mgrwt>
</event>
<event>
 4    1  0.8653772E-009  0.1838985E+03  0.7818608E-02  0.1164083E+00
          4   -1    0    0  501    0  0.00000000000E+00  0.00000000000E+00  0.15775918809E+04  0.15775923921E+04  0.12700000000E+01 0.  1.
         -4   -1    0    0    0  501 -0.00000000000E+00 -0.00000000000E+00 -0.27407781245E+02  0.27437189593E+02  0.12700000000E+01 0.  1.
    8880022    1    1    2    0    0  0.99260160502E+02  0.23966899548E+02  0.11500377469E+04  0.11646482147E+04  0.15294330000E+03 0. -1.
    8880022    1    1    2    0    0 -0.99260160502E+02 -0.23966899548E+02  0.40014635282E+03  0.44038136703E+03  0.15294330000E+03 0. -1.
<mgrwt>
<rscale>  0 0.18389846E+03</rscale>
<asrwt>0</asrwt>
<pdfrwt beam="1">  1        4 0.24270877E+00 0.18389846E+03</pdfrwt>
<pdfrwt beam="2">  1       -4 0.42188828E-02 0.18389846E+03</pdfrwt>
<totfact> 0.44343189E+01</totfact>
</mgrwt>
</event>
<event>
 4    1  0.8653772E-009  0.1931474E+03  0.7818608E-02  0.1155653E+00
          4   -1    0    0  501    0  0.00000000000E+00  0.00000000000E+00  0.76157901154E+02  0.76168489601E+02  0.12700000000E+01 0.  1.
         -4   -1    0    0    0  501 -0.00000000000E+00 -0.00000000000E+00 -0.70318868838E+03  0.70318983523E+03  0.12700000000E+01 0.  1.
    8880022    1    1    2    0    0  0.64184849256E+02  0.98967609071E+02 -0.98856548740E+02  0.21697592669E+03  0.15294330000E+03 0.  0.
    8880022    1    1    2    0    0 -0.64184849256E+02 -0.98967609071E+02 -0.52817423849E+03  0.56238239814E+03  0.15294330000E+03 0.  0.
<mgrwt>
<rscale>  0 0.19314745E+03</rscale>
<asrwt>0</asrwt>
<pdfrwt beam="1">  1        4 0.11717503E-01 0.19314745E+03</pdfrwt>
<pdfrwt beam="2">  1       -4 0.10818377E+00 0.19314745E+03</pdfrwt>
<totfact> 0.72779943E+01</totfact>
</mgrwt>
</event>
<event>
 4    1  0.8653772E-009  0.1915667E+03  0.7818608E-02  0.1157056E+00
          4   -1    0    0  501    0  0.00000000000E+00  0.00000000000E+00  0.49629434955E+02  0.49645681725E+02  0.12700000000E+01 0.  1.
         -4   -1    0    0    0  501 -0.00000000000E+00 -0.00000000000E+00 -0.93295648383E+03  0.93295734823E+03  0.12700000000E+01 0.  1.
    8880022    1    1    2    0    0 -0.78600157682E+02 -0.84428368000E+02 -0.66550034533E+03  0.69252328247E+03  0.15294330000E+03 0.  0.
    8880022    1    1    2    0    0  0.78600157682E+02  0.84428368000E+02 -0.21782670354E+03  0.29007974749E+03  0.15294330000E+03 0.  0.
<mgrwt>
<rscale>  0 0.19156666E+03</rscale>
<asrwt>0</asrwt>
<pdfrwt beam="1">  1        4 0.76366146E-02 0.19156666E+03</pdfrwt>
<pdfrwt beam="2">  1       -4 0.14353307E+00 0.19156666E+03</pdfrwt>
<totfact> 0.75005346E+01</totfact>
</mgrwt>
</event>
<event>
 4    1  0.8653772E-009  0.1869992E+03  0.7818608E-02  0.1161196E+00
          4   -1    0    0  501    0  0.00000000000E+00  0.00000000000E+00  0.22759771463E+03  0.22760125791E+03  0.12700000000E+01 0.  1.
         -4   -1    0    0    0  501 -0.00000000000E+00 -0.00000000000E+00 -0.17586742925E+03  0.17587201474E+03  0.12700000000E+01 0.  1.
    8880022    1    1    2    0    0  0.99393375150E+02 -0.41206978514E+02 -0.45860177429E+02  0.19254055934E+03  0.15294330000E+03 0.  0.
    8880022    1    1    2    0    0 -0.99393375150E+02  0.41206978514E+02  0.97590462808E+02  0.21093271332E+03  0.15294330000E+03 0.  0.
<mgrwt>
<rscale>  0 0.18699923E+03</rscale>
<asrwt>0</asrwt>
<pdfrwt beam="1">  1        4 0.35015658E-01 0.18699923E+03</pdfrwt>
<pdfrwt beam="2">  1       -4 0.27057153E-01 0.18699923E+03</pdfrwt>
<totfact> 0.17964544E+02</totfact>
</mgrwt>
</event>
<event>
 4    1  0.8653772E-009  0.2383275E+03  0.7818608E-02  0.1120912E+00
          4   -1    0    0  501    0  0.00000000000E+00  0.00000000000E+00  0.11581687171E+03  0.11582383465E+03  0.12700000000E+01 0.  1.
         -4   -1    0    0    0  501 -0.00000000000E+00 -0.00000000000E+00 -0.56387859239E+03  0.56388002257E+03  0.12700000000E+01 0.  1.
    8880022    1    1    2    0    0 -0.82459964800E+02 -0.16312171240E+03 -0.10135646006E+03  0.25898479465E+03  0.15294330000E+03 0. -1.
    8880022    1    1    2    0    0  0.82459964800E+02  0.16312171240E+03 -0.34670526062E+03  0.42071906257E+03  0.15294330000E+03 0. -1.
<mgrwt>
<rscale>  0 0.23832749E+03</rscale>
<asrwt>0</asrwt>
<pdfrwt beam="1">  1        4 0.17818626E-01 0.23832749E+03</pdfrwt>
<pdfrwt beam="2">  1       -4 0.86751197E-01 0.23832749E+03</pdfrwt>
<totfact> 0.59685706E+01</totfact>
</mgrwt>
</event>
<event>
 4    1  0.8653772E-009  0.1749618E+03  0.7818608E-02  0.1172770E+00
         -4   -1    0    0    0  501 -0.00000000000E+00  0.00000000000E+00  0.51566054513E+03  0.51566210904E+03  0.12700000000E+01 0. -1.
          4   -1    0    0  501    0  0.00000000000E+00 -0.00000000000E+00 -0.63744540211E+02  0.63757190235E+02  0.12700000000E+01 0. -1.
    8880022    1    1    2    0    0  0.48963650350E+02  0.69444428845E+02  0.30196937342E+03  0.34899444587E+03  0.15294330000E+03 0.  0.
    8880022    1    1    2    0    0 -0.48963650350E+02 -0.69444428845E+02  0.14994663150E+03  0.23042485340E+03  0.15294330000E+03 0.  0.
<mgrwt>
<rscale>  0 0.17496177E+03</rscale>
<asrwt>0</asrwt>
<pdfrwt beam="1">  1        4 0.98079454E-02 0.17496177E+03</pdfrwt>
<pdfrwt beam="2">  1       -4 0.79333487E-01 0.17496177E+03</pdfrwt>
<totfact> 0.19784580E+02</totfact>
</mgrwt>
</event>
<event>
 4    1  0.8653772E-009  0.2418429E+03  0.7818608E-02  0.1118571E+00
         -4   -1    0    0    0  501 -0.00000000000E+00  0.00000000000E+00  0.63915464841E+02  0.63928081043E+02  0.12700000000E+01 0.  1.
          4   -1    0    0  501    0  0.00000000000E+00 -0.00000000000E+00 -0.98435592573E+03  0.98435674500E+03  0.12700000000E+01 0.  1.
    8880022    1    1    2    0    0  0.55312571422E+02  0.17898839413E+03 -0.59936748125E+03  0.64631985610E+03  0.15294330000E+03 0.  0.
    8880022    1    1    2    0    0 -0.55312571422E+02 -0.17898839413E+03 -0.32107297964E+03  0.40196496995E+03  0.15294330000E+03 0.  0.
<mgrwt>
<rscale>  0 0.24184288E+03</rscale>
<asrwt>0</asrwt>
<pdfrwt beam="1">  1        4 0.15144040E+00 0.24184288E+03</pdfrwt>
<pdfrwt beam="2">  1       -4 0.98341826E-02 0.24184288E+03</pdfrwt>
<totfact> 0.43837010E+01</totfact>
</mgrwt>
</event>
<event>
 4    1  0.8653772E-009  0.1541369E+03  0.7818608E-02  0.1195480E+00
         -4   -1    0    0    0  501 -0.00000000000E+00  0.00000000000E+00  0.11655400798E+03  0.11656092688E+03  0.12700000000E+01 0. -1.
          4   -1    0    0  501    0  0.00000000000E+00 -0.00000000000E+00 -0.23405343222E+03  0.23405687778E+03  0.12700000000E+01 0. -1.
    8880022    1    1    2    0    0 -0.97737567227E+01 -0.16461971025E+02 -0.12175194590E+03  0.19642228019E+03  0.15294330000E+03 0.  1.
    8880022    1    1    2    0    0  0.97737567227E+01  0.16461971025E+02  0.42525216604E+01  0.15419552447E+03  0.15294330000E+03 0.  1.
<mgrwt>
<rscale>  0 0.15413687E+03</rscale>
<asrwt>0</asrwt>
<pdfrwt beam="1">  1        4 0.36009017E-01 0.15413687E+03</pdfrwt>
<pdfrwt beam="2">  1       -4 0.17932183E-01 0.15413687E+03</pdfrwt>
<totfact> 0.34960355E+02</totfact>
</mgrwt>
</event>
<event>
 4    1  0.8653772E-009  0.2362109E+03  0.7818608E-02  0.1122343E+00
         -4   -1    0    0    0  501 -0.00000000000E+00  0.00000000000E+00  0.10223913233E+04  0.10223921121E+04  0.12700000000E+01 0. -1.
          4   -1    0    0  501    0  0.00000000000E+00 -0.00000000000E+00 -0.58407720287E+02  0.58421525905E+02  0.12700000000E+01 0. -1.
    8880022    1    1    2    0    0 -0.78780959225E+02  0.16185636498E+03  0.62058002234E+03  0.66401441217E+03  0.15294330000E+03 0. -1.
    8880022    1    1    2    0    0  0.78780959225E+02 -0.16185636498E+03  0.34340358070E+03  0.41679922585E+03  0.15294330000E+03 0. -1.
<mgrwt>
<rscale>  0 0.23621087E+03</rscale>
<asrwt>0</asrwt>
<pdfrwt beam="1">  1        4 0.89869261E-02 0.23621087E+03</pdfrwt>
<pdfrwt beam="2">  1       -4 0.15729209E+00 0.23621087E+03</pdfrwt>
<totfact> 0.46147013E+01</totfact>
</mgrwt>
</event>
<event>
 4    1  0.8653772E-009  0.4398826E+03  0.7818608E-02  0.1030783E+00
         -4   -1    0    0    0  501 -0.00000000000E+00  0.00000000000E+00  0.32390379876E+03  0.32390628854E+03  0.12700000000E+01 0.  1.
          4   -1    0    0  501    0  0.00000000000E+00 -0.00000000000E+00 -0.90128610670E+03  0.90128700148E+03  0.12700000000E+01 0.  1.
    8880022    1    1    2    0    0  0.39040781779E+03 -0.13299168684E+03  0.67029663941E+02  0.44496031489E+03  0.15294330000E+03 0.  0.
    8880022    1    1    2    0    0 -0.39040781779E+03  0.13299168684E+03 -0.64441197188E+03  0.78023297513E+03  0.15294330000E+03 0.  0.
<mgrwt>
<rscale>  0 0.43988260E+03</rscale>
<asrwt>0</asrwt>
<pdfrwt beam="1">  1        4 0.13865966E+00 0.43988260E+03</pdfrwt>
<pdfrwt beam="2">  1       -4 0.49831614E-01 0.43988260E+03</pdfrwt>
<totfact> 0.27761649E+00</totfact>
</mgrwt>
</event>
<event>
 4    1  0.8653772E-009  0.3020190E+03  0.7818608E-02  0.1084236E+00
         -4   -1    0    0    0  501 -0.00000000000E+00  0.00000000000E+00  0.59128786232E+03  0.59128922620E+03  0.12700000000E+01 0. -1.
          4   -1    0    0  501    0  0.00000000000E+00 -0.00000000000E+00 -0.16287562266E+03  0.16288057391E+03  0.12700000000E+01 0. -1.
    8880022    1    1    2    0    0 -0.18835658227E+03  0.17984885857E+03  0.12748885355E+03  0.32782445731E+03  0.15294330000E+03 0.  0.
    8880022    1    1    2    0    0  0.18835658227E+03 -0.17984885857E+03  0.30092338610E+03  0.42634534281E+03  0.15294330000E+03 0.  0.
<mgrwt>
<rscale>  0 0.30201898E+03</rscale>
<asrwt>0</asrwt>
<pdfrwt beam="1">  1        4 0.25058274E-01 0.30201898E+03</pdfrwt>
<pdfrwt beam="2">  1       -4 0.90967849E-01 0.30201898E+03</pdfrwt>
<totfact> 0.29333248E+01</totfact>
</mgrwt>
</event>
<event>
 4    1  0.8653772E-009  0.1556390E+03  0.7818608E-02  0.1193710E+00
         -4   -1    0    0    0  501 -0.00000000000E+00  0.00000000000E+00  0.10794920065E+03  0.10795667104E+03  0.12700000000E+01 0. -1.
          4   -1    0    0  501    0  0.00000000000E+00 -0.00000000000E+00 -0.23167967359E+03  0.23168315444E+03  0.12700000000E+01 0. -1.
    8880022    1    1    2    0    0 -0.27956327686E+02  0.70907853713E+01 -0.92008048107E+02  0.18080091102E+03  0.15294330000E+03 0.  1.
    8880022    1    1    2    0    0  0.27956327686E+02 -0.70907853713E+01 -0.31722424826E+02  0.15883891446E+03  0.15294330000E+03 0.  1.
<mgrwt>
<rscale>  0 0.15563897E+03</rscale>
<asrwt>0</asrwt>
<pdfrwt beam="1">  1        4 0.35643869E-01 0.15563897E+03</pdfrwt>
<pdfrwt beam="2">  1       -4 0.16608412E-01 0.15563897E+03</pdfrwt>
<totfact> 0.40932321E+02</totfact>
</mgrwt>
</event>
<event>
 4    1  0.8653772E-009  0.1899782E+03  0.7818608E-02  0.1158481E+00
         -4   -1    0    0    0  501 -0.00000000000E+00  0.00000000000E+00  0.14193441659E+04  0.14193447341E+04  0.12700000000E+01 0. -1.
          4   -1    0    0  501    0  0.00000000000E+00 -0.00000000000E+00 -0.35847162538E+02  0.35869652382E+02  0.12700000000E+01 0. -1.
    8880022    1    1    2    0    0  0.88496592754E+02 -0.69774140732E+02  0.29932851098E+03  0.35452685109E+03  0.15294330000E+03 0.  0.
    8880022    1    1    2    0    0 -0.88496592754E+02  0.69774140732E+02  0.10841684924E+04  0.11006875354E+04  0.15294330000E+03 0.  0.
<mgrwt>
<rscale>  0 0.18997824E+03</rscale>
<asrwt>0</asrwt>
<pdfrwt beam="1">  1        4 0.55167220E-02 0.18997824E+03</pdfrwt>
<pdfrwt beam="2">  1       -4 0.21836240E+00 0.18997824E+03</pdfrwt>
<totfact> 0.40279087E+01</totfact>
</mgrwt>
</event>
<event>
 4    1  0.8653772E-009  0.2699417E+03  0.7818608E-02  0.1101313E+00
         -4   -1    0    0    0  501 -0.00000000000E+00  0.00000000000E+00  0.39831618778E+03  0.39831821243E+03  0.12700000000E+01 0. -1.
          4   -1    0    0  501    0  0.00000000000E+00 -0.00000000000E+00 -0.19460371624E+03  0.19460786026E+03  0.12700000000E+01 0. -1.
    8880022    1    1    2    0    0  0.15589269410E+03  0.15866421570E+03  0.17444474265E+03  0.32140237503E+03  0.15294330000E+03 0.  0.
    8880022    1    1    2    0    0 -0.15589269410E+03 -0.15866421570E+03  0.29267728886E+02  0.27152369766E+03  0.15294330000E+03 0.  0.
<mgrwt>
<rscale>  0 0.26994169E+03</rscale>
<asrwt>0</asrwt>
<pdfrwt beam="1">  1        4 0.29939508E-01 0.26994169E+03</pdfrwt>
<pdfrwt beam="2">  1       -4 0.61279888E-01 0.26994169E+03</pdfrwt>
<totfact> 0.49743944E+01</totfact>
</mgrwt>
</event>
<event>
 4    1  0.8653772E-009  0.1664856E+03  0.7818608E-02  0.1181563E+00
          4   -1    0    0  501    0  0.00000000000E+00  0.00000000000E+00  0.64984954930E+03  0.64985079028E+03  0.12700000000E+01 0.  1.
         -4   -1    0    0    0  501 -0.00000000000E+00 -0.00000000000E+00 -0.43947086215E+02  0.43965432862E+02  0.12700000000E+01 0.  1.
    8880022    1    1    2    0    0  0.62921700421E+02  0.19148534443E+02  0.36273366694E+03  0.39911548818E+03  0.15294330000E+03 0.  1.
    8880022    1    1    2    0    0 -0.62921700421E+02 -0.19148534443E+02  0.24316879614E+03  0.29470073496E+03  0.15294330000E+03 0.  1.
<mgrwt>
<rscale>  0 0.16648561E+03</rscale>
<asrwt>0</asrwt>
<pdfrwt beam="1">  1        4 0.99978358E-01 0.16648561E+03</pdfrwt>
<pdfrwt beam="2">  1       -4 0.67625971E-02 0.16648561E+03</pdfrwt>
<totfact> 0.21591650E+02</totfact>
</mgrwt>
</event>
<event>
 4    1  0.8653772E-009  0.1707217E+03  0.7818608E-02  0.1177097E+00
          4   -1    0    0  501    0  0.00000000000E+00  0.00000000000E+00  0.22615084896E+04  0.22615088462E+04  0.12700000000E+01 0. -1.
         -4   -1    0    0    0  501 -0.00000000000E+00 -0.00000000000E+00 -0.13197133446E+02  0.13258100588E+02  0.12700000000E+01 0. -1.
    8880022    1    1    2    0    0 -0.66736107182E+02 -0.36063079017E+02  0.94176585141E+03  0.95711484451E+03  0.15294330000E+03 0.  1.
    8880022    1    1    2    0    0  0.66736107182E+02  0.36063079017E+02  0.13065455047E+04  0.13176521023E+04  0.15294330000E+03 0.  1.
<mgrwt>
<rscale>  0 0.17072172E+03</rscale>
<asrwt>0</asrwt>
<pdfrwt beam="1">  1        4 0.34792952E+00 0.17072172E+03</pdfrwt>
<pdfrwt beam="2">  1       -4 0.20350430E-02 0.17072172E+03</pdfrwt>
<totfact> 0.33347340E+01</totfact>
</mgrwt>
</event>
<event>
 4    1  0.8653772E-009  0.1975239E+03  0.7818608E-02  0.1151845E+00
          4   -1    0    0  501    0  0.00000000000E+00  0.00000000000E+00  0.40469437453E+02  0.40489359933E+02  0.12700000000E+01 0.  1.
         -4   -1    0    0    0  501 -0.00000000000E+00 -0.00000000000E+00 -0.11044552958E+04  0.11044560260E+04  0.12700000000E+01 0.  1.
    8880022    1    1    2    0    0 -0.10186314540E+03  0.72442754403E+02 -0.73627145118E+03  0.76230660229E+03  0.15294330000E+03 0.  0.
    8880022    1    1    2    0    0  0.10186314540E+03 -0.72442754403E+02 -0.32771440719E+03  0.38263878365E+03  0.15294330000E+03 0.  0.
<mgrwt>
<rscale>  0 0.19752394E+03</rscale>
<asrwt>0</asrwt>
<pdfrwt beam="1">  1        4 0.62276568E-02 0.19752394E+03</pdfrwt>
<pdfrwt beam="2">  1       -4 0.16991777E+00 0.19752394E+03</pdfrwt>
<totfact> 0.67847661E+01</totfact>
</mgrwt>
</event>
<event>
 4    1  0.8653772E-009  0.2998192E+03  0.7818608E-02  0.1085331E+00
          4   -1    0    0  501    0  0.00000000000E+00  0.00000000000E+00  0.26935083481E+03  0.26935382884E+03  0.12700000000E+01 0. -1.
         -4   -1    0    0    0  501 -0.00000000000E+00 -0.00000000000E+00 -0.44511109151E+03  0.44511290330E+03  0.12700000000E+01 0. -1.
    8880022    1    1    2    0    0  0.67284030398E+01  0.25778790387E+03 -0.26658034854E+03  0.40119398055E+03  0.15294330000E+03 0.  1.
    8880022    1    1    2    0    0 -0.67284030398E+01 -0.25778790387E+03  0.90820091836E+02  0.31327275159E+03  0.15294330000E+03 0.  1.
<mgrwt>
<rscale>  0 0.29981916E+03</rscale>
<asrwt>0</asrwt>
<pdfrwt beam="1">  1        4 0.41438960E-01 0.29981916E+03</pdfrwt>
<pdfrwt beam="2">  1       -4 0.68478999E-01 0.29981916E+03</pdfrwt>
<totfact> 0.20895477E+01</totfact>
</mgrwt>
</event>
<event>
 4    1  0.8653772E-009  0.3928337E+03  0.7818608E-02  0.1046290E+00
          4   -1    0    0  501    0  0.00000000000E+00  0.00000000000E+00  0.93224238618E+03  0.93224325124E+03  0.12700000000E+01 0. -1.
         -4   -1    0    0    0  501 -0.00000000000E+00 -0.00000000000E+00 -0.69927514099E+03  0.69927629425E+03  0.12700000000E+01 0.  1.
    8880022    1    1    2    0    0 -0.27788536713E+03 -0.23174644587E+03  0.82917830321E+03  0.91752656853E+03  0.15294330000E+03 0. -1.
    8880022    1    1    2    0    0  0.27788536713E+03  0.23174644587E+03 -0.59621105802E+03  0.71399297696E+03  0.15294330000E+03 0.  0.
<mgrwt>
<rscale>  0 0.39283374E+03</rscale>
<asrwt>0</asrwt>
<pdfrwt beam="1">  1        4 0.14342206E+00 0.39283374E+03</pdfrwt>
<pdfrwt beam="2">  1       -4 0.10758095E+00 0.39283374E+03</pdfrwt>
<totfact> 0.45624329E-01</totfact>
</mgrwt>
</event>
<event>
 4    1  0.8653772E-009  0.2121444E+03  0.7818608E-02  0.1139879E+00
         -4   -1    0    0    0  501 -0.00000000000E+00  0.00000000000E+00  0.27714360815E+02  0.27743444187E+02  0.12700000000E+01 0. -1.
          4   -1    0    0  501    0  0.00000000000E+00 -0.00000000000E+00 -0.16231812212E+04  0.16231817180E+04  0.12700000000E+01 0. -1.
    8880022    1    1    2    0    0  0.10845449417E+03 -0.99253244356E+02 -0.78937913942E+03  0.81738892981E+03  0.15294330000E+03 0.  0.
    8880022    1    1    2    0    0 -0.10845449417E+03  0.99253244356E+02 -0.80608772097E+03  0.83353623240E+03  0.15294330000E+03 0.  0.
<mgrwt>
<rscale>  0 0.21214438E+03</rscale>
<asrwt>0</asrwt>
<pdfrwt beam="1">  1        4 0.24972239E+00 0.21214438E+03</pdfrwt>
<pdfrwt beam="2">  1       -4 0.42660245E-02 0.21214438E+03</pdfrwt>
<totfact> 0.40121589E+01</totfact>
</mgrwt>
</event>
<event>
 4    1  0.8653772E-009  0.2319971E+03  0.7818608E-02  0.1125242E+00
         -4   -1    0    0    0  501 -0.00000000000E+00  0.00000000000E+00  0.87150700962E+03  0.87150793497E+03  0.12700000000E+01 0. -1.
          4   -1    0    0  501    0  0.00000000000E+00 -0.00000000000E+00 -0.87387888944E+02  0.87397116852E+02  0.12700000000E+01 0. -1.
    8880022    1    1    2    0    0  0.17327349428E+03  0.20181227836E+02  0.13238719689E+03  0.26711235219E+03  0.15294330000E+03 0.  0.
    8880022    1    1    2    0    0 -0.17327349428E+03 -0.20181227836E+02  0.65173192378E+03  0.69179269964E+03  0.15294330000E+03 0.  0.
<mgrwt>
<rscale>  0 0.23199707E+03</rscale>
<asrwt>0</asrwt>
<pdfrwt beam="1">  1        4 0.13445072E-01 0.23199707E+03</pdfrwt>
<pdfrwt beam="2">  1       -4 0.13407878E+00 0.23199707E+03</pdfrwt>
<totfact> 0.34743759E+01</totfact>
</mgrwt>
</event>
<event>
 4    1  0.8653772E-009  0.1609963E+03  0.7818608E-02  0.1187576E+00
          4   -1    0    0  501    0  0.00000000000E+00  0.00000000000E+00  0.18419045056E+04  0.18419049435E+04  0.12700000000E+01 0.  1.
         -4   -1    0    0    0  501 -0.00000000000E+00 -0.00000000000E+00 -0.14043611878E+02  0.14100919636E+02  0.12700000000E+01 0.  1.
    8880022    1    1    2    0    0  0.13098888322E+02 -0.48544673366E+02  0.91895554532E+03  0.93295182805E+03  0.15294330000E+03 0.  1.
    8880022    1    1    2    0    0 -0.13098888322E+02  0.48544673366E+02  0.90890534844E+03  0.92305403506E+03  0.15294330000E+03 0.  1.
<mgrwt>
<rscale>  0 0.16099633E+03</rscale>
<asrwt>0</asrwt>
<pdfrwt beam="1">  1        4 0.28337427E+00 0.16099633E+03</pdfrwt>
<pdfrwt beam="2">  1       -4 0.21649984E-02 0.16099633E+03</pdfrwt>
<totfact> 0.72670337E+01</totfact>
</mgrwt>
</event>
<event>
 4    1  0.8653772E-009  0.1576236E+03  0.7818608E-02  0.1191406E+00
          4   -1    0    0  501    0  0.00000000000E+00  0.00000000000E+00  0.53862877929E+03  0.53863027651E+03  0.12700000000E+01 0. -1.
         -4   -1    0    0    0  501 -0.00000000000E+00 -0.00000000000E+00 -0.56598427355E+02  0.56612674191E+02  0.12700000000E+01 0. -1.
    8880022    1    1    2    0    0 -0.27657764725E+02  0.26241371127E+02  0.36907603375E+03  0.40132571960E+03  0.15294330000E+03 0.  1.
    8880022    1    1    2    0    0  0.27657764725E+02 -0.26241371127E+02  0.11295431818E+03  0.19391723110E+03  0.15294330000E+03 0.  1.
<mgrwt>
<rscale>  0 0.15762365E+03</rscale>
<asrwt>0</asrwt>
<pdfrwt beam="1">  1        4 0.82867178E-01 0.15762365E+03</pdfrwt>
<pdfrwt beam="2">  1       -4 0.87086614E-02 0.15762365E+03</pdfrwt>
<totfact> 0.21566574E+02</totfact>
</mgrwt>
</event>
<event>
 4    1  0.8653772E-009  0.2371128E+03  0.7818608E-02  0.1121731E+00
         -4   -1    0    0    0  501 -0.00000000000E+00  0.00000000000E+00  0.10670725805E+03  0.10671481537E+03  0.12700000000E+01 0.  1.
          4   -1    0    0  501    0  0.00000000000E+00 -0.00000000000E+00 -0.54092671696E+03  0.54092820783E+03  0.12700000000E+01 0.  1.
    8880022    1    1    2    0    0  0.12633233149E+03 -0.12988826258E+03 -0.26933216909E+03  0.35883462634E+03  0.15294330000E+03 0.  0.
    8880022    1    1    2    0    0 -0.12633233149E+03  0.12988826258E+03 -0.16488728982E+03  0.28880839686E+03  0.15294330000E+03 0.  0.
<mgrwt>
<rscale>  0 0.23711278E+03</rscale>
<asrwt>0</asrwt>
<pdfrwt beam="1">  1        4 0.83220189E-01 0.23711278E+03</pdfrwt>
<pdfrwt beam="2">  1       -4 0.16417198E-01 0.23711278E+03</pdfrwt>
<totfact> 0.75872532E+01</totfact>
</mgrwt>
</event>
<event>
 4    1  0.8653772E-009  0.4180007E+03  0.7818608E-02  0.1037719E+00
         -4   -1    0    0    0  501 -0.00000000000E+00  0.00000000000E+00  0.29764897043E+03  0.29765167981E+03  0.12700000000E+01 0. -1.
          4   -1    0    0  501    0  0.00000000000E+00 -0.00000000000E+00 -0.60746647069E+03  0.60746779825E+03  0.12700000000E+01 0. -1.
    8880022    1    1    2    0    0  0.38089096717E+03 -0.79088739649E+02 -0.23795745365E+03  0.48098686092E+03  0.15294330000E+03 0.  0.
    8880022    1    1    2    0    0 -0.38089096717E+03  0.79088739649E+02 -0.71860046604E+02  0.42413261714E+03  0.15294330000E+03 0.  0.
<mgrwt>
<rscale>  0 0.41800073E+03</rscale>
<asrwt>0</asrwt>
<pdfrwt beam="1">  1        4 0.93456691E-01 0.41800073E+03</pdfrwt>
<pdfrwt beam="2">  1       -4 0.45792460E-01 0.41800073E+03</pdfrwt>
<totfact> 0.86545095E+00</totfact>
</mgrwt>
</event>
<event>
 4    1  0.8653772E-009  0.1973228E+03  0.7818608E-02  0.1152018E+00
          4   -1    0    0  501    0  0.00000000000E+00  0.00000000000E+00  0.62107379029E+02  0.62120362442E+02  0.12700000000E+01 0.  1.
         -4   -1    0    0    0  501 -0.00000000000E+00 -0.00000000000E+00 -0.73848201267E+03  0.73848310471E+03  0.12700000000E+01 0.  1.
    8880022    1    1    2    0    0  0.48665609034E+02  0.11478802949E+03 -0.18254497254E+03  0.26881025507E+03  0.15294330000E+03 0.  0.
    8880022    1    1    2    0    0 -0.48665609034E+02 -0.11478802949E+03 -0.49382966111E+03  0.53179321208E+03  0.15294330000E+03 0.  0.
<mgrwt>
<rscale>  0 0.19732280E+03</rscale>
<asrwt>0</asrwt>
<pdfrwt beam="1">  1        4 0.95560647E-02 0.19732280E+03</pdfrwt>
<pdfrwt beam="2">  1       -4 0.11361369E+00 0.19732280E+03</pdfrwt>
<totfact> 0.91953247E+01</totfact>
</mgrwt>
</event>
<event>
 4    1  0.8653772E-009  0.1608688E+03  0.7818608E-02  0.1187719E+00
          4   -1    0    0  501    0  0.00000000000E+00  0.00000000000E+00  0.68011089317E+03  0.68011207893E+03  0.12700000000E+01 0.  1.
         -4   -1    0    0    0  501 -0.00000000000E+00 -0.00000000000E+00 -0.38160206301E+02  0.38181333724E+02  0.12700000000E+01 0.  1.
    8880022    1    1    2    0    0  0.36996889753E+02 -0.33441510917E+02  0.30073829590E+03  0.34106052269E+03  0.15294330000E+03 0.  0.
    8880022    1    1    2    0    0 -0.36996889753E+02  0.33441510917E+02  0.34121239097E+03  0.37723288996E+03  0.15294330000E+03 0.  0.
<mgrwt>
<rscale>  0 0.16086876E+03</rscale>
<asrwt>0</asrwt>
<pdfrwt beam="1">  1        4 0.10463416E+00 0.16086876E+03</pdfrwt>
<pdfrwt beam="2">  1       -4 0.58725175E-02 0.16086876E+03</pdfrwt>
<totfact> 0.24321352E+02</totfact>
</mgrwt>
</event>
<event>
 4    1  0.8653772E-009  0.1552236E+03  0.7818608E-02  0.1194197E+00
         -4   -1    0    0    0  501 -0.00000000000E+00  0.00000000000E+00  0.43630833917E+03  0.43631018751E+03  0.12700000000E+01 0.  1.
          4   -1    0    0  501    0  0.00000000000E+00 -0.00000000000E+00 -0.12730051725E+03  0.12730685211E+03  0.12700000000E+01 0.  1.
    8880022    1    1    2    0    0  0.26094215660E+02 -0.46701007125E+01  0.36655721981E+03  0.39806854477E+03  0.15294330000E+03 0.  0.
    8880022    1    1    2    0    0 -0.26094215660E+02  0.46701007125E+01 -0.57549397895E+02  0.16554849484E+03  0.15294330000E+03 0.  0.
<mgrwt>
<rscale>  0 0.15522362E+03</rscale>
<asrwt>0</asrwt>
<pdfrwt beam="1">  1        4 0.19585325E-01 0.15522362E+03</pdfrwt>
<pdfrwt beam="2">  1       -4 0.67124988E-01 0.15522362E+03</pdfrwt>
<totfact> 0.83902489E+01</totfact>
</mgrwt>
</event>
<event>
 4    1  0.8653772E-009  0.2524751E+03  0.7818608E-02  0.1111751E+00
         -4   -1    0    0    0  501 -0.00000000000E+00  0.00000000000E+00  0.17921645755E+03  0.17922095735E+03  0.12700000000E+01 0.  1.
          4   -1    0    0  501    0  0.00000000000E+00 -0.00000000000E+00 -0.68208624269E+03  0.68208742502E+03  0.12700000000E+01 0.  1.
    8880022    1    1    2    0    0 -0.70198943530E+02 -0.18821305306E+03  0.46480567288E+02  0.25671801878E+03  0.15294330000E+03 0.  0.
    8880022    1    1    2    0    0  0.70198943530E+02  0.18821305306E+03 -0.54935035243E+03  0.60459036359E+03  0.15294330000E+03 0.  0.
<mgrwt>
<rscale>  0 0.25247514E+03</rscale>
<asrwt>0</asrwt>
<pdfrwt beam="1">  1        4 0.10493678E+00 0.25247514E+03</pdfrwt>
<pdfrwt beam="2">  1       -4 0.27572200E-01 0.25247514E+03</pdfrwt>
<totfact> 0.17267514E+01</totfact>
</mgrwt>
</event>
<event>
 4    1  0.8653772E-009  0.2412162E+03  0.7818608E-02  0.1118985E+00
          4   -1    0    0  501    0  0.00000000000E+00  0.00000000000E+00  0.25293986995E+03  0.25294305824E+03  0.12700000000E+01 0.  1.
         -4   -1    0    0    0  501 -0.00000000000E+00 -0.00000000000E+00 -0.23141749597E+03  0.23142098077E+03  0.12700000000E+01 0.  1.
    8880022    1    1    2    0    0 -0.16446726486E+03  0.88000727865E+02  0.29516442554E+02  0.24301539604E+03  0.15294330000E+03 0.  0.
    8880022    1    1    2    0    0  0.16446726486E+03 -0.88000727865E+02 -0.79940685686E+01  0.24134864297E+03  0.15294330000E+03 0.  0.
<mgrwt>
<rscale>  0 0.24121621E+03</rscale>
<asrwt>0</asrwt>
<pdfrwt beam="1">  1        4 0.38914339E-01 0.24121621E+03</pdfrwt>
<pdfrwt beam="2">  1       -4 0.35603205E-01 0.24121621E+03</pdfrwt>
<totfact> 0.89354890E+01</totfact>
</mgrwt>
</event>
<event>
 4    1  0.8653772E-009  0.2052634E+03  0.7818608E-02  0.1145373E+00
          4   -1    0    0  501    0  0.00000000000E+00  0.00000000000E+00  0.33480127810E+03  0.33480368684E+03  0.12700000000E+01 0.  1.
         -4   -1    0    0    0  501 -0.00000000000E+00 -0.00000000000E+00 -0.12618355409E+03  0.12618994502E+03  0.12700000000E+01 0.  1.
    8880022    1    1    2    0    0  0.63989017961E+02 -0.12102397886E+03  0.92262705892E+02  0.22504545717E+03  0.15294330000E+03 0.  0.
    8880022    1    1    2    0    0 -0.63989017961E+02  0.12102397886E+03  0.11635501812E+03  0.23594817468E+03  0.15294330000E+03 0.  0.
<mgrwt>
<rscale>  0 0.20526337E+03</rscale>
<asrwt>0</asrwt>
<pdfrwt beam="1">  1        4 0.51508565E-01 0.20526337E+03</pdfrwt>
<pdfrwt beam="2">  1       -4 0.19413532E-01 0.20526337E+03</pdfrwt>
<totfact> 0.15499442E+02</totfact>
</mgrwt>
</event>
<event>
 4    1  0.8653772E-009  0.1945057E+03  0.7818608E-02  0.1154459E+00
         -4   -1    0    0    0  501 -0.00000000000E+00  0.00000000000E+00  0.17745570910E+03  0.17746025355E+03  0.12700000000E+01 0.  1.
          4   -1    0    0  501    0  0.00000000000E+00 -0.00000000000E+00 -0.22129524341E+03  0.22129888760E+03  0.12700000000E+01 0.  1.
    8880022    1    1    2    0    0 -0.54048558215E+02 -0.10732926076E+03 -0.60088812664E+02  0.20357587107E+03  0.15294330000E+03 0.  0.
    8880022    1    1    2    0    0  0.54048558215E+02  0.10732926076E+03  0.16249278357E+02  0.19518327009E+03  0.15294330000E+03 0.  0.
<mgrwt>
<rscale>  0 0.19450571E+03</rscale>
<asrwt>0</asrwt>
<pdfrwt beam="1">  1        4 0.34046052E-01 0.19450571E+03</pdfrwt>
<pdfrwt beam="2">  1       -4 0.27301508E-01 0.19450571E+03</pdfrwt>
<totfact> 0.18764743E+02</totfact>
</mgrwt>
</event>
<event>
 4    1  0.8653772E-009  0.1677928E+03  0.7818608E-02  0.1180169E+00
          4   -1    0    0  501    0  0.00000000000E+00  0.00000000000E+00  0.30213065765E+02  0.30239746079E+02  0.12700000000E+01 0.  1.
         -4   -1    0    0    0  501 -0.00000000000E+00 -0.00000000000E+00 -0.10815720874E+04  0.10815728330E+04  0.12700000000E+01 0.  1.
    8880022    1    1    2    0    0  0.50926175378E+02 -0.46575609686E+02 -0.73280255108E+03  0.75176724765E+03  0.15294330000E+03 0.  0.
    8880022    1    1    2    0    0 -0.50926175378E+02  0.46575609686E+02 -0.31855647055E+03  0.36004533146E+03  0.15294330000E+03 0.  0.
<mgrwt>
<rscale>  0 0.16779278E+03</rscale>
<asrwt>0</asrwt>
<pdfrwt beam="1">  1        4 0.46502745E-02 0.16779278E+03</pdfrwt>
<pdfrwt beam="2">  1       -4 0.16639779E+00 0.16779278E+03</pdfrwt>
<totfact> 0.11294652E+02</totfact>
</mgrwt>
</event>
<event>
 4    1  0.8653772E-009  0.1654056E+03  0.7818608E-02  0.1182726E+00
          4   -1    0    0  501    0  0.00000000000E+00  0.00000000000E+00  0.42659535219E+02  0.42678435364E+02  0.12700000000E+01 0. -1.
         -4   -1    0    0    0  501 -0.00000000000E+00 -0.00000000000E+00 -0.64300262619E+03  0.64300388038E+03  0.12700000000E+01 0. -1.
    8880022    1    1    2    0    0 -0.38132521866E+02  0.50132464943E+02 -0.31846264046E+03  0.35885576440E+03  0.15294330000E+03 0.  1.
    8880022    1    1    2    0    0  0.38132521866E+02 -0.50132464943E+02 -0.28188045052E+03  0.32682655134E+03  0.15294330000E+03 0.  1.
<mgrwt>
<rscale>  0 0.16540558E+03</rscale>
<asrwt>0</asrwt>
<pdfrwt beam="1">  1        4 0.65645562E-02 0.16540558E+03</pdfrwt>
<pdfrwt beam="2">  1       -4 0.98925025E-01 0.16540558E+03</pdfrwt>
<totfact> 0.23211648E+02</totfact>
</mgrwt>
</event>
<event>
 4    1  0.8653772E-009  0.1574348E+03  0.7818608E-02  0.1191624E+00
         -4   -1    0    0    0  501 -0.00000000000E+00  0.00000000000E+00  0.16638321411E+02  0.16686720450E+02  0.12700000000E+01 0.  1.
          4   -1    0    0  501    0  0.00000000000E+00 -0.00000000000E+00 -0.18859874002E+04  0.18859878278E+04  0.12700000000E+01 0.  1.
    8880022    1    1    2    0    0 -0.37288760425E+02  0.19006997883E+01 -0.13719813067E+04  0.13809845847E+04  0.15294330000E+03 0.  0.
    8880022    1    1    2    0    0  0.37288760425E+02 -0.19006997883E+01 -0.49736777214E+03  0.52168996358E+03  0.15294330000E+03 0.  0.
<mgrwt>
<rscale>  0 0.15743480E+03</rscale>
<asrwt>0</asrwt>
<pdfrwt beam="1">  1        4 0.29015549E+00 0.15743480E+03</pdfrwt>
<pdfrwt beam="2">  1       -4 0.25634991E-02 0.15743480E+03</pdfrwt>
<totfact> 0.50934335E+01</totfact>
</mgrwt>
</event>
<event>
 4    1  0.8653772E-009  0.7214162E+03  0.7818608E-02  0.9681293E-01
          4   -1    0    0  501    0  0.00000000000E+00  0.00000000000E+00  0.78929726212E+03  0.78929828385E+03  0.12700000000E+01 0.  1.
         -4   -1    0    0    0  501 -0.00000000000E+00 -0.00000000000E+00 -0.71282009883E+03  0.71282123018E+03  0.12700000000E+01 0.  1.
    8880022    1    1    2    0    0  0.60069880275E+03  0.36906720442E+03 -0.16742352466E+03  0.74058891609E+03  0.15294330000E+03 0.  0.
    8880022    1    1    2    0    0 -0.60069880275E+03 -0.36906720442E+03  0.24390068795E+03  0.76153059794E+03  0.15294330000E+03 0.  0.
<mgrwt>
<rscale>  0 0.72141618E+03</rscale>
<asrwt>0</asrwt>
<pdfrwt beam="1">  1        4 0.12143051E+00 0.72141618E+03</pdfrwt>
<pdfrwt beam="2">  1       -4 0.10966480E+00 0.72141618E+03</pdfrwt>
<totfact> 0.66327279E-01</totfact>
</mgrwt>
</event>
<event>
 4    1  0.8653772E-009  0.1941900E+03  0.7818608E-02  0.1154736E+00
         -4   -1    0    0    0  501 -0.00000000000E+00  0.00000000000E+00  0.48542855865E+03  0.48543021996E+03  0.12700000000E+01 0.  1.
          4   -1    0    0  501    0  0.00000000000E+00 -0.00000000000E+00 -0.12276462222E+03  0.12277119112E+03  0.12700000000E+01 0.  1.
    8880022    1    1    2    0    0  0.10534634343E+03 -0.56747258992E+02  0.36561876096E+03  0.41398893084E+03  0.15294330000E+03 0.  0.
    8880022    1    1    2    0    0 -0.10534634343E+03  0.56747258992E+02 -0.29548245365E+01  0.19421248024E+03  0.15294330000E+03 0.  0.
<mgrwt>
<rscale>  0 0.19419000E+03</rscale>
<asrwt>0</asrwt>
<pdfrwt beam="1">  1        4 0.18887498E-01 0.19419000E+03</pdfrwt>
<pdfrwt beam="2">  1       -4 0.74681949E-01 0.19419000E+03</pdfrwt>
<totfact> 0.73279337E+01</totfact>
</mgrwt>
</event>
<event>
 4    1  0.8653772E-009  0.2271351E+03  0.7818608E-02  0.1128673E+00
          4   -1    0    0  501    0  0.00000000000E+00  0.00000000000E+00  0.20151040767E+03  0.20151440965E+03  0.12700000000E+01 0.  1.
         -4   -1    0    0    0  501 -0.00000000000E+00 -0.00000000000E+00 -0.28072129356E+03  0.28072416632E+03  0.12700000000E+01 0.  1.
    8880022    1    1    2    0    0 -0.14595739172E+03  0.83037111181E+02 -0.11114298202E+03  0.25286980345E+03  0.15294330000E+03 0.  0.
    8880022    1    1    2    0    0  0.14595739172E+03 -0.83037111181E+02  0.31932096126E+02  0.22936877252E+03  0.15294330000E+03 0.  0.
<mgrwt>
<rscale>  0 0.22713515E+03</rscale>
<asrwt>0</asrwt>
<pdfrwt beam="1">  1        4 0.31002130E-01 0.22713515E+03</pdfrwt>
<pdfrwt beam="2">  1       -4 0.43188420E-01 0.22713515E+03</pdfrwt>
<totfact> 0.94172561E+01</totfact>
</mgrwt>
</event>
<event>
 4    1  0.8653772E-009  0.3613487E+03  0.7818608E-02  0.1058051E+00
         -4   -1    0    0    0  501 -0.00000000000E+00  0.00000000000E+00  0.20567674949E+03  0.20568067041E+03  0.12700000000E+01 0.  1.
          4   -1    0    0  501    0  0.00000000000E+00 -0.00000000000E+00 -0.80950598254E+03  0.80950697877E+03  0.12700000000E+01 0.  1.
    8880022    1    1    2    0    0 -0.25562198636E+02 -0.32638600581E+03 -0.53769940881E+03  0.64783760159E+03  0.15294330000E+03 0.  0.
    8880022    1    1    2    0    0  0.25562198636E+02  0.32638600581E+03 -0.66129824241E+02  0.36735004758E+03  0.15294330000E+03 0.  0.
<mgrwt>
<rscale>  0 0.36134873E+03</rscale>
<asrwt>0</asrwt>
<pdfrwt beam="1">  1        4 0.12453976E+00 0.36134873E+03</pdfrwt>
<pdfrwt beam="2">  1       -4 0.31642956E-01 0.36134873E+03</pdfrwt>
<totfact> 0.89852857E+00</totfact>
</mgrwt>
</event>
<event>
 4    1  0.8653772E-009  0.1565409E+03  0.7818608E-02  0.1192658E+00
          4   -1    0    0  501    0  0.00000000000E+00  0.00000000000E+00  0.67955978642E+02  0.67967844848E+02  0.12700000000E+01 0.  1.
         -4   -1    0    0    0  501 -0.00000000000E+00 -0.00000000000E+00 -0.72589480705E+03  0.72589591802E+03  0.12700000000E+01 0.  1.
    8880022    1    1    2    0    0  0.33236137424E+02  0.29571098211E+01 -0.47376136003E+02  0.16355285570E+03  0.15294330000E+03 0. -1.
    8880022    1    1    2    0    0 -0.33236137424E+02 -0.29571098211E+01 -0.61056269241E+03  0.63031090717E+03  0.15294330000E+03 0. -1.
<mgrwt>
<rscale>  0 0.15654085E+03</rscale>
<asrwt>0</asrwt>
<pdfrwt beam="1">  1        4 0.10455765E-01 0.15654085E+03</pdfrwt>
<pdfrwt beam="2">  1       -4 0.11167712E+00 0.15654085E+03</pdfrwt>
<totfact> 0.79682153E+01</totfact>
</mgrwt>
</event>
<event>
 4    1  0.8653772E-009  0.4175740E+03  0.7818608E-02  0.1037859E+00
         -4   -1    0    0    0  501 -0.00000000000E+00  0.00000000000E+00  0.77224978772E+02  0.77235420931E+02  0.12700000000E+01 0.  1.
          4   -1    0    0  501    0  0.00000000000E+00 -0.00000000000E+00 -0.23229205852E+04  0.23229209324E+04  0.12700000000E+01 0.  1.
    8880022    1    1    2    0    0 -0.26823163670E+03 -0.28111955006E+03 -0.92185324205E+03  0.10120185103E+04  0.15294330000E+03 0.  0.
    8880022    1    1    2    0    0  0.26823163670E+03  0.28111955006E+03 -0.13238423644E+04  0.13881378430E+04  0.15294330000E+03 0.  0.
<mgrwt>
<rscale>  0 0.41757402E+03</rscale>
<asrwt>0</asrwt>
<pdfrwt beam="1">  1        4 0.35737317E+00 0.41757402E+03</pdfrwt>
<pdfrwt beam="2">  1       -4 0.11881598E-01 0.41757402E+03</pdfrwt>
<totfact> 0.16564677E+00</totfact>
</mgrwt>
</event>
<event>
 4    1  0.8653772E-009  0.1636453E+03  0.7818608E-02  0.1184642E+00
         -4   -1    0    0    0  501 -0.00000000000E+00  0.00000000000E+00  0.12141561293E+04  0.12141567935E+04  0.12700000000E+01 0. -1.
          4   -1    0    0  501    0  0.00000000000E+00 -0.00000000000E+00 -0.24144881732E+02  0.24178259115E+02  0.12700000000E+01 0. -1.
    8880022    1    1    2    0    0  0.36600045322E+02 -0.45260994113E+02  0.41221066726E+03  0.44350581521E+03  0.15294330000E+03 0.  0.
    8880022    1    1    2    0    0 -0.36600045322E+02  0.45260994113E+02  0.77780058035E+03  0.79482923745E+03  0.15294330000E+03 0.  0.
<mgrwt>
<rscale>  0 0.16364527E+03</rscale>
<asrwt>0</asrwt>
<pdfrwt beam="1">  1        4 0.37172160E-02 0.16364527E+03</pdfrwt>
<pdfrwt beam="2">  1       -4 0.18679586E+00 0.16364527E+03</pdfrwt>
<totfact> 0.11756883E+02</totfact>
</mgrwt>
</event>
<event>
 4    1  0.8653772E-009  0.2678623E+03  0.7818608E-02  0.1102509E+00
         -4   -1    0    0    0  501 -0.00000000000E+00  0.00000000000E+00  0.13836307848E+04  0.13836313676E+04  0.12700000000E+01 0.  1.
          4   -1    0    0  501    0  0.00000000000E+00 -0.00000000000E+00 -0.63015510226E+02  0.63028306570E+02  0.12700000000E+01 0.  1.
    8880022    1    1    2    0    0 -0.11920823400E+03  0.18479159502E+03  0.96477328264E+03  0.10012680343E+04  0.15294330000E+03 0.  0.
    8880022    1    1    2    0    0  0.11920823400E+03 -0.18479159502E+03  0.35584199189E+03  0.44539163985E+03  0.15294330000E+03 0.  0.
<mgrwt>
<rscale>  0 0.26786226E+03</rscale>
<asrwt>0</asrwt>
<pdfrwt beam="1">  1        4 0.96957226E-02 0.26786226E+03</pdfrwt>
<pdfrwt beam="2">  1       -4 0.21286731E+00 0.26786226E+03</pdfrwt>
<totfact> 0.17512120E+01</totfact>
</mgrwt>
</event>
<event>
 4    1  0.8653772E-009  0.1879395E+03  0.7818608E-02  0.1160333E+00
         -4   -1    0    0    0  501 -0.00000000000E+00  0.00000000000E+00  0.32477638454E+03  0.32477886762E+03  0.12700000000E+01 0.  1.
          4   -1    0    0  501    0  0.00000000000E+00 -0.00000000000E+00 -0.15959225184E+03  0.15959730495E+03  0.12700000000E+01 0.  1.
    8880022    1    1    2    0    0 -0.32113890729E+02 -0.10439501286E+03 -0.54102545693E+02  0.19557187721E+03  0.15294330000E+03 0.  0.
    8880022    1    1    2    0    0  0.32113890729E+02  0.10439501286E+03  0.21928667839E+03  0.28880429537E+03  0.15294330000E+03 0.  0.
<mgrwt>
<rscale>  0 0.18793955E+03</rscale>
<asrwt>0</asrwt>
<pdfrwt beam="1">  1        4 0.24553234E-01 0.18793955E+03</pdfrwt>
<pdfrwt beam="2">  1       -4 0.49966177E-01 0.18793955E+03</pdfrwt>
<totfact> 0.10601329E+02</totfact>
</mgrwt>
</event>
<event>
 4    1  0.8653772E-009  0.2110333E+03  0.7818608E-02  0.1140750E+00
         -4   -1    0    0    0  501 -0.00000000000E+00  0.00000000000E+00  0.48163039691E+02  0.48179780949E+02  0.12700000000E+01 0.  1.
          4   -1    0    0  501    0  0.00000000000E+00 -0.00000000000E+00 -0.13681486278E+04  0.13681492172E+04  0.12700000000E+01 0.  1.
    8880022    1    1    2    0    0 -0.13922153826E+03  0.41961502372E+02 -0.25673131625E+03  0.33233420853E+03  0.15294330000E+03 0.  0.
    8880022    1    1    2    0    0  0.13922153826E+03 -0.41961502372E+02 -0.10632542719E+04  0.10839947897E+04  0.15294330000E+03 0.  0.
<mgrwt>
<rscale>  0 0.21103331E+03</rscale>
<asrwt>0</asrwt>
<pdfrwt beam="1">  1        4 0.21048571E+00 0.21103331E+03</pdfrwt>
<pdfrwt beam="2">  1       -4 0.74110326E-02 0.21103331E+03</pdfrwt>
<totfact> 0.27960168E+01</totfact>
</mgrwt>
</event>
<event>
 4    1  0.8653772E-009  0.2643617E+03  0.7818608E-02  0.1104551E+00
          4   -1    0    0  501    0  0.00000000000E+00  0.00000000000E+00  0.82329270004E+03  0.82329367958E+03  0.12700000000E+01 0.  1.
         -4   -1    0    0    0  501 -0.00000000000E+00 -0.00000000000E+00 -0.84999049426E+02  0.85008536650E+02  0.12700000000E+01 0.  1.
    8880022    1    1    2    0    0  0.21226189022E+03 -0.37952146512E+02  0.38603037837E+03  0.46787453607E+03  0.15294330000E+03 0.  0.
    8880022    1    1    2    0    0 -0.21226189022E+03  0.37952146512E+02  0.35226327224E+03  0.44042768016E+03  0.15294330000E+03 0.  0.
<mgrwt>
<rscale>  0 0.26436174E+03</rscale>
<asrwt>0</asrwt>
<pdfrwt beam="1">  1        4 0.12666122E+00 0.26436174E+03</pdfrwt>
<pdfrwt beam="2">  1       -4 0.13077582E-01 0.26436174E+03</pdfrwt>
<totfact> 0.42559545E+01</totfact>
</mgrwt>
</event>
<event>
 4    1  0.8653772E-009  0.2788545E+03  0.7818608E-02  0.1096316E+00
          4   -1    0    0  501    0  0.00000000000E+00  0.00000000000E+00  0.18777882404E+03  0.18778311868E+03  0.12700000000E+01 0. -1.
         -4   -1    0    0    0  501 -0.00000000000E+00 -0.00000000000E+00 -0.10194169041E+04  0.10194176952E+04  0.12700000000E+01 0. -1.
    8880022    1    1    2    0    0  0.23225255118E+03 -0.20661689371E+02 -0.88094036896E+03  0.92402150387E+03  0.15294330000E+03 0.  0.
    8880022    1    1    2    0    0 -0.23225255118E+03  0.20661689371E+02  0.49302288852E+02  0.28317931005E+03  0.15294330000E+03 0.  0.
<mgrwt>
<rscale>  0 0.27885445E+03</rscale>
<asrwt>0</asrwt>
<pdfrwt beam="1">  1        4 0.28889442E-01 0.27885445E+03</pdfrwt>
<pdfrwt beam="2">  1       -4 0.15683376E+00 0.27885445E+03</pdfrwt>
<totfact> 0.58499595E+00</totfact>
</mgrwt>
</event>
<event>
 4    1  0.8653772E-009  0.2335979E+03  0.7818608E-02  0.1124133E+00
          4   -1    0    0  501    0  0.00000000000E+00  0.00000000000E+00  0.39190852057E+03  0.39191057831E+03  0.12700000000E+01 0. -1.
         -4   -1    0    0    0  501 -0.00000000000E+00 -0.00000000000E+00 -0.13995292257E+03  0.13995868474E+03  0.12700000000E+01 0. -1.
    8880022    1    1    2    0    0  0.98839866602E+02  0.14631140242E+03  0.10688185151E+03  0.25688855347E+03  0.15294330000E+03 0.  0.
    8880022    1    1    2    0    0 -0.98839866602E+02 -0.14631140242E+03  0.14507374649E+03  0.27498070959E+03  0.15294330000E+03 0.  0.
<mgrwt>
<rscale>  0 0.23359794E+03</rscale>
<asrwt>0</asrwt>
<pdfrwt beam="1">  1        4 0.60294221E-01 0.23359794E+03</pdfrwt>
<pdfrwt beam="2">  1       -4 0.21531820E-01 0.23359794E+03</pdfrwt>
<totfact> 0.93916344E+01</totfact>
</mgrwt>
</event>
<event>
 4    1  0.8653772E-009  0.2105572E+03  0.7818608E-02  0.1141126E+00
         -4   -1    0    0    0  501 -0.00000000000E+00  0.00000000000E+00  0.14263915647E+03  0.14264481013E+03  0.12700000000E+01 0. -1.
          4   -1    0    0  501    0  0.00000000000E+00 -0.00000000000E+00 -0.32760287155E+03  0.32760533321E+03  0.12700000000E+01 0. -1.
    8880022    1    1    2    0    0 -0.13379404353E+03 -0.55152668203E+02 -0.39235038939E+02  0.21418147490E+03  0.15294330000E+03 0.  0.
    8880022    1    1    2    0    0  0.13379404353E+03  0.55152668203E+02 -0.14572867615E+03  0.25606866845E+03  0.15294330000E+03 0.  0.
<mgrwt>
<rscale>  0 0.21055716E+03</rscale>
<asrwt>0</asrwt>
<pdfrwt beam="1">  1        4 0.50401066E-01 0.21055716E+03</pdfrwt>
<pdfrwt beam="2">  1       -4 0.21945110E-01 0.21055716E+03</pdfrwt>
<totfact> 0.13012616E+02</totfact>
</mgrwt>
</event>
<event>
 4    1  0.8653772E-009  0.4170420E+03  0.7818608E-02  0.1038033E+00
          4   -1    0    0  501    0  0.00000000000E+00  0.00000000000E+00  0.16968833197E+03  0.16969308444E+03  0.12700000000E+01 0.  1.
         -4   -1    0    0    0  501 -0.00000000000E+00 -0.00000000000E+00 -0.19894101080E+04  0.19894105133E+04  0.12700000000E+01 0.  1.
    8880022    1    1    2    0    0 -0.38610893664E+03 -0.38108943293E+02 -0.15819539580E+03  0.44603793424E+03  0.15294330000E+03 0.  0.
    8880022    1    1    2    0    0  0.38610893664E+03  0.38108943293E+02 -0.16615263802E+04  0.17130656635E+04  0.15294330000E+03 0.  0.
<mgrwt>
<rscale>  0 0.41704203E+03</rscale>
<asrwt>0</asrwt>
<pdfrwt beam="1">  1        4 0.26106295E-01 0.41704203E+03</pdfrwt>
<pdfrwt beam="2">  1       -4 0.30606347E+00 0.41704203E+03</pdfrwt>
<totfact> 0.82520722E-01</totfact>
</mgrwt>
</event>
<event>
 4    1  0.8653772E-009  0.2222190E+03  0.7818608E-02  0.1132239E+00
          4   -1    0    0  501    0  0.00000000000E+00  0.00000000000E+00  0.89467073728E+03  0.89467163867E+03  0.12700000000E+01 0. -1.
         -4   -1    0    0    0  501 -0.00000000000E+00 -0.00000000000E+00 -0.18954860015E+03  0.18955285469E+03  0.12700000000E+01 0. -1.
    8880022    1    1    2    0    0  0.92151081585E+02 -0.13227936516E+03 -0.10384891465E+03  0.24528738731E+03  0.15294330000E+03 0.  0.
    8880022    1    1    2    0    0 -0.92151081585E+02  0.13227936516E+03  0.80897105177E+03  0.83893710605E+03  0.15294330000E+03 0.  0.
<mgrwt>
<rscale>  0 0.22221905E+03</rscale>
<asrwt>0</asrwt>
<pdfrwt beam="1">  1        4 0.13764205E+00 0.22221905E+03</pdfrwt>
<pdfrwt beam="2">  1       -4 0.29161720E-01 0.22221905E+03</pdfrwt>
<totfact> 0.79285054E+00</totfact>
</mgrwt>
</event>
<event>
 4    1  0.8653772E-009  0.1944565E+03  0.7818608E-02  0.1154502E+00
         -4   -1    0    0    0  501 -0.00000000000E+00  0.00000000000E+00  0.11463072940E+04  0.11463079975E+04  0.12700000000E+01 0.  1.
          4   -1    0    0  501    0  0.00000000000E+00 -0.00000000000E+00 -0.46193553184E+02  0.46211007950E+02  0.12700000000E+01 0.  1.
    8880022    1    1    2    0    0 -0.93373150449E+02  0.75519184842E+02  0.23116115117E+03  0.30207420170E+03  0.15294330000E+03 0.  0.
    8880022    1    1    2    0    0  0.93373150449E+02 -0.75519184842E+02  0.86895258959E+03  0.89044480372E+03  0.15294330000E+03 0.  0.
<mgrwt>
<rscale>  0 0.19445654E+03</rscale>
<asrwt>0</asrwt>
<pdfrwt beam="1">  1        4 0.71080973E-02 0.19445654E+03</pdfrwt>
<pdfrwt beam="2">  1       -4 0.17635636E+00 0.19445654E+03</pdfrwt>
<totfact> 0.49238948E+01</totfact>
</mgrwt>
</event>
<event>
 4    1  0.8653772E-009  0.1663289E+03  0.7818608E-02  0.1181731E+00
         -4   -1    0    0    0  501 -0.00000000000E+00  0.00000000000E+00  0.13458488133E+03  0.13459087333E+03  0.12700000000E+01 0. -1.
          4   -1    0    0  501    0  0.00000000000E+00 -0.00000000000E+00 -0.22517508240E+03  0.22517866381E+03  0.12700000000E+01 0. -1.
    8880022    1    1    2    0    0  0.56968160824E+02 -0.32066572668E+02 -0.98402717723E+02  0.19325730077E+03  0.15294330000E+03 0. -1.
    8880022    1    1    2    0    0 -0.56968160824E+02  0.32066572668E+02  0.78125166514E+01  0.16651223637E+03  0.15294330000E+03 0. -1.
<mgrwt>
<rscale>  0 0.16632886E+03</rscale>
<asrwt>0</asrwt>
<pdfrwt beam="1">  1        4 0.34643057E-01 0.16632886E+03</pdfrwt>
<pdfrwt beam="2">  1       -4 0.20706103E-01 0.16632886E+03</pdfrwt>
<totfact> 0.29482572E+02</totfact>
</mgrwt>
</event>
<event>
 4    1  0.8653772E-009  0.1549493E+03  0.7818608E-02  0.1194520E+00
          4   -1    0    0  501    0  0.00000000000E+00  0.00000000000E+00  0.49317962136E+02  0.49334311480E+02  0.12700000000E+01 0. -1.
         -4   -1    0    0    0  501 -0.00000000000E+00 -0.00000000000E+00 -0.68942943373E+03  0.68943060346E+03  0.12700000000E+01 0. -1.
    8880022    1    1    2    0    0  0.16824467893E+02 -0.18290966058E+02 -0.11976824516E+03  0.19584102666E+03  0.15294330000E+03 0.  1.
    8880022    1    1    2    0    0 -0.16824467893E+02  0.18290966058E+02 -0.52034322643E+03  0.54292388829E+03  0.15294330000E+03 0.  1.
<mgrwt>
<rscale>  0 0.15494927E+03</rscale>
<asrwt>0</asrwt>
<pdfrwt beam="1">  1        4 0.75887269E-02 0.15494927E+03</pdfrwt>
<pdfrwt beam="2">  1       -4 0.10606741E+00 0.15494927E+03</pdfrwt>
<totfact> 0.15368881E+02</totfact>
</mgrwt>
</event>
<event>
 4    1  0.8653772E-009  0.1977468E+03  0.7818608E-02  0.1151654E+00
         -4   -1    0    0    0  501 -0.00000000000E+00  0.00000000000E+00  0.92635113595E+02  0.92643818848E+02  0.12700000000E+01 0.  1.
          4   -1    0    0  501    0  0.00000000000E+00 -0.00000000000E+00 -0.47386472954E+03  0.47386643140E+03  0.12700000000E+01 0.  1.
    8880022    1    1    2    0    0 -0.95439829275E+02 -0.81261200787E+02 -0.96993961874E+02  0.22025354803E+03  0.15294330000E+03 0.  0.
    8880022    1    1    2    0    0  0.95439829275E+02  0.81261200787E+02 -0.28423565407E+03  0.34625670221E+03  0.15294330000E+03 0.  0.
<mgrwt>
<rscale>  0 0.19774680E+03</rscale>
<asrwt>0</asrwt>
<pdfrwt beam="1">  1        4 0.72903065E-01 0.19774680E+03</pdfrwt>
<pdfrwt beam="2">  1       -4 0.14252357E-01 0.19774680E+03</pdfrwt>
<totfact> 0.12766304E+02</totfact>
</mgrwt>
</event>
<event>
 4    1  0.8653772E-009  0.2648064E+03  0.7818608E-02  0.1104289E+00
         -4   -1    0    0    0  501 -0.00000000000E+00  0.00000000000E+00  0.95161322672E+03  0.95161407418E+03  0.12700000000E+01 0.  1.
          4   -1    0    0  501    0  0.00000000000E+00 -0.00000000000E+00 -0.10151679396E+03  0.10152473766E+03  0.12700000000E+01 0.  1.
    8880022    1    1    2    0    0 -0.19801472524E+03  0.86723322948E+02  0.70076415916E+03  0.74912804375E+03  0.15294330000E+03 0.  0.
    8880022    1    1    2    0    0  0.19801472524E+03 -0.86723322948E+02  0.14933227360E+03  0.30401076808E+03  0.15294330000E+03 0.  0.
<mgrwt>
<rscale>  0 0.26480638E+03</rscale>
<asrwt>0</asrwt>
<pdfrwt beam="1">  1        4 0.15618645E-01 0.26480638E+03</pdfrwt>
<pdfrwt beam="2">  1       -4 0.14640270E+00 0.26480638E+03</pdfrwt>
<totfact> 0.21596023E+01</totfact>
</mgrwt>
</event>
<event>
 4    1  0.8653772E-009  0.2356052E+03  0.7818608E-02  0.1122756E+00
          4   -1    0    0  501    0  0.00000000000E+00  0.00000000000E+00  0.53013934140E+03  0.53014086260E+03  0.12700000000E+01 0.  1.
         -4   -1    0    0    0  501 -0.00000000000E+00 -0.00000000000E+00 -0.24968989861E+03  0.24969312840E+03  0.12700000000E+01 0.  1.
    8880022    1    1    2    0    0 -0.82914819146E+02 -0.15888140417E+03 -0.15689452942E+03  0.28306485865E+03  0.15294330000E+03 0.  0.
    8880022    1    1    2    0    0  0.82914819146E+02  0.15888140417E+03  0.43734397220E+03  0.49676913235E+03  0.15294330000E+03 0.  0.
<mgrwt>
<rscale>  0 0.23560522E+03</rscale>
<asrwt>0</asrwt>
<pdfrwt beam="1">  1        4 0.81560264E-01 0.23560522E+03</pdfrwt>
<pdfrwt beam="2">  1       -4 0.38414196E-01 0.23560522E+03</pdfrwt>
<totfact> 0.16160687E+01</totfact>
</mgrwt>
</event>
<event>
 4    1  0.8653772E-009  0.3066826E+03  0.7818608E-02  0.1081947E+00
          4   -1    0    0  501    0  0.00000000000E+00  0.00000000000E+00  0.33194201342E+03  0.33194444290E+03  0.12700000000E+01 0. -1.
         -4   -1    0    0    0  501 -0.00000000000E+00 -0.00000000000E+00 -0.45558166041E+03  0.45558343056E+03  0.12700000000E+01 0. -1.
    8880022    1    1    2    0    0  0.26415231190E+03  0.29767786711E+02  0.18029373730E+03  0.35575279300E+03  0.15294330000E+03 0.  0.
    8880022    1    1    2    0    0 -0.26415231190E+03 -0.29767786711E+02 -0.30393338429E+03  0.43177508046E+03  0.15294330000E+03 0.  0.
<mgrwt>
<rscale>  0 0.30668260E+03</rscale>
<asrwt>0</asrwt>
<pdfrwt beam="1">  1        4 0.51068325E-01 0.30668260E+03</pdfrwt>
<pdfrwt beam="2">  1       -4 0.70089809E-01 0.30668260E+03</pdfrwt>
<totfact> 0.12983003E+01</totfact>
</mgrwt>
</event>
<event>
 4    1  0.8653772E-009  0.1777423E+03  0.7818608E-02  0.1170006E+00
         -4   -1    0    0    0  501 -0.00000000000E+00  0.00000000000E+00  0.16490838396E+03  0.16491327417E+03  0.12700000000E+01 0.  1.
          4   -1    0    0  501    0  0.00000000000E+00 -0.00000000000E+00 -0.27940020245E+03  0.27940308880E+03  0.12700000000E+01 0.  1.
    8880022    1    1    2    0    0 -0.66593703244E+02  0.61367220565E+02  0.67313487342E+02  0.19006161018E+03  0.15294330000E+03 0. -1.
    8880022    1    1    2    0    0  0.66593703244E+02 -0.61367220565E+02 -0.18180530584E+03  0.25425475279E+03  0.15294330000E+03 0. -1.
<mgrwt>
<rscale>  0 0.17774226E+03</rscale>
<asrwt>0</asrwt>
<pdfrwt beam="1">  1        4 0.42985245E-01 0.17774226E+03</pdfrwt>
<pdfrwt beam="2">  1       -4 0.25371119E-01 0.17774226E+03</pdfrwt>
<totfact> 0.13419706E+02</totfact>
</mgrwt>
</event>
<event>
 4    1  0.8653772E-009  0.1712149E+03  0.7818608E-02  0.1176587E+00
         -4   -1    0    0    0  501 -0.00000000000E+00  0.00000000000E+00  0.13859810791E+03  0.13860392641E+03  0.12700000000E+01 0. -1.
          4   -1    0    0  501    0  0.00000000000E+00 -0.00000000000E+00 -0.21161571562E+03  0.21161952650E+03  0.12700000000E+01 0. -1.
    8880022    1    1    2    0    0  0.61606511392E+02  0.46125060807E+02 -0.40685622561E+02  0.17598254566E+03  0.15294330000E+03 0.  0.
    8880022    1    1    2    0    0 -0.61606511392E+02 -0.46125060807E+02 -0.32331985147E+02  0.17424090725E+03  0.15294330000E+03 0.  0.
<mgrwt>
<rscale>  0 0.17121488E+03</rscale>
<asrwt>0</asrwt>
<pdfrwt beam="1">  1        4 0.32557005E-01 0.17121488E+03</pdfrwt>
<pdfrwt beam="2">  1       -4 0.21323527E-01 0.17121488E+03</pdfrwt>
<totfact> 0.31656189E+02</totfact>
</mgrwt>
</event>
<event>
 4    1  0.8653772E-009  0.2172489E+03  0.7818608E-02  0.1135951E+00
         -4   -1    0    0    0  501 -0.00000000000E+00  0.00000000000E+00  0.34914416303E+03  0.34914647281E+03  0.12700000000E+01 0.  1.
          4   -1    0    0  501    0  0.00000000000E+00 -0.00000000000E+00 -0.18854157418E+03  0.18854585144E+03  0.12700000000E+01 0.  1.
    8880022    1    1    2    0    0  0.11754858897E+03 -0.99938678246E+02 -0.62730386744E+02  0.22612422386E+03  0.15294330000E+03 0.  1.
    8880022    1    1    2    0    0 -0.11754858897E+03  0.99938678246E+02  0.22333297560E+03  0.31156810039E+03  0.15294330000E+03 0.  1.
<mgrwt>
<rscale>  0 0.21724885E+03</rscale>
<asrwt>0</asrwt>
<pdfrwt beam="1">  1        4 0.29006903E-01 0.21724885E+03</pdfrwt>
<pdfrwt beam="2">  1       -4 0.53714993E-01 0.21724885E+03</pdfrwt>
<totfact> 0.68053182E+01</totfact>
</mgrwt>
</event>
<event>
 4    1  0.8653772E-009  0.1852550E+03  0.7818608E-02  0.1162812E+00
         -4   -1    0    0    0  501 -0.00000000000E+00  0.00000000000E+00  0.18341670454E+03  0.18342110131E+03  0.12700000000E+01 0.  1.
          4   -1    0    0  501    0  0.00000000000E+00 -0.00000000000E+00 -0.22541018227E+03  0.22541375994E+03  0.12700000000E+01 0.  1.
    8880022    1    1    2    0    0  0.10341164026E+03  0.15289978801E+02  0.63271515898E+02  0.19576181582E+03  0.15294330000E+03 0.  0.
    8880022    1    1    2    0    0 -0.10341164026E+03 -0.15289978801E+02 -0.10526499363E+03  0.21307304543E+03  0.15294330000E+03 0.  0.
<mgrwt>
<rscale>  0 0.18525497E+03</rscale>
<asrwt>0</asrwt>
<pdfrwt beam="1">  1        4 0.34679103E-01 0.18525497E+03</pdfrwt>
<pdfrwt beam="2">  1       -4 0.28218568E-01 0.18525497E+03</pdfrwt>
<totfact> 0.16888242E+02</totfact>
</mgrwt>
</event>
<event>
 4    1  0.8653772E-009  0.2984442E+03  0.7818608E-02  0.1086021E+00
         -4   -1    0    0    0  501 -0.00000000000E+00  0.00000000000E+00  0.27022109775E+03  0.27022408214E+03  0.12700000000E+01 0.  1.
          4   -1    0    0  501    0  0.00000000000E+00 -0.00000000000E+00 -0.41717824740E+03  0.41718018050E+03  0.12700000000E+01 0.  1.
    8880022    1    1    2    0    0 -0.58553106741E+02  0.24949715880E+03  0.83990167145E+02  0.31003757796E+03  0.15294330000E+03 0.  0.
    8880022    1    1    2    0    0  0.58553106741E+02 -0.24949715880E+03 -0.23094731679E+03  0.37736668468E+03  0.15294330000E+03 0.  0.
<mgrwt>
<rscale>  0 0.29844422E+03</rscale>
<asrwt>0</asrwt>
<pdfrwt beam="1">  1        4 0.64181647E-01 0.29844422E+03</pdfrwt>
<pdfrwt beam="2">  1       -4 0.41572855E-01 0.29844422E+03</pdfrwt>
<totfact> 0.23888248E+01</totfact>
</mgrwt>
</event>
<event>
 4    1  0.8653772E-009  0.4551056E+03  0.7818608E-02  0.1026210E+00
          4   -1    0    0  501    0  0.00000000000E+00  0.00000000000E+00  0.49827348981E+03  0.49827510830E+03  0.12700000000E+01 0.  1.
         -4   -1    0    0    0  501 -0.00000000000E+00 -0.00000000000E+00 -0.42718868002E+03  0.42719056782E+03  0.12700000000E+01 0.  1.
    8880022    1    1    2    0    0  0.35458208608E+03  0.24083390705E+03  0.11151205014E+03  0.46856804937E+03  0.15294330000E+03 0.  0.
    8880022    1    1    2    0    0 -0.35458208608E+03 -0.24083390705E+03 -0.40427240346E+02  0.45689762675E+03  0.15294330000E+03 0.  0.
<mgrwt>
<rscale>  0 0.45510557E+03</rscale>
<asrwt>0</asrwt>
<pdfrwt beam="1">  1        4 0.76657729E-01 0.45510557E+03</pdfrwt>
<pdfrwt beam="2">  1       -4 0.65721605E-01 0.45510557E+03</pdfrwt>
<totfact> 0.63680617E+00</totfact>
</mgrwt>
</event>
<event>
 4    1  0.8653772E-009  0.2022425E+03  0.7818608E-02  0.1147861E+00
         -4   -1    0    0    0  501 -0.00000000000E+00  0.00000000000E+00  0.33930227023E+03  0.33930464701E+03  0.12700000000E+01 0. -1.
          4   -1    0    0  501    0  0.00000000000E+00 -0.00000000000E+00 -0.25079071684E+03  0.25079393245E+03  0.12700000000E+01 0. -1.
    8880022    1    1    2    0    0 -0.55174759995E+01 -0.13221172456E+03  0.25688371227E+03  0.32694231494E+03  0.15294330000E+03 0.  0.
    8880022    1    1    2    0    0  0.55174759995E+01  0.13221172456E+03 -0.16837215889E+03  0.26315626452E+03  0.15294330000E+03 0.  0.
<mgrwt>
<rscale>  0 0.20224252E+03</rscale>
<asrwt>0</asrwt>
<pdfrwt beam="1">  1        4 0.38583617E-01 0.20224252E+03</pdfrwt>
<pdfrwt beam="2">  1       -4 0.52200779E-01 0.20224252E+03</pdfrwt>
<totfact> 0.41220596E+01</totfact>
</mgrwt>
</event>
<event>
 4    1  0.8653772E-009  0.1532607E+03  0.7818608E-02  0.1196523E+00
          4   -1    0    0  501    0  0.00000000000E+00  0.00000000000E+00  0.30336024446E+03  0.30336290284E+03  0.12700000000E+01 0. -1.
         -4   -1    0    0    0  501 -0.00000000000E+00 -0.00000000000E+00 -0.86215254152E+02  0.86224607558E+02  0.12700000000E+01 0. -1.
    8880022    1    1    2    0    0  0.85194061412E+01  0.49609434251E+01  0.46362680911E+02  0.16011977528E+03  0.15294330000E+03 0.  0.
    8880022    1    1    2    0    0 -0.85194061412E+01 -0.49609434251E+01  0.17078230940E+03  0.22946773512E+03  0.15294330000E+03 0.  0.
<mgrwt>
<rscale>  0 0.15326071E+03</rscale>
<asrwt>0</asrwt>
<pdfrwt beam="1">  1        4 0.46671731E-01 0.15326071E+03</pdfrwt>
<pdfrwt beam="2">  1       -4 0.13264809E-01 0.15326071E+03</pdfrwt>
<totfact> 0.35473610E+02</totfact>
</mgrwt>
</event>
<event>
 4    1  0.8653772E-009  0.1891212E+03  0.7818608E-02  0.1159256E+00
         -4   -1    0    0    0  501 -0.00000000000E+00  0.00000000000E+00  0.33755021541E+03  0.33755260452E+03  0.12700000000E+01 0. -1.
          4   -1    0    0  501    0  0.00000000000E+00 -0.00000000000E+00 -0.11802687905E+03  0.11803371162E+03  0.12700000000E+01 0. -1.
    8880022    1    1    2    0    0  0.89928275284E+02 -0.65483577851E+02  0.36908771332E+02  0.19268913846E+03  0.15294330000E+03 0.  0.
    8880022    1    1    2    0    0 -0.89928275284E+02  0.65483577851E+02  0.18261456502E+03  0.26289717769E+03  0.15294330000E+03 0.  0.
<mgrwt>
<rscale>  0 0.18912125E+03</rscale>
<asrwt>0</asrwt>
<pdfrwt beam="1">  1        4 0.18158691E-01 0.18912125E+03</pdfrwt>
<pdfrwt beam="2">  1       -4 0.51931511E-01 0.18912125E+03</pdfrwt>
<totfact> 0.16986008E+02</totfact>
</mgrwt>
</event>
<event>
 4    1  0.8653772E-009  0.1538516E+03  0.7818608E-02  0.1195818E+00
         -4   -1    0    0    0  501 -0.00000000000E+00  0.00000000000E+00  0.37808990785E+03  0.37809204081E+03  0.12700000000E+01 0. -1.
          4   -1    0    0  501    0  0.00000000000E+00 -0.00000000000E+00 -0.69958493517E+02  0.69970020117E+02  0.12700000000E+01 0. -1.
    8880022    1    1    2    0    0  0.10730823189E+02  0.12787403140E+02  0.22673456910E+03  0.27400526653E+03  0.15294330000E+03 0.  1.
    8880022    1    1    2    0    0 -0.10730823189E+02 -0.12787403140E+02  0.81396845235E+02  0.17405679439E+03  0.15294330000E+03 0.  1.
<mgrwt>
<rscale>  0 0.15385162E+03</rscale>
<asrwt>0</asrwt>
<pdfrwt beam="1">  1        4 0.10763896E-01 0.15385162E+03</pdfrwt>
<pdfrwt beam="2">  1       -4 0.58168729E-01 0.15385162E+03</pdfrwt>
<totfact> 0.32291988E+02</totfact>
</mgrwt>
</event>
<event>
 4    1  0.8653772E-009  0.2075071E+03  0.7818608E-02  0.1143555E+00
          4   -1    0    0  501    0  0.00000000000E+00  0.00000000000E+00  0.94127646752E+03  0.94127732428E+03  0.12700000000E+01 0.  1.
         -4   -1    0    0    0  501 -0.00000000000E+00 -0.00000000000E+00 -0.63303101786E+02  0.63315840007E+02  0.12700000000E+01 0.  1.
    8880022    1    1    2    0    0 -0.12105906745E+03  0.70797255176E+02  0.70355913788E+03  0.73352209419E+03  0.15294330000E+03 0.  0.
    8880022    1    1    2    0    0  0.12105906745E+03 -0.70797255176E+02  0.17441422785E+03  0.27107107010E+03  0.15294330000E+03 0.  0.
<mgrwt>
<rscale>  0 0.20750711E+03</rscale>
<asrwt>0</asrwt>
<pdfrwt beam="1">  1        4 0.14481280E+00 0.20750711E+03</pdfrwt>
<pdfrwt beam="2">  1       -4 0.97399850E-02 0.20750711E+03</pdfrwt>
<totfact> 0.49194236E+01</totfact>
</mgrwt>
</event>
<event>
 4    1  0.8653772E-009  0.1706299E+03  0.7818608E-02  0.1177193E+00
          4   -1    0    0  501    0  0.00000000000E+00  0.00000000000E+00  0.11781277111E+03  0.11781961610E+03  0.12700000000E+01 0.  1.
         -4   -1    0    0    0  501 -0.00000000000E+00 -0.00000000000E+00 -0.39589796453E+03  0.39590000154E+03  0.12700000000E+01 0.  1.
    8880022    1    1    2    0    0 -0.40230698928E+02  0.64065676122E+02 -0.29650723198E+03  0.34209810234E+03  0.15294330000E+03 0. -1.
    8880022    1    1    2    0    0  0.40230698928E+02 -0.64065676122E+02  0.18422038566E+02  0.17162151530E+03  0.15294330000E+03 0. -1.
<mgrwt>
<rscale>  0 0.17062993E+03</rscale>
<asrwt>0</asrwt>
<pdfrwt beam="1">  1        4 0.18125725E-01 0.17062993E+03</pdfrwt>
<pdfrwt beam="2">  1       -4 0.60908062E-01 0.17062993E+03</pdfrwt>
<totfact> 0.12026442E+02</totfact>
</mgrwt>
</event>
<event>
 4    1  0.8653772E-009  0.1920081E+03  0.7818608E-02  0.1156663E+00
          4   -1    0    0  501    0  0.00000000000E+00  0.00000000000E+00  0.54969308632E+02  0.54983977589E+02  0.12700000000E+01 0. -1.
         -4   -1    0    0    0  501 -0.00000000000E+00 -0.00000000000E+00 -0.73582671501E+03  0.73582781098E+03  0.12700000000E+01 0. -1.
    8880022    1    1    2    0    0 -0.10861456384E+03  0.40967544214E+02 -0.45816968157E+03  0.49677618027E+03  0.15294330000E+03 0.  0.
    8880022    1    1    2    0    0  0.10861456384E+03 -0.40967544214E+02 -0.22268772480E+03  0.29403560830E+03  0.15294330000E+03 0.  0.
<mgrwt>
<rscale>  0 0.19200811E+03</rscale>
<asrwt>0</asrwt>
<pdfrwt beam="1">  1        4 0.84580299E-02 0.19200811E+03</pdfrwt>
<pdfrwt beam="2">  1       -4 0.11320532E+00 0.19200811E+03</pdfrwt>
<totfact> 0.11349417E+02</totfact>
</mgrwt>
</event>
<event>
 4    1  0.8653772E-009  0.1972218E+03  0.7818608E-02  0.1152104E+00
         -4   -1    0    0    0  501 -0.00000000000E+00  0.00000000000E+00  0.28486468508E+02  0.28514764387E+02  0.12700000000E+01 0. -1.
          4   -1    0    0  501    0  0.00000000000E+00 -0.00000000000E+00 -0.14414615162E+04  0.14414620757E+04  0.12700000000E+01 0. -1.
    8880022    1    1    2    0    0 -0.12286663332E+03 -0.20213018138E+02 -0.53691138819E+03  0.57198799592E+03  0.15294330000E+03 0.  0.
    8880022    1    1    2    0    0  0.12286663332E+03  0.20213018138E+02 -0.87606365951E+03  0.89798884415E+03  0.15294330000E+03 0.  0.
<mgrwt>
<rscale>  0 0.19722178E+03</rscale>
<asrwt>0</asrwt>
<pdfrwt beam="1">  1        4 0.22176547E+00 0.19722178E+03</pdfrwt>
<pdfrwt beam="2">  1       -4 0.43847544E-02 0.19722178E+03</pdfrwt>
<totfact> 0.55908042E+01</totfact>
</mgrwt>
</event>
<event>
 4    1  0.8653772E-009  0.1658650E+03  0.7818608E-02  0.1182230E+00
         -4   -1    0    0    0  501 -0.00000000000E+00  0.00000000000E+00  0.58639150742E+03  0.58639288269E+03  0.12700000000E+01 0. -1.
          4   -1    0    0  501    0  0.00000000000E+00 -0.00000000000E+00 -0.11844905073E+03  0.11845585895E+03  0.12700000000E+01 0. -1.
    8880022    1    1    2    0    0 -0.62896014843E+02 -0.12792431448E+02  0.50785045705E+03  0.53425021734E+03  0.15294330000E+03 0.  0.
    8880022    1    1    2    0    0  0.62896014843E+02  0.12792431448E+02 -0.39908000368E+02  0.17059852430E+03  0.15294330000E+03 0.  0.
<mgrwt>
<rscale>  0 0.16586503E+03</rscale>
<asrwt>0</asrwt>
<pdfrwt beam="1">  1        4 0.18223560E-01 0.16586503E+03</pdfrwt>
<pdfrwt beam="2">  1       -4 0.90214707E-01 0.16586503E+03</pdfrwt>
<totfact> 0.50167697E+01</totfact>
</mgrwt>
</event>
<event>
 4    1  0.8653772E-009  0.1574734E+03  0.7818608E-02  0.1191579E+00
          4   -1    0    0  501    0  0.00000000000E+00  0.00000000000E+00  0.14094491951E+04  0.14094497672E+04  0.12700000000E+01 0. -1.
         -4   -1    0    0    0  501 -0.00000000000E+00 -0.00000000000E+00 -0.17980126135E+02  0.18024922630E+02  0.12700000000E+01 0. -1.
    8880022    1    1    2    0    0 -0.43753570860E+01  0.37243465516E+02  0.80332426798E+03  0.81861331043E+03  0.15294330000E+03 0.  0.
    8880022    1    1    2    0    0  0.43753570860E+01 -0.37243465516E+02  0.58814480096E+03  0.60886137945E+03  0.15294330000E+03 0.  0.
<mgrwt>
<rscale>  0 0.15747340E+03</rscale>
<asrwt>0</asrwt>
<pdfrwt beam="1">  1        4 0.21684189E+00 0.15747340E+03</pdfrwt>
<pdfrwt beam="2">  1       -4 0.27696624E-02 0.15747340E+03</pdfrwt>
<totfact> 0.12087154E+02</totfact>
</mgrwt>
</event>
<event>
 4    1  0.8653772E-009  0.1991865E+03  0.7818608E-02  0.1150427E+00
         -4   -1    0    0    0  501 -0.00000000000E+00  0.00000000000E+00  0.42738533443E+03  0.42738722137E+03  0.12700000000E+01 0.  1.
          4   -1    0    0  501    0  0.00000000000E+00 -0.00000000000E+00 -0.20145991472E+03  0.20146391771E+03  0.12700000000E+01 0.  1.
    8880022    1    1    2    0    0 -0.12700453579E+03  0.12387681143E+02 -0.11792307569E+03  0.23147594162E+03  0.15294330000E+03 0.  0.
    8880022    1    1    2    0    0  0.12700453579E+03 -0.12387681143E+02  0.34384849540E+03  0.39737519746E+03  0.15294330000E+03 0.  0.
<mgrwt>
<rscale>  0 0.19918649E+03</rscale>
<asrwt>0</asrwt>
<pdfrwt beam="1">  1        4 0.30994286E-01 0.19918649E+03</pdfrwt>
<pdfrwt beam="2">  1       -4 0.65752043E-01 0.19918649E+03</pdfrwt>
<totfact> 0.38704035E+01</totfact>
</mgrwt>
</event>
<event>
 4    1  0.8653772E-009  0.2510487E+03  0.7818608E-02  0.1112644E+00
         -4   -1    0    0    0  501 -0.00000000000E+00  0.00000000000E+00  0.24382464139E+03  0.24382794887E+03  0.12700000000E+01 0.  1.
          4   -1    0    0  501    0  0.00000000000E+00 -0.00000000000E+00 -0.40912326690E+03  0.40912523806E+03  0.12700000000E+01 0.  1.
    8880022    1    1    2    0    0  0.19547251026E+03  0.37739973001E+02  0.11545612758E+03  0.27632513139E+03  0.15294330000E+03 0.  0.
    8880022    1    1    2    0    0 -0.19547251026E+03 -0.37739973001E+02 -0.28075475308E+03  0.37662805554E+03  0.15294330000E+03 0.  0.
<mgrwt>
<rscale>  0 0.25104872E+03</rscale>
<asrwt>0</asrwt>
<pdfrwt beam="1">  1        4 0.62942447E-01 0.25104872E+03</pdfrwt>
<pdfrwt beam="2">  1       -4 0.37511889E-01 0.25104872E+03</pdfrwt>
<totfact> 0.30080848E+01</totfact>
</mgrwt>
</event>
<event>
 4    1  0.8653772E-009  0.1638031E+03  0.7818608E-02  0.1184469E+00
          4   -1    0    0  501    0  0.00000000000E+00  0.00000000000E+00  0.18934423308E+03  0.18934849220E+03  0.12700000000E+01 0.  1.
         -4   -1    0    0    0  501 -0.00000000000E+00 -0.00000000000E+00 -0.14832417419E+03  0.14832961116E+03  0.12700000000E+01 0.  1.
    8880022    1    1    2    0    0  0.28457091998E+02 -0.51283512224E+02 -0.15173242224E+02  0.16450436166E+03  0.15294330000E+03 0. -1.
    8880022    1    1    2    0    0 -0.28457091998E+02  0.51283512224E+02  0.56193301114E+02  0.17317374170E+03  0.15294330000E+03 0. -1.
<mgrwt>
<rscale>  0 0.16380311E+03</rscale>
<asrwt>0</asrwt>
<pdfrwt beam="1">  1        4 0.29130628E-01 0.16380311E+03</pdfrwt>
<pdfrwt beam="2">  1       -4 0.22819849E-01 0.16380311E+03</pdfrwt>
<totfact> 0.34309270E+02</totfact>
</mgrwt>
</event>
<event>
 4    1  0.8653772E-009  0.1878736E+03  0.7818608E-02  0.1160393E+00
         -4   -1    0    0    0  501 -0.00000000000E+00  0.00000000000E+00  0.78323828905E+03  0.78323931869E+03  0.12700000000E+01 0. -1.
          4   -1    0    0  501    0  0.00000000000E+00 -0.00000000000E+00 -0.61544547325E+02  0.61557649447E+02  0.12700000000E+01 0. -1.
    8880022    1    1    2    0    0  0.94811789521E+02  0.53995995200E+02  0.57945989050E+03  0.60915536659E+03  0.15294330000E+03 0.  0.
    8880022    1    1    2    0    0 -0.94811789521E+02 -0.53995995200E+02  0.14223385123E+03  0.23564160155E+03  0.15294330000E+03 0.  0.
<mgrwt>
<rscale>  0 0.18787362E+03</rscale>
<asrwt>0</asrwt>
<pdfrwt beam="1">  1        4 0.94694794E-02 0.18787362E+03</pdfrwt>
<pdfrwt beam="2">  1       -4 0.12049928E+00 0.18787362E+03</pdfrwt>
<totfact> 0.80528758E+01</totfact>
</mgrwt>
</event>
<event>
 4    1  0.8653772E-009  0.2650700E+03  0.7818608E-02  0.1104135E+00
         -4   -1    0    0    0  501 -0.00000000000E+00  0.00000000000E+00  0.26239711769E+03  0.26240019107E+03  0.12700000000E+01 0.  1.
          4   -1    0    0  501    0  0.00000000000E+00 -0.00000000000E+00 -0.63712071055E+03  0.63712197632E+03  0.12700000000E+01 0.  1.
    8880022    1    1    2    0    0  0.45529913476E+02 -0.21165416357E+03  0.15508431775E+03  0.30710463462E+03  0.15294330000E+03 0.  0.
    8880022    1    1    2    0    0 -0.45529913476E+02  0.21165416357E+03 -0.52980791061E+03  0.59241753277E+03  0.15294330000E+03 0.  0.
<mgrwt>
<rscale>  0 0.26507001E+03</rscale>
<asrwt>0</asrwt>
<pdfrwt beam="1">  1        4 0.98018904E-01 0.26507001E+03</pdfrwt>
<pdfrwt beam="2">  1       -4 0.40369121E-01 0.26507001E+03</pdfrwt>
<totfact> 0.97069982E+00</totfact>
</mgrwt>
</event>
<event>
 4    1  0.8653772E-009  0.2359191E+03  0.7818608E-02  0.1122542E+00
         -4   -1    0    0    0  501 -0.00000000000E+00  0.00000000000E+00  0.70860653155E+03  0.70860766962E+03  0.12700000000E+01 0. -1.
          4   -1    0    0  501    0  0.00000000000E+00 -0.00000000000E+00 -0.97088853816E+02  0.97097159769E+02  0.12700000000E+01 0. -1.
    8880022    1    1    2    0    0  0.17129020462E+03  0.54090801709E+02  0.12968000800E+03  0.26921126744E+03  0.15294330000E+03 0.  0.
    8880022    1    1    2    0    0 -0.17129020462E+03 -0.54090801709E+02  0.48183766973E+03  0.53649356195E+03  0.15294330000E+03 0.  0.
<mgrwt>
<rscale>  0 0.23591906E+03</rscale>
<asrwt>0</asrwt>
<pdfrwt beam="1">  1        4 0.14937473E-01 0.23591906E+03</pdfrwt>
<pdfrwt beam="2">  1       -4 0.10901712E+00 0.23591906E+03</pdfrwt>
<totfact> 0.47942038E+01</totfact>
</mgrwt>
</event>
<event>
 4    1  0.8653772E-009  0.1737380E+03  0.7818608E-02  0.1174005E+00
         -4   -1    0    0    0  501 -0.00000000000E+00  0.00000000000E+00  0.45187507634E+03  0.45187686101E+03  0.12700000000E+01 0.  1.
          4   -1    0    0  501    0  0.00000000000E+00 -0.00000000000E+00 -0.87312856423E+02  0.87322092260E+02  0.12700000000E+01 0.  1.
    8880022    1    1    2    0    0 -0.50484805032E+02 -0.65150139692E+02  0.51587499403E+02  0.18123514932E+03  0.15294330000E+03 0.  1.
    8880022    1    1    2    0    0  0.50484805032E+02  0.65150139692E+02  0.31297472052E+03  0.35796380395E+03  0.15294330000E+03 0.  1.
<mgrwt>
<rscale>  0 0.17373805E+03</rscale>
<asrwt>0</asrwt>
<pdfrwt beam="1">  1        4 0.13433595E-01 0.17373805E+03</pdfrwt>
<pdfrwt beam="2">  1       -4 0.69520090E-01 0.17373805E+03</pdfrwt>
<totfact> 0.15401510E+02</totfact>
</mgrwt>
</event>
<event>
 4    1  0.8653772E-009  0.1759586E+03  0.7818608E-02  0.1171773E+00
          4   -1    0    0  501    0  0.00000000000E+00  0.00000000000E+00  0.63954010372E+02  0.63966618972E+02  0.12700000000E+01 0.  1.
         -4   -1    0    0    0  501 -0.00000000000E+00 -0.00000000000E+00 -0.53088296342E+03  0.53088448249E+03  0.12700000000E+01 0.  1.
    8880022    1    1    2    0    0 -0.39882746103E+02  0.77324825394E+02 -0.14513453816E+03  0.22809087934E+03  0.15294330000E+03 0.  0.
    8880022    1    1    2    0    0  0.39882746103E+02 -0.77324825394E+02 -0.32179441488E+03  0.36676022211E+03  0.15294330000E+03 0.  0.
<mgrwt>
<rscale>  0 0.17595856E+03</rscale>
<asrwt>0</asrwt>
<pdfrwt beam="1">  1        4 0.98401656E-02 0.17595856E+03</pdfrwt>
<pdfrwt beam="2">  1       -4 0.81675386E-01 0.17595856E+03</pdfrwt>
<totfact> 0.18457597E+02</totfact>
</mgrwt>
</event>
<event>
 4    1  0.8653772E-009  0.1732129E+03  0.7818608E-02  0.1174538E+00
         -4   -1    0    0    0  501 -0.00000000000E+00  0.00000000000E+00  0.11249837522E+04  0.11249844690E+04  0.12700000000E+01 0.  1.
          4   -1    0    0  501    0  0.00000000000E+00 -0.00000000000E+00 -0.27412537557E+02  0.27441940808E+02  0.12700000000E+01 0.  1.
    8880022    1    1    2    0    0  0.21008512417E+01 -0.81281356716E+02  0.45296444982E+03  0.48495310942E+03  0.15294330000E+03 0.  0.
    8880022    1    1    2    0    0 -0.21008512417E+01  0.81281356716E+02  0.64460676478E+03  0.66747330040E+03  0.15294330000E+03 0.  0.
<mgrwt>
<rscale>  0 0.17321295E+03</rscale>
<asrwt>0</asrwt>
<pdfrwt beam="1">  1        4 0.42196305E-02 0.17321295E+03</pdfrwt>
<pdfrwt beam="2">  1       -4 0.17307674E+00 0.17321295E+03</pdfrwt>
<totfact> 0.11931818E+02</totfact>
</mgrwt>
</event>
<event>
 4    1  0.8653772E-009  0.2008363E+03  0.7818608E-02  0.1149035E+00
         -4   -1    0    0    0  501 -0.00000000000E+00  0.00000000000E+00  0.10602084622E+03  0.10602845247E+03  0.12700000000E+01 0.  1.
          4   -1    0    0  501    0  0.00000000000E+00 -0.00000000000E+00 -0.94398802749E+03  0.94398888179E+03  0.12700000000E+01 0.  1.
    8880022    1    1    2    0    0  0.13006064790E+03  0.52721077568E+01 -0.13332318696E+02  0.20127834208E+03  0.15294330000E+03 0.  0.
    8880022    1    1    2    0    0 -0.13006064790E+03 -0.52721077568E+01 -0.82463486258E+03  0.84873899218E+03  0.15294330000E+03 0.  0.
<mgrwt>
<rscale>  0 0.20083630E+03</rscale>
<asrwt>0</asrwt>
<pdfrwt beam="1">  1        4 0.14522957E+00 0.20083630E+03</pdfrwt>
<pdfrwt beam="2">  1       -4 0.16311551E-01 0.20083630E+03</pdfrwt>
<totfact> 0.19912679E+01</totfact>
</mgrwt>
</event>
<event>
 4    1  0.8653772E-009  0.1893955E+03  0.7818608E-02  0.1159008E+00
         -4   -1    0    0    0  501 -0.00000000000E+00  0.00000000000E+00  0.70243739222E+02  0.70255219023E+02  0.12700000000E+01 0. -1.
          4   -1    0    0  501    0  0.00000000000E+00 -0.00000000000E+00 -0.88038986669E+03  0.88039078271E+03  0.12700000000E+01 0. -1.
    8880022    1    1    2    0    0 -0.10874409240E+03  0.25568291039E+02 -0.71312372645E+03  0.73784559183E+03  0.15294330000E+03 0.  1.
    8880022    1    1    2    0    0  0.10874409240E+03 -0.25568291039E+02 -0.97022401018E+02  0.21280040990E+03  0.15294330000E+03 0.  1.
<mgrwt>
<rscale>  0 0.18939553E+03</rscale>
<asrwt>0</asrwt>
<pdfrwt beam="1">  1        4 0.13544554E+00 0.18939553E+03</pdfrwt>
<pdfrwt beam="2">  1       -4 0.10807683E-01 0.18939553E+03</pdfrwt>
<totfact> 0.48300062E+01</totfact>
</mgrwt>
</event>
<event>
 4    1  0.8653772E-009  0.2606235E+03  0.7818608E-02  0.1106769E+00
         -4   -1    0    0    0  501 -0.00000000000E+00  0.00000000000E+00  0.83906819114E+03  0.83906915226E+03  0.12700000000E+01 0. -1.
          4   -1    0    0  501    0  0.00000000000E+00 -0.00000000000E+00 -0.10963024683E+03  0.10963760267E+03  0.12700000000E+01 0. -1.
    8880022    1    1    2    0    0  0.12871582792E+03  0.16722798990E+03  0.60734425232E+03  0.66090215524E+03  0.15294330000E+03 0.  0.
    8880022    1    1    2    0    0 -0.12871582792E+03 -0.16722798990E+03  0.12209369199E+03  0.28780459969E+03  0.15294330000E+03 0.  0.
<mgrwt>
<rscale>  0 0.26062352E+03</rscale>
<asrwt>0</asrwt>
<pdfrwt beam="1">  1        4 0.16866833E-01 0.26062352E+03</pdfrwt>
<pdfrwt beam="2">  1       -4 0.12908805E+00 0.26062352E+03</pdfrwt>
<totfact> 0.25859558E+01</totfact>
</mgrwt>
</event>
<event>
 4    1  0.8653772E-009  0.1945166E+03  0.7818608E-02  0.1154450E+00
         -4   -1    0    0    0  501 -0.00000000000E+00  0.00000000000E+00  0.17295752621E+04  0.17295757283E+04  0.12700000000E+01 0. -1.
          4   -1    0    0  501    0  0.00000000000E+00 -0.00000000000E+00 -0.29743395230E+02  0.29770496466E+02  0.12700000000E+01 0. -1.
    8880022    1    1    2    0    0  0.10997983935E+03  0.48471581273E+02  0.39720863817E+03  0.44227979211E+03  0.15294330000E+03 0.  0.
    8880022    1    1    2    0    0 -0.10997983935E+03 -0.48471581273E+02  0.13026232287E+04  0.13170664327E+04  0.15294330000E+03 0.  0.
<mgrwt>
<rscale>  0 0.19451661E+03</rscale>
<asrwt>0</asrwt>
<pdfrwt beam="1">  1        4 0.45780252E-02 0.19451661E+03</pdfrwt>
<pdfrwt beam="2">  1       -4 0.26609076E+00 0.19451661E+03</pdfrwt>
<totfact> 0.28531898E+01</totfact>
</mgrwt>
</event>
<event>
 4    1  0.8653772E-009  0.1764241E+03  0.7818608E-02  0.1171309E+00
          4   -1    0    0  501    0  0.00000000000E+00  0.00000000000E+00  0.17755460535E+03  0.17755914728E+03  0.12700000000E+01 0. -1.
         -4   -1    0    0    0  501 -0.00000000000E+00 -0.00000000000E+00 -0.17793178525E+03  0.17793631755E+03  0.12700000000E+01 0. -1.
    8880022    1    1    2    0    0  0.14436688151E+02  0.86748986195E+02  0.21462362774E+02  0.17772476080E+03  0.15294330000E+03 0. -1.
    8880022    1    1    2    0    0 -0.14436688151E+02 -0.86748986195E+02 -0.21839542669E+02  0.17777070402E+03  0.15294330000E+03 0. -1.
<mgrwt>
<rscale>  0 0.17642408E+03</rscale>
<asrwt>0</asrwt>
<pdfrwt beam="1">  1        4 0.27316791E-01 0.17642408E+03</pdfrwt>
<pdfrwt beam="2">  1       -4 0.27374819E-01 0.17642408E+03</pdfrwt>
<totfact> 0.27974529E+02</totfact>
</mgrwt>
</event>
<event>
 4    1  0.8653772E-009  0.1756111E+03  0.7818608E-02  0.1172120E+00
         -4   -1    0    0    0  501 -0.00000000000E+00  0.00000000000E+00  0.56216175299E+03  0.56216318754E+03  0.12700000000E+01 0. -1.
          4   -1    0    0  501    0  0.00000000000E+00 -0.00000000000E+00 -0.57671237695E+02  0.57685219574E+02  0.12700000000E+01 0. -1.
    8880022    1    1    2    0    0 -0.78250322937E+02  0.36393390501E+02  0.32079062146E+03  0.36571282141E+03  0.15294330000E+03 0.  1.
    8880022    1    1    2    0    0  0.78250322937E+02 -0.36393390501E+02  0.18369989384E+03  0.25413558571E+03  0.15294330000E+03 0.  1.
<mgrwt>
<rscale>  0 0.17561106E+03</rscale>
<asrwt>0</asrwt>
<pdfrwt beam="1">  1        4 0.88736839E-02 0.17561106E+03</pdfrwt>
<pdfrwt beam="2">  1       -4 0.86487611E-01 0.17561106E+03</pdfrwt>
<totfact> 0.19316116E+02</totfact>
</mgrwt>
</event>
<event>
 4    1  0.8653772E-009  0.1673347E+03  0.7818608E-02  0.1180656E+00
          4   -1    0    0  501    0  0.00000000000E+00  0.00000000000E+00  0.38636506341E+02  0.38657373453E+02  0.12700000000E+01 0. -1.
         -4   -1    0    0    0  501 -0.00000000000E+00 -0.00000000000E+00 -0.12160714689E+04  0.12160721321E+04  0.12700000000E+01 0. -1.
    8880022    1    1    2    0    0 -0.65002824585E+02 -0.19593302350E+02 -0.98758222572E+03  0.10016584100E+04  0.15294330000E+03 0.  0.
    8880022    1    1    2    0    0  0.65002824585E+02  0.19593302350E+02 -0.18985273687E+03  0.25307109557E+03  0.15294330000E+03 0.  0.
<mgrwt>
<rscale>  0 0.16733475E+03</rscale>
<asrwt>0</asrwt>
<pdfrwt beam="1">  1        4 0.59457350E-02 0.16733475E+03</pdfrwt>
<pdfrwt beam="2">  1       -4 0.18708955E+00 0.16733475E+03</pdfrwt>
<totfact> 0.55128126E+01</totfact>
</mgrwt>
</event>
<event>
 4    1  0.8653772E-009  0.1664111E+03  0.7818608E-02  0.1181643E+00
          4   -1    0    0  501    0  0.00000000000E+00  0.00000000000E+00  0.12980913131E+03  0.12981534374E+03  0.12700000000E+01 0.  1.
         -4   -1    0    0    0  501 -0.00000000000E+00 -0.00000000000E+00 -0.22123159599E+03  0.22123524124E+03  0.12700000000E+01 0.  1.
    8880022    1    1    2    0    0  0.53072853832E+02  0.38526269312E+02 -0.12519752578E+02  0.16688139040E+03  0.15294330000E+03 0.  0.
    8880022    1    1    2    0    0 -0.53072853832E+02 -0.38526269312E+02 -0.78902712110E+02  0.18416919459E+03  0.15294330000E+03 0.  0.
<mgrwt>
<rscale>  0 0.16641110E+03</rscale>
<asrwt>0</asrwt>
<pdfrwt beam="1">  1        4 0.19971394E-01 0.16641110E+03</pdfrwt>
<pdfrwt beam="2">  1       -4 0.34036389E-01 0.16641110E+03</pdfrwt>
<totfact> 0.32570973E+02</totfact>
</mgrwt>
</event>
<event>
 4    1  0.8653772E-009  0.3030087E+03  0.7818608E-02  0.1083746E+00
          4   -1    0    0  501    0  0.00000000000E+00  0.00000000000E+00  0.43322655450E+03  0.43322841599E+03  0.12700000000E+01 0.  1.
         -4   -1    0    0    0  501 -0.00000000000E+00 -0.00000000000E+00 -0.38467865296E+03  0.38468074938E+03  0.12700000000E+01 0.  1.
    8880022    1    1    2    0    0  0.48831301177E+02  0.25697887485E+03  0.29832675709E+03  0.42522128958E+03  0.15294330000E+03 0.  0.
    8880022    1    1    2    0    0 -0.48831301177E+02 -0.25697887485E+03 -0.24977885556E+03  0.39268787579E+03  0.15294330000E+03 0.  0.
<mgrwt>
<rscale>  0 0.30300873E+03</rscale>
<asrwt>0</asrwt>
<pdfrwt beam="1">  1        4 0.66650543E-01 0.30300873E+03</pdfrwt>
<pdfrwt beam="2">  1       -4 0.59181636E-01 0.30300873E+03</pdfrwt>
<totfact> 0.10618964E+01</totfact>
</mgrwt>
</event>
<event>
 4    1  0.8653772E-009  0.1785844E+03  0.7818608E-02  0.1169180E+00
         -4   -1    0    0    0  501 -0.00000000000E+00  0.00000000000E+00  0.15632271698E+03  0.15632787578E+03  0.12700000000E+01 0. -1.
          4   -1    0    0  501    0  0.00000000000E+00 -0.00000000000E+00 -0.25582405172E+03  0.25582720406E+03  0.12700000000E+01 0. -1.
    8880022    1    1    2    0    0  0.73110572292E+02  0.56174661925E+02 -0.14249629683E+03  0.22846793221E+03  0.15294330000E+03 0. -1.
    8880022    1    1    2    0    0 -0.73110572292E+02 -0.56174661925E+02  0.42994962094E+02  0.18368714763E+03  0.15294330000E+03 0. -1.
<mgrwt>
<rscale>  0 0.17858444E+03</rscale>
<asrwt>0</asrwt>
<pdfrwt beam="1">  1        4 0.39358186E-01 0.17858444E+03</pdfrwt>
<pdfrwt beam="2">  1       -4 0.24050288E-01 0.17858444E+03</pdfrwt>
<totfact> 0.17667492E+02</totfact>
</mgrwt>
</event>
<event>
 4    1  0.8653772E-009  0.3729414E+03  0.7818608E-02  0.1053574E+00
         -4   -1    0    0    0  501 -0.00000000000E+00  0.00000000000E+00  0.12957337995E+04  0.12957344219E+04  0.12700000000E+01 0.  1.
          4   -1    0    0  501    0  0.00000000000E+00 -0.00000000000E+00 -0.10798465883E+03  0.10799212676E+03  0.12700000000E+01 0.  1.
    8880022    1    1    2    0    0 -0.33122617711E+03 -0.77349128482E+02  0.53950267461E+03  0.65585704007E+03  0.15294330000E+03 0.  0.
    8880022    1    1    2    0    0  0.33122617711E+03  0.77349128482E+02  0.64824646606E+03  0.74786950858E+03  0.15294330000E+03 0.  0.
<mgrwt>
<rscale>  0 0.37294144E+03</rscale>
<asrwt>0</asrwt>
<pdfrwt beam="1">  1        4 0.16613646E-01 0.37294144E+03</pdfrwt>
<pdfrwt beam="2">  1       -4 0.19934429E+00 0.37294144E+03</pdfrwt>
<totfact> 0.84620442E+00</totfact>
</mgrwt>
</event>
<event>
 4    1  0.8653772E-009  0.2691600E+03  0.7818608E-02  0.1101761E+00
         -4   -1    0    0    0  501 -0.00000000000E+00  0.00000000000E+00  0.12213171662E+03  0.12213831956E+03  0.12700000000E+01 0. -1.
          4   -1    0    0  501    0  0.00000000000E+00 -0.00000000000E+00 -0.76526441291E+03  0.76526546673E+03  0.12700000000E+01 0. -1.
    8880022    1    1    2    0    0 -0.17966526719E+03  0.12952162801E+03 -0.53197952836E+03  0.59619571615E+03  0.15294330000E+03 0.  0.
    8880022    1    1    2    0    0  0.17966526719E+03 -0.12952162801E+03 -0.11115316793E+03  0.29120807014E+03  0.15294330000E+03 0.  0.
<mgrwt>
<rscale>  0 0.26916001E+03</rscale>
<asrwt>0</asrwt>
<pdfrwt beam="1">  1        4 0.11773357E+00 0.26916001E+03</pdfrwt>
<pdfrwt beam="2">  1       -4 0.18790084E-01 0.26916001E+03</pdfrwt>
<totfact> 0.26792239E+01</totfact>
</mgrwt>
</event>
<event>
 4    1  0.8653772E-009  0.3372956E+03  0.7818608E-02  0.1067954E+00
         -4   -1    0    0    0  501 -0.00000000000E+00  0.00000000000E+00  0.16524948016E+03  0.16525436029E+03  0.12700000000E+01 0. -1.
          4   -1    0    0  501    0  0.00000000000E+00 -0.00000000000E+00 -0.10354469389E+04  0.10354477178E+04  0.12700000000E+01 0. -1.
    8880022    1    1    2    0    0  0.99217334653E+02  0.28378270044E+03 -0.87559508735E+02  0.34847528054E+03  0.15294330000E+03 0.  0.
    8880022    1    1    2    0    0 -0.99217334653E+02 -0.28378270044E+03 -0.78263795001E+03  0.85222679750E+03  0.15294330000E+03 0.  0.
<mgrwt>
<rscale>  0 0.33729565E+03</rscale>
<asrwt>0</asrwt>
<pdfrwt beam="1">  1        4 0.15929996E+00 0.33729565E+03</pdfrwt>
<pdfrwt beam="2">  1       -4 0.25423433E-01 0.33729565E+03</pdfrwt>
<totfact> 0.72225761E+00</totfact>
</mgrwt>
</event>
<event>
 4    1  0.8653772E-009  0.3574186E+03  0.7818608E-02  0.1059611E+00
          4   -1    0    0  501    0  0.00000000000E+00  0.00000000000E+00  0.23595009184E+03  0.23595350970E+03  0.12700000000E+01 0.  1.
         -4   -1    0    0    0  501 -0.00000000000E+00 -0.00000000000E+00 -0.62219659070E+03  0.62219788683E+03  0.12700000000E+01 0.  1.
    8880022    1    1    2    0    0 -0.51289685128E+02  0.31894476384E+03 -0.34773179784E+03  0.49866366463E+03  0.15294330000E+03 0.  0.
    8880022    1    1    2    0    0  0.51289685128E+02 -0.31894476384E+03 -0.38514701024E+02  0.35948773190E+03  0.15294330000E+03 0.  0.
<mgrwt>
<rscale>  0 0.35741859E+03</rscale>
<asrwt>0</asrwt>
<pdfrwt beam="1">  1        4 0.36300377E-01 0.35741859E+03</pdfrwt>
<pdfrwt beam="2">  1       -4 0.95722914E-01 0.35741859E+03</pdfrwt>
<totfact> 0.12940136E+01</totfact>
</mgrwt>
</event>
<event>
 4    1  0.8653772E-009  0.1722194E+03  0.7818608E-02  0.1175553E+00
          4   -1    0    0  501    0  0.00000000000E+00  0.00000000000E+00  0.44386684958E+03  0.44386866645E+03  0.12700000000E+01 0.  1.
         -4   -1    0    0    0  501 -0.00000000000E+00 -0.00000000000E+00 -0.20908906831E+03  0.20909292524E+03  0.12700000000E+01 0.  1.
    8880022    1    1    2    0    0 -0.77966756851E+02  0.13749514057E+02  0.38669617835E+03  0.42331247522E+03  0.15294330000E+03 0.  0.
    8880022    1    1    2    0    0  0.77966756851E+02 -0.13749514057E+02 -0.15191839708E+03  0.22964911647E+03  0.15294330000E+03 0.  0.
<mgrwt>
<rscale>  0 0.17221939E+03</rscale>
<asrwt>0</asrwt>
<pdfrwt beam="1">  1        4 0.68287644E-01 0.17221939E+03</pdfrwt>
<pdfrwt beam="2">  1       -4 0.32167986E-01 0.17221939E+03</pdfrwt>
<totfact> 0.32648531E+01</totfact>
</mgrwt>
</event>
<event>
 4    1  0.8653772E-009  0.1830503E+03  0.7818608E-02  0.1164883E+00
          4   -1    0    0  501    0  0.00000000000E+00  0.00000000000E+00  0.42564885224E+03  0.42565074687E+03  0.12700000000E+01 0. -1.
         -4   -1    0    0    0  501 -0.00000000000E+00 -0.00000000000E+00 -0.21105645102E+03  0.21106027200E+03  0.12700000000E+01 0. -1.
    8880022    1    1    2    0    0  0.92216998609E+02  0.40146845411E+02  0.35938536656E+03  0.40331778877E+03  0.15294330000E+03 0.  0.
    8880022    1    1    2    0    0 -0.92216998609E+02 -0.40146845411E+02 -0.14479296534E+03  0.23339323010E+03  0.15294330000E+03 0.  0.
<mgrwt>
<rscale>  0 0.18305026E+03</rscale>
<asrwt>0</asrwt>
<pdfrwt beam="1">  1        4 0.65484878E-01 0.18305026E+03</pdfrwt>
<pdfrwt beam="2">  1       -4 0.32470663E-01 0.18305026E+03</pdfrwt>
<totfact> 0.35354427E+01</totfact>
</mgrwt>
</event>
<event>
 4    1  0.8653772E-009  0.1604160E+03  0.7818608E-02  0.1188228E+00
         -4   -1    0    0    0  501 -0.00000000000E+00  0.00000000000E+00  0.10428818213E+04  0.10428825946E+04  0.12700000000E+01 0.  1.
          4   -1    0    0  501    0  0.00000000000E+00 -0.00000000000E+00 -0.24956530203E+02  0.24988823497E+02  0.12700000000E+01 0.  1.
    8880022    1    1    2    0    0  0.47090207017E+02 -0.11142032470E+02  0.45060885968E+03  0.47831122705E+03  0.15294330000E+03 0. -1.
    8880022    1    1    2    0    0 -0.47090207017E+02  0.11142032470E+02  0.56731643139E+03  0.58956019101E+03  0.15294330000E+03 0. -1.
<mgrwt>
<rscale>  0 0.16041598E+03</rscale>
<asrwt>0</asrwt>
<pdfrwt beam="1">  1        4 0.38420089E-02 0.16041598E+03</pdfrwt>
<pdfrwt beam="2">  1       -4 0.16044594E+00 0.16041598E+03</pdfrwt>
<totfact> 0.16768385E+02</totfact>
</mgrwt>
</event>
<event>
 4    1  0.8653772E-009  0.1625668E+03  0.7818608E-02  0.1185829E+00
         -4   -1    0    0    0  501 -0.00000000000E+00  0.00000000000E+00  0.64961213928E+03  0.64961338071E+03  0.12700000000E+01 0. -1.
          4   -1    0    0  501    0  0.00000000000E+00 -0.00000000000E+00 -0.49777130119E+02  0.49793328699E+02  0.12700000000E+01 0. -1.
    8880022    1    1    2    0    0 -0.38357209691E+02 -0.39560345688E+02  0.15037774492E+03  0.22145296491E+03  0.15294330000E+03 0. -1.
    8880022    1    1    2    0    0  0.38357209691E+02  0.39560345688E+02  0.44945726425E+03  0.47795374450E+03  0.15294330000E+03 0. -1.
<mgrwt>
<rscale>  0 0.16256675E+03</rscale>
<asrwt>0</asrwt>
<pdfrwt beam="1">  1        4 0.76593622E-02 0.16256675E+03</pdfrwt>
<pdfrwt beam="2">  1       -4 0.99941662E-01 0.16256675E+03</pdfrwt>
<totfact> 0.17528545E+02</totfact>
</mgrwt>
</event>
<event>
 4    1  0.8653772E-009  0.1713282E+03  0.7818608E-02  0.1176470E+00
          4   -1    0    0  501    0  0.00000000000E+00  0.00000000000E+00  0.37928940482E+02  0.37950196654E+02  0.12700000000E+01 0.  1.
         -4   -1    0    0    0  501 -0.00000000000E+00 -0.00000000000E+00 -0.87722787141E+03  0.87722879073E+03  0.12700000000E+01 0.  1.
    8880022    1    1    2    0    0  0.52503532891E+02  0.56613269852E+02 -0.26242623493E+03  0.31340208213E+03  0.15294330000E+03 0.  1.
    8880022    1    1    2    0    0 -0.52503532891E+02 -0.56613269852E+02 -0.57687269600E+03  0.60177690525E+03  0.15294330000E+03 0.  1.
<mgrwt>
<rscale>  0 0.17132815E+03</rscale>
<asrwt>0</asrwt>
<pdfrwt beam="1">  1        4 0.58369281E-02 0.17132815E+03</pdfrwt>
<pdfrwt beam="2">  1       -4 0.13495983E+00 0.17132815E+03</pdfrwt>
<totfact> 0.13425763E+02</totfact>
</mgrwt>
</event>
<event>
 4    1  0.8653772E-009  0.1594881E+03  0.7818608E-02  0.1189276E+00
         -4   -1    0    0    0  501 -0.00000000000E+00  0.00000000000E+00  0.17031043359E+04  0.17031048094E+04  0.12700000000E+01 0.  1.
          4   -1    0    0  501    0  0.00000000000E+00 -0.00000000000E+00 -0.19176784841E+02  0.19218792284E+02  0.12700000000E+01 0.  1.
    8880022    1    1    2    0    0 -0.33891602724E+01  0.45092394009E+02  0.43616851439E+03  0.46441300193E+03  0.15294330000E+03 0.  0.
    8880022    1    1    2    0    0  0.33891602724E+01 -0.45092394009E+02  0.12477590366E+04  0.12579105997E+04  0.15294330000E+03 0.  0.
<mgrwt>
<rscale>  0 0.15948813E+03</rscale>
<asrwt>0</asrwt>
<pdfrwt beam="1">  1        4 0.29535424E-02 0.15948813E+03</pdfrwt>
<pdfrwt beam="2">  1       -4 0.26201932E+00 0.15948813E+03</pdfrwt>
<totfact> 0.59414714E+01</totfact>
</mgrwt>
</event>
<event>
 4    1  0.8653772E-009  0.1846378E+03  0.7818608E-02  0.1163389E+00
          4   -1    0    0  501    0  0.00000000000E+00  0.00000000000E+00  0.89794903276E+02  0.89803883849E+02  0.12700000000E+01 0. -1.
         -4   -1    0    0    0  501 -0.00000000000E+00 -0.00000000000E+00 -0.37968526384E+03  0.37968738784E+03  0.12700000000E+01 0. -1.
    8880022    1    1    2    0    0 -0.10342122393E+03  0.18794291446E+01 -0.14202580551E+03  0.23294304939E+03  0.15294330000E+03 0. -1.
    8880022    1    1    2    0    0  0.10342122393E+03 -0.18794291446E+01 -0.14786455506E+03  0.23654822229E+03  0.15294330000E+03 0. -1.
<mgrwt>
<rscale>  0 0.18463785E+03</rscale>
<asrwt>0</asrwt>
<pdfrwt beam="1">  1        4 0.13815455E-01 0.18463785E+03</pdfrwt>
<pdfrwt beam="2">  1       -4 0.58413971E-01 0.18463785E+03</pdfrwt>
<totfact> 0.21469938E+02</totfact>
</mgrwt>
</event>
<event>
 4    1  0.8653772E-009  0.2240969E+03  0.7818608E-02  0.1130865E+00
         -4   -1    0    0    0  501 -0.00000000000E+00  0.00000000000E+00  0.80507748496E+02  0.80517764921E+02  0.12700000000E+01 0. -1.
          4   -1    0    0  501    0  0.00000000000E+00 -0.00000000000E+00 -0.63202085838E+03  0.63202213437E+03  0.12700000000E+01 0. -1.
    8880022    1    1    2    0    0  0.16185485211E+03  0.25114842374E+02 -0.23496175293E+03  0.32469435907E+03  0.15294330000E+03 0.  0.
    8880022    1    1    2    0    0 -0.16185485211E+03 -0.25114842374E+02 -0.31655135696E+03  0.38784554022E+03  0.15294330000E+03 0.  0.
<mgrwt>
<rscale>  0 0.22409686E+03</rscale>
<asrwt>0</asrwt>
<pdfrwt beam="1">  1        4 0.97234844E-01 0.22409686E+03</pdfrwt>
<pdfrwt beam="2">  1       -4 0.12386677E-01 0.22409686E+03</pdfrwt>
<totfact> 0.86572464E+01</totfact>
</mgrwt>
</event>
<event>
 4    1  0.8653772E-009  0.2137207E+03  0.7818608E-02  0.1138653E+00
          4   -1    0    0  501    0  0.00000000000E+00  0.00000000000E+00  0.22347213797E+03  0.22347574667E+03  0.12700000000E+01 0. -1.
         -4   -1    0    0    0  501 -0.00000000000E+00 -0.00000000000E+00 -0.21123452477E+03  0.21123834253E+03  0.12700000000E+01 0. -1.
    8880022    1    1    2    0    0 -0.95085924277E+02 -0.11508065602E+03 -0.33013215738E+02  0.21625544112E+03  0.15294330000E+03 0.  0.
    8880022    1    1    2    0    0  0.95085924277E+02  0.11508065602E+03  0.45250828939E+02  0.21845864808E+03  0.15294330000E+03 0.  0.
<mgrwt>
<rscale>  0 0.21372071E+03</rscale>
<asrwt>0</asrwt>
<pdfrwt beam="1">  1        4 0.34380900E-01 0.21372071E+03</pdfrwt>
<pdfrwt beam="2">  1       -4 0.32498190E-01 0.21372071E+03</pdfrwt>
<totfact> 0.13390560E+02</totfact>
</mgrwt>
</event>
<event>
 4    1  0.8653772E-009  0.1728099E+03  0.7818608E-02  0.1174949E+00
          4   -1    0    0  501    0  0.00000000000E+00  0.00000000000E+00  0.21629332803E+03  0.21629705650E+03  0.12700000000E+01 0.  1.
         -4   -1    0    0    0  501 -0.00000000000E+00 -0.00000000000E+00 -0.27297486224E+03  0.27297781653E+03  0.12700000000E+01 0.  1.
    8880022    1    1    2    0    0  0.43406055460E+02 -0.67731234063E+02  0.14364172239E+03  0.22471360249E+03  0.15294330000E+03 0.  0.
    8880022    1    1    2    0    0 -0.43406055460E+02  0.67731234063E+02 -0.20032325660E+03  0.26456127054E+03  0.15294330000E+03 0.  0.
<mgrwt>
<rscale>  0 0.17280989E+03</rscale>
<asrwt>0</asrwt>
<pdfrwt beam="1">  1        4 0.33276411E-01 0.17280989E+03</pdfrwt>
<pdfrwt beam="2">  1       -4 0.41996647E-01 0.17280989E+03</pdfrwt>
<totfact> 0.83802647E+01</totfact>
</mgrwt>
</event>
<event>
 4    1  0.8653772E-009  0.3102506E+03  0.7818608E-02  0.1080226E+00
          4   -1    0    0  501    0  0.00000000000E+00  0.00000000000E+00  0.61919234052E+03  0.61919364294E+03  0.12700000000E+01 0.  1.
         -4   -1    0    0    0  501 -0.00000000000E+00 -0.00000000000E+00 -0.15772324500E+03  0.15772835799E+03  0.12700000000E+01 0.  1.
    8880022    1    1    2    0    0  0.89506496100E+02 -0.25466127138E+03  0.18409050378E+03  0.36075579355E+03  0.15294330000E+03 0.  0.
    8880022    1    1    2    0    0 -0.89506496100E+02  0.25466127138E+03  0.27737859174E+03  0.41616620737E+03  0.15294330000E+03 0.  0.
<mgrwt>
<rscale>  0 0.31025059E+03</rscale>
<asrwt>0</asrwt>
<pdfrwt beam="1">  1        4 0.95260855E-01 0.31025059E+03</pdfrwt>
<pdfrwt beam="2">  1       -4 0.24265608E-01 0.31025059E+03</pdfrwt>
<totfact> 0.28062469E+01</totfact>
</mgrwt>
</event>
<event>
 4    1  0.8653772E-009  0.1851088E+03  0.7818608E-02  0.1162948E+00
         -4   -1    0    0    0  501 -0.00000000000E+00  0.00000000000E+00  0.12139590105E+03  0.12140254401E+03  0.12700000000E+01 0. -1.
          4   -1    0    0  501    0  0.00000000000E+00 -0.00000000000E+00 -0.33393136367E+03  0.33393377868E+03  0.12700000000E+01 0. -1.
    8880022    1    1    2    0    0  0.91791414860E+02 -0.49476648795E+02 -0.19583664460E+03  0.26947587462E+03  0.15294330000E+03 0.  0.
    8880022    1    1    2    0    0 -0.91791414860E+02  0.49476648795E+02 -0.16698818022E+02  0.18586044807E+03  0.15294330000E+03 0.  0.
<mgrwt>
<rscale>  0 0.18510877E+03</rscale>
<asrwt>0</asrwt>
<pdfrwt beam="1">  1        4 0.51374752E-01 0.18510877E+03</pdfrwt>
<pdfrwt beam="2">  1       -4 0.18676989E-01 0.18510877E+03</pdfrwt>
<totfact> 0.16458541E+02</totfact>
</mgrwt>
</event>
<event>
 4    1  0.8653772E-009  0.2351220E+03  0.7818608E-02  0.1123086E+00
         -4   -1    0    0    0  501 -0.00000000000E+00  0.00000000000E+00  0.81781406646E+02  0.81791267095E+02  0.12700000000E+01 0.  1.
          4   -1    0    0  501    0  0.00000000000E+00 -0.00000000000E+00 -0.91454057896E+03  0.91454146077E+03  0.12700000000E+01 0.  1.
    8880022    1    1    2    0    0 -0.17856962923E+03  0.18999032418E+01 -0.67083911428E+03  0.71084983814E+03  0.15294330000E+03 0.  0.
    8880022    1    1    2    0    0  0.17856962923E+03 -0.18999032418E+01 -0.16192005803E+03  0.28548288972E+03  0.15294330000E+03 0.  0.
<mgrwt>
<rscale>  0 0.23512204E+03</rscale>
<asrwt>0</asrwt>
<pdfrwt beam="1">  1        4 0.14069937E+00 0.23512204E+03</pdfrwt>
<pdfrwt beam="2">  1       -4 0.12582582E-01 0.23512204E+03</pdfrwt>
<totfact> 0.34577481E+01</totfact>
</mgrwt>
</event>
<event>
 4    1  0.8653772E-009  0.1821344E+03  0.7818608E-02  0.1165753E+00
          4   -1    0    0  501    0  0.00000000000E+00  0.00000000000E+00  0.14314778251E+03  0.14315341609E+03  0.12700000000E+01 0. -1.
         -4   -1    0    0    0  501 -0.00000000000E+00 -0.00000000000E+00 -0.23932991575E+03  0.23933328534E+03  0.12700000000E+01 0. -1.
    8880022    1    1    2    0    0  0.82185612123E+02 -0.55016591299E+02 -0.14006168626E+02  0.18267218161E+03  0.15294330000E+03 0. -1.
    8880022    1    1    2    0    0 -0.82185612123E+02  0.55016591299E+02 -0.82175964615E+02  0.19981451983E+03  0.15294330000E+03 0. -1.
<mgrwt>
<rscale>  0 0.18213444E+03</rscale>
<asrwt>0</asrwt>
<pdfrwt beam="1">  1        4 0.22023428E-01 0.18213444E+03</pdfrwt>
<pdfrwt beam="2">  1       -4 0.36820680E-01 0.18213444E+03</pdfrwt>
<totfact> 0.23751287E+02</totfact>
</mgrwt>
</event>
<event>
 4    1  0.8653772E-009  0.5367683E+03  0.7818608E-02  0.1004604E+00
          4   -1    0    0  501    0  0.00000000000E+00  0.00000000000E+00  0.10529910606E+04  0.10529918264E+04  0.12700000000E+01 0. -1.
         -4   -1    0    0    0  501 -0.00000000000E+00 -0.00000000000E+00 -0.31177588866E+03  0.31177847528E+03  0.12700000000E+01 0.  1.
    8880022    1    1    2    0    0 -0.38771130293E+03 -0.33824332279E+03  0.13188395667E+03  0.55273287480E+03  0.15294330000E+03 0.  0.
    8880022    1    1    2    0    0  0.38771130293E+03  0.33824332279E+03  0.60933121524E+03  0.81203742692E+03  0.15294330000E+03 0.  0.
<mgrwt>
<rscale>  0 0.53676834E+03</rscale>
<asrwt>0</asrwt>
<pdfrwt beam="1">  1        4 0.16199888E+00 0.53676834E+03</pdfrwt>
<pdfrwt beam="2">  1       -4 0.47965779E-01 0.53676834E+03</pdfrwt>
<totfact> 0.20005284E+00</totfact>
</mgrwt>
</event>
<event>
 4    1  0.8653772E-009  0.4196264E+03  0.7818608E-02  0.1037188E+00
         -4   -1    0    0    0  501 -0.00000000000E+00  0.00000000000E+00  0.67892583349E+03  0.67892702132E+03  0.12700000000E+01 0.  1.
          4   -1    0    0  501    0  0.00000000000E+00 -0.00000000000E+00 -0.39722335728E+03  0.39722538749E+03  0.12700000000E+01 0. -1.
    8880022    1    1    2    0    0 -0.31157275607E+03  0.23583265768E+03 -0.17614439171E+03  0.45509682980E+03  0.15294330000E+03 0.  0.
    8880022    1    1    2    0    0  0.31157275607E+03 -0.23583265768E+03  0.45784686791E+03  0.62105557901E+03  0.15294330000E+03 0.  0.
<mgrwt>
<rscale>  0 0.41962635E+03</rscale>
<asrwt>0</asrwt>
<pdfrwt beam="1">  1        4 0.61111533E-01 0.41962635E+03</pdfrwt>
<pdfrwt beam="2">  1       -4 0.10445038E+00 0.41962635E+03</pdfrwt>
<totfact> 0.36282132E+00</totfact>
</mgrwt>
</event>
<event>
 4    1  0.8653772E-009  0.1787600E+03  0.7818608E-02  0.1169009E+00
          4   -1    0    0  501    0  0.00000000000E+00  0.00000000000E+00  0.27093004799E+03  0.27093302457E+03  0.12700000000E+01 0.  1.
         -4   -1    0    0    0  501 -0.00000000000E+00 -0.00000000000E+00 -0.11975374598E+03  0.11976048003E+03  0.12700000000E+01 0.  1.
    8880022    1    1    2    0    0  0.30778825387E+02 -0.87270538727E+02  0.51541868211E+02  0.18604220009E+03  0.15294330000E+03 0.  0.
    8880022    1    1    2    0    0 -0.30778825387E+02  0.87270538727E+02  0.99634433797E+02  0.20465130450E+03  0.15294330000E+03 0.  0.
<mgrwt>
<rscale>  0 0.17876000E+03</rscale>
<asrwt>0</asrwt>
<pdfrwt beam="1">  1        4 0.41682292E-01 0.17876000E+03</pdfrwt>
<pdfrwt beam="2">  1       -4 0.18424401E-01 0.17876000E+03</pdfrwt>
<totfact> 0.25612316E+02</totfact>
</mgrwt>
</event>
<event>
 4    1  0.8653772E-009  0.3980574E+03  0.7818608E-02  0.1044454E+00
          4   -1    0    0  501    0  0.00000000000E+00  0.00000000000E+00  0.12503795335E+03  0.12504440283E+03  0.12700000000E+01 0.  1.
         -4   -1    0    0    0  501 -0.00000000000E+00 -0.00000000000E+00 -0.16076582882E+04  0.16076587898E+04  0.12700000000E+01 0.  1.
    8880022    1    1    2    0    0 -0.36328883812E+03  0.55490729446E+02 -0.11400095110E+04  0.12075062481E+04  0.15294330000E+03 0.  0.
    8880022    1    1    2    0    0  0.36328883812E+03 -0.55490729446E+02 -0.34261082384E+03  0.52519694457E+03  0.15294330000E+03 0.  0.
<mgrwt>
<rscale>  0 0.39805735E+03</rscale>
<asrwt>0</asrwt>
<pdfrwt beam="1">  1        4 0.19237144E-01 0.39805735E+03</pdfrwt>
<pdfrwt beam="2">  1       -4 0.24733256E+00 0.39805735E+03</pdfrwt>
<totfact> 0.32803715E+00</totfact>
</mgrwt>
</event>
<event>
 4    1  0.8653772E-009  0.2316340E+03  0.7818608E-02  0.1125495E+00
          4   -1    0    0  501    0  0.00000000000E+00  0.00000000000E+00  0.81568912197E+03  0.81569011064E+03  0.12700000000E+01 0.  1.
         -4   -1    0    0    0  501 -0.00000000000E+00 -0.00000000000E+00 -0.70014634336E+02  0.70026151695E+02  0.12700000000E+01 0.  1.
    8880022    1    1    2    0    0 -0.38772339799E+02  0.16958589148E+03  0.48185875874E+03  0.53464210956E+03  0.15294330000E+03 0.  0.
    8880022    1    1    2    0    0  0.38772339799E+02 -0.16958589148E+03  0.26381572889E+03  0.35107415277E+03  0.15294330000E+03 0.  0.
<mgrwt>
<rscale>  0 0.23163403E+03</rscale>
<asrwt>0</asrwt>
<pdfrwt beam="1">  1        4 0.12549159E+00 0.23163403E+03</pdfrwt>
<pdfrwt beam="2">  1       -4 0.10772445E-01 0.23163403E+03</pdfrwt>
<totfact> 0.60062988E+01</totfact>
</mgrwt>
</event>
<event>
 4    1  0.8653772E-009  0.2018373E+03  0.7818608E-02  0.1148198E+00
         -4   -1    0    0    0  501 -0.00000000000E+00  0.00000000000E+00  0.65623791914E+03  0.65623914804E+03  0.12700000000E+01 0.  1.
          4   -1    0    0  501    0  0.00000000000E+00 -0.00000000000E+00 -0.62075271050E+02  0.62088261176E+02  0.12700000000E+01 0.  1.
    8880022    1    1    2    0    0 -0.10000530569E+03 -0.85706311491E+02  0.29401598913E+03  0.35662822081E+03  0.15294330000E+03 0.  0.
    8880022    1    1    2    0    0  0.10000530569E+03  0.85706311491E+02  0.30014665896E+03  0.36169918841E+03  0.15294330000E+03 0.  0.
<mgrwt>
<rscale>  0 0.20183728E+03</rscale>
<asrwt>0</asrwt>
<pdfrwt beam="1">  1        4 0.95511353E-02 0.20183728E+03</pdfrwt>
<pdfrwt beam="2">  1       -4 0.10096078E+00 0.20183728E+03</pdfrwt>
<totfact> 0.12209033E+02</totfact>
</mgrwt>
</event>
<event>
 4    1  0.8653772E-009  0.1915386E+03  0.7818608E-02  0.1157081E+00
          4   -1    0    0  501    0  0.00000000000E+00  0.00000000000E+00  0.55579172541E+02  0.55593680579E+02  0.12700000000E+01 0.  1.
         -4   -1    0    0    0  501 -0.00000000000E+00 -0.00000000000E+00 -0.79735211119E+03  0.79735312260E+03  0.12700000000E+01 0.  1.
    8880022    1    1    2    0    0  0.95613923103E+02  0.64446521599E+02 -0.54789921357E+03  0.58041414325E+03  0.15294330000E+03 0.  0.
    8880022    1    1    2    0    0 -0.95613923103E+02 -0.64446521599E+02 -0.19387372508E+03  0.27253265993E+03  0.15294330000E+03 0.  0.
<mgrwt>
<rscale>  0 0.19153858E+03</rscale>
<asrwt>0</asrwt>
<pdfrwt beam="1">  1        4 0.85518363E-02 0.19153858E+03</pdfrwt>
<pdfrwt beam="2">  1       -4 0.12267074E+00 0.19153858E+03</pdfrwt>
<totfact> 0.91761472E+01</totfact>
</mgrwt>
</event>
<event>
 4    1  0.8653772E-009  0.1954072E+03  0.7818608E-02  0.1153673E+00
          4   -1    0    0  501    0  0.00000000000E+00  0.00000000000E+00  0.15090123767E+02  0.15143471706E+02  0.12700000000E+01 0. -1.
         -4   -1    0    0    0  501 -0.00000000000E+00 -0.00000000000E+00 -0.25505541431E+04  0.25505544593E+04  0.12700000000E+01 0. -1.
    8880022    1    1    2    0    0 -0.33335865386E+02  0.11696600885E+03 -0.13939151612E+04  0.14075451881E+04  0.15294330000E+03 0.  0.
    8880022    1    1    2    0    0  0.33335865386E+02 -0.11696600885E+03 -0.11415488581E+04  0.11581527428E+04  0.15294330000E+03 0.  0.
<mgrwt>
<rscale>  0 0.19540722E+03</rscale>
<asrwt>0</asrwt>
<pdfrwt beam="1">  1        4 0.23256875E-02 0.19540722E+03</pdfrwt>
<pdfrwt beam="2">  1       -4 0.39239673E+00 0.19540722E+03</pdfrwt>
<totfact> 0.14261326E+01</totfact>
</mgrwt>
</event>
<event>
 4    1  0.8653772E-009  0.2998484E+03  0.7818608E-02  0.1085316E+00
          4   -1    0    0  501    0  0.00000000000E+00  0.00000000000E+00  0.19859141422E+03  0.19859547503E+03  0.12700000000E+01 0.  1.
         -4   -1    0    0    0  501 -0.00000000000E+00 -0.00000000000E+00 -0.74361495643E+03  0.74361604093E+03  0.12700000000E+01 0.  1.
    8880022    1    1    2    0    0 -0.16251619158E+03 -0.20026450535E+03  0.22139097458E+02  0.30066455940E+03  0.15294330000E+03 0.  0.
    8880022    1    1    2    0    0  0.16251619158E+03  0.20026450535E+03 -0.56716263966E+03  0.64154695656E+03  0.15294330000E+03 0.  0.
<mgrwt>
<rscale>  0 0.29984836E+03</rscale>
<asrwt>0</asrwt>
<pdfrwt beam="1">  1        4 0.30552922E-01 0.29984836E+03</pdfrwt>
<pdfrwt beam="2">  1       -4 0.11440269E+00 0.29984836E+03</pdfrwt>
<totfact> 0.11700562E+01</totfact>
</mgrwt>
</event>
<event>
 4    1  0.8653772E-009  0.1987234E+03  0.7818608E-02  0.1150821E+00
         -4   -1    0    0    0  501 -0.00000000000E+00  0.00000000000E+00  0.27070758511E+02  0.27100532584E+02  0.12700000000E+01 0. -1.
          4   -1    0    0  501    0  0.00000000000E+00 -0.00000000000E+00 -0.15567582100E+04  0.15567587281E+04  0.12700000000E+01 0. -1.
    8880022    1    1    2    0    0  0.12478083220E+03 -0.23001633578E+02 -0.56535641376E+03  0.59926526583E+03  0.15294330000E+03 0.  0.
    8880022    1    1    2    0    0 -0.12478083220E+03  0.23001633578E+02 -0.96433103776E+03  0.98459399482E+03  0.15294330000E+03 0.  0.
<mgrwt>
<rscale>  0 0.19872339E+03</rscale>
<asrwt>0</asrwt>
<pdfrwt beam="1">  1        4 0.23950352E+00 0.19872339E+03</pdfrwt>
<pdfrwt beam="2">  1       -4 0.41670635E-02 0.19872339E+03</pdfrwt>
<totfact> 0.47586325E+01</totfact>
</mgrwt>
</event>
<event>
 4    1  0.8653772E-009  0.1675883E+03  0.7818608E-02  0.1180386E+00
          4   -1    0    0  501    0  0.00000000000E+00  0.00000000000E+00  0.38361562523E+02  0.38382579111E+02  0.12700000000E+01 0. -1.
         -4   -1    0    0    0  501 -0.00000000000E+00 -0.00000000000E+00 -0.82321717927E+03  0.82321815891E+03  0.12700000000E+01 0. -1.
    8880022    1    1    2    0    0 -0.62907654971E+02 -0.27144310262E+02 -0.24895860065E+03  0.30011035385E+03  0.15294330000E+03 0.  1.
    8880022    1    1    2    0    0  0.62907654971E+02  0.27144310262E+02 -0.53589701610E+03  0.56149038417E+03  0.15294330000E+03 0.  1.
<mgrwt>
<rscale>  0 0.16758830E+03</rscale>
<asrwt>0</asrwt>
<pdfrwt beam="1">  1        4 0.59034715E-02 0.16758830E+03</pdfrwt>
<pdfrwt beam="2">  1       -4 0.12665048E+00 0.16758830E+03</pdfrwt>
<totfact> 0.15365393E+02</totfact>
</mgrwt>
</event>
<event>
 4    1  0.8653772E-009  0.1937238E+03  0.7818608E-02  0.1155145E+00
          4   -1    0    0  501    0  0.00000000000E+00  0.00000000000E+00  0.32966707450E+03  0.32966952074E+03  0.12700000000E+01 0.  1.
         -4   -1    0    0    0  501 -0.00000000000E+00 -0.00000000000E+00 -0.11786443359E+03  0.11787127558E+03  0.12700000000E+01 0.  1.
    8880022    1    1    2    0    0 -0.93815063638E+02  0.73047792715E+02  0.14728769411E+03  0.24335686561E+03  0.15294330000E+03 0.  0.
    8880022    1    1    2    0    0  0.93815063638E+02 -0.73047792715E+02  0.64514946790E+02  0.20418393071E+03  0.15294330000E+03 0.  0.
<mgrwt>
<rscale>  0 0.19372377E+03</rscale>
<asrwt>0</asrwt>
<pdfrwt beam="1">  1        4 0.50718725E-01 0.19372377E+03</pdfrwt>
<pdfrwt beam="2">  1       -4 0.18133704E-01 0.19372377E+03</pdfrwt>
<totfact> 0.17942797E+02</totfact>
</mgrwt>
</event>
<event>
 4    1  0.8653772E-009  0.2542794E+03  0.7818608E-02  0.1110630E+00
          4   -1    0    0  501    0  0.00000000000E+00  0.00000000000E+00  0.74994074002E+02  0.75004826747E+02  0.12700000000E+01 0.  1.
         -4   -1    0    0    0  501 -0.00000000000E+00 -0.00000000000E+00 -0.99128386356E+03  0.99128467710E+03  0.12700000000E+01 0.  1.
    8880022    1    1    2    0    0  0.46667036797E+02 -0.19770822802E+03 -0.65060669603E+03  0.69853209067E+03  0.15294330000E+03 0.  0.
    8880022    1    1    2    0    0 -0.46667036797E+02  0.19770822802E+03 -0.26568309352E+03  0.36775741318E+03  0.15294330000E+03 0.  0.
<mgrwt>
<rscale>  0 0.25427939E+03</rscale>
<asrwt>0</asrwt>
<pdfrwt beam="1">  1        4 0.11538440E-01 0.25427939E+03</pdfrwt>
<pdfrwt beam="2">  1       -4 0.15250609E+00 0.25427939E+03</pdfrwt>
<totfact> 0.32886943E+01</totfact>
</mgrwt>
</event>
<event>
 4    1  0.8653772E-009  0.2068390E+03  0.7818608E-02  0.1144094E+00
         -4   -1    0    0    0  501 -0.00000000000E+00  0.00000000000E+00  0.26663097687E+03  0.26663400145E+03  0.12700000000E+01 0. -1.
          4   -1    0    0  501    0  0.00000000000E+00 -0.00000000000E+00 -0.31913248667E+03  0.31913501366E+03  0.12700000000E+01 0. -1.
    8880022    1    1    2    0    0 -0.11582274032E+03  0.77303317023E+02 -0.23277558994E+03  0.31139498758E+03  0.15294330000E+03 0.  0.
    8880022    1    1    2    0    0  0.11582274032E+03 -0.77303317023E+02  0.18027408015E+03  0.27437402754E+03  0.15294330000E+03 0.  0.
<mgrwt>
<rscale>  0 0.20683898E+03</rscale>
<asrwt>0</asrwt>
<pdfrwt beam="1">  1        4 0.49097732E-01 0.20683898E+03</pdfrwt>
<pdfrwt beam="2">  1       -4 0.41020578E-01 0.20683898E+03</pdfrwt>
<totfact> 0.41522619E+01</totfact>
</mgrwt>
</event>
<event>
 4    1  0.8653772E-009  0.2228442E+03  0.7818608E-02  0.1131780E+00
          4   -1    0    0  501    0  0.00000000000E+00  0.00000000000E+00  0.63908359654E+03  0.63908485842E+03  0.12700000000E+01 0. -1.
         -4   -1    0    0    0  501 -0.00000000000E+00 -0.00000000000E+00 -0.97892927973E+02  0.97901165709E+02  0.12700000000E+01 0. -1.
    8880022    1    1    2    0    0  0.12701050099E+03  0.10067870299E+03  0.43795628148E+03  0.49139111317E+03  0.15294330000E+03 0.  0.
    8880022    1    1    2    0    0 -0.12701050099E+03 -0.10067870299E+03  0.10323438708E+03  0.24559491096E+03  0.15294330000E+03 0.  0.
<mgrwt>
<rscale>  0 0.22284416E+03</rscale>
<asrwt>0</asrwt>
<pdfrwt beam="1">  1        4 0.98321282E-01 0.22284416E+03</pdfrwt>
<pdfrwt beam="2">  1       -4 0.15061182E-01 0.22284416E+03</pdfrwt>
<totfact> 0.59900482E+01</totfact>
</mgrwt>
</event>
<event>
 4    1  0.8653772E-009  0.2061052E+03  0.7818608E-02  0.1144688E+00
          4   -1    0    0  501    0  0.00000000000E+00  0.00000000000E+00  0.21222859039E+03  0.21223239026E+03  0.12700000000E+01 0. -1.
         -4   -1    0    0    0  501 -0.00000000000E+00 -0.00000000000E+00 -0.31864809448E+03  0.31865062531E+03  0.12700000000E+01 0. -1.
    8880022    1    1    2    0    0  0.13787427993E+03 -0.88523242552E+01  0.10865883986E+03  0.23299372782E+03  0.15294330000E+03 0. -1.
    8880022    1    1    2    0    0 -0.13787427993E+03  0.88523242552E+01 -0.21507834395E+03  0.29788928776E+03  0.15294330000E+03 0. -1.
<mgrwt>
<rscale>  0 0.20610515E+03</rscale>
<asrwt>0</asrwt>
<pdfrwt beam="1">  1        4 0.32651039E-01 0.20610515E+03</pdfrwt>
<pdfrwt beam="2">  1       -4 0.49023271E-01 0.20610515E+03</pdfrwt>
<totfact> 0.65104546E+01</totfact>
</mgrwt>
</event>
<event>
 4    1  0.8653772E-009  0.1561873E+03  0.7818608E-02  0.1193070E+00
          4   -1    0    0  501    0  0.00000000000E+00  0.00000000000E+00  0.83630634525E+03  0.83630730955E+03  0.12700000000E+01 0. -1.
         -4   -1    0    0    0  501 -0.00000000000E+00 -0.00000000000E+00 -0.34542122406E+02  0.34565461378E+02  0.12700000000E+01 0. -1.
    8880022    1    1    2    0    0  0.14047614206E+02  0.28380816177E+02  0.22897918116E+03  0.27717489896E+03  0.15294330000E+03 0. -1.
    8880022    1    1    2    0    0 -0.14047614206E+02 -0.28380816177E+02  0.57278504168E+03  0.59369787197E+03  0.15294330000E+03 0. -1.
<mgrwt>
<rscale>  0 0.15618726E+03</rscale>
<asrwt>0</asrwt>
<pdfrwt beam="1">  1        4 0.12866438E+00 0.15618726E+03</pdfrwt>
<pdfrwt beam="2">  1       -4 0.53160424E-02 0.15618726E+03</pdfrwt>
<totfact> 0.17338209E+02</totfact>
</mgrwt>
</event>
<event>
 4    1  0.8653772E-009  0.2230456E+03  0.7818608E-02  0.1131633E+00
          4   -1    0    0  501    0  0.00000000000E+00  0.00000000000E+00  0.10440305707E+04  0.10440313431E+04  0.12700000000E+01 0. -1.
         -4   -1    0    0    0  501 -0.00000000000E+00 -0.00000000000E+00 -0.10210380064E+03  0.10211169867E+03  0.12700000000E+01 0. -1.
    8880022    1    1    2    0    0  0.16233809049E+03  0.20128795808E+01  0.88947339341E+03  0.91701269234E+03  0.15294330000E+03 0.  0.
    8880022    1    1    2    0    0 -0.16233809049E+03 -0.20128795808E+01  0.52453376637E+02  0.22913034946E+03  0.15294330000E+03 0.  0.
<mgrwt>
<rscale>  0 0.22304565E+03</rscale>
<asrwt>0</asrwt>
<pdfrwt beam="1">  1        4 0.16062076E+00 0.22304565E+03</pdfrwt>
<pdfrwt beam="2">  1       -4 0.15708943E-01 0.22304565E+03</pdfrwt>
<totfact> 0.16540885E+01</totfact>
</mgrwt>
</event>
<event>
 4    1  0.8653772E-009  0.1769213E+03  0.7818608E-02  0.1170816E+00
          4   -1    0    0  501    0  0.00000000000E+00  0.00000000000E+00  0.96097370346E+02  0.96105761988E+02  0.12700000000E+01 0. -1.
         -4   -1    0    0    0  501 -0.00000000000E+00 -0.00000000000E+00 -0.34066905822E+03  0.34067142547E+03  0.12700000000E+01 0. -1.
    8880022    1    1    2    0    0  0.50757349528E+02 -0.73028581035E+02 -0.76507026449E+02  0.19275492287E+03  0.15294330000E+03 0.  0.
    8880022    1    1    2    0    0 -0.50757349528E+02  0.73028581035E+02 -0.16806466143E+03  0.24402226459E+03  0.15294330000E+03 0.  0.
<mgrwt>
<rscale>  0 0.17692127E+03</rscale>
<asrwt>0</asrwt>
<pdfrwt beam="1">  1        4 0.14785039E-01 0.17692127E+03</pdfrwt>
<pdfrwt beam="2">  1       -4 0.52411451E-01 0.17692127E+03</pdfrwt>
<totfact> 0.23741124E+02</totfact>
</mgrwt>
</event>
<event>
 4    1  0.8653772E-009  0.1694794E+03  0.7818608E-02  0.1178392E+00
         -4   -1    0    0    0  501 -0.00000000000E+00  0.00000000000E+00  0.66340699647E+03  0.66340821208E+03  0.12700000000E+01 0. -1.
          4   -1    0    0  501    0  0.00000000000E+00 -0.00000000000E+00 -0.49770182008E+02  0.49786382848E+02  0.12700000000E+01 0. -1.
    8880022    1    1    2    0    0  0.65624547469E+02 -0.32016128731E+02  0.17813020112E+03  0.24587320979E+03  0.15294330000E+03 0.  1.
    8880022    1    1    2    0    0 -0.65624547469E+02  0.32016128731E+02  0.43550661334E+03  0.46732138514E+03  0.15294330000E+03 0.  1.
<mgrwt>
<rscale>  0 0.16947940E+03</rscale>
<asrwt>0</asrwt>
<pdfrwt beam="1">  1        4 0.76582909E-02 0.16947940E+03</pdfrwt>
<pdfrwt beam="2">  1       -4 0.10206395E+00 0.16947940E+03</pdfrwt>
<totfact> 0.16800256E+02</totfact>
</mgrwt>
</event>
<event>
 4    1  0.8653772E-009  0.2502635E+03  0.7818608E-02  0.1113138E+00
         -4   -1    0    0    0  501 -0.00000000000E+00  0.00000000000E+00  0.84825386631E+02  0.84834893276E+02  0.12700000000E+01 0. -1.
          4   -1    0    0  501    0  0.00000000000E+00 -0.00000000000E+00 -0.74167990147E+03  0.74168098880E+03  0.12700000000E+01 0. -1.
    8880022    1    1    2    0    0 -0.58113156588E+02 -0.18937542601E+03 -0.30057373975E+03  0.39112199757E+03  0.15294330000E+03 0.  0.
    8880022    1    1    2    0    0  0.58113156588E+02  0.18937542601E+03 -0.35628077509E+03  0.43539388450E+03  0.15294330000E+03 0.  0.
<mgrwt>
<rscale>  0 0.25026355E+03</rscale>
<asrwt>0</asrwt>
<pdfrwt beam="1">  1        4 0.11410541E+00 0.25026355E+03</pdfrwt>
<pdfrwt beam="2">  1       -4 0.13050875E-01 0.25026355E+03</pdfrwt>
<totfact> 0.54811890E+01</totfact>
</mgrwt>
</event>
<event>
 4    1  0.8653772E-009  0.1650949E+03  0.7818608E-02  0.1183062E+00
          4   -1    0    0  501    0  0.00000000000E+00  0.00000000000E+00  0.41222299750E+03  0.41222495384E+03  0.12700000000E+01 0. -1.
         -4   -1    0    0    0  501 -0.00000000000E+00 -0.00000000000E+00 -0.14539754957E+03  0.14540309598E+03  0.12700000000E+01 0. -1.
    8880022    1    1    2    0    0  0.43308884089E+02 -0.44598278036E+02  0.33929388545E+03  0.37732831800E+03  0.15294330000E+03 0.  0.
    8880022    1    1    2    0    0 -0.43308884089E+02  0.44598278036E+02 -0.72468437522E+02  0.18029973183E+03  0.15294330000E+03 0.  0.
<mgrwt>
<rscale>  0 0.16509488E+03</rscale>
<asrwt>0</asrwt>
<pdfrwt beam="1">  1        4 0.63419499E-01 0.16509488E+03</pdfrwt>
<pdfrwt beam="2">  1       -4 0.22369431E-01 0.16509488E+03</pdfrwt>
<totfact> 0.75099283E+01</totfact>
</mgrwt>
</event>
<event>
 4    1  0.8653772E-009  0.1915342E+03  0.7818608E-02  0.1157085E+00
          4   -1    0    0  501    0  0.00000000000E+00  0.00000000000E+00  0.56706479711E+02  0.56720699407E+02  0.12700000000E+01 0.  1.
         -4   -1    0    0    0  501 -0.00000000000E+00 -0.00000000000E+00 -0.67281889533E+03  0.67282009394E+03  0.12700000000E+01 0.  1.
    8880022    1    1    2    0    0  0.33689456954E+02 -0.11026654352E+03 -0.23637701843E+03  0.30423582627E+03  0.15294330000E+03 0.  1.
    8880022    1    1    2    0    0 -0.33689456954E+02  0.11026654352E+03 -0.37973539719E+03  0.42530496708E+03  0.15294330000E+03 0.  1.
<mgrwt>
<rscale>  0 0.19153418E+03</rscale>
<asrwt>0</asrwt>
<pdfrwt beam="1">  1        4 0.87252603E-02 0.19153418E+03</pdfrwt>
<pdfrwt beam="2">  1       -4 0.10351178E+00 0.19153418E+03</pdfrwt>
<totfact> 0.13314456E+02</totfact>
</mgrwt>
</event>
<event>
 4    1  0.8653772E-009  0.1829605E+03  0.7818608E-02  0.1164968E+00
          4   -1    0    0  501    0  0.00000000000E+00  0.00000000000E+00  0.85126378064E+02  0.85135851099E+02  0.12700000000E+01 0. -1.
         -4   -1    0    0    0  501 -0.00000000000E+00 -0.00000000000E+00 -0.39323885372E+03  0.39324090450E+03  0.12700000000E+01 0. -1.
    8880022    1    1    2    0    0  0.96385824402E+02  0.28154403326E+02 -0.15171588695E+03  0.23768100669E+03  0.15294330000E+03 0.  0.
    8880022    1    1    2    0    0 -0.96385824402E+02 -0.28154403326E+02 -0.15639658870E+03  0.24069574891E+03  0.15294330000E+03 0.  0.
<mgrwt>
<rscale>  0 0.18296052E+03</rscale>
<asrwt>0</asrwt>
<pdfrwt beam="1">  1        4 0.13097253E-01 0.18296052E+03</pdfrwt>
<pdfrwt beam="2">  1       -4 0.60499171E-01 0.18296052E+03</pdfrwt>
<totfact> 0.21846800E+02</totfact>
</mgrwt>
</event>
<event>
 4    1  0.8653772E-009  0.3091432E+03  0.7818608E-02  0.1080757E+00
         -4   -1    0    0    0  501 -0.00000000000E+00  0.00000000000E+00  0.32348172416E+03  0.32348421718E+03  0.12700000000E+01 0.  1.
          4   -1    0    0  501    0  0.00000000000E+00 -0.00000000000E+00 -0.30045631661E+03  0.30045900069E+03  0.12700000000E+01 0.  1.
    8880022    1    1    2    0    0  0.18497604654E+02 -0.26802182557E+03 -0.28816491682E+02  0.31048333863E+03  0.15294330000E+03 0.  0.
    8880022    1    1    2    0    0 -0.18497604654E+02  0.26802182557E+03  0.51841899229E+02  0.31345987924E+03  0.15294330000E+03 0.  0.
<mgrwt>
<rscale>  0 0.30914319E+03</rscale>
<asrwt>0</asrwt>
<pdfrwt beam="1">  1        4 0.46224447E-01 0.30914319E+03</pdfrwt>
<pdfrwt beam="2">  1       -4 0.49766817E-01 0.30914319E+03</pdfrwt>
<totfact> 0.33079182E+01</totfact>
</mgrwt>
</event>
<event>
 4    1  0.8653772E-009  0.1765793E+03  0.7818608E-02  0.1171155E+00
          4   -1    0    0  501    0  0.00000000000E+00  0.00000000000E+00  0.20403852427E+03  0.20404247667E+03  0.12700000000E+01 0. -1.
         -4   -1    0    0    0  501 -0.00000000000E+00 -0.00000000000E+00 -0.29103152429E+03  0.29103429528E+03  0.12700000000E+01 0. -1.
    8880022    1    1    2    0    0  0.61691180426E+02  0.63109385229E+02  0.12709542248E+03  0.21756262472E+03  0.15294330000E+03 0.  0.
    8880022    1    1    2    0    0 -0.61691180426E+02 -0.63109385229E+02 -0.21408842250E+03  0.27751414722E+03  0.15294330000E+03 0.  0.
<mgrwt>
<rscale>  0 0.17657930E+03</rscale>
<asrwt>0</asrwt>
<pdfrwt beam="1">  1        4 0.31391059E-01 0.17657930E+03</pdfrwt>
<pdfrwt beam="2">  1       -4 0.44774598E-01 0.17657930E+03</pdfrwt>
<totfact> 0.82693457E+01</totfact>
</mgrwt>
</event>
<event>
 4    1  0.8653772E-009  0.2879140E+03  0.7818608E-02  0.1091443E+00
          4   -1    0    0  501    0  0.00000000000E+00  0.00000000000E+00  0.27117736990E+03  0.27118034377E+03  0.12700000000E+01 0.  1.
         -4   -1    0    0    0  501 -0.00000000000E+00 -0.00000000000E+00 -0.31226125420E+03  0.31226383681E+03  0.12700000000E+01 0.  1.
    8880022    1    1    2    0    0 -0.10104899540E+03  0.22201787718E+03  0.21816206825E+02  0.28873939314E+03  0.15294330000E+03 0.  0.
    8880022    1    1    2    0    0  0.10104899540E+03 -0.22201787718E+03 -0.62900091128E+02  0.29470478743E+03  0.15294330000E+03 0.  0.
<mgrwt>
<rscale>  0 0.28791403E+03</rscale>
<asrwt>0</asrwt>
<pdfrwt beam="1">  1        4 0.41720023E-01 0.28791403E+03</pdfrwt>
<pdfrwt beam="2">  1       -4 0.48040620E-01 0.28791403E+03</pdfrwt>
<totfact> 0.43501501E+01</totfact>
</mgrwt>
</event>
<event>
 4    1  0.8653772E-009  0.1944451E+03  0.7818608E-02  0.1154512E+00
          4   -1    0    0  501    0  0.00000000000E+00  0.00000000000E+00  0.63577005485E+02  0.63589688837E+02  0.12700000000E+01 0. -1.
         -4   -1    0    0    0  501 -0.00000000000E+00 -0.00000000000E+00 -0.85713562533E+03  0.85713656619E+03  0.12700000000E+01 0. -1.
    8880022    1    1    2    0    0  0.39743416146E+01  0.12000595960E+03 -0.14200916033E+03  0.24078098007E+03  0.15294330000E+03 0.  0.
    8880022    1    1    2    0    0 -0.39743416146E+01 -0.12000595960E+03 -0.65154945952E+03  0.67994527496E+03  0.15294330000E+03 0.  0.
<mgrwt>
<rscale>  0 0.19444505E+03</rscale>
<asrwt>0</asrwt>
<pdfrwt beam="1">  1        4 0.97821264E-02 0.19444505E+03</pdfrwt>
<pdfrwt beam="2">  1       -4 0.13186806E+00 0.19444505E+03</pdfrwt>
<totfact> 0.61356374E+01</totfact>
</mgrwt>
</event>
<event>
 4    1  0.8653772E-009  0.4204898E+03  0.7818608E-02  0.1036907E+00
         -4   -1    0    0    0  501 -0.00000000000E+00  0.00000000000E+00  0.81678001932E+02  0.81687874863E+02  0.12700000000E+01 0. -1.
          4   -1    0    0  501    0  0.00000000000E+00 -0.00000000000E+00 -0.26763675804E+04  0.26763678817E+04  0.12700000000E+01 0. -1.
    8880022    1    1    2    0    0 -0.13180778077E+03 -0.36884518252E+03 -0.19003703329E+04  0.19463347900E+04  0.15294330000E+03 0.  0.
    8880022    1    1    2    0    0  0.13180778077E+03  0.36884518252E+03 -0.69431924555E+03  0.81172096652E+03  0.15294330000E+03 0.  0.
<mgrwt>
<rscale>  0 0.42048985E+03</rscale>
<asrwt>0</asrwt>
<pdfrwt beam="1">  1        4 0.41174957E+00 0.42048985E+03</pdfrwt>
<pdfrwt beam="2">  1       -4 0.12566631E-01 0.42048985E+03</pdfrwt>
<totfact> 0.65439811E-01</totfact>
</mgrwt>
</event>
<event>
 4    1  0.8653772E-009  0.1639468E+03  0.7818608E-02  0.1184312E+00
         -4   -1    0    0    0  501 -0.00000000000E+00  0.00000000000E+00  0.71144508912E+02  0.71155843389E+02  0.12700000000E+01 0. -1.
          4   -1    0    0  501    0  0.00000000000E+00 -0.00000000000E+00 -0.69959063979E+03  0.69959179253E+03  0.12700000000E+01 0. -1.
    8880022    1    1    2    0    0  0.34382113538E+02 -0.48007982948E+02 -0.57560171026E+03  0.59849467670E+03  0.15294330000E+03 0.  0.
    8880022    1    1    2    0    0 -0.34382113538E+02  0.48007982948E+02 -0.52844420613E+02  0.17225295923E+03  0.15294330000E+03 0.  0.
<mgrwt>
<rscale>  0 0.16394679E+03</rscale>
<asrwt>0</asrwt>
<pdfrwt beam="1">  1        4 0.10763029E+00 0.16394679E+03</pdfrwt>
<pdfrwt beam="2">  1       -4 0.10946270E-01 0.16394679E+03</pdfrwt>
<totfact> 0.80960428E+01</totfact>
</mgrwt>
</event>
<event>
 4    1  0.8653772E-009  0.1789624E+03  0.7818608E-02  0.1168811E+00
          4   -1    0    0  501    0  0.00000000000E+00  0.00000000000E+00  0.47141505647E+03  0.47141676717E+03  0.12700000000E+01 0.  1.
         -4   -1    0    0    0  501 -0.00000000000E+00 -0.00000000000E+00 -0.81549324783E+02  0.81559213291E+02  0.12700000000E+01 0.  1.
    8880022    1    1    2    0    0  0.20818089392E+02 -0.90567620126E+02  0.30790941045E+03  0.35614006334E+03  0.15294330000E+03 0.  0.
    8880022    1    1    2    0    0 -0.20818089392E+02  0.90567620126E+02  0.81956321243E+02  0.19683591712E+03  0.15294330000E+03 0.  0.
<mgrwt>
<rscale>  0 0.17896240E+03</rscale>
<asrwt>0</asrwt>
<pdfrwt beam="1">  1        4 0.72526284E-01 0.17896240E+03</pdfrwt>
<pdfrwt beam="2">  1       -4 0.12546943E-01 0.17896240E+03</pdfrwt>
<totfact> 0.15881075E+02</totfact>
</mgrwt>
</event>
<event>
 4    1  0.8653772E-009  0.1726308E+03  0.7818608E-02  0.1175132E+00
         -4   -1    0    0    0  501 -0.00000000000E+00  0.00000000000E+00  0.53848958500E+02  0.53863932567E+02  0.12700000000E+01 0. -1.
          4   -1    0    0  501    0  0.00000000000E+00 -0.00000000000E+00 -0.61380776437E+03  0.61380907821E+03  0.12700000000E+01 0. -1.
    8880022    1    1    2    0    0  0.38288569264E+02 -0.70311714174E+02 -0.38476419274E+03  0.42171659763E+03  0.15294330000E+03 0.  1.
    8880022    1    1    2    0    0 -0.38288569264E+02  0.70311714174E+02 -0.17519461312E+03  0.24595641315E+03  0.15294330000E+03 0.  1.
<mgrwt>
<rscale>  0 0.17263083E+03</rscale>
<asrwt>0</asrwt>
<pdfrwt beam="1">  1        4 0.94433212E-01 0.17263083E+03</pdfrwt>
<pdfrwt beam="2">  1       -4 0.82857085E-02 0.17263083E+03</pdfrwt>
<totfact> 0.17691554E+02</totfact>
</mgrwt>
</event>
<event>
 4    1  0.8653772E-009  0.1813891E+03  0.7818608E-02  0.1166465E+00
          4   -1    0    0  501    0  0.00000000000E+00  0.00000000000E+00  0.18091307492E+03  0.18091753253E+03  0.12700000000E+01 0.  1.
         -4   -1    0    0    0  501 -0.00000000000E+00 -0.00000000000E+00 -0.18294227210E+03  0.18294668027E+03  0.12700000000E+01 0.  1.
    8880022    1    1    2    0    0 -0.77135260666E+02  0.59669947137E+02  0.12994826376E+02  0.18185397867E+03  0.15294330000E+03 0.  0.
    8880022    1    1    2    0    0  0.77135260666E+02 -0.59669947137E+02 -0.15024023553E+02  0.18201023413E+03  0.15294330000E+03 0.  0.
<mgrwt>
<rscale>  0 0.18138910E+03</rscale>
<asrwt>0</asrwt>
<pdfrwt beam="1">  1        4 0.27833463E-01 0.18138910E+03</pdfrwt>
<pdfrwt beam="2">  1       -4 0.28145647E-01 0.18138910E+03</pdfrwt>
<totfact> 0.25747484E+02</totfact>
</mgrwt>
</event>
<event>
 4    1  0.8653772E-009  0.1824539E+03  0.7818608E-02  0.1165449E+00
         -4   -1    0    0    0  501 -0.00000000000E+00  0.00000000000E+00  0.14654849248E+03  0.14655399534E+03  0.12700000000E+01 0. -1.
          4   -1    0    0  501    0  0.00000000000E+00 -0.00000000000E+00 -0.58880394628E+03  0.58880531592E+03  0.12700000000E+01 0. -1.
    8880022    1    1    2    0    0 -0.60690740893E+02 -0.78831488607E+02  0.67030498874E+02  0.19437723740E+03  0.15294330000E+03 0.  0.
    8880022    1    1    2    0    0  0.60690740893E+02  0.78831488607E+02 -0.50928595267E+03  0.54098207385E+03  0.15294330000E+03 0.  0.
<mgrwt>
<rscale>  0 0.18245389E+03</rscale>
<asrwt>0</asrwt>
<pdfrwt beam="1">  1        4 0.90585750E-01 0.18245389E+03</pdfrwt>
<pdfrwt beam="2">  1       -4 0.22546451E-01 0.18245389E+03</pdfrwt>
<totfact> 0.34205575E+01</totfact>
</mgrwt>
</event>
<event>
 4    1  0.8653772E-009  0.3112122E+03  0.7818608E-02  0.1079766E+00
          4   -1    0    0  501    0  0.00000000000E+00  0.00000000000E+00  0.36367591444E+03  0.36367813193E+03  0.12700000000E+01 0. -1.
         -4   -1    0    0    0  501 -0.00000000000E+00 -0.00000000000E+00 -0.30111504316E+03  0.30111772136E+03  0.12700000000E+01 0. -1.
    8880022    1    1    2    0    0 -0.12792030568E+03  0.23895138048E+03 -0.81723922107E+02  0.32176360779E+03  0.15294330000E+03 0.  0.
    8880022    1    1    2    0    0  0.12792030568E+03 -0.23895138048E+03  0.14428479338E+03  0.34303224550E+03  0.15294330000E+03 0.  0.
<mgrwt>
<rscale>  0 0.31121218E+03</rscale>
<asrwt>0</asrwt>
<pdfrwt beam="1">  1        4 0.55950517E-01 0.31121218E+03</pdfrwt>
<pdfrwt beam="2">  1       -4 0.46325768E-01 0.31121218E+03</pdfrwt>
<totfact> 0.25800174E+01</totfact>
</mgrwt>
</event>
<event>
 4    1  0.8653772E-009  0.2335481E+03  0.7818608E-02  0.1124167E+00
         -4   -1    0    0    0  501 -0.00000000000E+00  0.00000000000E+00  0.29936307978E+02  0.29963234728E+02  0.12700000000E+01 0.  1.
          4   -1    0    0  501    0  0.00000000000E+00 -0.00000000000E+00 -0.18557059084E+04  0.18557063430E+04  0.12700000000E+01 0.  1.
    8880022    1    1    2    0    0  0.81000048124E+02 -0.15681853568E+03 -0.78428053803E+03  0.81831575585E+03  0.15294330000E+03 0.  0.
    8880022    1    1    2    0    0 -0.81000048124E+02  0.15681853568E+03 -0.10414890624E+04  0.10673538219E+04  0.15294330000E+03 0.  0.
<mgrwt>
<rscale>  0 0.23354810E+03</rscale>
<asrwt>0</asrwt>
<pdfrwt beam="1">  1        4 0.28549523E+00 0.23354810E+03</pdfrwt>
<pdfrwt beam="2">  1       -4 0.46076920E-02 0.23354810E+03</pdfrwt>
<totfact> 0.22014665E+01</totfact>
</mgrwt>
</event>
<event>
 4    1  0.8653772E-009  0.2911500E+03  0.7818608E-02  0.1089750E+00
          4   -1    0    0  501    0  0.00000000000E+00  0.00000000000E+00  0.43669974558E+03  0.43670159227E+03  0.12700000000E+01 0.  1.
         -4   -1    0    0    0  501 -0.00000000000E+00 -0.00000000000E+00 -0.19816254102E+03  0.19816661061E+03  0.12700000000E+01 0.  1.
    8880022    1    1    2    0    0 -0.17291359601E+03 -0.17741920291E+03  0.16467997226E+03  0.33449638492E+03  0.15294330000E+03 0.  0.
    8880022    1    1    2    0    0  0.17291359601E+03  0.17741920291E+03  0.73857232302E+02  0.30037181796E+03  0.15294330000E+03 0.  0.
<mgrwt>
<rscale>  0 0.29115003E+03</rscale>
<asrwt>0</asrwt>
<pdfrwt beam="1">  1        4 0.67185031E-01 0.29115003E+03</pdfrwt>
<pdfrwt beam="2">  1       -4 0.30487000E-01 0.29115003E+03</pdfrwt>
<totfact> 0.39703273E+01</totfact>
</mgrwt>
</event>
<event>
 4    1  0.8653772E-009  0.1548794E+03  0.7818608E-02  0.1194602E+00
         -4   -1    0    0    0  501 -0.00000000000E+00  0.00000000000E+00  0.15742310593E+03  0.15742822867E+03  0.12700000000E+01 0. -1.
          4   -1    0    0  501    0  0.00000000000E+00 -0.00000000000E+00 -0.16136420300E+03  0.16136920062E+03  0.12700000000E+01 0. -1.
    8880022    1    1    2    0    0 -0.17958172539E+02 -0.16537376605E+02  0.35667861004E+02  0.15893341407E+03  0.15294330000E+03 0. -1.
    8880022    1    1    2    0    0  0.17958172539E+02  0.16537376605E+02 -0.39608958071E+02  0.15986401521E+03  0.15294330000E+03 0. -1.
<mgrwt>
<rscale>  0 0.15487942E+03</rscale>
<asrwt>0</asrwt>
<pdfrwt beam="1">  1        4 0.24826040E-01 0.15487942E+03</pdfrwt>
<pdfrwt beam="2">  1       -4 0.24219718E-01 0.15487942E+03</pdfrwt>
<totfact> 0.41055931E+02</totfact>
</mgrwt>
</event>
<event>
 4    1  0.8653772E-009  0.1871721E+03  0.7818608E-02  0.1161037E+00
          4   -1    0    0  501    0  0.00000000000E+00  0.00000000000E+00  0.10288275092E+03  0.10289058915E+03  0.12700000000E+01 0.  1.
         -4   -1    0    0    0  501 -0.00000000000E+00 -0.00000000000E+00 -0.81597657111E+03  0.81597755944E+03  0.12700000000E+01 0.  1.
    8880022    1    1    2    0    0 -0.40514866236E+02 -0.10000143809E+03 -0.70725707896E+03  0.73160506475E+03  0.15294330000E+03 0.  0.
    8880022    1    1    2    0    0  0.40514866236E+02  0.10000143809E+03 -0.58367412310E+01  0.18726308384E+03  0.15294330000E+03 0.  0.
<mgrwt>
<rscale>  0 0.18717210E+03</rscale>
<asrwt>0</asrwt>
<pdfrwt beam="1">  1        4 0.15828795E-01 0.18717210E+03</pdfrwt>
<pdfrwt beam="2">  1       -4 0.12553553E+00 0.18717210E+03</pdfrwt>
<totfact> 0.30007124E+01</totfact>
</mgrwt>
</event>
<event>
 4    1  0.8653772E-009  0.2541302E+03  0.7818608E-02  0.1110722E+00
          4   -1    0    0  501    0  0.00000000000E+00  0.00000000000E+00  0.45873522479E+03  0.45873698277E+03  0.12700000000E+01 0. -1.
         -4   -1    0    0    0  501 -0.00000000000E+00 -0.00000000000E+00 -0.14086065495E+03  0.14086637999E+03  0.12700000000E+01 0. -1.
    8880022    1    1    2    0    0  0.13087855263E+03  0.15511703767E+03  0.15168211849E+03  0.29595541725E+03  0.15294330000E+03 0.  0.
    8880022    1    1    2    0    0 -0.13087855263E+03 -0.15511703767E+03  0.16619245135E+03  0.30364794551E+03  0.15294330000E+03 0.  0.
<mgrwt>
<rscale>  0 0.25413017E+03</rscale>
<asrwt>0</asrwt>
<pdfrwt beam="1">  1        4 0.70575227E-01 0.25413017E+03</pdfrwt>
<pdfrwt beam="2">  1       -4 0.21671445E-01 0.25413017E+03</pdfrwt>
<totfact> 0.66741696E+01</totfact>
</mgrwt>
</event>
<event>
 4    1  0.8653772E-009  0.3453622E+03  0.7818608E-02  0.1064535E+00
         -4   -1    0    0    0  501 -0.00000000000E+00  0.00000000000E+00  0.63838378237E+02  0.63851009671E+02  0.12700000000E+01 0. -1.
          4   -1    0    0  501    0  0.00000000000E+00 -0.00000000000E+00 -0.23479459259E+04  0.23479462693E+04  0.12700000000E+01 0. -1.
    8880022    1    1    2    0    0 -0.30955811738E+03 -0.75608434761E+01 -0.59695619575E+03  0.68966060279E+03  0.15294330000E+03 0.  0.
    8880022    1    1    2    0    0  0.30955811738E+03  0.75608434761E+01 -0.16871513519E+04  0.17221366762E+04  0.15294330000E+03 0.  0.
<mgrwt>
<rscale>  0 0.34536220E+03</rscale>
<asrwt>0</asrwt>
<pdfrwt beam="1">  1        4 0.36122338E+00 0.34536220E+03</pdfrwt>
<pdfrwt beam="2">  1       -4 0.98222888E-02 0.34536220E+03</pdfrwt>
<totfact> 0.21833990E+00</totfact>
</mgrwt>
</event>
<event>
 4    1  0.8653772E-009  0.1548869E+03  0.7818608E-02  0.1194593E+00
          4   -1    0    0  501    0  0.00000000000E+00  0.00000000000E+00  0.17858677131E+03  0.17859128699E+03  0.12700000000E+01 0.  1.
         -4   -1    0    0    0  501 -0.00000000000E+00 -0.00000000000E+00 -0.14444531786E+03  0.14445090083E+03  0.12700000000E+01 0.  1.
    8880022    1    1    2    0    0  0.21471706375E+02 -0.11716585516E+02  0.59827107647E+02  0.16603989995E+03  0.15294330000E+03 0. -1.
    8880022    1    1    2    0    0 -0.21471706375E+02  0.11716585516E+02 -0.25685654192E+02  0.15700228787E+03  0.15294330000E+03 0. -1.
<mgrwt>
<rscale>  0 0.15488694E+03</rscale>
<asrwt>0</asrwt>
<pdfrwt beam="1">  1        4 0.27475665E-01 0.15488694E+03</pdfrwt>
<pdfrwt beam="2">  1       -4 0.22223133E-01 0.15488694E+03</pdfrwt>
<totfact> 0.39807220E+02</totfact>
</mgrwt>
</event>
<event>
 4    1  0.8653772E-009  0.3494606E+03  0.7818608E-02  0.1062837E+00
         -4   -1    0    0    0  501 -0.00000000000E+00  0.00000000000E+00  0.11619417031E+03  0.11620111064E+03  0.12700000000E+01 0.  1.
          4   -1    0    0  501    0  0.00000000000E+00 -0.00000000000E+00 -0.11429830005E+04  0.11429837061E+04  0.12700000000E+01 0.  1.
    8880022    1    1    2    0    0 -0.31327423416E+03  0.24296245228E+02 -0.33477452889E+03  0.48393872704E+03  0.15294330000E+03 0.  0.
    8880022    1    1    2    0    0  0.31327423416E+03 -0.24296245228E+02 -0.69201430131E+03  0.77524608967E+03  0.15294330000E+03 0.  0.
<mgrwt>
<rscale>  0 0.34946059E+03</rscale>
<asrwt>0</asrwt>
<pdfrwt beam="1">  1        4 0.17584412E+00 0.34946059E+03</pdfrwt>
<pdfrwt beam="2">  1       -4 0.17876615E-01 0.34946059E+03</pdfrwt>
<totfact> 0.10587689E+01</totfact>
</mgrwt>
</event>
<event>
 4    1  0.8653772E-009  0.2873125E+03  0.7818608E-02  0.1091761E+00
          4   -1    0    0  501    0  0.00000000000E+00  0.00000000000E+00  0.49496689620E+03  0.49496852550E+03  0.12700000000E+01 0. -1.
         -4   -1    0    0    0  501 -0.00000000000E+00 -0.00000000000E+00 -0.22795021450E+03  0.22795375230E+03  0.12700000000E+01 0. -1.
    8880022    1    1    2    0    0  0.18195245458E+03 -0.16140059097E+03 -0.53747910085E+02  0.29229665983E+03  0.15294330000E+03 0.  0.
    8880022    1    1    2    0    0 -0.18195245458E+03  0.16140059097E+03  0.32076459179E+03  0.43062561797E+03  0.15294330000E+03 0.  0.
<mgrwt>
<rscale>  0 0.28731255E+03</rscale>
<asrwt>0</asrwt>
<pdfrwt beam="1">  1        4 0.76149150E-01 0.28731255E+03</pdfrwt>
<pdfrwt beam="2">  1       -4 0.35069661E-01 0.28731255E+03</pdfrwt>
<totfact> 0.22941366E+01</totfact>
</mgrwt>
</event>
<event>
 4    1  0.8653772E-009  0.2014628E+03  0.7818608E-02  0.1148511E+00
         -4   -1    0    0    0  501 -0.00000000000E+00  0.00000000000E+00  0.46549719881E+02  0.46567041145E+02  0.12700000000E+01 0. -1.
          4   -1    0    0  501    0  0.00000000000E+00 -0.00000000000E+00 -0.89459397089E+03  0.89459487236E+03  0.12700000000E+01 0. -1.
    8880022    1    1    2    0    0 -0.37110709865E+02 -0.12577118036E+03 -0.49924950316E+03  0.53836540938E+03  0.15294330000E+03 0. -1.
    8880022    1    1    2    0    0  0.37110709865E+02  0.12577118036E+03 -0.34879474785E+03  0.40279650412E+03  0.15294330000E+03 0. -1.
<mgrwt>
<rscale>  0 0.20146277E+03</rscale>
<asrwt>0</asrwt>
<pdfrwt beam="1">  1        4 0.13763123E+00 0.20146277E+03</pdfrwt>
<pdfrwt beam="2">  1       -4 0.71628978E-02 0.20146277E+03</pdfrwt>
<totfact> 0.93356094E+01</totfact>
</mgrwt>
</event>
<event>
 4    1  0.8653772E-009  0.2725301E+03  0.7818608E-02  0.1099840E+00
         -4   -1    0    0    0  501 -0.00000000000E+00  0.00000000000E+00  0.55983381901E+03  0.55983525953E+03  0.12700000000E+01 0.  1.
          4   -1    0    0  501    0  0.00000000000E+00 -0.00000000000E+00 -0.14255152167E+03  0.14255717881E+03  0.12700000000E+01 0.  1.
    8880022    1    1    2    0    0  0.20346219300E+03  0.97386586009E+02  0.30112928477E+03  0.40614222912E+03  0.15294330000E+03 0.  0.
    8880022    1    1    2    0    0 -0.20346219300E+03 -0.97386586009E+02  0.11615301258E+03  0.29625020922E+03  0.15294330000E+03 0.  0.
<mgrwt>
<rscale>  0 0.27253012E+03</rscale>
<asrwt>0</asrwt>
<pdfrwt beam="1">  1        4 0.21931550E-01 0.27253012E+03</pdfrwt>
<pdfrwt beam="2">  1       -4 0.86128825E-01 0.27253012E+03</pdfrwt>
<totfact> 0.42181513E+01</totfact>
</mgrwt>
</event>
<event>
 4    1  0.8653772E-009  0.1979462E+03  0.7818608E-02  0.1151483E+00
          4   -1    0    0  501    0  0.00000000000E+00  0.00000000000E+00  0.20493530727E+03  0.20493924238E+03  0.12700000000E+01 0. -1.
         -4   -1    0    0    0  501 -0.00000000000E+00 -0.00000000000E+00 -0.19383247895E+03  0.19383663946E+03  0.12700000000E+01 0. -1.
    8880022    1    1    2    0    0  0.66327397169E+02  0.10673193833E+03 -0.17739571501E+02  0.19873946686E+03  0.15294330000E+03 0.  0.
    8880022    1    1    2    0    0 -0.66327397169E+02 -0.10673193833E+03  0.28842399824E+02  0.20003641498E+03  0.15294330000E+03 0.  0.
<mgrwt>
<rscale>  0 0.19794616E+03</rscale>
<asrwt>0</asrwt>
<pdfrwt beam="1">  1        4 0.31529131E-01 0.19794616E+03</pdfrwt>
<pdfrwt beam="2">  1       -4 0.29821004E-01 0.19794616E+03</pdfrwt>
<totfact> 0.18458340E+02</totfact>
</mgrwt>
</event>
<event>
 4    1  0.8653772E-009  0.2225769E+03  0.7818608E-02  0.1131976E+00
         -4   -1    0    0    0  501 -0.00000000000E+00  0.00000000000E+00  0.37699164119E+03  0.37699378036E+03  0.12700000000E+01 0. -1.
          4   -1    0    0  501    0  0.00000000000E+00 -0.00000000000E+00 -0.14081680773E+03  0.14082253456E+03  0.12700000000E+01 0. -1.
    8880022    1    1    2    0    0  0.11322736657E+03  0.11544862553E+03  0.18502280180E+03  0.28943723306E+03  0.15294330000E+03 0.  0.
    8880022    1    1    2    0    0 -0.11322736657E+03 -0.11544862553E+03  0.51152031656E+02  0.22837908187E+03  0.15294330000E+03 0.  0.
<mgrwt>
<rscale>  0 0.22257690E+03</rscale>
<asrwt>0</asrwt>
<pdfrwt beam="1">  1        4 0.21664729E-01 0.22257690E+03</pdfrwt>
<pdfrwt beam="2">  1       -4 0.57999319E-01 0.22257690E+03</pdfrwt>
<totfact> 0.10018409E+02</totfact>
</mgrwt>
</event>
<event>
 4    1  0.8653772E-009  0.3548361E+03  0.7818608E-02  0.1060647E+00
         -4   -1    0    0    0  501 -0.00000000000E+00  0.00000000000E+00  0.11040302468E+04  0.11040309772E+04  0.12700000000E+01 0.  1.
          4   -1    0    0  501    0  0.00000000000E+00 -0.00000000000E+00 -0.12493537103E+03  0.12494182580E+03  0.12700000000E+01 0.  1.
    8880022    1    1    2    0    0  0.31789855728E+03  0.38177790985E+02  0.67100356152E+03  0.75904839703E+03  0.15294330000E+03 0.  0.
    8880022    1    1    2    0    0 -0.31789855728E+03 -0.38177790985E+02  0.30809131424E+03  0.46992440601E+03  0.15294330000E+03 0.  0.
<mgrwt>
<rscale>  0 0.35483614E+03</rscale>
<asrwt>0</asrwt>
<pdfrwt beam="1">  1        4 0.19221380E-01 0.35483614E+03</pdfrwt>
<pdfrwt beam="2">  1       -4 0.16985135E+00 0.35483614E+03</pdfrwt>
<totfact> 0.10220352E+01</totfact>
</mgrwt>
</event>
<event>
 4    1  0.8653772E-009  0.2363402E+03  0.7818608E-02  0.1122255E+00
         -4   -1    0    0    0  501 -0.00000000000E+00  0.00000000000E+00  0.89192817695E+03  0.89192908111E+03  0.12700000000E+01 0. -1.
          4   -1    0    0  501    0  0.00000000000E+00 -0.00000000000E+00 -0.64446862133E+02  0.64459374328E+02  0.12700000000E+01 0. -1.
    8880022    1    1    2    0    0 -0.13102603414E+03 -0.12368194236E+03  0.33317812035E+03  0.40849033940E+03  0.15294330000E+03 0.  0.
    8880022    1    1    2    0    0  0.13102603414E+03  0.12368194236E+03  0.49430319446E+03  0.54789811604E+03  0.15294330000E+03 0.  0.
<mgrwt>
<rscale>  0 0.23634022E+03</rscale>
<asrwt>0</asrwt>
<pdfrwt beam="1">  1        4 0.99159338E-02 0.23634022E+03</pdfrwt>
<pdfrwt beam="2">  1       -4 0.13722075E+00 0.23634022E+03</pdfrwt>
<totfact> 0.55516548E+01</totfact>
</mgrwt>
</event>
<event>
 4    1  0.8653772E-009  0.2767954E+03  0.7818608E-02  0.1097452E+00
          4   -1    0    0  501    0  0.00000000000E+00  0.00000000000E+00  0.30077916779E+03  0.30078184898E+03  0.12700000000E+01 0. -1.
         -4   -1    0    0    0  501 -0.00000000000E+00 -0.00000000000E+00 -0.25905137714E+03  0.25905449021E+03  0.12700000000E+01 0. -1.
    8880022    1    1    2    0    0 -0.76477419508E+02 -0.21765848968E+03  0.57064630670E+02  0.28261641657E+03  0.15294330000E+03 0.  0.
    8880022    1    1    2    0    0  0.76477419508E+02  0.21765848968E+03 -0.15336840022E+02  0.27721992263E+03  0.15294330000E+03 0.  0.
<mgrwt>
<rscale>  0 0.27679535E+03</rscale>
<asrwt>0</asrwt>
<pdfrwt beam="1">  1        4 0.46274164E-01 0.27679535E+03</pdfrwt>
<pdfrwt beam="2">  1       -4 0.39854503E-01 0.27679535E+03</pdfrwt>
<totfact> 0.51268974E+01</totfact>
</mgrwt>
</event>
<event>
 4    1  0.8653772E-009  0.1531321E+03  0.7818608E-02  0.1196676E+00
         -4   -1    0    0    0  501 -0.00000000000E+00  0.00000000000E+00  0.16730245112E+03  0.16730727136E+03  0.12700000000E+01 0.  1.
          4   -1    0    0  501    0  0.00000000000E+00 -0.00000000000E+00 -0.15593270515E+03  0.15593787685E+03  0.12700000000E+01 0.  1.
    8880022    1    1    2    0    0 -0.70052040057E+01 -0.29512142701E+01 -0.45728874978E+02  0.15981415948E+03  0.15294330000E+03 0. -1.
    8880022    1    1    2    0    0  0.70052040057E+01  0.29512142701E+01  0.57098620947E+02  0.16343098873E+03  0.15294330000E+03 0. -1.
<mgrwt>
<rscale>  0 0.15313209E+03</rscale>
<asrwt>0</asrwt>
<pdfrwt beam="1">  1        4 0.23990416E-01 0.15313209E+03</pdfrwt>
<pdfrwt beam="2">  1       -4 0.25739607E-01 0.15313209E+03</pdfrwt>
<totfact> 0.38993844E+02</totfact>
</mgrwt>
</event>
<event>
 4    1  0.8653772E-009  0.1861151E+03  0.7818608E-02  0.1162013E+00
         -4   -1    0    0    0  501 -0.00000000000E+00  0.00000000000E+00  0.32011533104E+03  0.32011785028E+03  0.12700000000E+01 0.  1.
          4   -1    0    0  501    0  0.00000000000E+00 -0.00000000000E+00 -0.10862131542E+03  0.10862873958E+03  0.12700000000E+01 0.  1.
    8880022    1    1    2    0    0  0.10378109403E+03 -0.21832189885E+02  0.11908765978E+03  0.22095403078E+03  0.15294330000E+03 0.  0.
    8880022    1    1    2    0    0 -0.10378109403E+03  0.21832189885E+02  0.92406355839E+02  0.20779255907E+03  0.15294330000E+03 0.  0.
<mgrwt>
<rscale>  0 0.18611505E+03</rscale>
<asrwt>0</asrwt>
<pdfrwt beam="1">  1        4 0.16711736E-01 0.18611505E+03</pdfrwt>
<pdfrwt beam="2">  1       -4 0.49249277E-01 0.18611505E+03</pdfrwt>
<totfact> 0.21910917E+02</totfact>
</mgrwt>
</event>
<event>
 4    1  0.8653772E-009  0.1874920E+03  0.7818608E-02  0.1160743E+00
         -4   -1    0    0    0  501 -0.00000000000E+00  0.00000000000E+00  0.10808111042E+04  0.10808118503E+04  0.12700000000E+01 0.  1.
          4   -1    0    0  501    0  0.00000000000E+00 -0.00000000000E+00 -0.10300589798E+03  0.10301372684E+03  0.12700000000E+01 0.  1.
    8880022    1    1    2    0    0  0.75268754700E+02  0.78078253776E+02  0.97853182270E+03  0.99633216358E+03  0.15294330000E+03 0.  0.
    8880022    1    1    2    0    0 -0.75268754700E+02 -0.78078253776E+02 -0.72661651392E+00  0.18749341357E+03  0.15294330000E+03 0.  0.
<mgrwt>
<rscale>  0 0.18749201E+03</rscale>
<asrwt>0</asrwt>
<pdfrwt beam="1">  1        4 0.15847721E-01 0.18749201E+03</pdfrwt>
<pdfrwt beam="2">  1       -4 0.16627929E+00 0.18749201E+03</pdfrwt>
<totfact> 0.14630779E+01</totfact>
</mgrwt>
</event>
<event>
 4    1  0.8653772E-009  0.3644082E+03  0.7818608E-02  0.1056852E+00
         -4   -1    0    0    0  501 -0.00000000000E+00  0.00000000000E+00  0.21149344445E+03  0.21149725754E+03  0.12700000000E+01 0.  1.
          4   -1    0    0  501    0  0.00000000000E+00 -0.00000000000E+00 -0.14373605618E+04  0.14373611228E+04  0.12700000000E+01 0.  1.
    8880022    1    1    2    0    0  0.15809785781E+03  0.29052841848E+03 -0.12316257548E+04  0.12844046666E+04  0.15294330000E+03 0.  0.
    8880022    1    1    2    0    0 -0.15809785781E+03 -0.29052841848E+03  0.57586374850E+01  0.36445371381E+03  0.15294330000E+03 0.  0.
<mgrwt>
<rscale>  0 0.36440822E+03</rscale>
<asrwt>0</asrwt>
<pdfrwt beam="1">  1        4 0.22113272E+00 0.36440822E+03</pdfrwt>
<pdfrwt beam="2">  1       -4 0.32537790E-01 0.36440822E+03</pdfrwt>
<totfact> 0.17567842E+00</totfact>
</mgrwt>
</event>
<event>
 4    1  0.8653772E-009  0.2118575E+03  0.7818608E-02  0.1140103E+00
         -4   -1    0    0    0  501 -0.00000000000E+00  0.00000000000E+00  0.39024984239E+03  0.39025190889E+03  0.12700000000E+01 0.  1.
          4   -1    0    0  501    0  0.00000000000E+00 -0.00000000000E+00 -0.24839754835E+03  0.24840079494E+03  0.12700000000E+01 0.  1.
    8880022    1    1    2    0    0  0.12118027913E+03  0.82506401259E+02 -0.16307496448E+03  0.26735194661E+03  0.15294330000E+03 0.  0.
    8880022    1    1    2    0    0 -0.12118027913E+03 -0.82506401259E+02  0.30492725853E+03  0.37130075721E+03  0.15294330000E+03 0.  0.
<mgrwt>
<rscale>  0 0.21185754E+03</rscale>
<asrwt>0</asrwt>
<pdfrwt beam="1">  1        4 0.38215416E-01 0.21185754E+03</pdfrwt>
<pdfrwt beam="2">  1       -4 0.60038845E-01 0.21185754E+03</pdfrwt>
<totfact> 0.31506463E+01</totfact>
</mgrwt>
</event>
<event>
 4    1  0.8653772E-009  0.1579534E+03  0.7818608E-02  0.1191027E+00
          4   -1    0    0  501    0  0.00000000000E+00  0.00000000000E+00  0.67612315076E+03  0.67612434351E+03  0.12700000000E+01 0.  1.
         -4   -1    0    0    0  501 -0.00000000000E+00 -0.00000000000E+00 -0.38197514971E+02  0.38218621770E+02  0.12700000000E+01 0.  1.
    8880022    1    1    2    0    0  0.15670463790E+02  0.36222173301E+02  0.25285802205E+03  0.29813829275E+03  0.15294330000E+03 0.  0.
    8880022    1    1    2    0    0 -0.15670463790E+02 -0.36222173301E+02  0.38506761374E+03  0.41620467253E+03  0.15294330000E+03 0.  0.
<mgrwt>
<rscale>  0 0.15795335E+03</rscale>
<asrwt>0</asrwt>
<pdfrwt beam="1">  1        4 0.10402065E+00 0.15795335E+03</pdfrwt>
<pdfrwt beam="2">  1       -4 0.58782566E-02 0.15795335E+03</pdfrwt>
<totfact> 0.24544827E+02</totfact>
</mgrwt>
</event>
<event>
 4    1  0.8653772E-009  0.3222578E+03  0.7818608E-02  0.1074615E+00
         -4   -1    0    0    0  501 -0.00000000000E+00  0.00000000000E+00  0.10387836172E+04  0.10387843935E+04  0.12700000000E+01 0.  1.
          4   -1    0    0  501    0  0.00000000000E+00 -0.00000000000E+00 -0.11301316071E+03  0.11302029638E+03  0.12700000000E+01 0.  1.
    8880022    1    1    2    0    0 -0.14145769056E+03 -0.24586210973E+03  0.26722898183E+03  0.41864237359E+03  0.15294330000E+03 0.  0.
    8880022    1    1    2    0    0  0.14145769056E+03  0.24586210973E+03  0.65854147463E+03  0.73316231630E+03  0.15294330000E+03 0.  0.
<mgrwt>
<rscale>  0 0.32225783E+03</rscale>
<asrwt>0</asrwt>
<pdfrwt beam="1">  1        4 0.17387250E-01 0.32225783E+03</pdfrwt>
<pdfrwt beam="2">  1       -4 0.15981346E+00 0.32225783E+03</pdfrwt>
<totfact> 0.14372247E+01</totfact>
</mgrwt>
</event>
<event>
 4    1  0.8653772E-009  0.2145404E+03  0.7818608E-02  0.1138020E+00
         -4   -1    0    0    0  501 -0.00000000000E+00  0.00000000000E+00  0.15688320078E+03  0.15688834114E+03  0.12700000000E+01 0. -1.
          4   -1    0    0  501    0  0.00000000000E+00 -0.00000000000E+00 -0.32871412017E+03  0.32871657351E+03  0.12700000000E+01 0. -1.
    8880022    1    1    2    0    0  0.14677859609E+03 -0.33045047179E+02 -0.63070690040E+01  0.21463309052E+03  0.15294330000E+03 0.  0.
    8880022    1    1    2    0    0 -0.14677859609E+03  0.33045047179E+02 -0.16552385039E+03  0.27097182413E+03  0.15294330000E+03 0.  0.
<mgrwt>
<rscale>  0 0.21454040E+03</rscale>
<asrwt>0</asrwt>
<pdfrwt beam="1">  1        4 0.50571987E-01 0.21454040E+03</pdfrwt>
<pdfrwt beam="2">  1       -4 0.24136461E-01 0.21454040E+03</pdfrwt>
<totfact> 0.10868941E+02</totfact>
</mgrwt>
</event>
<event>
 4    1  0.8653772E-009  0.1633364E+03  0.7818608E-02  0.1184981E+00
          4   -1    0    0  501    0  0.00000000000E+00  0.00000000000E+00  0.62149772752E+03  0.62149902511E+03  0.12700000000E+01 0.  1.
         -4   -1    0    0    0  501 -0.00000000000E+00 -0.00000000000E+00 -0.50967878286E+02  0.50983698541E+02  0.12700000000E+01 0.  1.
    8880022    1    1    2    0    0 -0.16268233953E+02  0.54976916240E+02  0.15164336881E+03  0.22287772673E+03  0.15294330000E+03 0.  0.
    8880022    1    1    2    0    0  0.16268233953E+02 -0.54976916240E+02  0.41888648042E+03  0.44960499691E+03  0.15294330000E+03 0.  0.
<mgrwt>
<rscale>  0 0.16333637E+03</rscale>
<asrwt>0</asrwt>
<pdfrwt beam="1">  1        4 0.95616344E-01 0.16333637E+03</pdfrwt>
<pdfrwt beam="2">  1       -4 0.78425294E-02 0.16333637E+03</pdfrwt>
<totfact> 0.18680189E+02</totfact>
</mgrwt>
</event>
<event>
 4    1  0.8653772E-009  0.1871997E+03  0.7818608E-02  0.1161012E+00
          4   -1    0    0  501    0  0.00000000000E+00  0.00000000000E+00  0.30541125383E+03  0.30541389436E+03  0.12700000000E+01 0. -1.
         -4   -1    0    0    0  501 -0.00000000000E+00 -0.00000000000E+00 -0.11872767608E+03  0.11873446832E+03  0.12700000000E+01 0. -1.
    8880022    1    1    2    0    0 -0.18017067817E+02 -0.10643049818E+03  0.13222553552E+03  0.22918837434E+03  0.15294330000E+03 0.  0.
    8880022    1    1    2    0    0  0.18017067817E+02  0.10643049818E+03  0.54458042234E+02  0.19495998834E+03  0.15294330000E+03 0.  0.
<mgrwt>
<rscale>  0 0.18719968E+03</rscale>
<asrwt>0</asrwt>
<pdfrwt beam="1">  1        4 0.46987073E-01 0.18719968E+03</pdfrwt>
<pdfrwt beam="2">  1       -4 0.18266522E-01 0.18719968E+03</pdfrwt>
<totfact> 0.20593782E+02</totfact>
</mgrwt>
</event>
<event>
 4    1  0.8653772E-009  0.1936864E+03  0.7818608E-02  0.1155178E+00
          4   -1    0    0  501    0  0.00000000000E+00  0.00000000000E+00  0.91996161150E+03  0.91996248811E+03  0.12700000000E+01 0.  1.
         -4   -1    0    0    0  501 -0.00000000000E+00 -0.00000000000E+00 -0.47780536113E+02  0.47797411345E+02  0.12700000000E+01 0.  1.
    8880022    1    1    2    0    0 -0.71275415096E+02 -0.95092574228E+02  0.25074650711E+03  0.31684104266E+03  0.15294330000E+03 0.  0.
    8880022    1    1    2    0    0  0.71275415096E+02  0.95092574228E+02  0.62143456828E+03  0.65091885680E+03  0.15294330000E+03 0.  0.
<mgrwt>
<rscale>  0 0.19368644E+03</rscale>
<asrwt>0</asrwt>
<pdfrwt beam="1">  1        4 0.14153392E+00 0.19368644E+03</pdfrwt>
<pdfrwt beam="2">  1       -4 0.73522174E-02 0.19368644E+03</pdfrwt>
<totfact> 0.82898210E+01</totfact>
</mgrwt>
</event>
<event>
 4    1  0.8653772E-009  0.2019509E+03  0.7818608E-02  0.1148103E+00
          4   -1    0    0  501    0  0.00000000000E+00  0.00000000000E+00  0.69411787343E+02  0.69423404715E+02  0.12700000000E+01 0. -1.
         -4   -1    0    0    0  501 -0.00000000000E+00 -0.00000000000E+00 -0.59466430386E+03  0.59466566000E+03  0.12700000000E+01 0. -1.
    8880022    1    1    2    0    0  0.17055365149E+02  0.13077318760E+03 -0.29905430551E+03  0.36085681749E+03  0.15294330000E+03 0.  1.
    8880022    1    1    2    0    0 -0.17055365149E+02 -0.13077318760E+03 -0.22619821101E+03  0.30323224722E+03  0.15294330000E+03 0.  1.
<mgrwt>
<rscale>  0 0.20195090E+03</rscale>
<asrwt>0</asrwt>
<pdfrwt beam="1">  1        4 0.10679735E-01 0.20195090E+03</pdfrwt>
<pdfrwt beam="2">  1       -4 0.91487811E-01 0.20195090E+03</pdfrwt>
<totfact> 0.12682273E+02</totfact>
</mgrwt>
</event>
<event>
 4    1  0.8653772E-009  0.1647319E+03  0.7818608E-02  0.1183456E+00
          4   -1    0    0  501    0  0.00000000000E+00  0.00000000000E+00  0.49538486046E+02  0.49554762634E+02  0.12700000000E+01 0.  1.
         -4   -1    0    0    0  501 -0.00000000000E+00 -0.00000000000E+00 -0.54773977670E+03  0.54774124903E+03  0.12700000000E+01 0.  1.
    8880022    1    1    2    0    0  0.22410036021E+02 -0.56945076465E+02 -0.24601593438E+03  0.29607506553E+03  0.15294330000E+03 0.  0.
    8880022    1    1    2    0    0 -0.22410036021E+02  0.56945076465E+02 -0.25218535628E+03  0.30122094613E+03  0.15294330000E+03 0.  0.
<mgrwt>
<rscale>  0 0.16473192E+03</rscale>
<asrwt>0</asrwt>
<pdfrwt beam="1">  1        4 0.76226713E-02 0.16473192E+03</pdfrwt>
<pdfrwt beam="2">  1       -4 0.84269019E-01 0.16473192E+03</pdfrwt>
<totfact> 0.26117722E+02</totfact>
</mgrwt>
</event>
<event>
 4    1  0.8653772E-009  0.2784755E+03  0.7818608E-02  0.1096524E+00
          4   -1    0    0  501    0  0.00000000000E+00  0.00000000000E+00  0.56634977484E+03  0.56635119878E+03  0.12700000000E+01 0. -1.
         -4   -1    0    0    0  501 -0.00000000000E+00 -0.00000000000E+00 -0.15380408848E+03  0.15380933175E+03  0.12700000000E+01 0. -1.
    8880022    1    1    2    0    0 -0.46825613376E+02  0.22795687113E+03  0.32556490456E+03  0.42841700861E+03  0.15294330000E+03 0.  0.
    8880022    1    1    2    0    0  0.46825613376E+02 -0.22795687113E+03  0.86980781793E+02  0.29174352192E+03  0.15294330000E+03 0.  0.
<mgrwt>
<rscale>  0 0.27847554E+03</rscale>
<asrwt>0</asrwt>
<pdfrwt beam="1">  1        4 0.87131245E-01 0.27847554E+03</pdfrwt>
<pdfrwt beam="2">  1       -4 0.23662681E-01 0.27847554E+03</pdfrwt>
<totfact> 0.35771803E+01</totfact>
</mgrwt>
</event>
<event>
 4    1  0.8653772E-009  0.1748936E+03  0.7818608E-02  0.1172839E+00
         -4   -1    0    0    0  501 -0.00000000000E+00  0.00000000000E+00  0.53538996114E+03  0.53539146743E+03  0.12700000000E+01 0. -1.
          4   -1    0    0  501    0  0.00000000000E+00 -0.00000000000E+00 -0.57125144856E+02  0.57139260363E+02  0.12700000000E+01 0. -1.
    8880022    1    1    2    0    0 -0.12650526110E+02 -0.83881412208E+02  0.24089042524E+03  0.29768435819E+03  0.15294330000E+03 0. -1.
    8880022    1    1    2    0    0  0.12650526110E+02  0.83881412208E+02  0.23737439105E+03  0.29484636960E+03  0.15294330000E+03 0. -1.
<mgrwt>
<rscale>  0 0.17489363E+03</rscale>
<asrwt>0</asrwt>
<pdfrwt beam="1">  1        4 0.87896854E-02 0.17489363E+03</pdfrwt>
<pdfrwt beam="2">  1       -4 0.82368889E-01 0.17489363E+03</pdfrwt>
<totfact> 0.21884803E+02</totfact>
</mgrwt>
</event>
<event>
 4    1  0.8653772E-009  0.3915073E+03  0.7818608E-02  0.1046761E+00
          4   -1    0    0  501    0  0.00000000000E+00  0.00000000000E+00  0.37722077561E+03  0.37722291348E+03  0.12700000000E+01 0. -1.
         -4   -1    0    0    0  501 -0.00000000000E+00 -0.00000000000E+00 -0.43877202954E+03  0.43877386751E+03  0.12700000000E+01 0.  1.
    8880022    1    1    2    0    0  0.27729013874E+03  0.23020972916E+03  0.80163913493E+02  0.39963013711E+03  0.15294330000E+03 0.  0.
    8880022    1    1    2    0    0 -0.27729013874E+03 -0.23020972916E+03 -0.14171516743E+03  0.41636664388E+03  0.15294330000E+03 0. -1.
<mgrwt>
<rscale>  0 0.39150734E+03</rscale>
<asrwt>0</asrwt>
<pdfrwt beam="1">  1        4 0.58034271E-01 0.39150734E+03</pdfrwt>
<pdfrwt beam="2">  1       -4 0.67503695E-01 0.39150734E+03</pdfrwt>
<totfact> 0.10953686E+01</totfact>
</mgrwt>
</event>
<event>
 4    1  0.8653772E-009  0.2764333E+03  0.7818608E-02  0.1097653E+00
         -4   -1    0    0    0  501 -0.00000000000E+00  0.00000000000E+00  0.38729898589E+03  0.38730106813E+03  0.12700000000E+01 0.  1.
          4   -1    0    0  501    0  0.00000000000E+00 -0.00000000000E+00 -0.16723254884E+04  0.16723259706E+04  0.12700000000E+01 0. -1.
    8880022    1    1    2    0    0 -0.13099534449E+03  0.18937769342E+03  0.32464510537E+03  0.42639159056E+03  0.15294330000E+03 0.  0.
    8880022    1    1    2    0    0  0.13099534449E+03 -0.18937769342E+03 -0.16096716079E+04  0.16332354482E+04  0.15294330000E+03 0.  0.
<mgrwt>
<rscale>  0 0.27643325E+03</rscale>
<asrwt>0</asrwt>
<pdfrwt beam="1">  1        4 0.25728104E+00 0.27643325E+03</pdfrwt>
<pdfrwt beam="2">  1       -4 0.59584658E-01 0.27643325E+03</pdfrwt>
<totfact> 0.31152431E-01</totfact>
</mgrwt>
</event>
<event>
 4    1  0.8653772E-009  0.2396803E+03  0.7818608E-02  0.1120006E+00
         -4   -1    0    0    0  501 -0.00000000000E+00  0.00000000000E+00  0.29447502522E+03  0.29447776381E+03  0.12700000000E+01 0.  1.
          4   -1    0    0  501    0  0.00000000000E+00 -0.00000000000E+00 -0.23531876616E+03  0.23532219319E+03  0.12700000000E+01 0.  1.
    8880022    1    1    2    0    0  0.42575741156E+02 -0.17956147329E+03  0.13912297751E+03  0.27713150725E+03  0.15294330000E+03 0.  0.
    8880022    1    1    2    0    0 -0.42575741156E+02  0.17956147329E+03 -0.79966718450E+02  0.25266844975E+03  0.15294330000E+03 0.  0.
<mgrwt>
<rscale>  0 0.23968035E+03</rscale>
<asrwt>0</asrwt>
<pdfrwt beam="1">  1        4 0.36203361E-01 0.23968035E+03</pdfrwt>
<pdfrwt beam="2">  1       -4 0.45304324E-01 0.23968035E+03</pdfrwt>
<totfact> 0.63705154E+01</totfact>
</mgrwt>
</event>
<event>
 4    1  0.8653772E-009  0.3290708E+03  0.7818608E-02  0.1071549E+00
         -4   -1    0    0    0  501 -0.00000000000E+00  0.00000000000E+00  0.87270904599E+03  0.87270997006E+03  0.12700000000E+01 0. -1.
          4   -1    0    0  501    0  0.00000000000E+00 -0.00000000000E+00 -0.12762079615E+03  0.12762711511E+03  0.12700000000E+01 0. -1.
    8880022    1    1    2    0    0 -0.19639825809E+03  0.21522929803E+03  0.28920974445E+03  0.43809799795E+03  0.15294330000E+03 0.  0.
    8880022    1    1    2    0    0  0.19639825809E+03 -0.21522929803E+03  0.45587850538E+03  0.56223908722E+03  0.15294330000E+03 0.  0.
<mgrwt>
<rscale>  0 0.32907078E+03</rscale>
<asrwt>0</asrwt>
<pdfrwt beam="1">  1        4 0.19634526E-01 0.32907078E+03</pdfrwt>
<pdfrwt beam="2">  1       -4 0.13426348E+00 0.32907078E+03</pdfrwt>
<totfact> 0.18148530E+01</totfact>
</mgrwt>
</event>
<event>
 4    1  0.8653772E-009  0.2412964E+03  0.7818608E-02  0.1118932E+00
          4   -1    0    0  501    0  0.00000000000E+00  0.00000000000E+00  0.65259966074E+03  0.65260089649E+03  0.12700000000E+01 0.  1.
         -4   -1    0    0    0  501 -0.00000000000E+00 -0.00000000000E+00 -0.90343542114E+02  0.90352468155E+02  0.12700000000E+01 0.  1.
    8880022    1    1    2    0    0 -0.18291649299E+03  0.37065710215E+02  0.23956888247E+03  0.34002531191E+03  0.15294330000E+03 0.  0.
    8880022    1    1    2    0    0  0.18291649299E+03 -0.37065710215E+02  0.32268723616E+03  0.40292805273E+03  0.15294330000E+03 0.  0.
<mgrwt>
<rscale>  0 0.24129642E+03</rscale>
<asrwt>0</asrwt>
<pdfrwt beam="1">  1        4 0.10040073E+00 0.24129642E+03</pdfrwt>
<pdfrwt beam="2">  1       -4 0.13899788E-01 0.24129642E+03</pdfrwt>
<totfact> 0.66298166E+01</totfact>
</mgrwt>
</event>
<event>
 4    1  0.8653772E-009  0.2166771E+03  0.7818608E-02  0.1136385E+00
         -4   -1    0    0    0  501 -0.00000000000E+00  0.00000000000E+00  0.48817466209E+03  0.48817631406E+03  0.12700000000E+01 0. -1.
          4   -1    0    0  501    0  0.00000000000E+00 -0.00000000000E+00 -0.96588354676E+02  0.96596703666E+02  0.12700000000E+01 0. -1.
    8880022    1    1    2    0    0 -0.86368025210E+01 -0.15324073913E+03  0.21511569498E+03  0.30532561918E+03  0.15294330000E+03 0.  0.
    8880022    1    1    2    0    0  0.86368025210E+01  0.15324073913E+03  0.17647061244E+03  0.27944739855E+03  0.15294330000E+03 0.  0.
<mgrwt>
<rscale>  0 0.21667711E+03</rscale>
<asrwt>0</asrwt>
<pdfrwt beam="1">  1        4 0.14860516E-01 0.21667711E+03</pdfrwt>
<pdfrwt beam="2">  1       -4 0.75104563E-01 0.21667711E+03</pdfrwt>
<totfact> 0.11249753E+02</totfact>
</mgrwt>
</event>
<event>
 4    1  0.8653772E-009  0.2409329E+03  0.7818608E-02  0.1119173E+00
         -4   -1    0    0    0  501 -0.00000000000E+00  0.00000000000E+00  0.10143638939E+03  0.10144433938E+03  0.12700000000E+01 0. -1.
          4   -1    0    0  501    0  0.00000000000E+00 -0.00000000000E+00 -0.63921441907E+03  0.63921568070E+03  0.12700000000E+01 0. -1.
    8880022    1    1    2    0    0 -0.39994479202E+02  0.18181704741E+03 -0.38876486845E+03  0.45736940546E+03  0.15294330000E+03 0.  0.
    8880022    1    1    2    0    0  0.39994479202E+02 -0.18181704741E+03 -0.14901316124E+03  0.28329061462E+03  0.15294330000E+03 0.  0.
<mgrwt>
<rscale>  0 0.24093287E+03</rscale>
<asrwt>0</asrwt>
<pdfrwt beam="1">  1        4 0.98341386E-01 0.24093287E+03</pdfrwt>
<pdfrwt beam="2">  1       -4 0.15606307E-01 0.24093287E+03</pdfrwt>
<totfact> 0.56729115E+01</totfact>
</mgrwt>
</event>
<event>
 4    1  0.8653772E-009  0.3847866E+03  0.7818608E-02  0.1049179E+00
         -4   -1    0    0    0  501 -0.00000000000E+00  0.00000000000E+00  0.15719050163E+04  0.15719055293E+04  0.12700000000E+01 0.  1.
          4   -1    0    0  501    0  0.00000000000E+00 -0.00000000000E+00 -0.10062599323E+03  0.10063400724E+03  0.12700000000E+01 0.  1.
    8880022    1    1    2    0    0 -0.34217117559E+03  0.87109049528E+02  0.94717222355E+03  0.10223482645E+04  0.15294330000E+03 0.  0.
    8880022    1    1    2    0    0  0.34217117559E+03 -0.87109049528E+02  0.52410679948E+03  0.65019127200E+03  0.15294330000E+03 0.  0.
<mgrwt>
<rscale>  0 0.38478663E+03</rscale>
<asrwt>0</asrwt>
<pdfrwt beam="1">  1        4 0.15481578E-01 0.38478663E+03</pdfrwt>
<pdfrwt beam="2">  1       -4 0.24183220E+00 0.38478663E+03</pdfrwt>
<totfact> 0.52386962E+00</totfact>
</mgrwt>
</event>
<event>
 4    1  0.8653772E-009  0.3096401E+03  0.7818608E-02  0.1080518E+00
          4   -1    0    0  501    0  0.00000000000E+00  0.00000000000E+00  0.17105222883E+03  0.17105694341E+03  0.12700000000E+01 0. -1.
         -4   -1    0    0    0  501 -0.00000000000E+00 -0.00000000000E+00 -0.10834711070E+04  0.10834718514E+04  0.12700000000E+01 0. -1.
    8880022    1    1    2    0    0 -0.21008388617E+03  0.16837496527E+03 -0.20417026499E+02  0.31031254590E+03  0.15294330000E+03 0.  0.
    8880022    1    1    2    0    0  0.21008388617E+03 -0.16837496527E+03 -0.89200185171E+03  0.94421624887E+03  0.15294330000E+03 0.  0.
<mgrwt>
<rscale>  0 0.30964015E+03</rscale>
<asrwt>0</asrwt>
<pdfrwt beam="1">  1        4 0.26316148E-01 0.30964015E+03</pdfrwt>
<pdfrwt beam="2">  1       -4 0.16668828E+00 0.30964015E+03</pdfrwt>
<totfact> 0.59634372E+00</totfact>
</mgrwt>
</event>
<event>
 4    1  0.8653772E-009  0.2572973E+03  0.7818608E-02  0.1108778E+00
         -4   -1    0    0    0  501 -0.00000000000E+00  0.00000000000E+00  0.38164461690E+03  0.38164672999E+03  0.12700000000E+01 0. -1.
          4   -1    0    0  501    0  0.00000000000E+00 -0.00000000000E+00 -0.34962113133E+03  0.34962343796E+03  0.12700000000E+01 0. -1.
    8880022    1    1    2    0    0 -0.48174539528E+02  0.20121998061E+03 -0.24352610641E+03  0.35426950811E+03  0.15294330000E+03 0.  0.
    8880022    1    1    2    0    0  0.48174539528E+02 -0.20121998061E+03  0.27554959199E+03  0.37700065984E+03  0.15294330000E+03 0.  0.
<mgrwt>
<rscale>  0 0.25729734E+03</rscale>
<asrwt>0</asrwt>
<pdfrwt beam="1">  1        4 0.53788207E-01 0.25729734E+03</pdfrwt>
<pdfrwt beam="2">  1       -4 0.58714896E-01 0.25729734E+03</pdfrwt>
<totfact> 0.16830735E+01</totfact>
</mgrwt>
</event>
<event>
 4    1  0.8653772E-009  0.3660859E+03  0.7818608E-02  0.1056200E+00
          4   -1    0    0  501    0  0.00000000000E+00  0.00000000000E+00  0.36856938224E+03  0.36857157029E+03  0.12700000000E+01 0.  1.
         -4   -1    0    0    0  501 -0.00000000000E+00 -0.00000000000E+00 -0.73308909998E+03  0.73309020005E+03  0.12700000000E+01 0.  1.
    8880022    1    1    2    0    0  0.78776328652E+02 -0.32314317538E+03 -0.57330861847E+03  0.68022176294E+03  0.15294330000E+03 0.  0.
    8880022    1    1    2    0    0 -0.78776328652E+02  0.32314317538E+03  0.20878890073E+03  0.42144000740E+03  0.15294330000E+03 0.  0.
<mgrwt>
<rscale>  0 0.36608588E+03</rscale>
<asrwt>0</asrwt>
<pdfrwt beam="1">  1        4 0.56703235E-01 0.36608588E+03</pdfrwt>
<pdfrwt beam="2">  1       -4 0.11278319E+00 0.36608588E+03</pdfrwt>
<totfact> 0.35191921E+00</totfact>
</mgrwt>
</event>
<event>
 4    1  0.8653772E-009  0.2165107E+03  0.7818608E-02  0.1136511E+00
          4   -1    0    0  501    0  0.00000000000E+00  0.00000000000E+00  0.16576176770E+03  0.16576663274E+03  0.12700000000E+01 0. -1.
         -4   -1    0    0    0  501 -0.00000000000E+00 -0.00000000000E+00 -0.28278858311E+03  0.28279143488E+03  0.12700000000E+01 0. -1.
    8880022    1    1    2    0    0  0.13654286316E+03  0.69579399909E+02 -0.59140722297E+02  0.22444269741E+03  0.15294330000E+03 0.  0.
    8880022    1    1    2    0    0 -0.13654286316E+03 -0.69579399909E+02 -0.57886093120E+02  0.22411537021E+03  0.15294330000E+03 0.  0.
<mgrwt>
<rscale>  0 0.21651074E+03</rscale>
<asrwt>0</asrwt>
<pdfrwt beam="1">  1        4 0.25502404E-01 0.21651074E+03</pdfrwt>
<pdfrwt beam="2">  1       -4 0.43506529E-01 0.21651074E+03</pdfrwt>
<totfact> 0.13342860E+02</totfact>
</mgrwt>
</event>
<event>
 4    1  0.8653772E-009  0.2030409E+03  0.7818608E-02  0.1147198E+00
         -4   -1    0    0    0  501 -0.00000000000E+00  0.00000000000E+00  0.62983003757E+03  0.62983131800E+03  0.12700000000E+01 0. -1.
          4   -1    0    0  501    0  0.00000000000E+00 -0.00000000000E+00 -0.70807284471E+02  0.70818672920E+02  0.12700000000E+01 0. -1.
    8880022    1    1    2    0    0 -0.99081389745E+02  0.89536876319E+02  0.18313750981E+03  0.27343184622E+03  0.15294330000E+03 0.  0.
    8880022    1    1    2    0    0  0.99081389745E+02 -0.89536876319E+02  0.37588524329E+03  0.42721814469E+03  0.15294330000E+03 0.  0.
<mgrwt>
<rscale>  0 0.20304095E+03</rscale>
<asrwt>0</asrwt>
<pdfrwt beam="1">  1        4 0.10894403E-01 0.20304095E+03</pdfrwt>
<pdfrwt beam="2">  1       -4 0.96897903E-01 0.20304095E+03</pdfrwt>
<totfact> 0.10747624E+02</totfact>
</mgrwt>
</event>
<event>
 4    1  0.8653772E-009  0.1590932E+03  0.7818608E-02  0.1189724E+00
          4   -1    0    0  501    0  0.00000000000E+00  0.00000000000E+00  0.50152390492E+03  0.50152551291E+03  0.12700000000E+01 0. -1.
         -4   -1    0    0    0  501 -0.00000000000E+00 -0.00000000000E+00 -0.56285671634E+02  0.56299997614E+02  0.12700000000E+01 0. -1.
    8880022    1    1    2    0    0 -0.39744608507E+02  0.18421757646E+02  0.31235367162E+03  0.35053596713E+03  0.15294330000E+03 0.  0.
    8880022    1    1    2    0    0  0.39744608507E+02 -0.18421757646E+02  0.13288456167E+03  0.20728954340E+03  0.15294330000E+03 0.  0.
<mgrwt>
<rscale>  0 0.15909321E+03</rscale>
<asrwt>0</asrwt>
<pdfrwt beam="1">  1        4 0.77158753E-01 0.15909321E+03</pdfrwt>
<pdfrwt beam="2">  1       -4 0.86605593E-02 0.15909321E+03</pdfrwt>
<totfact> 0.25542121E+02</totfact>
</mgrwt>
</event>
<event>
 4    1  0.8653772E-009  0.2524579E+03  0.7818608E-02  0.1111761E+00
          4   -1    0    0  501    0  0.00000000000E+00  0.00000000000E+00  0.22361821506E+03  0.22362182140E+03  0.12700000000E+01 0. -1.
         -4   -1    0    0    0  501 -0.00000000000E+00 -0.00000000000E+00 -0.31705673994E+03  0.31705928348E+03  0.12700000000E+01 0. -1.
    8880022    1    1    2    0    0 -0.14343254607E+03 -0.14060743906E+03  0.39228041859E+02  0.25548745464E+03  0.15294330000E+03 0.  0.
    8880022    1    1    2    0    0  0.14343254607E+03  0.14060743906E+03 -0.13266656675E+03  0.28519365025E+03  0.15294330000E+03 0.  0.
<mgrwt>
<rscale>  0 0.25245792E+03</rscale>
<asrwt>0</asrwt>
<pdfrwt beam="1">  1        4 0.34403275E-01 0.25245792E+03</pdfrwt>
<pdfrwt beam="2">  1       -4 0.48778433E-01 0.25245792E+03</pdfrwt>
<totfact> 0.60886458E+01</totfact>
</mgrwt>
</event>
<event>
 4    1  0.8653772E-009  0.3728087E+03  0.7818608E-02  0.1053624E+00
         -4   -1    0    0    0  501 -0.00000000000E+00  0.00000000000E+00  0.17585015314E+03  0.17585473909E+03  0.12700000000E+01 0.  1.
          4   -1    0    0  501    0  0.00000000000E+00 -0.00000000000E+00 -0.84029664670E+03  0.84029760642E+03  0.12700000000E+01 0.  1.
    8880022    1    1    2    0    0 -0.53441506687E+02 -0.33576585067E+03 -0.20835715278E+03  0.42708202636E+03  0.15294330000E+03 0.  0.
    8880022    1    1    2    0    0  0.53441506687E+02  0.33576585067E+03 -0.45608934077E+03  0.58907031914E+03  0.15294330000E+03 0.  0.
<mgrwt>
<rscale>  0 0.37280874E+03</rscale>
<asrwt>0</asrwt>
<pdfrwt beam="1">  1        4 0.12927683E+00 0.37280874E+03</pdfrwt>
<pdfrwt beam="2">  1       -4 0.27054297E-01 0.37280874E+03</pdfrwt>
<totfact> 0.11077600E+01</totfact>
</mgrwt>
</event>
<event>
 4    1  0.8653772E-009  0.1912264E+03  0.7818608E-02  0.1157360E+00
          4   -1    0    0  501    0  0.00000000000E+00  0.00000000000E+00  0.81090463362E+02  0.81100407818E+02  0.12700000000E+01 0. -1.
         -4   -1    0    0    0  501 -0.00000000000E+00 -0.00000000000E+00 -0.50432978223E+03  0.50433138128E+03  0.12700000000E+01 0. -1.
    8880022    1    1    2    0    0 -0.78748853200E+02  0.83513503530E+02 -0.30688592406E+03  0.36158886951E+03  0.15294330000E+03 0.  0.
    8880022    1    1    2    0    0  0.78748853200E+02 -0.83513503530E+02 -0.11635339481E+03  0.22384291959E+03  0.15294330000E+03 0.  0.
<mgrwt>
<rscale>  0 0.19122641E+03</rscale>
<asrwt>0</asrwt>
<pdfrwt beam="1">  1        4 0.12476344E-01 0.19122641E+03</pdfrwt>
<pdfrwt beam="2">  1       -4 0.77590084E-01 0.19122641E+03</pdfrwt>
<totfact> 0.13962240E+02</totfact>
</mgrwt>
</event>
<event>
 4    1  0.8653772E-009  0.3242697E+03  0.7818608E-02  0.1073701E+00
         -4   -1    0    0    0  501 -0.00000000000E+00  0.00000000000E+00  0.13586785656E+04  0.13586791591E+04  0.12700000000E+01 0. -1.
          4   -1    0    0  501    0  0.00000000000E+00 -0.00000000000E+00 -0.77740821185E+02  0.77751194065E+02  0.12700000000E+01 0. -1.
    8880022    1    1    2    0    0  0.40969591201E+01 -0.28590623770E+03  0.68897659128E+03  0.76147196808E+03  0.15294330000E+03 0.  0.
    8880022    1    1    2    0    0 -0.40969591201E+01  0.28590623770E+03  0.59196115311E+03  0.67495838511E+03  0.15294330000E+03 0.  0.
<mgrwt>
<rscale>  0 0.32426966E+03</rscale>
<asrwt>0</asrwt>
<pdfrwt beam="1">  1        4 0.11960970E-01 0.32426966E+03</pdfrwt>
<pdfrwt beam="2">  1       -4 0.20902831E+00 0.32426966E+03</pdfrwt>
<totfact> 0.13040422E+01</totfact>
</mgrwt>
</event>
<event>
 4    1  0.8653772E-009  0.1556581E+03  0.7818608E-02  0.1193688E+00
          4   -1    0    0  501    0  0.00000000000E+00  0.00000000000E+00  0.80614147913E+02  0.80624151120E+02  0.12700000000E+01 0. -1.
         -4   -1    0    0    0  501 -0.00000000000E+00 -0.00000000000E+00 -0.35881293430E+03  0.35881518185E+03  0.12700000000E+01 0. -1.
    8880022    1    1    2    0    0  0.12423113508E+01 -0.28918089362E+02 -0.22765071707E+03  0.27577944308E+03  0.15294330000E+03 0.  0.
    8880022    1    1    2    0    0 -0.12423113508E+01  0.28918089362E+02 -0.50548069321E+02  0.16365988988E+03  0.15294330000E+03 0.  0.
<mgrwt>
<rscale>  0 0.15565813E+03</rscale>
<asrwt>0</asrwt>
<pdfrwt beam="1">  1        4 0.12403119E-01 0.15565813E+03</pdfrwt>
<pdfrwt beam="2">  1       -4 0.55202931E-01 0.15565813E+03</pdfrwt>
<totfact> 0.28323008E+02</totfact>
</mgrwt>
</event>
<event>
 4    1  0.8653772E-009  0.1564472E+03  0.7818608E-02  0.1192767E+00
          4   -1    0    0  501    0  0.00000000000E+00  0.00000000000E+00  0.19232833337E+02  0.19274718628E+02  0.12700000000E+01 0.  1.
         -4   -1    0    0    0  501 -0.00000000000E+00 -0.00000000000E+00 -0.16425566984E+04  0.16425571894E+04  0.12700000000E+01 0.  1.
    8880022    1    1    2    0    0  0.11679136011E+02 -0.30784157537E+02 -0.41656659528E+03  0.44497578349E+03  0.15294330000E+03 0.  0.
    8880022    1    1    2    0    0 -0.11679136011E+02  0.30784157537E+02 -0.12067572698E+04  0.12168561245E+04  0.15294330000E+03 0.  0.
<mgrwt>
<rscale>  0 0.15644718E+03</rscale>
<asrwt>0</asrwt>
<pdfrwt beam="1">  1        4 0.29621584E-02 0.15644718E+03</pdfrwt>
<pdfrwt beam="2">  1       -4 0.25270418E+00 0.15644718E+03</pdfrwt>
<totfact> 0.66823110E+01</totfact>
</mgrwt>
</event>
<event>
 4    1  0.8653772E-009  0.5086849E+03  0.7818608E-02  0.1011537E+00
         -4   -1    0    0    0  501 -0.00000000000E+00  0.00000000000E+00  0.44220801634E+03  0.44220984002E+03  0.12700000000E+01 0. -1.
          4   -1    0    0  501    0  0.00000000000E+00 -0.00000000000E+00 -0.83030121178E+03  0.83030218305E+03  0.12700000000E+01 0. -1.
    8880022    1    1    2    0    0  0.21792985402E+03  0.43344584158E+03  0.15167689025E+03  0.53081658876E+03  0.15294330000E+03 0.  0.
    8880022    1    1    2    0    0 -0.21792985402E+03 -0.43344584158E+03 -0.53977008570E+03  0.74169543431E+03  0.15294330000E+03 0.  0.
<mgrwt>
<rscale>  0 0.50868494E+03</rscale>
<asrwt>0</asrwt>
<pdfrwt beam="1">  1        4 0.12773886E+00 0.50868494E+03</pdfrwt>
<pdfrwt beam="2">  1       -4 0.68032217E-01 0.50868494E+03</pdfrwt>
<totfact> 0.17622187E+00</totfact>
</mgrwt>
</event>
<event>
 4    1  0.8653772E-009  0.2403069E+03  0.7818608E-02  0.1119589E+00
          4   -1    0    0  501    0  0.00000000000E+00  0.00000000000E+00  0.45561753791E+02  0.45579450507E+02  0.12700000000E+01 0.  1.
         -4   -1    0    0    0  501 -0.00000000000E+00 -0.00000000000E+00 -0.13870411122E+04  0.13870416936E+04  0.12700000000E+01 0.  1.
    8880022    1    1    2    0    0  0.18356437781E+03  0.25688248354E+02 -0.46017993016E+03  0.51914640328E+03  0.15294330000E+03 0.  0.
    8880022    1    1    2    0    0 -0.18356437781E+03 -0.25688248354E+02 -0.88129942825E+03  0.91347474084E+03  0.15294330000E+03 0.  0.
<mgrwt>
<rscale>  0 0.24030693E+03</rscale>
<asrwt>0</asrwt>
<pdfrwt beam="1">  1        4 0.70109077E-02 0.24030693E+03</pdfrwt>
<pdfrwt beam="2">  1       -4 0.21339231E+00 0.24030693E+03</pdfrwt>
<totfact> 0.29743880E+01</totfact>
</mgrwt>
</event>
<event>
 4    1  0.8653772E-009  0.1545303E+03  0.7818608E-02  0.1195014E+00
         -4   -1    0    0    0  501 -0.00000000000E+00  0.00000000000E+00  0.18153861093E+03  0.18154305318E+03  0.12700000000E+01 0.  1.
          4   -1    0    0  501    0  0.00000000000E+00 -0.00000000000E+00 -0.17947270582E+03  0.17947719920E+03  0.12700000000E+01 0.  1.
    8880022    1    1    2    0    0 -0.19014926747E+02  0.11241809298E+02 -0.92259731735E+02  0.17997626741E+03  0.15294330000E+03 0. -1.
    8880022    1    1    2    0    0  0.19014926747E+02 -0.11241809298E+02  0.94325636849E+02  0.18104398498E+03  0.15294330000E+03 0. -1.
<mgrwt>
<rscale>  0 0.15453025E+03</rscale>
<asrwt>0</asrwt>
<pdfrwt beam="1">  1        4 0.27611873E-01 0.15453025E+03</pdfrwt>
<pdfrwt beam="2">  1       -4 0.27929705E-01 0.15453025E+03</pdfrwt>
<totfact> 0.25825764E+02</totfact>
</mgrwt>
</event>
<event>
 4    1  0.8653772E-009  0.2103805E+03  0.7818608E-02  0.1141265E+00
          4   -1    0    0  501    0  0.00000000000E+00  0.00000000000E+00  0.92102030785E+02  0.92110786419E+02  0.12700000000E+01 0. -1.
         -4   -1    0    0    0  501 -0.00000000000E+00 -0.00000000000E+00 -0.57058613520E+03  0.57058754857E+03  0.12700000000E+01 0. -1.
    8880022    1    1    2    0    0 -0.82463799491E+02 -0.11860877175E+03 -0.10759866049E+03  0.23629947887E+03  0.15294330000E+03 0.  0.
    8880022    1    1    2    0    0  0.82463799491E+02  0.11860877175E+03 -0.37088544392E+03  0.42639885611E+03  0.15294330000E+03 0.  0.
<mgrwt>
<rscale>  0 0.21038054E+03</rscale>
<asrwt>0</asrwt>
<pdfrwt beam="1">  1        4 0.14170326E-01 0.21038054E+03</pdfrwt>
<pdfrwt beam="2">  1       -4 0.87783263E-01 0.21038054E+03</pdfrwt>
<totfact> 0.85917522E+01</totfact>
</mgrwt>
</event>
<event>
 4    1  0.8653772E-009  0.2319163E+03  0.7818608E-02  0.1125298E+00
          4   -1    0    0  501    0  0.00000000000E+00  0.00000000000E+00  0.73795600574E+02  0.73806527923E+02  0.12700000000E+01 0. -1.
         -4   -1    0    0    0  501 -0.00000000000E+00 -0.00000000000E+00 -0.73015284383E+03  0.73015394832E+03  0.12700000000E+01 0. -1.
    8880022    1    1    2    0    0 -0.15663837873E+03  0.76537050236E+02 -0.34564605029E+03  0.41624073185E+03  0.15294330000E+03 0.  0.
    8880022    1    1    2    0    0  0.15663837873E+03 -0.76537050236E+02 -0.31071119296E+03  0.38771974440E+03  0.15294330000E+03 0.  0.
<mgrwt>
<rscale>  0 0.23191627E+03</rscale>
<asrwt>0</asrwt>
<pdfrwt beam="1">  1        4 0.11354095E-01 0.23191627E+03</pdfrwt>
<pdfrwt beam="2">  1       -4 0.11233213E+00 0.23191627E+03</pdfrwt>
<totfact> 0.71834897E+01</totfact>
</mgrwt>
</event>
<event>
 4    1  0.8653772E-009  0.1574052E+03  0.7818608E-02  0.1191658E+00
         -4   -1    0    0    0  501 -0.00000000000E+00  0.00000000000E+00  0.13318002087E+03  0.13318607607E+03  0.12700000000E+01 0. -1.
          4   -1    0    0  501    0  0.00000000000E+00 -0.00000000000E+00 -0.19048710233E+03  0.19049133590E+03  0.12700000000E+01 0. -1.
    8880022    1    1    2    0    0 -0.18555624118E+02  0.32255849256E+02 -0.38831801593E+01  0.15745311398E+03  0.15294330000E+03 0.  0.
    8880022    1    1    2    0    0  0.18555624118E+02 -0.32255849256E+02 -0.53423901299E+02  0.16622429799E+03  0.15294330000E+03 0.  0.
<mgrwt>
<rscale>  0 0.15740522E+03</rscale>
<asrwt>0</asrwt>
<pdfrwt beam="1">  1        4 0.29306500E-01 0.15740522E+03</pdfrwt>
<pdfrwt beam="2">  1       -4 0.20490025E-01 0.15740522E+03</pdfrwt>
<totfact> 0.40984231E+02</totfact>
</mgrwt>
</event>
<event>
 4    1  0.8653772E-009  0.2832342E+03  0.7818608E-02  0.1093936E+00
          4   -1    0    0  501    0  0.00000000000E+00  0.00000000000E+00  0.37696777843E+03  0.37696991773E+03  0.12700000000E+01 0.  1.
         -4   -1    0    0    0  501 -0.00000000000E+00 -0.00000000000E+00 -0.21289243852E+03  0.21289622655E+03  0.12700000000E+01 0.  1.
    8880022    1    1    2    0    0  0.12485205708E+03 -0.20308103419E+03  0.75990213126E+02  0.29325093028E+03  0.15294330000E+03 0.  0.
    8880022    1    1    2    0    0 -0.12485205708E+03  0.20308103419E+03  0.88085126780E+02  0.29661521400E+03  0.15294330000E+03 0.  0.
<mgrwt>
<rscale>  0 0.28323417E+03</rscale>
<asrwt>0</asrwt>
<pdfrwt beam="1">  1        4 0.57995498E-01 0.28323417E+03</pdfrwt>
<pdfrwt beam="2">  1       -4 0.32753139E-01 0.28323417E+03</pdfrwt>
<totfact> 0.47278624E+01</totfact>
</mgrwt>
</event>
<event>
 4    1  0.8653772E-009  0.3246504E+03  0.7818608E-02  0.1073529E+00
         -4   -1    0    0    0  501 -0.00000000000E+00  0.00000000000E+00  0.34139845610E+03  0.34140081829E+03  0.12700000000E+01 0.  1.
          4   -1    0    0  501    0  0.00000000000E+00 -0.00000000000E+00 -0.31704378753E+03  0.31704633118E+03  0.12700000000E+01 0.  1.
    8880022    1    1    2    0    0  0.26103304741E+03  0.11776224840E+03 -0.41169795241E+02  0.32725036905E+03  0.15294330000E+03 0.  0.
    8880022    1    1    2    0    0 -0.26103304741E+03 -0.11776224840E+03  0.65524463809E+02  0.33119678042E+03  0.15294330000E+03 0.  0.
<mgrwt>
<rscale>  0 0.32465035E+03</rscale>
<asrwt>0</asrwt>
<pdfrwt beam="1">  1        4 0.48776344E-01 0.32465035E+03</pdfrwt>
<pdfrwt beam="2">  1       -4 0.52523217E-01 0.32465035E+03</pdfrwt>
<totfact> 0.26598140E+01</totfact>
</mgrwt>
</event>
<event>
 4    1  0.8653772E-009  0.1916782E+03  0.7818608E-02  0.1156956E+00
         -4   -1    0    0    0  501 -0.00000000000E+00  0.00000000000E+00  0.66060126505E+03  0.66060248584E+03  0.12700000000E+01 0. -1.
          4   -1    0    0  501    0  0.00000000000E+00 -0.00000000000E+00 -0.70161745167E+02  0.70173238381E+02  0.12700000000E+01 0. -1.
    8880022    1    1    2    0    0 -0.34963155059E+01 -0.11548451387E+03  0.46161568106E+03  0.49982955813E+03  0.15294330000E+03 0.  0.
    8880022    1    1    2    0    0  0.34963155059E+01  0.11548451387E+03  0.12882383883E+03  0.23094616609E+03  0.15294330000E+03 0.  0.
<mgrwt>
<rscale>  0 0.19167825E+03</rscale>
<asrwt>0</asrwt>
<pdfrwt beam="1">  1        4 0.10795093E-01 0.19167825E+03</pdfrwt>
<pdfrwt beam="2">  1       -4 0.10163194E+00 0.19167825E+03</pdfrwt>
<totfact> 0.96951932E+01</totfact>
</mgrwt>
</event>
<event>
 4    1  0.8653772E-009  0.1932652E+03  0.7818608E-02  0.1155549E+00
         -4   -1    0    0    0  501 -0.00000000000E+00  0.00000000000E+00  0.54847074101E+02  0.54861775741E+02  0.12700000000E+01 0. -1.
          4   -1    0    0  501    0  0.00000000000E+00 -0.00000000000E+00 -0.94646289488E+03  0.94646374695E+03  0.12700000000E+01 0. -1.
    8880022    1    1    2    0    0  0.95101221995E+02  0.70111060390E+02 -0.18061004963E+03  0.26452116410E+03  0.15294330000E+03 0.  1.
    8880022    1    1    2    0    0 -0.95101221995E+02 -0.70111060390E+02 -0.71100577115E+03  0.73680435859E+03  0.15294330000E+03 0.  1.
<mgrwt>
<rscale>  0 0.19326525E+03</rscale>
<asrwt>0</asrwt>
<pdfrwt beam="1">  1        4 0.14561086E+00 0.19326525E+03</pdfrwt>
<pdfrwt beam="2">  1       -4 0.84392085E-02 0.19326525E+03</pdfrwt>
<totfact> 0.61268666E+01</totfact>
</mgrwt>
</event>
<event>
 4    1  0.8653772E-009  0.1688915E+03  0.7818608E-02  0.1179009E+00
          4   -1    0    0  501    0  0.00000000000E+00  0.00000000000E+00  0.67684048303E+02  0.67695962174E+02  0.12700000000E+01 0.  1.
         -4   -1    0    0    0  501 -0.00000000000E+00 -0.00000000000E+00 -0.42515955287E+03  0.42516144968E+03  0.12700000000E+01 0.  1.
    8880022    1    1    2    0    0  0.67378555086E+02 -0.24347711777E+02 -0.15551478180E+03  0.22958480161E+03  0.15294330000E+03 0.  1.
    8880022    1    1    2    0    0 -0.67378555086E+02  0.24347711777E+02 -0.20196072276E+03  0.26327261025E+03  0.15294330000E+03 0.  1.
<mgrwt>
<rscale>  0 0.16889149E+03</rscale>
<asrwt>0</asrwt>
<pdfrwt beam="1">  1        4 0.10413993E-01 0.16889149E+03</pdfrwt>
<pdfrwt beam="2">  1       -4 0.65410223E-01 0.16889149E+03</pdfrwt>
<totfact> 0.27068772E+02</totfact>
</mgrwt>
</event>
<event>
 4    1  0.8653772E-009  0.5938786E+03  0.7818608E-02  0.9918188E-01
          4   -1    0    0  501    0  0.00000000000E+00  0.00000000000E+00  0.19441550347E+04  0.19441554495E+04  0.12700000000E+01 0.  1.
         -4   -1    0    0    0  501 -0.00000000000E+00 -0.00000000000E+00 -0.18160309682E+03  0.18160753750E+03  0.12700000000E+01 0.  1.
    8880022    1    1    2    0    0 -0.12413619432E+03 -0.56025913849E+03  0.84649895168E+03  0.10340465295E+04  0.15294330000E+03 0.  0.
    8880022    1    1    2    0    0  0.12413619432E+03  0.56025913849E+03  0.91605298615E+03  0.10917164574E+04  0.15294330000E+03 0.  0.
<mgrwt>
<rscale>  0 0.59387857E+03</rscale>
<asrwt>0</asrwt>
<pdfrwt beam="1">  1        4 0.29910114E+00 0.59387857E+03</pdfrwt>
<pdfrwt beam="2">  1       -4 0.27939312E-01 0.59387857E+03</pdfrwt>
<totfact> 0.79111011E-01</totfact>
</mgrwt>
</event>
<event>
 4    1  0.8653772E-009  0.2413609E+03  0.7818608E-02  0.1118890E+00
          4   -1    0    0  501    0  0.00000000000E+00  0.00000000000E+00  0.22912090414E+03  0.22912442387E+03  0.12700000000E+01 0. -1.
         -4   -1    0    0    0  501 -0.00000000000E+00 -0.00000000000E+00 -0.29268227435E+03  0.29268502972E+03  0.12700000000E+01 0.  1.
    8880022    1    1    2    0    0  0.10530365836E+03 -0.15419010712E+03 -0.12632586904E+03  0.27242123229E+03  0.15294330000E+03 0.  0.
    8880022    1    1    2    0    0 -0.10530365836E+03  0.15419010712E+03  0.62764498829E+02  0.24938822130E+03  0.15294330000E+03 0.  0.
<mgrwt>
<rscale>  0 0.24136094E+03</rscale>
<asrwt>0</asrwt>
<pdfrwt beam="1">  1        4 0.35249853E-01 0.24136094E+03</pdfrwt>
<pdfrwt beam="2">  1       -4 0.45028525E-01 0.24136094E+03</pdfrwt>
<totfact> 0.68012754E+01</totfact>
</mgrwt>
</event>
<event>
 4    1  0.8653772E-009  0.2023965E+03  0.7818608E-02  0.1147733E+00
         -4   -1    0    0    0  501 -0.00000000000E+00  0.00000000000E+00  0.61391721855E+03  0.61391853216E+03  0.12700000000E+01 0.  1.
          4   -1    0    0  501    0  0.00000000000E+00 -0.00000000000E+00 -0.13449533377E+03  0.13450132975E+03  0.12700000000E+01 0. -1.
    8880022    1    1    2    0    0 -0.13122779259E+03  0.18760319071E+02 -0.25923809186E+02  0.20404994491E+03  0.15294330000E+03 0. -1.
    8880022    1    1    2    0    0  0.13122779259E+03 -0.18760319071E+02  0.50534569396E+03  0.54436991701E+03  0.15294330000E+03 0.  0.
<mgrwt>
<rscale>  0 0.20239648E+03</rscale>
<asrwt>0</asrwt>
<pdfrwt beam="1">  1        4 0.20692152E-01 0.20239648E+03</pdfrwt>
<pdfrwt beam="2">  1       -4 0.94449364E-01 0.20239648E+03</pdfrwt>
<totfact> 0.36803943E+01</totfact>
</mgrwt>
</event>
<event>
 4    1  0.8653772E-009  0.2006207E+03  0.7818608E-02  0.1149216E+00
          4   -1    0    0  501    0  0.00000000000E+00  0.00000000000E+00  0.15663797536E+03  0.15664312377E+03  0.12700000000E+01 0.  1.
         -4   -1    0    0    0  501 -0.00000000000E+00 -0.00000000000E+00 -0.26843473171E+03  0.26843773596E+03  0.12700000000E+01 0.  1.
    8880022    1    1    2    0    0 -0.12676649348E+02 -0.12921414550E+03 -0.99874836582E+02  0.22410628914E+03  0.15294330000E+03 0.  0.
    8880022    1    1    2    0    0  0.12676649348E+02  0.12921414550E+03 -0.11921919761E+02  0.20097457059E+03  0.15294330000E+03 0.  0.
<mgrwt>
<rscale>  0 0.20062065E+03</rscale>
<asrwt>0</asrwt>
<pdfrwt beam="1">  1        4 0.24098777E-01 0.20062065E+03</pdfrwt>
<pdfrwt beam="2">  1       -4 0.41298278E-01 0.20062065E+03</pdfrwt>
<totfact> 0.16280571E+02</totfact>
</mgrwt>
</event>
<event>
 4    1  0.8653772E-009  0.2753566E+03  0.7818608E-02  0.1098252E+00
          4   -1    0    0  501    0  0.00000000000E+00  0.00000000000E+00  0.11103083043E+04  0.11103090306E+04  0.12700000000E+01 0. -1.
         -4   -1    0    0    0  501 -0.00000000000E+00 -0.00000000000E+00 -0.69164088686E+02  0.69175747656E+02  0.12700000000E+01 0. -1.
    8880022    1    1    2    0    0 -0.18988075938E+03 -0.12796447252E+03  0.45397080912E+03  0.53095268862E+03  0.15294330000E+03 0.  0.
    8880022    1    1    2    0    0  0.18988075938E+03  0.12796447252E+03  0.58717340646E+03  0.64853208963E+03  0.15294330000E+03 0.  0.
<mgrwt>
<rscale>  0 0.27535661E+03</rscale>
<asrwt>0</asrwt>
<pdfrwt beam="1">  1        4 0.17081762E+00 0.27535661E+03</pdfrwt>
<pdfrwt beam="2">  1       -4 0.10641581E-01 0.27535661E+03</pdfrwt>
<totfact> 0.28134734E+01</totfact>
</mgrwt>
</event>
<event>
 4    1  0.8653772E-009  0.2884210E+03  0.7818608E-02  0.1091176E+00
          4   -1    0    0  501    0  0.00000000000E+00  0.00000000000E+00  0.57184813730E+03  0.57184954755E+03  0.12700000000E+01 0. -1.
         -4   -1    0    0    0  501 -0.00000000000E+00 -0.00000000000E+00 -0.14579607670E+03  0.14580160795E+03  0.12700000000E+01 0. -1.
    8880022    1    1    2    0    0  0.11818255400E+03  0.21407457284E+03  0.23011085141E+03  0.36896842108E+03  0.15294330000E+03 0.  0.
    8880022    1    1    2    0    0 -0.11818255400E+03 -0.21407457284E+03  0.19594120920E+03  0.34868273442E+03  0.15294330000E+03 0.  0.
<mgrwt>
<rscale>  0 0.28842103E+03</rscale>
<asrwt>0</asrwt>
<pdfrwt beam="1">  1        4 0.87977170E-01 0.28842103E+03</pdfrwt>
<pdfrwt beam="2">  1       -4 0.22430700E-01 0.28842103E+03</pdfrwt>
<totfact> 0.38768271E+01</totfact>
</mgrwt>
</event>
<event>
 4    1  0.8653772E-009  0.3790756E+03  0.7818608E-02  0.1051276E+00
         -4   -1    0    0    0  501 -0.00000000000E+00  0.00000000000E+00  0.28103382014E+03  0.28103668971E+03  0.12700000000E+01 0. -1.
          4   -1    0    0  501    0  0.00000000000E+00 -0.00000000000E+00 -0.51266825729E+03  0.51266983033E+03  0.12700000000E+01 0. -1.
    8880022    1    1    2    0    0  0.84183949773E+02  0.33648142258E+03 -0.13621261085E+03  0.40280542885E+03  0.15294330000E+03 0.  0.
    8880022    1    1    2    0    0 -0.84183949773E+02 -0.33648142258E+03 -0.95421826301E+02  0.39090109119E+03  0.15294330000E+03 0.  0.
<mgrwt>
<rscale>  0 0.37907564E+03</rscale>
<asrwt>0</asrwt>
<pdfrwt beam="1">  1        4 0.78872381E-01 0.37907564E+03</pdfrwt>
<pdfrwt beam="2">  1       -4 0.43236314E-01 0.37907564E+03</pdfrwt>
<totfact> 0.14269582E+01</totfact>
</mgrwt>
</event>
<event>
 4    1  0.8653772E-009  0.1592887E+03  0.7818608E-02  0.1189502E+00
         -4   -1    0    0    0  501 -0.00000000000E+00  0.00000000000E+00  0.58462013945E+03  0.58462151889E+03  0.12700000000E+01 0. -1.
          4   -1    0    0  501    0  0.00000000000E+00 -0.00000000000E+00 -0.43793625353E+02  0.43812036264E+02  0.12700000000E+01 0. -1.
    8880022    1    1    2    0    0  0.13540581826E+02 -0.42401627172E+02  0.24025201448E+03  0.28826017557E+03  0.15294330000E+03 0. -1.
    8880022    1    1    2    0    0 -0.13540581826E+02  0.42401627172E+02  0.30057449962E+03  0.34017337958E+03  0.15294330000E+03 0. -1.
<mgrwt>
<rscale>  0 0.15928873E+03</rscale>
<asrwt>0</asrwt>
<pdfrwt beam="1">  1        4 0.67390032E-02 0.15928873E+03</pdfrwt>
<pdfrwt beam="2">  1       -4 0.89943081E-01 0.15928873E+03</pdfrwt>
<totfact> 0.27481356E+02</totfact>
</mgrwt>
</event>
<event>
 4    1  0.8653772E-009  0.2941689E+03  0.7818608E-02  0.1088192E+00
         -4   -1    0    0    0  501 -0.00000000000E+00  0.00000000000E+00  0.81210872692E+03  0.81210971995E+03  0.12700000000E+01 0.  1.
          4   -1    0    0  501    0  0.00000000000E+00 -0.00000000000E+00 -0.10730624338E+03  0.10731375853E+03  0.12700000000E+01 0.  1.
    8880022    1    1    2    0    0 -0.24602008839E+03 -0.51164248982E+02  0.31384790638E+03  0.43015790777E+03  0.15294330000E+03 0.  0.
    8880022    1    1    2    0    0  0.24602008839E+03  0.51164248982E+02  0.39095457716E+03  0.48926557071E+03  0.15294330000E+03 0.  0.
<mgrwt>
<rscale>  0 0.29416886E+03</rscale>
<asrwt>0</asrwt>
<pdfrwt beam="1">  1        4 0.16509308E-01 0.29416886E+03</pdfrwt>
<pdfrwt beam="2">  1       -4 0.12494046E+00 0.29416886E+03</pdfrwt>
<totfact> 0.29454516E+01</totfact>
</mgrwt>
</event>
<event>
 4    1  0.8653772E-009  0.1883589E+03  0.7818608E-02  0.1159950E+00
         -4   -1    0    0    0  501 -0.00000000000E+00  0.00000000000E+00  0.39980655073E+03  0.39980856782E+03  0.12700000000E+01 0. -1.
          4   -1    0    0  501    0  0.00000000000E+00 -0.00000000000E+00 -0.88741211581E+02  0.88750298776E+02  0.12700000000E+01 0. -1.
    8880022    1    1    2    0    0 -0.10963220743E+03  0.82580470901E+01  0.15776418239E+03  0.24570023709E+03  0.15294330000E+03 0.  0.
    8880022    1    1    2    0    0  0.10963220743E+03 -0.82580470901E+01  0.15330115676E+03  0.24285862951E+03  0.15294330000E+03 0.  0.
<mgrwt>
<rscale>  0 0.18835888E+03</rscale>
<asrwt>0</asrwt>
<pdfrwt beam="1">  1        4 0.13653348E-01 0.18835888E+03</pdfrwt>
<pdfrwt beam="2">  1       -4 0.61509555E-01 0.18835888E+03</pdfrwt>
<totfact> 0.19711682E+02</totfact>
</mgrwt>
</event>
<event>
 4    1  0.8653772E-009  0.2054494E+03  0.7818608E-02  0.1145221E+00
          4   -1    0    0  501    0  0.00000000000E+00  0.00000000000E+00  0.57091628896E+03  0.57091770151E+03  0.12700000000E+01 0.  1.
         -4   -1    0    0    0  501 -0.00000000000E+00 -0.00000000000E+00 -0.15029014568E+03  0.15029551154E+03  0.12700000000E+01 0.  1.
    8880022    1    1    2    0    0  0.13327574712E+03 -0.32486872502E+02 -0.46726301586E+02  0.21069604156E+03  0.15294330000E+03 0.  0.
    8880022    1    1    2    0    0 -0.13327574712E+03  0.32486872502E+02  0.46735244486E+03  0.51051717149E+03  0.15294330000E+03 0.  0.
<mgrwt>
<rscale>  0 0.20544945E+03</rscale>
<asrwt>0</asrwt>
<pdfrwt beam="1">  1        4 0.87833795E-01 0.20544945E+03</pdfrwt>
<pdfrwt beam="2">  1       -4 0.23122083E-01 0.20544945E+03</pdfrwt>
<totfact> 0.35511238E+01</totfact>
</mgrwt>
</event>
<event>
 4    1  0.8653772E-009  0.1652572E+03  0.7818608E-02  0.1182886E+00
         -4   -1    0    0    0  501 -0.00000000000E+00  0.00000000000E+00  0.50370914022E+03  0.50371074124E+03  0.12700000000E+01 0. -1.
          4   -1    0    0  501    0  0.00000000000E+00 -0.00000000000E+00 -0.78792888210E+02  0.78803122606E+02  0.12700000000E+01 0. -1.
    8880022    1    1    2    0    0  0.11638501596E+02 -0.61504648227E+02  0.49782245478E+02  0.17259258806E+03  0.15294330000E+03 0.  0.
    8880022    1    1    2    0    0 -0.11638501596E+02  0.61504648227E+02  0.37513400653E+03  0.40992127579E+03  0.15294330000E+03 0.  0.
<mgrwt>
<rscale>  0 0.16525716E+03</rscale>
<asrwt>0</asrwt>
<pdfrwt beam="1">  1        4 0.12122893E-01 0.16525716E+03</pdfrwt>
<pdfrwt beam="2">  1       -4 0.77494625E-01 0.16525716E+03</pdfrwt>
<totfact> 0.14393842E+02</totfact>
</mgrwt>
</event>
<event>
 4    1  0.8653772E-009  0.1712655E+03  0.7818608E-02  0.1176534E+00
         -4   -1    0    0    0  501 -0.00000000000E+00  0.00000000000E+00  0.79751482852E+02  0.79761594249E+02  0.12700000000E+01 0.  1.
          4   -1    0    0  501    0  0.00000000000E+00 -0.00000000000E+00 -0.37012767435E+03  0.37012985318E+03  0.12700000000E+01 0.  1.
    8880022    1    1    2    0    0 -0.22883206950E+02  0.73597503340E+02 -0.16319205867E+03  0.23656613174E+03  0.15294330000E+03 0.  1.
    8880022    1    1    2    0    0  0.22883206950E+02 -0.73597503340E+02 -0.12718413283E+03  0.21332531570E+03  0.15294330000E+03 0.  1.
<mgrwt>
<rscale>  0 0.17126554E+03</rscale>
<asrwt>0</asrwt>
<pdfrwt beam="1">  1        4 0.56943663E-01 0.17126554E+03</pdfrwt>
<pdfrwt beam="2">  1       -4 0.12270405E-01 0.17126554E+03</pdfrwt>
<totfact> 0.27482078E+02</totfact>
</mgrwt>
</event>
<event>
 4    1  0.8653772E-009  0.1814519E+03  0.7818608E-02  0.1166405E+00
         -4   -1    0    0    0  501 -0.00000000000E+00  0.00000000000E+00  0.61076863268E+03  0.61076995307E+03  0.12700000000E+01 0. -1.
          4   -1    0    0  501    0  0.00000000000E+00 -0.00000000000E+00 -0.80700901612E+02  0.80710894066E+02  0.12700000000E+01 0. -1.
    8880022    1    1    2    0    0  0.96836983937E+02 -0.12480108637E+02  0.46426730968E+03  0.49846659108E+03  0.15294330000E+03 0.  0.
    8880022    1    1    2    0    0 -0.96836983937E+02  0.12480108637E+02  0.65800421390E+02  0.19301425605E+03  0.15294330000E+03 0.  0.
<mgrwt>
<rscale>  0 0.18145194E+03</rscale>
<asrwt>0</asrwt>
<pdfrwt beam="1">  1        4 0.12416393E-01 0.18145194E+03</pdfrwt>
<pdfrwt beam="2">  1       -4 0.93965276E-01 0.18145194E+03</pdfrwt>
<totfact> 0.90754365E+01</totfact>
</mgrwt>
</event>
<event>
 4    1  0.8653772E-009  0.2442327E+03  0.7818608E-02  0.1117005E+00
         -4   -1    0    0    0  501 -0.00000000000E+00  0.00000000000E+00  0.17381363720E+03  0.17381827688E+03  0.12700000000E+01 0. -1.
          4   -1    0    0  501    0  0.00000000000E+00 -0.00000000000E+00 -0.39407697526E+03  0.39407902168E+03  0.12700000000E+01 0. -1.
    8880022    1    1    2    0    0 -0.93929038925E+02  0.16563601180E+03 -0.21218563980E+03  0.32353106730E+03  0.15294330000E+03 0.  0.
    8880022    1    1    2    0    0  0.93929038925E+02 -0.16563601180E+03 -0.80776982556E+01  0.24436623126E+03  0.15294330000E+03 0.  0.
<mgrwt>
<rscale>  0 0.24423269E+03</rscale>
<asrwt>0</asrwt>
<pdfrwt beam="1">  1        4 0.60627741E-01 0.24423269E+03</pdfrwt>
<pdfrwt beam="2">  1       -4 0.26741074E-01 0.24423269E+03</pdfrwt>
<totfact> 0.62382284E+01</totfact>
</mgrwt>
</event>
<event>
 4    1  0.8653772E-009  0.2343032E+03  0.7818608E-02  0.1123647E+00
          4   -1    0    0  501    0  0.00000000000E+00  0.00000000000E+00  0.80112868304E+02  0.80122934094E+02  0.12700000000E+01 0.  1.
         -4   -1    0    0    0  501 -0.00000000000E+00 -0.00000000000E+00 -0.71906819850E+03  0.71906932002E+03  0.12700000000E+01 0.  1.
    8880022    1    1    2    0    0  0.13931709889E+03 -0.10998669457E+03 -0.40619414437E+03  0.46892607409E+03  0.15294330000E+03 0.  0.
    8880022    1    1    2    0    0 -0.13931709889E+03  0.10998669457E+03 -0.23276118583E+03  0.33026618002E+03  0.15294330000E+03 0.  0.
<mgrwt>
<rscale>  0 0.23430318E+03</rscale>
<asrwt>0</asrwt>
<pdfrwt beam="1">  1        4 0.12325918E-01 0.23430318E+03</pdfrwt>
<pdfrwt beam="2">  1       -4 0.11062673E+00 0.23430318E+03</pdfrwt>
<totfact> 0.64736784E+01</totfact>
</mgrwt>
</event>
<event>
 4    1  0.8653772E-009  0.1692344E+03  0.7818608E-02  0.1178649E+00
         -4   -1    0    0    0  501 -0.00000000000E+00  0.00000000000E+00  0.41954956088E+03  0.41955148306E+03  0.12700000000E+01 0. -1.
          4   -1    0    0  501    0  0.00000000000E+00 -0.00000000000E+00 -0.79689434857E+02  0.79699554125E+02  0.12700000000E+01 0. -1.
    8880022    1    1    2    0    0  0.63966566100E+02  0.34013199261E+02  0.75385798521E+02  0.18526546072E+03  0.15294330000E+03 0.  1.
    8880022    1    1    2    0    0 -0.63966566100E+02 -0.34013199261E+02  0.26447432751E+03  0.31398557646E+03  0.15294330000E+03 0.  1.
<mgrwt>
<rscale>  0 0.16923437E+03</rscale>
<asrwt>0</asrwt>
<pdfrwt beam="1">  1        4 0.12260840E-01 0.16923437E+03</pdfrwt>
<pdfrwt beam="2">  1       -4 0.64547011E-01 0.16923437E+03</pdfrwt>
<totfact> 0.21073642E+02</totfact>
</mgrwt>
</event>
<event>
 4    1  0.8653772E-009  0.2136611E+03  0.7818608E-02  0.1138699E+00
          4   -1    0    0  501    0  0.00000000000E+00  0.00000000000E+00  0.11005332972E+04  0.11005340300E+04  0.12700000000E+01 0. -1.
         -4   -1    0    0    0  501 -0.00000000000E+00 -0.00000000000E+00 -0.43603849542E+02  0.43622340548E+02  0.12700000000E+01 0. -1.
    8880022    1    1    2    0    0  0.14422293342E+03  0.38199178820E+02  0.40195169456E+03  0.45521011584E+03  0.15294330000E+03 0.  1.
    8880022    1    1    2    0    0 -0.14422293342E+03 -0.38199178820E+02  0.65497775314E+03  0.68894625473E+03  0.15294330000E+03 0.  1.
<mgrwt>
<rscale>  0 0.21366114E+03</rscale>
<asrwt>0</asrwt>
<pdfrwt beam="1">  1        4 0.16931429E+00 0.21366114E+03</pdfrwt>
<pdfrwt beam="2">  1       -4 0.67097636E-02 0.21366114E+03</pdfrwt>
<totfact> 0.61120451E+01</totfact>
</mgrwt>
</event>
<event>
 4    1  0.8653772E-009  0.1965422E+03  0.7818608E-02  0.1152690E+00
         -4   -1    0    0    0  501 -0.00000000000E+00  0.00000000000E+00  0.78195970192E+03  0.78196073324E+03  0.12700000000E+01 0.  1.
          4   -1    0    0  501    0  0.00000000000E+00 -0.00000000000E+00 -0.73243201977E+02  0.73254211728E+02  0.12700000000E+01 0.  1.
    8880022    1    1    2    0    0 -0.78379001152E+02 -0.95362024817E+02  0.11036150442E+03  0.22540740509E+03  0.15294330000E+03 0.  0.
    8880022    1    1    2    0    0  0.78379001152E+02  0.95362024817E+02  0.59835499553E+03  0.62980753988E+03  0.15294330000E+03 0.  0.
<mgrwt>
<rscale>  0 0.19654220E+03</rscale>
<asrwt>0</asrwt>
<pdfrwt beam="1">  1        4 0.11269111E-01 0.19654220E+03</pdfrwt>
<pdfrwt beam="2">  1       -4 0.12030243E+00 0.19654220E+03</pdfrwt>
<totfact> 0.60479477E+01</totfact>
</mgrwt>
</event>
<event>
 4    1  0.8653772E-009  0.1695627E+03  0.7818608E-02  0.1178305E+00
          4   -1    0    0  501    0  0.00000000000E+00  0.00000000000E+00  0.24650597549E+03  0.24650924699E+03  0.12700000000E+01 0. -1.
         -4   -1    0    0    0  501 -0.00000000000E+00 -0.00000000000E+00 -0.11803183415E+03  0.11803866643E+03  0.12700000000E+01 0. -1.
    8880022    1    1    2    0    0  0.21143335657E+02  0.70091594699E+02  0.44364537501E+02  0.17527046954E+03  0.15294330000E+03 0.  0.
    8880022    1    1    2    0    0 -0.21143335657E+02 -0.70091594699E+02  0.84109603838E+02  0.18927744388E+03  0.15294330000E+03 0.  0.
<mgrwt>
<rscale>  0 0.16956275E+03</rscale>
<asrwt>0</asrwt>
<pdfrwt beam="1">  1        4 0.37924773E-01 0.16956275E+03</pdfrwt>
<pdfrwt beam="2">  1       -4 0.18159521E-01 0.16956275E+03</pdfrwt>
<totfact> 0.31406277E+02</totfact>
</mgrwt>
</event>
<event>
 4    1  0.8653772E-009  0.2838792E+03  0.7818608E-02  0.1093589E+00
          4   -1    0    0  501    0  0.00000000000E+00  0.00000000000E+00  0.79374511527E+02  0.79384670939E+02  0.12700000000E+01 0. -1.
         -4   -1    0    0    0  501 -0.00000000000E+00 -0.00000000000E+00 -0.10210348828E+04  0.10210356726E+04  0.12700000000E+01 0. -1.
    8880022    1    1    2    0    0  0.12965512448E+03 -0.20096090357E+03 -0.51240584100E+03  0.58578761934E+03  0.15294330000E+03 0.  0.
    8880022    1    1    2    0    0 -0.12965512448E+03  0.20096090357E+03 -0.42925453023E+03  0.51463272419E+03  0.15294330000E+03 0.  0.
<mgrwt>
<rscale>  0 0.28387918E+03</rscale>
<asrwt>0</asrwt>
<pdfrwt beam="1">  1        4 0.12212306E-01 0.28387918E+03</pdfrwt>
<pdfrwt beam="2">  1       -4 0.15708312E+00 0.28387918E+03</pdfrwt>
<totfact> 0.27851403E+01</totfact>
</mgrwt>
</event>
<event>
 4    1  0.8653772E-009  0.5162993E+03  0.7818608E-02  0.1009610E+00
          4   -1    0    0  501    0  0.00000000000E+00  0.00000000000E+00  0.34952392811E+03  0.34952623538E+03  0.12700000000E+01 0.  1.
         -4   -1    0    0    0  501 -0.00000000000E+00 -0.00000000000E+00 -0.10774811157E+04  0.10774818641E+04  0.12700000000E+01 0.  1.
    8880022    1    1    2    0    0  0.14846858999E+03 -0.47024501725E+03  0.21706129356E+02  0.51675536526E+03  0.15294330000E+03 0.  0.
    8880022    1    1    2    0    0 -0.14846858999E+03  0.47024501725E+03 -0.74966331693E+03  0.91025273425E+03  0.15294330000E+03 0.  0.
<mgrwt>
<rscale>  0 0.51629928E+03</rscale>
<asrwt>0</asrwt>
<pdfrwt beam="1">  1        4 0.53773148E-01 0.51629928E+03</pdfrwt>
<pdfrwt beam="2">  1       -4 0.16576656E+00 0.51629928E+03</pdfrwt>
<totfact> 0.14780261E+00</totfact>
</mgrwt>
</event>
<event>
 4    1  0.8653772E-009  0.1920338E+03  0.7818608E-02  0.1156640E+00
         -4   -1    0    0    0  501 -0.00000000000E+00  0.00000000000E+00  0.42632772671E+02  0.42651684675E+02  0.12700000000E+01 0.  1.
          4   -1    0    0  501    0  0.00000000000E+00 -0.00000000000E+00 -0.10113868119E+04  0.10113876093E+04  0.12700000000E+01 0.  1.
    8880022    1    1    2    0    0  0.18682698991E+02 -0.11461365187E+03 -0.68502766160E+03  0.71143508672E+03  0.15294330000E+03 0.  0.
    8880022    1    1    2    0    0 -0.18682698991E+02  0.11461365187E+03 -0.28372637764E+03  0.34260420724E+03  0.15294330000E+03 0.  0.
<mgrwt>
<rscale>  0 0.19203381E+03</rscale>
<asrwt>0</asrwt>
<pdfrwt beam="1">  1        4 0.15559947E+00 0.19203381E+03</pdfrwt>
<pdfrwt beam="2">  1       -4 0.65604050E-02 0.19203381E+03</pdfrwt>
<totfact> 0.78388255E+01</totfact>
</mgrwt>
</event>
<event>
 4    1  0.8653772E-009  0.3015091E+03  0.7818608E-02  0.1084489E+00
         -4   -1    0    0    0  501 -0.00000000000E+00  0.00000000000E+00  0.59684987927E+03  0.59685123045E+03  0.12700000000E+01 0.  1.
          4   -1    0    0  501    0  0.00000000000E+00 -0.00000000000E+00 -0.16721669027E+03  0.16722151298E+03  0.12700000000E+01 0.  1.
    8880022    1    1    2    0    0 -0.17030325602E+03 -0.19624695083E+03  0.10074670265E+03  0.31789560524E+03  0.15294330000E+03 0.  0.
    8880022    1    1    2    0    0  0.17030325602E+03  0.19624695083E+03  0.32888648635E+03  0.44617713819E+03  0.15294330000E+03 0.  0.
<mgrwt>
<rscale>  0 0.30150907E+03</rscale>
<asrwt>0</asrwt>
<pdfrwt beam="1">  1        4 0.25726119E-01 0.30150907E+03</pdfrwt>
<pdfrwt beam="2">  1       -4 0.91823534E-01 0.30150907E+03</pdfrwt>
<totfact> 0.27318425E+01</totfact>
</mgrwt>
</event>
<event>
 4    1  0.8653772E-009  0.2907951E+03  0.7818608E-02  0.1089935E+00
         -4   -1    0    0    0  501 -0.00000000000E+00  0.00000000000E+00  0.19772370445E+03  0.19772778308E+03  0.12700000000E+01 0.  1.
          4   -1    0    0  501    0  0.00000000000E+00 -0.00000000000E+00 -0.44837896718E+03  0.44838076576E+03  0.12700000000E+01 0.  1.
    8880022    1    1    2    0    0  0.18409300379E+03  0.16516634767E+03 -0.19475944547E+03  0.34999007281E+03  0.15294330000E+03 0.  0.
    8880022    1    1    2    0    0 -0.18409300379E+03 -0.16516634767E+03 -0.55895817253E+02  0.29611847604E+03  0.15294330000E+03 0.  0.
<mgrwt>
<rscale>  0 0.29079513E+03</rscale>
<asrwt>0</asrwt>
<pdfrwt beam="1">  1        4 0.68981832E-01 0.29079513E+03</pdfrwt>
<pdfrwt beam="2">  1       -4 0.30419483E-01 0.29079513E+03</pdfrwt>
<totfact> 0.37638547E+01</totfact>
</mgrwt>
</event>
<event>
 4    1  0.8653772E-009  0.4111918E+03  0.7818608E-02  0.1039972E+00
          4   -1    0    0  501    0  0.00000000000E+00  0.00000000000E+00  0.19807012472E+03  0.19807419622E+03  0.12700000000E+01 0.  1.
         -4   -1    0    0    0  501 -0.00000000000E+00 -0.00000000000E+00 -0.12598060016E+04  0.12598066418E+04  0.12700000000E+01 0.  1.
    8880022    1    1    2    0    0 -0.32096543335E+03 -0.20656290216E+03 -0.94477549191E+03  0.10303782922E+04  0.15294330000E+03 0.  0.
    8880022    1    1    2    0    0  0.32096543335E+03  0.20656290216E+03 -0.11696038500E+03  0.42750254576E+03  0.15294330000E+03 0.  0.
<mgrwt>
<rscale>  0 0.41119180E+03</rscale>
<asrwt>0</asrwt>
<pdfrwt beam="1">  1        4 0.30472690E-01 0.41119180E+03</pdfrwt>
<pdfrwt beam="2">  1       -4 0.19381667E+00 0.41119180E+03</pdfrwt>
<totfact> 0.29802128E+00</totfact>
</mgrwt>
</event>
<event>
 4    1  0.8653772E-009  0.1584492E+03  0.7818608E-02  0.1190459E+00
          4   -1    0    0  501    0  0.00000000000E+00  0.00000000000E+00  0.35408300669E+02  0.35431069082E+02  0.12700000000E+01 0.  1.
         -4   -1    0    0    0  501 -0.00000000000E+00 -0.00000000000E+00 -0.91171658342E+03  0.91171746796E+03  0.12700000000E+01 0.  1.
    8880022    1    1    2    0    0 -0.38372245858E+02 -0.15558208193E+02 -0.66157107397E+03  0.68028113749E+03  0.15294330000E+03 0.  0.
    8880022    1    1    2    0    0  0.38372245858E+02  0.15558208193E+02 -0.21473720878E+03  0.26686739955E+03  0.15294330000E+03 0.  0.
<mgrwt>
<rscale>  0 0.15844917E+03</rscale>
<asrwt>0</asrwt>
<pdfrwt beam="1">  1        4 0.54492510E-02 0.15844917E+03</pdfrwt>
<pdfrwt beam="2">  1       -4 0.14026589E+00 0.15844917E+03</pdfrwt>
<totfact> 0.13478451E+02</totfact>
</mgrwt>
</event>
<event>
 4    1  0.8653772E-009  0.4218358E+03  0.7818608E-02  0.1036470E+00
         -4   -1    0    0    0  501 -0.00000000000E+00  0.00000000000E+00  0.52808062440E+03  0.52808215154E+03  0.12700000000E+01 0.  1.
          4   -1    0    0  501    0  0.00000000000E+00 -0.00000000000E+00 -0.33737805214E+03  0.33738044247E+03  0.12700000000E+01 0.  1.
    8880022    1    1    2    0    0 -0.30517717118E+03 -0.24783198242E+03  0.80177757658E+02  0.42938784700E+03  0.15294330000E+03 0.  0.
    8880022    1    1    2    0    0  0.30517717118E+03  0.24783198242E+03  0.11052481461E+03  0.43607474700E+03  0.15294330000E+03 0.  0.
<mgrwt>
<rscale>  0 0.42183581E+03</rscale>
<asrwt>0</asrwt>
<pdfrwt beam="1">  1        4 0.51904617E-01 0.42183581E+03</pdfrwt>
<pdfrwt beam="2">  1       -4 0.81243474E-01 0.42183581E+03</pdfrwt>
<totfact> 0.92165235E+00</totfact>
</mgrwt>
</event>
<event>
 4    1  0.8653772E-009  0.3198376E+03  0.7818608E-02  0.1075724E+00
          4   -1    0    0  501    0  0.00000000000E+00  0.00000000000E+00  0.10459536891E+04  0.10459544602E+04  0.12700000000E+01 0.  1.
         -4   -1    0    0    0  501 -0.00000000000E+00 -0.00000000000E+00 -0.24544754543E+03  0.24545083104E+03  0.12700000000E+01 0.  1.
    8880022    1    1    2    0    0  0.85941157430E+02  0.26742949507E+03 -0.10054802572E+03  0.33527000442E+03  0.15294330000E+03 0.  0.
    8880022    1    1    2    0    0 -0.85941157430E+02 -0.26742949507E+03  0.90105416942E+03  0.95613528678E+03  0.15294330000E+03 0.  0.
<mgrwt>
<rscale>  0 0.31983757E+03</rscale>
<asrwt>0</asrwt>
<pdfrwt beam="1">  1        4 0.16091626E+00 0.31983757E+03</pdfrwt>
<pdfrwt beam="2">  1       -4 0.37761474E-01 0.31983757E+03</pdfrwt>
<totfact> 0.32658785E+00</totfact>
</mgrwt>
</event>
<event>
 4    1  0.8653772E-009  0.2732805E+03  0.7818608E-02  0.1099417E+00
         -4   -1    0    0    0  501 -0.00000000000E+00  0.00000000000E+00  0.37089288938E+03  0.37089506373E+03  0.12700000000E+01 0.  1.
          4   -1    0    0  501    0  0.00000000000E+00 -0.00000000000E+00 -0.29362561293E+03  0.29362835944E+03  0.12700000000E+01 0. -1.
    8880022    1    1    2    0    0  0.21766768704E+03 -0.62540864255E+02 -0.14762446947E+03  0.31060460184E+03  0.15294330000E+03 0. -1.
    8880022    1    1    2    0    0 -0.21766768704E+03  0.62540864255E+02  0.22489174593E+03  0.35391882132E+03  0.15294330000E+03 0.  0.
<mgrwt>
<rscale>  0 0.27328051E+03</rscale>
<asrwt>0</asrwt>
<pdfrwt beam="1">  1        4 0.45173550E-01 0.27328051E+03</pdfrwt>
<pdfrwt beam="2">  1       -4 0.57060823E-01 0.27328051E+03</pdfrwt>
<totfact> 0.25756977E+01</totfact>
</mgrwt>
</event>
<event>
 4    1  0.8653772E-009  0.1705982E+03  0.7818608E-02  0.1177225E+00
          4   -1    0    0  501    0  0.00000000000E+00  0.00000000000E+00  0.27200642784E+02  0.27230274840E+02  0.12700000000E+01 0.  1.
         -4   -1    0    0    0  501 -0.00000000000E+00 -0.00000000000E+00 -0.11043056456E+04  0.11043063759E+04  0.12700000000E+01 0.  1.
    8880022    1    1    2    0    0 -0.61992655765E+02 -0.43231942513E+02 -0.63920612383E+03  0.66158008735E+03  0.15294330000E+03 0. -1.
    8880022    1    1    2    0    0  0.61992655765E+02  0.43231942513E+02 -0.43789887902E+03  0.46995656340E+03  0.15294330000E+03 0. -1.
<mgrwt>
<rscale>  0 0.17059819E+03</rscale>
<asrwt>0</asrwt>
<pdfrwt beam="1">  1        4 0.41870507E-02 0.17059819E+03</pdfrwt>
<pdfrwt beam="2">  1       -4 0.16989548E+00 0.17059819E+03</pdfrwt>
<totfact> 0.12672049E+02</totfact>
</mgrwt>
</event>
<event>
 4    1  0.8653772E-009  0.5149757E+03  0.7818608E-02  0.1009942E+00
          4   -1    0    0  501    0  0.00000000000E+00  0.00000000000E+00  0.62836691870E+03  0.62836820210E+03  0.12700000000E+01 0. -1.
         -4   -1    0    0    0  501 -0.00000000000E+00 -0.00000000000E+00 -0.15287670092E+04  0.15287675367E+04  0.12700000000E+01 0.  1.
    8880022    1    1    2    0    0  0.14811248003E+03 -0.46890410333E+03 -0.13678900208E+04  0.14616166142E+04  0.15294330000E+03 0.  1.
    8880022    1    1    2    0    0 -0.14811248003E+03  0.46890410333E+03  0.46748993026E+03  0.69551912466E+03  0.15294330000E+03 0.  0.
<mgrwt>
<rscale>  0 0.51497574E+03</rscale>
<asrwt>0</asrwt>
<pdfrwt beam="1">  1        4 0.96671973E-01 0.51497574E+03</pdfrwt>
<pdfrwt beam="2">  1       -4 0.23519506E+00 0.51497574E+03</pdfrwt>
<totfact> 0.14031834E-01</totfact>
</mgrwt>
</event>
<event>
 4    1  0.8653772E-009  0.2809518E+03  0.7818608E-02  0.1095170E+00
         -4   -1    0    0    0  501 -0.00000000000E+00  0.00000000000E+00  0.10446514361E+03  0.10447286313E+03  0.12700000000E+01 0.  1.
          4   -1    0    0  501    0  0.00000000000E+00 -0.00000000000E+00 -0.84438912477E+03  0.84439007984E+03  0.12700000000E+01 0.  1.
    8880022    1    1    2    0    0  0.29100935208E+01  0.23565605823E+03 -0.21608722869E+03  0.35443982542E+03  0.15294330000E+03 0.  0.
    8880022    1    1    2    0    0 -0.29100935208E+01 -0.23565605823E+03 -0.52383675247E+03  0.59442311755E+03  0.15294330000E+03 0.  0.
<mgrwt>
<rscale>  0 0.28095177E+03</rscale>
<asrwt>0</asrwt>
<pdfrwt beam="1">  1        4 0.12990668E+00 0.28095177E+03</pdfrwt>
<pdfrwt beam="2">  1       -4 0.16072228E-01 0.28095177E+03</pdfrwt>
<totfact> 0.27937331E+01</totfact>
</mgrwt>
</event>
<event>
 4    1  0.8653772E-009  0.1690803E+03  0.7818608E-02  0.1178810E+00
          4   -1    0    0  501    0  0.00000000000E+00  0.00000000000E+00  0.18151023101E+03  0.18151467395E+03  0.12700000000E+01 0. -1.
         -4   -1    0    0    0  501 -0.00000000000E+00 -0.00000000000E+00 -0.18372793742E+03  0.18373232673E+03  0.12700000000E+01 0. -1.
    8880022    1    1    2    0    0 -0.21757049342E+02 -0.68725001936E+02  0.67899412856E+02  0.18220449602E+03  0.15294330000E+03 0.  0.
    8880022    1    1    2    0    0  0.21757049342E+02  0.68725001936E+02 -0.70117119267E+02  0.18304250467E+03  0.15294330000E+03 0.  0.
<mgrwt>
<rscale>  0 0.16908030E+03</rscale>
<asrwt>0</asrwt>
<pdfrwt beam="1">  1        4 0.27925330E-01 0.16908030E+03</pdfrwt>
<pdfrwt beam="2">  1       -4 0.28266516E-01 0.16908030E+03</pdfrwt>
<totfact> 0.25095205E+02</totfact>
</mgrwt>
</event>
<event>
 4    1  0.8653772E-009  0.2087473E+03  0.7818608E-02  0.1142562E+00
          4   -1    0    0  501    0  0.00000000000E+00  0.00000000000E+00  0.57655534000E+03  0.57655673874E+03  0.12700000000E+01 0. -1.
         -4   -1    0    0    0  501 -0.00000000000E+00 -0.00000000000E+00 -0.18036795250E+03  0.18037242358E+03  0.12700000000E+01 0. -1.
    8880022    1    1    2    0    0  0.72644215777E+02 -0.12209265641E+03  0.48656773356E+03  0.52945595774E+03  0.15294330000E+03 0.  0.
    8880022    1    1    2    0    0 -0.72644215777E+02  0.12209265641E+03 -0.90380346056E+02  0.22747320458E+03  0.15294330000E+03 0.  0.
<mgrwt>
<rscale>  0 0.20874734E+03</rscale>
<asrwt>0</asrwt>
<pdfrwt beam="1">  1        4 0.88701272E-01 0.20874734E+03</pdfrwt>
<pdfrwt beam="2">  1       -4 0.27749368E-01 0.20874734E+03</pdfrwt>
<totfact> 0.24753592E+01</totfact>
</mgrwt>
</event>
<event>
 4    1  0.8653772E-009  0.1678795E+03  0.7818608E-02  0.1180077E+00
          4   -1    0    0  501    0  0.00000000000E+00  0.00000000000E+00  0.90833264212E+02  0.90842142133E+02  0.12700000000E+01 0.  1.
         -4   -1    0    0    0  501 -0.00000000000E+00 -0.00000000000E+00 -0.38988996526E+03  0.38989203366E+03  0.12700000000E+01 0.  1.
    8880022    1    1    2    0    0 -0.58095587229E+02 -0.37639879596E+02 -0.40896396870E+02  0.17278896401E+03  0.15294330000E+03 0.  0.
    8880022    1    1    2    0    0  0.58095587229E+02  0.37639879596E+02 -0.25816030418E+03  0.30794521178E+03  0.15294330000E+03 0.  0.
<mgrwt>
<rscale>  0 0.16787945E+03</rscale>
<asrwt>0</asrwt>
<pdfrwt beam="1">  1        4 0.13975191E-01 0.16787945E+03</pdfrwt>
<pdfrwt beam="2">  1       -4 0.59983913E-01 0.16787945E+03</pdfrwt>
<totfact> 0.19604661E+02</totfact>
</mgrwt>
</event>
<event>
 4    1  0.8653772E-009  0.1641409E+03  0.7818608E-02  0.1184099E+00
         -4   -1    0    0    0  501 -0.00000000000E+00  0.00000000000E+00  0.17275495505E+03  0.17275962316E+03  0.12700000000E+01 0. -1.
          4   -1    0    0  501    0  0.00000000000E+00 -0.00000000000E+00 -0.22451716827E+03  0.22452076017E+03  0.12700000000E+01 0. -1.
    8880022    1    1    2    0    0  0.21026078221E+02  0.55753689323E+02  0.83893378525E+02  0.18433752145E+03  0.15294330000E+03 0.  0.
    8880022    1    1    2    0    0 -0.21026078221E+02 -0.55753689323E+02 -0.13565559174E+03  0.21294286188E+03  0.15294330000E+03 0.  0.
<mgrwt>
<rscale>  0 0.16414086E+03</rscale>
<asrwt>0</asrwt>
<pdfrwt beam="1">  1        4 0.34541738E-01 0.16414086E+03</pdfrwt>
<pdfrwt beam="2">  1       -4 0.26578321E-01 0.16414086E+03</pdfrwt>
<totfact> 0.18689690E+02</totfact>
</mgrwt>
</event>
<event>
 4    1  0.8653772E-009  0.1683380E+03  0.7818608E-02  0.1179592E+00
          4   -1    0    0  501    0  0.00000000000E+00  0.00000000000E+00  0.55755087943E+03  0.55755232585E+03  0.12700000000E+01 0.  1.
         -4   -1    0    0    0  501 -0.00000000000E+00 -0.00000000000E+00 -0.79217203932E+02  0.79227383517E+02  0.12700000000E+01 0.  1.
    8880022    1    1    2    0    0  0.61006223856E+02  0.34989710442E+02  0.42979158315E+03  0.46158260057E+03  0.15294330000E+03 0.  1.
    8880022    1    1    2    0    0 -0.61006223856E+02 -0.34989710442E+02  0.48542092354E+02  0.17519710880E+03  0.15294330000E+03 0.  1.
<mgrwt>
<rscale>  0 0.16833803E+03</rscale>
<asrwt>0</asrwt>
<pdfrwt beam="1">  1        4 0.85777953E-01 0.16833803E+03</pdfrwt>
<pdfrwt beam="2">  1       -4 0.12188156E-01 0.16833803E+03</pdfrwt>
<totfact> 0.11404174E+02</totfact>
</mgrwt>
</event>
<event>
 4    1  0.8653772E-009  0.2278538E+03  0.7818608E-02  0.1128160E+00
          4   -1    0    0  501    0  0.00000000000E+00  0.00000000000E+00  0.21025096224E+03  0.21025479786E+03  0.12700000000E+01 0.  1.
         -4   -1    0    0    0  501 -0.00000000000E+00 -0.00000000000E+00 -0.24698988112E+03  0.24699314621E+03  0.12700000000E+01 0.  1.
    8880022    1    1    2    0    0 -0.15834239697E+03  0.58765565083E+02 -0.14599049341E+02  0.22832102745E+03  0.15294330000E+03 0.  0.
    8880022    1    1    2    0    0  0.15834239697E+03 -0.58765565083E+02 -0.22139869532E+02  0.22892691663E+03  0.15294330000E+03 0.  0.
<mgrwt>
<rscale>  0 0.22785381E+03</rscale>
<asrwt>0</asrwt>
<pdfrwt beam="1">  1        4 0.32346848E-01 0.22785381E+03</pdfrwt>
<pdfrwt beam="2">  1       -4 0.37998989E-01 0.22785381E+03</pdfrwt>
<totfact> 0.11204427E+02</totfact>
</mgrwt>
</event>
<event>
 4    1  0.8653772E-009  0.1898376E+03  0.7818608E-02  0.1158608E+00
         -4   -1    0    0    0  501 -0.00000000000E+00  0.00000000000E+00  0.13877303570E+04  0.13877309382E+04  0.12700000000E+01 0. -1.
          4   -1    0    0  501    0  0.00000000000E+00 -0.00000000000E+00 -0.63719829091E+02  0.63732484020E+02  0.12700000000E+01 0. -1.
    8880022    1    1    2    0    0  0.10182785591E+03 -0.47725724577E+02  0.10338477589E+03  0.21616364617E+03  0.15294330000E+03 0.  0.
    8880022    1    1    2    0    0 -0.10182785591E+03  0.47725724577E+02  0.12206257521E+04  0.12352997760E+04  0.15294330000E+03 0.  0.
<mgrwt>
<rscale>  0 0.18983759E+03</rscale>
<asrwt>0</asrwt>
<pdfrwt beam="1">  1        4 0.98040683E-02 0.18983759E+03</pdfrwt>
<pdfrwt beam="2">  1       -4 0.21349801E+00 0.18983759E+03</pdfrwt>
<totfact> 0.16608144E+01</totfact>
</mgrwt>
</event>
<event>
 4    1  0.8653772E-009  0.2232370E+03  0.7818608E-02  0.1131492E+00
         -4   -1    0    0    0  501 -0.00000000000E+00  0.00000000000E+00  0.76128555247E+02  0.76139147775E+02  0.12700000000E+01 0.  1.
          4   -1    0    0  501    0  0.00000000000E+00 -0.00000000000E+00 -0.70979789421E+03  0.70979903038E+03  0.12700000000E+01 0.  1.
    8880022    1    1    2    0    0  0.13094057364E+03  0.96424520276E+02 -0.20720729445E+03  0.30458108580E+03  0.15294330000E+03 0.  0.
    8880022    1    1    2    0    0 -0.13094057364E+03 -0.96424520276E+02 -0.42646204452E+03  0.48135709236E+03  0.15294330000E+03 0.  0.
<mgrwt>
<rscale>  0 0.22323704E+03</rscale>
<asrwt>0</asrwt>
<pdfrwt beam="1">  1        4 0.10920057E+00 0.22323704E+03</pdfrwt>
<pdfrwt beam="2">  1       -4 0.11712988E-01 0.22323704E+03</pdfrwt>
<totfact> 0.72506517E+01</totfact>
</mgrwt>
</event>
<event>
 4    1  0.8653772E-009  0.3384518E+03  0.7818608E-02  0.1067457E+00
          4   -1    0    0  501    0  0.00000000000E+00  0.00000000000E+00  0.55473987367E+03  0.55474132741E+03  0.12700000000E+01 0.  1.
         -4   -1    0    0    0  501 -0.00000000000E+00 -0.00000000000E+00 -0.21039930886E+03  0.21040314177E+03  0.12700000000E+01 0.  1.
    8880022    1    1    2    0    0 -0.30186626061E+03  0.58921817065E+01  0.12001449710E+03  0.35910038934E+03  0.15294330000E+03 0.  0.
    8880022    1    1    2    0    0  0.30186626061E+03 -0.58921817065E+01  0.22432606772E+03  0.40604407984E+03  0.15294330000E+03 0.  0.
<mgrwt>
<rscale>  0 0.33845178E+03</rscale>
<asrwt>0</asrwt>
<pdfrwt beam="1">  1        4 0.85345003E-01 0.33845178E+03</pdfrwt>
<pdfrwt beam="2">  1       -4 0.32369531E-01 0.33845178E+03</pdfrwt>
<totfact> 0.21031746E+01</totfact>
</mgrwt>
</event>
<event>
 4    1  0.8653772E-009  0.1712576E+03  0.7818608E-02  0.1176543E+00
          4   -1    0    0  501    0  0.00000000000E+00  0.00000000000E+00  0.23692090325E+03  0.23692430711E+03  0.12700000000E+01 0.  1.
         -4   -1    0    0    0  501 -0.00000000000E+00 -0.00000000000E+00 -0.13624081025E+03  0.13624672942E+03  0.12700000000E+01 0.  1.
    8880022    1    1    2    0    0 -0.61430203136E+02 -0.46517065833E+02 -0.60738819363E+01  0.17136525998E+03  0.15294330000E+03 0.  0.
    8880022    1    1    2    0    0  0.61430203136E+02  0.46517065833E+02  0.10675397494E+03  0.20180577655E+03  0.15294330000E+03 0.  0.
<mgrwt>
<rscale>  0 0.17125758E+03</rscale>
<asrwt>0</asrwt>
<pdfrwt beam="1">  1        4 0.36450087E-01 0.17125758E+03</pdfrwt>
<pdfrwt beam="2">  1       -4 0.20960842E-01 0.17125758E+03</pdfrwt>
<totfact> 0.26248704E+02</totfact>
</mgrwt>
</event>
<event>
 4    1  0.8653772E-009  0.2074567E+03  0.7818608E-02  0.1143596E+00
         -4   -1    0    0    0  501 -0.00000000000E+00  0.00000000000E+00  0.27524934318E+03  0.27525227306E+03  0.12700000000E+01 0.  1.
          4   -1    0    0  501    0  0.00000000000E+00 -0.00000000000E+00 -0.18767271969E+03  0.18767701675E+03  0.12700000000E+01 0.  1.
    8880022    1    1    2    0    0 -0.13390718407E+03 -0.41418672376E+02  0.13834056525E+03  0.24935197087E+03  0.15294330000E+03 0.  0.
    8880022    1    1    2    0    0  0.13390718407E+03  0.41418672376E+02 -0.50763941755E+02  0.21357731894E+03  0.15294330000E+03 0.  0.
<mgrwt>
<rscale>  0 0.20745673E+03</rscale>
<asrwt>0</asrwt>
<pdfrwt beam="1">  1        4 0.28873282E-01 0.20745673E+03</pdfrwt>
<pdfrwt beam="2">  1       -4 0.42346609E-01 0.20745673E+03</pdfrwt>
<totfact> 0.11086938E+02</totfact>
</mgrwt>
</event>
<event>
 4    1  0.8653772E-009  0.2075491E+03  0.7818608E-02  0.1143522E+00
         -4   -1    0    0    0  501 -0.00000000000E+00  0.00000000000E+00  0.11536641000E+03  0.11537340012E+03  0.12700000000E+01 0. -1.
          4   -1    0    0  501    0  0.00000000000E+00 -0.00000000000E+00 -0.40751982672E+03  0.40752180563E+03  0.12700000000E+01 0. -1.
    8880022    1    1    2    0    0 -0.14027550124E+03 -0.27832229545E+01 -0.22175972683E+03  0.30373342266E+03  0.15294330000E+03 0.  0.
    8880022    1    1    2    0    0  0.14027550124E+03  0.27832229545E+01 -0.70393689883E+02  0.21916178310E+03  0.15294330000E+03 0.  0.
<mgrwt>
<rscale>  0 0.20754907E+03</rscale>
<asrwt>0</asrwt>
<pdfrwt beam="1">  1        4 0.62696047E-01 0.20754907E+03</pdfrwt>
<pdfrwt beam="2">  1       -4 0.17749369E-01 0.20754907E+03</pdfrwt>
<totfact> 0.12074206E+02</totfact>
</mgrwt>
</event>
<event>
 4    1  0.8653772E-009  0.2024285E+03  0.7818608E-02  0.1147706E+00
         -4   -1    0    0    0  501 -0.00000000000E+00  0.00000000000E+00  0.14986359884E+04  0.14986365265E+04  0.12700000000E+01 0.  1.
          4   -1    0    0  501    0  0.00000000000E+00 -0.00000000000E+00 -0.30462915812E+02  0.30489377491E+02  0.12700000000E+01 0.  1.
    8880022    1    1    2    0    0 -0.12968360721E+03 -0.27709198586E+02  0.97924865536E+03  0.99995260873E+03  0.15294330000E+03 0.  0.
    8880022    1    1    2    0    0  0.12968360721E+03  0.27709198586E+02  0.48892441722E+03  0.52917329527E+03  0.15294330000E+03 0.  0.
<mgrwt>
<rscale>  0 0.20242848E+03</rscale>
<asrwt>0</asrwt>
<pdfrwt beam="1">  1        4 0.46886796E-02 0.20242848E+03</pdfrwt>
<pdfrwt beam="2">  1       -4 0.23056145E+00 0.20242848E+03</pdfrwt>
<totfact> 0.44553896E+01</totfact>
</mgrwt>
</event>
<event>
 4    1  0.8653772E-009  0.2171104E+03  0.7818608E-02  0.1136056E+00
          4   -1    0    0  501    0  0.00000000000E+00  0.00000000000E+00  0.69663157737E+03  0.69663273502E+03  0.12700000000E+01 0.  1.
         -4   -1    0    0    0  501 -0.00000000000E+00 -0.00000000000E+00 -0.10214666213E+03  0.10215455685E+03  0.12700000000E+01 0.  1.
    8880022    1    1    2    0    0  0.13316536862E+03 -0.77538774622E+02  0.52930799009E+03  0.57210477918E+03  0.15294330000E+03 0.  0.
    8880022    1    1    2    0    0 -0.13316536862E+03  0.77538774622E+02  0.65176925150E+02  0.22668251269E+03  0.15294330000E+03 0.  0.
<mgrwt>
<rscale>  0 0.21711041E+03</rscale>
<asrwt>0</asrwt>
<pdfrwt beam="1">  1        4 0.10717479E+00 0.21711041E+03</pdfrwt>
<pdfrwt beam="2">  1       -4 0.15715567E-01 0.21711041E+03</pdfrwt>
<totfact> 0.45216624E+01</totfact>
</mgrwt>
</event>
<event>
 4    1  0.8653772E-009  0.3006573E+03  0.7818608E-02  0.1084912E+00
         -4   -1    0    0    0  501 -0.00000000000E+00  0.00000000000E+00  0.29177033024E+03  0.29177309421E+03  0.12700000000E+01 0. -1.
          4   -1    0    0  501    0  0.00000000000E+00 -0.00000000000E+00 -0.31198387806E+03  0.31198646296E+03  0.12700000000E+01 0. -1.
    8880022    1    1    2    0    0 -0.23576286512E+03  0.10685990856E+03 -0.35308839595E+02  0.30272353030E+03  0.15294330000E+03 0.  0.
    8880022    1    1    2    0    0  0.23576286512E+03 -0.10685990856E+03  0.15095291771E+02  0.30103602687E+03  0.15294330000E+03 0.  0.
<mgrwt>
<rscale>  0 0.30065732E+03</rscale>
<asrwt>0</asrwt>
<pdfrwt beam="1">  1        4 0.47997931E-01 0.30065732E+03</pdfrwt>
<pdfrwt beam="2">  1       -4 0.44888154E-01 0.30065732E+03</pdfrwt>
<totfact> 0.37741988E+01</totfact>
</mgrwt>
</event>
<event>
 4    1  0.8653772E-009  0.2990541E+03  0.7818608E-02  0.1085714E+00
          4   -1    0    0  501    0  0.00000000000E+00  0.00000000000E+00  0.38240926640E+03  0.38241137526E+03  0.12700000000E+01 0.  1.
         -4   -1    0    0    0  501 -0.00000000000E+00 -0.00000000000E+00 -0.23399613738E+03  0.23399958377E+03  0.12700000000E+01 0.  1.
    8880022    1    1    2    0    0  0.25002083293E+03 -0.59424728225E+02  0.81538078961E+02  0.30997068661E+03  0.15294330000E+03 0.  0.
    8880022    1    1    2    0    0 -0.25002083293E+03  0.59424728225E+02  0.66875050062E+02  0.30644027242E+03  0.15294330000E+03 0.  0.
<mgrwt>
<rscale>  0 0.29905412E+03</rscale>
<asrwt>0</asrwt>
<pdfrwt beam="1">  1        4 0.58832622E-01 0.29905412E+03</pdfrwt>
<pdfrwt beam="2">  1       -4 0.35999833E-01 0.29905412E+03</pdfrwt>
<totfact> 0.38329300E+01</totfact>
</mgrwt>
</event>
<event>
 4    1  0.8653772E-009  0.1621633E+03  0.7818608E-02  0.1186276E+00
          4   -1    0    0  501    0  0.00000000000E+00  0.00000000000E+00  0.49336666703E+02  0.49353009851E+02  0.12700000000E+01 0.  1.
         -4   -1    0    0    0  501 -0.00000000000E+00 -0.00000000000E+00 -0.57346216521E+03  0.57346357149E+03  0.12700000000E+01 0.  1.
    8880022    1    1    2    0    0 -0.40399357651E+02 -0.35681696161E+02 -0.34487716759E+03  0.38109999380E+03  0.15294330000E+03 0.  0.
    8880022    1    1    2    0    0  0.40399357651E+02  0.35681696161E+02 -0.17924833092E+03  0.24171658754E+03  0.15294330000E+03 0.  0.
<mgrwt>
<rscale>  0 0.16216333E+03</rscale>
<asrwt>0</asrwt>
<pdfrwt beam="1">  1        4 0.75916221E-02 0.16216333E+03</pdfrwt>
<pdfrwt beam="2">  1       -4 0.88226309E-01 0.16216333E+03</pdfrwt>
<totfact> 0.23654463E+02</totfact>
</mgrwt>
</event>
<event>
 4    1  0.8653772E-009  0.1724444E+03  0.7818608E-02  0.1175322E+00
          4   -1    0    0  501    0  0.00000000000E+00  0.00000000000E+00  0.36242000140E+03  0.36242222657E+03  0.12700000000E+01 0.  1.
         -4   -1    0    0    0  501 -0.00000000000E+00 -0.00000000000E+00 -0.92562952835E+02  0.92571664874E+02  0.12700000000E+01 0.  1.
    8880022    1    1    2    0    0 -0.46310903966E+02 -0.64812929531E+02  0.21161452202E+03  0.27297943990E+03  0.15294330000E+03 0.  0.
    8880022    1    1    2    0    0  0.46310903966E+02  0.64812929531E+02  0.58242526541E+02  0.18201445155E+03  0.15294330000E+03 0.  0.
<mgrwt>
<rscale>  0 0.17244439E+03</rscale>
<asrwt>0</asrwt>
<pdfrwt beam="1">  1        4 0.55757764E-01 0.17244439E+03</pdfrwt>
<pdfrwt beam="2">  1       -4 0.14241296E-01 0.17244439E+03</pdfrwt>
<totfact> 0.22204654E+02</totfact>
</mgrwt>
</event>
<event>
 4    1  0.8653772E-009  0.2520640E+03  0.7818608E-02  0.1112007E+00
         -4   -1    0    0    0  501 -0.00000000000E+00  0.00000000000E+00  0.99040467473E+03  0.99040548900E+03  0.12700000000E+01 0.  1.
          4   -1    0    0  501    0  0.00000000000E+00 -0.00000000000E+00 -0.14752485467E+03  0.14753032110E+03  0.12700000000E+01 0.  1.
    8880022    1    1    2    0    0 -0.15159122380E+03  0.13101413082E+03  0.84917224531E+03  0.88579329239E+03  0.15294330000E+03 0.  0.
    8880022    1    1    2    0    0  0.15159122380E+03 -0.13101413082E+03 -0.62924252477E+01  0.25214251771E+03  0.15294330000E+03 0.  0.
<mgrwt>
<rscale>  0 0.25206399E+03</rscale>
<asrwt>0</asrwt>
<pdfrwt beam="1">  1        4 0.22696615E-01 0.25206399E+03</pdfrwt>
<pdfrwt beam="2">  1       -4 0.15237043E+00 0.25206399E+03</pdfrwt>
<totfact> 0.98598198E+00</totfact>
</mgrwt>
</event>
<event>
 4    1  0.8653772E-009  0.1654353E+03  0.7818608E-02  0.1182693E+00
         -4   -1    0    0    0  501 -0.00000000000E+00  0.00000000000E+00  0.41849744179E+03  0.41849936880E+03  0.12700000000E+01 0. -1.
          4   -1    0    0  501    0  0.00000000000E+00 -0.00000000000E+00 -0.69788725000E+02  0.69800279635E+02  0.12700000000E+01 0. -1.
    8880022    1    1    2    0    0 -0.24570897149E+02 -0.58081534769E+02  0.23564608251E+03  0.28791999390E+03  0.15294330000E+03 0.  1.
    8880022    1    1    2    0    0  0.24570897149E+02  0.58081534769E+02  0.11306263428E+03  0.20037965454E+03  0.15294330000E+03 0.  1.
<mgrwt>
<rscale>  0 0.16543532E+03</rscale>
<asrwt>0</asrwt>
<pdfrwt beam="1">  1        4 0.10737764E-01 0.16543532E+03</pdfrwt>
<pdfrwt beam="2">  1       -4 0.64385258E-01 0.16543532E+03</pdfrwt>
<totfact> 0.26488867E+02</totfact>
</mgrwt>
</event>
<event>
 4    1  0.8653772E-009  0.2519024E+03  0.7818608E-02  0.1112108E+00
         -4   -1    0    0    0  501 -0.00000000000E+00  0.00000000000E+00  0.75316715950E+02  0.75327422640E+02  0.12700000000E+01 0. -1.
          4   -1    0    0  501    0  0.00000000000E+00 -0.00000000000E+00 -0.84245638798E+03  0.84245734524E+03  0.12700000000E+01 0. -1.
    8880022    1    1    2    0    0  0.27239487271E+02  0.19829564228E+03 -0.38587158842E+03  0.46081632694E+03  0.15294330000E+03 0.  0.
    8880022    1    1    2    0    0 -0.27239487271E+02 -0.19829564228E+03 -0.38126808361E+03  0.45696844093E+03  0.15294330000E+03 0.  0.
<mgrwt>
<rscale>  0 0.25190237E+03</rscale>
<asrwt>0</asrwt>
<pdfrwt beam="1">  1        4 0.12960957E+00 0.25190237E+03</pdfrwt>
<pdfrwt beam="2">  1       -4 0.11588085E-01 0.25190237E+03</pdfrwt>
<totfact> 0.49344876E+01</totfact>
</mgrwt>
</event>
<event>
 4    1  0.8653772E-009  0.2142477E+03  0.7818608E-02  0.1138246E+00
          4   -1    0    0  501    0  0.00000000000E+00  0.00000000000E+00  0.79744570213E+02  0.79754682487E+02  0.12700000000E+01 0. -1.
         -4   -1    0    0    0  501 -0.00000000000E+00 -0.00000000000E+00 -0.58220827728E+03  0.58220966243E+03  0.12700000000E+01 0. -1.
    8880022    1    1    2    0    0 -0.10632397955E+03 -0.10585664072E+03 -0.21588053816E+03  0.30414877409E+03  0.15294330000E+03 0.  0.
    8880022    1    1    2    0    0  0.10632397955E+03  0.10585664072E+03 -0.28658316890E+03  0.35781557082E+03  0.15294330000E+03 0.  0.
<mgrwt>
<rscale>  0 0.21424768E+03</rscale>
<asrwt>0</asrwt>
<pdfrwt beam="1">  1        4 0.12269280E-01 0.21424768E+03</pdfrwt>
<pdfrwt beam="2">  1       -4 0.89571386E-01 0.21424768E+03</pdfrwt>
<totfact> 0.10570037E+02</totfact>
</mgrwt>
</event>
<event>
 4    1  0.8653772E-009  0.1674512E+03  0.7818608E-02  0.1180532E+00
         -4   -1    0    0    0  501 -0.00000000000E+00  0.00000000000E+00  0.54281870647E+03  0.54282019214E+03  0.12700000000E+01 0.  1.
          4   -1    0    0  501    0  0.00000000000E+00 -0.00000000000E+00 -0.52060522653E+02  0.52076010973E+02  0.12700000000E+01 0.  1.
    8880022    1    1    2    0    0  0.65623892832E+02 -0.18486894301E+02  0.21886616308E+03  0.27557632505E+03  0.15294330000E+03 0.  0.
    8880022    1    1    2    0    0 -0.65623892832E+02  0.18486894301E+02  0.27189202074E+03  0.31931987807E+03  0.15294330000E+03 0.  0.
<mgrwt>
<rscale>  0 0.16745123E+03</rscale>
<asrwt>0</asrwt>
<pdfrwt beam="1">  1        4 0.80106171E-02 0.16745123E+03</pdfrwt>
<pdfrwt beam="2">  1       -4 0.83511873E-01 0.16745123E+03</pdfrwt>
<totfact> 0.24607134E+02</totfact>
</mgrwt>
</event>
<event>
 4    1  0.8653772E-009  0.1888694E+03  0.7818608E-02  0.1159485E+00
          4   -1    0    0  501    0  0.00000000000E+00  0.00000000000E+00  0.24496646648E+03  0.24496975854E+03  0.12700000000E+01 0. -1.
         -4   -1    0    0    0  501 -0.00000000000E+00 -0.00000000000E+00 -0.35804133717E+03  0.35804358956E+03  0.12700000000E+01 0. -1.
    8880022    1    1    2    0    0 -0.61389294848E+02 -0.92257043872E+02 -0.28877567842E+03  0.34505514505E+03  0.15294330000E+03 0.  0.
    8880022    1    1    2    0    0  0.61389294848E+02  0.92257043872E+02  0.17570080773E+03  0.25795820305E+03  0.15294330000E+03 0.  0.
<mgrwt>
<rscale>  0 0.18886943E+03</rscale>
<asrwt>0</asrwt>
<pdfrwt beam="1">  1        4 0.37687575E-01 0.18886943E+03</pdfrwt>
<pdfrwt beam="2">  1       -4 0.55083709E-01 0.18886943E+03</pdfrwt>
<totfact> 0.38303997E+01</totfact>
</mgrwt>
</event>
<event>
 4    1  0.8653772E-009  0.2898946E+03  0.7818608E-02  0.1090404E+00
          4   -1    0    0  501    0  0.00000000000E+00  0.00000000000E+00  0.92685616598E+03  0.92685703607E+03  0.12700000000E+01 0. -1.
         -4   -1    0    0    0  501 -0.00000000000E+00 -0.00000000000E+00 -0.91923749313E+02  0.91932521927E+02  0.12700000000E+01 0. -1.
    8880022    1    1    2    0    0 -0.14604658887E+01 -0.24626226748E+03  0.47705885883E+03  0.55823296674E+03  0.15294330000E+03 0.  0.
    8880022    1    1    2    0    0  0.14604658887E+01  0.24626226748E+03  0.35787355783E+03  0.46055659126E+03  0.15294330000E+03 0.  0.
<mgrwt>
<rscale>  0 0.28989462E+03</rscale>
<asrwt>0</asrwt>
<pdfrwt beam="1">  1        4 0.14259400E+00 0.28989462E+03</pdfrwt>
<pdfrwt beam="2">  1       -4 0.14142857E-01 0.28989462E+03</pdfrwt>
<totfact> 0.27760416E+01</totfact>
</mgrwt>
</event>
<event>
 4    1  0.8653772E-009  0.1589998E+03  0.7818608E-02  0.1189831E+00
         -4   -1    0    0    0  501 -0.00000000000E+00  0.00000000000E+00  0.10529474752E+03  0.10530240622E+03  0.12700000000E+01 0. -1.
          4   -1    0    0  501    0  0.00000000000E+00 -0.00000000000E+00 -0.28594993933E+03  0.28595275956E+03  0.12700000000E+01 0. -1.
    8880022    1    1    2    0    0  0.24854816099E+02 -0.35658251392E+02 -0.16867909184E+03  0.23180500818E+03  0.15294330000E+03 0. -1.
    8880022    1    1    2    0    0 -0.24854816099E+02  0.35658251392E+02 -0.11976099967E+02  0.15945015761E+03  0.15294330000E+03 0. -1.
<mgrwt>
<rscale>  0 0.15899977E+03</rscale>
<asrwt>0</asrwt>
<pdfrwt beam="1">  1        4 0.43993104E-01 0.15899977E+03</pdfrwt>
<pdfrwt beam="2">  1       -4 0.16199998E-01 0.15899977E+03</pdfrwt>
<totfact> 0.28358269E+02</totfact>
</mgrwt>
</event>
<event>
 4    1  0.8653772E-009  0.2451886E+03  0.7818608E-02  0.1116384E+00
         -4   -1    0    0    0  501 -0.00000000000E+00  0.00000000000E+00  0.21343813379E+04  0.21343817158E+04  0.12700000000E+01 0.  1.
          4   -1    0    0  501    0  0.00000000000E+00 -0.00000000000E+00 -0.28578946791E+02  0.28607151198E+02  0.12700000000E+01 0.  1.
    8880022    1    1    2    0    0 -0.55847065704E+02  0.18332188672E+03  0.11850945860E+04  0.12101928110E+04  0.15294330000E+03 0.  0.
    8880022    1    1    2    0    0  0.55847065704E+02 -0.18332188672E+03  0.92070780514E+03  0.95279605602E+03  0.15294330000E+03 0.  0.
<mgrwt>
<rscale>  0 0.24518863E+03</rscale>
<asrwt>0</asrwt>
<pdfrwt beam="1">  1        4 0.43989620E-02 0.24518863E+03</pdfrwt>
<pdfrwt beam="2">  1       -4 0.32836839E+00 0.24518863E+03</pdfrwt>
<totfact> 0.13216302E+01</totfact>
</mgrwt>
</event>
<event>
 4    1  0.8653772E-009  0.1579055E+03  0.7818608E-02  0.1191082E+00
          4   -1    0    0  501    0  0.00000000000E+00  0.00000000000E+00  0.74225252694E+02  0.74236116800E+02  0.12700000000E+01 0.  1.
         -4   -1    0    0    0  501 -0.00000000000E+00 -0.00000000000E+00 -0.33604981225E+03  0.33605221203E+03  0.12700000000E+01 0.  1.
    8880022    1    1    2    0    0 -0.37751483545E+02 -0.10831281208E+02 -0.12642063288E+03  0.20227783021E+03  0.15294330000E+03 0.  0.
    8880022    1    1    2    0    0  0.37751483545E+02  0.10831281208E+02 -0.13540392667E+03  0.20801049862E+03  0.15294330000E+03 0.  0.
<mgrwt>
<rscale>  0 0.15790549E+03</rscale>
<asrwt>0</asrwt>
<pdfrwt beam="1">  1        4 0.11420290E-01 0.15790549E+03</pdfrwt>
<pdfrwt beam="2">  1       -4 0.51700990E-01 0.15790549E+03</pdfrwt>
<totfact> 0.37454797E+02</totfact>
</mgrwt>
</event>
<event>
 4    1  0.8653772E-009  0.1954600E+03  0.7818608E-02  0.1153627E+00
         -4   -1    0    0    0  501 -0.00000000000E+00  0.00000000000E+00  0.30692093091E+03  0.30692355845E+03  0.12700000000E+01 0.  1.
          4   -1    0    0  501    0  0.00000000000E+00 -0.00000000000E+00 -0.15314518214E+03  0.15315044797E+03  0.12700000000E+01 0.  1.
    8880022    1    1    2    0    0 -0.11166452749E+03  0.48414939284E+02  0.17642424554E+03  0.26330617250E+03  0.15294330000E+03 0.  0.
    8880022    1    1    2    0    0  0.11166452749E+03 -0.48414939284E+02 -0.22648496769E+02  0.19676783392E+03  0.15294330000E+03 0.  0.
<mgrwt>
<rscale>  0 0.19546004E+03</rscale>
<asrwt>0</asrwt>
<pdfrwt beam="1">  1        4 0.23561405E-01 0.19546004E+03</pdfrwt>
<pdfrwt beam="2">  1       -4 0.47219212E-01 0.19546004E+03</pdfrwt>
<totfact> 0.12914230E+02</totfact>
</mgrwt>
</event>
<event>
 4    1  0.8653772E-009  0.1534059E+03  0.7818608E-02  0.1196349E+00
         -4   -1    0    0    0  501 -0.00000000000E+00  0.00000000000E+00  0.64454527949E+02  0.64467038656E+02  0.12700000000E+01 0. -1.
          4   -1    0    0  501    0  0.00000000000E+00 -0.00000000000E+00 -0.51667107199E+03  0.51667263284E+03  0.12700000000E+01 0. -1.
    8880022    1    1    2    0    0 -0.82146584839E+01 -0.86154585162E+01 -0.38350414531E+03  0.41304816816E+03  0.15294330000E+03 0. -1.
    8880022    1    1    2    0    0  0.82146584839E+01  0.86154585162E+01 -0.68712398731E+02  0.16809150334E+03  0.15294330000E+03 0. -1.
<mgrwt>
<rscale>  0 0.15340587E+03</rscale>
<asrwt>0</asrwt>
<pdfrwt beam="1">  1        4 0.79488937E-01 0.15340587E+03</pdfrwt>
<pdfrwt beam="2">  1       -4 0.99171640E-02 0.15340587E+03</pdfrwt>
<totfact> 0.18930950E+02</totfact>
</mgrwt>
</event>
<event>
 4    1  0.8653772E-009  0.1777514E+03  0.7818608E-02  0.1169997E+00
         -4   -1    0    0    0  501 -0.00000000000E+00  0.00000000000E+00  0.46379458066E+03  0.46379631946E+03  0.12700000000E+01 0. -1.
          4   -1    0    0  501    0  0.00000000000E+00 -0.00000000000E+00 -0.14528303934E+03  0.14528859012E+03  0.12700000000E+01 0. -1.
    8880022    1    1    2    0    0 -0.85413598400E+02 -0.30140188432E+02  0.38119800693E+03  0.42060371759E+03  0.15294330000E+03 0.  0.
    8880022    1    1    2    0    0  0.85413598400E+02  0.30140188432E+02 -0.62686465607E+02  0.18848119199E+03  0.15294330000E+03 0.  0.
<mgrwt>
<rscale>  0 0.17775142E+03</rscale>
<asrwt>0</asrwt>
<pdfrwt beam="1">  1        4 0.22351797E-01 0.17775142E+03</pdfrwt>
<pdfrwt beam="2">  1       -4 0.71353574E-01 0.17775142E+03</pdfrwt>
<totfact> 0.58935200E+01</totfact>
</mgrwt>
</event>
<event>
 4    1  0.8653772E-009  0.1565400E+03  0.7818608E-02  0.1192659E+00
         -4   -1    0    0    0  501 -0.00000000000E+00  0.00000000000E+00  0.57291832778E+03  0.57291973540E+03  0.12700000000E+01 0.  1.
          4   -1    0    0  501    0  0.00000000000E+00 -0.00000000000E+00 -0.47754712153E+02  0.47771596507E+02  0.12700000000E+01 0.  1.
    8880022    1    1    2    0    0  0.47023227409E+01  0.33030507003E+02  0.36291927606E+03  0.39524066109E+03  0.15294330000E+03 0.  0.
    8880022    1    1    2    0    0 -0.47023227409E+01 -0.33030507003E+02  0.16224433957E+03  0.22545067081E+03  0.15294330000E+03 0.  0.
<mgrwt>
<rscale>  0 0.15654002E+03</rscale>
<asrwt>0</asrwt>
<pdfrwt beam="1">  1        4 0.73482856E-02 0.15654002E+03</pdfrwt>
<pdfrwt beam="2">  1       -4 0.88142691E-01 0.15654002E+03</pdfrwt>
<totfact> 0.24870241E+02</totfact>
</mgrwt>
</event>
<event>
 4    1  0.8653772E-009  0.2406765E+03  0.7818608E-02  0.1119343E+00
         -4   -1    0    0    0  501 -0.00000000000E+00  0.00000000000E+00  0.34200667938E+03  0.34200903737E+03  0.12700000000E+01 0.  1.
          4   -1    0    0  501    0  0.00000000000E+00 -0.00000000000E+00 -0.27442457601E+03  0.27442751469E+03  0.12700000000E+01 0.  1.
    8880022    1    1    2    0    0 -0.18501683240E+03 -0.17387187357E+02  0.22449660393E+03  0.32912599525E+03  0.15294330000E+03 0.  0.
    8880022    1    1    2    0    0  0.18501683240E+03  0.17387187357E+02 -0.15691450056E+03  0.28731055681E+03  0.15294330000E+03 0.  0.
<mgrwt>
<rscale>  0 0.24067654E+03</rscale>
<asrwt>0</asrwt>
<pdfrwt beam="1">  1        4 0.42219573E-01 0.24067654E+03</pdfrwt>
<pdfrwt beam="2">  1       -4 0.52616820E-01 0.24067654E+03</pdfrwt>
<totfact> 0.34556381E+01</totfact>
</mgrwt>
</event>
<event>
 4    1  0.8653772E-009  0.2554131E+03  0.7818608E-02  0.1109931E+00
          4   -1    0    0  501    0  0.00000000000E+00  0.00000000000E+00  0.82446164102E+03  0.82446261917E+03  0.12700000000E+01 0.  1.
         -4   -1    0    0    0  501 -0.00000000000E+00 -0.00000000000E+00 -0.86888924200E+02  0.86898205094E+02  0.12700000000E+01 0.  1.
    8880022    1    1    2    0    0 -0.12649366099E+03  0.16075927215E+03  0.50504136112E+03  0.56595284194E+03  0.15294330000E+03 0.  0.
    8880022    1    1    2    0    0  0.12649366099E+03 -0.16075927215E+03  0.23253135570E+03  0.34540798232E+03  0.15294330000E+03 0.  0.
<mgrwt>
<rscale>  0 0.25541308E+03</rscale>
<asrwt>0</asrwt>
<pdfrwt beam="1">  1        4 0.12684104E+00 0.25541308E+03</pdfrwt>
<pdfrwt beam="2">  1       -4 0.13368316E-01 0.25541308E+03</pdfrwt>
<totfact> 0.40671061E+01</totfact>
</mgrwt>
</event>
<event>
 4    1  0.8653772E-009  0.2103210E+03  0.7818608E-02  0.1141312E+00
         -4   -1    0    0    0  501 -0.00000000000E+00  0.00000000000E+00  0.18682986676E+03  0.18683418320E+03  0.12700000000E+01 0. -1.
          4   -1    0    0  501    0  0.00000000000E+00 -0.00000000000E+00 -0.24513787175E+03  0.24514116151E+03  0.12700000000E+01 0. -1.
    8880022    1    1    2    0    0  0.93870247937E+02  0.10968895633E+03 -0.69089354332E+02  0.22137814365E+03  0.15294330000E+03 0. -1.
    8880022    1    1    2    0    0 -0.93870247937E+02 -0.10968895633E+03  0.10781349333E+02  0.21059720107E+03  0.15294330000E+03 0. -1.
<mgrwt>
<rscale>  0 0.21032105E+03</rscale>
<asrwt>0</asrwt>
<pdfrwt beam="1">  1        4 0.37714104E-01 0.21032105E+03</pdfrwt>
<pdfrwt beam="2">  1       -4 0.28743641E-01 0.21032105E+03</pdfrwt>
<totfact> 0.14099134E+02</totfact>
</mgrwt>
</event>
<event>
 4    1  0.8653772E-009  0.4304361E+03  0.7818608E-02  0.1033722E+00
         -4   -1    0    0    0  501 -0.00000000000E+00  0.00000000000E+00  0.30782476160E+03  0.30782738142E+03  0.12700000000E+01 0.  1.
          4   -1    0    0  501    0  0.00000000000E+00 -0.00000000000E+00 -0.73965126074E+03  0.73965235105E+03  0.12700000000E+01 0.  1.
    8880022    1    1    2    0    0 -0.38701097787E+03  0.11002749246E+03  0.10124612187E+02  0.43055511479E+03  0.15294330000E+03 0.  0.
    8880022    1    1    2    0    0  0.38701097787E+03 -0.11002749246E+03 -0.44195111133E+03  0.61692461768E+03  0.15294330000E+03 0.  0.
<mgrwt>
<rscale>  0 0.43043606E+03</rscale>
<asrwt>0</asrwt>
<pdfrwt beam="1">  1        4 0.11379279E+00 0.43043606E+03</pdfrwt>
<pdfrwt beam="2">  1       -4 0.47357941E-01 0.43043606E+03</pdfrwt>
<totfact> 0.50540122E+00</totfact>
</mgrwt>
</event>
<event>
 4    1  0.8653772E-009  0.1640313E+03  0.7818608E-02  0.1184219E+00
         -4   -1    0    0    0  501 -0.00000000000E+00  0.00000000000E+00  0.58605877315E+03  0.58606014920E+03  0.12700000000E+01 0.  1.
          4   -1    0    0  501    0  0.00000000000E+00 -0.00000000000E+00 -0.13370214368E+03  0.13370817523E+03  0.12700000000E+01 0.  1.
    8880022    1    1    2    0    0  0.56412676356E+02  0.18226863020E+02  0.51780278257E+03  0.54316294354E+03  0.15294330000E+03 0.  0.
    8880022    1    1    2    0    0 -0.56412676356E+02 -0.18226863020E+02 -0.65446153101E+02  0.17660538089E+03  0.15294330000E+03 0.  0.
<mgrwt>
<rscale>  0 0.16403128E+03</rscale>
<asrwt>0</asrwt>
<pdfrwt beam="1">  1        4 0.20570130E-01 0.16403128E+03</pdfrwt>
<pdfrwt beam="2">  1       -4 0.90163459E-01 0.16403128E+03</pdfrwt>
<totfact> 0.40336043E+01</totfact>
</mgrwt>
</event>
<event>
 4    1  0.8653772E-009  0.2042943E+03  0.7818608E-02  0.1146166E+00
          4   -1    0    0  501    0  0.00000000000E+00  0.00000000000E+00  0.12093881878E+04  0.12093888546E+04  0.12700000000E+01 0. -1.
         -4   -1    0    0    0  501 -0.00000000000E+00 -0.00000000000E+00 -0.34740112944E+02  0.34763318992E+02  0.12700000000E+01 0. -1.
    8880022    1    1    2    0    0  0.75396764282E+02  0.11251591145E+03  0.63926205535E+03  0.67111260666E+03  0.15294330000E+03 0.  0.
    8880022    1    1    2    0    0 -0.75396764282E+02 -0.11251591145E+03  0.53538601946E+03  0.57303956691E+03  0.15294330000E+03 0.  0.
<mgrwt>
<rscale>  0 0.20429429E+03</rscale>
<asrwt>0</asrwt>
<pdfrwt beam="1">  1        4 0.18606156E+00 0.20429429E+03</pdfrwt>
<pdfrwt beam="2">  1       -4 0.53464691E-02 0.20429429E+03</pdfrwt>
<totfact> 0.68106490E+01</totfact>
</mgrwt>
</event>
<event>
 4    1  0.8653772E-009  0.1659291E+03  0.7818608E-02  0.1182161E+00
         -4   -1    0    0    0  501 -0.00000000000E+00  0.00000000000E+00  0.14906617227E+03  0.14907158218E+03  0.12700000000E+01 0. -1.
          4   -1    0    0  501    0  0.00000000000E+00 -0.00000000000E+00 -0.20763941751E+03  0.20764330137E+03  0.12700000000E+01 0. -1.
    8880022    1    1    2    0    0 -0.64319482316E+02  0.19560599865E+01  0.30009202785E+02  0.16862095731E+03  0.15294330000E+03 0.  0.
    8880022    1    1    2    0    0  0.64319482316E+02 -0.19560599865E+01 -0.88582448029E+02  0.18809392624E+03  0.15294330000E+03 0.  0.
<mgrwt>
<rscale>  0 0.16592913E+03</rscale>
<asrwt>0</asrwt>
<pdfrwt beam="1">  1        4 0.31945241E-01 0.16592913E+03</pdfrwt>
<pdfrwt beam="2">  1       -4 0.22933972E-01 0.16592913E+03</pdfrwt>
<totfact> 0.28588851E+02</totfact>
</mgrwt>
</event>
<event>
 4    1  0.8653772E-009  0.1586918E+03  0.7818608E-02  0.1190182E+00
          4   -1    0    0  501    0  0.00000000000E+00  0.00000000000E+00  0.43191374819E+03  0.43191561534E+03  0.12700000000E+01 0.  1.
         -4   -1    0    0    0  501 -0.00000000000E+00 -0.00000000000E+00 -0.71363386331E+02  0.71374686049E+02  0.12700000000E+01 0.  1.
    8880022    1    1    2    0    0 -0.39490006526E+02 -0.15230783120E+02  0.72607351299E+02  0.17451337441E+03  0.15294330000E+03 0.  1.
    8880022    1    1    2    0    0  0.39490006526E+02  0.15230783120E+02  0.28794301056E+03  0.32877692698E+03  0.15294330000E+03 0.  1.
<mgrwt>
<rscale>  0 0.15869181E+03</rscale>
<asrwt>0</asrwt>
<pdfrwt beam="1">  1        4 0.66449281E-01 0.15869181E+03</pdfrwt>
<pdfrwt beam="2">  1       -4 0.10979995E-01 0.15869181E+03</pdfrwt>
<totfact> 0.23673845E+02</totfact>
</mgrwt>
</event>
<event>
 4    1  0.8653772E-009  0.1773205E+03  0.7818608E-02  0.1170422E+00
         -4   -1    0    0    0  501 -0.00000000000E+00  0.00000000000E+00  0.35612075316E+03  0.35612301769E+03  0.12700000000E+01 0. -1.
          4   -1    0    0  501    0  0.00000000000E+00 -0.00000000000E+00 -0.14356953470E+03  0.14357515173E+03  0.12700000000E+01 0. -1.
    8880022    1    1    2    0    0 -0.25162071435E+02 -0.86126577444E+02  0.26131240529E+03  0.31579541377E+03  0.15294330000E+03 0.  0.
    8880022    1    1    2    0    0  0.25162071435E+02  0.86126577444E+02 -0.48761186833E+02  0.18390275565E+03  0.15294330000E+03 0.  0.
<mgrwt>
<rscale>  0 0.17732053E+03</rscale>
<asrwt>0</asrwt>
<pdfrwt beam="1">  1        4 0.22088227E-01 0.17732053E+03</pdfrwt>
<pdfrwt beam="2">  1       -4 0.54788414E-01 0.17732053E+03</pdfrwt>
<totfact> 0.10561680E+02</totfact>
</mgrwt>
</event>
<event>
 4    1  0.8653772E-009  0.2083722E+03  0.7818608E-02  0.1142862E+00
         -4   -1    0    0    0  501 -0.00000000000E+00  0.00000000000E+00  0.13243522590E+03  0.13244131515E+03  0.12700000000E+01 0. -1.
          4   -1    0    0  501    0  0.00000000000E+00 -0.00000000000E+00 -0.33283896730E+03  0.33284139023E+03  0.12700000000E+01 0. -1.
    8880022    1    1    2    0    0 -0.13278707782E+03  0.48938032181E+02 -0.12872396603E+03  0.24492621639E+03  0.15294330000E+03 0.  0.
    8880022    1    1    2    0    0  0.13278707782E+03 -0.48938032181E+02 -0.71679775361E+02  0.22035648899E+03  0.15294330000E+03 0.  0.
<mgrwt>
<rscale>  0 0.20837224E+03</rscale>
<asrwt>0</asrwt>
<pdfrwt beam="1">  1        4 0.51206650E-01 0.20837224E+03</pdfrwt>
<pdfrwt beam="2">  1       -4 0.20375305E-01 0.20837224E+03</pdfrwt>
<totfact> 0.14401804E+02</totfact>
</mgrwt>
</event>
<event>
 4    1  0.8653772E-009  0.1560040E+03  0.7818608E-02  0.1193284E+00
          4   -1    0    0  501    0  0.00000000000E+00  0.00000000000E+00  0.14151249826E+03  0.14151819694E+03  0.12700000000E+01 0. -1.
         -4   -1    0    0    0  501 -0.00000000000E+00 -0.00000000000E+00 -0.17241567200E+03  0.17242034930E+03  0.12700000000E+01 0. -1.
    8880022    1    1    2    0    0 -0.11471331774E+02  0.28530745622E+02 -0.23449908145E+02  0.15775660400E+03  0.15294330000E+03 0.  1.
    8880022    1    1    2    0    0  0.11471331774E+02 -0.28530745622E+02 -0.74532655961E+01  0.15618194224E+03  0.15294330000E+03 0.  1.
<mgrwt>
<rscale>  0 0.15600400E+03</rscale>
<asrwt>0</asrwt>
<pdfrwt beam="1">  1        4 0.21771952E-01 0.15600400E+03</pdfrwt>
<pdfrwt beam="2">  1       -4 0.26526286E-01 0.15600400E+03</pdfrwt>
<totfact> 0.44190284E+02</totfact>
</mgrwt>
</event>
<event>
 4    1  0.8653772E-009  0.3291810E+03  0.7818608E-02  0.1071500E+00
         -4   -1    0    0    0  501 -0.00000000000E+00  0.00000000000E+00  0.98677631860E+02  0.98685804093E+02  0.12700000000E+01 0.  1.
          4   -1    0    0  501    0  0.00000000000E+00 -0.00000000000E+00 -0.15338322778E+04  0.15338328036E+04  0.12700000000E+01 0.  1.
    8880022    1    1    2    0    0  0.14138102709E+03 -0.25491158298E+03 -0.11526515453E+04  0.11987350616E+04  0.15294330000E+03 0.  0.
    8880022    1    1    2    0    0 -0.14138102709E+03  0.25491158298E+03 -0.28250310059E+03  0.43378354604E+03  0.15294330000E+03 0.  0.
<mgrwt>
<rscale>  0 0.32918105E+03</rscale>
<asrwt>0</asrwt>
<pdfrwt beam="1">  1        4 0.23597485E+00 0.32918105E+03</pdfrwt>
<pdfrwt beam="2">  1       -4 0.15181844E-01 0.32918105E+03</pdfrwt>
<totfact> 0.58595038E+00</totfact>
</mgrwt>
</event>
<event>
 4    1  0.8653772E-009  0.2138123E+03  0.7818608E-02  0.1138582E+00
          4   -1    0    0  501    0  0.00000000000E+00  0.00000000000E+00  0.46426730007E+03  0.46426903710E+03  0.12700000000E+01 0. -1.
         -4   -1    0    0    0  501 -0.00000000000E+00 -0.00000000000E+00 -0.99318257966E+02  0.99326377490E+02  0.12700000000E+01 0. -1.
    8880022    1    1    2    0    0  0.12856354944E+03  0.76127945205E+02  0.20863114104E+03  0.29873509388E+03  0.15294330000E+03 0.  1.
    8880022    1    1    2    0    0 -0.12856354944E+03 -0.76127945205E+02  0.15631790106E+03  0.26486032072E+03  0.15294330000E+03 0.  1.
<mgrwt>
<rscale>  0 0.21381231E+03</rscale>
<asrwt>0</asrwt>
<pdfrwt beam="1">  1        4 0.71426496E-01 0.21381231E+03</pdfrwt>
<pdfrwt beam="2">  1       -4 0.15280490E-01 0.21381231E+03</pdfrwt>
<totfact> 0.11938078E+02</totfact>
</mgrwt>
</event>
<event>
 4    1  0.8653772E-009  0.3178055E+03  0.7818608E-02  0.1076664E+00
         -4   -1    0    0    0  501 -0.00000000000E+00  0.00000000000E+00  0.78048758434E+03  0.78048861760E+03  0.12700000000E+01 0. -1.
          4   -1    0    0  501    0  0.00000000000E+00 -0.00000000000E+00 -0.16501379519E+03  0.16501868228E+03  0.12700000000E+01 0. -1.
    8880022    1    1    2    0    0  0.66589229963E+02  0.27050797248E+03  0.52735090219E+03  0.61571041551E+03  0.15294330000E+03 0.  0.
    8880022    1    1    2    0    0 -0.66589229963E+02 -0.27050797248E+03  0.88122886966E+02  0.32979688437E+03  0.15294330000E+03 0.  0.
<mgrwt>
<rscale>  0 0.31780551E+03</rscale>
<asrwt>0</asrwt>
<pdfrwt beam="1">  1        4 0.25387193E-01 0.31780551E+03</pdfrwt>
<pdfrwt beam="2">  1       -4 0.12007547E+00 0.31780551E+03</pdfrwt>
<totfact> 0.14853411E+01</totfact>
</mgrwt>
</event>
<event>
 4    1  0.8653772E-009  0.2483872E+03  0.7818608E-02  0.1114328E+00
          4   -1    0    0  501    0  0.00000000000E+00  0.00000000000E+00  0.16581099688E+03  0.16581586047E+03  0.12700000000E+01 0.  1.
         -4   -1    0    0    0  501 -0.00000000000E+00 -0.00000000000E+00 -0.67842288085E+03  0.67842406956E+03  0.12700000000E+01 0.  1.
    8880022    1    1    2    0    0 -0.13908121789E+03 -0.13769887425E+03  0.27348859435E+02  0.24988833159E+03  0.15294330000E+03 0.  0.
    8880022    1    1    2    0    0  0.13908121789E+03  0.13769887425E+03 -0.53996074341E+03  0.59435159845E+03  0.15294330000E+03 0.  0.
<mgrwt>
<rscale>  0 0.24838723E+03</rscale>
<asrwt>0</asrwt>
<pdfrwt beam="1">  1        4 0.25509850E-01 0.24838723E+03</pdfrwt>
<pdfrwt beam="2">  1       -4 0.10437322E+00 0.24838723E+03</pdfrwt>
<totfact> 0.20216890E+01</totfact>
</mgrwt>
</event>
<event>
 4    1  0.8653772E-009  0.1882051E+03  0.7818608E-02  0.1160090E+00
         -4   -1    0    0    0  501 -0.00000000000E+00  0.00000000000E+00  0.28966532681E+02  0.28994360065E+02  0.12700000000E+01 0.  1.
          4   -1    0    0  501    0  0.00000000000E+00 -0.00000000000E+00 -0.12420751292E+04  0.12420757785E+04  0.12700000000E+01 0.  1.
    8880022    1    1    2    0    0 -0.11519075161E+02 -0.10907248535E+03 -0.52619191336E+03  0.55883725615E+03  0.15294330000E+03 0. -1.
    8880022    1    1    2    0    0  0.11519075161E+02  0.10907248535E+03 -0.68691668315E+03  0.71223288239E+03  0.15294330000E+03 0. -1.
<mgrwt>
<rscale>  0 0.18820507E+03</rscale>
<asrwt>0</asrwt>
<pdfrwt beam="1">  1        4 0.19109063E+00 0.18820507E+03</pdfrwt>
<pdfrwt beam="2">  1       -4 0.44585811E-02 0.18820507E+03</pdfrwt>
<totfact> 0.83967670E+01</totfact>
</mgrwt>
</event>
<event>
 4    1  0.8653772E-009  0.3856680E+03  0.7818608E-02  0.1048859E+00
         -4   -1    0    0    0  501 -0.00000000000E+00  0.00000000000E+00  0.90986406759E+02  0.90995269740E+02  0.12700000000E+01 0. -1.
          4   -1    0    0  501    0  0.00000000000E+00 -0.00000000000E+00 -0.16851838610E+04  0.16851843395E+04  0.12700000000E+01 0. -1.
    8880022    1    1    2    0    0 -0.51059004745E+02  0.35034427361E+03 -0.95087393504E+03  0.10261096556E+04  0.15294330000E+03 0.  0.
    8880022    1    1    2    0    0  0.51059004745E+02 -0.35034427361E+03 -0.64332351916E+03  0.75006995363E+03  0.15294330000E+03 0.  0.
<mgrwt>
<rscale>  0 0.38566797E+03</rscale>
<asrwt>0</asrwt>
<pdfrwt beam="1">  1        4 0.25925975E+00 0.38566797E+03</pdfrwt>
<pdfrwt beam="2">  1       -4 0.13998629E-01 0.38566797E+03</pdfrwt>
<totfact> 0.49237355E+00</totfact>
</mgrwt>
</event>
<event>
 4    1  0.8653772E-009  0.1720327E+03  0.7818608E-02  0.1175744E+00
          4   -1    0    0  501    0  0.00000000000E+00  0.00000000000E+00  0.40012305415E+03  0.40012506965E+03  0.12700000000E+01 0. -1.
         -4   -1    0    0    0  501 -0.00000000000E+00 -0.00000000000E+00 -0.76368319499E+02  0.76378878776E+02  0.12700000000E+01 0. -1.
    8880022    1    1    2    0    0  0.19083888442E+02  0.76416053966E+02  0.11955168820E+03  0.20949431321E+03  0.15294330000E+03 0.  0.
    8880022    1    1    2    0    0 -0.19083888442E+02 -0.76416053966E+02  0.20420304645E+03  0.26700963522E+03  0.15294330000E+03 0.  0.
<mgrwt>
<rscale>  0 0.17203273E+03</rscale>
<asrwt>0</asrwt>
<pdfrwt beam="1">  1        4 0.61558360E-01 0.17203273E+03</pdfrwt>
<pdfrwt beam="2">  1       -4 0.11749940E-01 0.17203273E+03</pdfrwt>
<totfact> 0.25145814E+02</totfact>
</mgrwt>
</event>
<event>
 4    1  0.8653772E-009  0.3108059E+03  0.7818608E-02  0.1079960E+00
          4   -1    0    0  501    0  0.00000000000E+00  0.00000000000E+00  0.72139566023E+03  0.72139677813E+03  0.12700000000E+01 0. -1.
         -4   -1    0    0    0  501 -0.00000000000E+00 -0.00000000000E+00 -0.13841653939E+03  0.13842236553E+03  0.12700000000E+01 0. -1.
    8880022    1    1    2    0    0  0.11663908324E+03 -0.24413924468E+03  0.21386178098E+03  0.37727597447E+03  0.15294330000E+03 0.  0.
    8880022    1    1    2    0    0 -0.11663908324E+03  0.24413924468E+03  0.36911733986E+03  0.48254316919E+03  0.15294330000E+03 0.  0.
<mgrwt>
<rscale>  0 0.31080589E+03</rscale>
<asrwt>0</asrwt>
<pdfrwt beam="1">  1        4 0.11098448E+00 0.31080589E+03</pdfrwt>
<pdfrwt beam="2">  1       -4 0.21295386E-01 0.31080589E+03</pdfrwt>
<totfact> 0.24891021E+01</totfact>
</mgrwt>
</event>
<event>
 4    1  0.8653772E-009  0.3492224E+03  0.7818608E-02  0.1062935E+00
         -4   -1    0    0    0  501 -0.00000000000E+00  0.00000000000E+00  0.10593517952E+04  0.10593525565E+04  0.12700000000E+01 0. -1.
          4   -1    0    0  501    0  0.00000000000E+00 -0.00000000000E+00 -0.14480252021E+03  0.14480808941E+03  0.12700000000E+01 0. -1.
    8880022    1    1    2    0    0 -0.26679240966E+03 -0.16548859008E+03  0.18468341087E+03  0.39504971657E+03  0.15294330000E+03 0.  0.
    8880022    1    1    2    0    0  0.26679240966E+03  0.16548859008E+03  0.72986586412E+03  0.80911092930E+03  0.15294330000E+03 0.  0.
<mgrwt>
<rscale>  0 0.34922245E+03</rscale>
<asrwt>0</asrwt>
<pdfrwt beam="1">  1        4 0.22277797E-01 0.34922245E+03</pdfrwt>
<pdfrwt beam="2">  1       -4 0.16297769E+00 0.34922245E+03</pdfrwt>
<totfact> 0.87094681E+00</totfact>
</mgrwt>
</event>
<event>
 4    1  0.8653772E-009  0.1553981E+03  0.7818608E-02  0.1193992E+00
          4   -1    0    0  501    0  0.00000000000E+00  0.00000000000E+00  0.63252141324E+02  0.63264889806E+02  0.12700000000E+01 0.  1.
         -4   -1    0    0    0  501 -0.00000000000E+00 -0.00000000000E+00 -0.85763536282E+03  0.85763630314E+03  0.12700000000E+01 0.  1.
    8880022    1    1    2    0    0 -0.25774204102E+02  0.96230256866E+01 -0.54196247370E+02  0.16457763659E+03  0.15294330000E+03 0.  0.
    8880022    1    1    2    0    0  0.25774204102E+02 -0.96230256866E+01 -0.74018697413E+03  0.75632355636E+03  0.15294330000E+03 0.  0.
<mgrwt>
<rscale>  0 0.15539809E+03</rscale>
<asrwt>0</asrwt>
<pdfrwt beam="1">  1        4 0.97321523E-02 0.15539809E+03</pdfrwt>
<pdfrwt beam="2">  1       -4 0.13194495E+00 0.15539809E+03</pdfrwt>
<totfact> 0.60039390E+01</totfact>
</mgrwt>
</event>
<event>
 4    1  0.8653772E-009  0.1557990E+03  0.7818608E-02  0.1193523E+00
         -4   -1    0    0    0  501 -0.00000000000E+00  0.00000000000E+00  0.30943456177E+03  0.30943716796E+03  0.12700000000E+01 0. -1.
          4   -1    0    0  501    0  0.00000000000E+00 -0.00000000000E+00 -0.88341524126E+02  0.88350652431E+02  0.12700000000E+01 0. -1.
    8880022    1    1    2    0    0 -0.38307989216E+01 -0.29445001767E+02  0.17714212256E+03  0.23590817652E+03  0.15294330000E+03 0.  1.
    8880022    1    1    2    0    0  0.38307989216E+01  0.29445001767E+02  0.43950915085E+02  0.16187964388E+03  0.15294330000E+03 0.  1.
<mgrwt>
<rscale>  0 0.15579902E+03</rscale>
<asrwt>0</asrwt>
<pdfrwt beam="1">  1        4 0.13591906E-01 0.15579902E+03</pdfrwt>
<pdfrwt beam="2">  1       -4 0.47606221E-01 0.15579902E+03</pdfrwt>
<totfact> 0.32767038E+02</totfact>
</mgrwt>
</event>
<event>
 4    1  0.8653772E-009  0.1898554E+03  0.7818608E-02  0.1158592E+00
         -4   -1    0    0    0  501 -0.00000000000E+00  0.00000000000E+00  0.29420856606E+03  0.29421130713E+03  0.12700000000E+01 0.  1.
          4   -1    0    0  501    0  0.00000000000E+00 -0.00000000000E+00 -0.14096158567E+03  0.14096730662E+03  0.12700000000E+01 0.  1.
    8880022    1    1    2    0    0 -0.75467931090E+02 -0.83414684077E+02  0.15534706861E+03  0.24531160364E+03  0.15294330000E+03 0. -1.
    8880022    1    1    2    0    0  0.75467931090E+02  0.83414684077E+02 -0.21000882147E+01  0.18986701011E+03  0.15294330000E+03 0. -1.
<mgrwt>
<rscale>  0 0.18985540E+03</rscale>
<asrwt>0</asrwt>
<pdfrwt beam="1">  1        4 0.21687049E-01 0.18985540E+03</pdfrwt>
<pdfrwt beam="2">  1       -4 0.45263507E-01 0.18985540E+03</pdfrwt>
<totfact> 0.16315338E+02</totfact>
</mgrwt>
</event>
<event>
 4    1  0.8653772E-009  0.1855664E+03  0.7818608E-02  0.1162522E+00
          4   -1    0    0  501    0  0.00000000000E+00  0.00000000000E+00  0.87782595160E+03  0.87782687029E+03  0.12700000000E+01 0.  1.
         -4   -1    0    0    0  501 -0.00000000000E+00 -0.00000000000E+00 -0.53461878211E+02  0.53476960664E+02  0.12700000000E+01 0.  1.
    8880022    1    1    2    0    0  0.10456195030E+03  0.10489968788E+02  0.17185428654E+03  0.25292052054E+03  0.15294330000E+03 0.  0.
    8880022    1    1    2    0    0 -0.10456195030E+03 -0.10489968788E+02  0.65250978685E+03  0.67838331041E+03  0.15294330000E+03 0.  0.
<mgrwt>
<rscale>  0 0.18556641E+03</rscale>
<asrwt>0</asrwt>
<pdfrwt beam="1">  1        4 0.13505137E+00 0.18556641E+03</pdfrwt>
<pdfrwt beam="2">  1       -4 0.82261359E-02 0.18556641E+03</pdfrwt>
<totfact> 0.76934588E+01</totfact>
</mgrwt>
</event>
<event>
 4    1  0.8653772E-009  0.2723657E+03  0.7818608E-02  0.1099933E+00
         -4   -1    0    0    0  501 -0.00000000000E+00  0.00000000000E+00  0.74485898178E+02  0.74496724273E+02  0.12700000000E+01 0. -1.
          4   -1    0    0  501    0  0.00000000000E+00 -0.00000000000E+00 -0.10069520320E+04  0.10069528329E+04  0.12700000000E+01 0. -1.
    8880022    1    1    2    0    0 -0.16920458669E+03  0.14886648695E+03 -0.52300752014E+03  0.58967782918E+03  0.15294330000E+03 0.  0.
    8880022    1    1    2    0    0  0.16920458669E+03 -0.14886648695E+03 -0.40945861367E+03  0.49177172796E+03  0.15294330000E+03 0.  0.
<mgrwt>
<rscale>  0 0.27236570E+03</rscale>
<asrwt>0</asrwt>
<pdfrwt beam="1">  1        4 0.15491658E+00 0.27236570E+03</pdfrwt>
<pdfrwt beam="2">  1       -4 0.11460264E-01 0.27236570E+03</pdfrwt>
<totfact> 0.32139474E+01</totfact>
</mgrwt>
</event>
<event>
 4    1  0.8653772E-009  0.1547060E+03  0.7818608E-02  0.1194807E+00
         -4   -1    0    0    0  501 -0.00000000000E+00  0.00000000000E+00  0.35752001207E+02  0.35774550875E+02  0.12700000000E+01 0. -1.
          4   -1    0    0  501    0  0.00000000000E+00 -0.00000000000E+00 -0.95820586572E+03  0.95820670735E+03  0.12700000000E+01 0. -1.
    8880022    1    1    2    0    0 -0.22776206810E+02 -0.48505521078E+01 -0.18829147166E+03  0.24369574220E+03  0.15294330000E+03 0.  0.
    8880022    1    1    2    0    0  0.22776206810E+02  0.48505521078E+01 -0.73416239285E+03  0.75028551602E+03  0.15294330000E+03 0.  0.
<mgrwt>
<rscale>  0 0.15470597E+03</rscale>
<asrwt>0</asrwt>
<pdfrwt beam="1">  1        4 0.14741807E+00 0.15470597E+03</pdfrwt>
<pdfrwt beam="2">  1       -4 0.55021079E-02 0.15470597E+03</pdfrwt>
<totfact> 0.11658312E+02</totfact>
</mgrwt>
</event>
<event>
 4    1  0.8653772E-009  0.1584893E+03  0.7818608E-02  0.1190413E+00
          4   -1    0    0  501    0  0.00000000000E+00  0.00000000000E+00  0.22414715622E+02  0.22450665389E+02  0.12700000000E+01 0. -1.
         -4   -1    0    0    0  501 -0.00000000000E+00 -0.00000000000E+00 -0.12619247837E+04  0.12619254228E+04  0.12700000000E+01 0. -1.
    8880022    1    1    2    0    0 -0.39336045551E+02  0.13411963319E+02 -0.83533873232E+03  0.85024093995E+03  0.15294330000E+03 0.  0.
    8880022    1    1    2    0    0  0.39336045551E+02 -0.13411963319E+02 -0.40417133575E+03  0.43413514820E+03  0.15294330000E+03 0.  0.
<mgrwt>
<rscale>  0 0.15848930E+03</rscale>
<asrwt>0</asrwt>
<pdfrwt beam="1">  1        4 0.34512333E-02 0.15848930E+03</pdfrwt>
<pdfrwt beam="2">  1       -4 0.19414503E+00 0.15848930E+03</pdfrwt>
<totfact> 0.11815952E+02</totfact>
</mgrwt>
</event>
<event>
 4    1  0.8653772E-009  0.1938095E+03  0.7818608E-02  0.1155070E+00
         -4   -1    0    0    0  501 -0.00000000000E+00  0.00000000000E+00  0.21775025304E+02  0.21812029411E+02  0.12700000000E+01 0.  1.
          4   -1    0    0  501    0  0.00000000000E+00 -0.00000000000E+00 -0.17384507350E+04  0.17384511989E+04  0.12700000000E+01 0.  1.
    8880022    1    1    2    0    0 -0.11398927018E+03 -0.34306078738E+02 -0.77673829460E+03  0.80055261668E+03  0.15294330000E+03 0.  1.
    8880022    1    1    2    0    0  0.11398927018E+03  0.34306078738E+02 -0.93993741511E+03  0.95971061164E+03  0.15294330000E+03 0.  1.
<mgrwt>
<rscale>  0 0.19380948E+03</rscale>
<asrwt>0</asrwt>
<pdfrwt beam="1">  1        4 0.26745673E+00 0.19380948E+03</pdfrwt>
<pdfrwt beam="2">  1       -4 0.33528874E-02 0.19380948E+03</pdfrwt>
<totfact> 0.46071133E+01</totfact>
</mgrwt>
</event>
<event>
 4    1  0.8653772E-009  0.4779677E+03  0.7818608E-02  0.1019695E+00
          4   -1    0    0  501    0  0.00000000000E+00  0.00000000000E+00  0.43517262294E+03  0.43517447611E+03  0.12700000000E+01 0.  1.
         -4   -1    0    0    0  501 -0.00000000000E+00 -0.00000000000E+00 -0.52936278787E+03  0.52936431130E+03  0.12700000000E+01 0.  1.
    8880022    1    1    2    0    0 -0.44260994323E+03  0.95696864208E+02 -0.31504339288E+01  0.47797806426E+03  0.15294330000E+03 0.  0.
    8880022    1    1    2    0    0  0.44260994323E+03 -0.95696864208E+02 -0.91039730998E+02  0.48656072314E+03  0.15294330000E+03 0.  0.
<mgrwt>
<rscale>  0 0.47796768E+03</rscale>
<asrwt>0</asrwt>
<pdfrwt beam="1">  1        4 0.66949894E-01 0.47796768E+03</pdfrwt>
<pdfrwt beam="2">  1       -4 0.81440689E-01 0.47796768E+03</pdfrwt>
<totfact> 0.53446070E+00</totfact>
</mgrwt>
</event>
<event>
 4    1  0.8653772E-009  0.3187371E+03  0.7818608E-02  0.1076232E+00
          4   -1    0    0  501    0  0.00000000000E+00  0.00000000000E+00  0.45499028375E+03  0.45499205620E+03  0.12700000000E+01 0. -1.
         -4   -1    0    0    0  501 -0.00000000000E+00 -0.00000000000E+00 -0.22328822828E+03  0.22329183995E+03  0.12700000000E+01 0. -1.
    8880022    1    1    2    0    0  0.27770177596E+03 -0.32915001223E+02  0.11752446953E+03  0.33971359647E+03  0.15294330000E+03 0.  0.
    8880022    1    1    2    0    0 -0.27770177596E+03  0.32915001223E+02  0.11417758594E+03  0.33857029968E+03  0.15294330000E+03 0.  0.
<mgrwt>
<rscale>  0 0.31873708E+03</rscale>
<asrwt>0</asrwt>
<pdfrwt beam="1">  1        4 0.69998918E-01 0.31873708E+03</pdfrwt>
<pdfrwt beam="2">  1       -4 0.34352450E-01 0.31873708E+03</pdfrwt>
<totfact> 0.29036229E+01</totfact>
</mgrwt>
</event>
<event>
 4    1  0.8653772E-009  0.1618596E+03  0.7818608E-02  0.1186613E+00
          4   -1    0    0  501    0  0.00000000000E+00  0.00000000000E+00  0.20390676017E+03  0.20391071512E+03  0.12700000000E+01 0. -1.
         -4   -1    0    0    0  501 -0.00000000000E+00 -0.00000000000E+00 -0.14262483053E+03  0.14263048477E+03  0.12700000000E+01 0. -1.
    8880022    1    1    2    0    0 -0.51804982709E+02  0.11096290690E+02  0.85216020670E+02  0.18292158728E+03  0.15294330000E+03 0. -1.
    8880022    1    1    2    0    0  0.51804982709E+02 -0.11096290690E+02 -0.23934091035E+02  0.16361961261E+03  0.15294330000E+03 0. -1.
<mgrwt>
<rscale>  0 0.16185962E+03</rscale>
<asrwt>0</asrwt>
<pdfrwt beam="1">  1        4 0.31371010E-01 0.16185962E+03</pdfrwt>
<pdfrwt beam="2">  1       -4 0.21943021E-01 0.16185962E+03</pdfrwt>
<totfact> 0.31955988E+02</totfact>
</mgrwt>
</event>
<event>
 4    1  0.8653772E-009  0.1978889E+03  0.7818608E-02  0.1151532E+00
          4   -1    0    0  501    0  0.00000000000E+00  0.00000000000E+00  0.14302491422E+03  0.14303055264E+03  0.12700000000E+01 0. -1.
         -4   -1    0    0    0  501 -0.00000000000E+00 -0.00000000000E+00 -0.28087623797E+03  0.28087910915E+03  0.12700000000E+01 0. -1.
    8880022    1    1    2    0    0  0.84364076652E+02  0.93011046758E+02 -0.10260086554E+03  0.22290568156E+03  0.15294330000E+03 0.  0.
    8880022    1    1    2    0    0 -0.84364076652E+02 -0.93011046758E+02 -0.35250458214E+02  0.20100398023E+03  0.15294330000E+03 0.  0.
<mgrwt>
<rscale>  0 0.19788887E+03</rscale>
<asrwt>0</asrwt>
<pdfrwt beam="1">  1        4 0.22004488E-01 0.19788887E+03</pdfrwt>
<pdfrwt beam="2">  1       -4 0.43212384E-01 0.19788887E+03</pdfrwt>
<totfact> 0.17547752E+02</totfact>
</mgrwt>
</event>
<event>
 4    1  0.8653772E-009  0.2697570E+03  0.7818608E-02  0.1101419E+00
          4   -1    0    0  501    0  0.00000000000E+00  0.00000000000E+00  0.65594501175E+03  0.65594624120E+03  0.12700000000E+01 0. -1.
         -4   -1    0    0    0  501 -0.00000000000E+00 -0.00000000000E+00 -0.11356054147E+03  0.11356764274E+03  0.12700000000E+01 0. -1.
    8880022    1    1    2    0    0  0.54909263733E+02 -0.21531869331E+03  0.21266201270E+03  0.34350247683E+03  0.15294330000E+03 0.  0.
    8880022    1    1    2    0    0 -0.54909263733E+02  0.21531869331E+03  0.32972245759E+03  0.42601140710E+03  0.15294330000E+03 0.  0.
<mgrwt>
<rscale>  0 0.26975696E+03</rscale>
<asrwt>0</asrwt>
<pdfrwt beam="1">  1        4 0.10091526E+00 0.26975696E+03</pdfrwt>
<pdfrwt beam="2">  1       -4 0.17471494E-01 0.26975696E+03</pdfrwt>
<totfact> 0.44177922E+01</totfact>
</mgrwt>
</event>
<event>
 4    1  0.8653772E-009  0.2001861E+03  0.7818608E-02  0.1149582E+00
          4   -1    0    0  501    0  0.00000000000E+00  0.00000000000E+00  0.14223804473E+03  0.14224371434E+03  0.12700000000E+01 0. -1.
         -4   -1    0    0    0  501 -0.00000000000E+00 -0.00000000000E+00 -0.40564456775E+03  0.40564655581E+03  0.12700000000E+01 0. -1.
    8880022    1    1    2    0    0  0.12787757000E+03 -0.18170529936E+02  0.19704482940E+02  0.20115357499E+03  0.15294330000E+03 0.  0.
    8880022    1    1    2    0    0 -0.12787757000E+03  0.18170529936E+02 -0.28311100596E+03  0.34673669517E+03  0.15294330000E+03 0.  0.
<mgrwt>
<rscale>  0 0.20018615E+03</rscale>
<asrwt>0</asrwt>
<pdfrwt beam="1">  1        4 0.21883365E-01 0.20018615E+03</pdfrwt>
<pdfrwt beam="2">  1       -4 0.62407445E-01 0.20018615E+03</pdfrwt>
<totfact> 0.83057961E+01</totfact>
</mgrwt>
</event>
<event>
 4    1  0.8653772E-009  0.1640768E+03  0.7818608E-02  0.1184169E+00
          4   -1    0    0  501    0  0.00000000000E+00  0.00000000000E+00  0.46181132664E+03  0.46181307292E+03  0.12700000000E+01 0.  1.
         -4   -1    0    0    0  501 -0.00000000000E+00 -0.00000000000E+00 -0.21545943417E+03  0.21546317707E+03  0.12700000000E+01 0.  1.
    8880022    1    1    2    0    0  0.45582463829E+02 -0.38102469816E+02  0.41239837655E+03  0.44383964809E+03  0.15294330000E+03 0.  0.
    8880022    1    1    2    0    0 -0.45582463829E+02  0.38102469816E+02 -0.16604648408E+03  0.23343660189E+03  0.15294330000E+03 0.  0.
<mgrwt>
<rscale>  0 0.16407685E+03</rscale>
<asrwt>0</asrwt>
<pdfrwt beam="1">  1        4 0.71048318E-01 0.16407685E+03</pdfrwt>
<pdfrwt beam="2">  1       -4 0.33148028E-01 0.16407685E+03</pdfrwt>
<totfact> 0.28122362E+01</totfact>
</mgrwt>
</event>
<event>
 4    1  0.8653772E-009  0.1564906E+03  0.7818608E-02  0.1192717E+00
          4   -1    0    0  501    0  0.00000000000E+00  0.00000000000E+00  0.58846677341E+02  0.58860380003E+02  0.12700000000E+01 0. -1.
         -4   -1    0    0    0  501 -0.00000000000E+00 -0.00000000000E+00 -0.58923606071E+03  0.58923742934E+03  0.12700000000E+01 0. -1.
    8880022    1    1    2    0    0 -0.20734000577E+02 -0.25841091602E+02 -0.89537989837E+02  0.18029521745E+03  0.15294330000E+03 0.  0.
    8880022    1    1    2    0    0  0.20734000577E+02  0.25841091602E+02 -0.44085139353E+03  0.46780259190E+03  0.15294330000E+03 0.  0.
<mgrwt>
<rscale>  0 0.15649062E+03</rscale>
<asrwt>0</asrwt>
<pdfrwt beam="1">  1        4 0.90544947E-02 0.15649062E+03</pdfrwt>
<pdfrwt beam="2">  1       -4 0.90652857E-01 0.15649062E+03</pdfrwt>
<totfact> 0.16487535E+02</totfact>
</mgrwt>
</event>
<event>
 4    1  0.8653772E-009  0.2724350E+03  0.7818608E-02  0.1099894E+00
         -4   -1    0    0    0  501 -0.00000000000E+00  0.00000000000E+00  0.14368284354E+03  0.14368845614E+03  0.12700000000E+01 0. -1.
          4   -1    0    0  501    0  0.00000000000E+00 -0.00000000000E+00 -0.51787380817E+03  0.51787536540E+03  0.12700000000E+01 0. -1.
    8880022    1    1    2    0    0 -0.21668255294E+03 -0.62272528015E+02 -0.20385859632E+03  0.34026339328E+03  0.15294330000E+03 0.  0.
    8880022    1    1    2    0    0  0.21668255294E+03  0.62272528015E+02 -0.17033236830E+03  0.32130042826E+03  0.15294330000E+03 0.  0.
<mgrwt>
<rscale>  0 0.27243504E+03</rscale>
<asrwt>0</asrwt>
<pdfrwt beam="1">  1        4 0.79673444E-01 0.27243504E+03</pdfrwt>
<pdfrwt beam="2">  1       -4 0.22105605E-01 0.27243504E+03</pdfrwt>
<totfact> 0.49566864E+01</totfact>
</mgrwt>
</event>
<event>
 4    1  0.8653772E-009  0.1555290E+03  0.7818608E-02  0.1193839E+00
         -4   -1    0    0    0  501 -0.00000000000E+00  0.00000000000E+00  0.41516785523E+03  0.41516979769E+03  0.12700000000E+01 0. -1.
          4   -1    0    0  501    0  0.00000000000E+00 -0.00000000000E+00 -0.58735982859E+02  0.58749711339E+02  0.12700000000E+01 0. -1.
    8880022    1    1    2    0    0 -0.28037997756E+02  0.33890747098E+01  0.15677187617E+03  0.22083181229E+03  0.15294330000E+03 0.  0.
    8880022    1    1    2    0    0  0.28037997756E+02 -0.33890747098E+01  0.19965999620E+03  0.25308769674E+03  0.15294330000E+03 0.  0.
<mgrwt>
<rscale>  0 0.15552899E+03</rscale>
<asrwt>0</asrwt>
<pdfrwt beam="1">  1        4 0.90375102E-02 0.15552899E+03</pdfrwt>
<pdfrwt beam="2">  1       -4 0.63873186E-01 0.15552899E+03</pdfrwt>
<totfact> 0.35669127E+02</totfact>
</mgrwt>
</event>
<event>
 4    1  0.8653772E-009  0.1841741E+03  0.7818608E-02  0.1163823E+00
          4   -1    0    0  501    0  0.00000000000E+00  0.00000000000E+00  0.14356512034E+03  0.14357073754E+03  0.12700000000E+01 0.  1.
         -4   -1    0    0    0  501 -0.00000000000E+00 -0.00000000000E+00 -0.23812733420E+03  0.23813072081E+03  0.12700000000E+01 0.  1.
    8880022    1    1    2    0    0 -0.71544065574E+02 -0.73551855059E+02 -0.30370544785E+02  0.18666132890E+03  0.15294330000E+03 0.  0.
    8880022    1    1    2    0    0  0.71544065574E+02  0.73551855059E+02 -0.64191669076E+02  0.19504012945E+03  0.15294330000E+03 0.  0.
<mgrwt>
<rscale>  0 0.18417405E+03</rscale>
<asrwt>0</asrwt>
<pdfrwt beam="1">  1        4 0.22087634E-01 0.18417405E+03</pdfrwt>
<pdfrwt beam="2">  1       -4 0.36635667E-01 0.18417405E+03</pdfrwt>
<totfact> 0.23901451E+02</totfact>
</mgrwt>
</event>
<event>
 4    1  0.8653772E-009  0.3514287E+03  0.7818608E-02  0.1062030E+00
          4   -1    0    0  501    0  0.00000000000E+00  0.00000000000E+00  0.34110751000E+03  0.34110987420E+03  0.12700000000E+01 0. -1.
         -4   -1    0    0    0  501 -0.00000000000E+00 -0.00000000000E+00 -0.55485402931E+03  0.55485548275E+03  0.12700000000E+01 0. -1.
    8880022    1    1    2    0    0  0.21821808534E+03  0.22910994390E+03 -0.37094370137E+03  0.51098080372E+03  0.15294330000E+03 0.  0.
    8880022    1    1    2    0    0 -0.21821808534E+03 -0.22910994390E+03  0.15719718206E+03  0.38498455323E+03  0.15294330000E+03 0.  0.
<mgrwt>
<rscale>  0 0.35142873E+03</rscale>
<asrwt>0</asrwt>
<pdfrwt beam="1">  1        4 0.52478372E-01 0.35142873E+03</pdfrwt>
<pdfrwt beam="2">  1       -4 0.85362452E-01 0.35142873E+03</pdfrwt>
<totfact> 0.79636429E+00</totfact>
</mgrwt>
</event>
<event>
 4    1  0.8653772E-009  0.2752586E+03  0.7818608E-02  0.1098307E+00
          4   -1    0    0  501    0  0.00000000000E+00  0.00000000000E+00  0.10172429419E+04  0.10172437347E+04  0.12700000000E+01 0. -1.
         -4   -1    0    0    0  501 -0.00000000000E+00 -0.00000000000E+00 -0.77575696256E+02  0.77586091213E+02  0.12700000000E+01 0. -1.
    8880022    1    1    2    0    0 -0.18583191656E+03  0.13357453530E+03  0.36043104630E+03  0.45351719906E+03  0.15294330000E+03 0.  0.
    8880022    1    1    2    0    0  0.18583191656E+03 -0.13357453530E+03  0.57923619933E+03  0.64131262682E+03  0.15294330000E+03 0.  0.
<mgrwt>
<rscale>  0 0.27525863E+03</rscale>
<asrwt>0</asrwt>
<pdfrwt beam="1">  1        4 0.15649977E+00 0.27525863E+03</pdfrwt>
<pdfrwt beam="2">  1       -4 0.11935583E-01 0.27525863E+03</pdfrwt>
<totfact> 0.29191655E+01</totfact>
</mgrwt>
</event>
<event>
 4    1  0.8653772E-009  0.3122649E+03  0.7818608E-02  0.1079265E+00
          4   -1    0    0  501    0  0.00000000000E+00  0.00000000000E+00  0.54302736265E+03  0.54302884774E+03  0.12700000000E+01 0. -1.
         -4   -1    0    0    0  501 -0.00000000000E+00 -0.00000000000E+00 -0.19341761606E+03  0.19342178549E+03  0.12700000000E+01 0. -1.
    8880022    1    1    2    0    0  0.20936425664E+03  0.17402388012E+03  0.27335759807E+03  0.41501052065E+03  0.15294330000E+03 0.  0.
    8880022    1    1    2    0    0 -0.20936425664E+03 -0.17402388012E+03  0.76252148517E+02  0.32144011259E+03  0.15294330000E+03 0.  0.
<mgrwt>
<rscale>  0 0.31226488E+03</rscale>
<asrwt>0</asrwt>
<pdfrwt beam="1">  1        4 0.83543107E-01 0.31226488E+03</pdfrwt>
<pdfrwt beam="2">  1       -4 0.29756991E-01 0.31226488E+03</pdfrwt>
<totfact> 0.25797911E+01</totfact>
</mgrwt>
</event>
<event>
 4    1  0.8653772E-009  0.1563384E+03  0.7818608E-02  0.1192894E+00
         -4   -1    0    0    0  501 -0.00000000000E+00  0.00000000000E+00  0.27620536402E+03  0.27620828375E+03  0.12700000000E+01 0.  1.
          4   -1    0    0  501    0  0.00000000000E+00 -0.00000000000E+00 -0.33901212181E+03  0.33901450062E+03  0.12700000000E+01 0.  1.
    8880022    1    1    2    0    0  0.26519623606E+02  0.18620991941E+02 -0.29583800538E+03  0.33460694885E+03  0.15294330000E+03 0.  0.
    8880022    1    1    2    0    0 -0.26519623606E+02 -0.18620991941E+02  0.23303124759E+03  0.28061583552E+03  0.15294330000E+03 0.  0.
<mgrwt>
<rscale>  0 0.15633837E+03</rscale>
<asrwt>0</asrwt>
<pdfrwt beam="1">  1        4 0.52156119E-01 0.15633837E+03</pdfrwt>
<pdfrwt beam="2">  1       -4 0.42493540E-01 0.15633837E+03</pdfrwt>
<totfact> 0.33044201E+01</totfact>
</mgrwt>
</event>
<event>
 4    1  0.8653772E-009  0.1742805E+03  0.7818608E-02  0.1173456E+00
         -4   -1    0    0    0  501 -0.00000000000E+00  0.00000000000E+00  0.74239373199E+02  0.74250235238E+02  0.12700000000E+01 0. -1.
          4   -1    0    0  501    0  0.00000000000E+00 -0.00000000000E+00 -0.44522360718E+03  0.44522541852E+03  0.12700000000E+01 0. -1.
    8880022    1    1    2    0    0 -0.71820320626E+02  0.42706761051E+02 -0.11149817377E+03  0.20689495321E+03  0.15294330000E+03 0.  0.
    8880022    1    1    2    0    0  0.71820320626E+02 -0.42706761051E+02 -0.25948606021E+03  0.31258070054E+03  0.15294330000E+03 0.  0.
<mgrwt>
<rscale>  0 0.17428046E+03</rscale>
<asrwt>0</asrwt>
<pdfrwt beam="1">  1        4 0.68496913E-01 0.17428046E+03</pdfrwt>
<pdfrwt beam="2">  1       -4 0.11422417E-01 0.17428046E+03</pdfrwt>
<totfact> 0.21044799E+02</totfact>
</mgrwt>
</event>
<event>
 4    1  0.8653772E-009  0.1999227E+03  0.7818608E-02  0.1149804E+00
         -4   -1    0    0    0  501 -0.00000000000E+00  0.00000000000E+00  0.68012949809E+03  0.68013068382E+03  0.12700000000E+01 0.  1.
          4   -1    0    0  501    0  0.00000000000E+00 -0.00000000000E+00 -0.11042381689E+03  0.11043111987E+03  0.12700000000E+01 0.  1.
    8880022    1    1    2    0    0  0.12807905842E+03  0.13159922111E+02  0.55521745981E+03  0.59011482734E+03  0.15294330000E+03 0.  0.
    8880022    1    1    2    0    0 -0.12807905842E+03 -0.13159922111E+02  0.14488221397E+02  0.20044697636E+03  0.15294330000E+03 0.  0.
<mgrwt>
<rscale>  0 0.19992269E+03</rscale>
<asrwt>0</asrwt>
<pdfrwt beam="1">  1        4 0.16988933E-01 0.19992269E+03</pdfrwt>
<pdfrwt beam="2">  1       -4 0.10463596E+00 0.19992269E+03</pdfrwt>
<totfact> 0.41285269E+01</totfact>
</mgrwt>
</event>
<event>
 4    1  0.8653772E-009  0.4904900E+03  0.7818608E-02  0.1016291E+00
         -4   -1    0    0    0  501 -0.00000000000E+00  0.00000000000E+00  0.12988225290E+04  0.12988231499E+04  0.12700000000E+01 0.  1.
          4   -1    0    0  501    0  0.00000000000E+00 -0.00000000000E+00 -0.33968211412E+03  0.33968448825E+03  0.12700000000E+01 0.  1.
    8880022    1    1    2    0    0  0.25806633690E+03 -0.38806003073E+03  0.10320049313E+04  0.11426349605E+04  0.15294330000E+03 0.  0.
    8880022    1    1    2    0    0 -0.25806633690E+03  0.38806003073E+03 -0.72864516421E+02  0.49587267767E+03  0.15294330000E+03 0.  0.
<mgrwt>
<rscale>  0 0.49049004E+03</rscale>
<asrwt>0</asrwt>
<pdfrwt beam="1">  1        4 0.52259018E-01 0.49049004E+03</pdfrwt>
<pdfrwt beam="2">  1       -4 0.19981908E+00 0.49049004E+03</pdfrwt>
<totfact> 0.92050581E-01</totfact>
</mgrwt>
</event>
<event>
 4    1  0.8653772E-009  0.1823410E+03  0.7818608E-02  0.1165556E+00
          4   -1    0    0  501    0  0.00000000000E+00  0.00000000000E+00  0.15271368825E+04  0.15271374105E+04  0.12700000000E+01 0. -1.
         -4   -1    0    0    0  501 -0.00000000000E+00 -0.00000000000E+00 -0.25353767906E+02  0.25385555874E+02  0.12700000000E+01 0. -1.
    8880022    1    1    2    0    0  0.39508810844E+02  0.91080372270E+02  0.45853570134E+03  0.49346045714E+03  0.15294330000E+03 0.  0.
    8880022    1    1    2    0    0 -0.39508810844E+02 -0.91080372270E+02  0.10432474132E+04  0.10590625093E+04  0.15294330000E+03 0.  0.
<mgrwt>
<rscale>  0 0.18234098E+03</rscale>
<asrwt>0</asrwt>
<pdfrwt beam="1">  1        4 0.23494659E+00 0.18234098E+03</pdfrwt>
<pdfrwt beam="2">  1       -4 0.39030660E-02 0.18234098E+03</pdfrwt>
<totfact> 0.55749470E+01</totfact>
</mgrwt>
</event>
<event>
 4    1  0.8653772E-009  0.3067072E+03  0.7818608E-02  0.1081935E+00
          4   -1    0    0  501    0  0.00000000000E+00  0.00000000000E+00  0.65064876728E+03  0.65065000674E+03  0.12700000000E+01 0. -1.
         -4   -1    0    0    0  501 -0.00000000000E+00 -0.00000000000E+00 -0.26282561260E+03  0.26282868097E+03  0.12700000000E+01 0. -1.
    8880022    1    1    2    0    0  0.97995170978E+02 -0.24713274973E+03 -0.11245005611E+03  0.32667157461E+03  0.15294330000E+03 0.  0.
    8880022    1    1    2    0    0 -0.97995170978E+02  0.24713274973E+03  0.50027321079E+03  0.58680711309E+03  0.15294330000E+03 0.  0.
<mgrwt>
<rscale>  0 0.30670719E+03</rscale>
<asrwt>0</asrwt>
<pdfrwt beam="1">  1        4 0.10010014E+00 0.30670719E+03</pdfrwt>
<pdfrwt beam="2">  1       -4 0.40435041E-01 0.30670719E+03</pdfrwt>
<totfact> 0.93054824E+00</totfact>
</mgrwt>
</event>
<event>
 4    1  0.8653772E-009  0.1808787E+03  0.7818608E-02  0.1166955E+00
         -4   -1    0    0    0  501 -0.00000000000E+00  0.00000000000E+00  0.79531516859E+02  0.79541656218E+02  0.12700000000E+01 0. -1.
          4   -1    0    0  501    0  0.00000000000E+00 -0.00000000000E+00 -0.59174371246E+03  0.59174507529E+03  0.12700000000E+01 0. -1.
    8880022    1    1    2    0    0  0.96550273193E+02  0.18650700899E+01 -0.44143167186E+03  0.47705241607E+03  0.15294330000E+03 0.  0.
    8880022    1    1    2    0    0 -0.96550273193E+02 -0.18650700899E+01 -0.70780523738E+02  0.19423431544E+03  0.15294330000E+03 0.  0.
<mgrwt>
<rscale>  0 0.18087865E+03</rscale>
<asrwt>0</asrwt>
<pdfrwt beam="1">  1        4 0.91038376E-01 0.18087865E+03</pdfrwt>
<pdfrwt beam="2">  1       -4 0.12236503E-01 0.18087865E+03</pdfrwt>
<totfact> 0.10000938E+02</totfact>
</mgrwt>
</event>
<event>
 4    1  0.8653772E-009  0.1680070E+03  0.7818608E-02  0.1179942E+00
         -4   -1    0    0    0  501 -0.00000000000E+00  0.00000000000E+00  0.64993938494E+03  0.64994062574E+03  0.12700000000E+01 0. -1.
          4   -1    0    0  501    0  0.00000000000E+00 -0.00000000000E+00 -0.61917050053E+02  0.61930073367E+02  0.12700000000E+01 0. -1.
    8880022    1    1    2    0    0 -0.25293863417E+02  0.64768278909E+02  0.48853520046E+03  0.51661688376E+03  0.15294330000E+03 0. -1.
    8880022    1    1    2    0    0  0.25293863417E+02 -0.64768278909E+02  0.99487134422E+02  0.19525381535E+03  0.15294330000E+03 0. -1.
<mgrwt>
<rscale>  0 0.16800703E+03</rscale>
<asrwt>0</asrwt>
<pdfrwt beam="1">  1        4 0.95267976E-02 0.16800703E+03</pdfrwt>
<pdfrwt beam="2">  1       -4 0.99991768E-01 0.16800703E+03</pdfrwt>
<totfact> 0.12218071E+02</totfact>
</mgrwt>
</event>
<event>
 4    1  0.8653772E-009  0.1779482E+03  0.7818608E-02  0.1169804E+00
         -4   -1    0    0    0  501 -0.00000000000E+00  0.00000000000E+00  0.33439276084E+03  0.33439517251E+03  0.12700000000E+01 0. -1.
          4   -1    0    0  501    0  0.00000000000E+00 -0.00000000000E+00 -0.95569386837E+02  0.95577824836E+02  0.12700000000E+01 0. -1.
    8880022    1    1    2    0    0 -0.22053635657E+02  0.88247069842E+02  0.14004824178E+03  0.22644882694E+03  0.15294330000E+03 0.  0.
    8880022    1    1    2    0    0  0.22053635657E+02 -0.88247069842E+02  0.98775132224E+02  0.20352417041E+03  0.15294330000E+03 0.  0.
<mgrwt>
<rscale>  0 0.17794820E+03</rscale>
<asrwt>0</asrwt>
<pdfrwt beam="1">  1        4 0.14703817E-01 0.17794820E+03</pdfrwt>
<pdfrwt beam="2">  1       -4 0.51445874E-01 0.17794820E+03</pdfrwt>
<totfact> 0.24931162E+02</totfact>
</mgrwt>
</event>
<event>
 4    1  0.8653772E-009  0.2236990E+03  0.7818608E-02  0.1131155E+00
         -4   -1    0    0    0  501 -0.00000000000E+00  0.00000000000E+00  0.68605341624E+03  0.68605459173E+03  0.12700000000E+01 0.  1.
          4   -1    0    0  501    0  0.00000000000E+00 -0.00000000000E+00 -0.88956272134E+02  0.88965337362E+02  0.12700000000E+01 0.  1.
    8880022    1    1    2    0    0  0.91075300858E+02 -0.13548009961E+03  0.13410003204E+03  0.26081418563E+03  0.15294330000E+03 0. -1.
    8880022    1    1    2    0    0 -0.91075300858E+02  0.13548009961E+03  0.46299711207E+03  0.51420574347E+03  0.15294330000E+03 0. -1.
<mgrwt>
<rscale>  0 0.22369895E+03</rscale>
<asrwt>0</asrwt>
<pdfrwt beam="1">  1        4 0.13686368E-01 0.22369895E+03</pdfrwt>
<pdfrwt beam="2">  1       -4 0.10554747E+00 0.22369895E+03</pdfrwt>
<totfact> 0.60007457E+01</totfact>
</mgrwt>
</event>
