<event>
 4    1  0.6602701E-002  0.8201126E+02  0.7546771E-02  0.1323439E+00
          2   -1    0    0  501    0  0.00000000000E+00  0.00000000000E+00  0.36266291056E+01  0.36266291056E+01  0.00000000000E+00 0. -1.
         -2   -1    0    0    0  501 -0.00000000000E+00 -0.00000000000E+00 -0.24102186274E+04  0.24102186274E+04  0.00000000000E+00 0.  1.
         24    1    1    2    0    0  0.11146252849E+02  0.11592746702E+02 -0.62380012499E+03  0.62916805594E+03  0.80419002446E+02 0.  0.
        -24    1    1    2    0    0 -0.11146252849E+02 -0.11592746702E+02 -0.17827918733E+04  0.17846772006E+04  0.80419002446E+02 0.  1.
<mgrwt>
<rscale>  0 0.82011259E+02</rscale>
<asrwt>0</asrwt>
<pdfrwt beam="1">  1        2 0.55794373E-03 0.82011259E+02</pdfrwt>
<pdfrwt beam="2">  1       -2 0.37080234E+00 0.82011259E+02</pdfrwt>
<totfact> 0.44121348E+02</totfact>
</mgrwt>
</event>
<event>
 4    1  0.6602701E-002  0.1460996E+03  0.7546771E-02  0.1205349E+00
         -2   -1    0    0    0  501 -0.00000000000E+00  0.00000000000E+00  0.41080321214E+02  0.41080321214E+02  0.00000000000E+00 0.  1.
          2   -1    0    0  501    0  0.00000000000E+00 -0.00000000000E+00 -0.69631103584E+03  0.69631103584E+03  0.00000000000E+00 0. -1.
         24    1    1    2    0    0  0.90746637661E+00  0.12197151158E+03 -0.51335542408E+03  0.53374046176E+03  0.80419002446E+02 0. -1.
        -24    1    1    2    0    0 -0.90746637661E+00 -0.12197151158E+03 -0.14187529054E+03  0.20365089529E+03  0.80419002446E+02 0.  1.
<mgrwt>
<rscale>  0 0.14609959E+03</rscale>
<asrwt>0</asrwt>
<pdfrwt beam="1">  1        2 0.10712477E+00 0.14609959E+03</pdfrwt>
<pdfrwt beam="2">  1       -2 0.63200498E-02 0.14609959E+03</pdfrwt>
<totfact> 0.55971461E+03</totfact>
</mgrwt>
</event>
<event>
 4    1  0.6963700E-002  0.8217965E+02  0.7546771E-02  0.1322977E+00
          1   -1    0    0  501    0  0.00000000000E+00  0.00000000000E+00  0.20056852158E+04  0.20056852158E+04  0.00000000000E+00 0. -1.
         -1   -1    0    0    0  501 -0.00000000000E+00 -0.00000000000E+00 -0.89922575889E+01  0.89922575889E+01  0.00000000000E+00 0.  1.
         24    1    1    2    0    0  0.13543417015E+02 -0.10141735843E+02  0.20162673013E+03  0.21773110298E+03  0.80419002446E+02 0.  0.
        -24    1    1    2    0    0 -0.13543417015E+02  0.10141735843E+02  0.17950662280E+04  0.17969463704E+04  0.80419002446E+02 0.  0.
<mgrwt>
<rscale>  0 0.82179650E+02</rscale>
<asrwt>0</asrwt>
<pdfrwt beam="1">  1        1 0.30856660E+00 0.82179650E+02</pdfrwt>
<pdfrwt beam="2">  1       -1 0.13834258E-02 0.82179650E+02</pdfrwt>
<totfact> 0.38582565E+03</totfact>
</mgrwt>
</event>
<event>
 4    1  0.6602701E-002  0.9576485E+02  0.7546771E-02  0.1289463E+00
          2   -1    0    0  501    0  0.00000000000E+00  0.00000000000E+00  0.51040996138E+02  0.51040996138E+02  0.00000000000E+00 0. -1.
         -2   -1    0    0    0  501 -0.00000000000E+00 -0.00000000000E+00 -0.29005699708E+03  0.29005699708E+03  0.00000000000E+00 0.  1.
         24    1    1    2    0    0 -0.47695329553E+02 -0.20708598433E+02 -0.14299176028E+02  0.96826509282E+02  0.80419002446E+02 0. -1.
        -24    1    1    2    0    0  0.47695329553E+02  0.20708598433E+02 -0.22471682491E+03  0.24427148393E+03  0.80419002446E+02 0.  1.
<mgrwt>
<rscale>  0 0.95764850E+02</rscale>
<asrwt>0</asrwt>
<pdfrwt beam="1">  1        2 0.78524611E-02 0.95764850E+02</pdfrwt>
<pdfrwt beam="2">  1       -2 0.44624152E-01 0.95764850E+02</pdfrwt>
<totfact> 0.38994543E+03</totfact>
</mgrwt>
</event>
<event>
 4    1  0.6602701E-002  0.9810611E+02  0.7546771E-02  0.1284330E+00
          1   -1    0    0  501    0  0.00000000000E+00  0.00000000000E+00  0.60584700719E+03  0.60584700719E+03  0.00000000000E+00 0. -1.
         -1   -1    0    0    0  501 -0.00000000000E+00 -0.00000000000E+00 -0.47538880052E+02  0.47538880052E+02  0.00000000000E+00 0.  1.
         24    1    1    2    0    0  0.32143133001E+02 -0.46091346148E+02  0.12579790955E+02  0.98909353873E+02  0.80419002446E+02 0.  1.
        -24    1    1    2    0    0 -0.32143133001E+02  0.46091346148E+02  0.54572833618E+03  0.55447653337E+03  0.80419002446E+02 0. -1.
<mgrwt>
<rscale>  0 0.98106112E+02</rscale>
<asrwt>0</asrwt>
<pdfrwt beam="1">  1        1 0.93207226E-01 0.98106112E+02</pdfrwt>
<pdfrwt beam="2">  1       -1 0.73136743E-02 0.98106112E+02</pdfrwt>
<totfact> 0.32953437E+03</totfact>
</mgrwt>
</event>
<event>
 4    1  0.6602701E-002  0.1242626E+03  0.7546771E-02  0.1236226E+00
         -2   -1    0    0    0  501 -0.00000000000E+00  0.00000000000E+00  0.26259307013E+02  0.26259307013E+02  0.00000000000E+00 0.  1.
          2   -1    0    0  501    0  0.00000000000E+00 -0.00000000000E+00 -0.14734296516E+04  0.14734296516E+04  0.00000000000E+00 0. -1.
         24    1    1    2    0    0  0.85790238656E+02  0.40174782342E+02 -0.13048536704E+04  0.13107571458E+04  0.80419002446E+02 0. -1.
        -24    1    1    2    0    0 -0.85790238656E+02 -0.40174782342E+02 -0.14231667422E+03  0.18893181283E+03  0.80419002446E+02 0.  1.
<mgrwt>
<rscale>  0 0.12426260E+03</rscale>
<asrwt>0</asrwt>
<pdfrwt beam="1">  1        2 0.22668145E+00 0.12426260E+03</pdfrwt>
<pdfrwt beam="2">  1       -2 0.40398940E-02 0.12426260E+03</pdfrwt>
<totfact> 0.37753897E+03</totfact>
</mgrwt>
</event>
<event>
 4    1  0.6602701E-002  0.8463288E+02  0.7546771E-02  0.1316395E+00
         -2   -1    0    0    0  501 -0.00000000000E+00  0.00000000000E+00  0.19913163885E+03  0.19913163885E+03  0.00000000000E+00 0.  1.
          2   -1    0    0  501    0  0.00000000000E+00 -0.00000000000E+00 -0.54269450402E+02  0.54269450402E+02  0.00000000000E+00 0. -1.
         24    1    1    2    0    0 -0.25857505691E+02  0.51863156407E+01 -0.11425408842E+01  0.84640592062E+02  0.80419002446E+02 0. -1.
        -24    1    1    2    0    0  0.25857505691E+02 -0.51863156407E+01  0.14600472933E+03  0.16876049719E+03  0.80419002446E+02 0.  1.
<mgrwt>
<rscale>  0 0.84632880E+02</rscale>
<asrwt>0</asrwt>
<pdfrwt beam="1">  1        2 0.83491463E-02 0.84632880E+02</pdfrwt>
<pdfrwt beam="2">  1       -2 0.30635636E-01 0.84632880E+02</pdfrwt>
<totfact> 0.71706126E+03</totfact>
</mgrwt>
</event>
<event>
 4    1  0.6602701E-002  0.9763676E+02  0.7546771E-02  0.1285345E+00
         -2   -1    0    0    0  501 -0.00000000000E+00  0.00000000000E+00  0.55724677510E+01  0.55724677510E+01  0.00000000000E+00 0.  1.
          2   -1    0    0  501    0  0.00000000000E+00 -0.00000000000E+00 -0.20677564895E+04  0.20677564895E+04  0.00000000000E+00 0. -1.
         24    1    1    2    0    0  0.32271235521E+02  0.44992096342E+02 -0.14618608154E+04  0.14651177362E+04  0.80419002446E+02 0.  1.
        -24    1    1    2    0    0 -0.32271235521E+02 -0.44992096342E+02 -0.60032320635E+03  0.60821122105E+03  0.80419002446E+02 0. -1.
<mgrwt>
<rscale>  0 0.97636762E+02</rscale>
<asrwt>0</asrwt>
<pdfrwt beam="1">  1        2 0.31811660E+00 0.97636762E+02</pdfrwt>
<pdfrwt beam="2">  1       -2 0.85730215E-03 0.97636762E+02</pdfrwt>
<totfact> 0.17498986E+04</totfact>
</mgrwt>
</event>
<event>
 4    1  0.6602701E-002  0.1247837E+03  0.7546771E-02  0.1235408E+00
         -3   -1    0    0    0  501 -0.00000000000E+00  0.00000000000E+00  0.20294128764E+03  0.20294128764E+03  0.00000000000E+00 0.  1.
          3   -1    0    0  501    0  0.00000000000E+00 -0.00000000000E+00 -0.83031016820E+02  0.83031016820E+02  0.00000000000E+00 0. -1.
         24    1    1    2    0    0  0.30451033251E+02 -0.90423864687E+02  0.20554541931E+02  0.12646519632E+03  0.80419002446E+02 0.  0.
        -24    1    1    2    0    0 -0.30451033251E+02  0.90423864687E+02  0.99355728891E+02  0.15950710815E+03  0.80419002446E+02 0. -1.
<mgrwt>
<rscale>  0 0.12478366E+03</rscale>
<asrwt>0</asrwt>
<pdfrwt beam="1">  1        3 0.12774003E-01 0.12478367E+03</pdfrwt>
<pdfrwt beam="2">  1       -3 0.31221736E-01 0.12478367E+03</pdfrwt>
<totfact> 0.11063734E+03</totfact>
</mgrwt>
</event>
<event>
 4    1  0.6602701E-002  0.1513135E+03  0.7546771E-02  0.1198868E+00
          2   -1    0    0  501    0  0.00000000000E+00  0.00000000000E+00  0.12129367121E+04  0.12129367121E+04  0.00000000000E+00 0. -1.
         -2   -1    0    0    0  501 -0.00000000000E+00 -0.00000000000E+00 -0.35526765469E+03  0.35526765469E+03  0.00000000000E+00 0.  1.
         24    1    1    2    0    0 -0.75868524304E+02 -0.10330793955E+03  0.11918216895E+04  0.12013886627E+04  0.80419002446E+02 0. -1.
        -24    1    1    2    0    0  0.75868524304E+02  0.10330793955E+03 -0.33415263204E+03  0.36681570414E+03  0.80419002446E+02 0.  1.
<mgrwt>
<rscale>  0 0.15131351E+03</rscale>
<asrwt>0</asrwt>
<pdfrwt beam="1">  1        2 0.18660565E+00 0.15131351E+03</pdfrwt>
<pdfrwt beam="2">  1       -2 0.54656563E-01 0.15131351E+03</pdfrwt>
<totfact> 0.66490978E+01</totfact>
</mgrwt>
</event>
<event>
 4    1  0.6602701E-002  0.1461719E+03  0.7546771E-02  0.1205257E+00
          2   -1    0    0  501    0  0.00000000000E+00  0.00000000000E+00  0.27831665883E+04  0.27831665883E+04  0.00000000000E+00 0. -1.
         -2   -1    0    0    0  501 -0.00000000000E+00 -0.00000000000E+00 -0.78086306428E+01  0.78086306428E+01  0.00000000000E+00 0.  1.
         24    1    1    2    0    0  0.10600196197E+03  0.60519422858E+02  0.15688957994E+04  0.15756904080E+04  0.80419002446E+02 0.  0.
        -24    1    1    2    0    0 -0.10600196197E+03 -0.60519422858E+02  0.12064621583E+04  0.12152848110E+04  0.80419002446E+02 0. -1.
<mgrwt>
<rscale>  0 0.14617193E+03</rscale>
<asrwt>0</asrwt>
<pdfrwt beam="1">  1        2 0.42817868E+00 0.14617193E+03</pdfrwt>
<pdfrwt beam="2">  1       -2 0.12013300E-02 0.14617193E+03</pdfrwt>
<totfact> 0.45730213E+03</totfact>
</mgrwt>
</event>
<event>
 4    1  0.6602701E-002  0.8714137E+02  0.7546771E-02  0.1309926E+00
          4   -1    0    0  501    0  0.00000000000E+00  0.00000000000E+00  0.55922927760E+02  0.55922927760E+02  0.00000000000E+00 0. -1.
         -4   -1    0    0    0  501 -0.00000000000E+00 -0.00000000000E+00 -0.13875882110E+03  0.13875882110E+03  0.00000000000E+00 0.  1.
         24    1    1    2    0    0  0.32645575965E+02  0.77890457249E+01 -0.27173017351E+02  0.91279744137E+02  0.80419002446E+02 0. -1.
        -24    1    1    2    0    0 -0.32645575965E+02 -0.77890457249E+01 -0.55662875993E+02  0.10340200473E+03  0.80419002446E+02 0.  0.
<mgrwt>
<rscale>  0 0.87141373E+02</rscale>
<asrwt>0</asrwt>
<pdfrwt beam="1">  1        4 0.86035274E-02 0.87141373E+02</pdfrwt>
<pdfrwt beam="2">  1       -4 0.21347511E-01 0.87141373E+02</pdfrwt>
<totfact> 0.28677827E+03</totfact>
</mgrwt>
</event>
<event>
 4    1  0.6602701E-002  0.1659749E+03  0.7546771E-02  0.1182112E+00
          2   -1    0    0  501    0  0.00000000000E+00  0.00000000000E+00  0.17441107822E+04  0.17441107822E+04  0.00000000000E+00 0. -1.
         -2   -1    0    0    0  501 -0.00000000000E+00 -0.00000000000E+00 -0.16850578722E+02  0.16850578722E+02  0.00000000000E+00 0.  1.
         24    1    1    2    0    0  0.89116006082E+02  0.11462455822E+03  0.64322380055E+03  0.66429249991E+03  0.80419002446E+02 0.  1.
        -24    1    1    2    0    0 -0.89116006082E+02 -0.11462455822E+03  0.10840364029E+04  0.10966688610E+04  0.80419002446E+02 0. -1.
<mgrwt>
<rscale>  0 0.16597492E+03</rscale>
<asrwt>0</asrwt>
<pdfrwt beam="1">  1        2 0.26832459E+00 0.16597494E+03</pdfrwt>
<pdfrwt beam="2">  1       -2 0.25923981E-02 0.16597494E+03</pdfrwt>
<totfact> 0.52931797E+03</totfact>
</mgrwt>
</event>
<event>
 4    1  0.6602701E-002  0.8482040E+02  0.7546771E-02  0.1315903E+00
         -1   -1    0    0    0  501 -0.00000000000E+00  0.00000000000E+00  0.23399278543E+02  0.23399278543E+02  0.00000000000E+00 0.  1.
          1   -1    0    0  501    0  0.00000000000E+00 -0.00000000000E+00 -0.35358872312E+03  0.35358872312E+03  0.00000000000E+00 0. -1.
         24    1    1    2    0    0  0.25299308829E+02  0.93396907252E+01 -0.97017452174E+02  0.12886771058E+03  0.80419002446E+02 0.  1.
        -24    1    1    2    0    0 -0.25299308829E+02 -0.93396907252E+01 -0.23317199240E+03  0.24812029108E+03  0.80419002446E+02 0. -1.
<mgrwt>
<rscale>  0 0.84820403E+02</rscale>
<asrwt>0</asrwt>
<pdfrwt beam="1">  1        1 0.54398264E-01 0.84820403E+02</pdfrwt>
<pdfrwt beam="2">  1       -1 0.35998891E-02 0.84820403E+02</pdfrwt>
<totfact> 0.18291046E+04</totfact>
</mgrwt>
</event>
<event>
 4    1  0.6602701E-002  0.1145378E+03  0.7546771E-02  0.1252390E+00
         -2   -1    0    0    0  501 -0.00000000000E+00  0.00000000000E+00  0.26908535906E+02  0.26908535906E+02  0.00000000000E+00 0.  1.
          2   -1    0    0  501    0  0.00000000000E+00 -0.00000000000E+00 -0.10031148815E+04  0.10031148815E+04  0.00000000000E+00 0. -1.
         24    1    1    2    0    0 -0.63857532986E+02 -0.50733776635E+02 -0.85732617833E+03  0.86494340428E+03  0.80419002446E+02 0. -1.
        -24    1    1    2    0    0  0.63857532986E+02  0.50733776635E+02 -0.11888016728E+03  0.16508001314E+03  0.80419002446E+02 0.  1.
<mgrwt>
<rscale>  0 0.11453784E+03</rscale>
<asrwt>0</asrwt>
<pdfrwt beam="1">  1        2 0.15432538E+00 0.11453784E+03</pdfrwt>
<pdfrwt beam="2">  1       -2 0.41397744E-02 0.11453784E+03</pdfrwt>
<totfact> 0.65741461E+03</totfact>
</mgrwt>
</event>
<event>
 4    1  0.1556081E-001  0.8565149E+02  0.7546771E-02  0.1313738E+00
         -1   -1    0    0    0  501 -0.00000000000E+00  0.00000000000E+00  0.33378731564E+03  0.33378731564E+03  0.00000000000E+00 0.  1.
          1   -1    0    0  501    0  0.00000000000E+00 -0.00000000000E+00 -0.32596882889E+03  0.32596882889E+03  0.00000000000E+00 0. -1.
         24    1    1    2    0    0 -0.28956844122E+02 -0.55193808894E+01  0.32247216308E+03  0.33365322463E+03  0.80419002446E+02 0.  1.
        -24    1    1    2    0    0  0.28956844122E+02  0.55193808894E+01 -0.31465367633E+03  0.32610291991E+03  0.80419002446E+02 0. -1.
<mgrwt>
<rscale>  0 0.85651494E+02</rscale>
<asrwt>0</asrwt>
<pdfrwt beam="1">  1        1 0.50149050E-01 0.85651494E+02</pdfrwt>
<pdfrwt beam="2">  1       -1 0.51351895E-01 0.85651494E+02</pdfrwt>
<totfact> 0.31556644E+02</totfact>
</mgrwt>
</event>
<event>
 4    1  0.6602701E-002  0.8268433E+02  0.7546771E-02  0.1321602E+00
         -1   -1    0    0    0  501 -0.00000000000E+00  0.00000000000E+00  0.93859939717E+02  0.93859939717E+02  0.00000000000E+00 0.  1.
          1   -1    0    0  501    0  0.00000000000E+00 -0.00000000000E+00 -0.31041640303E+03  0.31041640303E+03  0.00000000000E+00 0. -1.
         24    1    1    2    0    0  0.32908266958E+01  0.18938115987E+02  0.68560845483E+02  0.10741176502E+03  0.80419002446E+02 0.  1.
        -24    1    1    2    0    0 -0.32908266958E+01 -0.18938115987E+02 -0.28511730879E+03  0.29686457772E+03  0.80419002446E+02 0. -1.
<mgrwt>
<rscale>  0 0.82684326E+02</rscale>
<asrwt>0</asrwt>
<pdfrwt beam="1">  1        1 0.47756370E-01 0.82684326E+02</pdfrwt>
<pdfrwt beam="2">  1       -1 0.14439991E-01 0.82684326E+02</pdfrwt>
<totfact> 0.27188002E+03</totfact>
</mgrwt>
</event>
<event>
 4    1  0.6602701E-002  0.9139544E+02  0.7546771E-02  0.1299507E+00
         -2   -1    0    0    0  501 -0.00000000000E+00  0.00000000000E+00  0.23242264699E+02  0.23242264699E+02  0.00000000000E+00 0.  1.
          2   -1    0    0  501    0  0.00000000000E+00 -0.00000000000E+00 -0.54163012446E+03  0.54163012446E+03  0.00000000000E+00 0. -1.
         24    1    1    2    0    0  0.67423386504E+01 -0.42900474363E+02 -0.42302128576E+03  0.43278185497E+03  0.80419002446E+02 0.  1.
        -24    1    1    2    0    0 -0.67423386504E+01  0.42900474363E+02 -0.95366573998E+02  0.13209053419E+03  0.80419002446E+02 0.  0.
<mgrwt>
<rscale>  0 0.91395436E+02</rscale>
<asrwt>0</asrwt>
<pdfrwt beam="1">  1        2 0.83327715E-01 0.91395436E+02</pdfrwt>
<pdfrwt beam="2">  1       -2 0.35757329E-02 0.91395436E+02</pdfrwt>
<totfact> 0.16871324E+04</totfact>
</mgrwt>
</event>
<event>
 4    1  0.6602701E-002  0.8516909E+02  0.7546771E-02  0.1314991E+00
          2   -1    0    0  501    0  0.00000000000E+00  0.00000000000E+00  0.72000543890E+03  0.72000543890E+03  0.00000000000E+00 0. -1.
         -2   -1    0    0    0  501 -0.00000000000E+00 -0.00000000000E+00 -0.10252047916E+02  0.10252047916E+02  0.00000000000E+00 0.  1.
         24    1    1    2    0    0  0.23793721352E+02  0.14846425526E+02  0.40291246990E+03  0.41181577420E+03  0.80419002446E+02 0. -1.
        -24    1    1    2    0    0 -0.23793721352E+02 -0.14846425526E+02  0.30684092108E+03  0.31844171261E+03  0.80419002446E+02 0.  1.
<mgrwt>
<rscale>  0 0.85169088E+02</rscale>
<asrwt>0</asrwt>
<pdfrwt beam="1">  1        2 0.11077003E+00 0.85169088E+02</pdfrwt>
<pdfrwt beam="2">  1       -2 0.15772387E-02 0.85169088E+02</pdfrwt>
<totfact> 0.39543657E+04</totfact>
</mgrwt>
</event>
<event>
 4    1  0.7070124E-002  0.8831772E+02  0.7546771E-02  0.1306977E+00
         -3   -1    0    0    0  501 -0.00000000000E+00  0.00000000000E+00  0.13105146307E+03  0.13105146307E+03  0.00000000000E+00 0.  1.
          3   -1    0    0  501    0  0.00000000000E+00 -0.00000000000E+00 -0.33996612741E+03  0.33996612741E+03  0.00000000000E+00 0. -1.
         24    1    1    2    0    0 -0.30934906981E+02 -0.19386491764E+02  0.10944473962E+03  0.14063488727E+03  0.80419002446E+02 0.  1.
        -24    1    1    2    0    0  0.30934906981E+02  0.19386491764E+02 -0.31835940396E+03  0.33038270321E+03  0.80419002446E+02 0. -1.
<mgrwt>
<rscale>  0 0.88317725E+02</rscale>
<asrwt>0</asrwt>
<pdfrwt beam="1">  1        3 0.52302480E-01 0.88317725E+02</pdfrwt>
<pdfrwt beam="2">  1       -3 0.20161764E-01 0.88317725E+02</pdfrwt>
<totfact> 0.17835925E+02</totfact>
</mgrwt>
</event>
<event>
 4    1  0.6602701E-002  0.8478380E+02  0.7546771E-02  0.1315999E+00
          1   -1    0    0  501    0  0.00000000000E+00  0.00000000000E+00  0.36130187394E+03  0.36130187394E+03  0.00000000000E+00 0. -1.
         -1   -1    0    0    0  501 -0.00000000000E+00 -0.00000000000E+00 -0.19983217917E+02  0.19983217917E+02  0.00000000000E+00 0.  1.
         24    1    1    2    0    0 -0.66813048960E+01 -0.26008388479E+02  0.15803063394E+03  0.17933759596E+03  0.80419002446E+02 0. -1.
        -24    1    1    2    0    0  0.66813048960E+01  0.26008388479E+02  0.18328802208E+03  0.20194749589E+03  0.80419002446E+02 0.  0.
<mgrwt>
<rscale>  0 0.84783796E+02</rscale>
<asrwt>0</asrwt>
<pdfrwt beam="1">  1        1 0.55584899E-01 0.84783796E+02</pdfrwt>
<pdfrwt beam="2">  1       -1 0.30743415E-02 0.84783796E+02</pdfrwt>
<totfact> 0.22361638E+04</totfact>
</mgrwt>
</event>
<event>
 4    1  0.6602701E-002  0.1151193E+03  0.7546771E-02  0.1251373E+00
         -1   -1    0    0    0  501 -0.00000000000E+00  0.00000000000E+00  0.19180647786E+02  0.19180647786E+02  0.00000000000E+00 0.  1.
          1   -1    0    0  501    0  0.00000000000E+00 -0.00000000000E+00 -0.72225093895E+03  0.72225093895E+03  0.00000000000E+00 0. -1.
         24    1    1    2    0    0 -0.13719702201E+02  0.81221922564E+02 -0.27433321095E+03  0.29750824782E+03  0.80419002446E+02 0.  1.
        -24    1    1    2    0    0  0.13719702201E+02 -0.81221922564E+02 -0.42873708021E+03  0.44392333892E+03  0.80419002446E+02 0. -1.
<mgrwt>
<rscale>  0 0.11511927E+03</rscale>
<asrwt>0</asrwt>
<pdfrwt beam="1">  1        1 0.11111552E+00 0.11511927E+03</pdfrwt>
<pdfrwt beam="2">  1       -1 0.29508691E-02 0.11511927E+03</pdfrwt>
<totfact> 0.98640833E+03</totfact>
</mgrwt>
</event>
<event>
 4    1  0.6602701E-002  0.9387468E+02  0.7546771E-02  0.1293731E+00
          3   -1    0    0  501    0  0.00000000000E+00  0.00000000000E+00  0.71490349621E+02  0.71490349621E+02  0.00000000000E+00 0. -1.
         -3   -1    0    0    0  501 -0.00000000000E+00 -0.00000000000E+00 -0.34619806832E+03  0.34619806832E+03  0.00000000000E+00 0.  1.
         24    1    1    2    0    0 -0.35045465948E+02  0.33422372902E+02 -0.30494253543E+03  0.31906489240E+03  0.80419002446E+02 0.  1.
        -24    1    1    2    0    0  0.35045465948E+02 -0.33422372902E+02  0.30234816728E+02  0.98623525544E+02  0.80419002446E+02 0. -1.
<mgrwt>
<rscale>  0 0.93874681E+02</rscale>
<asrwt>0</asrwt>
<pdfrwt beam="1">  1        3 0.10998515E-01 0.93874681E+02</pdfrwt>
<pdfrwt beam="2">  1       -3 0.53261241E-01 0.93874681E+02</pdfrwt>
<totfact> 0.48463354E+02</totfact>
</mgrwt>
</event>
<event>
 4    1  0.6602701E-002  0.1035956E+03  0.7546771E-02  0.1272912E+00
          3   -1    0    0  501    0  0.00000000000E+00  0.00000000000E+00  0.28058370266E+02  0.28058370266E+02  0.00000000000E+00 0. -1.
         -3   -1    0    0    0  501 -0.00000000000E+00 -0.00000000000E+00 -0.38251020297E+03  0.38251020297E+03  0.00000000000E+00 0.  1.
         24    1    1    2    0    0 -0.16515707657E+02 -0.63182815687E+02 -0.17870896845E+03  0.20656463433E+03  0.80419002446E+02 0.  1.
        -24    1    1    2    0    0  0.16515707657E+02  0.63182815687E+02 -0.17574286425E+03  0.20400393890E+03  0.80419002446E+02 0.  0.
<mgrwt>
<rscale>  0 0.10359562E+03</rscale>
<asrwt>0</asrwt>
<pdfrwt beam="1">  1        3 0.43166728E-02 0.10359562E+03</pdfrwt>
<pdfrwt beam="2">  1       -3 0.58847718E-01 0.10359562E+03</pdfrwt>
<totfact> 0.18027627E+03</totfact>
</mgrwt>
</event>
<event>
 4    1  0.6602701E-002  0.8607541E+02  0.7546771E-02  0.1312644E+00
          2   -1    0    0  501    0  0.00000000000E+00  0.00000000000E+00  0.44551003763E+03  0.44551003763E+03  0.00000000000E+00 0. -1.
         -2   -1    0    0    0  501 -0.00000000000E+00 -0.00000000000E+00 -0.16634838985E+02  0.16634838985E+02  0.00000000000E+00 0.  1.
         24    1    1    2    0    0  0.26318068756E+02  0.15783524502E+02  0.21824439187E+03  0.23460518094E+03  0.80419002446E+02 0.  1.
        -24    1    1    2    0    0 -0.26318068756E+02 -0.15783524502E+02  0.21063080678E+03  0.22753969568E+03  0.80419002446E+02 0. -1.
<mgrwt>
<rscale>  0 0.86075411E+02</rscale>
<asrwt>0</asrwt>
<pdfrwt beam="1">  1        2 0.68539997E-01 0.86075411E+02</pdfrwt>
<pdfrwt beam="2">  1       -2 0.25592063E-02 0.86075411E+02</pdfrwt>
<totfact> 0.33647193E+04</totfact>
</mgrwt>
</event>
<event>
 4    1  0.6602701E-002  0.8194898E+02  0.7546771E-02  0.1323610E+00
          1   -1    0    0  501    0  0.00000000000E+00  0.00000000000E+00  0.18724583560E+02  0.18724583560E+02  0.00000000000E+00 0. -1.
         -1   -1    0    0    0  501 -0.00000000000E+00 -0.00000000000E+00 -0.60923801837E+03  0.60923801837E+03  0.00000000000E+00 0.  1.
         24    1    1    2    0    0  0.14137098834E+02 -0.69686197992E+01 -0.49662335034E+03  0.50333923678E+03  0.80419002446E+02 0.  1.
        -24    1    1    2    0    0 -0.14137098834E+02  0.69686197992E+01 -0.93890084474E+02  0.12462336515E+03  0.80419002446E+02 0. -1.
<mgrwt>
<rscale>  0 0.81948979E+02</rscale>
<asrwt>0</asrwt>
<pdfrwt beam="1">  1        1 0.28807056E-02 0.81948979E+02</pdfrwt>
<pdfrwt beam="2">  1       -1 0.93728911E-01 0.81948979E+02</pdfrwt>
<totfact> 0.38768303E+03</totfact>
</mgrwt>
</event>
<event>
 4    1  0.6602701E-002  0.8681378E+02  0.7546771E-02  0.1310756E+00
          2   -1    0    0  501    0  0.00000000000E+00  0.00000000000E+00  0.97925706010E+02  0.97925706010E+02  0.00000000000E+00 0. -1.
         -2   -1    0    0    0  501 -0.00000000000E+00 -0.00000000000E+00 -0.79205805575E+02  0.79205805575E+02  0.00000000000E+00 0.  1.
         24    1    1    2    0    0 -0.26597840292E+02  0.19025457818E+02 -0.55442898122E+01  0.86990621663E+02  0.80419002446E+02 0.  1.
        -24    1    1    2    0    0  0.26597840292E+02 -0.19025457818E+02  0.24264190247E+02  0.90140889923E+02  0.80419002446E+02 0.  1.
<mgrwt>
<rscale>  0 0.86813772E+02</rscale>
<asrwt>0</asrwt>
<pdfrwt beam="1">  1        2 0.15065493E-01 0.86813783E+02</pdfrwt>
<pdfrwt beam="2">  1       -2 0.12185509E-01 0.86813783E+02</pdfrwt>
<totfact> 0.16592684E+04</totfact>
</mgrwt>
</event>
<event>
 4    1  0.6602701E-002  0.8237287E+02  0.7546771E-02  0.1322449E+00
          2   -1    0    0  501    0  0.00000000000E+00  0.00000000000E+00  0.35852953280E+03  0.35852953280E+03  0.00000000000E+00 0. -1.
         -2   -1    0    0    0  501 -0.00000000000E+00 -0.00000000000E+00 -0.71900421384E+02  0.71900421384E+02  0.00000000000E+00 0.  1.
         24    1    1    2    0    0  0.17108556025E+02  0.50368978385E+01  0.32804677134E+03  0.33823065085E+03  0.80419002446E+02 0. -1.
        -24    1    1    2    0    0 -0.17108556025E+02 -0.50368978385E+01 -0.41417659922E+02  0.92199303343E+02  0.80419002446E+02 0.  1.
<mgrwt>
<rscale>  0 0.82372866E+02</rscale>
<asrwt>0</asrwt>
<pdfrwt beam="1">  1        2 0.55158389E-01 0.82372866E+02</pdfrwt>
<pdfrwt beam="2">  1       -2 0.11061603E-01 0.82372866E+02</pdfrwt>
<totfact> 0.47340785E+03</totfact>
</mgrwt>
</event>
<event>
 4    1  0.6602701E-002  0.1004168E+03  0.7546771E-02  0.1279422E+00
         -2   -1    0    0    0  501 -0.00000000000E+00  0.00000000000E+00  0.11303067168E+03  0.11303067168E+03  0.00000000000E+00 0.  1.
          2   -1    0    0  501    0  0.00000000000E+00 -0.00000000000E+00 -0.19617261938E+03  0.19617261938E+03  0.00000000000E+00 0. -1.
         24    1    1    2    0    0 -0.42814254928E+02  0.42228680432E+02 -0.15572983964E+03  0.18529792440E+03  0.80419002446E+02 0. -1.
        -24    1    1    2    0    0  0.42814254928E+02 -0.42228680432E+02  0.72587891950E+02  0.12390536666E+03  0.80419002446E+02 0.  1.
<mgrwt>
<rscale>  0 0.10041682E+03</rscale>
<asrwt>0</asrwt>
<pdfrwt beam="1">  1        2 0.30180403E-01 0.10041682E+03</pdfrwt>
<pdfrwt beam="2">  1       -2 0.17389334E-01 0.10041682E+03</pdfrwt>
<totfact> 0.43747863E+03</totfact>
</mgrwt>
</event>
<event>
 4    1  0.6602701E-002  0.1337385E+03  0.7546771E-02  0.1222012E+00
         -1   -1    0    0    0  501 -0.00000000000E+00  0.00000000000E+00  0.14213610208E+03  0.14213610208E+03  0.00000000000E+00 0.  1.
          1   -1    0    0  501    0  0.00000000000E+00 -0.00000000000E+00 -0.22067918498E+03  0.22067918498E+03  0.00000000000E+00 0. -1.
         24    1    1    2    0    0 -0.37478020964E+02  0.10007078601E+03  0.79654148299E+02  0.15566233830E+03  0.80419002446E+02 0.  1.
        -24    1    1    2    0    0  0.37478020964E+02 -0.10007078601E+03 -0.15819723120E+03  0.20715294877E+03  0.80419002446E+02 0. -1.
<mgrwt>
<rscale>  0 0.13373848E+03</rscale>
<asrwt>0</asrwt>
<pdfrwt beam="1">  1        1 0.33950644E-01 0.13373848E+03</pdfrwt>
<pdfrwt beam="2">  1       -1 0.21867093E-01 0.13373848E+03</pdfrwt>
<totfact> 0.21935517E+03</totfact>
</mgrwt>
</event>
<event>
 4    1  0.6602701E-002  0.1256687E+03  0.7546771E-02  0.1234028E+00
          2   -1    0    0  501    0  0.00000000000E+00  0.00000000000E+00  0.81886716637E+03  0.81886716637E+03  0.00000000000E+00 0. -1.
         -2   -1    0    0    0  501 -0.00000000000E+00 -0.00000000000E+00 -0.32368160378E+02  0.32368160378E+02  0.00000000000E+00 0.  1.
         24    1    1    2    0    0 -0.20587510021E+02  0.94348034721E+02  0.66383316167E+03  0.67562347481E+03  0.80419002446E+02 0. -1.
        -24    1    1    2    0    0  0.20587510021E+02 -0.94348034721E+02  0.12266584432E+03  0.17561185194E+03  0.80419002446E+02 0.  1.
<mgrwt>
<rscale>  0 0.12566866E+03</rscale>
<asrwt>0</asrwt>
<pdfrwt beam="1">  1        2 0.12597955E+00 0.12566866E+03</pdfrwt>
<pdfrwt beam="2">  1       -2 0.49797176E-02 0.12566866E+03</pdfrwt>
<totfact> 0.65367210E+03</totfact>
</mgrwt>
</event>
<event>
 4    1  0.6602701E-002  0.1060473E+03  0.7546771E-02  0.1268070E+00
          1   -1    0    0  501    0  0.00000000000E+00  0.00000000000E+00  0.10523260324E+04  0.10523260324E+04  0.00000000000E+00 0. -1.
         -1   -1    0    0    0  501 -0.00000000000E+00 -0.00000000000E+00 -0.13864632784E+02  0.13864632784E+02  0.00000000000E+00 0.  1.
         24    1    1    2    0    0  0.52338721096E+02  0.45160546962E+02  0.26401114149E+03  0.28451347158E+03  0.80419002446E+02 0.  1.
        -24    1    1    2    0    0 -0.52338721096E+02 -0.45160546962E+02  0.77445025816E+03  0.78167719363E+03  0.80419002446E+02 0.  0.
<mgrwt>
<rscale>  0 0.10604731E+03</rscale>
<asrwt>0</asrwt>
<pdfrwt beam="1">  1        1 0.16189625E+00 0.10604731E+03</pdfrwt>
<pdfrwt beam="2">  1       -1 0.21330213E-02 0.10604731E+03</pdfrwt>
<totfact> 0.87023831E+03</totfact>
</mgrwt>
</event>
<event>
 4    1  0.6602701E-002  0.1015638E+03  0.7546771E-02  0.1277041E+00
          2   -1    0    0  501    0  0.00000000000E+00  0.00000000000E+00  0.26417085485E+03  0.26417085485E+03  0.00000000000E+00 0. -1.
         -2   -1    0    0    0  501 -0.00000000000E+00 -0.00000000000E+00 -0.60819872278E+02  0.60819872278E+02  0.00000000000E+00 0.  1.
         24    1    1    2    0    0 -0.61389868293E+02 -0.89040139644E+01  0.19889894089E+03  0.22332935776E+03  0.80419002446E+02 0. -1.
        -24    1    1    2    0    0  0.61389868293E+02  0.89040139644E+01  0.44520416834E+01  0.10166136938E+03  0.80419002446E+02 0.  1.
<mgrwt>
<rscale>  0 0.10156384E+03</rscale>
<asrwt>0</asrwt>
<pdfrwt beam="1">  1        2 0.40641669E-01 0.10156384E+03</pdfrwt>
<pdfrwt beam="2">  1       -2 0.93569036E-02 0.10156384E+03</pdfrwt>
<totfact> 0.85875973E+03</totfact>
</mgrwt>
</event>
<event>
 4    1  0.6602701E-002  0.8320971E+02  0.7546771E-02  0.1320182E+00
          2   -1    0    0  501    0  0.00000000000E+00  0.00000000000E+00  0.13835891288E+04  0.13835891288E+04  0.00000000000E+00 0. -1.
         -2   -1    0    0    0  501 -0.00000000000E+00 -0.00000000000E+00 -0.67016501776E+01  0.67016501776E+01  0.00000000000E+00 0.  1.
         24    1    1    2    0    0 -0.19329986237E+02  0.91099880480E+01  0.10382874646E+04  0.10416163955E+04  0.80419002446E+02 0. -1.
        -24    1    1    2    0    0  0.19329986237E+02 -0.91099880480E+01  0.33860001396E+03  0.34867438343E+03  0.80419002446E+02 0.  1.
<mgrwt>
<rscale>  0 0.83209712E+02</rscale>
<asrwt>0</asrwt>
<pdfrwt beam="1">  1        2 0.21285964E+00 0.83209712E+02</pdfrwt>
<pdfrwt beam="2">  1       -2 0.10310242E-02 0.83209712E+02</pdfrwt>
<totfact> 0.29548368E+04</totfact>
</mgrwt>
</event>
<event>
 4    1  0.6602701E-002  0.8647267E+02  0.7546771E-02  0.1311626E+00
          2   -1    0    0  501    0  0.00000000000E+00  0.00000000000E+00  0.16791096110E+03  0.16791096110E+03  0.00000000000E+00 0. -1.
         -2   -1    0    0    0  501 -0.00000000000E+00 -0.00000000000E+00 -0.73149226107E+02  0.73149226107E+02  0.00000000000E+00 0.  1.
         24    1    1    2    0    0  0.24949728310E+02  0.19693078906E+02  0.12276837107E+03  0.15016522630E+03  0.80419002446E+02 0. -1.
        -24    1    1    2    0    0 -0.24949728310E+02 -0.19693078906E+02 -0.28006636079E+02  0.90894960907E+02  0.80419002446E+02 0.  1.
<mgrwt>
<rscale>  0 0.86472668E+02</rscale>
<asrwt>0</asrwt>
<pdfrwt beam="1">  1        2 0.25832456E-01 0.86472668E+02</pdfrwt>
<pdfrwt beam="2">  1       -2 0.11253727E-01 0.86472668E+02</pdfrwt>
<totfact> 0.10290134E+04</totfact>
</mgrwt>
</event>
<event>
 4    1  0.6602701E-002  0.9227039E+02  0.7546771E-02  0.1297445E+00
         -4   -1    0    0    0  501 -0.00000000000E+00  0.00000000000E+00  0.12388930193E+04  0.12388930193E+04  0.00000000000E+00 0.  1.
          4   -1    0    0  501    0  0.00000000000E+00 -0.00000000000E+00 -0.92852127912E+01  0.92852127912E+01  0.00000000000E+00 0. -1.
         24    1    1    2    0    0 -0.29474139934E+01 -0.45143348854E+02  0.29664987680E+03  0.31066859280E+03  0.80419002446E+02 0. -1.
        -24    1    1    2    0    0  0.29474139934E+01  0.45143348854E+02  0.93295792969E+03  0.93750963927E+03  0.80419002446E+02 0.  1.
<mgrwt>
<rscale>  0 0.92270392E+02</rscale>
<asrwt>0</asrwt>
<pdfrwt beam="1">  1        4 0.14284953E-02 0.92270392E+02</pdfrwt>
<pdfrwt beam="2">  1       -4 0.19059880E+00 0.92270392E+02</pdfrwt>
<totfact> 0.44271115E+02</totfact>
</mgrwt>
</event>
<event>
 4    1  0.6602701E-002  0.1057186E+03  0.7546771E-02  0.1268710E+00
         -2   -1    0    0    0  501 -0.00000000000E+00  0.00000000000E+00  0.77650763586E+01  0.77650763586E+01  0.00000000000E+00 0.  1.
          2   -1    0    0  501    0  0.00000000000E+00 -0.00000000000E+00 -0.18737504653E+04  0.18737504653E+04  0.00000000000E+00 0. -1.
         24    1    1    2    0    0  0.65579703223E+02 -0.20211442937E+02 -0.13859768022E+04  0.13900029181E+04  0.80419002446E+02 0. -1.
        -24    1    1    2    0    0 -0.65579703223E+02  0.20211442937E+02 -0.48000858672E+03  0.49151262362E+03  0.80419002446E+02 0.  1.
<mgrwt>
<rscale>  0 0.10571857E+03</rscale>
<asrwt>0</asrwt>
<pdfrwt beam="1">  1        2 0.28826922E+00 0.10571857E+03</pdfrwt>
<pdfrwt beam="2">  1       -2 0.11946275E-02 0.10571857E+03</pdfrwt>
<totfact> 0.13742693E+04</totfact>
</mgrwt>
</event>
<event>
 4    1  0.6602701E-002  0.1071682E+03  0.7546771E-02  0.1265906E+00
          1   -1    0    0  501    0  0.00000000000E+00  0.00000000000E+00  0.16937619527E+03  0.16937619527E+03  0.00000000000E+00 0. -1.
         -1   -1    0    0    0  501 -0.00000000000E+00 -0.00000000000E+00 -0.68343815849E+02  0.68343815849E+02  0.00000000000E+00 0.  1.
         24    1    1    2    0    0  0.58932085905E+02 -0.39304129653E+02  0.39989569091E+02  0.11438613092E+03  0.80419002446E+02 0.  1.
        -24    1    1    2    0    0 -0.58932085905E+02  0.39304129653E+02  0.61042810329E+02  0.12333388020E+03  0.80419002446E+02 0.  0.
<mgrwt>
<rscale>  0 0.10716819E+03</rscale>
<asrwt>0</asrwt>
<pdfrwt beam="1">  1        1 0.26057876E-01 0.10716819E+03</pdfrwt>
<pdfrwt beam="2">  1       -1 0.10514433E-01 0.10716819E+03</pdfrwt>
<totfact> 0.94520417E+03</totfact>
</mgrwt>
</event>
<event>
 4    1  0.6602701E-002  0.1874850E+03  0.7546771E-02  0.1160749E+00
          1   -1    0    0  501    0  0.00000000000E+00  0.00000000000E+00  0.39488054079E+03  0.39488054079E+03  0.00000000000E+00 0. -1.
         -1   -1    0    0    0  501 -0.00000000000E+00 -0.00000000000E+00 -0.95925132399E+02  0.95925132399E+02  0.00000000000E+00 0.  1.
         24    1    1    2    0    0  0.16567247102E+03 -0.35157567766E+02  0.83616607880E+02  0.20528608159E+03  0.80419002446E+02 0.  1.
        -24    1    1    2    0    0 -0.16567247102E+03  0.35157567766E+02  0.21533880051E+03  0.28551959160E+03  0.80419002446E+02 0. -1.
<mgrwt>
<rscale>  0 0.18748503E+03</rscale>
<asrwt>0</asrwt>
<pdfrwt beam="1">  1        1 0.60750851E-01 0.18748503E+03</pdfrwt>
<pdfrwt beam="2">  1       -1 0.14757713E-01 0.18748503E+03</pdfrwt>
<totfact> 0.20105945E+03</totfact>
</mgrwt>
</event>
<event>
 4    1  0.6602701E-002  0.8688350E+02  0.7546771E-02  0.1310579E+00
          2   -1    0    0  501    0  0.00000000000E+00  0.00000000000E+00  0.19990427473E+03  0.19990427473E+03  0.00000000000E+00 0. -1.
         -2   -1    0    0    0  501 -0.00000000000E+00 -0.00000000000E+00 -0.82433253333E+02  0.82433253333E+02  0.00000000000E+00 0.  1.
         24    1    1    2    0    0  0.27258565642E+02  0.18398312402E+02  0.16265631076E+03  0.18440666659E+03  0.80419002446E+02 0. -1.
        -24    1    1    2    0    0 -0.27258565642E+02 -0.18398312402E+02 -0.45185289358E+02  0.97930861473E+02  0.80419002446E+02 0.  1.
<mgrwt>
<rscale>  0 0.86883504E+02</rscale>
<asrwt>0</asrwt>
<pdfrwt beam="1">  1        2 0.30754504E-01 0.86883504E+02</pdfrwt>
<pdfrwt beam="2">  1       -2 0.12682039E-01 0.86883504E+02</pdfrwt>
<totfact> 0.70691926E+03</totfact>
</mgrwt>
</event>
<event>
 4    1  0.6602701E-002  0.1445907E+03  0.7546771E-02  0.1207282E+00
          2   -1    0    0  501    0  0.00000000000E+00  0.00000000000E+00  0.14770505123E+04  0.14770505123E+04  0.00000000000E+00 0. -1.
         -2   -1    0    0    0  501 -0.00000000000E+00 -0.00000000000E+00 -0.34197933570E+02  0.34197933570E+02  0.00000000000E+00 0.  1.
         24    1    1    2    0    0 -0.57716985004E+02 -0.10539454265E+03  0.12999154083E+04  0.13079321637E+04  0.80419002446E+02 0. -1.
        -24    1    1    2    0    0  0.57716985004E+02  0.10539454265E+03  0.14293717044E+03  0.20331628224E+03  0.80419002446E+02 0.  1.
<mgrwt>
<rscale>  0 0.14459072E+03</rscale>
<asrwt>0</asrwt>
<pdfrwt beam="1">  1        2 0.22723849E+00 0.14459072E+03</pdfrwt>
<pdfrwt beam="2">  1       -2 0.52612217E-02 0.14459072E+03</pdfrwt>
<totfact> 0.25376164E+03</totfact>
</mgrwt>
</event>
<event>
 4    1  0.6602701E-002  0.1162401E+03  0.7546771E-02  0.1249432E+00
         -1   -1    0    0    0  501 -0.00000000000E+00  0.00000000000E+00  0.20033616382E+04  0.20033616382E+04  0.00000000000E+00 0.  1.
          1   -1    0    0  501    0  0.00000000000E+00 -0.00000000000E+00 -0.69523074656E+01  0.69523074656E+01  0.00000000000E+00 0. -1.
         24    1    1    2    0    0  0.27562350017E+02  0.79277091821E+02  0.82444208500E+03  0.83259624542E+03  0.80419002446E+02 0. -1.
        -24    1    1    2    0    0 -0.27562350017E+02 -0.79277091821E+02  0.11719672458E+04  0.11777177003E+04  0.80419002446E+02 0.  1.
<mgrwt>
<rscale>  0 0.11624010E+03</rscale>
<asrwt>0</asrwt>
<pdfrwt beam="1">  1        1 0.10695874E-02 0.11624011E+03</pdfrwt>
<pdfrwt beam="2">  1       -1 0.30820902E+00 0.11624011E+03</pdfrwt>
<totfact> 0.50057288E+02</totfact>
</mgrwt>
</event>
<event>
 4    1  0.6602701E-002  0.8119902E+02  0.7546771E-02  0.1325683E+00
          2   -1    0    0  501    0  0.00000000000E+00  0.00000000000E+00  0.18799451282E+04  0.18799451282E+04  0.00000000000E+00 0. -1.
         -2   -1    0    0    0  501 -0.00000000000E+00 -0.00000000000E+00 -0.56422926036E+01  0.56422926036E+01  0.00000000000E+00 0.  1.
         24    1    1    2    0    0 -0.20058534282E+01 -0.11047265303E+02  0.15171148226E+04  0.15192862359E+04  0.80419002446E+02 0. -1.
        -24    1    1    2    0    0  0.20058534282E+01  0.11047265303E+02  0.35718801292E+03  0.36630118488E+03  0.80419002446E+02 0.  1.
<mgrwt>
<rscale>  0 0.81199024E+02</rscale>
<asrwt>0</asrwt>
<pdfrwt beam="1">  1        2 0.28922183E+00 0.81199024E+02</pdfrwt>
<pdfrwt beam="2">  1       -2 0.86804652E-03 0.81199024E+02</pdfrwt>
<totfact> 0.21127908E+04</totfact>
</mgrwt>
</event>
<event>
 4    1  0.6602701E-002  0.8324894E+02  0.7546771E-02  0.1320076E+00
         -1   -1    0    0    0  501 -0.00000000000E+00  0.00000000000E+00  0.65201493826E+01  0.65201493826E+01  0.00000000000E+00 0.  1.
          1   -1    0    0  501    0  0.00000000000E+00 -0.00000000000E+00 -0.21011054281E+04  0.21011054281E+04  0.00000000000E+00 0. -1.
         24    1    1    2    0    0 -0.13126885657E+02 -0.17054464075E+02 -0.30653289854E+03  0.31763627582E+03  0.80419002446E+02 0.  1.
        -24    1    1    2    0    0  0.13126885657E+02  0.17054464075E+02 -0.17880523802E+04  0.17899893017E+04  0.80419002446E+02 0. -1.
<mgrwt>
<rscale>  0 0.83248939E+02</rscale>
<asrwt>0</asrwt>
<pdfrwt beam="1">  1        1 0.32324689E+00 0.83248939E+02</pdfrwt>
<pdfrwt beam="2">  1       -1 0.10031002E-02 0.83248939E+02</pdfrwt>
<totfact> 0.52935120E+03</totfact>
</mgrwt>
</event>
<event>
 4    1  0.6602701E-002  0.1261951E+03  0.7546771E-02  0.1233213E+00
         -2   -1    0    0    0  501 -0.00000000000E+00  0.00000000000E+00  0.22991473562E+02  0.22991473562E+02  0.00000000000E+00 0.  1.
          2   -1    0    0  501    0  0.00000000000E+00 -0.00000000000E+00 -0.29445548678E+04  0.29445548678E+04  0.00000000000E+00 0. -1.
         24    1    1    2    0    0 -0.79113895143E+02 -0.56559625888E+02 -0.27583552616E+04  0.27612404757E+04  0.80419002446E+02 0. -1.
        -24    1    1    2    0    0  0.79113895143E+02  0.56559625888E+02 -0.16320813271E+03  0.20630586570E+03  0.80419002446E+02 0.  1.
<mgrwt>
<rscale>  0 0.12619515E+03</rscale>
<asrwt>0</asrwt>
<pdfrwt beam="1">  1        2 0.45300807E+00 0.12619515E+03</pdfrwt>
<pdfrwt beam="2">  1       -2 0.35371526E-02 0.12619515E+03</pdfrwt>
<totfact> 0.77418817E+02</totfact>
</mgrwt>
</event>
<event>
 4    1  0.6602701E-002  0.8363494E+02  0.7546771E-02  0.1319041E+00
         -2   -1    0    0    0  501 -0.00000000000E+00  0.00000000000E+00  0.11042210700E+02  0.11042210700E+02  0.00000000000E+00 0.  1.
          2   -1    0    0  501    0  0.00000000000E+00 -0.00000000000E+00 -0.97719255893E+03  0.97719255893E+03  0.00000000000E+00 0. -1.
         24    1    1    2    0    0 -0.18918832959E+02 -0.13025571935E+02 -0.77613083311E+03  0.78062402847E+03  0.80419002446E+02 0.  0.
        -24    1    1    2    0    0  0.18918832959E+02  0.13025571935E+02 -0.19001951511E+03  0.20761074116E+03  0.80419002446E+02 0.  1.
<mgrwt>
<rscale>  0 0.83634943E+02</rscale>
<asrwt>0</asrwt>
<pdfrwt beam="1">  1        2 0.15033726E+00 0.83634943E+02</pdfrwt>
<pdfrwt beam="2">  1       -2 0.16988023E-02 0.83634943E+02</pdfrwt>
<totfact> 0.24281233E+04</totfact>
</mgrwt>
</event>
<event>
 4    1  0.6602701E-002  0.1390690E+03  0.7546771E-02  0.1214587E+00
         -1   -1    0    0    0  501 -0.00000000000E+00  0.00000000000E+00  0.63435411687E+03  0.63435411687E+03  0.00000000000E+00 0.  1.
          1   -1    0    0  501    0  0.00000000000E+00 -0.00000000000E+00 -0.42553910201E+02  0.42553910201E+02  0.00000000000E+00 0. -1.
         24    1    1    2    0    0  0.11345728809E+03  0.65360306241E+00  0.47612287432E+03  0.49601732916E+03  0.80419002446E+02 0.  1.
        -24    1    1    2    0    0 -0.11345728809E+03 -0.65360306241E+00  0.11567733235E+03  0.18089069791E+03  0.80419002446E+02 0. -1.
<mgrwt>
<rscale>  0 0.13906905E+03</rscale>
<asrwt>0</asrwt>
<pdfrwt beam="1">  1        1 0.65467559E-02 0.13906905E+03</pdfrwt>
<pdfrwt beam="2">  1       -1 0.97592934E-01 0.13906905E+03</pdfrwt>
<totfact> 0.11963450E+03</totfact>
</mgrwt>
</event>
<event>
 4    1  0.6602701E-002  0.8539962E+02  0.7546771E-02  0.1314391E+00
          2   -1    0    0  501    0  0.00000000000E+00  0.00000000000E+00  0.31898638332E+04  0.31898638332E+04  0.00000000000E+00 0. -1.
         -2   -1    0    0    0  501 -0.00000000000E+00 -0.00000000000E+00 -0.30095088308E+01  0.30095088308E+01  0.00000000000E+00 0.  1.
         24    1    1    2    0    0  0.13016024281E+02 -0.25621512281E+02  0.23760012783E+04  0.23775355243E+04  0.80419002446E+02 0.  0.
        -24    1    1    2    0    0 -0.13016024281E+02  0.25621512281E+02  0.81085304611E+03  0.81533781779E+03  0.80419002446E+02 0.  0.
<mgrwt>
<rscale>  0 0.85399618E+02</rscale>
<asrwt>0</asrwt>
<pdfrwt beam="1">  1        2 0.49074558E+00 0.85399618E+02</pdfrwt>
<pdfrwt beam="2">  1       -2 0.46300391E-03 0.85399618E+02</pdfrwt>
<totfact> 0.10286439E+04</totfact>
</mgrwt>
</event>
<event>
 4    1  0.6602701E-002  0.9981646E+02  0.7546771E-02  0.1280682E+00
         -3   -1    0    0    0  501 -0.00000000000E+00  0.00000000000E+00  0.11795156664E+03  0.11795156664E+03  0.00000000000E+00 0.  1.
          3   -1    0    0  501    0  0.00000000000E+00 -0.00000000000E+00 -0.10371680799E+03  0.10371680799E+03  0.00000000000E+00 0. -1.
         24    1    1    2    0    0  0.44768191110E+02  0.38625356996E+02  0.54862908458E+02  0.11390023625E+03  0.80419002446E+02 0.  1.
        -24    1    1    2    0    0 -0.44768191110E+02 -0.38625356996E+02 -0.40628149812E+02  0.10776813838E+03  0.80419002446E+02 0. -1.
<mgrwt>
<rscale>  0 0.99816457E+02</rscale>
<asrwt>0</asrwt>
<pdfrwt beam="1">  1        3 0.15956432E-01 0.99816457E+02</pdfrwt>
<pdfrwt beam="2">  1       -3 0.18146395E-01 0.99816457E+02</pdfrwt>
<totfact> 0.19253793E+03</totfact>
</mgrwt>
</event>
<event>
 4    1  0.6602701E-002  0.9113969E+02  0.7546771E-02  0.1300115E+00
         -2   -1    0    0    0  501 -0.00000000000E+00  0.00000000000E+00  0.15310201651E+02  0.15310201651E+02  0.00000000000E+00 0.  1.
          2   -1    0    0  501    0  0.00000000000E+00 -0.00000000000E+00 -0.14203026872E+04  0.14203026872E+04  0.00000000000E+00 0. -1.
         24    1    1    2    0    0  0.31207659539E+02  0.29416123583E+02 -0.12667893188E+04  0.12700636285E+04  0.80419002446E+02 0. -1.
        -24    1    1    2    0    0 -0.31207659539E+02 -0.29416123583E+02 -0.13820316679E+03  0.16554926036E+03  0.80419002446E+02 0.  1.
<mgrwt>
<rscale>  0 0.91139686E+02</rscale>
<asrwt>0</asrwt>
<pdfrwt beam="1">  1        2 0.21850817E+00 0.91139686E+02</pdfrwt>
<pdfrwt beam="2">  1       -2 0.23554150E-02 0.91139686E+02</pdfrwt>
<totfact> 0.87583997E+03</totfact>
</mgrwt>
</event>
<event>
 4    1  0.6602701E-002  0.9119509E+02  0.7546771E-02  0.1299983E+00
         -2   -1    0    0    0  501 -0.00000000000E+00  0.00000000000E+00  0.15248923454E+02  0.15248923454E+02  0.00000000000E+00 0.  1.
          2   -1    0    0  501    0  0.00000000000E+00 -0.00000000000E+00 -0.17602247802E+04  0.17602247802E+04  0.00000000000E+00 0. -1.
         24    1    1    2    0    0  0.25731625223E+02  0.34455931354E+02 -0.16099837658E+04  0.16125645009E+04  0.80419002446E+02 0. -1.
        -24    1    1    2    0    0 -0.25731625223E+02 -0.34455931354E+02 -0.13499209095E+03  0.16290920267E+03  0.80419002446E+02 0.  1.
<mgrwt>
<rscale>  0 0.91195086E+02</rscale>
<asrwt>0</asrwt>
<pdfrwt beam="1">  1        2 0.27080363E+00 0.91195086E+02</pdfrwt>
<pdfrwt beam="2">  1       -2 0.23459898E-02 0.91195086E+02</pdfrwt>
<totfact> 0.59221975E+03</totfact>
</mgrwt>
</event>
<event>
 4    1  0.6602701E-002  0.8315643E+02  0.7546771E-02  0.1320325E+00
          2   -1    0    0  501    0  0.00000000000E+00  0.00000000000E+00  0.26055211276E+03  0.26055211276E+03  0.00000000000E+00 0. -1.
         -2   -1    0    0    0  501 -0.00000000000E+00 -0.00000000000E+00 -0.46001467607E+02  0.46001467607E+02  0.00000000000E+00 0.  1.
         24    1    1    2    0    0 -0.11673787643E+02 -0.17649299194E+02  0.20697207326E+03  0.22305252776E+03  0.80419002446E+02 0. -1.
        -24    1    1    2    0    0  0.11673787643E+02  0.17649299194E+02  0.75785719008E+01  0.83501052607E+02  0.80419002446E+02 0. -1.
<mgrwt>
<rscale>  0 0.83156425E+02</rscale>
<asrwt>0</asrwt>
<pdfrwt beam="1">  1        2 0.40084940E-01 0.83156425E+02</pdfrwt>
<pdfrwt beam="2">  1       -2 0.70771490E-02 0.83156425E+02</pdfrwt>
<totfact> 0.13125317E+04</totfact>
</mgrwt>
</event>
<event>
 4    1  0.6602701E-002  0.8677440E+02  0.7546771E-02  0.1310856E+00
         -1   -1    0    0    0  501 -0.00000000000E+00  0.00000000000E+00  0.11800152890E+02  0.11800152890E+02  0.00000000000E+00 0.  1.
          1   -1    0    0  501    0  0.00000000000E+00 -0.00000000000E+00 -0.70021597967E+03  0.70021597967E+03  0.00000000000E+00 0. -1.
         24    1    1    2    0    0  0.27717161206E+02  0.17156338172E+02 -0.23818246073E+03  0.25349690633E+03  0.80419002446E+02 0.  1.
        -24    1    1    2    0    0 -0.27717161206E+02 -0.17156338172E+02 -0.45023336606E+03  0.45851922624E+03  0.80419002446E+02 0. -1.
<mgrwt>
<rscale>  0 0.86774402E+02</rscale>
<asrwt>0</asrwt>
<pdfrwt beam="1">  1        1 0.10772557E+00 0.86774402E+02</pdfrwt>
<pdfrwt beam="2">  1       -1 0.18154076E-02 0.86774402E+02</pdfrwt>
<totfact> 0.20222248E+04</totfact>
</mgrwt>
</event>
<event>
 4    1  0.6602701E-002  0.2343205E+03  0.7546771E-02  0.1123635E+00
          2   -1    0    0  501    0  0.00000000000E+00  0.00000000000E+00  0.27258540690E+04  0.27258540690E+04  0.00000000000E+00 0. -1.
         -2   -1    0    0    0  501 -0.00000000000E+00 -0.00000000000E+00 -0.71411462909E+02  0.71411462909E+02  0.00000000000E+00 0.  1.
         24    1    1    2    0    0  0.14745626023E+03  0.16338770641E+03  0.25122969681E+04  0.25232007775E+04  0.80419002446E+02 0. -1.
        -24    1    1    2    0    0 -0.14745626023E+03 -0.16338770641E+03  0.14214563794E+03  0.27406475444E+03  0.80419002446E+02 0.  1.
<mgrwt>
<rscale>  0 0.23432052E+03</rscale>
<asrwt>0</asrwt>
<pdfrwt beam="1">  1        2 0.41936208E+00 0.23432052E+03</pdfrwt>
<pdfrwt beam="2">  1       -2 0.10986381E-01 0.23432052E+03</pdfrwt>
<totfact> 0.17385588E+02</totfact>
</mgrwt>
</event>
<event>
 4    1  0.6602701E-002  0.8767323E+02  0.7546771E-02  0.1308586E+00
          1   -1    0    0  501    0  0.00000000000E+00  0.00000000000E+00  0.25497362433E+03  0.25497362433E+03  0.00000000000E+00 0. -1.
         -1   -1    0    0    0  501 -0.00000000000E+00 -0.00000000000E+00 -0.40547762402E+02  0.40547762402E+02  0.00000000000E+00 0.  1.
         24    1    1    2    0    0  0.18526109068E+02 -0.29600050351E+02  0.32376033451E+02  0.93460169026E+02  0.80419002446E+02 0.  0.
        -24    1    1    2    0    0 -0.18526109068E+02  0.29600050351E+02  0.18204982848E+03  0.20206121771E+03  0.80419002446E+02 0.  0.
<mgrwt>
<rscale>  0 0.87673232E+02</rscale>
<asrwt>0</asrwt>
<pdfrwt beam="1">  1        1 0.39226710E-01 0.87673232E+02</pdfrwt>
<pdfrwt beam="2">  1       -1 0.62381175E-02 0.87673232E+02</pdfrwt>
<totfact> 0.12265003E+04</totfact>
</mgrwt>
</event>
<event>
 4    1  0.6602701E-002  0.9210752E+02  0.7546771E-02  0.1297827E+00
         -1   -1    0    0    0  501 -0.00000000000E+00  0.00000000000E+00  0.52968838970E+02  0.52968838970E+02  0.00000000000E+00 0.  1.
          1   -1    0    0  501    0  0.00000000000E+00 -0.00000000000E+00 -0.50198430929E+03  0.50198430929E+03  0.00000000000E+00 0. -1.
         24    1    1    2    0    0  0.44905384286E+02  0.29232266320E+00  0.44625150931E+01  0.92215557179E+02  0.80419002446E+02 0.  1.
        -24    1    1    2    0    0 -0.44905384286E+02 -0.29232266320E+00 -0.45347798542E+03  0.46273759109E+03  0.80419002446E+02 0. -1.
<mgrwt>
<rscale>  0 0.92107518E+02</rscale>
<asrwt>0</asrwt>
<pdfrwt beam="1">  1        1 0.77228356E-01 0.92107518E+02</pdfrwt>
<pdfrwt beam="2">  1       -1 0.81490520E-02 0.92107518E+02</pdfrwt>
<totfact> 0.35803089E+03</totfact>
</mgrwt>
</event>
<event>
 4    1  0.6602701E-002  0.1308193E+03  0.7546771E-02  0.1226245E+00
         -1   -1    0    0    0  501 -0.00000000000E+00  0.00000000000E+00  0.62660547265E+02  0.62660547265E+02  0.00000000000E+00 0.  1.
          1   -1    0    0  501    0  0.00000000000E+00 -0.00000000000E+00 -0.29109213183E+03  0.29109213183E+03  0.00000000000E+00 0. -1.
         24    1    1    2    0    0 -0.10285600887E+03  0.81923857497E+01 -0.70263153166E+02  0.14849444566E+03  0.80419002446E+02 0.  1.
        -24    1    1    2    0    0  0.10285600887E+03 -0.81923857497E+01 -0.15816843140E+03  0.20525823344E+03  0.80419002446E+02 0. -1.
<mgrwt>
<rscale>  0 0.13081930E+03</rscale>
<asrwt>0</asrwt>
<pdfrwt beam="1">  1        1 0.44783406E-01 0.13081930E+03</pdfrwt>
<pdfrwt beam="2">  1       -1 0.96400841E-02 0.13081930E+03</pdfrwt>
<totfact> 0.56063524E+03</totfact>
</mgrwt>
</event>
<event>
 4    1  0.6602701E-002  0.9663040E+02  0.7546771E-02  0.1287546E+00
          4   -1    0    0  501    0  0.00000000000E+00  0.00000000000E+00  0.11944491437E+03  0.11944491437E+03  0.00000000000E+00 0. -1.
         -4   -1    0    0    0  501 -0.00000000000E+00 -0.00000000000E+00 -0.10322398346E+03  0.10322398346E+03  0.00000000000E+00 0.  1.
         24    1    1    2    0    0  0.43280159983E+02  0.31576027007E+02  0.62956701482E+02  0.11532987447E+03  0.80419002446E+02 0. -1.
        -24    1    1    2    0    0 -0.43280159983E+02 -0.31576027007E+02 -0.46735770574E+02  0.10733902336E+03  0.80419002446E+02 0.  1.
<mgrwt>
<rscale>  0 0.96630397E+02</rscale>
<asrwt>0</asrwt>
<pdfrwt beam="1">  1        4 0.18376141E-01 0.96630397E+02</pdfrwt>
<pdfrwt beam="2">  1       -4 0.15880613E-01 0.96630397E+02</pdfrwt>
<totfact> 0.13629872E+03</totfact>
</mgrwt>
</event>
<event>
 4    1  0.6602701E-002  0.9129096E+02  0.7546771E-02  0.1299755E+00
         -2   -1    0    0    0  501 -0.00000000000E+00  0.00000000000E+00  0.42737818800E+03  0.42737818800E+03  0.00000000000E+00 0.  1.
          2   -1    0    0  501    0  0.00000000000E+00 -0.00000000000E+00 -0.36283880099E+02  0.36283880099E+02  0.00000000000E+00 0. -1.
         24    1    1    2    0    0  0.15000598385E+02  0.40519206103E+02  0.37874676820E+02  0.98835879688E+02  0.80419002446E+02 0. -1.
        -24    1    1    2    0    0 -0.15000598385E+02 -0.40519206103E+02  0.35321963108E+03  0.36482618841E+03  0.80419002446E+02 0.  1.
<mgrwt>
<rscale>  0 0.91290963E+02</rscale>
<asrwt>0</asrwt>
<pdfrwt beam="1">  1        2 0.55821357E-02 0.91290963E+02</pdfrwt>
<pdfrwt beam="2">  1       -2 0.65750487E-01 0.91290963E+02</pdfrwt>
<totfact> 0.27566825E+03</totfact>
</mgrwt>
</event>
<event>
 4    1  0.6602701E-002  0.1375736E+03  0.7546771E-02  0.1216632E+00
          1   -1    0    0  501    0  0.00000000000E+00  0.00000000000E+00  0.13300189843E+03  0.13300189843E+03  0.00000000000E+00 0. -1.
         -1   -1    0    0    0  501 -0.00000000000E+00 -0.00000000000E+00 -0.14843623582E+03  0.14843623582E+03  0.00000000000E+00 0.  1.
         24    1    1    2    0    0  0.61430700372E+02  0.93196305216E+02 -0.36322481216E+02  0.14228780991E+03  0.80419002446E+02 0.  1.
        -24    1    1    2    0    0 -0.61430700372E+02 -0.93196305216E+02  0.20888143824E+02  0.13915032433E+03  0.80419002446E+02 0.  0.
<mgrwt>
<rscale>  0 0.13757361E+03</rscale>
<asrwt>0</asrwt>
<pdfrwt beam="1">  1        1 0.20461831E-01 0.13757361E+03</pdfrwt>
<pdfrwt beam="2">  1       -1 0.22836344E-01 0.13757361E+03</pdfrwt>
<totfact> 0.38594202E+03</totfact>
</mgrwt>
</event>
<event>
 4    1  0.6602701E-002  0.8519812E+02  0.7546771E-02  0.1314915E+00
          2   -1    0    0  501    0  0.00000000000E+00  0.00000000000E+00  0.24234394540E+04  0.24234394540E+04  0.00000000000E+00 0. -1.
         -2   -1    0    0    0  501 -0.00000000000E+00 -0.00000000000E+00 -0.43579948293E+01  0.43579948293E+01  0.00000000000E+00 0.  1.
         24    1    1    2    0    0 -0.27324269937E+02  0.66997885941E+01  0.18883568835E+04  0.18902778733E+04  0.80419002446E+02 0. -1.
        -24    1    1    2    0    0  0.27324269937E+02 -0.66997885941E+01  0.53072457564E+03  0.53751957549E+03  0.80419002446E+02 0.  1.
<mgrwt>
<rscale>  0 0.85198115E+02</rscale>
<asrwt>0</asrwt>
<pdfrwt beam="1">  1        2 0.37283576E+00 0.85198115E+02</pdfrwt>
<pdfrwt beam="2">  1       -2 0.67046268E-03 0.85198115E+02</pdfrwt>
<totfact> 0.16170941E+04</totfact>
</mgrwt>
</event>
<event>
 4    1  0.6602701E-002  0.9076804E+02  0.7546771E-02  0.1301002E+00
          1   -1    0    0  501    0  0.00000000000E+00  0.00000000000E+00  0.72221398253E+03  0.72221398253E+03  0.00000000000E+00 0. -1.
         -1   -1    0    0    0  501 -0.00000000000E+00 -0.00000000000E+00 -0.19120603402E+02  0.19120603402E+02  0.00000000000E+00 0.  1.
         24    1    1    2    0    0 -0.40178234154E+02 -0.12543133080E+02  0.11612796375E+03  0.14739247134E+03  0.80419002446E+02 0.  1.
        -24    1    1    2    0    0  0.40178234154E+02  0.12543133080E+02  0.58696541538E+03  0.59394211460E+03  0.80419002446E+02 0. -1.
<mgrwt>
<rscale>  0 0.90768038E+02</rscale>
<asrwt>0</asrwt>
<pdfrwt beam="1">  1        1 0.11110982E+00 0.90768038E+02</pdfrwt>
<pdfrwt beam="2">  1       -1 0.29416319E-02 0.90768038E+02</pdfrwt>
<totfact> 0.97432519E+03</totfact>
</mgrwt>
</event>
<event>
 4    1  0.6833963E-002  0.9252819E+02  0.7546771E-02  0.1296842E+00
          1   -1    0    0  501    0  0.00000000000E+00  0.00000000000E+00  0.15313667545E+04  0.15313667545E+04  0.00000000000E+00 0. -1.
         -1   -1    0    0    0  501 -0.00000000000E+00 -0.00000000000E+00 -0.30278153568E+02  0.30278153568E+02  0.00000000000E+00 0.  1.
         24    1    1    2    0    0  0.32767634364E+02 -0.31945778276E+02  0.45485341438E+02  0.10310374800E+03  0.80419002446E+02 0.  1.
        -24    1    1    2    0    0 -0.32767634364E+02  0.31945778276E+02  0.14556032594E+04  0.14585411600E+04  0.80419002446E+02 0. -1.
<mgrwt>
<rscale>  0 0.92528193E+02</rscale>
<asrwt>0</asrwt>
<pdfrwt beam="1">  1        1 0.23559483E+00 0.92528193E+02</pdfrwt>
<pdfrwt beam="2">  1       -1 0.46581786E-02 0.92528193E+02</pdfrwt>
<totfact> 0.13447245E+03</totfact>
</mgrwt>
</event>
<event>
 4    1  0.6602701E-002  0.1312480E+03  0.7546771E-02  0.1225616E+00
         -2   -1    0    0    0  501 -0.00000000000E+00  0.00000000000E+00  0.23397862713E+02  0.23397862713E+02  0.00000000000E+00 0.  1.
          2   -1    0    0  501    0  0.00000000000E+00 -0.00000000000E+00 -0.83069654280E+03  0.83069654280E+03  0.00000000000E+00 0. -1.
         24    1    1    2    0    0 -0.33517736376E+02 -0.98159934031E+02 -0.54766558818E+03  0.56317281871E+03  0.80419002446E+02 0. -1.
        -24    1    1    2    0    0  0.33517736376E+02  0.98159934031E+02 -0.25963309190E+03  0.29092158680E+03  0.80419002446E+02 0.  1.
<mgrwt>
<rscale>  0 0.13124796E+03</rscale>
<asrwt>0</asrwt>
<pdfrwt beam="1">  1        2 0.12779946E+00 0.13124796E+03</pdfrwt>
<pdfrwt beam="2">  1       -2 0.35996713E-02 0.13124796E+03</pdfrwt>
<totfact> 0.10430667E+04</totfact>
</mgrwt>
</event>
<event>
 4    1  0.6602701E-002  0.8585098E+02  0.7546771E-02  0.1313222E+00
          2   -1    0    0  501    0  0.00000000000E+00  0.00000000000E+00  0.11863137475E+03  0.11863137475E+03  0.00000000000E+00 0. -1.
         -2   -1    0    0    0  501 -0.00000000000E+00 -0.00000000000E+00 -0.91131217282E+02  0.91131217282E+02  0.00000000000E+00 0.  1.
         24    1    1    2    0    0  0.29813575340E+02  0.37848662674E+01  0.72917649141E+02  0.11263824394E+03  0.80419002446E+02 0. -1.
        -24    1    1    2    0    0 -0.29813575340E+02 -0.37848662674E+01 -0.45417491676E+02  0.97124348089E+02  0.80419002446E+02 0.  1.
<mgrwt>
<rscale>  0 0.85850978E+02</rscale>
<asrwt>0</asrwt>
<pdfrwt beam="1">  1        2 0.18250981E-01 0.85850978E+02</pdfrwt>
<pdfrwt beam="2">  1       -2 0.14020187E-01 0.85850978E+02</pdfrwt>
<totfact> 0.10651475E+04</totfact>
</mgrwt>
</event>
<event>
 4    1  0.6602701E-002  0.1023851E+03  0.7546771E-02  0.1275359E+00
         -2   -1    0    0    0  501 -0.00000000000E+00  0.00000000000E+00  0.12609133858E+03  0.12609133858E+03  0.00000000000E+00 0.  1.
          2   -1    0    0  501    0  0.00000000000E+00 -0.00000000000E+00 -0.87297160460E+02  0.87297160460E+02  0.00000000000E+00 0. -1.
         24    1    1    2    0    0 -0.30965574562E+02 -0.55286709447E+02 -0.38977203384E+01  0.10245923691E+03  0.80419002446E+02 0.  1.
        -24    1    1    2    0    0  0.30965574562E+02  0.55286709447E+02  0.42691898462E+02  0.11092926214E+03  0.80419002446E+02 0.  0.
<mgrwt>
<rscale>  0 0.10238507E+03</rscale>
<asrwt>0</asrwt>
<pdfrwt beam="1">  1        2 0.13430332E-01 0.10238507E+03</pdfrwt>
<pdfrwt beam="2">  1       -2 0.19398667E-01 0.10238507E+03</pdfrwt>
<totfact> 0.90577079E+03</totfact>
</mgrwt>
</event>
<event>
 4    1  0.6602701E-002  0.1247761E+03  0.7546771E-02  0.1235420E+00
          2   -1    0    0  501    0  0.00000000000E+00  0.00000000000E+00  0.22226369567E+02  0.22226369567E+02  0.00000000000E+00 0. -1.
         -2   -1    0    0    0  501 -0.00000000000E+00 -0.00000000000E+00 -0.70572566750E+03  0.70572566750E+03  0.00000000000E+00 0.  1.
         24    1    1    2    0    0 -0.72123065047E+02 -0.62450906559E+02 -0.31036152613E+03  0.33450462642E+03  0.80419002446E+02 0. -1.
        -24    1    1    2    0    0  0.72123065047E+02  0.62450906559E+02 -0.37313777181E+03  0.39344741065E+03  0.80419002446E+02 0.  1.
<mgrwt>
<rscale>  0 0.12477607E+03</rscale>
<asrwt>0</asrwt>
<pdfrwt beam="1">  1        2 0.34194417E-02 0.12477607E+03</pdfrwt>
<pdfrwt beam="2">  1       -2 0.10857317E+00 0.12477607E+03</pdfrwt>
<totfact> 0.17686260E+03</totfact>
</mgrwt>
</event>
<event>
 4    1  0.6602701E-002  0.9347720E+02  0.7546771E-02  0.1294643E+00
          2   -1    0    0  501    0  0.00000000000E+00  0.00000000000E+00  0.41490834458E+03  0.41490834458E+03  0.00000000000E+00 0. -1.
         -2   -1    0    0    0  501 -0.00000000000E+00 -0.00000000000E+00 -0.33419753167E+02  0.33419753167E+02  0.00000000000E+00 0.  1.
         24    1    1    2    0    0 -0.46239993488E+02  0.11516663749E+02  0.32706710663E+03  0.34016301789E+03  0.80419002446E+02 0.  1.
        -24    1    1    2    0    0  0.46239993488E+02 -0.11516663749E+02  0.54421484782E+02  0.10816507986E+03  0.80419002446E+02 0.  0.
<mgrwt>
<rscale>  0 0.93477198E+02</rscale>
<asrwt>0</asrwt>
<pdfrwt beam="1">  1        2 0.63832050E-01 0.93477198E+02</pdfrwt>
<pdfrwt beam="2">  1       -2 0.51415008E-02 0.93477198E+02</pdfrwt>
<totfact> 0.13170751E+04</totfact>
</mgrwt>
</event>
<event>
 4    1  0.6602701E-002  0.1088966E+03  0.7546771E-02  0.1262627E+00
         -2   -1    0    0    0  501 -0.00000000000E+00  0.00000000000E+00  0.30659758754E+02  0.30659758754E+02  0.00000000000E+00 0.  1.
          2   -1    0    0  501    0  0.00000000000E+00 -0.00000000000E+00 -0.14966633560E+04  0.14966633560E+04  0.00000000000E+00 0. -1.
         24    1    1    2    0    0  0.27299970214E+01 -0.73374411940E+02 -0.13906266651E+04  0.13948838642E+04  0.80419002446E+02 0. -1.
        -24    1    1    2    0    0 -0.27299970214E+01  0.73374411940E+02 -0.75376932160E+02  0.13243925048E+03  0.80419002446E+02 0.  1.
<mgrwt>
<rscale>  0 0.10889662E+03</rscale>
<asrwt>0</asrwt>
<pdfrwt beam="1">  1        2 0.23025581E+00 0.10889662E+03</pdfrwt>
<pdfrwt beam="2">  1       -2 0.47168879E-02 0.10889662E+03</pdfrwt>
<totfact> 0.29104268E+03</totfact>
</mgrwt>
</event>
<event>
 4    1  0.6602701E-002  0.8145323E+02  0.7546771E-02  0.1324977E+00
         -1   -1    0    0    0  501 -0.00000000000E+00  0.00000000000E+00  0.17063118465E+02  0.17063118465E+02  0.00000000000E+00 0.  1.
          1   -1    0    0  501    0  0.00000000000E+00 -0.00000000000E+00 -0.56959560375E+03  0.56959560375E+03  0.00000000000E+00 0. -1.
         24    1    1    2    0    0  0.67347445561E+01  0.11047864956E+02 -0.11101990982E+03  0.13769549171E+03  0.80419002446E+02 0.  0.
        -24    1    1    2    0    0 -0.67347445561E+01 -0.11047864956E+02 -0.44151257546E+03  0.44896323051E+03  0.80419002446E+02 0. -1.
<mgrwt>
<rscale>  0 0.81453226E+02</rscale>
<asrwt>0</asrwt>
<pdfrwt beam="1">  1        1 0.87630071E-01 0.81453226E+02</pdfrwt>
<pdfrwt beam="2">  1       -1 0.26250958E-02 0.81453226E+02</pdfrwt>
<totfact> 0.15717198E+04</totfact>
</mgrwt>
</event>
<event>
 4    1  0.6602701E-002  0.8152644E+02  0.7546771E-02  0.1324775E+00
         -2   -1    0    0    0  501 -0.00000000000E+00  0.00000000000E+00  0.30377145297E+02  0.30377145297E+02  0.00000000000E+00 0.  1.
          2   -1    0    0  501    0  0.00000000000E+00 -0.00000000000E+00 -0.80181312775E+03  0.80181312775E+03  0.00000000000E+00 0. -1.
         24    1    1    2    0    0 -0.12610897803E+02 -0.45066632821E+01 -0.74052706572E+03  0.74500127234E+03  0.80419002446E+02 0. -1.
        -24    1    1    2    0    0  0.12610897803E+02  0.45066632821E+01 -0.30908916730E+02  0.87189000712E+02  0.80419002446E+02 0.  1.
<mgrwt>
<rscale>  0 0.81526442E+02</rscale>
<asrwt>0</asrwt>
<pdfrwt beam="1">  1        2 0.12335586E+00 0.81526442E+02</pdfrwt>
<pdfrwt beam="2">  1       -2 0.46734072E-02 0.81526442E+02</pdfrwt>
<totfact> 0.71910418E+03</totfact>
</mgrwt>
</event>
<event>
 4    1  0.6602701E-002  0.9119788E+02  0.7546771E-02  0.1299977E+00
         -1   -1    0    0    0  501 -0.00000000000E+00  0.00000000000E+00  0.64840741376E+01  0.64840741376E+01  0.00000000000E+00 0.  1.
          1   -1    0    0  501    0  0.00000000000E+00 -0.00000000000E+00 -0.12837149577E+04  0.12837149577E+04  0.00000000000E+00 0. -1.
         24    1    1    2    0    0  0.85187693000E+01  0.42157655172E+02 -0.62038199002E+03  0.62704933363E+03  0.80419002446E+02 0.  0.
        -24    1    1    2    0    0 -0.85187693000E+01 -0.42157655172E+02 -0.65684889351E+03  0.66314969817E+03  0.80419002446E+02 0. -1.
<mgrwt>
<rscale>  0 0.91197880E+02</rscale>
<asrwt>0</asrwt>
<pdfrwt beam="1">  1        1 0.19749460E+00 0.91197880E+02</pdfrwt>
<pdfrwt beam="2">  1       -1 0.99754994E-03 0.91197880E+02</pdfrwt>
<totfact> 0.17645519E+04</totfact>
</mgrwt>
</event>
<event>
 4    1  0.6602701E-002  0.8618122E+02  0.7546771E-02  0.1312372E+00
         -1   -1    0    0    0  501 -0.00000000000E+00  0.00000000000E+00  0.45457896677E+01  0.45457896677E+01  0.00000000000E+00 0.  1.
          1   -1    0    0  501    0  0.00000000000E+00 -0.00000000000E+00 -0.22244460308E+04  0.22244460308E+04  0.00000000000E+00 0. -1.
         24    1    1    2    0    0 -0.53496041966E+01 -0.30518257960E+02 -0.16842093241E+04  0.16864128337E+04  0.80419002446E+02 0. -1.
        -24    1    1    2    0    0  0.53496041966E+01  0.30518257960E+02 -0.53569091698E+03  0.54257898671E+03  0.80419002446E+02 0.  0.
<mgrwt>
<rscale>  0 0.86181205E+02</rscale>
<asrwt>0</asrwt>
<pdfrwt beam="1">  1        1 0.34222185E+00 0.86181216E+02</pdfrwt>
<pdfrwt beam="2">  1       -1 0.69935352E-03 0.86181216E+02</pdfrwt>
<totfact> 0.73586112E+03</totfact>
</mgrwt>
</event>
<event>
 4    1  0.6602701E-002  0.1008112E+03  0.7546771E-02  0.1278599E+00
          3   -1    0    0  501    0  0.00000000000E+00  0.00000000000E+00  0.29436847929E+02  0.29436847929E+02  0.00000000000E+00 0. -1.
         -3   -1    0    0    0  501 -0.00000000000E+00 -0.00000000000E+00 -0.38250627578E+03  0.38250627578E+03  0.00000000000E+00 0.  1.
         24    1    1    2    0    0 -0.60711709816E+02 -0.31261820967E+01 -0.24082147841E+03  0.26107065163E+03  0.80419002446E+02 0.  0.
        -24    1    1    2    0    0  0.60711709816E+02  0.31261820967E+01 -0.11224794944E+03  0.15087247208E+03  0.80419002446E+02 0.  1.
<mgrwt>
<rscale>  0 0.10081121E+03</rscale>
<asrwt>0</asrwt>
<pdfrwt beam="1">  1        3 0.45287464E-02 0.10081121E+03</pdfrwt>
<pdfrwt beam="2">  1       -3 0.58847112E-01 0.10081121E+03</pdfrwt>
<totfact> 0.16639609E+03</totfact>
</mgrwt>
</event>
<event>
 4    1  0.6602701E-002  0.1045075E+03  0.7546771E-02  0.1271093E+00
         -2   -1    0    0    0  501 -0.00000000000E+00  0.00000000000E+00  0.40470452674E+03  0.40470452674E+03  0.00000000000E+00 0.  1.
          2   -1    0    0  501    0  0.00000000000E+00 -0.00000000000E+00 -0.29016185870E+02  0.29016185870E+02  0.00000000000E+00 0. -1.
         24    1    1    2    0    0  0.85518557519E+01 -0.66192615288E+02  0.13049761782E+03  0.16718684388E+03  0.80419002446E+02 0. -1.
        -24    1    1    2    0    0 -0.85518557519E+01  0.66192615288E+02  0.24519072305E+03  0.26653386873E+03  0.80419002446E+02 0.  0.
<mgrwt>
<rscale>  0 0.10450748E+03</rscale>
<asrwt>0</asrwt>
<pdfrwt beam="1">  1        2 0.44640289E-02 0.10450748E+03</pdfrwt>
<pdfrwt beam="2">  1       -2 0.62262231E-01 0.10450748E+03</pdfrwt>
<totfact> 0.41644957E+03</totfact>
</mgrwt>
</event>
<event>
 4    1  0.6602701E-002  0.8195982E+02  0.7546771E-02  0.1323580E+00
         -2   -1    0    0    0  501 -0.00000000000E+00  0.00000000000E+00  0.66566745964E+02  0.66566745964E+02  0.00000000000E+00 0.  1.
          2   -1    0    0  501    0  0.00000000000E+00 -0.00000000000E+00 -0.13315230513E+03  0.13315230513E+03  0.00000000000E+00 0. -1.
         24    1    1    2    0    0  0.53490739497E+01  0.14885659274E+02 -0.82430148618E+02  0.11624173433E+03  0.80419002446E+02 0. -1.
        -24    1    1    2    0    0 -0.53490739497E+01 -0.14885659274E+02  0.15844589456E+02  0.83477316761E+02  0.80419002446E+02 0.  0.
<mgrwt>
<rscale>  0 0.81959816E+02</rscale>
<asrwt>0</asrwt>
<pdfrwt beam="1">  1        2 0.20484970E-01 0.81959816E+02</pdfrwt>
<pdfrwt beam="2">  1       -2 0.10241038E-01 0.81959816E+02</pdfrwt>
<totfact> 0.15292312E+04</totfact>
</mgrwt>
</event>
<event>
 4    1  0.6602701E-002  0.2061515E+03  0.7546771E-02  0.1144650E+00
         -2   -1    0    0    0  501 -0.00000000000E+00  0.00000000000E+00  0.20935427655E+02  0.20935427655E+02  0.00000000000E+00 0.  1.
          2   -1    0    0  501    0  0.00000000000E+00 -0.00000000000E+00 -0.20379250581E+04  0.20379250581E+04  0.00000000000E+00 0. -1.
         24    1    1    2    0    0 -0.14199717926E+03 -0.12596819973E+03 -0.94419966194E+03  0.96644265418E+03  0.80419002446E+02 0. -1.
        -24    1    1    2    0    0  0.14199717926E+03  0.12596819973E+03 -0.10727899685E+04  0.10924178316E+04  0.80419002446E+02 0.  0.
<mgrwt>
<rscale>  0 0.20615143E+03</rscale>
<asrwt>0</asrwt>
<pdfrwt beam="1">  1        2 0.31352682E+00 0.20615146E+03</pdfrwt>
<pdfrwt beam="2">  1       -2 0.32208362E-02 0.20615146E+03</pdfrwt>
<totfact> 0.27073111E+03</totfact>
</mgrwt>
</event>
<event>
 4    1  0.6602701E-002  0.9399547E+02  0.7546771E-02  0.1293455E+00
         -2   -1    0    0    0  501 -0.00000000000E+00  0.00000000000E+00  0.49269991647E+02  0.49269991647E+02  0.00000000000E+00 0.  1.
          2   -1    0    0  501    0  0.00000000000E+00 -0.00000000000E+00 -0.18927634803E+03  0.18927634803E+03  0.00000000000E+00 0. -1.
         24    1    1    2    0    0 -0.35896556358E+02  0.32853772187E+02 -0.97357165891E+02  0.13532762767E+03  0.80419002446E+02 0. -1.
        -24    1    1    2    0    0  0.35896556358E+02 -0.32853772187E+02 -0.42649190495E+02  0.10321871201E+03  0.80419002446E+02 0.  1.
<mgrwt>
<rscale>  0 0.93995474E+02</rscale>
<asrwt>0</asrwt>
<pdfrwt beam="1">  1        2 0.29119438E-01 0.93995474E+02</pdfrwt>
<pdfrwt beam="2">  1       -2 0.75799987E-02 0.93995474E+02</pdfrwt>
<totfact> 0.16792264E+04</totfact>
</mgrwt>
</event>
<event>
 4    1  0.6602701E-002  0.1215953E+03  0.7546771E-02  0.1240488E+00
         -1   -1    0    0    0  501 -0.00000000000E+00  0.00000000000E+00  0.82777513209E+01  0.82777513209E+01  0.00000000000E+00 0.  1.
          1   -1    0    0  501    0  0.00000000000E+00 -0.00000000000E+00 -0.18891144307E+04  0.18891144307E+04  0.00000000000E+00 0. -1.
         24    1    1    2    0    0  0.65324316841E+02 -0.63646979320E+02 -0.11618870338E+04  0.11682323825E+04  0.80419002446E+02 0. -1.
        -24    1    1    2    0    0 -0.65324316841E+02  0.63646979320E+02 -0.71894964561E+03  0.72915979951E+03  0.80419002446E+02 0.  1.
<mgrwt>
<rscale>  0 0.12159533E+03</rscale>
<asrwt>0</asrwt>
<pdfrwt beam="1">  1        1 0.29063280E+00 0.12159534E+03</pdfrwt>
<pdfrwt beam="2">  1       -1 0.12735010E-02 0.12159534E+03</pdfrwt>
<totfact> 0.51908203E+03</totfact>
</mgrwt>
</event>
<event>
 4    1  0.6602701E-002  0.9192522E+02  0.7546771E-02  0.1298255E+00
          1   -1    0    0  501    0  0.00000000000E+00  0.00000000000E+00  0.47825958873E+03  0.47825958873E+03  0.00000000000E+00 0. -1.
         -1   -1    0    0    0  501 -0.00000000000E+00 -0.00000000000E+00 -0.19780637168E+02  0.19780637168E+02  0.00000000000E+00 0.  1.
         24    1    1    2    0    0 -0.32602390835E+02 -0.30333309314E+02  0.31060703329E+03  0.32392432855E+03  0.80419002446E+02 0. -1.
        -24    1    1    2    0    0  0.32602390835E+02  0.30333309314E+02  0.14787191827E+03  0.17411589735E+03  0.80419002446E+02 0. -1.
<mgrwt>
<rscale>  0 0.91925207E+02</rscale>
<asrwt>0</asrwt>
<pdfrwt beam="1">  1        1 0.73578390E-01 0.91925218E+02</pdfrwt>
<pdfrwt beam="2">  1       -1 0.30431753E-02 0.91925218E+02</pdfrwt>
<totfact> 0.16123837E+04</totfact>
</mgrwt>
</event>
<event>
 4    1  0.6602701E-002  0.9008923E+02  0.7546771E-02  0.1302636E+00
          2   -1    0    0  501    0  0.00000000000E+00  0.00000000000E+00  0.16514584245E+04  0.16514584245E+04  0.00000000000E+00 0. -1.
         -2   -1    0    0    0  501 -0.00000000000E+00 -0.00000000000E+00 -0.54430932799E+01  0.54430932799E+01  0.00000000000E+00 0.  1.
         24    1    1    2    0    0  0.16039186908E+02 -0.37304130056E+02  0.10811803623E+04  0.10849272074E+04  0.80419002446E+02 0. -1.
        -24    1    1    2    0    0 -0.16039186908E+02  0.37304130056E+02  0.56483496897E+03  0.57197431040E+03  0.80419002446E+02 0.  1.
<mgrwt>
<rscale>  0 0.90089231E+02</rscale>
<asrwt>0</asrwt>
<pdfrwt beam="1">  1        2 0.25407013E+00 0.90089231E+02</pdfrwt>
<pdfrwt beam="2">  1       -2 0.83740028E-03 0.90089231E+02</pdfrwt>
<totfact> 0.29140372E+04</totfact>
</mgrwt>
</event>
<event>
 4    1  0.6602701E-002  0.1174956E+03  0.7546771E-02  0.1247287E+00
         -3   -1    0    0    0  501 -0.00000000000E+00  0.00000000000E+00  0.30507853463E+03  0.30507853463E+03  0.00000000000E+00 0.  1.
          3   -1    0    0  501    0  0.00000000000E+00 -0.00000000000E+00 -0.90281806582E+02  0.90281806582E+02  0.00000000000E+00 0. -1.
         24    1    1    2    0    0 -0.50859251301E+02  0.68930008158E+02  0.24700819648E+03  0.27352929377E+03  0.80419002446E+02 0.  1.
        -24    1    1    2    0    0  0.50859251301E+02 -0.68930008158E+02 -0.32211468433E+02  0.12183104744E+03  0.80419002446E+02 0. -1.
<mgrwt>
<rscale>  0 0.11749564E+03</rscale>
<asrwt>0</asrwt>
<pdfrwt beam="1">  1        3 0.13889509E-01 0.11749564E+03</pdfrwt>
<pdfrwt beam="2">  1       -3 0.46935159E-01 0.11749564E+03</pdfrwt>
<totfact> 0.43680106E+02</totfact>
</mgrwt>
</event>
<event>
 4    1  0.6602701E-002  0.1107800E+03  0.7546771E-02  0.1259132E+00
         -2   -1    0    0    0  501 -0.00000000000E+00  0.00000000000E+00  0.26070092214E+03  0.26070092214E+03  0.00000000000E+00 0.  1.
          2   -1    0    0  501    0  0.00000000000E+00 -0.00000000000E+00 -0.15996323397E+03  0.15996323397E+03  0.00000000000E+00 0. -1.
         24    1    1    2    0    0 -0.76000171605E+02 -0.53828775935E+01 -0.12632516273E+03  0.16801864226E+03  0.80419002446E+02 0. -1.
        -24    1    1    2    0    0  0.76000171605E+02  0.53828775935E+01  0.22706285089E+03  0.25264551384E+03  0.80419002446E+02 0.  1.
<mgrwt>
<rscale>  0 0.11078004E+03</rscale>
<asrwt>0</asrwt>
<pdfrwt beam="1">  1        2 0.24609728E-01 0.11078004E+03</pdfrwt>
<pdfrwt beam="2">  1       -2 0.40107834E-01 0.11078004E+03</pdfrwt>
<totfact> 0.12637240E+03</totfact>
</mgrwt>
</event>
<event>
 4    1  0.6602701E-002  0.8125552E+02  0.7546771E-02  0.1325526E+00
         -2   -1    0    0    0  501 -0.00000000000E+00  0.00000000000E+00  0.69032742006E+01  0.69032742006E+01  0.00000000000E+00 0.  1.
          2   -1    0    0  501    0  0.00000000000E+00 -0.00000000000E+00 -0.14222760124E+04  0.14222760124E+04  0.00000000000E+00 0. -1.
         24    1    1    2    0    0 -0.73499881883E+01  0.90122786594E+01 -0.11166536895E+04  0.11196061458E+04  0.80419002446E+02 0. -1.
        -24    1    1    2    0    0  0.73499881883E+01 -0.90122786594E+01 -0.29871904872E+03  0.30957314081E+03  0.80419002446E+02 0.  1.
<mgrwt>
<rscale>  0 0.81255519E+02</rscale>
<asrwt>0</asrwt>
<pdfrwt beam="1">  1        2 0.21881171E+00 0.81255519E+02</pdfrwt>
<pdfrwt beam="2">  1       -2 0.10620421E-02 0.81255519E+02</pdfrwt>
<totfact> 0.27008468E+04</totfact>
</mgrwt>
</event>
<event>
 4    1  0.6602701E-002  0.9070620E+02  0.7546771E-02  0.1301150E+00
          1   -1    0    0  501    0  0.00000000000E+00  0.00000000000E+00  0.18149303650E+04  0.18149303650E+04  0.00000000000E+00 0. -1.
         -1   -1    0    0    0  501 -0.00000000000E+00 -0.00000000000E+00 -0.99051107029E+01  0.99051107029E+01  0.00000000000E+00 0.  1.
         24    1    1    2    0    0  0.28748124138E+02 -0.30560513431E+02  0.23058176878E+03  0.24778128999E+03  0.80419002446E+02 0.  1.
        -24    1    1    2    0    0 -0.28748124138E+02  0.30560513431E+02  0.15744434856E+04  0.15770541857E+04  0.80419002446E+02 0. -1.
<mgrwt>
<rscale>  0 0.90706205E+02</rscale>
<asrwt>0</asrwt>
<pdfrwt beam="1">  1        1 0.27921979E+00 0.90706205E+02</pdfrwt>
<pdfrwt beam="2">  1       -1 0.15238646E-02 0.90706205E+02</pdfrwt>
<totfact> 0.44394704E+03</totfact>
</mgrwt>
</event>
<event>
 4    1  0.7148056E-002  0.9436300E+02  0.7546771E-02  0.1292617E+00
         -1   -1    0    0    0  501 -0.00000000000E+00  0.00000000000E+00  0.27427624422E+02  0.27427624422E+02  0.00000000000E+00 0.  1.
          1   -1    0    0  501    0  0.00000000000E+00 -0.00000000000E+00 -0.72523034066E+03  0.72523034066E+03  0.00000000000E+00 0. -1.
         24    1    1    2    0    0 -0.87201472013E+01  0.48591348073E+02 -0.69212900559E+02  0.11702479068E+03  0.80419002446E+02 0.  1.
        -24    1    1    2    0    0  0.87201472013E+01 -0.48591348073E+02 -0.62858981568E+03  0.63563317440E+03  0.80419002446E+02 0. -1.
<mgrwt>
<rscale>  0 0.94363001E+02</rscale>
<asrwt>0</asrwt>
<pdfrwt beam="1">  1        1 0.11157388E+00 0.94363001E+02</pdfrwt>
<pdfrwt beam="2">  1       -1 0.42196354E-02 0.94363001E+02</pdfrwt>
<totfact> 0.57598347E+03</totfact>
</mgrwt>
</event>
<event>
 4    1  0.6602701E-002  0.1598498E+03  0.7546771E-02  0.1188866E+00
         -1   -1    0    0    0  501 -0.00000000000E+00  0.00000000000E+00  0.30315626846E+02  0.30315626846E+02  0.00000000000E+00 0.  1.
          1   -1    0    0  501    0  0.00000000000E+00 -0.00000000000E+00 -0.85315305604E+03  0.85315305604E+03  0.00000000000E+00 0. -1.
         24    1    1    2    0    0 -0.12145528322E+03  0.65828342493E+02 -0.36290995433E+03  0.39655467140E+03  0.80419002446E+02 0.  1.
        -24    1    1    2    0    0  0.12145528322E+03 -0.65828342493E+02 -0.45992747486E+03  0.48691401149E+03  0.80419002446E+02 0. -1.
<mgrwt>
<rscale>  0 0.15984984E+03</rscale>
<asrwt>0</asrwt>
<pdfrwt beam="1">  1        1 0.13125430E+00 0.15984984E+03</pdfrwt>
<pdfrwt beam="2">  1       -1 0.46639433E-02 0.15984984E+03</pdfrwt>
<totfact> 0.39981721E+03</totfact>
</mgrwt>
</event>
<event>
 4    1  0.6602701E-002  0.1037665E+03  0.7546771E-02  0.1272569E+00
         -1   -1    0    0    0  501 -0.00000000000E+00  0.00000000000E+00  0.47842710032E+03  0.47842710032E+03  0.00000000000E+00 0.  1.
          1   -1    0    0  501    0  0.00000000000E+00 -0.00000000000E+00 -0.22619579936E+02  0.22619579936E+02  0.00000000000E+00 0. -1.
         24    1    1    2    0    0 -0.80508564389E+01 -0.65080290791E+02  0.24565677136E+03  0.26667344414E+03  0.80419002446E+02 0.  1.
        -24    1    1    2    0    0  0.80508564389E+01  0.65080290791E+02  0.21015074903E+03  0.23437323612E+03  0.80419002446E+02 0.  0.
<mgrwt>
<rscale>  0 0.10376645E+03</rscale>
<asrwt>0</asrwt>
<pdfrwt beam="1">  1        1 0.34799357E-02 0.10376645E+03</pdfrwt>
<pdfrwt beam="2">  1       -1 0.73604162E-01 0.10376645E+03</pdfrwt>
<totfact> 0.50079123E+03</totfact>
</mgrwt>
</event>
<event>
 4    1  0.6602701E-002  0.1097711E+03  0.7546771E-02  0.1260994E+00
          2   -1    0    0  501    0  0.00000000000E+00  0.00000000000E+00  0.40248545415E+04  0.40248545415E+04  0.00000000000E+00 0. -1.
         -2   -1    0    0    0  501 -0.00000000000E+00 -0.00000000000E+00 -0.43098601326E+01  0.43098601326E+01  0.00000000000E+00 0.  1.
         24    1    1    2    0    0  0.52681253719E+02 -0.52982728456E+02  0.31235091646E+04  0.31254374416E+04  0.80419002446E+02 0. -1.
        -24    1    1    2    0    0 -0.52681253719E+02  0.52982728456E+02  0.89703551674E+03  0.90372696001E+03  0.80419002446E+02 0.  1.
<mgrwt>
<rscale>  0 0.10977113E+03</rscale>
<asrwt>0</asrwt>
<pdfrwt beam="1">  1        2 0.61920538E+00 0.10977113E+03</pdfrwt>
<pdfrwt beam="2">  1       -2 0.66305862E-03 0.10977113E+03</pdfrwt>
<totfact> 0.17323814E+03</totfact>
</mgrwt>
</event>
<event>
 4    1  0.6602701E-002  0.8477997E+02  0.7546771E-02  0.1316009E+00
         -2   -1    0    0    0  501 -0.00000000000E+00  0.00000000000E+00  0.47633638514E+02  0.47633638514E+02  0.00000000000E+00 0.  1.
          2   -1    0    0  501    0  0.00000000000E+00 -0.00000000000E+00 -0.23250308517E+03  0.23250308517E+03  0.00000000000E+00 0. -1.
         24    1    1    2    0    0 -0.19733980654E+02  0.18193350997E+02 -0.17541868759E+03  0.19483161942E+03  0.80419002446E+02 0. -1.
        -24    1    1    2    0    0  0.19733980654E+02 -0.18193350997E+02 -0.94507590625E+01  0.85305104268E+02  0.80419002446E+02 0.  1.
<mgrwt>
<rscale>  0 0.84779974E+02</rscale>
<asrwt>0</asrwt>
<pdfrwt beam="1">  1        2 0.35769706E-01 0.84779974E+02</pdfrwt>
<pdfrwt beam="2">  1       -2 0.73282519E-02 0.84779974E+02</pdfrwt>
<totfact> 0.14058029E+04</totfact>
</mgrwt>
</event>
<event>
 4    1  0.6602701E-002  0.1316693E+03  0.7546771E-02  0.1225000E+00
         -3   -1    0    0    0  501 -0.00000000000E+00  0.00000000000E+00  0.73981144628E+01  0.73981144628E+01  0.00000000000E+00 0.  1.
          3   -1    0    0  501    0  0.00000000000E+00 -0.00000000000E+00 -0.26582129282E+04  0.26582129282E+04  0.00000000000E+00 0. -1.
         24    1    1    2    0    0  0.77041122134E+02 -0.70244292953E+02 -0.86674654822E+03  0.87669058966E+03  0.80419002446E+02 0.  1.
        -24    1    1    2    0    0 -0.77041122134E+02  0.70244292953E+02 -0.17840682655E+04  0.17889204530E+04  0.80419002446E+02 0. -1.
<mgrwt>
<rscale>  0 0.13166933E+03</rscale>
<asrwt>0</asrwt>
<pdfrwt beam="1">  1        3 0.40895598E+00 0.13166933E+03</pdfrwt>
<pdfrwt beam="2">  1       -3 0.11381711E-02 0.13166933E+03</pdfrwt>
<totfact> 0.66781096E+01</totfact>
</mgrwt>
</event>
<event>
 4    1  0.6602701E-002  0.8921256E+02  0.7546771E-02  0.1304770E+00
         -2   -1    0    0    0  501 -0.00000000000E+00  0.00000000000E+00  0.18962913089E+02  0.18962913089E+02  0.00000000000E+00 0.  1.
          2   -1    0    0  501    0  0.00000000000E+00 -0.00000000000E+00 -0.42990106052E+03  0.42990106052E+03  0.00000000000E+00 0. -1.
         24    1    1    2    0    0 -0.22349073935E+02  0.31498946270E+02 -0.24002791279E+03  0.25607084878E+03  0.80419002446E+02 0.  1.
        -24    1    1    2    0    0  0.22349073935E+02 -0.31498946270E+02 -0.17091023463E+03  0.19279312482E+03  0.80419002446E+02 0. -1.
<mgrwt>
<rscale>  0 0.89212559E+02</rscale>
<asrwt>0</asrwt>
<pdfrwt beam="1">  1        2 0.66138614E-01 0.89212559E+02</pdfrwt>
<pdfrwt beam="2">  1       -2 0.29173717E-02 0.89212559E+02</pdfrwt>
<totfact> 0.29027223E+04</totfact>
</mgrwt>
</event>
<event>
 4    1  0.6602701E-002  0.1247811E+03  0.7546771E-02  0.1235412E+00
          2   -1    0    0  501    0  0.00000000000E+00  0.00000000000E+00  0.70519461120E+03  0.70519461120E+03  0.00000000000E+00 0. -1.
         -2   -1    0    0    0  501 -0.00000000000E+00 -0.00000000000E+00 -0.47795769572E+02  0.47795769572E+02  0.00000000000E+00 0.  1.
         24    1    1    2    0    0  0.95370516767E+02 -0.27499955319E+01  0.60486468563E+03  0.61760149110E+03  0.80419002446E+02 0. -1.
        -24    1    1    2    0    0 -0.95370516767E+02  0.27499955319E+01  0.52534156000E+02  0.13538888967E+03  0.80419002446E+02 0.  1.
<mgrwt>
<rscale>  0 0.12478106E+03</rscale>
<asrwt>0</asrwt>
<pdfrwt beam="1">  1        2 0.10849147E+00 0.12478106E+03</pdfrwt>
<pdfrwt beam="2">  1       -2 0.73531958E-02 0.12478106E+03</pdfrwt>
<totfact> 0.43436449E+03</totfact>
</mgrwt>
</event>
<event>
 4    1  0.6602701E-002  0.8320815E+02  0.7546771E-02  0.1320186E+00
          2   -1    0    0  501    0  0.00000000000E+00  0.00000000000E+00  0.11024734222E+04  0.11024734222E+04  0.00000000000E+00 0. -1.
         -2   -1    0    0    0  501 -0.00000000000E+00 -0.00000000000E+00 -0.10301873060E+02  0.10301873060E+02  0.00000000000E+00 0.  1.
         24    1    1    2    0    0 -0.16092146875E+02  0.14050715348E+02  0.89372637688E+03  0.89759146190E+03  0.80419002446E+02 0. -1.
        -24    1    1    2    0    0  0.16092146875E+02 -0.14050715348E+02  0.19844517230E+03  0.21518383340E+03  0.80419002446E+02 0.  1.
<mgrwt>
<rscale>  0 0.83208147E+02</rscale>
<asrwt>0</asrwt>
<pdfrwt beam="1">  1        2 0.16961120E+00 0.83208147E+02</pdfrwt>
<pdfrwt beam="2">  1       -2 0.15849044E-02 0.83208147E+02</pdfrwt>
<totfact> 0.22707955E+04</totfact>
</mgrwt>
</event>
<event>
 4    1  0.6602701E-002  0.1651590E+03  0.7546771E-02  0.1182992E+00
         -2   -1    0    0    0  501 -0.00000000000E+00  0.00000000000E+00  0.42627137847E+02  0.42627137847E+02  0.00000000000E+00 0.  1.
          2   -1    0    0  501    0  0.00000000000E+00 -0.00000000000E+00 -0.38351496040E+04  0.38351496040E+04  0.00000000000E+00 0. -1.
         24    1    1    2    0    0 -0.80775083822E+02  0.11952268514E+03 -0.36660173131E+04  0.36697357456E+04  0.80419002446E+02 0. -1.
        -24    1    1    2    0    0  0.80775083822E+02 -0.11952268514E+03 -0.12650515307E+03  0.20804099629E+03  0.80419002446E+02 0.  1.
<mgrwt>
<rscale>  0 0.16515902E+03</rscale>
<asrwt>0</asrwt>
<pdfrwt beam="1">  1        2 0.59002326E+00 0.16515902E+03</pdfrwt>
<pdfrwt beam="2">  1       -2 0.65580185E-02 0.16515902E+03</pdfrwt>
<totfact> 0.81366600E+01</totfact>
</mgrwt>
</event>
<event>
 4    1  0.6602701E-002  0.1149776E+03  0.7546771E-02  0.1251620E+00
          1   -1    0    0  501    0  0.00000000000E+00  0.00000000000E+00  0.59253035831E+02  0.59253035831E+02  0.00000000000E+00 0. -1.
         -1   -1    0    0    0  501 -0.00000000000E+00 -0.00000000000E+00 -0.22990910827E+03  0.22990910827E+03  0.00000000000E+00 0.  1.
         24    1    1    2    0    0  0.28316800346E+02 -0.77141420156E+02 -0.11019411403E+03  0.15925639267E+03  0.80419002446E+02 0.  1.
        -24    1    1    2    0    0 -0.28316800346E+02  0.77141420156E+02 -0.60461958412E+02  0.12990575143E+03  0.80419002446E+02 0. -1.
<mgrwt>
<rscale>  0 0.11497763E+03</rscale>
<asrwt>0</asrwt>
<pdfrwt beam="1">  1        1 0.91158516E-02 0.11497763E+03</pdfrwt>
<pdfrwt beam="2">  1       -1 0.35370632E-01 0.11497763E+03</pdfrwt>
<totfact> 0.52593975E+03</totfact>
</mgrwt>
</event>
<event>
 4    1  0.6602701E-002  0.9610533E+02  0.7546771E-02  0.1288706E+00
          2   -1    0    0  501    0  0.00000000000E+00  0.00000000000E+00  0.77966890784E+02  0.77966890784E+02  0.00000000000E+00 0. -1.
         -2   -1    0    0    0  501 -0.00000000000E+00 -0.00000000000E+00 -0.14558344058E+03  0.14558344058E+03  0.00000000000E+00 0.  1.
         24    1    1    2    0    0 -0.19831473258E+02  0.48741471397E+02  0.14434617140E+02  0.97183293276E+02  0.80419002446E+02 0. -1.
        -24    1    1    2    0    0  0.19831473258E+02 -0.48741471397E+02 -0.82051166937E+02  0.12636703809E+03  0.80419002446E+02 0.  1.
<mgrwt>
<rscale>  0 0.96105329E+02</rscale>
<asrwt>0</asrwt>
<pdfrwt beam="1">  1        2 0.11994906E-01 0.96105329E+02</pdfrwt>
<pdfrwt beam="2">  1       -2 0.22397453E-01 0.96105329E+02</pdfrwt>
<totfact> 0.80758132E+03</totfact>
</mgrwt>
</event>
<event>
 4    1  0.6602701E-002  0.1211379E+03  0.7546771E-02  0.1241232E+00
          1   -1    0    0  501    0  0.00000000000E+00  0.00000000000E+00  0.15631507699E+04  0.15631507699E+04  0.00000000000E+00 0. -1.
         -1   -1    0    0    0  501 -0.00000000000E+00 -0.00000000000E+00 -0.16817951823E+02  0.16817951823E+02  0.00000000000E+00 0.  1.
         24    1    1    2    0    0  0.34154732067E+02  0.83908471283E+02  0.24807651869E+03  0.27607309241E+03  0.80419002446E+02 0.  1.
        -24    1    1    2    0    0 -0.34154732067E+02 -0.83908471283E+02  0.12982562994E+04  0.13038956293E+04  0.80419002446E+02 0. -1.
<mgrwt>
<rscale>  0 0.12113791E+03</rscale>
<asrwt>0</asrwt>
<pdfrwt beam="1">  1        1 0.24048462E+00 0.12113791E+03</pdfrwt>
<pdfrwt beam="2">  1       -1 0.25873784E-02 0.12113791E+03</pdfrwt>
<totfact> 0.30224516E+03</totfact>
</mgrwt>
</event>
<event>
 4    1  0.6602701E-002  0.1041747E+03  0.7546771E-02  0.1271754E+00
          2   -1    0    0  501    0  0.00000000000E+00  0.00000000000E+00  0.31314211139E+02  0.31314211139E+02  0.00000000000E+00 0. -1.
         -2   -1    0    0    0  501 -0.00000000000E+00 -0.00000000000E+00 -0.38374818563E+03  0.38374818563E+03  0.00000000000E+00 0.  1.
         24    1    1    2    0    0  0.37416233488E+02 -0.54636778492E+02 -0.24081828908E+03  0.26238486313E+03  0.80419002446E+02 0.  1.
        -24    1    1    2    0    0 -0.37416233488E+02  0.54636778492E+02 -0.11161568541E+03  0.15267753363E+03  0.80419002446E+02 0. -1.
<mgrwt>
<rscale>  0 0.10417471E+03</rscale>
<asrwt>0</asrwt>
<pdfrwt beam="1">  1        2 0.48175707E-02 0.10417473E+03</pdfrwt>
<pdfrwt beam="2">  1       -2 0.59038185E-01 0.10417473E+03</pdfrwt>
<totfact> 0.42038300E+03</totfact>
</mgrwt>
</event>
<event>
 4    1  0.6602701E-002  0.1234773E+03  0.7546771E-02  0.1237468E+00
         -1   -1    0    0    0  501 -0.00000000000E+00  0.00000000000E+00  0.53569246887E+02  0.53569246887E+02  0.00000000000E+00 0.  1.
          1   -1    0    0  501    0  0.00000000000E+00 -0.00000000000E+00 -0.29724734342E+03  0.29724734342E+03  0.00000000000E+00 0. -1.
         24    1    1    2    0    0  0.93067820623E+02  0.10853371017E+02 -0.15799891265E+03  0.20052502899E+03  0.80419002446E+02 0. -1.
        -24    1    1    2    0    0 -0.93067820623E+02 -0.10853371017E+02 -0.85679183883E+02  0.15029156132E+03  0.80419002446E+02 0.  1.
<mgrwt>
<rscale>  0 0.12347726E+03</rscale>
<asrwt>0</asrwt>
<pdfrwt beam="1">  1        1 0.45730360E-01 0.12347728E+03</pdfrwt>
<pdfrwt beam="2">  1       -1 0.82414227E-02 0.12347728E+03</pdfrwt>
<totfact> 0.69007280E+03</totfact>
</mgrwt>
</event>
<event>
 4    1  0.9771596E-002  0.1171252E+03  0.7546771E-02  0.1247916E+00
          1   -1    0    0  501    0  0.00000000000E+00  0.00000000000E+00  0.51549731140E+03  0.51549731140E+03  0.00000000000E+00 0. -1.
         -1   -1    0    0    0  501 -0.00000000000E+00 -0.00000000000E+00 -0.12530943544E+03  0.12530943544E+03  0.00000000000E+00 0.  1.
         24    1    1    2    0    0 -0.77393785415E+02  0.35514717608E+02 -0.89259561111E+02  0.14726024036E+03  0.80419002446E+02 0.  1.
        -24    1    1    2    0    0  0.77393785415E+02 -0.35514717608E+02  0.47944743707E+03  0.49354650647E+03  0.80419002446E+02 0. -1.
<mgrwt>
<rscale>  0 0.11712519E+03</rscale>
<asrwt>0</asrwt>
<pdfrwt beam="1">  1        1 0.79307277E-01 0.11712519E+03</pdfrwt>
<pdfrwt beam="2">  1       -1 0.19278375E-01 0.11712519E+03</pdfrwt>
<totfact> 0.92617301E+02</totfact>
</mgrwt>
</event>
<event>
 4    1  0.6602701E-002  0.9309398E+02  0.7546771E-02  0.1295528E+00
          4   -1    0    0  501    0  0.00000000000E+00  0.00000000000E+00  0.35648636717E+02  0.35648636717E+02  0.00000000000E+00 0. -1.
         -4   -1    0    0    0  501 -0.00000000000E+00 -0.00000000000E+00 -0.40077741319E+03  0.40077741319E+03  0.00000000000E+00 0.  1.
         24    1    1    2    0    0 -0.35119394978E+02  0.31078954889E+02 -0.45696368522E+02  0.10370461605E+03  0.80419002446E+02 0.  1.
        -24    1    1    2    0    0  0.35119394978E+02 -0.31078954889E+02 -0.31943240795E+03  0.33272143385E+03  0.80419002446E+02 0.  0.
<mgrwt>
<rscale>  0 0.93093981E+02</rscale>
<asrwt>0</asrwt>
<pdfrwt beam="1">  1        4 0.54844057E-02 0.93093981E+02</pdfrwt>
<pdfrwt beam="2">  1       -4 0.61658063E-01 0.93093981E+02</pdfrwt>
<totfact> 0.78342360E+02</totfact>
</mgrwt>
</event>
<event>
 4    1  0.6602701E-002  0.8741175E+02  0.7546771E-02  0.1309243E+00
          2   -1    0    0  501    0  0.00000000000E+00  0.00000000000E+00  0.32877775056E+02  0.32877775056E+02  0.00000000000E+00 0. -1.
         -2   -1    0    0    0  501 -0.00000000000E+00 -0.00000000000E+00 -0.23243052702E+03  0.23243052702E+03  0.00000000000E+00 0.  1.
         24    1    1    2    0    0  0.79214059562E+01 -0.33329404558E+02 -0.98270511991E+02  0.13152150912E+03  0.80419002446E+02 0. -1.
        -24    1    1    2    0    0 -0.79214059562E+01  0.33329404558E+02 -0.10128223997E+03  0.13378679295E+03  0.80419002446E+02 0.  1.
<mgrwt>
<rscale>  0 0.87411749E+02</rscale>
<asrwt>0</asrwt>
<pdfrwt beam="1">  1        2 0.50581193E-02 0.87411749E+02</pdfrwt>
<pdfrwt beam="2">  1       -2 0.35758542E-01 0.87411749E+02</pdfrwt>
<totfact> 0.10228467E+04</totfact>
</mgrwt>
</event>
<event>
 4    1  0.6602701E-002  0.9874117E+02  0.7546771E-02  0.1282966E+00
          2   -1    0    0  501    0  0.00000000000E+00  0.00000000000E+00  0.12255667276E+03  0.12255667276E+03  0.00000000000E+00 0. -1.
         -2   -1    0    0    0  501 -0.00000000000E+00 -0.00000000000E+00 -0.11456965706E+03  0.11456965706E+03  0.00000000000E+00 0.  1.
         24    1    1    2    0    0  0.14053714908E+02  0.55543633772E+02  0.69539919676E+02  0.12077093416E+03  0.80419002446E+02 0. -1.
        -24    1    1    2    0    0 -0.14053714908E+02 -0.55543633772E+02 -0.61552903976E+02  0.11635539565E+03  0.80419002446E+02 0.  1.
<mgrwt>
<rscale>  0 0.98741167E+02</rscale>
<asrwt>0</asrwt>
<pdfrwt beam="1">  1        2 0.18854873E-01 0.98741167E+02</pdfrwt>
<pdfrwt beam="2">  1       -2 0.17626101E-01 0.98741167E+02</pdfrwt>
<totfact> 0.71638167E+03</totfact>
</mgrwt>
</event>
<event>
 4    1  0.6602701E-002  0.9112960E+02  0.7546771E-02  0.1300139E+00
          3   -1    0    0  501    0  0.00000000000E+00  0.00000000000E+00  0.22468693385E+02  0.22468693385E+02  0.00000000000E+00 0. -1.
         -3   -1    0    0    0  501 -0.00000000000E+00 -0.00000000000E+00 -0.37103832265E+03  0.37103832265E+03  0.00000000000E+00 0.  1.
         24    1    1    2    0    0 -0.28193671769E+02 -0.32287858450E+02 -0.18650159383E+03  0.20757516563E+03  0.80419002446E+02 0.  1.
        -24    1    1    2    0    0  0.28193671769E+02  0.32287858450E+02 -0.16206803544E+03  0.18593185041E+03  0.80419002446E+02 0. -1.
<mgrwt>
<rscale>  0 0.91129605E+02</rscale>
<asrwt>0</asrwt>
<pdfrwt beam="1">  1        3 0.34567217E-02 0.91129605E+02</pdfrwt>
<pdfrwt beam="2">  1       -3 0.57082824E-01 0.91129605E+02</pdfrwt>
<totfact> 0.26384132E+03</totfact>
</mgrwt>
</event>
<event>
 4    1  0.6602701E-002  0.8529590E+02  0.7546771E-02  0.1314661E+00
          2   -1    0    0  501    0  0.00000000000E+00  0.00000000000E+00  0.35204427274E+03  0.35204427274E+03  0.00000000000E+00 0. -1.
         -2   -1    0    0    0  501 -0.00000000000E+00 -0.00000000000E+00 -0.29336132006E+02  0.29336132006E+02  0.00000000000E+00 0.  1.
         24    1    1    2    0    0 -0.24177673957E+02 -0.14953725388E+02  0.26502017065E+03  0.27840811882E+03  0.80419002446E+02 0. -1.
        -24    1    1    2    0    0  0.24177673957E+02  0.14953725388E+02  0.57687970080E+02  0.10297228592E+03  0.80419002446E+02 0.  1.
<mgrwt>
<rscale>  0 0.85295895E+02</rscale>
<asrwt>0</asrwt>
<pdfrwt beam="1">  1        2 0.54160654E-01 0.85295895E+02</pdfrwt>
<pdfrwt beam="2">  1       -2 0.45132513E-02 0.85295895E+02</pdfrwt>
<totfact> 0.18817438E+04</totfact>
</mgrwt>
</event>
<event>
 4    1  0.6602701E-002  0.8226151E+02  0.7546771E-02  0.1322753E+00
          1   -1    0    0  501    0  0.00000000000E+00  0.00000000000E+00  0.10265412767E+04  0.10265412767E+04  0.00000000000E+00 0. -1.
         -1   -1    0    0    0  501 -0.00000000000E+00 -0.00000000000E+00 -0.94155775471E+01  0.94155775471E+01  0.00000000000E+00 0.  1.
         24    1    1    2    0    0 -0.37029890640E+01 -0.16912359280E+02  0.22490921120E+03  0.23948091628E+03  0.80419002446E+02 0.  1.
        -24    1    1    2    0    0  0.37029890640E+01  0.16912359280E+02  0.79221648793E+03  0.79647593794E+03  0.80419002446E+02 0. -1.
<mgrwt>
<rscale>  0 0.82261510E+02</rscale>
<asrwt>0</asrwt>
<pdfrwt beam="1">  1        1 0.15792934E+00 0.82261510E+02</pdfrwt>
<pdfrwt beam="2">  1       -1 0.14485512E-02 0.82261510E+02</pdfrwt>
<totfact> 0.15469637E+04</totfact>
</mgrwt>
</event>
<event>
 4    1  0.6602701E-002  0.1528728E+03  0.7546771E-02  0.1196987E+00
         -1   -1    0    0    0  501 -0.00000000000E+00  0.00000000000E+00  0.13686010657E+03  0.13686010657E+03  0.00000000000E+00 0.  1.
          1   -1    0    0  501    0  0.00000000000E+00 -0.00000000000E+00 -0.28594701405E+03  0.28594701405E+03  0.00000000000E+00 0. -1.
         24    1    1    2    0    0 -0.13984102215E+02 -0.12925679709E+03  0.59632045046E+02  0.16409165566E+03  0.80419002446E+02 0.  1.
        -24    1    1    2    0    0  0.13984102215E+02  0.12925679709E+03 -0.20871895253E+03  0.25871546495E+03  0.80419002446E+02 0. -1.
<mgrwt>
<rscale>  0 0.15287279E+03</rscale>
<asrwt>0</asrwt>
<pdfrwt beam="1">  1        1 0.43991848E-01 0.15287279E+03</pdfrwt>
<pdfrwt beam="2">  1       -1 0.21055401E-01 0.15287279E+03</pdfrwt>
<totfact> 0.16993121E+03</totfact>
</mgrwt>
</event>
<event>
 4    1  0.6602701E-002  0.1780935E+03  0.7546771E-02  0.1169661E+00
          1   -1    0    0  501    0  0.00000000000E+00  0.00000000000E+00  0.36899889359E+03  0.36899889359E+03  0.00000000000E+00 0. -1.
         -1   -1    0    0    0  501 -0.00000000000E+00 -0.00000000000E+00 -0.22306530019E+03  0.22306530019E+03  0.00000000000E+00 0.  1.
         24    1    1    2    0    0 -0.21763408225E+02 -0.15740537046E+03 -0.15912392523E+03  0.23882574426E+03  0.80419002446E+02 0.  1.
        -24    1    1    2    0    0  0.21763408225E+02  0.15740537046E+03  0.30505751863E+03  0.35323844951E+03  0.80419002446E+02 0. -1.
<mgrwt>
<rscale>  0 0.17809355E+03</rscale>
<asrwt>0</asrwt>
<pdfrwt beam="1">  1        1 0.56769060E-01 0.17809355E+03</pdfrwt>
<pdfrwt beam="2">  1       -1 0.34317739E-01 0.17809355E+03</pdfrwt>
<totfact> 0.54825598E+02</totfact>
</mgrwt>
</event>
<event>
 4    1  0.6602701E-002  0.1250857E+03  0.7546771E-02  0.1234935E+00
         -1   -1    0    0    0  501 -0.00000000000E+00  0.00000000000E+00  0.41423279759E+02  0.41423279759E+02  0.00000000000E+00 0.  1.
          1   -1    0    0  501    0  0.00000000000E+00 -0.00000000000E+00 -0.82869317789E+03  0.82869317789E+03  0.00000000000E+00 0. -1.
         24    1    1    2    0    0 -0.49363609593E+02  0.82112459436E+02 -0.72693776006E+02  0.14467488715E+03  0.80419002446E+02 0.  1.
        -24    1    1    2    0    0  0.49363609593E+02 -0.82112459436E+02 -0.71457612213E+03  0.72544157051E+03  0.80419002446E+02 0. -1.
<mgrwt>
<rscale>  0 0.12508572E+03</rscale>
<asrwt>0</asrwt>
<pdfrwt beam="1">  1        1 0.12749125E+00 0.12508572E+03</pdfrwt>
<pdfrwt beam="2">  1       -1 0.63728125E-02 0.12508572E+03</pdfrwt>
<totfact> 0.26097130E+03</totfact>
</mgrwt>
</event>
<event>
 4    1  0.6602701E-002  0.8530558E+02  0.7546771E-02  0.1314635E+00
          2   -1    0    0  501    0  0.00000000000E+00  0.00000000000E+00  0.20618919446E+04  0.20618919446E+04  0.00000000000E+00 0. -1.
         -2   -1    0    0    0  501 -0.00000000000E+00 -0.00000000000E+00 -0.29652863228E+02  0.29652863228E+02  0.00000000000E+00 0.  1.
         24    1    1    2    0    0 -0.17034477571E+02  0.22795884058E+02  0.19976867486E+04  0.19995072861E+04  0.80419002446E+02 0. -1.
        -24    1    1    2    0    0  0.17034477571E+02 -0.22795884058E+02  0.34552332844E+02  0.92037521780E+02  0.80419002446E+02 0.  1.
<mgrwt>
<rscale>  0 0.85305578E+02</rscale>
<asrwt>0</asrwt>
<pdfrwt beam="1">  1        2 0.31721403E+00 0.85305578E+02</pdfrwt>
<pdfrwt beam="2">  1       -2 0.45619806E-02 0.85305578E+02</pdfrwt>
<totfact> 0.15844415E+03</totfact>
</mgrwt>
</event>
<event>
 4    1  0.6602701E-002  0.8811616E+02  0.7546771E-02  0.1307479E+00
         -2   -1    0    0    0  501 -0.00000000000E+00  0.00000000000E+00  0.73989964603E+01  0.73989964603E+01  0.00000000000E+00 0.  1.
          2   -1    0    0  501    0  0.00000000000E+00 -0.00000000000E+00 -0.14518002762E+04  0.14518002762E+04  0.00000000000E+00 0. -1.
         24    1    1    2    0    0  0.24515342149E+02  0.26386366199E+02 -0.11063179259E+04  0.11098215224E+04  0.80419002446E+02 0. -1.
        -24    1    1    2    0    0 -0.24515342149E+02 -0.26386366199E+02 -0.33808335380E+03  0.34937775029E+03  0.80419002446E+02 0.  1.
<mgrwt>
<rscale>  0 0.88116164E+02</rscale>
<asrwt>0</asrwt>
<pdfrwt beam="1">  1        2 0.22335371E+00 0.88116164E+02</pdfrwt>
<pdfrwt beam="2">  1       -2 0.11383081E-02 0.88116164E+02</pdfrwt>
<totfact> 0.23802017E+04</totfact>
</mgrwt>
</event>
<event>
 4    1  0.6602701E-002  0.1068731E+03  0.7546771E-02  0.1266473E+00
         -2   -1    0    0    0  501 -0.00000000000E+00  0.00000000000E+00  0.15683866013E+02  0.15683866013E+02  0.00000000000E+00 0.  1.
          2   -1    0    0  501    0  0.00000000000E+00 -0.00000000000E+00 -0.90235735195E+03  0.90235735195E+03  0.00000000000E+00 0. -1.
         24    1    1    2    0    0  0.37672230893E+02 -0.59459543400E+02 -0.64496226745E+03  0.65375697065E+03  0.80419002446E+02 0.  1.
        -24    1    1    2    0    0 -0.37672230893E+02  0.59459543400E+02 -0.24171121848E+03  0.26428424731E+03  0.80419002446E+02 0. -1.
<mgrwt>
<rscale>  0 0.10687306E+03</rscale>
<asrwt>0</asrwt>
<pdfrwt beam="1">  1        2 0.13882423E+00 0.10687306E+03</pdfrwt>
<pdfrwt beam="2">  1       -2 0.24129021E-02 0.10687306E+03</pdfrwt>
<totfact> 0.16616112E+04</totfact>
</mgrwt>
</event>
<event>
 4    1  0.6602701E-002  0.8222785E+02  0.7546771E-02  0.1322845E+00
          2   -1    0    0  501    0  0.00000000000E+00  0.00000000000E+00  0.11687910706E+04  0.11687910706E+04  0.00000000000E+00 0. -1.
         -2   -1    0    0    0  501 -0.00000000000E+00 -0.00000000000E+00 -0.17143837559E+02  0.17143837559E+02  0.00000000000E+00 0.  1.
         24    1    1    2    0    0  0.14803011669E+02 -0.86645189745E+01  0.10584870421E+04  0.10616761452E+04  0.80419002446E+02 0. -1.
        -24    1    1    2    0    0 -0.14803011669E+02  0.86645189745E+01  0.93160190986E+02  0.12425876300E+03  0.80419002446E+02 0.  1.
<mgrwt>
<rscale>  0 0.82227848E+02</rscale>
<asrwt>0</asrwt>
<pdfrwt beam="1">  1        2 0.17981395E+00 0.82227848E+02</pdfrwt>
<pdfrwt beam="2">  1       -2 0.26375144E-02 0.82227848E+02</pdfrwt>
<totfact> 0.10047995E+04</totfact>
</mgrwt>
</event>
<event>
 4    1  0.6602701E-002  0.1100411E+03  0.7546771E-02  0.1260494E+00
         -2   -1    0    0    0  501 -0.00000000000E+00  0.00000000000E+00  0.11472603684E+04  0.11472603684E+04  0.00000000000E+00 0.  1.
          2   -1    0    0  501    0  0.00000000000E+00 -0.00000000000E+00 -0.40806500261E+02  0.40806500261E+02  0.00000000000E+00 0. -1.
         24    1    1    2    0    0 -0.64740811179E+02 -0.38084790972E+02  0.41755352497E+02  0.11769685362E+03  0.80419002446E+02 0. -1.
        -24    1    1    2    0    0  0.64740811179E+02  0.38084790972E+02  0.10646985156E+04  0.10703700150E+04  0.80419002446E+02 0.  1.
<mgrwt>
<rscale>  0 0.11004108E+03</rscale>
<asrwt>0</asrwt>
<pdfrwt beam="1">  1        2 0.62779240E-02 0.11004108E+03</pdfrwt>
<pdfrwt beam="2">  1       -2 0.17650157E+00 0.11004108E+03</pdfrwt>
<totfact> 0.23655872E+02</totfact>
</mgrwt>
</event>
<event>
 4    1  0.1110459E-001  0.8340049E+02  0.7546771E-02  0.1319669E+00
         -1   -1    0    0    0  501 -0.00000000000E+00  0.00000000000E+00  0.46963020308E+02  0.46963020308E+02  0.00000000000E+00 0.  1.
          1   -1    0    0  501    0  0.00000000000E+00 -0.00000000000E+00 -0.10682277913E+04  0.10682277913E+04  0.00000000000E+00 0. -1.
         24    1    1    2    0    0 -0.53893469215E+01 -0.21433174219E+02  0.68662640619E+01  0.83682659816E+02  0.80419002446E+02 0.  1.
        -24    1    1    2    0    0  0.53893469215E+01  0.21433174219E+02 -0.10281310351E+04  0.10315081518E+04  0.80419002446E+02 0. -1.
<mgrwt>
<rscale>  0 0.83400491E+02</rscale>
<asrwt>0</asrwt>
<pdfrwt beam="1">  1        1 0.16434272E+00 0.83400491E+02</pdfrwt>
<pdfrwt beam="2">  1       -1 0.72250809E-02 0.83400491E+02</pdfrwt>
<totfact> 0.14252233E+03</totfact>
</mgrwt>
</event>
<event>
 4    1  0.6602701E-002  0.1391648E+03  0.7546771E-02  0.1214457E+00
         -2   -1    0    0    0  501 -0.00000000000E+00  0.00000000000E+00  0.30445602541E+02  0.30445602541E+02  0.00000000000E+00 0.  1.
          2   -1    0    0  501    0  0.00000000000E+00 -0.00000000000E+00 -0.90906635840E+03  0.90906635840E+03  0.00000000000E+00 0. -1.
         24    1    1    2    0    0 -0.23969200239E+02  0.11101842932E+03 -0.69671663292E+03  0.71047934295E+03  0.80419002446E+02 0. -1.
        -24    1    1    2    0    0  0.23969200239E+02 -0.11101842932E+03 -0.18190412293E+03  0.22903261799E+03  0.80419002446E+02 0.  1.
<mgrwt>
<rscale>  0 0.13916476E+03</rscale>
<asrwt>0</asrwt>
<pdfrwt beam="1">  1        2 0.13985635E+00 0.13916476E+03</pdfrwt>
<pdfrwt beam="2">  1       -2 0.46839394E-02 0.13916476E+03</pdfrwt>
<totfact> 0.62975193E+03</totfact>
</mgrwt>
</event>
<event>
 4    1  0.6602701E-002  0.9871956E+02  0.7546771E-02  0.1283012E+00
         -2   -1    0    0    0  501 -0.00000000000E+00  0.00000000000E+00  0.46607949420E+02  0.46607949420E+02  0.00000000000E+00 0.  1.
          2   -1    0    0  501    0  0.00000000000E+00 -0.00000000000E+00 -0.47820860630E+03  0.47820860630E+03  0.00000000000E+00 0. -1.
         24    1    1    2    0    0  0.23254335454E+01 -0.57209509473E+02 -0.41265040369E+03  0.42429459958E+03  0.80419002446E+02 0. -1.
        -24    1    1    2    0    0 -0.23254335454E+01  0.57209509473E+02 -0.18950253190E+02  0.10052195614E+03  0.80419002446E+02 0.  1.
<mgrwt>
<rscale>  0 0.98719560E+02</rscale>
<asrwt>0</asrwt>
<pdfrwt beam="1">  1        2 0.73570554E-01 0.98719560E+02</pdfrwt>
<pdfrwt beam="2">  1       -2 0.71704539E-02 0.98719560E+02</pdfrwt>
<totfact> 0.68933796E+03</totfact>
</mgrwt>
</event>
<event>
 4    1  0.6602701E-002  0.8044846E+02  0.7546771E-02  0.1327784E+00
          1   -1    0    0  501    0  0.00000000000E+00  0.00000000000E+00  0.10963891023E+03  0.10963891023E+03  0.00000000000E+00 0. -1.
         -1   -1    0    0    0  501 -0.00000000000E+00 -0.00000000000E+00 -0.14427071888E+03  0.14427071888E+03  0.00000000000E+00 0.  1.
         24    1    1    2    0    0  0.45250013851E-01  0.21762384484E+01 -0.11490119190E+03  0.14026488482E+03  0.80419002446E+02 0.  0.
        -24    1    1    2    0    0 -0.45250013851E-01 -0.21762384484E+01  0.80269383244E+02  0.11364474428E+03  0.80419002446E+02 0. -1.
<mgrwt>
<rscale>  0 0.80448456E+02</rscale>
<asrwt>0</asrwt>
<pdfrwt beam="1">  1        1 0.16867525E-01 0.80448456E+02</pdfrwt>
<pdfrwt beam="2">  1       -1 0.22195495E-01 0.80448456E+02</pdfrwt>
<totfact> 0.49812880E+03</totfact>
</mgrwt>
</event>
<event>
 4    1  0.6602701E-002  0.9931687E+02  0.7546771E-02  0.1281739E+00
         -1   -1    0    0    0  501 -0.00000000000E+00  0.00000000000E+00  0.15791139783E+04  0.15791139783E+04  0.00000000000E+00 0.  1.
          1   -1    0    0  501    0  0.00000000000E+00 -0.00000000000E+00 -0.93512742360E+01  0.93512742360E+01  0.00000000000E+00 0. -1.
         24    1    1    2    0    0 -0.27072213785E+02 -0.51611242248E+02  0.12425293027E+04  0.12464922419E+04  0.80419002446E+02 0.  1.
        -24    1    1    2    0    0  0.27072213785E+02  0.51611242248E+02  0.32723340145E+03  0.34197301072E+03  0.80419002446E+02 0. -1.
<mgrwt>
<rscale>  0 0.99316872E+02</rscale>
<asrwt>0</asrwt>
<pdfrwt beam="1">  1        1 0.14386588E-02 0.99316872E+02</pdfrwt>
<pdfrwt beam="2">  1       -1 0.24294040E+00 0.99316872E+02</pdfrwt>
<totfact> 0.82697844E+02</totfact>
</mgrwt>
</event>
<event>
 4    1  0.6602701E-002  0.9396189E+02  0.7546771E-02  0.1293531E+00
         -2   -1    0    0    0  501 -0.00000000000E+00  0.00000000000E+00  0.12976422091E+02  0.12976422091E+02  0.00000000000E+00 0.  1.
          2   -1    0    0  501    0  0.00000000000E+00 -0.00000000000E+00 -0.82621940214E+03  0.82621940214E+03  0.00000000000E+00 0. -1.
         24    1    1    2    0    0  0.86618391811E+01  0.47818291084E+02 -0.23033030441E+03  0.24875868127E+03  0.80419002446E+02 0. -1.
        -24    1    1    2    0    0 -0.86618391811E+01 -0.47818291084E+02 -0.58291267563E+03  0.59043714296E+03  0.80419002446E+02 0.  0.
<mgrwt>
<rscale>  0 0.93961878E+02</rscale>
<asrwt>0</asrwt>
<pdfrwt beam="1">  1        2 0.12711073E+00 0.93961890E+02</pdfrwt>
<pdfrwt beam="2">  1       -2 0.19963719E-02 0.93961890E+02</pdfrwt>
<totfact> 0.24156385E+04</totfact>
</mgrwt>
</event>
<event>
 4    1  0.6602701E-002  0.9144541E+02  0.7546771E-02  0.1299389E+00
         -1   -1    0    0    0  501 -0.00000000000E+00  0.00000000000E+00  0.22086522375E+02  0.22086522375E+02  0.00000000000E+00 0.  1.
          1   -1    0    0  501    0  0.00000000000E+00 -0.00000000000E+00 -0.60265771790E+03  0.60265771790E+03  0.00000000000E+00 0. -1.
         24    1    1    2    0    0 -0.42257416435E+02 -0.10457399634E+02 -0.99825732533E+02  0.13537887310E+03  0.80419002446E+02 0.  1.
        -24    1    1    2    0    0  0.42257416435E+02  0.10457399634E+02 -0.48074546300E+03  0.48936536718E+03  0.80419002446E+02 0. -1.
<mgrwt>
<rscale>  0 0.91445407E+02</rscale>
<asrwt>0</asrwt>
<pdfrwt beam="1">  1        1 0.92716585E-01 0.91445407E+02</pdfrwt>
<pdfrwt beam="2">  1       -1 0.33979260E-02 0.91445407E+02</pdfrwt>
<totfact> 0.10164093E+04</totfact>
</mgrwt>
</event>
<event>
 4    1  0.6602701E-002  0.8480696E+02  0.7546771E-02  0.1315938E+00
          2   -1    0    0  501    0  0.00000000000E+00  0.00000000000E+00  0.31011679792E+03  0.31011679792E+03  0.00000000000E+00 0. -1.
         -2   -1    0    0    0  501 -0.00000000000E+00 -0.00000000000E+00 -0.37938726164E+02  0.37938726164E+02  0.00000000000E+00 0.  1.
         24    1    1    2    0    0  0.12178944047E+02  0.24014109340E+02  0.24458794801E+03  0.25887349110E+03  0.80419002446E+02 0. -1.
        -24    1    1    2    0    0 -0.12178944047E+02 -0.24014109340E+02  0.27590123745E+02  0.89182032989E+02  0.80419002446E+02 0.  1.
<mgrwt>
<rscale>  0 0.84806958E+02</rscale>
<asrwt>0</asrwt>
<pdfrwt beam="1">  1        2 0.47710275E-01 0.84806958E+02</pdfrwt>
<pdfrwt beam="2">  1       -2 0.58367273E-02 0.84806958E+02</pdfrwt>
<totfact> 0.14652398E+04</totfact>
</mgrwt>
</event>
<event>
 4    1  0.6602701E-002  0.1064795E+03  0.7546771E-02  0.1267232E+00
          1   -1    0    0  501    0  0.00000000000E+00  0.00000000000E+00  0.39544951101E+03  0.39544951101E+03  0.00000000000E+00 0. -1.
         -1   -1    0    0    0  501 -0.00000000000E+00 -0.00000000000E+00 -0.44084641008E+02  0.44084641008E+02  0.00000000000E+00 0.  1.
         24    1    1    2    0    0  0.69530152167E+02  0.60195033762E+01  0.45733406162E+02  0.11588544721E+03  0.80419002446E+02 0.  1.
        -24    1    1    2    0    0 -0.69530152167E+02 -0.60195033762E+01  0.30563146384E+03  0.32364870481E+03  0.80419002446E+02 0. -1.
<mgrwt>
<rscale>  0 0.10647954E+03</rscale>
<asrwt>0</asrwt>
<pdfrwt beam="1">  1        1 0.60838384E-01 0.10647954E+03</pdfrwt>
<pdfrwt beam="2">  1       -1 0.67822527E-02 0.10647954E+03</pdfrwt>
<totfact> 0.64209380E+03</totfact>
</mgrwt>
</event>
<event>
 4    1  0.6602701E-002  0.2215237E+03  0.7546771E-02  0.1132752E+00
         -2   -1    0    0    0  501 -0.00000000000E+00  0.00000000000E+00  0.26233455884E+03  0.26233455884E+03  0.00000000000E+00 0.  1.
          2   -1    0    0  501    0  0.00000000000E+00 -0.00000000000E+00 -0.21149986321E+03  0.21149986321E+03  0.00000000000E+00 0. -1.
         24    1    1    2    0    0 -0.12156462840E+03  0.16681593444E+03 -0.55116128657E+02  0.22827728414E+03  0.80419002446E+02 0. -1.
        -24    1    1    2    0    0  0.12156462840E+03 -0.16681593444E+03  0.10595082429E+03  0.24555713792E+03  0.80419002446E+02 0.  1.
<mgrwt>
<rscale>  0 0.22152366E+03</rscale>
<asrwt>0</asrwt>
<pdfrwt beam="1">  1        2 0.32538440E-01 0.22152366E+03</pdfrwt>
<pdfrwt beam="2">  1       -2 0.40359163E-01 0.22152366E+03</pdfrwt>
<totfact> 0.93679240E+02</totfact>
</mgrwt>
</event>
<event>
 4    1  0.6602701E-002  0.8512916E+02  0.7546771E-02  0.1315095E+00
         -2   -1    0    0    0  501 -0.00000000000E+00  0.00000000000E+00  0.19536117753E+02  0.19536117753E+02  0.00000000000E+00 0.  1.
          2   -1    0    0  501    0  0.00000000000E+00 -0.00000000000E+00 -0.47560661442E+03  0.47560661442E+03  0.00000000000E+00 0. -1.
         24    1    1    2    0    0 -0.27912659398E+02  0.80137650437E+00 -0.34416789022E+03  0.35453985865E+03  0.80419002446E+02 0. -1.
        -24    1    1    2    0    0  0.27912659398E+02 -0.80137650437E+00 -0.11190260645E+03  0.14060287352E+03  0.80419002446E+02 0.  1.
<mgrwt>
<rscale>  0 0.85129165E+02</rscale>
<asrwt>0</asrwt>
<pdfrwt beam="1">  1        2 0.73170242E-01 0.85129165E+02</pdfrwt>
<pdfrwt beam="2">  1       -2 0.30055569E-02 0.85129165E+02</pdfrwt>
<totfact> 0.24835384E+04</totfact>
</mgrwt>
</event>
<event>
 4    1  0.1143145E-001  0.9150874E+02  0.7546771E-02  0.1299239E+00
          1   -1    0    0  501    0  0.00000000000E+00  0.00000000000E+00  0.11211601543E+04  0.11211601543E+04  0.00000000000E+00 0. -1.
         -1   -1    0    0    0  501 -0.00000000000E+00 -0.00000000000E+00 -0.46496254494E+02  0.46496254494E+02  0.00000000000E+00 0.  1.
         24    1    1    2    0    0  0.49048914148E+01 -0.43388659335E+02  0.24467748967E+01  0.91541446244E+02  0.80419002446E+02 0.  1.
        -24    1    1    2    0    0 -0.49048914148E+01  0.43388659335E+02  0.10722171249E+04  0.10761149625E+04  0.80419002446E+02 0. -1.
<mgrwt>
<rscale>  0 0.91508741E+02</rscale>
<asrwt>0</asrwt>
<pdfrwt beam="1">  1        1 0.17248616E+00 0.91508741E+02</pdfrwt>
<pdfrwt beam="2">  1       -1 0.71532707E-02 0.91508741E+02</pdfrwt>
<totfact> 0.13306157E+03</totfact>
</mgrwt>
</event>
<event>
 4    1  0.6602701E-002  0.8932634E+02  0.7546771E-02  0.1304491E+00
         -1   -1    0    0    0  501 -0.00000000000E+00  0.00000000000E+00  0.16328697374E+03  0.16328697374E+03  0.00000000000E+00 0.  1.
          1   -1    0    0  501    0  0.00000000000E+00 -0.00000000000E+00 -0.96139114015E+02  0.96139114015E+02  0.00000000000E+00 0. -1.
         24    1    1    2    0    0  0.32807853188E+02  0.20871593137E+02  0.12453180867E+03  0.15325588392E+03  0.80419002446E+02 0.  1.
        -24    1    1    2    0    0 -0.32807853188E+02 -0.20871593137E+02 -0.57383948947E+02  0.10617020383E+03  0.80419002446E+02 0. -1.
<mgrwt>
<rscale>  0 0.89326338E+02</rscale>
<asrwt>0</asrwt>
<pdfrwt beam="1">  1        1 0.14790633E-01 0.89326338E+02</pdfrwt>
<pdfrwt beam="2">  1       -1 0.25121073E-01 0.89326338E+02</pdfrwt>
<totfact> 0.48607805E+03</totfact>
</mgrwt>
</event>
<event>
 4    1  0.6602701E-002  0.9589888E+02  0.7546771E-02  0.1289164E+00
         -1   -1    0    0    0  501 -0.00000000000E+00  0.00000000000E+00  0.13960585563E+02  0.13960585563E+02  0.00000000000E+00 0.  1.
          1   -1    0    0  501    0  0.00000000000E+00 -0.00000000000E+00 -0.69257047995E+03  0.69257047995E+03  0.00000000000E+00 0. -1.
         24    1    1    2    0    0  0.38711558342E+02 -0.35082624668E+02 -0.41736586029E+03  0.42824158204E+03  0.80419002446E+02 0.  0.
        -24    1    1    2    0    0 -0.38711558342E+02  0.35082624668E+02 -0.26124403410E+03  0.27828948347E+03  0.80419002446E+02 0.  0.
<mgrwt>
<rscale>  0 0.95898872E+02</rscale>
<asrwt>0</asrwt>
<pdfrwt beam="1">  1        1 0.10654932E+00 0.95898883E+02</pdfrwt>
<pdfrwt beam="2">  1       -1 0.21477820E-02 0.95898883E+02</pdfrwt>
<totfact> 0.16307643E+04</totfact>
</mgrwt>
</event>
<event>
 4    1  0.6602701E-002  0.2531509E+03  0.7546771E-02  0.1111330E+00
          1   -1    0    0  501    0  0.00000000000E+00  0.00000000000E+00  0.83027372095E+03  0.83027372095E+03  0.00000000000E+00 0. -1.
         -1   -1    0    0    0  501 -0.00000000000E+00 -0.00000000000E+00 -0.11448805250E+03  0.11448805250E+03  0.00000000000E+00 0.  1.
         24    1    1    2    0    0  0.75803215755E+02 -0.22775431905E+03  0.88255802317E+02  0.26809412519E+03  0.80419002446E+02 0.  1.
        -24    1    1    2    0    0 -0.75803215755E+02  0.22775431905E+03  0.62752986614E+03  0.67666764827E+03  0.80419002446E+02 0. -1.
<mgrwt>
<rscale>  0 0.25315089E+03</rscale>
<asrwt>0</asrwt>
<pdfrwt beam="1">  1        1 0.12773441E+00 0.25315089E+03</pdfrwt>
<pdfrwt beam="2">  1       -1 0.17613547E-01 0.25315089E+03</pdfrwt>
<totfact> 0.54266934E+02</totfact>
</mgrwt>
</event>
<event>
 4    1  0.6602701E-002  0.8411123E+02  0.7546771E-02  0.1317773E+00
         -2   -1    0    0    0  501 -0.00000000000E+00  0.00000000000E+00  0.15203534307E+02  0.15203534307E+02  0.00000000000E+00 0.  1.
          2   -1    0    0  501    0  0.00000000000E+00 -0.00000000000E+00 -0.10014154371E+04  0.10014154371E+04  0.00000000000E+00 0. -1.
         24    1    1    2    0    0  0.16298316788E+02  0.18489115758E+02 -0.86501527780E+03  0.86909500592E+03  0.80419002446E+02 0. -1.
        -24    1    1    2    0    0 -0.16298316788E+02 -0.18489115758E+02 -0.12119662504E+03  0.14752396554E+03  0.80419002446E+02 0.  1.
<mgrwt>
<rscale>  0 0.84111227E+02</rscale>
<asrwt>0</asrwt>
<pdfrwt beam="1">  1        2 0.15406390E+00 0.84111227E+02</pdfrwt>
<pdfrwt beam="2">  1       -2 0.23390055E-02 0.84111227E+02</pdfrwt>
<totfact> 0.14867162E+04</totfact>
</mgrwt>
</event>
<event>
 4    1  0.6602701E-002  0.9549743E+02  0.7546771E-02  0.1290060E+00
         -2   -1    0    0    0  501 -0.00000000000E+00  0.00000000000E+00  0.22029139705E+02  0.22029139705E+02  0.00000000000E+00 0.  1.
          2   -1    0    0  501    0  0.00000000000E+00 -0.00000000000E+00 -0.60414869315E+03  0.60414869315E+03  0.00000000000E+00 0. -1.
         24    1    1    2    0    0 -0.30502658172E+02  0.41498555096E+02 -0.46671387630E+03  0.47638387936E+03  0.80419002446E+02 0. -1.
        -24    1    1    2    0    0  0.30502658172E+02 -0.41498555096E+02 -0.11540567714E+03  0.14979395349E+03  0.80419002446E+02 0.  1.
<mgrwt>
<rscale>  0 0.95497425E+02</rscale>
<asrwt>0</asrwt>
<pdfrwt beam="1">  1        2 0.92945947E-01 0.95497425E+02</pdfrwt>
<pdfrwt beam="2">  1       -2 0.33890986E-02 0.95497425E+02</pdfrwt>
<totfact> 0.16230546E+04</totfact>
</mgrwt>
</event>
<event>
 4    1  0.6602701E-002  0.8297229E+02  0.7546771E-02  0.1320822E+00
         -2   -1    0    0    0  501 -0.00000000000E+00  0.00000000000E+00  0.26332142591E+03  0.26332142591E+03  0.00000000000E+00 0.  1.
          2   -1    0    0  501    0  0.00000000000E+00 -0.00000000000E+00 -0.21632500895E+03  0.21632500895E+03  0.00000000000E+00 0. -1.
         24    1    1    2    0    0  0.14801806768E+02  0.14074506262E+02 -0.20136628657E+03  0.21779068513E+03  0.80419002446E+02 0. -1.
        -24    1    1    2    0    0 -0.14801806768E+02 -0.14074506262E+02  0.24836270353E+03  0.26185574973E+03  0.80419002446E+02 0.  1.
<mgrwt>
<rscale>  0 0.82972292E+02</rscale>
<asrwt>0</asrwt>
<pdfrwt beam="1">  1        2 0.33280771E-01 0.82972292E+02</pdfrwt>
<pdfrwt beam="2">  1       -2 0.40510988E-01 0.82972292E+02</pdfrwt>
<totfact> 0.88729662E+02</totfact>
</mgrwt>
</event>
<event>
 4    1  0.6602701E-002  0.1764484E+03  0.7546771E-02  0.1171285E+00
          2   -1    0    0  501    0  0.00000000000E+00  0.00000000000E+00  0.33863983391E+03  0.33863983391E+03  0.00000000000E+00 0. -1.
         -2   -1    0    0    0  501 -0.00000000000E+00 -0.00000000000E+00 -0.15209773027E+03  0.15209773027E+03  0.00000000000E+00 0.  1.
         24    1    1    2    0    0 -0.15104131680E+03 -0.43050435639E+02  0.24758639478E+03  0.30402805499E+03  0.80419002446E+02 0. -1.
        -24    1    1    2    0    0  0.15104131680E+03  0.43050435639E+02 -0.61044291141E+02  0.18670950919E+03  0.80419002446E+02 0.  1.
<mgrwt>
<rscale>  0 0.17644839E+03</rscale>
<asrwt>0</asrwt>
<pdfrwt beam="1">  1        2 0.52098436E-01 0.17644839E+03</pdfrwt>
<pdfrwt beam="2">  1       -2 0.23399651E-01 0.17644839E+03</pdfrwt>
<totfact> 0.15161610E+03</totfact>
</mgrwt>
</event>
<event>
 4    1  0.6602701E-002  0.9108633E+02  0.7546771E-02  0.1300242E+00
         -2   -1    0    0    0  501 -0.00000000000E+00  0.00000000000E+00  0.46158454051E+01  0.46158454051E+01  0.00000000000E+00 0.  1.
          2   -1    0    0  501    0  0.00000000000E+00 -0.00000000000E+00 -0.24928754929E+04  0.24928754929E+04  0.00000000000E+00 0. -1.
         24    1    1    2    0    0  0.42690329919E+02 -0.26530176709E+01 -0.19036851163E+04  0.19058629910E+04  0.80419002446E+02 0. -1.
        -24    1    1    2    0    0 -0.42690329919E+02  0.26530176709E+01 -0.58457453125E+03  0.59162834729E+03  0.80419002446E+02 0.  1.
<mgrwt>
<rscale>  0 0.91086326E+02</rscale>
<asrwt>0</asrwt>
<pdfrwt beam="1">  1        2 0.38351931E+00 0.91086326E+02</pdfrwt>
<pdfrwt beam="2">  1       -2 0.71013005E-03 0.91086326E+02</pdfrwt>
<totfact> 0.13759806E+04</totfact>
</mgrwt>
</event>
<event>
 4    1  0.6602701E-002  0.9870565E+02  0.7546771E-02  0.1283042E+00
          2   -1    0    0  501    0  0.00000000000E+00  0.00000000000E+00  0.28852845838E+03  0.28852845838E+03  0.00000000000E+00 0. -1.
         -2   -1    0    0    0  501 -0.00000000000E+00 -0.00000000000E+00 -0.33778265068E+02  0.33778265068E+02  0.00000000000E+00 0.  1.
         24    1    1    2    0    0 -0.53450823996E+02  0.20459551615E+02  0.12445910230E+03  0.15884856920E+03  0.80419002446E+02 0. -1.
        -24    1    1    2    0    0  0.53450823996E+02 -0.20459551615E+02  0.13029109102E+03  0.16345815425E+03  0.80419002446E+02 0.  0.
<mgrwt>
<rscale>  0 0.98705634E+02</rscale>
<asrwt>0</asrwt>
<pdfrwt beam="1">  1        2 0.44388992E-01 0.98705647E+02</pdfrwt>
<pdfrwt beam="2">  1       -2 0.51966564E-02 0.98705647E+02</pdfrwt>
<totfact> 0.19079747E+04</totfact>
</mgrwt>
</event>
<event>
 4    1  0.6602701E-002  0.9336541E+02  0.7546771E-02  0.1294901E+00
          4   -1    0    0  501    0  0.00000000000E+00  0.00000000000E+00  0.27285955952E+02  0.27285955952E+02  0.00000000000E+00 0. -1.
         -4   -1    0    0    0  501 -0.00000000000E+00 -0.00000000000E+00 -0.31951847794E+03  0.31951847794E+03  0.00000000000E+00 0.  1.
         24    1    1    2    0    0  0.32234697176E+02  0.34796656380E+02 -0.14402492086E+03  0.17163996265E+03  0.80419002446E+02 0. -1.
        -24    1    1    2    0    0 -0.32234697176E+02 -0.34796656380E+02 -0.14820760113E+03  0.17516447124E+03  0.80419002446E+02 0.  0.
<mgrwt>
<rscale>  0 0.93365406E+02</rscale>
<asrwt>0</asrwt>
<pdfrwt beam="1">  1        4 0.41978394E-02 0.93365406E+02</pdfrwt>
<pdfrwt beam="2">  1       -4 0.49156689E-01 0.93365406E+02</pdfrwt>
<totfact> 0.19099550E+03</totfact>
</mgrwt>
</event>
<event>
 4    1  0.6602701E-002  0.9479329E+02  0.7546771E-02  0.1291642E+00
          4   -1    0    0  501    0  0.00000000000E+00  0.00000000000E+00  0.82665170264E+02  0.82665170264E+02  0.00000000000E+00 0. -1.
         -4   -1    0    0    0  501 -0.00000000000E+00 -0.00000000000E+00 -0.10898950637E+03  0.10898950637E+03  0.00000000000E+00 0.  1.
         24    1    1    2    0    0 -0.27854259768E+02 -0.41745562109E+02 -0.82298907094E+01  0.95149875452E+02  0.80419002446E+02 0. -1.
        -24    1    1    2    0    0  0.27854259768E+02  0.41745562109E+02 -0.18094445399E+02  0.96504801185E+02  0.80419002446E+02 0.  1.
<mgrwt>
<rscale>  0 0.94793289E+02</rscale>
<asrwt>0</asrwt>
<pdfrwt beam="1">  1        4 0.12717718E-01 0.94793289E+02</pdfrwt>
<pdfrwt beam="2">  1       -4 0.16767617E-01 0.94793289E+02</pdfrwt>
<totfact> 0.23372548E+03</totfact>
</mgrwt>
</event>
<event>
 4    1  0.6602701E-002  0.9409736E+02  0.7546771E-02  0.1293222E+00
          1   -1    0    0  501    0  0.00000000000E+00  0.00000000000E+00  0.38723300596E+03  0.38723300596E+03  0.00000000000E+00 0. -1.
         -1   -1    0    0    0  501 -0.00000000000E+00 -0.00000000000E+00 -0.25949749203E+02  0.25949749203E+02  0.00000000000E+00 0.  1.
         24    1    1    2    0    0 -0.19374718820E+02  0.44852183344E+02  0.10941974096E+03  0.14431560465E+03  0.80419002446E+02 0.  1.
        -24    1    1    2    0    0  0.19374718820E+02 -0.44852183344E+02  0.25186351580E+03  0.26886715051E+03  0.80419002446E+02 0. -1.
<mgrwt>
<rscale>  0 0.94097365E+02</rscale>
<asrwt>0</asrwt>
<pdfrwt beam="1">  1        1 0.59574305E-01 0.94097365E+02</pdfrwt>
<pdfrwt beam="2">  1       -1 0.39922694E-02 0.94097365E+02</pdfrwt>
<totfact> 0.14220403E+04</totfact>
</mgrwt>
</event>
<event>
 4    1  0.6602701E-002  0.9406017E+02  0.7546771E-02  0.1293307E+00
          1   -1    0    0  501    0  0.00000000000E+00  0.00000000000E+00  0.45054658293E+03  0.45054658293E+03  0.00000000000E+00 0. -1.
         -1   -1    0    0    0  501 -0.00000000000E+00 -0.00000000000E+00 -0.20092592574E+02  0.20092592574E+02  0.00000000000E+00 0.  1.
         24    1    1    2    0    0 -0.30452234495E+02  0.38115043047E+02  0.25066789800E+03  0.26773439476E+03  0.80419002446E+02 0.  0.
        -24    1    1    2    0    0  0.30452234495E+02 -0.38115043047E+02  0.17978609236E+03  0.20290478075E+03  0.80419002446E+02 0. -1.
<mgrwt>
<rscale>  0 0.94060158E+02</rscale>
<asrwt>0</asrwt>
<pdfrwt beam="1">  1        1 0.69314851E-01 0.94060169E+02</pdfrwt>
<pdfrwt beam="2">  1       -1 0.30911684E-02 0.94060169E+02</pdfrwt>
<totfact> 0.17041539E+04</totfact>
</mgrwt>
</event>
<event>
 4    1  0.6602701E-002  0.1336258E+03  0.7546771E-02  0.1222173E+00
         -1   -1    0    0    0  501 -0.00000000000E+00  0.00000000000E+00  0.35820549927E+03  0.35820549927E+03  0.00000000000E+00 0.  1.
          1   -1    0    0  501    0  0.00000000000E+00 -0.00000000000E+00 -0.50459401892E+02  0.50459401892E+02  0.00000000000E+00 0. -1.
         24    1    1    2    0    0  0.38914190155E+02 -0.99369674080E+02  0.17636335783E+03  0.22126883256E+03  0.80419002446E+02 0.  1.
        -24    1    1    2    0    0 -0.38914190155E+02  0.99369674080E+02  0.13138273954E+03  0.18739606860E+03  0.80419002446E+02 0. -1.
<mgrwt>
<rscale>  0 0.13362583E+03</rscale>
<asrwt>0</asrwt>
<pdfrwt beam="1">  1        1 0.77629852E-02 0.13362583E+03</pdfrwt>
<pdfrwt beam="2">  1       -1 0.55108537E-01 0.13362583E+03</pdfrwt>
<totfact> 0.29861431E+03</totfact>
</mgrwt>
</event>
<event>
 4    1  0.6602701E-002  0.1786185E+03  0.7546771E-02  0.1169147E+00
         -2   -1    0    0    0  501 -0.00000000000E+00  0.00000000000E+00  0.12843344373E+03  0.12843344373E+03  0.00000000000E+00 0.  1.
          2   -1    0    0  501    0  0.00000000000E+00 -0.00000000000E+00 -0.54801539880E+03  0.54801539880E+03  0.00000000000E+00 0. -1.
         24    1    1    2    0    0  0.91090199660E+02 -0.13091956159E+03 -0.45987216744E+03  0.49334266227E+03  0.80419002446E+02 0.  0.
        -24    1    1    2    0    0 -0.91090199660E+02  0.13091956159E+03  0.40290212364E+02  0.18310618026E+03  0.80419002446E+02 0.  1.
<mgrwt>
<rscale>  0 0.17861851E+03</rscale>
<asrwt>0</asrwt>
<pdfrwt beam="1">  1        2 0.84310061E-01 0.17861851E+03</pdfrwt>
<pdfrwt beam="2">  1       -2 0.19758991E-01 0.17861851E+03</pdfrwt>
<totfact> 0.11996603E+03</totfact>
</mgrwt>
</event>
<event>
 4    1  0.6602701E-002  0.8337002E+02  0.7546771E-02  0.1319751E+00
         -2   -1    0    0    0  501 -0.00000000000E+00  0.00000000000E+00  0.14278302987E+02  0.14278302987E+02  0.00000000000E+00 0.  1.
          2   -1    0    0  501    0  0.00000000000E+00 -0.00000000000E+00 -0.49916824290E+03  0.49916824290E+03  0.00000000000E+00 0. -1.
         24    1    1    2    0    0  0.16933950372E+02 -0.14020799999E+02 -0.20202054932E+03  0.21854715695E+03  0.80419002446E+02 0.  0.
        -24    1    1    2    0    0 -0.16933950372E+02  0.14020799999E+02 -0.28286939059E+03  0.29489938893E+03  0.80419002446E+02 0.  1.
<mgrwt>
<rscale>  0 0.83370014E+02</rscale>
<asrwt>0</asrwt>
<pdfrwt beam="1">  1        2 0.76795107E-01 0.83370024E+02</pdfrwt>
<pdfrwt beam="2">  1       -2 0.21966622E-02 0.83370024E+02</pdfrwt>
<totfact> 0.36988774E+04</totfact>
</mgrwt>
</event>
<event>
 4    1  0.6602701E-002  0.8346059E+02  0.7546771E-02  0.1319508E+00
         -2   -1    0    0    0  501 -0.00000000000E+00  0.00000000000E+00  0.32159522861E+01  0.32159522861E+01  0.00000000000E+00 0.  1.
          2   -1    0    0  501    0  0.00000000000E+00 -0.00000000000E+00 -0.22548119800E+04  0.22548119800E+04  0.00000000000E+00 0. -1.
         24    1    1    2    0    0 -0.18966242067E+02 -0.11778610878E+02 -0.13498984894E+04  0.13524761002E+04  0.80419002446E+02 0. -1.
        -24    1    1    2    0    0  0.18966242067E+02  0.11778610878E+02 -0.90169753830E+03  0.90555183206E+03  0.80419002446E+02 0.  1.
<mgrwt>
<rscale>  0 0.83460589E+02</rscale>
<asrwt>0</asrwt>
<pdfrwt beam="1">  1        2 0.34689492E+00 0.83460589E+02</pdfrwt>
<pdfrwt beam="2">  1       -2 0.49476079E-03 0.83460589E+02</pdfrwt>
<totfact> 0.30180052E+04</totfact>
</mgrwt>
</event>
<event>
 4    1  0.6602701E-002  0.8444932E+02  0.7546771E-02  0.1316879E+00
          2   -1    0    0  501    0  0.00000000000E+00  0.00000000000E+00  0.49272285317E+03  0.49272285317E+03  0.00000000000E+00 0. -1.
         -2   -1    0    0    0  501 -0.00000000000E+00 -0.00000000000E+00 -0.25180765369E+02  0.25180765369E+02  0.00000000000E+00 0.  1.
         24    1    1    2    0    0  0.23582733000E+02  0.10407993748E+02  0.40262565671E+03  0.41138680949E+03  0.80419002446E+02 0. -1.
        -24    1    1    2    0    0 -0.23582733000E+02 -0.10407993748E+02  0.64916431093E+02  0.10651680905E+03  0.80419002446E+02 0.  1.
<mgrwt>
<rscale>  0 0.84449320E+02</rscale>
<asrwt>0</asrwt>
<pdfrwt beam="1">  1        2 0.75803509E-01 0.84449320E+02</pdfrwt>
<pdfrwt beam="2">  1       -2 0.38739643E-02 0.84449320E+02</pdfrwt>
<totfact> 0.16501119E+04</totfact>
</mgrwt>
</event>
<event>
 4    1  0.6602701E-002  0.2539827E+03  0.7546771E-02  0.1110813E+00
         -1   -1    0    0    0  501 -0.00000000000E+00  0.00000000000E+00  0.71601885648E+02  0.71601885648E+02  0.00000000000E+00 0.  1.
          1   -1    0    0  501    0  0.00000000000E+00 -0.00000000000E+00 -0.12375982373E+04  0.12375982373E+04  0.00000000000E+00 0. -1.
         24    1    1    2    0    0 -0.14534206115E+03 -0.19213459776E+03 -0.24157204708E+03  0.35052002550E+03  0.80419002446E+02 0.  1.
        -24    1    1    2    0    0  0.14534206115E+03  0.19213459776E+03 -0.92442430459E+03  0.95868009746E+03  0.80419002446E+02 0. -1.
<mgrwt>
<rscale>  0 0.25398274E+03</rscale>
<asrwt>0</asrwt>
<pdfrwt beam="1">  1        1 0.19039973E+00 0.25398274E+03</pdfrwt>
<pdfrwt beam="2">  1       -1 0.11015675E-01 0.25398274E+03</pdfrwt>
<totfact> 0.56749928E+02</totfact>
</mgrwt>
</event>
<event>
 4    1  0.6602701E-002  0.1159521E+03  0.7546771E-02  0.1249928E+00
         -2   -1    0    0    0  501 -0.00000000000E+00  0.00000000000E+00  0.27587472369E+02  0.27587472369E+02  0.00000000000E+00 0.  1.
          2   -1    0    0  501    0  0.00000000000E+00 -0.00000000000E+00 -0.71144808795E+03  0.71144808795E+03  0.00000000000E+00 0. -1.
         24    1    1    2    0    0 -0.35363653303E+02  0.75677520032E+02 -0.54931563193E+03  0.56142012295E+03  0.80419002446E+02 0. -1.
        -24    1    1    2    0    0  0.35363653303E+02 -0.75677520032E+02 -0.13454498365E+03  0.17761543737E+03  0.80419002446E+02 0.  1.
<mgrwt>
<rscale>  0 0.11595211E+03</rscale>
<asrwt>0</asrwt>
<pdfrwt beam="1">  1        2 0.10945351E+00 0.11595211E+03</pdfrwt>
<pdfrwt beam="2">  1       -2 0.42442280E-02 0.11595211E+03</pdfrwt>
<totfact> 0.97970145E+03</totfact>
</mgrwt>
</event>
<event>
 4    1  0.6602701E-002  0.9511162E+02  0.7546771E-02  0.1290925E+00
          2   -1    0    0  501    0  0.00000000000E+00  0.00000000000E+00  0.24942372196E+03  0.24942372196E+03  0.00000000000E+00 0. -1.
         -2   -1    0    0    0  501 -0.00000000000E+00 -0.00000000000E+00 -0.17766180001E+03  0.17766180001E+03  0.00000000000E+00 0.  1.
         24    1    1    2    0    0 -0.44713955411E+02 -0.24076283520E+02  0.22638415382E+03  0.24555245120E+03  0.80419002446E+02 0. -1.
        -24    1    1    2    0    0  0.44713955411E+02  0.24076283520E+02 -0.15462223187E+03  0.18153307076E+03  0.80419002446E+02 0.  1.
<mgrwt>
<rscale>  0 0.95111625E+02</rscale>
<asrwt>0</asrwt>
<pdfrwt beam="1">  1        2 0.38372881E-01 0.95111625E+02</pdfrwt>
<pdfrwt beam="2">  1       -2 0.27332584E-01 0.95111625E+02</pdfrwt>
<totfact> 0.15668305E+03</totfact>
</mgrwt>
</event>
<event>
 4    1  0.6602701E-002  0.8185806E+02  0.7546771E-02  0.1323860E+00
         -2   -1    0    0    0  501 -0.00000000000E+00  0.00000000000E+00  0.41832632482E+02  0.41832632482E+02  0.00000000000E+00 0.  1.
          2   -1    0    0  501    0  0.00000000000E+00 -0.00000000000E+00 -0.30070181130E+03  0.30070181130E+03  0.00000000000E+00 0. -1.
         24    1    1    2    0    0 -0.83703236977E+01 -0.12785295535E+02 -0.24651343557E+03  0.25974914046E+03  0.80419002446E+02 0. -1.
        -24    1    1    2    0    0  0.83703236977E+01  0.12785295535E+02 -0.12355743253E+02  0.82785303324E+02  0.80419002446E+02 0.  1.
<mgrwt>
<rscale>  0 0.81858060E+02</rscale>
<asrwt>0</asrwt>
<pdfrwt beam="1">  1        2 0.46261819E-01 0.81858060E+02</pdfrwt>
<pdfrwt beam="2">  1       -2 0.64357894E-02 0.81858060E+02</pdfrwt>
<totfact> 0.13024457E+04</totfact>
</mgrwt>
</event>
<event>
 4    1  0.6602701E-002  0.1040693E+03  0.7546771E-02  0.1271964E+00
         -2   -1    0    0    0  501 -0.00000000000E+00  0.00000000000E+00  0.26370601215E+03  0.26370601215E+03  0.00000000000E+00 0.  1.
          2   -1    0    0  501    0  0.00000000000E+00 -0.00000000000E+00 -0.56800888708E+03  0.56800888708E+03  0.00000000000E+00 0. -1.
         24    1    1    2    0    0 -0.42174387248E+02 -0.50838140204E+02 -0.55269249191E+03  0.56240501599E+03  0.80419002446E+02 0. -1.
        -24    1    1    2    0    0  0.42174387248E+02  0.50838140204E+02  0.24838961697E+03  0.26930988324E+03  0.80419002446E+02 0.  1.
<mgrwt>
<rscale>  0 0.10406926E+03</rscale>
<asrwt>0</asrwt>
<pdfrwt beam="1">  1        2 0.87385981E-01 0.10406926E+03</pdfrwt>
<pdfrwt beam="2">  1       -2 0.40570156E-01 0.10406926E+03</pdfrwt>
<totfact> 0.31891984E+02</totfact>
</mgrwt>
</event>
<event>
 4    1  0.6602701E-002  0.8687579E+02  0.7546771E-02  0.1310599E+00
         -2   -1    0    0    0  501 -0.00000000000E+00  0.00000000000E+00  0.40479276722E+02  0.40479276722E+02  0.00000000000E+00 0.  1.
          2   -1    0    0  501    0  0.00000000000E+00 -0.00000000000E+00 -0.20851408187E+04  0.20851408187E+04  0.00000000000E+00 0. -1.
         24    1    1    2    0    0 -0.54954009896E+01  0.32403517600E+02 -0.20365105855E+04  0.20383627666E+04  0.80419002446E+02 0. -1.
        -24    1    1    2    0    0  0.54954009896E+01 -0.32403517600E+02 -0.81509564436E+01  0.87257328805E+02  0.80419002446E+02 0.  1.
<mgrwt>
<rscale>  0 0.86875793E+02</rscale>
<asrwt>0</asrwt>
<pdfrwt beam="1">  1        2 0.32079095E+00 0.86875793E+02</pdfrwt>
<pdfrwt beam="2">  1       -2 0.62275800E-02 0.86875793E+02</pdfrwt>
<totfact> 0.97013262E+02</totfact>
</mgrwt>
</event>
<event>
 4    1  0.8343741E-002  0.8078785E+02  0.7546771E-02  0.1326830E+00
          1   -1    0    0  501    0  0.00000000000E+00  0.00000000000E+00  0.81129547264E+03  0.81129547264E+03  0.00000000000E+00 0. -1.
         -1   -1    0    0    0  501 -0.00000000000E+00 -0.00000000000E+00 -0.26657165714E+02  0.26657165714E+02  0.00000000000E+00 0.  1.
         24    1    1    2    0    0  0.13315696210E+00  0.77099202731E+01  0.42225886710E+02  0.91157567235E+02  0.80419002446E+02 0.  1.
        -24    1    1    2    0    0 -0.13315696210E+00 -0.77099202731E+01  0.74241242021E+03  0.74679507111E+03  0.80419002446E+02 0.  0.
<mgrwt>
<rscale>  0 0.80787849E+02</rscale>
<asrwt>0</asrwt>
<pdfrwt beam="1">  1        1 0.12481467E+00 0.80787849E+02</pdfrwt>
<pdfrwt beam="2">  1       -1 0.41011030E-02 0.80787849E+02</pdfrwt>
<totfact> 0.50542620E+03</totfact>
</mgrwt>
</event>
<event>
 4    1  0.6602701E-002  0.8288787E+02  0.7546771E-02  0.1321050E+00
         -2   -1    0    0    0  501 -0.00000000000E+00  0.00000000000E+00  0.29584809884E+02  0.29584809884E+02  0.00000000000E+00 0.  1.
          2   -1    0    0  501    0  0.00000000000E+00 -0.00000000000E+00 -0.25179815965E+03  0.25179815965E+03  0.00000000000E+00 0. -1.
         24    1    1    2    0    0 -0.12624766450E+01  0.20039695521E+02 -0.15033023268E+03  0.17166705583E+03  0.80419002446E+02 0. -1.
        -24    1    1    2    0    0  0.12624766450E+01 -0.20039695521E+02 -0.71883117079E+02  0.10971591370E+03  0.80419002446E+02 0.  1.
<mgrwt>
<rscale>  0 0.82887871E+02</rscale>
<asrwt>0</asrwt>
<pdfrwt beam="1">  1        2 0.38738179E-01 0.82887871E+02</pdfrwt>
<pdfrwt beam="2">  1       -2 0.45515092E-02 0.82887871E+02</pdfrwt>
<totfact> 0.26277394E+04</totfact>
</mgrwt>
</event>
<event>
 4    1  0.6602701E-002  0.1186160E+03  0.7546771E-02  0.1245398E+00
         -2   -1    0    0    0  501 -0.00000000000E+00  0.00000000000E+00  0.14839904531E+02  0.14839904531E+02  0.00000000000E+00 0.  1.
          2   -1    0    0  501    0  0.00000000000E+00 -0.00000000000E+00 -0.14296601922E+04  0.14296601922E+04  0.00000000000E+00 0. -1.
         24    1    1    2    0    0 -0.87192497560E+02  0.89450612936E-01 -0.11265849551E+04  0.11328121718E+04  0.80419002446E+02 0. -1.
        -24    1    1    2    0    0  0.87192497560E+02 -0.89450612936E-01 -0.28823533254E+03  0.31168792487E+03  0.80419002446E+02 0.  1.
<mgrwt>
<rscale>  0 0.11861600E+03</rscale>
<asrwt>0</asrwt>
<pdfrwt beam="1">  1        2 0.21994773E+00 0.11861600E+03</pdfrwt>
<pdfrwt beam="2">  1       -2 0.22830622E-02 0.11861600E+03</pdfrwt>
<totfact> 0.91755806E+03</totfact>
</mgrwt>
</event>
<event>
 4    1  0.6602701E-002  0.8241129E+02  0.7546771E-02  0.1322345E+00
         -2   -1    0    0    0  501 -0.00000000000E+00  0.00000000000E+00  0.17644358490E+03  0.17644358490E+03  0.00000000000E+00 0.  1.
          2   -1    0    0  501    0  0.00000000000E+00 -0.00000000000E+00 -0.73968854855E+02  0.73968854855E+02  0.00000000000E+00 0. -1.
         24    1    1    2    0    0 -0.44709651499E+01  0.17447487548E+02 -0.35473918195E+02  0.89721899097E+02  0.80419002446E+02 0. -1.
        -24    1    1    2    0    0  0.44709651499E+01 -0.17447487548E+02  0.13794864824E+03  0.16069054066E+03  0.80419002446E+02 0.  1.
<mgrwt>
<rscale>  0 0.82411287E+02</rscale>
<asrwt>0</asrwt>
<pdfrwt beam="1">  1        2 0.11379824E-01 0.82411287E+02</pdfrwt>
<pdfrwt beam="2">  1       -2 0.27145167E-01 0.82411287E+02</pdfrwt>
<totfact> 0.60864630E+03</totfact>
</mgrwt>
</event>
<event>
 4    1  0.6602701E-002  0.1723195E+03  0.7546771E-02  0.1175450E+00
         -1   -1    0    0    0  501 -0.00000000000E+00  0.00000000000E+00  0.73897853127E+02  0.73897853127E+02  0.00000000000E+00 0.  1.
          1   -1    0    0  501    0  0.00000000000E+00 -0.00000000000E+00 -0.89329349883E+03  0.89329349883E+03  0.00000000000E+00 0. -1.
         24    1    1    2    0    0  0.29494313297E+02 -0.14952213355E+03 -0.50996315972E+02  0.17970704810E+03  0.80419002446E+02 0.  1.
        -24    1    1    2    0    0 -0.29494313297E+02  0.14952213355E+03 -0.76839932973E+03  0.78748430386E+03  0.80419002446E+02 0. -1.
<mgrwt>
<rscale>  0 0.17231947E+03</rscale>
<asrwt>0</asrwt>
<pdfrwt beam="1">  1        1 0.13742977E+00 0.17231947E+03</pdfrwt>
<pdfrwt beam="2">  1       -1 0.11368901E-01 0.17231947E+03</pdfrwt>
<totfact> 0.96833031E+02</totfact>
</mgrwt>
</event>
<event>
 4    1  0.6602701E-002  0.8264412E+02  0.7546771E-02  0.1321711E+00
         -2   -1    0    0    0  501 -0.00000000000E+00  0.00000000000E+00  0.19013914859E+02  0.19013914859E+02  0.00000000000E+00 0.  1.
          2   -1    0    0  501    0  0.00000000000E+00 -0.00000000000E+00 -0.47166863577E+03  0.47166863577E+03  0.00000000000E+00 0. -1.
         24    1    1    2    0    0  0.18036543104E+02  0.61251208133E+01 -0.34612334747E+03  0.35585308992E+03  0.80419002446E+02 0. -1.
        -24    1    1    2    0    0 -0.18036543104E+02 -0.61251208133E+01 -0.10653137345E+03  0.13482946071E+03  0.80419002446E+02 0.  1.
<mgrwt>
<rscale>  0 0.82644116E+02</rscale>
<asrwt>0</asrwt>
<pdfrwt beam="1">  1        2 0.72564399E-01 0.82644116E+02</pdfrwt>
<pdfrwt beam="2">  1       -2 0.29252179E-02 0.82644116E+02</pdfrwt>
<totfact> 0.25976521E+04</totfact>
</mgrwt>
</event>
<event>
 4    1  0.6602701E-002  0.1104397E+03  0.7546771E-02  0.1259758E+00
          1   -1    0    0  501    0  0.00000000000E+00  0.00000000000E+00  0.17719205667E+03  0.17719205667E+03  0.00000000000E+00 0. -1.
         -1   -1    0    0    0  501 -0.00000000000E+00 -0.00000000000E+00 -0.15544124236E+03  0.15544124236E+03  0.00000000000E+00 0.  1.
         24    1    1    2    0    0  0.64314959325E+02 -0.39916078991E+02 -0.11326938241E+03  0.15819885050E+03  0.80419002446E+02 0.  1.
        -24    1    1    2    0    0 -0.64314959325E+02  0.39916078991E+02  0.13502019672E+03  0.17443444853E+03  0.80419002446E+02 0. -1.
<mgrwt>
<rscale>  0 0.11043968E+03</rscale>
<asrwt>0</asrwt>
<pdfrwt beam="1">  1        1 0.27260316E-01 0.11043968E+03</pdfrwt>
<pdfrwt beam="2">  1       -1 0.23914037E-01 0.11043968E+03</pdfrwt>
<totfact> 0.24697148E+03</totfact>
</mgrwt>
</event>
<event>
 4    1  0.6602701E-002  0.8160131E+02  0.7546771E-02  0.1324568E+00
         -2   -1    0    0    0  501 -0.00000000000E+00  0.00000000000E+00  0.89694588535E+02  0.89694588535E+02  0.00000000000E+00 0.  1.
          2   -1    0    0  501    0  0.00000000000E+00 -0.00000000000E+00 -0.15966159625E+03  0.15966159625E+03  0.00000000000E+00 0. -1.
         24    1    1    2    0    0 -0.71567398990E+00  0.13821935075E+02 -0.12617998282E+03  0.15026696942E+03  0.80419002446E+02 0. -1.
        -24    1    1    2    0    0  0.71567398990E+00 -0.13821935075E+02  0.56212975105E+02  0.99089215372E+02  0.80419002446E+02 0.  1.
<mgrwt>
<rscale>  0 0.81601311E+02</rscale>
<asrwt>0</asrwt>
<pdfrwt beam="1">  1        2 0.24563322E-01 0.81601311E+02</pdfrwt>
<pdfrwt beam="2">  1       -2 0.13799168E-01 0.81601311E+02</pdfrwt>
<totfact> 0.78281961E+03</totfact>
</mgrwt>
</event>
<event>
 4    1  0.6602701E-002  0.1085606E+03  0.7546771E-02  0.1263259E+00
         -2   -1    0    0    0  501 -0.00000000000E+00  0.00000000000E+00  0.64326372753E+02  0.64326372753E+02  0.00000000000E+00 0.  1.
          2   -1    0    0  501    0  0.00000000000E+00 -0.00000000000E+00 -0.20175489933E+03  0.20175489933E+03  0.00000000000E+00 0. -1.
         24    1    1    2    0    0 -0.33544233827E+01 -0.72848782926E+02 -0.10904647212E+03  0.15387185047E+03  0.80419002446E+02 0.  0.
        -24    1    1    2    0    0  0.33544233827E+01  0.72848782926E+02 -0.28382054459E+02  0.11220942162E+03  0.80419002446E+02 0.  1.
<mgrwt>
<rscale>  0 0.10856064E+03</rscale>
<asrwt>0</asrwt>
<pdfrwt beam="1">  1        2 0.31039215E-01 0.10856064E+03</pdfrwt>
<pdfrwt beam="2">  1       -2 0.98963653E-02 0.10856064E+03</pdfrwt>
<totfact> 0.10536250E+04</totfact>
</mgrwt>
</event>
<event>
 4    1  0.6602701E-002  0.1191050E+03  0.7546771E-02  0.1244581E+00
          2   -1    0    0  501    0  0.00000000000E+00  0.00000000000E+00  0.16748360699E+03  0.16748360699E+03  0.00000000000E+00 0. -1.
         -2   -1    0    0    0  501 -0.00000000000E+00 -0.00000000000E+00 -0.27143856873E+03  0.27143856873E+03  0.00000000000E+00 0.  1.
         24    1    1    2    0    0  0.10296240485E+02 -0.87251180463E+02  0.13005036156E+03  0.17634935088E+03  0.80419002446E+02 0. -1.
        -24    1    1    2    0    0 -0.10296240485E+02  0.87251180463E+02 -0.23400532330E+03  0.26257282484E+03  0.80419002446E+02 0.  1.
<mgrwt>
<rscale>  0 0.11910498E+03</rscale>
<asrwt>0</asrwt>
<pdfrwt beam="1">  1        2 0.25766709E-01 0.11910498E+03</pdfrwt>
<pdfrwt beam="2">  1       -2 0.41759780E-01 0.11910498E+03</pdfrwt>
<totfact> 0.11158919E+03</totfact>
</mgrwt>
</event>
<event>
 4    1  0.6602701E-002  0.8379048E+02  0.7546771E-02  0.1318626E+00
          3   -1    0    0  501    0  0.00000000000E+00  0.00000000000E+00  0.47506762645E+02  0.47506762645E+02  0.00000000000E+00 0. -1.
         -3   -1    0    0    0  501 -0.00000000000E+00 -0.00000000000E+00 -0.17231160695E+03  0.17231160695E+03  0.00000000000E+00 0.  1.
         24    1    1    2    0    0  0.22502809952E+02 -0.68739872917E+01 -0.10386772072E+03  0.13345166736E+03  0.80419002446E+02 0.  0.
        -24    1    1    2    0    0 -0.22502809952E+02  0.68739872917E+01 -0.20937123578E+02  0.86366702236E+02  0.80419002446E+02 0.  0.
<mgrwt>
<rscale>  0 0.83790477E+02</rscale>
<asrwt>0</asrwt>
<pdfrwt beam="1">  1        3 0.73087327E-02 0.83790477E+02</pdfrwt>
<pdfrwt beam="2">  1       -3 0.26509478E-01 0.83790477E+02</pdfrwt>
<totfact> 0.34484921E+03</totfact>
</mgrwt>
</event>
<event>
 4    1  0.6602701E-002  0.8184966E+02  0.7546771E-02  0.1323883E+00
          2   -1    0    0  501    0  0.00000000000E+00  0.00000000000E+00  0.95876975635E+02  0.95876975635E+02  0.00000000000E+00 0. -1.
         -2   -1    0    0    0  501 -0.00000000000E+00 -0.00000000000E+00 -0.10372836998E+04  0.10372836998E+04  0.00000000000E+00 0.  1.
         24    1    1    2    0    0 -0.15064134224E+02 -0.22854559279E+01  0.76460997924E+02  0.11200737300E+03  0.80419002446E+02 0. -1.
        -24    1    1    2    0    0  0.15064134224E+02  0.22854559279E+01 -0.10178677221E+04  0.10211533024E+04  0.80419002446E+02 0.  1.
<mgrwt>
<rscale>  0 0.81849663E+02</rscale>
<asrwt>0</asrwt>
<pdfrwt beam="1">  1        2 0.14750304E-01 0.81849663E+02</pdfrwt>
<pdfrwt beam="2">  1       -2 0.15958211E+00 0.81849663E+02</pdfrwt>
<totfact> 0.10871238E+02</totfact>
</mgrwt>
</event>
<event>
 4    1  0.6602701E-002  0.1138023E+03  0.7546771E-02  0.1253686E+00
         -4   -1    0    0    0  501 -0.00000000000E+00  0.00000000000E+00  0.37635023859E+03  0.37635023859E+03  0.00000000000E+00 0.  1.
          4   -1    0    0  501    0  0.00000000000E+00 -0.00000000000E+00 -0.78641717548E+02  0.78641717548E+02  0.00000000000E+00 0. -1.
         24    1    1    2    0    0 -0.79132590969E+02  0.14892512066E+02 -0.21755644218E+02  0.11586318604E+03  0.80419002446E+02 0. -1.
        -24    1    1    2    0    0  0.79132590969E+02 -0.14892512066E+02  0.31946416526E+03  0.33912877010E+03  0.80419002446E+02 0.  1.
<mgrwt>
<rscale>  0 0.11380233E+03</rscale>
<asrwt>0</asrwt>
<pdfrwt beam="1">  1        4 0.12098726E-01 0.11380233E+03</pdfrwt>
<pdfrwt beam="2">  1       -4 0.57900036E-01 0.11380233E+03</pdfrwt>
<totfact> 0.25271903E+02</totfact>
</mgrwt>
</event>
<event>
 4    1  0.6602701E-002  0.1082830E+03  0.7546771E-02  0.1263783E+00
          1   -1    0    0  501    0  0.00000000000E+00  0.00000000000E+00  0.15809844578E+04  0.15809844578E+04  0.00000000000E+00 0. -1.
         -1   -1    0    0    0  501 -0.00000000000E+00 -0.00000000000E+00 -0.83942423437E+01  0.83942423437E+01  0.00000000000E+00 0.  1.
         24    1    1    2    0    0 -0.47249548605E+02 -0.55004285872E+02  0.51506250855E+03  0.52632175993E+03  0.80419002446E+02 0.  1.
        -24    1    1    2    0    0  0.47249548605E+02  0.55004285872E+02  0.10575277069E+04  0.10630569402E+04  0.80419002446E+02 0.  0.
<mgrwt>
<rscale>  0 0.10828300E+03</rscale>
<asrwt>0</asrwt>
<pdfrwt beam="1">  1        1 0.24322814E+00 0.10828300E+03</pdfrwt>
<pdfrwt beam="2">  1       -1 0.12914232E-02 0.10828300E+03</pdfrwt>
<totfact> 0.79452845E+03</totfact>
</mgrwt>
</event>
<event>
 4    1  0.6602701E-002  0.1475150E+03  0.7546771E-02  0.1203560E+00
         -2   -1    0    0    0  501 -0.00000000000E+00  0.00000000000E+00  0.12753949954E+02  0.12753949954E+02  0.00000000000E+00 0.  1.
          2   -1    0    0  501    0  0.00000000000E+00 -0.00000000000E+00 -0.17448812234E+04  0.17448812234E+04  0.00000000000E+00 0. -1.
         24    1    1    2    0    0 -0.17779100713E+00 -0.12366657364E+03 -0.73520002586E+03  0.74985315031E+03  0.80419002446E+02 0.  0.
        -24    1    1    2    0    0  0.17779100713E+00  0.12366657364E+03 -0.99692724762E+03  0.10077820231E+04  0.80419002446E+02 0.  0.
<mgrwt>
<rscale>  0 0.14751500E+03</rscale>
<asrwt>0</asrwt>
<pdfrwt beam="1">  1        2 0.26844318E+00 0.14751502E+03</pdfrwt>
<pdfrwt beam="2">  1       -2 0.19621468E-02 0.14751502E+03</pdfrwt>
<totfact> 0.79247520E+03</totfact>
</mgrwt>
</event>
<event>
 4    1  0.6602701E-002  0.1170971E+03  0.7546771E-02  0.1247964E+00
         -3   -1    0    0    0  501 -0.00000000000E+00  0.00000000000E+00  0.25098542215E+03  0.25098542215E+03  0.00000000000E+00 0.  1.
          3   -1    0    0  501    0  0.00000000000E+00 -0.00000000000E+00 -0.57306924357E+02  0.57306924357E+02  0.00000000000E+00 0. -1.
         24    1    1    2    0    0 -0.73779440958E+02  0.42439396510E+02  0.13014513252E+03  0.17506992819E+03  0.80419002446E+02 0.  1.
        -24    1    1    2    0    0  0.73779440958E+02 -0.42439396510E+02  0.63533365273E+02  0.13322241831E+03  0.80419002446E+02 0. -1.
<mgrwt>
<rscale>  0 0.11709707E+03</rscale>
<asrwt>0</asrwt>
<pdfrwt beam="1">  1        3 0.88164500E-02 0.11709707E+03</pdfrwt>
<pdfrwt beam="2">  1       -3 0.38613141E-01 0.11709707E+03</pdfrwt>
<totfact> 0.13559057E+03</totfact>
</mgrwt>
</event>
<event>
 4    1  0.6726008E-002  0.8281106E+02  0.7546771E-02  0.1321258E+00
          1   -1    0    0  501    0  0.00000000000E+00  0.00000000000E+00  0.18615552583E+03  0.18615552583E+03  0.00000000000E+00 0. -1.
         -1   -1    0    0    0  501 -0.00000000000E+00 -0.00000000000E+00 -0.11624847830E+03  0.11624847830E+03  0.00000000000E+00 0.  1.
         24    1    1    2    0    0  0.10305148015E+02  0.16859986022E+02 -0.90015311968E+02  0.12231282659E+03  0.80419002446E+02 0.  1.
        -24    1    1    2    0    0 -0.10305148015E+02 -0.16859986022E+02  0.15992235950E+03  0.18009117754E+03  0.80419002446E+02 0. -1.
<mgrwt>
<rscale>  0 0.82811057E+02</rscale>
<asrwt>0</asrwt>
<pdfrwt beam="1">  1        1 0.28639312E-01 0.82811057E+02</pdfrwt>
<pdfrwt beam="2">  1       -1 0.17884381E-01 0.82811057E+02</pdfrwt>
<totfact> 0.36357664E+03</totfact>
</mgrwt>
</event>
<event>
 4    1  0.6602701E-002  0.1572269E+03  0.7546771E-02  0.1191864E+00
         -1   -1    0    0    0  501 -0.00000000000E+00  0.00000000000E+00  0.78386064279E+02  0.78386064279E+02  0.00000000000E+00 0.  1.
          1   -1    0    0  501    0  0.00000000000E+00 -0.00000000000E+00 -0.68244864860E+03  0.68244864860E+03  0.00000000000E+00 0. -1.
         24    1    1    2    0    0  0.12890809464E+03 -0.40444761748E+02 -0.23029288153E+02  0.15890449863E+03  0.80419002446E+02 0.  1.
        -24    1    1    2    0    0 -0.12890809464E+03  0.40444761748E+02 -0.58103329617E+03  0.60193021425E+03  0.80419002446E+02 0. -1.
<mgrwt>
<rscale>  0 0.15722688E+03</rscale>
<asrwt>0</asrwt>
<pdfrwt beam="1">  1        1 0.10499210E+00 0.15722688E+03</pdfrwt>
<pdfrwt beam="2">  1       -1 0.12059394E-01 0.15722688E+03</pdfrwt>
<totfact> 0.13251340E+03</totfact>
</mgrwt>
</event>
<event>
 4    1  0.6602701E-002  0.8817674E+02  0.7546771E-02  0.1307328E+00
         -4   -1    0    0    0  501 -0.00000000000E+00  0.00000000000E+00  0.40243484535E+02  0.40243484535E+02  0.00000000000E+00 0.  1.
          4   -1    0    0  501    0  0.00000000000E+00 -0.00000000000E+00 -0.26796898864E+03  0.26796898864E+03  0.00000000000E+00 0. -1.
         24    1    1    2    0    0 -0.36158389643E+02 -0.70113453774E+00 -0.19526413985E+03  0.21425036988E+03  0.80419002446E+02 0. -1.
        -24    1    1    2    0    0  0.36158389643E+02  0.70113453774E+00 -0.32461364260E+02  0.93962103293E+02  0.80419002446E+02 0.  1.
<mgrwt>
<rscale>  0 0.88176736E+02</rscale>
<asrwt>0</asrwt>
<pdfrwt beam="1">  1        4 0.41225997E-01 0.88176736E+02</pdfrwt>
<pdfrwt beam="2">  1       -4 0.61913055E-02 0.88176736E+02</pdfrwt>
<totfact> 0.14357316E+03</totfact>
</mgrwt>
</event>
<event>
 4    1  0.6602701E-002  0.9423000E+02  0.7546771E-02  0.1292920E+00
          1   -1    0    0  501    0  0.00000000000E+00  0.00000000000E+00  0.44101368575E+03  0.44101368575E+03  0.00000000000E+00 0. -1.
         -1   -1    0    0    0  501 -0.00000000000E+00 -0.00000000000E+00 -0.20133890458E+02  0.20133890458E+02  0.00000000000E+00 0.  1.
         24    1    1    2    0    0 -0.39006679631E+02 -0.29842093028E+02  0.21088917711E+03  0.23098383612E+03  0.80419002446E+02 0. -1.
        -24    1    1    2    0    0  0.39006679631E+02  0.29842093028E+02  0.20999061818E+03  0.23016374009E+03  0.80419002446E+02 0.  1.
<mgrwt>
<rscale>  0 0.94229983E+02</rscale>
<asrwt>0</asrwt>
<pdfrwt beam="1">  1        1 0.67848252E-01 0.94229995E+02</pdfrwt>
<pdfrwt beam="2">  1       -1 0.30975219E-02 0.94229995E+02</pdfrwt>
<totfact> 0.17458787E+04</totfact>
</mgrwt>
</event>
<event>
 4    1  0.6602701E-002  0.1018798E+03  0.7546771E-02  0.1276392E+00
         -1   -1    0    0    0  501 -0.00000000000E+00  0.00000000000E+00  0.12834856928E+02  0.12834856928E+02  0.00000000000E+00 0.  1.
          1   -1    0    0  501    0  0.00000000000E+00 -0.00000000000E+00 -0.11820237758E+04  0.11820237758E+04  0.00000000000E+00 0. -1.
         24    1    1    2    0    0  0.42240862384E+01 -0.62405349350E+02 -0.24884210057E+03  0.26889008442E+03  0.80419002446E+02 0. -1.
        -24    1    1    2    0    0 -0.42240862384E+01  0.62405349350E+02 -0.92034681833E+03  0.92596854833E+03  0.80419002446E+02 0. -1.
<mgrwt>
<rscale>  0 0.10187976E+03</rscale>
<asrwt>0</asrwt>
<pdfrwt beam="1">  1        1 0.18184982E+00 0.10187976E+03</pdfrwt>
<pdfrwt beam="2">  1       -1 0.19745933E-02 0.10187976E+03</pdfrwt>
<totfact> 0.78835114E+03</totfact>
</mgrwt>
</event>
<event>
 4    1  0.6602701E-002  0.8685100E+02  0.7546771E-02  0.1310662E+00
          1   -1    0    0  501    0  0.00000000000E+00  0.00000000000E+00  0.72586426934E+03  0.72586426934E+03  0.00000000000E+00 0. -1.
         -1   -1    0    0    0  501 -0.00000000000E+00 -0.00000000000E+00 -0.25199717583E+02  0.25199717583E+02  0.00000000000E+00 0.  1.
         24    1    1    2    0    0 -0.23777055822E+02  0.22594951994E+02  0.62463281663E+02  0.10698017456E+03  0.80419002446E+02 0.  1.
        -24    1    1    2    0    0  0.23777055822E+02 -0.22594951994E+02  0.63820127009E+03  0.64408381236E+03  0.80419002446E+02 0. -1.
<mgrwt>
<rscale>  0 0.86851000E+02</rscale>
<asrwt>0</asrwt>
<pdfrwt beam="1">  1        1 0.11167141E+00 0.86851000E+02</pdfrwt>
<pdfrwt beam="2">  1       -1 0.38768802E-02 0.86851000E+02</pdfrwt>
<totfact> 0.64729259E+03</totfact>
</mgrwt>
</event>
<event>
 4    1  0.6602701E-002  0.9784965E+02  0.7546771E-02  0.1284884E+00
          1   -1    0    0  501    0  0.00000000000E+00  0.00000000000E+00  0.15403594735E+03  0.15403594735E+03  0.00000000000E+00 0. -1.
         -1   -1    0    0    0  501 -0.00000000000E+00 -0.00000000000E+00 -0.67600556158E+02  0.67600556158E+02  0.00000000000E+00 0.  1.
         24    1    1    2    0    0  0.55732238001E+02  0.11187157309E+01  0.74661994415E+02  0.12308112464E+03  0.80419002446E+02 0.  0.
        -24    1    1    2    0    0 -0.55732238001E+02 -0.11187157309E+01  0.11773396772E+02  0.98555378866E+02  0.80419002446E+02 0. -1.
<mgrwt>
<rscale>  0 0.97849641E+02</rscale>
<asrwt>0</asrwt>
<pdfrwt beam="1">  1        1 0.23697838E-01 0.97849653E+02</pdfrwt>
<pdfrwt beam="2">  1       -1 0.10400086E-01 0.97849653E+02</pdfrwt>
<totfact> 0.10729275E+04</totfact>
</mgrwt>
</event>
<event>
 4    1  0.6602701E-002  0.8338540E+02  0.7546771E-02  0.1319710E+00
         -2   -1    0    0    0  501 -0.00000000000E+00  0.00000000000E+00  0.14091404243E+02  0.14091404243E+02  0.00000000000E+00 0.  1.
          2   -1    0    0  501    0  0.00000000000E+00 -0.00000000000E+00 -0.91742346830E+03  0.91742346830E+03  0.00000000000E+00 0. -1.
         24    1    1    2    0    0  0.20928089060E+02  0.69226666927E+01 -0.76829771114E+03  0.77280948307E+03  0.80419002446E+02 0. -1.
        -24    1    1    2    0    0 -0.20928089060E+02 -0.69226666927E+01 -0.13503435292E+03  0.15870538947E+03  0.80419002446E+02 0.  0.
<mgrwt>
<rscale>  0 0.83385395E+02</rscale>
<asrwt>0</asrwt>
<pdfrwt beam="1">  1        2 0.14114212E+00 0.83385395E+02</pdfrwt>
<pdfrwt beam="2">  1       -2 0.21679076E-02 0.83385395E+02</pdfrwt>
<totfact> 0.18596414E+04</totfact>
</mgrwt>
</event>
<event>
 4    1  0.6602701E-002  0.8419924E+02  0.7546771E-02  0.1317540E+00
          1   -1    0    0  501    0  0.00000000000E+00  0.00000000000E+00  0.61745335351E+03  0.61745335351E+03  0.00000000000E+00 0. -1.
         -1   -1    0    0    0  501 -0.00000000000E+00 -0.00000000000E+00 -0.23278016600E+02  0.23278016600E+02  0.00000000000E+00 0.  1.
         24    1    1    2    0    0  0.22061475444E+02 -0.11644172763E+02  0.69030716295E+02  0.10887952610E+03  0.80419002446E+02 0.  1.
        -24    1    1    2    0    0 -0.22061475444E+02  0.11644172763E+02  0.52514462061E+03  0.53185184400E+03  0.80419002446E+02 0. -1.
<mgrwt>
<rscale>  0 0.84199236E+02</rscale>
<asrwt>0</asrwt>
<pdfrwt beam="1">  1        1 0.94992811E-01 0.84199236E+02</pdfrwt>
<pdfrwt beam="2">  1       -1 0.35812338E-02 0.84199236E+02</pdfrwt>
<totfact> 0.90595784E+03</totfact>
</mgrwt>
</event>
<event>
 4    1  0.6602701E-002  0.8122643E+02  0.7546771E-02  0.1325607E+00
         -1   -1    0    0    0  501 -0.00000000000E+00  0.00000000000E+00  0.85823235309E+02  0.85823235309E+02  0.00000000000E+00 0.  1.
          1   -1    0    0  501    0  0.00000000000E+00 -0.00000000000E+00 -0.10111482599E+03  0.10111482599E+03  0.00000000000E+00 0. -1.
         24    1    1    2    0    0  0.72801316411E+01  0.88043951680E+01  0.38117522967E+02  0.89725577192E+02  0.80419002446E+02 0.  1.
        -24    1    1    2    0    0 -0.72801316411E+01 -0.88043951680E+01 -0.53409113644E+02  0.97212484104E+02  0.80419002446E+02 0. -1.
<mgrwt>
<rscale>  0 0.81226434E+02</rscale>
<asrwt>0</asrwt>
<pdfrwt beam="1">  1        1 0.15556127E-01 0.81226434E+02</pdfrwt>
<pdfrwt beam="2">  1       -1 0.13203575E-01 0.81226434E+02</pdfrwt>
<totfact> 0.12438904E+04</totfact>
</mgrwt>
</event>
<event>
 4    1  0.6602701E-002  0.8730154E+02  0.7546771E-02  0.1309521E+00
         -1   -1    0    0    0  501 -0.00000000000E+00  0.00000000000E+00  0.34235995461E+03  0.34235995461E+03  0.00000000000E+00 0.  1.
          1   -1    0    0  501    0  0.00000000000E+00 -0.00000000000E+00 -0.22352080812E+02  0.22352080812E+02  0.00000000000E+00 0. -1.
         24    1    1    2    0    0  0.32862426461E+02 -0.86255466156E+01  0.14841576379E+03  0.17218825169E+03  0.80419002446E+02 0.  1.
        -24    1    1    2    0    0 -0.32862426461E+02  0.86255466156E+01  0.17159211001E+03  0.19252378372E+03  0.80419002446E+02 0. -1.
<mgrwt>
<rscale>  0 0.87301529E+02</rscale>
<asrwt>0</asrwt>
<pdfrwt beam="1">  1        1 0.34387819E-02 0.87301540E+02</pdfrwt>
<pdfrwt beam="2">  1       -1 0.52670758E-01 0.87301540E+02</pdfrwt>
<totfact> 0.94663967E+03</totfact>
</mgrwt>
</event>
<event>
 4    1  0.6602701E-002  0.8768256E+02  0.7546771E-02  0.1308563E+00
         -1   -1    0    0    0  501 -0.00000000000E+00  0.00000000000E+00  0.23961159440E+02  0.23961159440E+02  0.00000000000E+00 0.  1.
          1   -1    0    0  501    0  0.00000000000E+00 -0.00000000000E+00 -0.32919942158E+03  0.32919942158E+03  0.00000000000E+00 0. -1.
         24    1    1    2    0    0 -0.34942877504E+02  0.10698578455E+00 -0.12451815155E+03  0.15229248883E+03  0.80419002446E+02 0.  1.
        -24    1    1    2    0    0  0.34942877504E+02 -0.10698578455E+00 -0.18072011059E+03  0.20086809219E+03  0.80419002446E+02 0. -1.
<mgrwt>
<rscale>  0 0.87682564E+02</rscale>
<asrwt>0</asrwt>
<pdfrwt beam="1">  1        1 0.50646064E-01 0.87682564E+02</pdfrwt>
<pdfrwt beam="2">  1       -1 0.36863323E-02 0.87682564E+02</pdfrwt>
<totfact> 0.19360814E+04</totfact>
</mgrwt>
</event>
<event>
 4    1  0.6602701E-002  0.8543516E+02  0.7546771E-02  0.1314298E+00
          2   -1    0    0  501    0  0.00000000000E+00  0.00000000000E+00  0.81870549758E+02  0.81870549758E+02  0.00000000000E+00 0. -1.
         -2   -1    0    0    0  501 -0.00000000000E+00 -0.00000000000E+00 -0.18021204787E+03  0.18021204787E+03  0.00000000000E+00 0.  1.
         24    1    1    2    0    0  0.22364903407E+02 -0.18214339799E+02  0.43977160833E+02  0.96089321509E+02  0.80419002446E+02 0. -1.
        -24    1    1    2    0    0 -0.22364903407E+02  0.18214339799E+02 -0.14231865894E+03  0.16599327612E+03  0.80419002446E+02 0.  1.
<mgrwt>
<rscale>  0 0.85435163E+02</rscale>
<asrwt>0</asrwt>
<pdfrwt beam="1">  1        2 0.12595469E-01 0.85435163E+02</pdfrwt>
<pdfrwt beam="2">  1       -2 0.27724930E-01 0.85435163E+02</pdfrwt>
<totfact> 0.52166189E+03</totfact>
</mgrwt>
</event>
<event>
 4    1  0.6602701E-002  0.9562408E+02  0.7546771E-02  0.1289777E+00
         -1   -1    0    0    0  501 -0.00000000000E+00  0.00000000000E+00  0.14521617157E+02  0.14521617157E+02  0.00000000000E+00 0.  1.
          1   -1    0    0  501    0  0.00000000000E+00 -0.00000000000E+00 -0.63253274472E+03  0.63253274472E+03  0.00000000000E+00 0. -1.
         24    1    1    2    0    0  0.46980980425E+02 -0.21668663461E+02 -0.33073587341E+03  0.34428211893E+03  0.80419002446E+02 0. -1.
        -24    1    1    2    0    0 -0.46980980425E+02  0.21668663461E+02 -0.28727525415E+03  0.30277224294E+03  0.80419002446E+02 0.  1.
<mgrwt>
<rscale>  0 0.95624065E+02</rscale>
<asrwt>0</asrwt>
<pdfrwt beam="1">  1        1 0.97312700E-01 0.95624077E+02</pdfrwt>
<pdfrwt beam="2">  1       -1 0.22340956E-02 0.95624077E+02</pdfrwt>
<totfact> 0.17468752E+04</totfact>
</mgrwt>
</event>
<event>
 4    1  0.6602701E-002  0.1224313E+03  0.7546771E-02  0.1239139E+00
          2   -1    0    0  501    0  0.00000000000E+00  0.00000000000E+00  0.59806857712E+03  0.59806857712E+03  0.00000000000E+00 0. -1.
         -2   -1    0    0    0  501 -0.00000000000E+00 -0.00000000000E+00 -0.26810574778E+02  0.26810574778E+02  0.00000000000E+00 0.  1.
         24    1    1    2    0    0  0.32417849490E+02 -0.86436605350E+02  0.36539637043E+03  0.38536207284E+03  0.80419002446E+02 0. -1.
        -24    1    1    2    0    0 -0.32417849490E+02  0.86436605350E+02  0.20586163192E+03  0.23951707906E+03  0.80419002446E+02 0.  1.
<mgrwt>
<rscale>  0 0.12243129E+03</rscale>
<asrwt>0</asrwt>
<pdfrwt beam="1">  1        2 0.92010540E-01 0.12243129E+03</pdfrwt>
<pdfrwt beam="2">  1       -2 0.41247043E-02 0.12243129E+03</pdfrwt>
<totfact> 0.12543281E+04</totfact>
</mgrwt>
</event>
<event>
 4    1  0.6602701E-002  0.8628125E+02  0.7546771E-02  0.1312116E+00
          2   -1    0    0  501    0  0.00000000000E+00  0.00000000000E+00  0.77634489654E+03  0.77634489654E+03  0.00000000000E+00 0. -1.
         -2   -1    0    0    0  501 -0.00000000000E+00 -0.00000000000E+00 -0.10046263390E+02  0.10046263390E+02  0.00000000000E+00 0.  1.
         24    1    1    2    0    0 -0.47620405274E+01  0.30895968720E+02  0.46702556512E+03  0.47492876555E+03  0.80419002446E+02 0. -1.
        -24    1    1    2    0    0  0.47620405274E+01 -0.30895968720E+02  0.29927306803E+03  0.31146239438E+03  0.80419002446E+02 0.  1.
<mgrwt>
<rscale>  0 0.86281249E+02</rscale>
<asrwt>0</asrwt>
<pdfrwt beam="1">  1        2 0.11943763E+00 0.86281249E+02</pdfrwt>
<pdfrwt beam="2">  1       -2 0.15455796E-02 0.86281249E+02</pdfrwt>
<totfact> 0.37270715E+04</totfact>
</mgrwt>
</event>
<event>
 4    1  0.6602701E-002  0.8365133E+02  0.7546771E-02  0.1318998E+00
         -1   -1    0    0    0  501 -0.00000000000E+00  0.00000000000E+00  0.15013771000E+02  0.15013771000E+02  0.00000000000E+00 0.  1.
          1   -1    0    0  501    0  0.00000000000E+00 -0.00000000000E+00 -0.66691681908E+03  0.66691681908E+03  0.00000000000E+00 0. -1.
         24    1    1    2    0    0 -0.98248582776E+01  0.20827888680E+02 -0.13883966553E+03  0.16209255833E+03  0.80419002446E+02 0.  1.
        -24    1    1    2    0    0  0.98248582776E+01 -0.20827888680E+02 -0.51306338255E+03  0.51983803175E+03  0.80419002446E+02 0. -1.
<mgrwt>
<rscale>  0 0.83651328E+02</rscale>
<asrwt>0</asrwt>
<pdfrwt beam="1">  1        1 0.10260256E+00 0.83651328E+02</pdfrwt>
<pdfrwt beam="2">  1       -1 0.23098115E-02 0.83651328E+02</pdfrwt>
<totfact> 0.15300445E+04</totfact>
</mgrwt>
</event>
<event>
 4    1  0.6602701E-002  0.8896671E+02  0.7546771E-02  0.1305373E+00
          2   -1    0    0  501    0  0.00000000000E+00  0.00000000000E+00  0.26314133871E+04  0.26314133871E+04  0.00000000000E+00 0. -1.
         -2   -1    0    0    0  501 -0.00000000000E+00 -0.00000000000E+00 -0.41819705085E+01  0.41819705085E+01  0.00000000000E+00 0.  1.
         24    1    1    2    0    0  0.38044032593E+02 -0.71513176816E+00  0.20118513428E+04  0.20138174946E+04  0.80419002446E+02 0. -1.
        -24    1    1    2    0    0 -0.38044032593E+02  0.71513176816E+00  0.61538007376E+03  0.62177786304E+03  0.80419002446E+02 0.  1.
<mgrwt>
<rscale>  0 0.88966712E+02</rscale>
<asrwt>0</asrwt>
<pdfrwt beam="1">  1        2 0.40483151E+00 0.88966712E+02</pdfrwt>
<pdfrwt beam="2">  1       -2 0.64338218E-03 0.88966712E+02</pdfrwt>
<totfact> 0.13342769E+04</totfact>
</mgrwt>
</event>
<event>
 4    1  0.6602701E-002  0.8073357E+02  0.7546771E-02  0.1326982E+00
         -2   -1    0    0    0  501 -0.00000000000E+00  0.00000000000E+00  0.59317150174E+02  0.59317150174E+02  0.00000000000E+00 0.  1.
          2   -1    0    0  501    0  0.00000000000E+00 -0.00000000000E+00 -0.12722960812E+04  0.12722960812E+04  0.00000000000E+00 0. -1.
         24    1    1    2    0    0 -0.68360985553E+01 -0.19903401184E+01 -0.12428956208E+04  0.12455149272E+04  0.80419002446E+02 0. -1.
        -24    1    1    2    0    0  0.68360985553E+01  0.19903401184E+01  0.29916689794E+02  0.86098304163E+02  0.80419002446E+02 0.  1.
<mgrwt>
<rscale>  0 0.80733572E+02</rscale>
<asrwt>0</asrwt>
<pdfrwt beam="1">  1        2 0.19573784E+00 0.80733572E+02</pdfrwt>
<pdfrwt beam="2">  1       -2 0.91257163E-02 0.80733572E+02</pdfrwt>
<totfact> 0.14013099E+03</totfact>
</mgrwt>
</event>
<event>
 4    1  0.6602701E-002  0.1240123E+03  0.7546771E-02  0.1236621E+00
         -2   -1    0    0    0  501 -0.00000000000E+00  0.00000000000E+00  0.11644595636E+03  0.11644595636E+03  0.00000000000E+00 0.  1.
          2   -1    0    0  501    0  0.00000000000E+00 -0.00000000000E+00 -0.21857432387E+03  0.21857432387E+03  0.00000000000E+00 0. -1.
         24    1    1    2    0    0 -0.19597653897E+01 -0.94382208791E+02 -0.15644451629E+03  0.19963452769E+03  0.80419002446E+02 0. -1.
        -24    1    1    2    0    0  0.19597653897E+01  0.94382208791E+02  0.54316148781E+02  0.13538575253E+03  0.80419002446E+02 0.  1.
<mgrwt>
<rscale>  0 0.12401233E+03</rscale>
<asrwt>0</asrwt>
<pdfrwt beam="1">  1        2 0.33626819E-01 0.12401233E+03</pdfrwt>
<pdfrwt beam="2">  1       -2 0.17914763E-01 0.12401233E+03</pdfrwt>
<totfact> 0.37563883E+03</totfact>
</mgrwt>
</event>
<event>
 4    1  0.6602701E-002  0.1232497E+03  0.7546771E-02  0.1237830E+00
          1   -1    0    0  501    0  0.00000000000E+00  0.00000000000E+00  0.17290893466E+03  0.17290893466E+03  0.00000000000E+00 0. -1.
         -1   -1    0    0    0  501 -0.00000000000E+00 -0.00000000000E+00 -0.12320977590E+03  0.12320977590E+03  0.00000000000E+00 0.  1.
         24    1    1    2    0    0  0.54395617310E+02  0.75923544691E+02 -0.54464924534E+02  0.13474758543E+03  0.80419002446E+02 0.  1.
        -24    1    1    2    0    0 -0.54395617310E+02 -0.75923544691E+02  0.10416408329E+03  0.16137112512E+03  0.80419002446E+02 0. -1.
<mgrwt>
<rscale>  0 0.12324968E+03</rscale>
<asrwt>0</asrwt>
<pdfrwt beam="1">  1        1 0.26601375E-01 0.12324968E+03</pdfrwt>
<pdfrwt beam="2">  1       -1 0.18955350E-01 0.12324968E+03</pdfrwt>
<totfact> 0.37213687E+03</totfact>
</mgrwt>
</event>
<event>
 4    1  0.6602701E-002  0.1246619E+03  0.7546771E-02  0.1235599E+00
          1   -1    0    0  501    0  0.00000000000E+00  0.00000000000E+00  0.24317353385E+03  0.24317353385E+03  0.00000000000E+00 0. -1.
         -1   -1    0    0    0  501 -0.00000000000E+00 -0.00000000000E+00 -0.13888308876E+03  0.13888308876E+03  0.00000000000E+00 0.  1.
         24    1    1    2    0    0  0.93279517859E+02  0.19295284528E+02 -0.88211505727E+02  0.15271497030E+03  0.80419002446E+02 0.  1.
        -24    1    1    2    0    0 -0.93279517859E+02 -0.19295284528E+02  0.19250195082E+03  0.22934165230E+03  0.80419002446E+02 0. -1.
<mgrwt>
<rscale>  0 0.12466191E+03</rscale>
<asrwt>0</asrwt>
<pdfrwt beam="1">  1        1 0.37411313E-01 0.12466191E+03</pdfrwt>
<pdfrwt beam="2">  1       -1 0.21366629E-01 0.12466191E+03</pdfrwt>
<totfact> 0.20141907E+03</totfact>
</mgrwt>
</event>
<event>
 4    1  0.6602701E-002  0.1195903E+03  0.7546771E-02  0.1243774E+00
          2   -1    0    0  501    0  0.00000000000E+00  0.00000000000E+00  0.15406013312E+03  0.15406013312E+03  0.00000000000E+00 0. -1.
         -2   -1    0    0    0  501 -0.00000000000E+00 -0.00000000000E+00 -0.15891869887E+03  0.15891869887E+03  0.00000000000E+00 0.  1.
         24    1    1    2    0    0 -0.80671517181E+02 -0.36424320137E+02  0.98484785782E+02  0.15492286392E+03  0.80419002446E+02 0. -1.
        -24    1    1    2    0    0  0.80671517181E+02  0.36424320137E+02 -0.10334335154E+03  0.15805596807E+03  0.80419002446E+02 0.  1.
<mgrwt>
<rscale>  0 0.11959030E+03</rscale>
<asrwt>0</asrwt>
<pdfrwt beam="1">  1        2 0.23701559E-01 0.11959030E+03</pdfrwt>
<pdfrwt beam="2">  1       -2 0.24449030E-01 0.11959030E+03</pdfrwt>
<totfact> 0.32321359E+03</totfact>
</mgrwt>
</event>
<event>
 4    1  0.6602701E-002  0.9111538E+02  0.7546771E-02  0.1300173E+00
         -1   -1    0    0    0  501 -0.00000000000E+00  0.00000000000E+00  0.15173372346E+04  0.15173372346E+04  0.00000000000E+00 0.  1.
          1   -1    0    0  501    0  0.00000000000E+00 -0.00000000000E+00 -0.15519876211E+02  0.15519876211E+02  0.00000000000E+00 0. -1.
         24    1    1    2    0    0 -0.40091149895E+01 -0.42646497928E+02  0.13676128547E+04  0.13706447144E+04  0.80419002446E+02 0.  1.
        -24    1    1    2    0    0  0.40091149895E+01  0.42646497928E+02  0.13420450369E+03  0.16221239643E+03  0.80419002446E+02 0. -1.
<mgrwt>
<rscale>  0 0.91115381E+02</rscale>
<asrwt>0</asrwt>
<pdfrwt beam="1">  1        1 0.23876745E-02 0.91115381E+02</pdfrwt>
<pdfrwt beam="2">  1       -1 0.23343638E+00 0.91115381E+02</pdfrwt>
<totfact> 0.46914764E+02</totfact>
</mgrwt>
</event>
<event>
 4    1  0.6602701E-002  0.1118838E+03  0.7546771E-02  0.1257121E+00
          2   -1    0    0  501    0  0.00000000000E+00  0.00000000000E+00  0.28326981887E+02  0.28326981887E+02  0.00000000000E+00 0. -1.
         -2   -1    0    0    0  501 -0.00000000000E+00 -0.00000000000E+00 -0.52983533950E+03  0.52983533950E+03  0.00000000000E+00 0.  1.
         24    1    1    2    0    0 -0.18268684308E+02  0.75611020830E+02 -0.13706577871E+03  0.17693223263E+03  0.80419002446E+02 0.  1.
        -24    1    1    2    0    0  0.18268684308E+02 -0.75611020830E+02 -0.36444257891E+03  0.38123008876E+03  0.80419002446E+02 0.  0.
<mgrwt>
<rscale>  0 0.11188381E+03</rscale>
<asrwt>0</asrwt>
<pdfrwt beam="1">  1        2 0.43579974E-02 0.11188381E+03</pdfrwt>
<pdfrwt beam="2">  1       -2 0.81513126E-01 0.11188381E+03</pdfrwt>
<totfact> 0.24381215E+03</totfact>
</mgrwt>
</event>
<event>
 4    1  0.6602701E-002  0.8870026E+02  0.7546771E-02  0.1306030E+00
         -2   -1    0    0    0  501 -0.00000000000E+00  0.00000000000E+00  0.11275505529E+02  0.11275505529E+02  0.00000000000E+00 0.  1.
          2   -1    0    0  501    0  0.00000000000E+00 -0.00000000000E+00 -0.75030319180E+03  0.75030319180E+03  0.00000000000E+00 0. -1.
         24    1    1    2    0    0  0.33438553470E+02  0.16804125306E+02 -0.26875683959E+03  0.28301584808E+03  0.80419002446E+02 0.  0.
        -24    1    1    2    0    0 -0.33438553470E+02 -0.16804125306E+02 -0.47027084668E+03  0.47856284924E+03  0.80419002446E+02 0.  0.
<mgrwt>
<rscale>  0 0.88700245E+02</rscale>
<asrwt>0</asrwt>
<pdfrwt beam="1">  1        2 0.11543125E+00 0.88700256E+02</pdfrwt>
<pdfrwt beam="2">  1       -2 0.17346933E-02 0.88700256E+02</pdfrwt>
<totfact> 0.33026500E+04</totfact>
</mgrwt>
</event>
<event>
 4    1  0.6602701E-002  0.9197547E+02  0.7546771E-02  0.1298137E+00
          1   -1    0    0  501    0  0.00000000000E+00  0.00000000000E+00  0.58883692867E+02  0.58883692867E+02  0.00000000000E+00 0. -1.
         -1   -1    0    0    0  501 -0.00000000000E+00 -0.00000000000E+00 -0.20331320313E+03  0.20331320313E+03  0.00000000000E+00 0.  1.
         24    1    1    2    0    0  0.40454677152E+02 -0.18859757804E+02 -0.14322415081E+03  0.17021352677E+03  0.80419002446E+02 0.  1.
        -24    1    1    2    0    0 -0.40454677152E+02  0.18859757804E+02 -0.12053594550E+01  0.91983369223E+02  0.80419002446E+02 0. -1.
<mgrwt>
<rscale>  0 0.91975471E+02</rscale>
<asrwt>0</asrwt>
<pdfrwt beam="1">  1        1 0.90590298E-02 0.91975471E+02</pdfrwt>
<pdfrwt beam="2">  1       -1 0.31278954E-01 0.91975471E+02</pdfrwt>
<totfact> 0.64164870E+03</totfact>
</mgrwt>
</event>
<event>
 4    1  0.6602701E-002  0.1065826E+03  0.7546771E-02  0.1267032E+00
          2   -1    0    0  501    0  0.00000000000E+00  0.00000000000E+00  0.41492991275E+04  0.41492991275E+04  0.00000000000E+00 0. -1.
         -2   -1    0    0    0  501 -0.00000000000E+00 -0.00000000000E+00 -0.30536991350E+01  0.30536991350E+01  0.00000000000E+00 0.  1.
         24    1    1    2    0    0 -0.52404564527E+02  0.46329251223E+02  0.27409151046E+04  0.27429865958E+04  0.80419002446E+02 0.  0.
        -24    1    1    2    0    0  0.52404564527E+02 -0.46329251223E+02  0.14053303237E+04  0.14093662308E+04  0.80419002446E+02 0.  1.
<mgrwt>
<rscale>  0 0.10658262E+03</rscale>
<asrwt>0</asrwt>
<pdfrwt beam="1">  1        2 0.63834920E+00 0.10658262E+03</pdfrwt>
<pdfrwt beam="2">  1       -2 0.46980319E-03 0.10658262E+03</pdfrwt>
<totfact> 0.22634598E+03</totfact>
</mgrwt>
</event>
<event>
 4    1  0.6602701E-002  0.9858997E+02  0.7546771E-02  0.1283289E+00
          2   -1    0    0  501    0  0.00000000000E+00  0.00000000000E+00  0.71882749132E+03  0.71882749132E+03  0.00000000000E+00 0. -1.
         -2   -1    0    0    0  501 -0.00000000000E+00 -0.00000000000E+00 -0.36406958832E+02  0.36406958832E+02  0.00000000000E+00 0.  1.
         24    1    1    2    0    0 -0.56986723458E+02 -0.22977374518E+01  0.64059848355E+03  0.64814072494E+03  0.80419002446E+02 0. -1.
        -24    1    1    2    0    0  0.56986723458E+02  0.22977374518E+01  0.41822048940E+02  0.10709372521E+03  0.80419002446E+02 0.  1.
<mgrwt>
<rscale>  0 0.98589970E+02</rscale>
<asrwt>0</asrwt>
<pdfrwt beam="1">  1        2 0.11058883E+00 0.98589970E+02</pdfrwt>
<pdfrwt beam="2">  1       -2 0.56010711E-02 0.98589970E+02</pdfrwt>
<totfact> 0.63359339E+03</totfact>
</mgrwt>
</event>
<event>
 4    1  0.6602701E-002  0.9067288E+02  0.7546771E-02  0.1301230E+00
         -3   -1    0    0    0  501 -0.00000000000E+00  0.00000000000E+00  0.11065047916E+04  0.11065047916E+04  0.00000000000E+00 0.  1.
          3   -1    0    0  501    0  0.00000000000E+00 -0.00000000000E+00 -0.10416509877E+02  0.10416509877E+02  0.00000000000E+00 0. -1.
         24    1    1    2    0    0  0.63481025398E+01 -0.41401179745E+02  0.84706230778E+03  0.85190147630E+03  0.80419002446E+02 0.  1.
        -24    1    1    2    0    0 -0.63481025398E+01  0.41401179745E+02  0.24902597396E+03  0.26501982521E+03  0.80419002446E+02 0. -1.
<mgrwt>
<rscale>  0 0.90672885E+02</rscale>
<asrwt>0</asrwt>
<pdfrwt beam="1">  1        3 0.16025409E-02 0.90672885E+02</pdfrwt>
<pdfrwt beam="2">  1       -3 0.17023141E+00 0.90672885E+02</pdfrwt>
<totfact> 0.72087147E+02</totfact>
</mgrwt>
</event>
<event>
 4    1  0.7840104E-002  0.9409451E+02  0.7546771E-02  0.1293229E+00
         -1   -1    0    0    0  501 -0.00000000000E+00  0.00000000000E+00  0.45539699532E+02  0.45539699532E+02  0.00000000000E+00 0.  1.
          1   -1    0    0  501    0  0.00000000000E+00 -0.00000000000E+00 -0.52900989868E+03  0.52900989868E+03  0.00000000000E+00 0. -1.
         24    1    1    2    0    0  0.12856865716E+02  0.47130259368E+02 -0.13268464493E+02  0.95025409489E+02  0.80419002446E+02 0.  0.
        -24    1    1    2    0    0 -0.12856865716E+02 -0.47130259368E+02 -0.47020173465E+03  0.47952418872E+03  0.80419002446E+02 0.  0.
<mgrwt>
<rscale>  0 0.94094507E+02</rscale>
<asrwt>0</asrwt>
<pdfrwt beam="1">  1        1 0.81386144E-01 0.94094507E+02</pdfrwt>
<pdfrwt beam="2">  1       -1 0.70061071E-02 0.94094507E+02</pdfrwt>
<totfact> 0.41946080E+03</totfact>
</mgrwt>
</event>
<event>
 4    1  0.6602701E-002  0.1285428E+03  0.7546771E-02  0.1229634E+00
         -2   -1    0    0    0  501 -0.00000000000E+00  0.00000000000E+00  0.11229530254E+02  0.11229530254E+02  0.00000000000E+00 0.  1.
          2   -1    0    0  501    0  0.00000000000E+00 -0.00000000000E+00 -0.25121589115E+04  0.25121589115E+04  0.00000000000E+00 0. -1.
         24    1    1    2    0    0  0.67657243624E+02 -0.74017072743E+02 -0.20625534434E+04  0.20665550931E+04  0.80419002446E+02 0. -1.
        -24    1    1    2    0    0 -0.67657243624E+02  0.74017072743E+02 -0.43837593780E+03  0.45683334869E+03  0.80419002446E+02 0.  1.
<mgrwt>
<rscale>  0 0.12854278E+03</rscale>
<asrwt>0</asrwt>
<pdfrwt beam="1">  1        2 0.38648600E+00 0.12854278E+03</pdfrwt>
<pdfrwt beam="2">  1       -2 0.17276200E-02 0.12854278E+03</pdfrwt>
<totfact> 0.38086630E+03</totfact>
</mgrwt>
</event>
<event>
 4    1  0.6602701E-002  0.8059305E+02  0.7546771E-02  0.1327377E+00
          2   -1    0    0  501    0  0.00000000000E+00  0.00000000000E+00  0.15740132757E+04  0.15740132757E+04  0.00000000000E+00 0. -1.
         -2   -1    0    0    0  501 -0.00000000000E+00 -0.00000000000E+00 -0.70247458650E+01  0.70247458650E+01  0.00000000000E+00 0.  1.
         24    1    1    2    0    0 -0.41663180763E+01  0.32658382887E+01  0.12912573174E+04  0.12937699562E+04  0.80419002446E+02 0.  0.
        -24    1    1    2    0    0  0.41663180763E+01 -0.32658382887E+01  0.27573121245E+03  0.28726806537E+03  0.80419002446E+02 0.  1.
<mgrwt>
<rscale>  0 0.80593051E+02</rscale>
<asrwt>0</asrwt>
<pdfrwt beam="1">  1        2 0.24215561E+00 0.80593051E+02</pdfrwt>
<pdfrwt beam="2">  1       -2 0.10807314E-02 0.80593051E+02</pdfrwt>
<totfact> 0.22048134E+04</totfact>
</mgrwt>
</event>
<event>
 4    1  0.6602701E-002  0.1277322E+03  0.7546771E-02  0.1230860E+00
         -1   -1    0    0    0  501 -0.00000000000E+00  0.00000000000E+00  0.65863336613E+02  0.65863336613E+02  0.00000000000E+00 0.  1.
          1   -1    0    0  501    0  0.00000000000E+00 -0.00000000000E+00 -0.50061868954E+03  0.50061868954E+03  0.00000000000E+00 0. -1.
         24    1    1    2    0    0  0.50938150945E+02 -0.85168138232E+02 -0.16061923101E+02  0.12873813856E+03  0.80419002446E+02 0. -1.
        -24    1    1    2    0    0 -0.50938150945E+02  0.85168138232E+02 -0.41869342982E+03  0.43774388759E+03  0.80419002446E+02 0.  0.
<mgrwt>
<rscale>  0 0.12773223E+03</rscale>
<asrwt>0</asrwt>
<pdfrwt beam="1">  1        1 0.77018258E-01 0.12773223E+03</pdfrwt>
<pdfrwt beam="2">  1       -1 0.10132821E-01 0.12773223E+03</pdfrwt>
<totfact> 0.26234732E+03</totfact>
</mgrwt>
</event>
<event>
 4    1  0.6602701E-002  0.9395972E+02  0.7546771E-02  0.1293536E+00
         -2   -1    0    0    0  501 -0.00000000000E+00  0.00000000000E+00  0.20375242177E+02  0.20375242177E+02  0.00000000000E+00 0.  1.
          2   -1    0    0  501    0  0.00000000000E+00 -0.00000000000E+00 -0.19419507148E+04  0.19419507148E+04  0.00000000000E+00 0. -1.
         24    1    1    2    0    0 -0.22112388218E+02 -0.43269572687E+02 -0.18255914639E+04  0.18280078289E+04  0.80419002446E+02 0. -1.
        -24    1    1    2    0    0  0.22112388218E+02  0.43269572687E+02 -0.95984008693E+02  0.13431812801E+03  0.80419002446E+02 0.  1.
<mgrwt>
<rscale>  0 0.93959723E+02</rscale>
<asrwt>0</asrwt>
<pdfrwt beam="1">  1        2 0.29876162E+00 0.93959723E+02</pdfrwt>
<pdfrwt beam="2">  1       -2 0.31346529E-02 0.93959723E+02</pdfrwt>
<totfact> 0.31554128E+03</totfact>
</mgrwt>
</event>
<event>
 4    1  0.6602701E-002  0.9416440E+02  0.7546771E-02  0.1293069E+00
         -2   -1    0    0    0  501 -0.00000000000E+00  0.00000000000E+00  0.51166022009E+02  0.51166022009E+02  0.00000000000E+00 0.  1.
          2   -1    0    0  501    0  0.00000000000E+00 -0.00000000000E+00 -0.32696333061E+03  0.32696333061E+03  0.00000000000E+00 0. -1.
         24    1    1    2    0    0  0.19763778239E+02 -0.44823117798E+02 -0.26751201504E+03  0.28360115120E+03  0.80419002446E+02 0. -1.
        -24    1    1    2    0    0 -0.19763778239E+02  0.44823117798E+02 -0.82852935631E+01  0.94528201417E+02  0.80419002446E+02 0.  1.
<mgrwt>
<rscale>  0 0.94164403E+02</rscale>
<asrwt>0</asrwt>
<pdfrwt beam="1">  1        2 0.50302049E-01 0.94164403E+02</pdfrwt>
<pdfrwt beam="2">  1       -2 0.78716959E-02 0.94164403E+02</pdfrwt>
<totfact> 0.89069924E+03</totfact>
</mgrwt>
</event>
<event>
 4    1  0.6602701E-002  0.1105117E+03  0.7546771E-02  0.1259625E+00
          1   -1    0    0  501    0  0.00000000000E+00  0.00000000000E+00  0.24934432723E+03  0.24934432723E+03  0.00000000000E+00 0. -1.
         -1   -1    0    0    0  501 -0.00000000000E+00 -0.00000000000E+00 -0.88431193517E+02  0.88431193517E+02  0.00000000000E+00 0.  1.
         24    1    1    2    0    0  0.39200874139E+01  0.75698384677E+02 -0.32348019504E+02  0.11514869886E+03  0.80419002446E+02 0.  1.
        -24    1    1    2    0    0 -0.39200874139E+01 -0.75698384677E+02  0.19326115322E+03  0.22262682189E+03  0.80419002446E+02 0. -1.
<mgrwt>
<rscale>  0 0.11051167E+03</rscale>
<asrwt>0</asrwt>
<pdfrwt beam="1">  1        1 0.38360665E-01 0.11051167E+03</pdfrwt>
<pdfrwt beam="2">  1       -1 0.13604799E-01 0.11051167E+03</pdfrwt>
<totfact> 0.39591087E+03</totfact>
</mgrwt>
</event>
<event>
 4    1  0.6602701E-002  0.1135868E+03  0.7546771E-02  0.1254068E+00
          2   -1    0    0  501    0  0.00000000000E+00  0.00000000000E+00  0.96545223906E+03  0.96545223906E+03  0.00000000000E+00 0. -1.
         -2   -1    0    0    0  501 -0.00000000000E+00 -0.00000000000E+00 -0.13722533812E+02  0.13722533812E+02  0.00000000000E+00 0.  1.
         24    1    1    2    0    0  0.15027586416E+02  0.78796629041E+02  0.55504166178E+03  0.56654496677E+03  0.80419002446E+02 0.  1.
        -24    1    1    2    0    0 -0.15027586416E+02 -0.78796629041E+02  0.39668804346E+03  0.41262980610E+03  0.80419002446E+02 0. -1.
<mgrwt>
<rscale>  0 0.11358676E+03</rscale>
<asrwt>0</asrwt>
<pdfrwt beam="1">  1        2 0.14853106E+00 0.11358676E+03</pdfrwt>
<pdfrwt beam="2">  1       -2 0.21111598E-02 0.11358676E+03</pdfrwt>
<totfact> 0.18534306E+04</totfact>
</mgrwt>
</event>
<event>
 4    1  0.6602701E-002  0.1838052E+03  0.7546771E-02  0.1164170E+00
         -1   -1    0    0    0  501 -0.00000000000E+00  0.00000000000E+00  0.40641022206E+03  0.40641022206E+03  0.00000000000E+00 0.  1.
          1   -1    0    0  501    0  0.00000000000E+00 -0.00000000000E+00 -0.15352523173E+03  0.15352523173E+03  0.00000000000E+00 0. -1.
         24    1    1    2    0    0  0.83058501824E+02  0.14289305298E+03  0.31602301419E+03  0.36558843085E+03  0.80419002446E+02 0.  1.
        -24    1    1    2    0    0 -0.83058501824E+02 -0.14289305298E+03 -0.63138023861E+02  0.19434702294E+03  0.80419002446E+02 0. -1.
<mgrwt>
<rscale>  0 0.18380521E+03</rscale>
<asrwt>0</asrwt>
<pdfrwt beam="1">  1        1 0.23619267E-01 0.18380521E+03</pdfrwt>
<pdfrwt beam="2">  1       -1 0.62524649E-01 0.18380521E+03</pdfrwt>
<totfact> 0.55363498E+02</totfact>
</mgrwt>
</event>
<event>
 4    1  0.6602701E-002  0.1647261E+03  0.7546771E-02  0.1183462E+00
         -2   -1    0    0    0  501 -0.00000000000E+00  0.00000000000E+00  0.39538486190E+02  0.39538486190E+02  0.00000000000E+00 0.  1.
          2   -1    0    0  501    0  0.00000000000E+00 -0.00000000000E+00 -0.71469254360E+03  0.71469254360E+03  0.00000000000E+00 0. -1.
         24    1    1    2    0    0  0.12537977245E+03 -0.70337570436E+02 -0.41276186185E+03  0.44441763209E+03  0.80419002446E+02 0.  1.
        -24    1    1    2    0    0 -0.12537977245E+03  0.70337570436E+02 -0.26239219556E+03  0.30981339771E+03  0.80419002446E+02 0. -1.
<mgrwt>
<rscale>  0 0.16472607E+03</rscale>
<asrwt>0</asrwt>
<pdfrwt beam="1">  1        2 0.10995270E+00 0.16472607E+03</pdfrwt>
<pdfrwt beam="2">  1       -2 0.60828441E-02 0.16472607E+03</pdfrwt>
<totfact> 0.57830527E+03</totfact>
</mgrwt>
</event>
<event>
 4    1  0.6602701E-002  0.8546223E+02  0.7546771E-02  0.1314228E+00
          1   -1    0    0  501    0  0.00000000000E+00  0.00000000000E+00  0.40969662379E+03  0.40969662379E+03  0.00000000000E+00 0. -1.
         -1   -1    0    0    0  501 -0.00000000000E+00 -0.00000000000E+00 -0.20036852100E+02  0.20036852100E+02  0.00000000000E+00 0.  1.
         24    1    1    2    0    0  0.22499253710E+02 -0.18175819519E+02  0.12347813922E+03  0.15016871729E+03  0.80419002446E+02 0.  1.
        -24    1    1    2    0    0 -0.22499253710E+02  0.18175819519E+02  0.26618163247E+03  0.27956475860E+03  0.80419002446E+02 0. -1.
<mgrwt>
<rscale>  0 0.85462230E+02</rscale>
<asrwt>0</asrwt>
<pdfrwt beam="1">  1        1 0.63030243E-01 0.85462230E+02</pdfrwt>
<pdfrwt beam="2">  1       -1 0.30825929E-02 0.85462230E+02</pdfrwt>
<totfact> 0.19088031E+04</totfact>
</mgrwt>
</event>
<event>
 4    1  0.6602701E-002  0.8584710E+02  0.7546771E-02  0.1313232E+00
          1   -1    0    0  501    0  0.00000000000E+00  0.00000000000E+00  0.26653998257E+03  0.26653998257E+03  0.00000000000E+00 0. -1.
         -1   -1    0    0    0  501 -0.00000000000E+00 -0.00000000000E+00 -0.54207843777E+02  0.54207843777E+02  0.00000000000E+00 0.  1.
         24    1    1    2    0    0  0.16156858788E+02  0.25327151718E+02 -0.60880567205E+01  0.86062704402E+02  0.80419002446E+02 0.  1.
        -24    1    1    2    0    0 -0.16156858788E+02 -0.25327151718E+02  0.21842019552E+03  0.23468512195E+03  0.80419002446E+02 0. -1.
<mgrwt>
<rscale>  0 0.85847100E+02</rscale>
<asrwt>0</asrwt>
<pdfrwt beam="1">  1        1 0.41006150E-01 0.85847100E+02</pdfrwt>
<pdfrwt beam="2">  1       -1 0.83396684E-02 0.85847100E+02</pdfrwt>
<totfact> 0.75397626E+03</totfact>
</mgrwt>
</event>
<event>
 4    1  0.6602701E-002  0.1136008E+03  0.7546771E-02  0.1254043E+00
         -1   -1    0    0    0  501 -0.00000000000E+00  0.00000000000E+00  0.11424158967E+02  0.11424158967E+02  0.00000000000E+00 0.  1.
          1   -1    0    0  501    0  0.00000000000E+00 -0.00000000000E+00 -0.11296359933E+04  0.11296359933E+04  0.00000000000E+00 0. -1.
         24    1    1    2    0    0 -0.73350792748E+02  0.32520439621E+02 -0.55953846344E+03  0.57095396121E+03  0.80419002446E+02 0.  1.
        -24    1    1    2    0    0  0.73350792748E+02 -0.32520439621E+02 -0.55867337087E+03  0.57010619104E+03  0.80419002446E+02 0. -1.
<mgrwt>
<rscale>  0 0.11360078E+03</rscale>
<asrwt>0</asrwt>
<pdfrwt beam="1">  1        1 0.17379018E+00 0.11360079E+03</pdfrwt>
<pdfrwt beam="2">  1       -1 0.17575627E-02 0.11360079E+03</pdfrwt>
<totfact> 0.10180152E+04</totfact>
</mgrwt>
</event>
<event>
 4    1  0.6602701E-002  0.9816967E+02  0.7546771E-02  0.1284193E+00
          2   -1    0    0  501    0  0.00000000000E+00  0.00000000000E+00  0.20217991705E+03  0.20217991705E+03  0.00000000000E+00 0. -1.
         -2   -1    0    0    0  501 -0.00000000000E+00 -0.00000000000E+00 -0.52797806501E+02  0.52797806501E+02  0.00000000000E+00 0.  1.
         24    1    1    2    0    0 -0.24644673289E+01 -0.56249393266E+02  0.11443423670E+03  0.15077293631E+03  0.80419002446E+02 0.  1.
        -24    1    1    2    0    0  0.24644673289E+01  0.56249393266E+02  0.34947873854E+02  0.10420478724E+03  0.80419002446E+02 0. -1.
<mgrwt>
<rscale>  0 0.98169668E+02</rscale>
<asrwt>0</asrwt>
<pdfrwt beam="1">  1        2 0.31104602E-01 0.98169668E+02</pdfrwt>
<pdfrwt beam="2">  1       -2 0.81227396E-02 0.98169668E+02</pdfrwt>
<totfact> 0.14138000E+04</totfact>
</mgrwt>
</event>
<event>
 4    1  0.7958732E-002  0.1286721E+03  0.7546771E-02  0.1229440E+00
          1   -1    0    0  501    0  0.00000000000E+00  0.00000000000E+00  0.24322621841E+03  0.24322621841E+03  0.00000000000E+00 0. -1.
         -1   -1    0    0    0  501 -0.00000000000E+00 -0.00000000000E+00 -0.69268408807E+03  0.69268408807E+03  0.00000000000E+00 0.  1.
         24    1    1    2    0    0 -0.11604748971E+02 -0.99772824517E+02 -0.66909653076E+03  0.68135649270E+03  0.80419002446E+02 0.  1.
        -24    1    1    2    0    0  0.11604748971E+02  0.99772824517E+02  0.21963866110E+03  0.25455381379E+03  0.80419002446E+02 0. -1.
<mgrwt>
<rscale>  0 0.12867207E+03</rscale>
<asrwt>0</asrwt>
<pdfrwt beam="1">  1        1 0.37419419E-01 0.12867207E+03</pdfrwt>
<pdfrwt beam="2">  1       -1 0.10656678E+00 0.12867207E+03</pdfrwt>
<totfact> 0.10374283E+02</totfact>
</mgrwt>
</event>
<event>
 4    1  0.6602701E-002  0.1023561E+03  0.7546771E-02  0.1275418E+00
         -2   -1    0    0    0  501 -0.00000000000E+00  0.00000000000E+00  0.67822407704E+02  0.67822407704E+02  0.00000000000E+00 0.  1.
          2   -1    0    0  501    0  0.00000000000E+00 -0.00000000000E+00 -0.15805055285E+03  0.15805055285E+03  0.00000000000E+00 0. -1.
         24    1    1    2    0    0 -0.28552145590E+02  0.56518439056E+02 -0.28124214081E+02  0.10614964128E+03  0.80419002446E+02 0.  1.
        -24    1    1    2    0    0  0.28552145590E+02 -0.56518439056E+02 -0.62103931068E+02  0.11972331928E+03  0.80419002446E+02 0. -1.
<mgrwt>
<rscale>  0 0.10235613E+03</rscale>
<asrwt>0</asrwt>
<pdfrwt beam="1">  1        2 0.24315470E-01 0.10235614E+03</pdfrwt>
<pdfrwt beam="2">  1       -2 0.10434217E-01 0.10235614E+03</pdfrwt>
<totfact> 0.12570852E+04</totfact>
</mgrwt>
</event>
<event>
 4    1  0.6602701E-002  0.1344536E+03  0.7546771E-02  0.1220993E+00
         -2   -1    0    0    0  501 -0.00000000000E+00  0.00000000000E+00  0.55967593820E+02  0.55967593820E+02  0.00000000000E+00 0.  1.
          2   -1    0    0  501    0  0.00000000000E+00 -0.00000000000E+00 -0.39878297925E+03  0.39878297925E+03  0.00000000000E+00 0. -1.
         24    1    1    2    0    0 -0.38061573707E+02 -0.10080608608E+03 -0.27052484897E+03  0.30209511788E+03  0.80419002446E+02 0. -1.
        -24    1    1    2    0    0  0.38061573707E+02  0.10080608608E+03 -0.72290536461E+02  0.15265545519E+03  0.80419002446E+02 0.  1.
<mgrwt>
<rscale>  0 0.13445358E+03</rscale>
<asrwt>0</asrwt>
<pdfrwt beam="1">  1        2 0.61351227E-01 0.13445358E+03</pdfrwt>
<pdfrwt beam="2">  1       -2 0.86103991E-02 0.13445358E+03</pdfrwt>
<totfact> 0.64502762E+03</totfact>
</mgrwt>
</event>
<event>
 4    1  0.6602701E-002  0.1073381E+03  0.7546771E-02  0.1265580E+00
         -1   -1    0    0    0  501 -0.00000000000E+00  0.00000000000E+00  0.46890987720E+03  0.46890987720E+03  0.00000000000E+00 0.  1.
          1   -1    0    0  501    0  0.00000000000E+00 -0.00000000000E+00 -0.29313870941E+02  0.29313870941E+02  0.00000000000E+00 0. -1.
         24    1    1    2    0    0  0.60828323995E+02 -0.36798908003E+02  0.32000328281E+03  0.33752564583E+03  0.80419002446E+02 0.  1.
        -24    1    1    2    0    0 -0.60828323995E+02  0.36798908003E+02  0.11959272345E+03  0.16069810231E+03  0.80419002446E+02 0. -1.
<mgrwt>
<rscale>  0 0.10733807E+03</rscale>
<asrwt>0</asrwt>
<pdfrwt beam="1">  1        1 0.45098267E-02 0.10733807E+03</pdfrwt>
<pdfrwt beam="2">  1       -1 0.72139975E-01 0.10733807E+03</pdfrwt>
<totfact> 0.36662258E+03</totfact>
</mgrwt>
</event>
<event>
 4    1  0.6602701E-002  0.8565595E+02  0.7546771E-02  0.1313726E+00
          1   -1    0    0  501    0  0.00000000000E+00  0.00000000000E+00  0.14837560197E+03  0.14837560197E+03  0.00000000000E+00 0. -1.
         -1   -1    0    0    0  501 -0.00000000000E+00 -0.00000000000E+00 -0.10172324686E+03  0.10172324686E+03  0.00000000000E+00 0.  1.
         24    1    1    2    0    0 -0.15567725030E+02 -0.25047398786E+02 -0.66317115999E+02  0.10832775303E+03  0.80419002446E+02 0.  1.
        -24    1    1    2    0    0  0.15567725030E+02  0.25047398786E+02  0.11296947111E+03  0.14177109580E+03  0.80419002446E+02 0. -1.
<mgrwt>
<rscale>  0 0.85655953E+02</rscale>
<asrwt>0</asrwt>
<pdfrwt beam="1">  1        1 0.22827016E-01 0.85655953E+02</pdfrwt>
<pdfrwt beam="2">  1       -1 0.15649730E-01 0.85655953E+02</pdfrwt>
<totfact> 0.59395858E+03</totfact>
</mgrwt>
</event>
<event>
 4    1  0.6602701E-002  0.1462000E+03  0.7546771E-02  0.1205222E+00
          2   -1    0    0  501    0  0.00000000000E+00  0.00000000000E+00  0.56079560108E+02  0.56079560108E+02  0.00000000000E+00 0. -1.
         -2   -1    0    0    0  501 -0.00000000000E+00 -0.00000000000E+00 -0.51662955904E+03  0.51662955904E+03  0.00000000000E+00 0.  1.
         24    1    1    2    0    0 -0.61801397867E+01  0.12193856571E+03 -0.37691753167E+03  0.40427867810E+03  0.80419002446E+02 0.  1.
        -24    1    1    2    0    0  0.61801397867E+01 -0.12193856571E+03 -0.83632467265E+02  0.16843044105E+03  0.80419002446E+02 0. -1.
<mgrwt>
<rscale>  0 0.14619996E+03</rscale>
<asrwt>0</asrwt>
<pdfrwt beam="1">  1        2 0.86276247E-02 0.14619998E+03</pdfrwt>
<pdfrwt beam="2">  1       -2 0.79481470E-01 0.14619998E+03</pdfrwt>
<totfact> 0.10899614E+03</totfact>
</mgrwt>
</event>
<event>
 4    1  0.6602701E-002  0.8098058E+02  0.7546771E-02  0.1326291E+00
          1   -1    0    0  501    0  0.00000000000E+00  0.00000000000E+00  0.14358786620E+03  0.14358786620E+03  0.00000000000E+00 0. -1.
         -1   -1    0    0    0  501 -0.00000000000E+00 -0.00000000000E+00 -0.47566241610E+02  0.47566241610E+02  0.00000000000E+00 0.  1.
         24    1    1    2    0    0  0.94855628654E+01 -0.81440615883E+00  0.28934532816E+02  0.85994548106E+02  0.80419002446E+02 0. -1.
        -24    1    1    2    0    0 -0.94855628654E+01  0.81440615883E+00  0.67087091776E+02  0.10515955971E+03  0.80419002446E+02 0. -1.
<mgrwt>
<rscale>  0 0.80980585E+02</rscale>
<asrwt>0</asrwt>
<pdfrwt beam="1">  1        1 0.22090441E-01 0.80980585E+02</pdfrwt>
<pdfrwt beam="2">  1       -1 0.73178834E-02 0.80980585E+02</pdfrwt>
<totfact> 0.19443360E+04</totfact>
</mgrwt>
</event>
<event>
 4    1  0.6602701E-002  0.9156136E+02  0.7546771E-02  0.1299114E+00
         -1   -1    0    0    0  501 -0.00000000000E+00  0.00000000000E+00  0.75487552548E+02  0.75487552548E+02  0.00000000000E+00 0.  1.
          1   -1    0    0  501    0  0.00000000000E+00 -0.00000000000E+00 -0.11364684011E+03  0.11364684011E+03  0.00000000000E+00 0. -1.
         24    1    1    2    0    0 -0.71129261558E+01 -0.43193437881E+02 -0.48061645445E+01  0.91687414439E+02  0.80419002446E+02 0.  1.
        -24    1    1    2    0    0  0.71129261558E+01  0.43193437881E+02 -0.33353123015E+02  0.97446978218E+02  0.80419002446E+02 0. -1.
<mgrwt>
<rscale>  0 0.91561361E+02</rscale>
<asrwt>0</asrwt>
<pdfrwt beam="1">  1        1 0.17484129E-01 0.91561361E+02</pdfrwt>
<pdfrwt beam="2">  1       -1 0.11613470E-01 0.91561361E+02</pdfrwt>
<totfact> 0.13209128E+04</totfact>
</mgrwt>
</event>
<event>
 4    1  0.6602701E-002  0.8337976E+02  0.7546771E-02  0.1319725E+00
         -1   -1    0    0    0  501 -0.00000000000E+00  0.00000000000E+00  0.31091449881E+02  0.31091449881E+02  0.00000000000E+00 0.  1.
          1   -1    0    0  501    0  0.00000000000E+00 -0.00000000000E+00 -0.34153141629E+03  0.34153141629E+03  0.00000000000E+00 0. -1.
         24    1    1    2    0    0  0.17945065899E+02  0.12764932040E+02 -0.45740978217E+02  0.95102165710E+02  0.80419002446E+02 0.  1.
        -24    1    1    2    0    0 -0.17945065899E+02 -0.12764932040E+02 -0.26469898819E+03  0.27752070046E+03  0.80419002446E+02 0. -1.
<mgrwt>
<rscale>  0 0.83379763E+02</rscale>
<asrwt>0</asrwt>
<pdfrwt beam="1">  1        1 0.52543292E-01 0.83379763E+02</pdfrwt>
<pdfrwt beam="2">  1       -1 0.47833002E-02 0.83379763E+02</pdfrwt>
<totfact> 0.12614476E+04</totfact>
</mgrwt>
</event>
<event>
 4    1  0.6602701E-002  0.8416014E+02  0.7546771E-02  0.1317644E+00
          1   -1    0    0  501    0  0.00000000000E+00  0.00000000000E+00  0.57910625625E+03  0.57910625625E+03  0.00000000000E+00 0. -1.
         -1   -1    0    0    0  501 -0.00000000000E+00 -0.00000000000E+00 -0.14313871706E+02  0.14313871706E+02  0.00000000000E+00 0.  1.
         24    1    1    2    0    0  0.49472008861E+01 -0.24315388047E+02  0.16920658880E+03  0.18898094756E+03  0.80419002446E+02 0.  0.
        -24    1    1    2    0    0 -0.49472008861E+01  0.24315388047E+02  0.39558579574E+03  0.40443918039E+03  0.80419002446E+02 0.  1.
<mgrwt>
<rscale>  0 0.84160138E+02</rscale>
<asrwt>0</asrwt>
<pdfrwt beam="1">  1        1 0.89093252E-01 0.84160138E+02</pdfrwt>
<pdfrwt beam="2">  1       -1 0.22021346E-02 0.84160138E+02</pdfrwt>
<totfact> 0.19828965E+04</totfact>
</mgrwt>
</event>
<event>
 4    1  0.6602701E-002  0.1141394E+03  0.7546771E-02  0.1253091E+00
         -2   -1    0    0    0  501 -0.00000000000E+00  0.00000000000E+00  0.82697286800E+02  0.82697286800E+02  0.00000000000E+00 0.  1.
          2   -1    0    0  501    0  0.00000000000E+00 -0.00000000000E+00 -0.19501766016E+03  0.19501766016E+03  0.00000000000E+00 0. -1.
         24    1    1    2    0    0 -0.80986275781E+02  0.13411350543E+01 -0.11703565003E+03  0.16347823965E+03  0.80419002446E+02 0. -1.
        -24    1    1    2    0    0  0.80986275781E+02 -0.13411350543E+01  0.47152766678E+01  0.11423670731E+03  0.80419002446E+02 0.  1.
<mgrwt>
<rscale>  0 0.11413935E+03</rscale>
<asrwt>0</asrwt>
<pdfrwt beam="1">  1        2 0.30002716E-01 0.11413935E+03</pdfrwt>
<pdfrwt beam="2">  1       -2 0.12722660E-01 0.11413935E+03</pdfrwt>
<totfact> 0.73782801E+03</totfact>
</mgrwt>
</event>
<event>
 4    1  0.6602701E-002  0.9602165E+02  0.7546771E-02  0.1288892E+00
         -2   -1    0    0    0  501 -0.00000000000E+00  0.00000000000E+00  0.36575132468E+02  0.36575132468E+02  0.00000000000E+00 0.  1.
          2   -1    0    0  501    0  0.00000000000E+00 -0.00000000000E+00 -0.46060458156E+03  0.46060458156E+03  0.00000000000E+00 0. -1.
         24    1    1    2    0    0  0.19081351337E+02  0.48875799361E+02 -0.37927369297E+03  0.39123994156E+03  0.80419002446E+02 0. -1.
        -24    1    1    2    0    0 -0.19081351337E+02 -0.48875799361E+02 -0.44755756121E+02  0.10593977248E+03  0.80419002446E+02 0.  1.
<mgrwt>
<rscale>  0 0.96021652E+02</rscale>
<asrwt>0</asrwt>
<pdfrwt beam="1">  1        2 0.70862242E-01 0.96021652E+02</pdfrwt>
<pdfrwt beam="2">  1       -2 0.56269436E-02 0.96021652E+02</pdfrwt>
<totfact> 0.10323591E+04</totfact>
</mgrwt>
</event>
<event>
 4    1  0.6602701E-002  0.9464225E+02  0.7546771E-02  0.1291984E+00
          2   -1    0    0  501    0  0.00000000000E+00  0.00000000000E+00  0.12215162997E+04  0.12215162997E+04  0.00000000000E+00 0. -1.
         -2   -1    0    0    0  501 -0.00000000000E+00 -0.00000000000E+00 -0.92205837639E+01  0.92205837639E+01  0.00000000000E+00 0.  1.
         24    1    1    2    0    0  0.15498581551E+02 -0.47431350767E+02  0.88458695935E+03  0.88963545549E+03  0.80419002446E+02 0. -1.
        -24    1    1    2    0    0 -0.15498581551E+02  0.47431350767E+02  0.32770875659E+03  0.34110142798E+03  0.80419002446E+02 0.  1.
<mgrwt>
<rscale>  0 0.94642248E+02</rscale>
<asrwt>0</asrwt>
<pdfrwt beam="1">  1        2 0.18792546E+00 0.94642248E+02</pdfrwt>
<pdfrwt beam="2">  1       -2 0.14185523E-02 0.94642248E+02</pdfrwt>
<totfact> 0.23132711E+04</totfact>
</mgrwt>
</event>
<event>
 4    1  0.6602701E-002  0.1290401E+03  0.7546771E-02  0.1228887E+00
         -2   -1    0    0    0  501 -0.00000000000E+00  0.00000000000E+00  0.33919786824E+03  0.33919786824E+03  0.00000000000E+00 0.  1.
          2   -1    0    0  501    0  0.00000000000E+00 -0.00000000000E+00 -0.14128845590E+03  0.14128845590E+03  0.00000000000E+00 0. -1.
         24    1    1    2    0    0  0.97340705123E+02  0.26625717818E+02 -0.95115374835E+02  0.16030686887E+03  0.80419002446E+02 0. -1.
        -24    1    1    2    0    0 -0.97340705123E+02 -0.26625717818E+02  0.29302478718E+03  0.32017945527E+03  0.80419002446E+02 0.  1.
<mgrwt>
<rscale>  0 0.12904014E+03</rscale>
<asrwt>0</asrwt>
<pdfrwt beam="1">  1        2 0.21736686E-01 0.12904014E+03</pdfrwt>
<pdfrwt beam="2">  1       -2 0.52184287E-01 0.12904014E+03</pdfrwt>
<totfact> 0.87491983E+02</totfact>
</mgrwt>
</event>
<event>
 4    1  0.6602701E-002  0.1176004E+03  0.7546771E-02  0.1247109E+00
         -1   -1    0    0    0  501 -0.00000000000E+00  0.00000000000E+00  0.29660376799E+03  0.29660376799E+03  0.00000000000E+00 0.  1.
          1   -1    0    0  501    0  0.00000000000E+00 -0.00000000000E+00 -0.53232457025E+02  0.53232457025E+02  0.00000000000E+00 0. -1.
         24    1    1    2    0    0  0.25519601200E+02  0.81923014400E+02  0.18330067813E+03  0.21778196641E+03  0.80419002446E+02 0.  1.
        -24    1    1    2    0    0 -0.25519601200E+02 -0.81923014400E+02  0.60070632837E+02  0.13205425861E+03  0.80419002446E+02 0. -1.
<mgrwt>
<rscale>  0 0.11760037E+03</rscale>
<asrwt>0</asrwt>
<pdfrwt beam="1">  1        1 0.81896090E-02 0.11760037E+03</pdfrwt>
<pdfrwt beam="2">  1       -1 0.45631348E-01 0.11760037E+03</pdfrwt>
<totfact> 0.38916964E+03</totfact>
</mgrwt>
</event>
<event>
 4    1  0.6602701E-002  0.8517830E+02  0.7546771E-02  0.1314967E+00
          2   -1    0    0  501    0  0.00000000000E+00  0.00000000000E+00  0.34499343962E+01  0.34499343962E+01  0.00000000000E+00 0. -1.
         -2   -1    0    0    0  501 -0.00000000000E+00 -0.00000000000E+00 -0.22529583368E+04  0.22529583368E+04  0.00000000000E+00 0.  1.
         24    1    1    2    0    0  0.21428189929E+02  0.18137149251E+02 -0.14157876617E+04  0.14183476451E+04  0.80419002446E+02 0.  0.
        -24    1    1    2    0    0 -0.21428189929E+02 -0.18137149251E+02 -0.83372074071E+03  0.83806062606E+03  0.80419002446E+02 0.  0.
<mgrwt>
<rscale>  0 0.85178291E+02</rscale>
<asrwt>0</asrwt>
<pdfrwt beam="1">  1        2 0.53075934E-03 0.85178302E+02</pdfrwt>
<pdfrwt beam="2">  1       -2 0.34660884E+00 0.85178302E+02</pdfrwt>
<totfact> 0.65821792E+02</totfact>
</mgrwt>
</event>
<event>
 4    1  0.6602701E-002  0.1093718E+03  0.7546771E-02  0.1261738E+00
          2   -1    0    0  501    0  0.00000000000E+00  0.00000000000E+00  0.36309093052E+04  0.36309093052E+04  0.00000000000E+00 0. -1.
         -2   -1    0    0    0  501 -0.00000000000E+00 -0.00000000000E+00 -0.47143825704E+01  0.47143825704E+01  0.00000000000E+00 0.  1.
         24    1    1    2    0    0 -0.60323747503E+02  0.43081572488E+02  0.28106962722E+04  0.28128234440E+04  0.80419002446E+02 0. -1.
        -24    1    1    2    0    0  0.60323747503E+02 -0.43081572488E+02  0.81549865043E+03  0.82280024380E+03  0.80419002446E+02 0.  1.
<mgrwt>
<rscale>  0 0.10937181E+03</rscale>
<asrwt>0</asrwt>
<pdfrwt beam="1">  1        2 0.55859920E+00 0.10937181E+03</pdfrwt>
<pdfrwt beam="2">  1       -2 0.72529253E-03 0.10937181E+03</pdfrwt>
<totfact> 0.28947107E+03</totfact>
</mgrwt>
</event>
<event>
 4    1  0.6602701E-002  0.1086123E+03  0.7546771E-02  0.1263161E+00
         -2   -1    0    0    0  501 -0.00000000000E+00  0.00000000000E+00  0.10561341487E+03  0.10561341487E+03  0.00000000000E+00 0.  1.
          2   -1    0    0  501    0  0.00000000000E+00 -0.00000000000E+00 -0.33506593072E+03  0.33506593072E+03  0.00000000000E+00 0. -1.
         24    1    1    2    0    0  0.17170786673E+02 -0.70954750754E+02 -0.29462976091E+03  0.31401166306E+03  0.80419002446E+02 0. -1.
        -24    1    1    2    0    0 -0.17170786673E+02  0.70954750754E+02  0.65177245063E+02  0.12666768253E+03  0.80419002446E+02 0.  1.
<mgrwt>
<rscale>  0 0.10861229E+03</rscale>
<asrwt>0</asrwt>
<pdfrwt beam="1">  1        2 0.51548604E-01 0.10861229E+03</pdfrwt>
<pdfrwt beam="2">  1       -2 0.16248218E-01 0.10861229E+03</pdfrwt>
<totfact> 0.27899738E+03</totfact>
</mgrwt>
</event>
<event>
 4    1  0.6602701E-002  0.1059687E+03  0.7546771E-02  0.1268223E+00
         -2   -1    0    0    0  501 -0.00000000000E+00  0.00000000000E+00  0.30361718838E+03  0.30361718838E+03  0.00000000000E+00 0.  1.
          2   -1    0    0  501    0  0.00000000000E+00 -0.00000000000E+00 -0.47216718745E+02  0.47216718745E+02  0.00000000000E+00 0. -1.
         24    1    1    2    0    0 -0.66463385614E+02  0.18568190897E+02  0.46543611289E+02  0.11573972113E+03  0.80419002446E+02 0.  1.
        -24    1    1    2    0    0  0.66463385614E+02 -0.18568190897E+02  0.20985685834E+03  0.23509418600E+03  0.80419002446E+02 0.  0.
<mgrwt>
<rscale>  0 0.10596875E+03</rscale>
<asrwt>0</asrwt>
<pdfrwt beam="1">  1        2 0.72641107E-02 0.10596875E+03</pdfrwt>
<pdfrwt beam="2">  1       -2 0.46710336E-01 0.10596875E+03</pdfrwt>
<totfact> 0.39664028E+03</totfact>
</mgrwt>
</event>
<event>
 4    1  0.6602701E-002  0.9494841E+02  0.7546771E-02  0.1291292E+00
         -2   -1    0    0    0  501 -0.00000000000E+00  0.00000000000E+00  0.10642594806E+02  0.10642594806E+02  0.00000000000E+00 0.  1.
          2   -1    0    0  501    0  0.00000000000E+00 -0.00000000000E+00 -0.38683241929E+04  0.38683241929E+04  0.00000000000E+00 0. -1.
         24    1    1    2    0    0  0.29484831884E+02  0.40971074887E+02 -0.36428654678E+04  0.36441026353E+04  0.80419002446E+02 0. -1.
        -24    1    1    2    0    0 -0.29484831884E+02 -0.40971074887E+02 -0.21481613031E+03  0.23486415241E+03  0.80419002446E+02 0.  1.
<mgrwt>
<rscale>  0 0.94948408E+02</rscale>
<asrwt>0</asrwt>
<pdfrwt beam="1">  1        2 0.59512839E+00 0.94948408E+02</pdfrwt>
<pdfrwt beam="2">  1       -2 0.16373179E-02 0.94948408E+02</pdfrwt>
<totfact> 0.62884233E+02</totfact>
</mgrwt>
</event>
<event>
 4    1  0.6602701E-002  0.2188458E+03  0.7546771E-02  0.1134746E+00
         -1   -1    0    0    0  501 -0.00000000000E+00  0.00000000000E+00  0.46284421401E+02  0.46284421401E+02  0.00000000000E+00 0.  1.
          1   -1    0    0  501    0  0.00000000000E+00 -0.00000000000E+00 -0.12967720205E+04  0.12967720205E+04  0.00000000000E+00 0. -1.
         24    1    1    2    0    0 -0.16319906595E+03 -0.12162379354E+03 -0.32339535912E+03  0.39048438706E+03  0.80419002446E+02 0.  1.
        -24    1    1    2    0    0  0.16319906595E+03  0.12162379354E+03 -0.92709224000E+03  0.95257205487E+03  0.80419002446E+02 0. -1.
<mgrwt>
<rscale>  0 0.21884583E+03</rscale>
<asrwt>0</asrwt>
<pdfrwt beam="1">  1        1 0.19950341E+00 0.21884583E+03</pdfrwt>
<pdfrwt beam="2">  1       -1 0.71206796E-02 0.21884583E+03</pdfrwt>
<totfact> 0.10136468E+03</totfact>
</mgrwt>
</event>
<event>
 4    1  0.6602701E-002  0.1909007E+03  0.7546771E-02  0.1157651E+00
         -1   -1    0    0    0  501 -0.00000000000E+00  0.00000000000E+00  0.37503765645E+03  0.37503765645E+03  0.00000000000E+00 0.  1.
          1   -1    0    0  501    0  0.00000000000E+00 -0.00000000000E+00 -0.12132162225E+03  0.12132162225E+03  0.00000000000E+00 0. -1.
         24    1    1    2    0    0 -0.58647574865E+02 -0.16289969842E+03  0.23758525213E+03  0.30477830921E+03  0.80419002446E+02 0.  1.
        -24    1    1    2    0    0  0.58647574865E+02  0.16289969842E+03  0.16130782066E+02  0.19158096948E+03  0.80419002446E+02 0. -1.
<mgrwt>
<rscale>  0 0.19090067E+03</rscale>
<asrwt>0</asrwt>
<pdfrwt beam="1">  1        1 0.18664865E-01 0.19090067E+03</pdfrwt>
<pdfrwt beam="2">  1       -1 0.57698101E-01 0.19090067E+03</pdfrwt>
<totfact> 0.87290622E+02</totfact>
</mgrwt>
</event>
<event>
 4    1  0.6602701E-002  0.1517929E+03  0.7546771E-02  0.1198287E+00
          1   -1    0    0  501    0  0.00000000000E+00  0.00000000000E+00  0.20597340248E+03  0.20597340248E+03  0.00000000000E+00 0. -1.
         -1   -1    0    0    0  501 -0.00000000000E+00 -0.00000000000E+00 -0.11272593947E+03  0.11272593947E+03  0.00000000000E+00 0.  1.
         24    1    1    2    0    0 -0.10797400852E+03 -0.70110526311E+02  0.32692800181E+02  0.15527365377E+03  0.80419002446E+02 0.  1.
        -24    1    1    2    0    0  0.10797400852E+03  0.70110526311E+02  0.60554662826E+02  0.16342568819E+03  0.80419002446E+02 0. -1.
<mgrwt>
<rscale>  0 0.15179291E+03</rscale>
<asrwt>0</asrwt>
<pdfrwt beam="1">  1        1 0.31688216E-01 0.15179291E+03</pdfrwt>
<pdfrwt beam="2">  1       -1 0.17342452E-01 0.15179291E+03</pdfrwt>
<totfact> 0.34849506E+03</totfact>
</mgrwt>
</event>
<event>
 4    1  0.6602701E-002  0.8302701E+02  0.7546771E-02  0.1320674E+00
         -3   -1    0    0    0  501 -0.00000000000E+00  0.00000000000E+00  0.47618467766E+02  0.47618467766E+02  0.00000000000E+00 0.  1.
          3   -1    0    0  501    0  0.00000000000E+00 -0.00000000000E+00 -0.15062321498E+03  0.15062321498E+03  0.00000000000E+00 0. -1.
         24    1    1    2    0    0  0.89172788448E+01  0.18621232751E+02 -0.31954285321E+02  0.88963815543E+02  0.80419002446E+02 0.  1.
        -24    1    1    2    0    0 -0.89172788448E+01 -0.18621232751E+02 -0.71050461894E+02  0.10927786721E+03  0.80419002446E+02 0. -1.
<mgrwt>
<rscale>  0 0.83027008E+02</rscale>
<asrwt>0</asrwt>
<pdfrwt beam="1">  1        3 0.23172802E-01 0.83027008E+02</pdfrwt>
<pdfrwt beam="2">  1       -3 0.73259182E-02 0.83027008E+02</pdfrwt>
<totfact> 0.43587092E+03</totfact>
</mgrwt>
</event>
<event>
 4    1  0.6602701E-002  0.9557421E+02  0.7546771E-02  0.1289888E+00
         -1   -1    0    0    0  501 -0.00000000000E+00  0.00000000000E+00  0.54178190804E+02  0.54178190804E+02  0.00000000000E+00 0.  1.
          1   -1    0    0  501    0  0.00000000000E+00 -0.00000000000E+00 -0.20947263280E+03  0.20947263280E+03  0.00000000000E+00 0. -1.
         24    1    1    2    0    0 -0.22371738841E+02  0.46548034845E+02 -0.19416381680E+02  0.97526540381E+02  0.80419002446E+02 0.  0.
        -24    1    1    2    0    0  0.22371738841E+02 -0.46548034845E+02 -0.13587806031E+03  0.16612428322E+03  0.80419002446E+02 0.  0.
<mgrwt>
<rscale>  0 0.95574213E+02</rscale>
<asrwt>0</asrwt>
<pdfrwt beam="1">  1        1 0.32226559E-01 0.95574213E+02</pdfrwt>
<pdfrwt beam="2">  1       -1 0.83351063E-02 0.95574213E+02</pdfrwt>
<totfact> 0.10221434E+04</totfact>
</mgrwt>
</event>
<event>
 4    1  0.6602701E-002  0.8676958E+02  0.7546771E-02  0.1310869E+00
          1   -1    0    0  501    0  0.00000000000E+00  0.00000000000E+00  0.82182237164E+02  0.82182237164E+02  0.00000000000E+00 0. -1.
         -1   -1    0    0    0  501 -0.00000000000E+00 -0.00000000000E+00 -0.26726586107E+03  0.26726586107E+03  0.00000000000E+00 0.  1.
         24    1    1    2    0    0 -0.28436339634E+02  0.15909681235E+02 -0.23418920477E+03  0.24974695785E+03  0.80419002446E+02 0.  1.
        -24    1    1    2    0    0  0.28436339634E+02 -0.15909681235E+02  0.49105580862E+02  0.99701140390E+02  0.80419002446E+02 0. -1.
<mgrwt>
<rscale>  0 0.86769576E+02</rscale>
<asrwt>0</asrwt>
<pdfrwt beam="1">  1        1 0.12643421E-01 0.86769576E+02</pdfrwt>
<pdfrwt beam="2">  1       -1 0.41117825E-01 0.86769576E+02</pdfrwt>
<totfact> 0.25956865E+03</totfact>
</mgrwt>
</event>
<event>
 4    1  0.6602701E-002  0.8207568E+02  0.7546771E-02  0.1323262E+00
          2   -1    0    0  501    0  0.00000000000E+00  0.00000000000E+00  0.21431739425E+04  0.21431739425E+04  0.00000000000E+00 0. -1.
         -2   -1    0    0    0  501 -0.00000000000E+00 -0.00000000000E+00 -0.37007546027E+01  0.37007546027E+01  0.00000000000E+00 0.  1.
         24    1    1    2    0    0 -0.96145960903E+01 -0.13295161896E+02  0.14863914605E+04  0.14886557667E+04  0.80419002446E+02 0. -1.
        -24    1    1    2    0    0  0.96145960903E+01  0.13295161896E+02  0.65308172741E+03  0.65821893046E+03  0.80419002446E+02 0.  1.
<mgrwt>
<rscale>  0 0.82075683E+02</rscale>
<asrwt>0</asrwt>
<pdfrwt beam="1">  1        2 0.32971808E+00 0.82075683E+02</pdfrwt>
<pdfrwt beam="2">  1       -2 0.56934857E-03 0.82075683E+02</pdfrwt>
<totfact> 0.28214513E+04</totfact>
</mgrwt>
</event>
<event>
 4    1  0.6602701E-002  0.9904140E+02  0.7546771E-02  0.1282325E+00
          2   -1    0    0  501    0  0.00000000000E+00  0.00000000000E+00  0.15287313803E+03  0.15287313803E+03  0.00000000000E+00 0. -1.
         -2   -1    0    0    0  501 -0.00000000000E+00 -0.00000000000E+00 -0.95257792681E+02  0.95257792681E+02  0.00000000000E+00 0.  1.
         24    1    1    2    0    0 -0.33204383329E+02 -0.47322846424E+02  0.99688083638E+02  0.14052370917E+03  0.80419002446E+02 0. -1.
        -24    1    1    2    0    0  0.33204383329E+02  0.47322846424E+02 -0.42072738288E+02  0.10760722154E+03  0.80419002446E+02 0.  1.
<mgrwt>
<rscale>  0 0.99041400E+02</rscale>
<asrwt>0</asrwt>
<pdfrwt beam="1">  1        2 0.23518944E-01 0.99041400E+02</pdfrwt>
<pdfrwt beam="2">  1       -2 0.14655045E-01 0.99041400E+02</pdfrwt>
<totfact> 0.75753661E+03</totfact>
</mgrwt>
</event>
<event>
 4    1  0.6602701E-002  0.2813445E+03  0.7546771E-02  0.1094957E+00
         -2   -1    0    0    0  501 -0.00000000000E+00  0.00000000000E+00  0.55176110391E+03  0.55176110391E+03  0.00000000000E+00 0.  1.
          2   -1    0    0  501    0  0.00000000000E+00 -0.00000000000E+00 -0.27732631289E+03  0.27732631289E+03  0.00000000000E+00 0. -1.
         24    1    1    2    0    0  0.90204623408E+02 -0.25406821040E+03 -0.15079626914E+03  0.31920880370E+03  0.80419002446E+02 0. -1.
        -24    1    1    2    0    0 -0.90204623408E+02  0.25406821040E+03  0.42523106016E+03  0.50987861310E+03  0.80419002446E+02 0.  1.
<mgrwt>
<rscale>  0 0.28134453E+03</rscale>
<asrwt>0</asrwt>
<pdfrwt beam="1">  1        2 0.42665587E-01 0.28134453E+03</pdfrwt>
<pdfrwt beam="2">  1       -2 0.84886323E-01 0.28134453E+03</pdfrwt>
<totfact> 0.14965456E+02</totfact>
</mgrwt>
</event>
<event>
 4    1  0.6602701E-002  0.1136576E+03  0.7546771E-02  0.1253943E+00
          2   -1    0    0  501    0  0.00000000000E+00  0.00000000000E+00  0.26127145746E+04  0.26127145746E+04  0.00000000000E+00 0. -1.
         -2   -1    0    0    0  501 -0.00000000000E+00 -0.00000000000E+00 -0.83711616767E+01  0.83711616767E+01  0.00000000000E+00 0.  1.
         24    1    1    2    0    0  0.75071329583E+02  0.28550485993E+02  0.21406783481E+04  0.21436935044E+04  0.80419002446E+02 0. -1.
        -24    1    1    2    0    0 -0.75071329583E+02 -0.28550485993E+02  0.46366506482E+03  0.47739223188E+03  0.80419002446E+02 0.  1.
<mgrwt>
<rscale>  0 0.11365760E+03</rscale>
<asrwt>0</asrwt>
<pdfrwt beam="1">  1        2 0.40195544E+00 0.11365760E+03</pdfrwt>
<pdfrwt beam="2">  1       -2 0.12878731E-02 0.11365760E+03</pdfrwt>
<totfact> 0.51311990E+03</totfact>
</mgrwt>
</event>
<event>
 4    1  0.6602701E-002  0.1198360E+03  0.7546771E-02  0.1243368E+00
          1   -1    0    0  501    0  0.00000000000E+00  0.00000000000E+00  0.15007192369E+04  0.15007192369E+04  0.00000000000E+00 0. -1.
         -1   -1    0    0    0  501 -0.00000000000E+00 -0.00000000000E+00 -0.97398231148E+01  0.97398231148E+01  0.00000000000E+00 0.  1.
         24    1    1    2    0    0  0.31113784075E+02 -0.83218934225E+02  0.64552904101E+03  0.65655800758E+03  0.80419002446E+02 0.  1.
        -24    1    1    2    0    0 -0.31113784075E+02  0.83218934225E+02  0.84545037279E+03  0.85390105245E+03  0.80419002446E+02 0. -1.
<mgrwt>
<rscale>  0 0.11983603E+03</rscale>
<asrwt>0</asrwt>
<pdfrwt beam="1">  1        1 0.23087970E+00 0.11983603E+03</pdfrwt>
<pdfrwt beam="2">  1       -1 0.14984355E-02 0.11983603E+03</pdfrwt>
<totfact> 0.72683817E+03</totfact>
</mgrwt>
</event>
<event>
 4    1  0.6602701E-002  0.2093309E+03  0.7546771E-02  0.1142097E+00
          1   -1    0    0  501    0  0.00000000000E+00  0.00000000000E+00  0.12196678783E+03  0.12196678783E+03  0.00000000000E+00 0. -1.
         -1   -1    0    0    0  501 -0.00000000000E+00 -0.00000000000E+00 -0.11754519782E+04  0.11754519782E+04  0.00000000000E+00 0.  1.
         24    1    1    2    0    0 -0.89152657009E+02 -0.17147601479E+03 -0.10672981082E+04  0.10876326069E+04  0.80419002446E+02 0.  1.
        -24    1    1    2    0    0  0.89152657009E+02  0.17147601479E+03  0.13812917835E+02  0.20978615911E+03  0.80419002446E+02 0. -1.
<mgrwt>
<rscale>  0 0.20933092E+03</rscale>
<asrwt>0</asrwt>
<pdfrwt beam="1">  1        1 0.18764120E-01 0.20933092E+03</pdfrwt>
<pdfrwt beam="2">  1       -1 0.18083877E+00 0.20933092E+03</pdfrwt>
<totfact> 0.63727191E+01</totfact>
</mgrwt>
</event>
<event>
 4    1  0.6602701E-002  0.1143639E+03  0.7546771E-02  0.1252696E+00
          2   -1    0    0  501    0  0.00000000000E+00  0.00000000000E+00  0.41797550602E+03  0.41797550602E+03  0.00000000000E+00 0. -1.
         -2   -1    0    0    0  501 -0.00000000000E+00 -0.00000000000E+00 -0.31510998287E+02  0.31510998287E+02  0.00000000000E+00 0.  1.
         24    1    1    2    0    0  0.51613452786E+02  0.62832486134E+02  0.17447545297E+03  0.20861632118E+03  0.80419002446E+02 0. -1.
        -24    1    1    2    0    0 -0.51613452786E+02 -0.62832486134E+02  0.21198905477E+03  0.24087018312E+03  0.80419002446E+02 0.  1.
<mgrwt>
<rscale>  0 0.11436385E+03</rscale>
<asrwt>0</asrwt>
<pdfrwt beam="1">  1        2 0.64303920E-01 0.11436386E+03</pdfrwt>
<pdfrwt beam="2">  1       -2 0.48478462E-02 0.11436386E+03</pdfrwt>
<totfact> 0.14518791E+04</totfact>
</mgrwt>
</event>
<event>
 4    1  0.6602701E-002  0.8187487E+02  0.7546771E-02  0.1323813E+00
         -1   -1    0    0    0  501 -0.00000000000E+00  0.00000000000E+00  0.92870024425E+01  0.92870024425E+01  0.00000000000E+00 0.  1.
          1   -1    0    0  501    0  0.00000000000E+00 -0.00000000000E+00 -0.10377957871E+04  0.10377957871E+04  0.00000000000E+00 0. -1.
         24    1    1    2    0    0  0.11023392210E+02  0.10712731310E+02 -0.22536891968E+03  0.23978040725E+03  0.80419002446E+02 0.  1.
        -24    1    1    2    0    0 -0.11023392210E+02 -0.10712731310E+02 -0.80313986496E+03  0.80730238227E+03  0.80419002446E+02 0.  0.
<mgrwt>
<rscale>  0 0.81874866E+02</rscale>
<asrwt>0</asrwt>
<pdfrwt beam="1">  1        1 0.15966087E+00 0.81874866E+02</pdfrwt>
<pdfrwt beam="2">  1       -1 0.14287698E-02 0.81874866E+02</pdfrwt>
<totfact> 0.15480761E+04</totfact>
</mgrwt>
</event>
<event>
 4    1  0.6602701E-002  0.8170068E+02  0.7546771E-02  0.1324293E+00
         -2   -1    0    0    0  501 -0.00000000000E+00  0.00000000000E+00  0.80748377471E+02  0.80748377471E+02  0.00000000000E+00 0.  1.
          2   -1    0    0  501    0  0.00000000000E+00 -0.00000000000E+00 -0.11023338491E+03  0.11023338491E+03  0.00000000000E+00 0. -1.
         24    1    1    2    0    0 -0.14328383354E+02 -0.15755162694E+01 -0.62497324467E+02  0.10286358122E+03  0.80419002446E+02 0. -1.
        -24    1    1    2    0    0  0.14328383354E+02  0.15755162694E+01  0.33012317030E+02  0.88118181161E+02  0.80419002446E+02 0. -1.
<mgrwt>
<rscale>  0 0.81700678E+02</rscale>
<asrwt>0</asrwt>
<pdfrwt beam="1">  1        2 0.16958982E-01 0.81700678E+02</pdfrwt>
<pdfrwt beam="2">  1       -2 0.12422827E-01 0.81700678E+02</pdfrwt>
<totfact> 0.13962302E+04</totfact>
</mgrwt>
</event>
<event>
 4    1  0.6602701E-002  0.1157499E+03  0.7546771E-02  0.1250278E+00
         -1   -1    0    0    0  501 -0.00000000000E+00  0.00000000000E+00  0.10831195696E+03  0.10831195696E+03  0.00000000000E+00 0.  1.
          1   -1    0    0  501    0  0.00000000000E+00 -0.00000000000E+00 -0.12715734919E+03  0.12715734919E+03  0.00000000000E+00 0. -1.
         24    1    1    2    0    0  0.38882772473E+02 -0.73613504295E+02  0.99948848510E+01  0.11618059944E+03  0.80419002446E+02 0.  1.
        -24    1    1    2    0    0 -0.38882772473E+02  0.73613504295E+02 -0.28840277081E+02  0.11928870670E+03  0.80419002446E+02 0. -1.
<mgrwt>
<rscale>  0 0.11574988E+03</rscale>
<asrwt>0</asrwt>
<pdfrwt beam="1">  1        1 0.19562669E-01 0.11574988E+03</pdfrwt>
<pdfrwt beam="2">  1       -1 0.16663378E-01 0.11574988E+03</pdfrwt>
<totfact> 0.66878579E+03</totfact>
</mgrwt>
</event>
<event>
 4    1  0.6602701E-002  0.1164957E+03  0.7546771E-02  0.1248993E+00
         -2   -1    0    0    0  501 -0.00000000000E+00  0.00000000000E+00  0.21047420064E+02  0.21047420064E+02  0.00000000000E+00 0.  1.
          2   -1    0    0  501    0  0.00000000000E+00 -0.00000000000E+00 -0.30697107709E+04  0.30697107709E+04  0.00000000000E+00 0. -1.
         24    1    1    2    0    0 -0.34612289948E+01 -0.84214373137E+02 -0.28978507498E+04  0.29001914118E+04  0.80419002446E+02 0. -1.
        -24    1    1    2    0    0  0.34612289948E+01  0.84214373137E+02 -0.15081260100E+03  0.19056677917E+03  0.80419002446E+02 0.  1.
<mgrwt>
<rscale>  0 0.11649574E+03</rscale>
<asrwt>0</asrwt>
<pdfrwt beam="1">  1        2 0.47226254E+00 0.11649574E+03</pdfrwt>
<pdfrwt beam="2">  1       -2 0.32380691E-02 0.11649574E+03</pdfrwt>
<totfact> 0.74983319E+02</totfact>
</mgrwt>
</event>
<event>
 4    1  0.6602701E-002  0.1471483E+03  0.7546771E-02  0.1204022E+00
         -1   -1    0    0    0  501 -0.00000000000E+00  0.00000000000E+00  0.52351813984E+02  0.52351813984E+02  0.00000000000E+00 0.  1.
          1   -1    0    0  501    0  0.00000000000E+00 -0.00000000000E+00 -0.41368954635E+03  0.41368954635E+03  0.00000000000E+00 0. -1.
         24    1    1    2    0    0  0.22433161032E+02 -0.12116991612E+03 -0.18413320362E+03  0.23570669892E+03  0.80419002446E+02 0.  1.
        -24    1    1    2    0    0 -0.22433161032E+02  0.12116991612E+03 -0.17720452875E+03  0.23033466141E+03  0.80419002446E+02 0. -1.
<mgrwt>
<rscale>  0 0.14714828E+03</rscale>
<asrwt>0</asrwt>
<pdfrwt beam="1">  1        1 0.63644546E-01 0.14714830E+03</pdfrwt>
<pdfrwt beam="2">  1       -1 0.80541252E-02 0.14714830E+03</pdfrwt>
<totfact> 0.47786708E+03</totfact>
</mgrwt>
</event>
<event>
 4    1  0.6602701E-002  0.1012156E+03  0.7546771E-02  0.1277760E+00
          1   -1    0    0  501    0  0.00000000000E+00  0.00000000000E+00  0.35129289833E+02  0.35129289833E+02  0.00000000000E+00 0. -1.
         -1   -1    0    0    0  501 -0.00000000000E+00 -0.00000000000E+00 -0.30255046506E+03  0.30255046506E+03  0.00000000000E+00 0.  1.
         24    1    1    2    0    0  0.36674077583E+02 -0.49319173476E+02 -0.10162626403E+03  0.14343110658E+03  0.80419002446E+02 0.  0.
        -24    1    1    2    0    0 -0.36674077583E+02  0.49319173476E+02 -0.16579491120E+03  0.19424864832E+03  0.80419002446E+02 0. -1.
<mgrwt>
<rscale>  0 0.10121555E+03</rscale>
<asrwt>0</asrwt>
<pdfrwt beam="1">  1        1 0.54045063E-02 0.10121556E+03</pdfrwt>
<pdfrwt beam="2">  1       -1 0.46546224E-01 0.10121556E+03</pdfrwt>
<totfact> 0.64919183E+03</totfact>
</mgrwt>
</event>
<event>
 4    1  0.6602701E-002  0.1049002E+03  0.7546771E-02  0.1270316E+00
         -2   -1    0    0    0  501 -0.00000000000E+00  0.00000000000E+00  0.10142799755E+03  0.10142799755E+03  0.00000000000E+00 0.  1.
          2   -1    0    0  501    0  0.00000000000E+00 -0.00000000000E+00 -0.83810848342E+03  0.83810848342E+03  0.00000000000E+00 0. -1.
         24    1    1    2    0    0  0.66635640144E+02  0.98249928176E+01 -0.80664992250E+03  0.81344216294E+03  0.80419002446E+02 0. -1.
        -24    1    1    2    0    0 -0.66635640144E+02 -0.98249928176E+01  0.69969436630E+02  0.12609431802E+03  0.80419002446E+02 0.  1.
<mgrwt>
<rscale>  0 0.10490021E+03</rscale>
<asrwt>0</asrwt>
<pdfrwt beam="1">  1        2 0.12893977E+00 0.10490021E+03</pdfrwt>
<pdfrwt beam="2">  1       -2 0.15604307E-01 0.10490021E+03</pdfrwt>
<totfact> 0.10703879E+03</totfact>
</mgrwt>
</event>
<event>
 4    1  0.6602701E-002  0.8237047E+02  0.7546771E-02  0.1322456E+00
         -2   -1    0    0    0  501 -0.00000000000E+00  0.00000000000E+00  0.99429896983E+01  0.99429896983E+01  0.00000000000E+00 0.  1.
          2   -1    0    0  501    0  0.00000000000E+00 -0.00000000000E+00 -0.12391834022E+04  0.12391834022E+04  0.00000000000E+00 0. -1.
         24    1    1    2    0    0 -0.84231934327E+01  0.15707602935E+02 -0.10332784316E+04  0.10365564201E+04  0.80419002446E+02 0. -1.
        -24    1    1    2    0    0  0.84231934327E+01 -0.15707602935E+02 -0.19596198088E+03  0.21256997173E+03  0.80419002446E+02 0.  1.
<mgrwt>
<rscale>  0 0.82370474E+02</rscale>
<asrwt>0</asrwt>
<pdfrwt beam="1">  1        2 0.19064357E+00 0.82370474E+02</pdfrwt>
<pdfrwt beam="2">  1       -2 0.15296910E-02 0.82370474E+02</pdfrwt>
<totfact> 0.20096725E+04</totfact>
</mgrwt>
</event>
<event>
 4    1  0.6602701E-002  0.8904771E+02  0.7546771E-02  0.1305174E+00
          2   -1    0    0  501    0  0.00000000000E+00  0.00000000000E+00  0.13584300218E+03  0.13584300218E+03  0.00000000000E+00 0. -1.
         -2   -1    0    0    0  501 -0.00000000000E+00 -0.00000000000E+00 -0.23968672536E+03  0.23968672536E+03  0.00000000000E+00 0.  1.
         24    1    1    2    0    0  0.15360540696E+02  0.35019036501E+02  0.11138644666E+03  0.14260587499E+03  0.80419002446E+02 0. -1.
        -24    1    1    2    0    0 -0.15360540696E+02 -0.35019036501E+02 -0.21523016983E+03  0.23292385255E+03  0.80419002446E+02 0.  1.
<mgrwt>
<rscale>  0 0.89047712E+02</rscale>
<asrwt>0</asrwt>
<pdfrwt beam="1">  1        2 0.20898924E-01 0.89047712E+02</pdfrwt>
<pdfrwt beam="2">  1       -2 0.36874881E-01 0.89047712E+02</pdfrwt>
<totfact> 0.17538659E+03</totfact>
</mgrwt>
</event>
<event>
 4    1  0.6602701E-002  0.8170034E+02  0.7546771E-02  0.1324294E+00
          3   -1    0    0  501    0  0.00000000000E+00  0.00000000000E+00  0.31892602839E+02  0.31892602839E+02  0.00000000000E+00 0. -1.
         -3   -1    0    0    0  501 -0.00000000000E+00 -0.00000000000E+00 -0.80566380214E+03  0.80566380214E+03  0.00000000000E+00 0.  1.
         24    1    1    2    0    0  0.14283410501E+02  0.19270098112E+01 -0.74718604324E+03  0.75163949361E+03  0.80419002446E+02 0.  0.
        -24    1    1    2    0    0 -0.14283410501E+02 -0.19270098112E+01 -0.26585156059E+02  0.85916911370E+02  0.80419002446E+02 0.  0.
<mgrwt>
<rscale>  0 0.81700337E+02</rscale>
<asrwt>0</asrwt>
<pdfrwt beam="1">  1        3 0.49065547E-02 0.81700337E+02</pdfrwt>
<pdfrwt beam="2">  1       -3 0.12394827E+00 0.81700337E+02</pdfrwt>
<totfact> 0.27828893E+02</totfact>
</mgrwt>
</event>
<event>
 4    1  0.6602701E-002  0.1922256E+03  0.7546771E-02  0.1156469E+00
         -1   -1    0    0    0  501 -0.00000000000E+00  0.00000000000E+00  0.15427897505E+04  0.15427897505E+04  0.00000000000E+00 0.  1.
          1   -1    0    0  501    0  0.00000000000E+00 -0.00000000000E+00 -0.50641439462E+02  0.50641439462E+02  0.00000000000E+00 0. -1.
         24    1    1    2    0    0 -0.11045753549E+03  0.13521317858E+03  0.13244786988E+04  0.13383551511E+04  0.80419002446E+02 0.  1.
        -24    1    1    2    0    0  0.11045753549E+03 -0.13521317858E+03  0.16766961227E+03  0.25507603894E+03  0.80419002446E+02 0. -1.
<mgrwt>
<rscale>  0 0.19222561E+03</rscale>
<asrwt>0</asrwt>
<pdfrwt beam="1">  1        1 0.77909919E-02 0.19222561E+03</pdfrwt>
<pdfrwt beam="2">  1       -1 0.23735223E+00 0.19222561E+03</pdfrwt>
<totfact> 0.87217481E+01</totfact>
</mgrwt>
</event>
<event>
 4    1  0.6602701E-002  0.8784493E+02  0.7546771E-02  0.1308156E+00
         -1   -1    0    0    0  501 -0.00000000000E+00  0.00000000000E+00  0.33314982623E+02  0.33314982623E+02  0.00000000000E+00 0.  1.
          1   -1    0    0  501    0  0.00000000000E+00 -0.00000000000E+00 -0.64615195203E+03  0.64615195203E+03  0.00000000000E+00 0. -1.
         24    1    1    2    0    0  0.47130568329E+01 -0.35032886381E+02 -0.34308146108E+02  0.94306844273E+02  0.80419002446E+02 0.  1.
        -24    1    1    2    0    0 -0.47130568329E+01  0.35032886381E+02 -0.57852882330E+03  0.58516009038E+03  0.80419002446E+02 0. -1.
<mgrwt>
<rscale>  0 0.87844931E+02</rscale>
<asrwt>0</asrwt>
<pdfrwt beam="1">  1        1 0.99407990E-01 0.87844931E+02</pdfrwt>
<pdfrwt beam="2">  1       -1 0.51253821E-02 0.87844931E+02</pdfrwt>
<totfact> 0.50736285E+03</totfact>
</mgrwt>
</event>
<event>
 4    1  0.6602701E-002  0.2162637E+03  0.7546771E-02  0.1136700E+00
          4   -1    0    0  501    0  0.00000000000E+00  0.00000000000E+00  0.18711402191E+03  0.18711402191E+03  0.00000000000E+00 0. -1.
         -4   -1    0    0    0  501 -0.00000000000E+00 -0.00000000000E+00 -0.46371738380E+03  0.46371738380E+03  0.00000000000E+00 0.  1.
         24    1    1    2    0    0 -0.12288685962E+03 -0.15875003357E+03  0.82640221327E+02  0.23151538947E+03  0.80419002446E+02 0. -1.
        -24    1    1    2    0    0  0.12288685962E+03  0.15875003357E+03 -0.35924358322E+03  0.41931601623E+03  0.80419002446E+02 0.  1.
<mgrwt>
<rscale>  0 0.21626366E+03</rscale>
<asrwt>0</asrwt>
<pdfrwt beam="1">  1        4 0.28786772E-01 0.21626366E+03</pdfrwt>
<pdfrwt beam="2">  1       -4 0.71341137E-01 0.21626366E+03</pdfrwt>
<totfact> 0.37678305E+01</totfact>
</mgrwt>
</event>
<event>
 4    1  0.6602701E-002  0.9439552E+02  0.7546771E-02  0.1292543E+00
         -2   -1    0    0    0  501 -0.00000000000E+00  0.00000000000E+00  0.44556558305E+02  0.44556558305E+02  0.00000000000E+00 0.  1.
          2   -1    0    0  501    0  0.00000000000E+00 -0.00000000000E+00 -0.10387185292E+04  0.10387185292E+04  0.00000000000E+00 0. -1.
         24    1    1    2    0    0 -0.49253624212E+02  0.41687482381E+01 -0.98379356902E+03  0.98831184368E+03  0.80419002446E+02 0. -1.
        -24    1    1    2    0    0  0.49253624212E+02 -0.41687482381E+01 -0.10368401840E+02  0.94963243789E+02  0.80419002446E+02 0.  1.
<mgrwt>
<rscale>  0 0.94395519E+02</rscale>
<asrwt>0</asrwt>
<pdfrwt beam="1">  1        2 0.15980285E+00 0.94395519E+02</pdfrwt>
<pdfrwt beam="2">  1       -2 0.68548553E-02 0.94395519E+02</pdfrwt>
<totfact> 0.29239724E+03</totfact>
</mgrwt>
</event>
<event>
 4    1  0.6602701E-002  0.1120072E+03  0.7546771E-02  0.1256897E+00
         -2   -1    0    0    0  501 -0.00000000000E+00  0.00000000000E+00  0.15312793928E+02  0.15312793928E+02  0.00000000000E+00 0.  1.
          2   -1    0    0  501    0  0.00000000000E+00 -0.00000000000E+00 -0.86618032894E+03  0.86618032894E+03  0.00000000000E+00 0. -1.
         24    1    1    2    0    0  0.74246642143E+02 -0.23787055956E+02 -0.52798266024E+03  0.53973261285E+03  0.80419002446E+02 0.  0.
        -24    1    1    2    0    0 -0.74246642143E+02  0.23787055956E+02 -0.32288487477E+03  0.34176051002E+03  0.80419002446E+02 0.  1.
<mgrwt>
<rscale>  0 0.11200716E+03</rscale>
<asrwt>0</asrwt>
<pdfrwt beam="1">  1        2 0.13325850E+00 0.11200716E+03</pdfrwt>
<pdfrwt beam="2">  1       -2 0.23558146E-02 0.11200716E+03</pdfrwt>
<totfact> 0.18198297E+04</totfact>
</mgrwt>
</event>
<event>
 4    1  0.6602701E-002  0.8780106E+02  0.7546771E-02  0.1308266E+00
         -2   -1    0    0    0  501 -0.00000000000E+00  0.00000000000E+00  0.58799815562E+01  0.58799815562E+01  0.00000000000E+00 0.  1.
          2   -1    0    0  501    0  0.00000000000E+00 -0.00000000000E+00 -0.18069229507E+04  0.18069229507E+04  0.00000000000E+00 0. -1.
         24    1    1    2    0    0 -0.34897837863E+02 -0.48939654412E+01 -0.13753429264E+04  0.13781426599E+04  0.80419002446E+02 0. -1.
        -24    1    1    2    0    0  0.34897837863E+02  0.48939654412E+01 -0.42570004269E+03  0.43466027227E+03  0.80419002446E+02 0.  1.
<mgrwt>
<rscale>  0 0.87801059E+02</rscale>
<asrwt>0</asrwt>
<pdfrwt beam="1">  1        2 0.27798836E+00 0.87801059E+02</pdfrwt>
<pdfrwt beam="2">  1       -2 0.90461186E-03 0.87801059E+02</pdfrwt>
<totfact> 0.21794419E+04</totfact>
</mgrwt>
</event>
<event>
 4    1  0.6602701E-002  0.8740201E+02  0.7546771E-02  0.1309268E+00
          2   -1    0    0  501    0  0.00000000000E+00  0.00000000000E+00  0.49550371728E+03  0.49550371728E+03  0.00000000000E+00 0. -1.
         -2   -1    0    0    0  501 -0.00000000000E+00 -0.00000000000E+00 -0.15967797970E+02  0.15967797970E+02  0.00000000000E+00 0.  1.
         24    1    1    2    0    0 -0.22053546981E+01 -0.34161839224E+02  0.28727093364E+03  0.30027270957E+03  0.80419002446E+02 0. -1.
        -24    1    1    2    0    0  0.22053546981E+01  0.34161839224E+02  0.19226498567E+03  0.21119880567E+03  0.80419002446E+02 0.  1.
<mgrwt>
<rscale>  0 0.87402007E+02</rscale>
<asrwt>0</asrwt>
<pdfrwt beam="1">  1        2 0.76231329E-01 0.87402007E+02</pdfrwt>
<pdfrwt beam="2">  1       -2 0.24565847E-02 0.87402007E+02</pdfrwt>
<totfact> 0.31915215E+04</totfact>
</mgrwt>
</event>
<event>
 4    1  0.6602701E-002  0.1323651E+03  0.7546771E-02  0.1223988E+00
         -2   -1    0    0    0  501 -0.00000000000E+00  0.00000000000E+00  0.18437092792E+03  0.18437092792E+03  0.00000000000E+00 0.  1.
          2   -1    0    0  501    0  0.00000000000E+00 -0.00000000000E+00 -0.95121267611E+02  0.95121267611E+02  0.00000000000E+00 0. -1.
         24    1    1    2    0    0 -0.58476145777E+02  0.87371866179E+02  0.40263986088E+02  0.13835355852E+03  0.80419002446E+02 0.  0.
        -24    1    1    2    0    0  0.58476145777E+02 -0.87371866179E+02  0.48985674221E+02  0.14113863701E+03  0.80419002446E+02 0. -1.
<mgrwt>
<rscale>  0 0.13236510E+03</rscale>
<asrwt>0</asrwt>
<pdfrwt beam="1">  1        2 0.14634041E-01 0.13236510E+03</pdfrwt>
<pdfrwt beam="2">  1       -2 0.28364758E-01 0.13236510E+03</pdfrwt>
<totfact> 0.43366622E+03</totfact>
</mgrwt>
</event>
<event>
 4    1  0.6602701E-002  0.9007055E+02  0.7546771E-02  0.1302681E+00
         -1   -1    0    0    0  501 -0.00000000000E+00  0.00000000000E+00  0.83635135692E+01  0.83635135692E+01  0.00000000000E+00 0.  1.
          1   -1    0    0  501    0  0.00000000000E+00 -0.00000000000E+00 -0.12321463838E+04  0.12321463838E+04  0.00000000000E+00 0. -1.
         24    1    1    2    0    0  0.39164593362E+02  0.10565188433E+02 -0.32580222739E+03  0.33802336592E+03  0.80419002446E+02 0.  1.
        -24    1    1    2    0    0 -0.39164593362E+02 -0.10565188433E+02 -0.89798064286E+03  0.90248653147E+03  0.80419002446E+02 0. -1.
<mgrwt>
<rscale>  0 0.90070553E+02</rscale>
<asrwt>0</asrwt>
<pdfrwt beam="1">  1        1 0.18956088E+00 0.90070553E+02</pdfrwt>
<pdfrwt beam="2">  1       -1 0.12866951E-02 0.90070553E+02</pdfrwt>
<totfact> 0.13312760E+04</totfact>
</mgrwt>
</event>
<event>
 4    1  0.6602701E-002  0.8573378E+02  0.7546771E-02  0.1313525E+00
          2   -1    0    0  501    0  0.00000000000E+00  0.00000000000E+00  0.30659255060E+04  0.30659255060E+04  0.00000000000E+00 0. -1.
         -2   -1    0    0    0  501 -0.00000000000E+00 -0.00000000000E+00 -0.28459166955E+01  0.28459166955E+01  0.00000000000E+00 0.  1.
         24    1    1    2    0    0  0.28766569586E+02 -0.74531074236E+01  0.21406669304E+04  0.21423830627E+04  0.80419002446E+02 0. -1.
        -24    1    1    2    0    0 -0.28766569586E+02  0.74531074236E+01  0.92241265888E+03  0.92638836000E+03  0.80419002446E+02 0.  1.
<mgrwt>
<rscale>  0 0.85733776E+02</rscale>
<asrwt>0</asrwt>
<pdfrwt beam="1">  1        2 0.47167820E+00 0.85733776E+02</pdfrwt>
<pdfrwt beam="2">  1       -2 0.43783579E-03 0.85733776E+02</pdfrwt>
<totfact> 0.13136144E+04</totfact>
</mgrwt>
</event>
<event>
 4    1  0.6602701E-002  0.9246364E+02  0.7546771E-02  0.1296993E+00
          1   -1    0    0  501    0  0.00000000000E+00  0.00000000000E+00  0.91488974708E+03  0.91488974708E+03  0.00000000000E+00 0. -1.
         -1   -1    0    0    0  501 -0.00000000000E+00 -0.00000000000E+00 -0.97242983198E+01  0.97242983198E+01  0.00000000000E+00 0.  1.
         24    1    1    2    0    0  0.30108459249E+01 -0.45532879922E+02  0.36126246597E+03  0.37290762076E+03  0.80419002446E+02 0.  1.
        -24    1    1    2    0    0 -0.30108459249E+01  0.45532879922E+02  0.54390298280E+03  0.55170642465E+03  0.80419002446E+02 0. -1.
<mgrwt>
<rscale>  0 0.92463638E+02</rscale>
<asrwt>0</asrwt>
<pdfrwt beam="1">  1        1 0.14075220E+00 0.92463638E+02</pdfrwt>
<pdfrwt beam="2">  1       -1 0.14960466E-02 0.92463638E+02</pdfrwt>
<totfact> 0.18001288E+04</totfact>
</mgrwt>
</event>
<event>
 4    1  0.6602701E-002  0.1527760E+03  0.7546771E-02  0.1197103E+00
          2   -1    0    0  501    0  0.00000000000E+00  0.00000000000E+00  0.18322001670E+03  0.18322001670E+03  0.00000000000E+00 0. -1.
         -2   -1    0    0    0  501 -0.00000000000E+00 -0.00000000000E+00 -0.20640874622E+03  0.20640874622E+03  0.00000000000E+00 0.  1.
         24    1    1    2    0    0 -0.12016247845E+03  0.49338297820E+02  0.10894264962E+03  0.18764062918E+03  0.80419002446E+02 0. -1.
        -24    1    1    2    0    0  0.12016247845E+03 -0.49338297820E+02 -0.13213137915E+03  0.20198813373E+03  0.80419002446E+02 0.  1.
<mgrwt>
<rscale>  0 0.15277600E+03</rscale>
<asrwt>0</asrwt>
<pdfrwt beam="1">  1        2 0.28187695E-01 0.15277600E+03</pdfrwt>
<pdfrwt beam="2">  1       -2 0.31755192E-01 0.15277600E+03</pdfrwt>
<totfact> 0.16976521E+03</totfact>
</mgrwt>
</event>
<event>
 4    1  0.6602701E-002  0.1288520E+03  0.7546771E-02  0.1229169E+00
         -2   -1    0    0    0  501 -0.00000000000E+00  0.00000000000E+00  0.13011898167E+02  0.13011898167E+02  0.00000000000E+00 0.  1.
          2   -1    0    0  501    0  0.00000000000E+00 -0.00000000000E+00 -0.12762736101E+04  0.12762736101E+04  0.00000000000E+00 0. -1.
         24    1    1    2    0    0 -0.94863239122E+02 -0.33713320496E+02 -0.62174665151E+03  0.63495805903E+03  0.80419002446E+02 0. -1.
        -24    1    1    2    0    0  0.94863239122E+02  0.33713320496E+02 -0.64151506044E+03  0.65432744924E+03  0.80419002446E+02 0.  1.
<mgrwt>
<rscale>  0 0.12885202E+03</rscale>
<asrwt>0</asrwt>
<pdfrwt beam="1">  1        2 0.19634983E+00 0.12885203E+03</pdfrwt>
<pdfrwt beam="2">  1       -2 0.20018300E-02 0.12885203E+03</pdfrwt>
<totfact> 0.13451534E+04</totfact>
</mgrwt>
</event>
<event>
 4    1  0.6602701E-002  0.8641766E+02  0.7546771E-02  0.1311766E+00
         -3   -1    0    0    0  501 -0.00000000000E+00  0.00000000000E+00  0.18988269752E+03  0.18988269752E+03  0.00000000000E+00 0.  1.
          3   -1    0    0  501    0  0.00000000000E+00 -0.00000000000E+00 -0.40575906421E+02  0.40575906421E+02  0.00000000000E+00 0. -1.
         24    1    1    2    0    0 -0.30311030536E+02  0.90574592447E+01  0.94848207154E+02  0.12831287735E+03  0.80419002446E+02 0.  1.
        -24    1    1    2    0    0  0.30311030536E+02 -0.90574592447E+01  0.54458583943E+02  0.10214572659E+03  0.80419002446E+02 0. -1.
<mgrwt>
<rscale>  0 0.86417661E+02</rscale>
<asrwt>0</asrwt>
<pdfrwt beam="1">  1        3 0.62424472E-02 0.86417661E+02</pdfrwt>
<pdfrwt beam="2">  1       -3 0.29212722E-01 0.86417661E+02</pdfrwt>
<totfact> 0.37431703E+03</totfact>
</mgrwt>
</event>
<event>
 4    1  0.6602701E-002  0.8414156E+02  0.7546771E-02  0.1317693E+00
         -3   -1    0    0    0  501 -0.00000000000E+00  0.00000000000E+00  0.48994381579E+02  0.48994381579E+02  0.00000000000E+00 0.  1.
          3   -1    0    0  501    0  0.00000000000E+00 -0.00000000000E+00 -0.27759566096E+03  0.27759566096E+03  0.00000000000E+00 0. -1.
         24    1    1    2    0    0 -0.24569712012E+02  0.29857672129E+01 -0.12313196942E+01  0.84150565398E+02  0.80419002446E+02 0.  1.
        -24    1    1    2    0    0  0.24569712012E+02 -0.29857672129E+01 -0.22736995969E+03  0.24243947714E+03  0.80419002446E+02 0. -1.
<mgrwt>
<rscale>  0 0.84141556E+02</rscale>
<asrwt>0</asrwt>
<pdfrwt beam="1">  1        3 0.42707024E-01 0.84141556E+02</pdfrwt>
<pdfrwt beam="2">  1       -3 0.75375973E-02 0.84141556E+02</pdfrwt>
<totfact> 0.13543241E+03</totfact>
</mgrwt>
</event>
<event>
 4    1  0.6602701E-002  0.9483735E+02  0.7546771E-02  0.1291543E+00
         -1   -1    0    0    0  501 -0.00000000000E+00  0.00000000000E+00  0.19475689998E+03  0.19475689998E+03  0.00000000000E+00 0.  1.
          1   -1    0    0  501    0  0.00000000000E+00 -0.00000000000E+00 -0.10385521792E+03  0.10385521792E+03  0.00000000000E+00 0. -1.
         24    1    1    2    0    0 -0.50230650587E+02 -0.19463831404E+01  0.15671443399E+03  0.18317624421E+03  0.80419002446E+02 0.  1.
        -24    1    1    2    0    0  0.50230650587E+02  0.19463831404E+01 -0.65812751930E+02  0.11543587370E+03  0.80419002446E+02 0. -1.
<mgrwt>
<rscale>  0 0.94837348E+02</rscale>
<asrwt>0</asrwt>
<pdfrwt beam="1">  1        1 0.15977726E-01 0.94837348E+02</pdfrwt>
<pdfrwt beam="2">  1       -1 0.29962600E-01 0.94837348E+02</pdfrwt>
<totfact> 0.33098366E+03</totfact>
</mgrwt>
</event>
<event>
 4    1  0.6602701E-002  0.9120319E+02  0.7546771E-02  0.1299964E+00
         -2   -1    0    0    0  501 -0.00000000000E+00  0.00000000000E+00  0.45985938304E+01  0.45985938304E+01  0.00000000000E+00 0.  1.
          2   -1    0    0  501    0  0.00000000000E+00 -0.00000000000E+00 -0.20129004375E+04  0.20129004375E+04  0.00000000000E+00 0. -1.
         24    1    1    2    0    0 -0.42659749411E+02  0.55634519856E+01 -0.13253500389E+04  0.13284843800E+04  0.80419002446E+02 0.  1.
        -24    1    1    2    0    0  0.42659749411E+02 -0.55634519856E+01 -0.68295180478E+03  0.68901465139E+03  0.80419002446E+02 0. -1.
<mgrwt>
<rscale>  0 0.91203192E+02</rscale>
<asrwt>0</asrwt>
<pdfrwt beam="1">  1        2 0.30967671E+00 0.91203192E+02</pdfrwt>
<pdfrwt beam="2">  1       -2 0.70747661E-03 0.91203192E+02</pdfrwt>
<totfact> 0.24359263E+04</totfact>
</mgrwt>
</event>
<event>
 4    1  0.6602701E-002  0.8819605E+02  0.7546771E-02  0.1307280E+00
          2   -1    0    0  501    0  0.00000000000E+00  0.00000000000E+00  0.76448222351E+03  0.76448222351E+03  0.00000000000E+00 0. -1.
         -2   -1    0    0    0  501 -0.00000000000E+00 -0.00000000000E+00 -0.13744150445E+02  0.13744150445E+02  0.00000000000E+00 0.  1.
         24    1    1    2    0    0  0.29749840587E+02 -0.20646390181E+02  0.57366073725E+03  0.58040088203E+03  0.80419002446E+02 0. -1.
        -24    1    1    2    0    0 -0.29749840587E+02  0.20646390181E+02  0.17707733582E+03  0.19782549193E+03  0.80419002446E+02 0.  1.
<mgrwt>
<rscale>  0 0.88196045E+02</rscale>
<asrwt>0</asrwt>
<pdfrwt beam="1">  1        2 0.11761262E+00 0.88196045E+02</pdfrwt>
<pdfrwt beam="2">  1       -2 0.21144853E-02 0.88196045E+02</pdfrwt>
<totfact> 0.24300608E+04</totfact>
</mgrwt>
</event>
<event>
 4    1  0.6602701E-002  0.1045723E+03  0.7546771E-02  0.1270965E+00
         -1   -1    0    0    0  501 -0.00000000000E+00  0.00000000000E+00  0.85621329178E+03  0.85621329178E+03  0.00000000000E+00 0.  1.
          1   -1    0    0  501    0  0.00000000000E+00 -0.00000000000E+00 -0.15379546661E+02  0.15379546661E+02  0.00000000000E+00 0. -1.
         24    1    1    2    0    0 -0.66275726374E+02  0.86988375657E+01  0.24096531055E+03  0.26267782267E+03  0.80419002446E+02 0. -1.
        -24    1    1    2    0    0  0.66275726374E+02 -0.86988375657E+01  0.59986843457E+03  0.60891501577E+03  0.80419002446E+02 0.  1.
<mgrwt>
<rscale>  0 0.10457227E+03</rscale>
<asrwt>0</asrwt>
<pdfrwt beam="1">  1        1 0.23660848E-02 0.10457229E+03</pdfrwt>
<pdfrwt beam="2">  1       -1 0.13172508E+00 0.10457229E+03</pdfrwt>
<totfact> 0.23910328E+03</totfact>
</mgrwt>
</event>
<event>
 4    1  0.6602701E-002  0.9644480E+02  0.7546771E-02  0.1287955E+00
          2   -1    0    0  501    0  0.00000000000E+00  0.00000000000E+00  0.29699530365E+04  0.29699530365E+04  0.00000000000E+00 0. -1.
         -2   -1    0    0    0  501 -0.00000000000E+00 -0.00000000000E+00 -0.37393646129E+01  0.37393646129E+01  0.00000000000E+00 0.  1.
         24    1    1    2    0    0 -0.52417625680E+02  0.93153253521E+01  0.20823834005E+04  0.20846156061E+04  0.80419002446E+02 0. -1.
        -24    1    1    2    0    0  0.52417625680E+02 -0.93153253521E+01  0.88383027140E+03  0.88907679497E+03  0.80419002446E+02 0.  1.
<mgrwt>
<rscale>  0 0.96444796E+02</rscale>
<asrwt>0</asrwt>
<pdfrwt beam="1">  1        2 0.45691396E+00 0.96444796E+02</pdfrwt>
<pdfrwt beam="2">  1       -2 0.57528924E-03 0.96444796E+02</pdfrwt>
<totfact> 0.10194722E+04</totfact>
</mgrwt>
</event>
<event>
 4    1  0.6602701E-002  0.8936025E+02  0.7546771E-02  0.1304408E+00
          1   -1    0    0  501    0  0.00000000000E+00  0.00000000000E+00  0.14141066385E+03  0.14141066385E+03  0.00000000000E+00 0. -1.
         -1   -1    0    0    0  501 -0.00000000000E+00 -0.00000000000E+00 -0.62717592874E+02  0.62717592874E+02  0.00000000000E+00 0.  1.
         24    1    1    2    0    0 -0.13420424681E+02  0.36577729446E+02  0.71295084127E+01  0.89644207480E+02  0.80419002446E+02 0.  0.
        -24    1    1    2    0    0  0.13420424681E+02 -0.36577729446E+02  0.71563562560E+02  0.11448404924E+03  0.80419002446E+02 0.  1.
<mgrwt>
<rscale>  0 0.89360249E+02</rscale>
<asrwt>0</asrwt>
<pdfrwt beam="1">  1        1 0.21755487E-01 0.89360249E+02</pdfrwt>
<pdfrwt beam="2">  1       -1 0.96488604E-02 0.89360249E+02</pdfrwt>
<totfact> 0.13254058E+04</totfact>
</mgrwt>
</event>
<event>
 4    1  0.6602701E-002  0.1326202E+03  0.7546771E-02  0.1223619E+00
          1   -1    0    0  501    0  0.00000000000E+00  0.00000000000E+00  0.44730495536E+03  0.44730495536E+03  0.00000000000E+00 0. -1.
         -1   -1    0    0    0  501 -0.00000000000E+00 -0.00000000000E+00 -0.44446283916E+02  0.44446283916E+02  0.00000000000E+00 0.  1.
         24    1    1    2    0    0 -0.13867304153E+02  0.10453997777E+03  0.11792862970E+03  0.17746911487E+03  0.80419002446E+02 0.  1.
        -24    1    1    2    0    0  0.13867304153E+02 -0.10453997777E+03  0.28493004175E+03  0.31428212441E+03  0.80419002446E+02 0. -1.
<mgrwt>
<rscale>  0 0.13262023E+03</rscale>
<asrwt>0</asrwt>
<pdfrwt beam="1">  1        1 0.68816144E-01 0.13262023E+03</pdfrwt>
<pdfrwt beam="2">  1       -1 0.68378901E-02 0.13262023E+03</pdfrwt>
<totfact> 0.55036863E+03</totfact>
</mgrwt>
</event>
<event>
 4    1  0.6602701E-002  0.1688210E+03  0.7546771E-02  0.1179083E+00
          1   -1    0    0  501    0  0.00000000000E+00  0.00000000000E+00  0.70648257208E+03  0.70648257208E+03  0.00000000000E+00 0. -1.
         -1   -1    0    0    0  501 -0.00000000000E+00 -0.00000000000E+00 -0.89293258475E+02  0.89293258475E+02  0.00000000000E+00 0.  1.
         24    1    1    2    0    0 -0.12787369641E+03 -0.75376652981E+02  0.13992622157E+02  0.16939991581E+03  0.80419002446E+02 0.  1.
        -24    1    1    2    0    0  0.12787369641E+03  0.75376652981E+02  0.60319669145E+03  0.62637591475E+03  0.80419002446E+02 0. -1.
<mgrwt>
<rscale>  0 0.16882102E+03</rscale>
<asrwt>0</asrwt>
<pdfrwt beam="1">  1        1 0.10868962E+00 0.16882102E+03</pdfrwt>
<pdfrwt beam="2">  1       -1 0.13737425E-01 0.16882102E+03</pdfrwt>
<totfact> 0.10298886E+03</totfact>
</mgrwt>
</event>
<event>
 4    1  0.6602701E-002  0.1672353E+03  0.7546771E-02  0.1180762E+00
          2   -1    0    0  501    0  0.00000000000E+00  0.00000000000E+00  0.64730678261E+03  0.64730678261E+03  0.00000000000E+00 0. -1.
         -2   -1    0    0    0  501 -0.00000000000E+00 -0.00000000000E+00 -0.48449087110E+02  0.48449087110E+02  0.00000000000E+00 0.  1.
         24    1    1    2    0    0  0.11930328512E+03 -0.85247692860E+02  0.41386672925E+03  0.44637801079E+03  0.80419002446E+02 0.  1.
        -24    1    1    2    0    0 -0.11930328512E+03  0.85247692860E+02  0.18499096624E+03  0.24937785893E+03  0.80419002446E+02 0. -1.
<mgrwt>
<rscale>  0 0.16723534E+03</rscale>
<asrwt>0</asrwt>
<pdfrwt beam="1">  1        2 0.99585653E-01 0.16723534E+03</pdfrwt>
<pdfrwt beam="2">  1       -2 0.74537061E-02 0.16723534E+03</pdfrwt>
<totfact> 0.47646892E+03</totfact>
</mgrwt>
</event>
<event>
 4    1  0.6602701E-002  0.1115562E+03  0.7546771E-02  0.1257715E+00
          1   -1    0    0  501    0  0.00000000000E+00  0.00000000000E+00  0.12395885066E+03  0.12395885066E+03  0.00000000000E+00 0. -1.
         -1   -1    0    0    0  501 -0.00000000000E+00 -0.00000000000E+00 -0.10590242892E+03  0.10590242892E+03  0.00000000000E+00 0.  1.
         24    1    1    2    0    0  0.77259606737E+02 -0.29186434780E+01  0.35238921589E+02  0.11698958442E+03  0.80419002446E+02 0. -1.
        -24    1    1    2    0    0 -0.77259606737E+02  0.29186434780E+01 -0.17182499851E+02  0.11287169516E+03  0.80419002446E+02 0.  1.
<mgrwt>
<rscale>  0 0.11155619E+03</rscale>
<asrwt>0</asrwt>
<pdfrwt beam="1">  1        1 0.19070593E-01 0.11155621E+03</pdfrwt>
<pdfrwt beam="2">  1       -1 0.16292681E-01 0.11155621E+03</pdfrwt>
<totfact> 0.71361304E+03</totfact>
</mgrwt>
</event>
<event>
 4    1  0.6602701E-002  0.9480148E+02  0.7546771E-02  0.1291624E+00
         -1   -1    0    0    0  501 -0.00000000000E+00  0.00000000000E+00  0.94186455356E+01  0.94186455356E+01  0.00000000000E+00 0.  1.
          1   -1    0    0  501    0  0.00000000000E+00 -0.00000000000E+00 -0.10148725597E+04  0.10148725597E+04  0.00000000000E+00 0. -1.
         24    1    1    2    0    0  0.24076365245E+00 -0.50200070482E+02 -0.37750944549E+03  0.38923091145E+03  0.80419002446E+02 0. -1.
        -24    1    1    2    0    0 -0.24076365245E+00  0.50200070482E+02 -0.62794446869E+03  0.63506029380E+03  0.80419002446E+02 0.  0.
<mgrwt>
<rscale>  0 0.94801482E+02</rscale>
<asrwt>0</asrwt>
<pdfrwt beam="1">  1        1 0.15613421E+00 0.94801482E+02</pdfrwt>
<pdfrwt beam="2">  1       -1 0.14490227E-02 0.94801482E+02</pdfrwt>
<totfact> 0.15945414E+04</totfact>
</mgrwt>
</event>
<event>
 4    1  0.6602701E-002  0.8405264E+02  0.7546771E-02  0.1317929E+00
         -1   -1    0    0    0  501 -0.00000000000E+00  0.00000000000E+00  0.24897422422E+03  0.24897422422E+03  0.00000000000E+00 0.  1.
          1   -1    0    0  501    0  0.00000000000E+00 -0.00000000000E+00 -0.81445980222E+02  0.81445980222E+02  0.00000000000E+00 0. -1.
         24    1    1    2    0    0 -0.11619232536E+02  0.21508698925E+02  0.21712455303E+03  0.23282593966E+03  0.80419002446E+02 0.  1.
        -24    1    1    2    0    0  0.11619232536E+02 -0.21508698925E+02 -0.49596309035E+02  0.97594264783E+02  0.80419002446E+02 0. -1.
<mgrwt>
<rscale>  0 0.84052642E+02</rscale>
<asrwt>0</asrwt>
<pdfrwt beam="1">  1        1 0.12530151E-01 0.84052642E+02</pdfrwt>
<pdfrwt beam="2">  1       -1 0.38303726E-01 0.84052642E+02</pdfrwt>
<totfact> 0.29626314E+03</totfact>
</mgrwt>
</event>
<event>
 4    1  0.6602701E-002  0.8712712E+02  0.7546771E-02  0.1309962E+00
          2   -1    0    0  501    0  0.00000000000E+00  0.00000000000E+00  0.14042849617E+04  0.14042849617E+04  0.00000000000E+00 0. -1.
         -2   -1    0    0    0  501 -0.00000000000E+00 -0.00000000000E+00 -0.54161160632E+01  0.54161160632E+01  0.00000000000E+00 0.  1.
         24    1    1    2    0    0  0.20528875218E+01  0.33461940983E+02  0.66851194025E+03  0.67416566662E+03  0.80419002446E+02 0.  1.
        -24    1    1    2    0    0 -0.20528875218E+01 -0.33461940983E+02  0.73035690543E+03  0.73553541119E+03  0.80419002446E+02 0. -1.
<mgrwt>
<rscale>  0 0.87127112E+02</rscale>
<asrwt>0</asrwt>
<pdfrwt beam="1">  1        2 0.21604355E+00 0.87127123E+02</pdfrwt>
<pdfrwt beam="2">  1       -2 0.83324974E-03 0.87127123E+02</pdfrwt>
<totfact> 0.39099525E+04</totfact>
</mgrwt>
</event>
<event>
 4    1  0.6602701E-002  0.8403497E+02  0.7546771E-02  0.1317976E+00
         -2   -1    0    0    0  501 -0.00000000000E+00  0.00000000000E+00  0.52927912080E+01  0.52927912080E+01  0.00000000000E+00 0.  1.
          2   -1    0    0  501    0  0.00000000000E+00 -0.00000000000E+00 -0.15900881864E+04  0.15900881864E+04  0.00000000000E+00 0. -1.
         24    1    1    2    0    0 -0.22727723770E+02 -0.88380259449E+01 -0.11123692710E+04  0.11155390047E+04  0.80419002446E+02 0. -1.
        -24    1    1    2    0    0  0.22727723770E+02  0.88380259449E+01 -0.47242612427E+03  0.47984197292E+03  0.80419002446E+02 0.  1.
<mgrwt>
<rscale>  0 0.84034969E+02</rscale>
<asrwt>0</asrwt>
<pdfrwt beam="1">  1        2 0.24462937E+00 0.84034969E+02</pdfrwt>
<pdfrwt beam="2">  1       -2 0.81427418E-03 0.84034969E+02</pdfrwt>
<totfact> 0.32366669E+04</totfact>
</mgrwt>
</event>
<event>
 4    1  0.6602701E-002  0.8422753E+02  0.7546771E-02  0.1317465E+00
         -1   -1    0    0    0  501 -0.00000000000E+00  0.00000000000E+00  0.15861166645E+02  0.15861166645E+02  0.00000000000E+00 0.  1.
          1   -1    0    0  501    0  0.00000000000E+00 -0.00000000000E+00 -0.60572655980E+03  0.60572655980E+03  0.00000000000E+00 0. -1.
         24    1    1    2    0    0 -0.10759697388E+00 -0.25040958011E+02 -0.13597386949E+03  0.15994739852E+03  0.80419002446E+02 0.  1.
        -24    1    1    2    0    0  0.10759697388E+00  0.25040958011E+02 -0.45389152367E+03  0.46164032792E+03  0.80419002446E+02 0. -1.
<mgrwt>
<rscale>  0 0.84227532E+02</rscale>
<asrwt>0</asrwt>
<pdfrwt beam="1">  1        1 0.93188712E-01 0.84227532E+02</pdfrwt>
<pdfrwt beam="2">  1       -1 0.24401792E-02 0.84227532E+02</pdfrwt>
<totfact> 0.16131881E+04</totfact>
</mgrwt>
</event>
<event>
 4    1  0.6602701E-002  0.1304231E+03  0.7546771E-02  0.1226829E+00
          1   -1    0    0  501    0  0.00000000000E+00  0.00000000000E+00  0.36284097670E+03  0.36284097670E+03  0.00000000000E+00 0. -1.
         -1   -1    0    0    0  501 -0.00000000000E+00 -0.00000000000E+00 -0.10575847837E+03  0.10575847837E+03  0.00000000000E+00 0.  1.
         24    1    1    2    0    0  0.72573606730E+02  0.72636395831E+02 -0.46278457931E+02  0.13839033932E+03  0.80419002446E+02 0.  1.
        -24    1    1    2    0    0 -0.72573606730E+02 -0.72636395831E+02  0.30336095626E+03  0.33020911575E+03  0.80419002446E+02 0. -1.
<mgrwt>
<rscale>  0 0.13042312E+03</rscale>
<asrwt>0</asrwt>
<pdfrwt beam="1">  1        1 0.55821688E-01 0.13042312E+03</pdfrwt>
<pdfrwt beam="2">  1       -1 0.16270535E-01 0.13042312E+03</pdfrwt>
<totfact> 0.18980209E+03</totfact>
</mgrwt>
</event>
<event>
 4    1  0.6602701E-002  0.9980123E+02  0.7546771E-02  0.1280715E+00
          3   -1    0    0  501    0  0.00000000000E+00  0.00000000000E+00  0.38173183616E+02  0.38173183616E+02  0.00000000000E+00 0. -1.
         -3   -1    0    0    0  501 -0.00000000000E+00 -0.00000000000E+00 -0.27274572994E+03  0.27274572994E+03  0.00000000000E+00 0.  1.
         24    1    1    2    0    0  0.34175069843E+02 -0.48219602256E+02 -0.84920385636E+02  0.13104103667E+03  0.80419002446E+02 0.  1.
        -24    1    1    2    0    0 -0.34175069843E+02  0.48219602256E+02 -0.14965216069E+03  0.17987787689E+03  0.80419002446E+02 0. -1.
<mgrwt>
<rscale>  0 0.99801222E+02</rscale>
<asrwt>0</asrwt>
<pdfrwt beam="1">  1        3 0.58727976E-02 0.99801234E+02</pdfrwt>
<pdfrwt beam="2">  1       -3 0.41960881E-01 0.99801234E+02</pdfrwt>
<totfact> 0.21560634E+03</totfact>
</mgrwt>
</event>
<event>
 4    1  0.6602701E-002  0.9212517E+02  0.7546771E-02  0.1297785E+00
         -1   -1    0    0    0  501 -0.00000000000E+00  0.00000000000E+00  0.17742929756E+02  0.17742929756E+02  0.00000000000E+00 0.  1.
          1   -1    0    0  501    0  0.00000000000E+00 -0.00000000000E+00 -0.70324814877E+03  0.70324814877E+03  0.00000000000E+00 0. -1.
         24    1    1    2    0    0  0.52780188162E+01  0.44631538249E+02 -0.13888232647E+03  0.16665937792E+03  0.80419002446E+02 0.  0.
        -24    1    1    2    0    0 -0.52780188162E+01 -0.44631538249E+02 -0.54662289254E+03  0.55433170060E+03  0.80419002446E+02 0.  0.
<mgrwt>
<rscale>  0 0.92125174E+02</rscale>
<asrwt>0</asrwt>
<pdfrwt beam="1">  1        1 0.10819202E+00 0.92125174E+02</pdfrwt>
<pdfrwt beam="2">  1       -1 0.27296815E-02 0.92125174E+02</pdfrwt>
<totfact> 0.11279008E+04</totfact>
</mgrwt>
</event>
<event>
 4    1  0.6602701E-002  0.1289310E+03  0.7546771E-02  0.1229051E+00
          2   -1    0    0  501    0  0.00000000000E+00  0.00000000000E+00  0.76052181421E+03  0.76052181421E+03  0.00000000000E+00 0. -1.
         -2   -1    0    0    0  501 -0.00000000000E+00 -0.00000000000E+00 -0.24498008563E+02  0.24498008563E+02  0.00000000000E+00 0.  1.
         24    1    1    2    0    0  0.68588707022E+02 -0.73834744631E+02  0.49687222856E+03  0.51332758324E+03  0.80419002446E+02 0. -1.
        -24    1    1    2    0    0 -0.68588707022E+02  0.73834744631E+02  0.23915157709E+03  0.27169223953E+03  0.80419002446E+02 0.  1.
<mgrwt>
<rscale>  0 0.12893097E+03</rscale>
<asrwt>0</asrwt>
<pdfrwt beam="1">  1        2 0.11700334E+00 0.12893097E+03</pdfrwt>
<pdfrwt beam="2">  1       -2 0.37689250E-02 0.12893097E+03</pdfrwt>
<totfact> 0.10858599E+04</totfact>
</mgrwt>
</event>
<event>
 4    1  0.6602701E-002  0.1274767E+03  0.7546771E-02  0.1231249E+00
         -3   -1    0    0    0  501 -0.00000000000E+00  0.00000000000E+00  0.39850181272E+02  0.39850181272E+02  0.00000000000E+00 0.  1.
          3   -1    0    0  501    0  0.00000000000E+00 -0.00000000000E+00 -0.46841852534E+03  0.46841852534E+03  0.00000000000E+00 0. -1.
         24    1    1    2    0    0  0.50081524956E+02 -0.85293248863E+02 -0.12285135407E+03  0.17703889006E+03  0.80419002446E+02 0.  1.
        -24    1    1    2    0    0 -0.50081524956E+02  0.85293248863E+02 -0.30571699000E+03  0.33122981655E+03  0.80419002446E+02 0. -1.
<mgrwt>
<rscale>  0 0.12747672E+03</rscale>
<asrwt>0</asrwt>
<pdfrwt beam="1">  1        3 0.72064388E-01 0.12747672E+03</pdfrwt>
<pdfrwt beam="2">  1       -3 0.61307971E-02 0.12747672E+03</pdfrwt>
<totfact> 0.70509324E+02</totfact>
</mgrwt>
</event>
<event>
 4    1  0.6602701E-002  0.9826336E+02  0.7546771E-02  0.1283991E+00
         -1   -1    0    0    0  501 -0.00000000000E+00  0.00000000000E+00  0.43172393135E+02  0.43172393135E+02  0.00000000000E+00 0.  1.
          1   -1    0    0  501    0  0.00000000000E+00 -0.00000000000E+00 -0.26514537834E+03  0.26514537834E+03  0.00000000000E+00 0. -1.
         24    1    1    2    0    0  0.47805571533E+02  0.30051622904E+02 -0.50004133566E+02  0.11025471435E+03  0.80419002446E+02 0.  1.
        -24    1    1    2    0    0 -0.47805571533E+02 -0.30051622904E+02 -0.17196885164E+03  0.19806305713E+03  0.80419002446E+02 0. -1.
<mgrwt>
<rscale>  0 0.98263364E+02</rscale>
<asrwt>0</asrwt>
<pdfrwt beam="1">  1        1 0.40791597E-01 0.98263364E+02</pdfrwt>
<pdfrwt beam="2">  1       -1 0.66419066E-02 0.98263364E+02</pdfrwt>
<totfact> 0.10769167E+04</totfact>
</mgrwt>
</event>
<event>
 4    1  0.6639568E-002  0.1084587E+03  0.7546771E-02  0.1263451E+00
          1   -1    0    0  501    0  0.00000000000E+00  0.00000000000E+00  0.36235651254E+03  0.36235651254E+03  0.00000000000E+00 0. -1.
         -1   -1    0    0    0  501 -0.00000000000E+00 -0.00000000000E+00 -0.97498793632E+02  0.97498793632E+02  0.00000000000E+00 0.  1.
         24    1    1    2    0    0  0.45516433825E+02  0.56783225763E+02 -0.55358661948E+02  0.12176977410E+03  0.80419002446E+02 0.  1.
        -24    1    1    2    0    0 -0.45516433825E+02 -0.56783225763E+02  0.32021638086E+03  0.33808553208E+03  0.80419002446E+02 0. -1.
<mgrwt>
<rscale>  0 0.10845873E+03</rscale>
<asrwt>0</asrwt>
<pdfrwt beam="1">  1        1 0.55747155E-01 0.10845873E+03</pdfrwt>
<pdfrwt beam="2">  1       -1 0.14999815E-01 0.10845873E+03</pdfrwt>
<totfact> 0.21456382E+03</totfact>
</mgrwt>
</event>
<event>
 4    1  0.6602701E-002  0.1057340E+03  0.7546771E-02  0.1268680E+00
          2   -1    0    0  501    0  0.00000000000E+00  0.00000000000E+00  0.18308247479E+04  0.18308247479E+04  0.00000000000E+00 0. -1.
         -2   -1    0    0    0  501 -0.00000000000E+00 -0.00000000000E+00 -0.90269117578E+01  0.90269117578E+01  0.00000000000E+00 0.  1.
         24    1    1    2    0    0 -0.68295889713E+02 -0.69372170479E+01  0.14341569369E+04  0.14380492999E+04  0.80419002446E+02 0. -1.
        -24    1    1    2    0    0  0.68295889713E+02  0.69372170479E+01  0.38764089929E+03  0.40180235974E+03  0.80419002446E+02 0.  1.
<mgrwt>
<rscale>  0 0.10573396E+03</rscale>
<asrwt>0</asrwt>
<pdfrwt beam="1">  1        2 0.28166505E+00 0.10573396E+03</pdfrwt>
<pdfrwt beam="2">  1       -2 0.13887571E-02 0.10573396E+03</pdfrwt>
<totfact> 0.11651102E+04</totfact>
</mgrwt>
</event>
<event>
 4    1  0.6602701E-002  0.1236359E+03  0.7546771E-02  0.1237217E+00
          2   -1    0    0  501    0  0.00000000000E+00  0.00000000000E+00  0.34329684432E+04  0.34329684432E+04  0.00000000000E+00 0. -1.
         -2   -1    0    0    0  501 -0.00000000000E+00 -0.00000000000E+00 -0.47193163280E+01  0.47193163280E+01  0.00000000000E+00 0.  1.
         24    1    1    2    0    0  0.69954287600E+02 -0.62649924970E+02  0.21227027480E+04  0.21263002581E+04  0.80419002446E+02 0. -1.
        -24    1    1    2    0    0 -0.69954287600E+02  0.62649924970E+02  0.13055463789E+04  0.13113875014E+04  0.80419002446E+02 0.  1.
<mgrwt>
<rscale>  0 0.12363588E+03</rscale>
<asrwt>0</asrwt>
<pdfrwt beam="1">  1        2 0.52814700E+00 0.12363588E+03</pdfrwt>
<pdfrwt beam="2">  1       -2 0.72605141E-03 0.12363588E+03</pdfrwt>
<totfact> 0.38761587E+03</totfact>
</mgrwt>
</event>
<event>
 4    1  0.6602701E-002  0.1513840E+03  0.7546771E-02  0.1198783E+00
         -2   -1    0    0    0  501 -0.00000000000E+00  0.00000000000E+00  0.66474999869E+03  0.66474999869E+03  0.00000000000E+00 0.  1.
          2   -1    0    0  501    0  0.00000000000E+00 -0.00000000000E+00 -0.34764405376E+02  0.34764405376E+02  0.00000000000E+00 0. -1.
         24    1    1    2    0    0 -0.56912219786E+02  0.11493867951E+03  0.34691625216E+03  0.37850759936E+03  0.80419002446E+02 0.  0.
        -24    1    1    2    0    0  0.56912219786E+02 -0.11493867951E+03  0.28306934115E+03  0.32100680470E+03  0.80419002446E+02 0.  1.
<mgrwt>
<rscale>  0 0.15138402E+03</rscale>
<asrwt>0</asrwt>
<pdfrwt beam="1">  1        2 0.53483706E-02 0.15138404E+03</pdfrwt>
<pdfrwt beam="2">  1       -2 0.10226922E+00 0.15138404E+03</pdfrwt>
<totfact> 0.11399209E+03</totfact>
</mgrwt>
</event>
<event>
 4    1  0.6602701E-002  0.9942990E+02  0.7546771E-02  0.1281499E+00
         -1   -1    0    0    0  501 -0.00000000000E+00  0.00000000000E+00  0.30422468099E+02  0.30422468099E+02  0.00000000000E+00 0.  1.
          1   -1    0    0  501    0  0.00000000000E+00 -0.00000000000E+00 -0.32542700891E+03  0.32542700891E+03  0.00000000000E+00 0. -1.
         24    1    1    2    0    0  0.46454393699E+02  0.35511664924E+02 -0.14081441194E+03  0.17238040377E+03  0.80419002446E+02 0.  1.
        -24    1    1    2    0    0 -0.46454393699E+02 -0.35511664924E+02 -0.15419012888E+03  0.18346907325E+03  0.80419002446E+02 0. -1.
<mgrwt>
<rscale>  0 0.99429900E+02</rscale>
<asrwt>0</asrwt>
<pdfrwt beam="1">  1        1 0.50065697E-01 0.99429900E+02</pdfrwt>
<pdfrwt beam="2">  1       -1 0.46803794E-02 0.99429900E+02</pdfrwt>
<totfact> 0.14047444E+04</totfact>
</mgrwt>
</event>
<event>
 4    1  0.8089294E-002  0.9882752E+02  0.7546771E-02  0.1282781E+00
         -1   -1    0    0    0  501 -0.00000000000E+00  0.00000000000E+00  0.12301486192E+02  0.12301486192E+02  0.00000000000E+00 0.  1.
          1   -1    0    0  501    0  0.00000000000E+00 -0.00000000000E+00 -0.26997425039E+04  0.26997425039E+04  0.00000000000E+00 0. -1.
         24    1    1    2    0    0 -0.53602705470E+02  0.20649779179E+02 -0.20440945900E+03  0.22704648488E+03  0.80419002446E+02 0.  1.
        -24    1    1    2    0    0  0.53602705470E+02 -0.20649779179E+02 -0.24830315587E+04  0.24849975052E+04  0.80419002446E+02 0. -1.
<mgrwt>
<rscale>  0 0.98827523E+02</rscale>
<asrwt>0</asrwt>
<pdfrwt beam="1">  1        1 0.41534511E+00 0.98827523E+02</pdfrwt>
<pdfrwt beam="2">  1       -1 0.18925359E-02 0.98827523E+02</pdfrwt>
<totfact> 0.89165087E+02</totfact>
</mgrwt>
</event>
<event>
 4    1  0.6602701E-002  0.1361165E+03  0.7546771E-02  0.1218652E+00
          2   -1    0    0  501    0  0.00000000000E+00  0.00000000000E+00  0.62805900336E+02  0.62805900336E+02  0.00000000000E+00 0. -1.
         -2   -1    0    0    0  501 -0.00000000000E+00 -0.00000000000E+00 -0.44535873396E+03  0.44535873396E+03  0.00000000000E+00 0.  1.
         24    1    1    2    0    0  0.56837449213E+02  0.93967984979E+02 -0.43642935444E+02  0.14294194487E+03  0.80419002446E+02 0. -1.
        -24    1    1    2    0    0 -0.56837449213E+02 -0.93967984979E+02 -0.33890989818E+03  0.36522268943E+03  0.80419002446E+02 0.  1.
<mgrwt>
<rscale>  0 0.13611647E+03</rscale>
<asrwt>0</asrwt>
<pdfrwt beam="1">  1        2 0.96624462E-02 0.13611647E+03</pdfrwt>
<pdfrwt beam="2">  1       -2 0.68516728E-01 0.13611647E+03</pdfrwt>
<totfact> 0.12994041E+03</totfact>
</mgrwt>
</event>
<event>
 4    1  0.6602701E-002  0.8063989E+02  0.7546771E-02  0.1327245E+00
         -1   -1    0    0    0  501 -0.00000000000E+00  0.00000000000E+00  0.70598502678E+01  0.70598502678E+01  0.00000000000E+00 0.  1.
          1   -1    0    0  501    0  0.00000000000E+00 -0.00000000000E+00 -0.12476720257E+04  0.12476720257E+04  0.00000000000E+00 0. -1.
         24    1    1    2    0    0 -0.39722608725E+01 -0.44494573935E+01 -0.29933674001E+03  0.31000851021E+03  0.80419002446E+02 0.  1.
        -24    1    1    2    0    0  0.39722608725E+01  0.44494573935E+01 -0.94127543540E+03  0.94472336573E+03  0.80419002446E+02 0.  0.
<mgrwt>
<rscale>  0 0.80639894E+02</rscale>
<asrwt>0</asrwt>
<pdfrwt beam="1">  1        1 0.19194958E+00 0.80639894E+02</pdfrwt>
<pdfrwt beam="2">  1       -1 0.10861306E-02 0.80639894E+02</pdfrwt>
<totfact> 0.16373903E+04</totfact>
</mgrwt>
</event>
<event>
 4    1  0.6602701E-002  0.8993870E+02  0.7546771E-02  0.1303000E+00
         -1   -1    0    0    0  501 -0.00000000000E+00  0.00000000000E+00  0.78555896624E+01  0.78555896624E+01  0.00000000000E+00 0.  1.
          1   -1    0    0  501    0  0.00000000000E+00 -0.00000000000E+00 -0.13338936763E+04  0.13338936763E+04  0.00000000000E+00 0. -1.
         24    1    1    2    0    0  0.27345435258E+02 -0.29563158660E+02 -0.34265067179E+03  0.35425760685E+03  0.80419002446E+02 0.  1.
        -24    1    1    2    0    0 -0.27345435258E+02  0.29563158660E+02 -0.98338741489E+03  0.98749165916E+03  0.80419002446E+02 0. -1.
<mgrwt>
<rscale>  0 0.89938697E+02</rscale>
<asrwt>0</asrwt>
<pdfrwt beam="1">  1        1 0.20521424E+00 0.89938697E+02</pdfrwt>
<pdfrwt beam="2">  1       -1 0.12085533E-02 0.89938697E+02</pdfrwt>
<totfact> 0.12461350E+04</totfact>
</mgrwt>
</event>
<event>
 4    1  0.6602701E-002  0.2613043E+03  0.7546771E-02  0.1106362E+00
         -1   -1    0    0    0  501 -0.00000000000E+00  0.00000000000E+00  0.26590986607E+03  0.26590986607E+03  0.00000000000E+00 0.  1.
          1   -1    0    0  501    0  0.00000000000E+00 -0.00000000000E+00 -0.53402629221E+03  0.53402629221E+03  0.00000000000E+00 0. -1.
         24    1    1    2    0    0  0.86002172064E+02 -0.23327316945E+03  0.15413117730E+03  0.30337498406E+03  0.80419002446E+02 0.  1.
        -24    1    1    2    0    0 -0.86002172064E+02  0.23327316945E+03 -0.42224760344E+03  0.49656117422E+03  0.80419002446E+02 0. -1.
<mgrwt>
<rscale>  0 0.26130435E+03</rscale>
<asrwt>0</asrwt>
<pdfrwt beam="1">  1        1 0.82157890E-01 0.26130435E+03</pdfrwt>
<pdfrwt beam="2">  1       -1 0.40909211E-01 0.26130435E+03</pdfrwt>
<totfact> 0.24746037E+02</totfact>
</mgrwt>
</event>
<event>
 4    1  0.6602701E-002  0.1093696E+03  0.7546771E-02  0.1261742E+00
         -2   -1    0    0    0  501 -0.00000000000E+00  0.00000000000E+00  0.36544625020E+02  0.36544625020E+02  0.00000000000E+00 0.  1.
          2   -1    0    0  501    0  0.00000000000E+00 -0.00000000000E+00 -0.27360932553E+04  0.27360932553E+04  0.00000000000E+00 0. -1.
         24    1    1    2    0    0  0.44388557673E+01 -0.73991849443E+02 -0.26505303530E+04  0.26527858687E+04  0.80419002446E+02 0. -1.
        -24    1    1    2    0    0 -0.44388557673E+01  0.73991849443E+02 -0.49018277316E+02  0.11985201162E+03  0.80419002446E+02 0.  1.
<mgrwt>
<rscale>  0 0.10936962E+03</rscale>
<asrwt>0</asrwt>
<pdfrwt beam="1">  1        2 0.42093744E+00 0.10936962E+03</pdfrwt>
<pdfrwt beam="2">  1       -2 0.56222498E-02 0.10936962E+03</pdfrwt>
<totfact> 0.51191589E+02</totfact>
</mgrwt>
</event>
<event>
 4    1  0.6602701E-002  0.9910803E+02  0.7546771E-02  0.1282183E+00
         -2   -1    0    0    0  501 -0.00000000000E+00  0.00000000000E+00  0.22278234186E+02  0.22278234186E+02  0.00000000000E+00 0.  1.
          2   -1    0    0  501    0  0.00000000000E+00 -0.00000000000E+00 -0.49451467674E+03  0.49451467674E+03  0.00000000000E+00 0. -1.
         24    1    1    2    0    0  0.64038051073E+01  0.57568837801E+02 -0.15103323581E+03  0.18064726424E+03  0.80419002446E+02 0.  1.
        -24    1    1    2    0    0 -0.64038051073E+01 -0.57568837801E+02 -0.32120320674E+03  0.33614564668E+03  0.80419002446E+02 0. -1.
<mgrwt>
<rscale>  0 0.99108013E+02</rscale>
<asrwt>0</asrwt>
<pdfrwt beam="1">  1        2 0.76079188E-01 0.99108025E+02</pdfrwt>
<pdfrwt beam="2">  1       -2 0.34274203E-02 0.99108025E+02</pdfrwt>
<totfact> 0.19972497E+04</totfact>
</mgrwt>
</event>
<event>
 4    1  0.6602701E-002  0.1092625E+03  0.7546771E-02  0.1261942E+00
          1   -1    0    0  501    0  0.00000000000E+00  0.00000000000E+00  0.25610003857E+03  0.25610003857E+03  0.00000000000E+00 0. -1.
         -1   -1    0    0    0  501 -0.00000000000E+00 -0.00000000000E+00 -0.71730612497E+02  0.71730612497E+02  0.00000000000E+00 0.  1.
         24    1    1    2    0    0  0.73816053620E+02  0.47178617052E+01 -0.48066536896E+01  0.10936813003E+03  0.80419002446E+02 0.  0.
        -24    1    1    2    0    0 -0.73816053620E+02 -0.47178617052E+01  0.18917607976E+03  0.21846252104E+03  0.80419002446E+02 0.  1.
<mgrwt>
<rscale>  0 0.10926245E+03</rscale>
<asrwt>0</asrwt>
<pdfrwt beam="1">  1        1 0.39400006E-01 0.10926245E+03</pdfrwt>
<pdfrwt beam="2">  1       -1 0.11035479E-01 0.10926245E+03</pdfrwt>
<totfact> 0.52808632E+03</totfact>
</mgrwt>
</event>
<event>
 4    1  0.6602701E-002  0.8860237E+02  0.7546771E-02  0.1306272E+00
          2   -1    0    0  501    0  0.00000000000E+00  0.00000000000E+00  0.42868886453E+03  0.42868886453E+03  0.00000000000E+00 0. -1.
         -2   -1    0    0    0  501 -0.00000000000E+00 -0.00000000000E+00 -0.84328965638E+02  0.84328965638E+02  0.00000000000E+00 0.  1.
         24    1    1    2    0    0 -0.28984371328E+02 -0.23303873021E+02  0.39913512643E+03  0.40885110906E+03  0.80419002446E+02 0. -1.
        -24    1    1    2    0    0  0.28984371328E+02  0.23303873021E+02 -0.54775227539E+02  0.10416672110E+03  0.80419002446E+02 0.  1.
<mgrwt>
<rscale>  0 0.88602371E+02</rscale>
<asrwt>0</asrwt>
<pdfrwt beam="1">  1        2 0.65952132E-01 0.88602371E+02</pdfrwt>
<pdfrwt beam="2">  1       -2 0.12973687E-01 0.88602371E+02</pdfrwt>
<totfact> 0.30646796E+03</totfact>
</mgrwt>
</event>
<event>
 4    1  0.6602701E-002  0.1004361E+03  0.7546771E-02  0.1279382E+00
          2   -1    0    0  501    0  0.00000000000E+00  0.00000000000E+00  0.28774024917E+03  0.28774024917E+03  0.00000000000E+00 0. -1.
         -2   -1    0    0    0  501 -0.00000000000E+00 -0.00000000000E+00 -0.79774108186E+02  0.79774108186E+02  0.00000000000E+00 0.  1.
         24    1    1    2    0    0 -0.55550849130E+02 -0.23114783440E+02  0.24156093653E+03  0.26160866206E+03  0.80419002446E+02 0. -1.
        -24    1    1    2    0    0  0.55550849130E+02  0.23114783440E+02 -0.33594795553E+02  0.10590569529E+03  0.80419002446E+02 0.  1.
<mgrwt>
<rscale>  0 0.10043608E+03</rscale>
<asrwt>0</asrwt>
<pdfrwt beam="1">  1        2 0.44267730E-01 0.10043608E+03</pdfrwt>
<pdfrwt beam="2">  1       -2 0.12272940E-01 0.10043608E+03</pdfrwt>
<totfact> 0.51249395E+03</totfact>
</mgrwt>
</event>
<event>
 4    1  0.6602701E-002  0.3994315E+03  0.7546771E-02  0.1043977E+00
         -2   -1    0    0    0  501 -0.00000000000E+00  0.00000000000E+00  0.81206232995E+02  0.81206232995E+02  0.00000000000E+00 0.  1.
          2   -1    0    0  501    0  0.00000000000E+00 -0.00000000000E+00 -0.21715422981E+04  0.21715422981E+04  0.00000000000E+00 0. -1.
         24    1    1    2    0    0 -0.22038766237E+03  0.32327619713E+03 -0.69753258804E+03  0.80380168493E+03  0.80419002446E+02 0. -1.
        -24    1    1    2    0    0  0.22038766237E+03 -0.32327619713E+03 -0.13928034771E+04  0.14489468462E+04  0.80419002446E+02 0.  1.
<mgrwt>
<rscale>  0 0.39943144E+03</rscale>
<asrwt>0</asrwt>
<pdfrwt beam="1">  1        2 0.33408339E+00 0.39943149E+03</pdfrwt>
<pdfrwt beam="2">  1       -2 0.12493268E-01 0.39943149E+03</pdfrwt>
<totfact> 0.27316523E+02</totfact>
</mgrwt>
</event>
<event>
 4    1  0.6602701E-002  0.1128603E+03  0.7546771E-02  0.1255363E+00
          2   -1    0    0  501    0  0.00000000000E+00  0.00000000000E+00  0.90017790786E+02  0.90017790786E+02  0.00000000000E+00 0. -1.
         -2   -1    0    0    0  501 -0.00000000000E+00 -0.00000000000E+00 -0.14153270111E+03  0.14153270111E+03  0.00000000000E+00 0.  1.
         24    1    1    2    0    0 -0.79088409184E+02  0.39067846974E+01 -0.23979195423E+02  0.11537962212E+03  0.80419002446E+02 0.  0.
        -24    1    1    2    0    0  0.79088409184E+02 -0.39067846974E+01 -0.27535714900E+02  0.11617086977E+03  0.80419002446E+02 0.  1.
<mgrwt>
<rscale>  0 0.11286034E+03</rscale>
<asrwt>0</asrwt>
<pdfrwt beam="1">  1        2 0.13848891E-01 0.11286034E+03</pdfrwt>
<pdfrwt beam="2">  1       -2 0.21774262E-01 0.11286034E+03</pdfrwt>
<totfact> 0.72478223E+03</totfact>
</mgrwt>
</event>
<event>
 4    1  0.6602701E-002  0.9551319E+02  0.7546771E-02  0.1290024E+00
         -1   -1    0    0    0  501 -0.00000000000E+00  0.00000000000E+00  0.14878465415E+03  0.14878465415E+03  0.00000000000E+00 0.  1.
          1   -1    0    0  501    0  0.00000000000E+00 -0.00000000000E+00 -0.61436274079E+02  0.61436274079E+02  0.00000000000E+00 0. -1.
         24    1    1    2    0    0  0.18192897192E+02 -0.48213759430E+02  0.39008454634E+02  0.10317181589E+03  0.80419002446E+02 0.  1.
        -24    1    1    2    0    0 -0.18192897192E+02  0.48213759430E+02  0.48339925434E+02  0.10704911234E+03  0.80419002446E+02 0.  1.
<mgrwt>
<rscale>  0 0.95513174E+02</rscale>
<asrwt>0</asrwt>
<pdfrwt beam="1">  1        1 0.94517345E-02 0.95513186E+02</pdfrwt>
<pdfrwt beam="2">  1       -1 0.22889947E-01 0.95513186E+02</pdfrwt>
<totfact> 0.10160756E+04</totfact>
</mgrwt>
</event>
<event>
 4    1  0.8080645E-002  0.9372355E+02  0.7546771E-02  0.1294077E+00
          1   -1    0    0  501    0  0.00000000000E+00  0.00000000000E+00  0.97143611759E+03  0.97143611759E+03  0.00000000000E+00 0. -1.
         -1   -1    0    0    0  501 -0.00000000000E+00 -0.00000000000E+00 -0.40028251957E+02  0.40028251957E+02  0.00000000000E+00 0.  1.
         24    1    1    2    0    0 -0.40448656165E+02  0.26092035270E+02  0.20745878105E+02  0.95992163758E+02  0.80419002446E+02 0.  1.
        -24    1    1    2    0    0  0.40448656165E+02 -0.26092035270E+02  0.91066198753E+03  0.91547220579E+03  0.80419002446E+02 0. -1.
<mgrwt>
<rscale>  0 0.93723551E+02</rscale>
<asrwt>0</asrwt>
<pdfrwt beam="1">  1        1 0.14945169E+00 0.93723551E+02</pdfrwt>
<pdfrwt beam="2">  1       -1 0.61581933E-02 0.93723551E+02</pdfrwt>
<totfact> 0.21209221E+03</totfact>
</mgrwt>
</event>
<event>
 4    1  0.6602701E-002  0.1022150E+03  0.7546771E-02  0.1275706E+00
          2   -1    0    0  501    0  0.00000000000E+00  0.00000000000E+00  0.26328166871E+04  0.26328166871E+04  0.00000000000E+00 0. -1.
         -2   -1    0    0    0  501 -0.00000000000E+00 -0.00000000000E+00 -0.41078995263E+01  0.41078995263E+01  0.00000000000E+00 0.  1.
         24    1    1    2    0    0  0.48503021064E+02  0.40350380761E+02  0.15573717421E+04  0.15607224786E+04  0.80419002446E+02 0. -1.
        -24    1    1    2    0    0 -0.48503021064E+02 -0.40350380761E+02  0.10713370455E+04  0.10762021080E+04  0.80419002446E+02 0.  1.
<mgrwt>
<rscale>  0 0.10221503E+03</rscale>
<asrwt>0</asrwt>
<pdfrwt beam="1">  1        2 0.40504737E+00 0.10221503E+03</pdfrwt>
<pdfrwt beam="2">  1       -2 0.63198664E-03 0.10221503E+03</pdfrwt>
<totfact> 0.13725352E+04</totfact>
</mgrwt>
</event>
<event>
 4    1  0.6602701E-002  0.1183734E+03  0.7546771E-02  0.1245805E+00
          1   -1    0    0  501    0  0.00000000000E+00  0.00000000000E+00  0.69189487830E+03  0.69189487830E+03  0.00000000000E+00 0. -1.
         -1   -1    0    0    0  501 -0.00000000000E+00 -0.00000000000E+00 -0.41263779028E+02  0.41263779028E+02  0.00000000000E+00 0.  1.
         24    1    1    2    0    0  0.19195529168E+02 -0.84714641760E+02  0.63729313998E+02  0.13443838844E+03  0.80419002446E+02 0.  1.
        -24    1    1    2    0    0 -0.19195529168E+02  0.84714641760E+02  0.58690178528E+03  0.59872026889E+03  0.80419002446E+02 0. -1.
<mgrwt>
<rscale>  0 0.11837337E+03</rscale>
<asrwt>0</asrwt>
<pdfrwt beam="1">  1        1 0.10644536E+00 0.11837337E+03</pdfrwt>
<pdfrwt beam="2">  1       -1 0.63482742E-02 0.11837337E+03</pdfrwt>
<totfact> 0.34139271E+03</totfact>
</mgrwt>
</event>
<event>
 4    1  0.6602701E-002  0.1165129E+03  0.7546771E-02  0.1248963E+00
         -2   -1    0    0    0  501 -0.00000000000E+00  0.00000000000E+00  0.14860088901E+03  0.14860088901E+03  0.00000000000E+00 0.  1.
          2   -1    0    0  501    0  0.00000000000E+00 -0.00000000000E+00 -0.92339470693E+02  0.92339470693E+02  0.00000000000E+00 0. -1.
         24    1    1    2    0    0  0.83697829283E+02 -0.10133968809E+02  0.40578018825E+02  0.12337672194E+03  0.80419002446E+02 0.  1.
        -24    1    1    2    0    0 -0.83697829283E+02  0.10133968809E+02  0.15683399495E+02  0.11756363777E+03  0.80419002446E+02 0. -1.
<mgrwt>
<rscale>  0 0.11651285E+03</rscale>
<asrwt>0</asrwt>
<pdfrwt beam="1">  1        2 0.14206072E-01 0.11651286E+03</pdfrwt>
<pdfrwt beam="2">  1       -2 0.22861675E-01 0.11651286E+03</pdfrwt>
<totfact> 0.64875883E+03</totfact>
</mgrwt>
</event>
<event>
 4    1  0.6602701E-002  0.8914128E+02  0.7546771E-02  0.1304945E+00
         -2   -1    0    0    0  501 -0.00000000000E+00  0.00000000000E+00  0.49094389511E+02  0.49094389511E+02  0.00000000000E+00 0.  1.
          2   -1    0    0  501    0  0.00000000000E+00 -0.00000000000E+00 -0.31276362490E+03  0.31276362490E+03  0.00000000000E+00 0. -1.
         24    1    1    2    0    0  0.33563616936E+02 -0.18773284289E+02 -0.25751202873E+03  0.27250433663E+03  0.80419002446E+02 0.  1.
        -24    1    1    2    0    0 -0.33563616936E+02  0.18773284289E+02 -0.61572066545E+01  0.89353677781E+02  0.80419002446E+02 0.  1.
<mgrwt>
<rscale>  0 0.89141284E+02</rscale>
<asrwt>0</asrwt>
<pdfrwt beam="1">  1        2 0.48117481E-01 0.89141284E+02</pdfrwt>
<pdfrwt beam="2">  1       -2 0.75529830E-02 0.89141284E+02</pdfrwt>
<totfact> 0.98918011E+03</totfact>
</mgrwt>
</event>
<event>
 4    1  0.6602701E-002  0.1322404E+03  0.7546771E-02  0.1224169E+00
          1   -1    0    0  501    0  0.00000000000E+00  0.00000000000E+00  0.19453349597E+03  0.19453349597E+03  0.00000000000E+00 0. -1.
         -1   -1    0    0    0  501 -0.00000000000E+00 -0.00000000000E+00 -0.12026074760E+03  0.12026074760E+03  0.00000000000E+00 0.  1.
         24    1    1    2    0    0 -0.82633943474E+02 -0.64745213604E+02 -0.41954992765E+02  0.13873625579E+03  0.80419002446E+02 0.  1.
        -24    1    1    2    0    0  0.82633943474E+02  0.64745213604E+02  0.11622774113E+03  0.17605798778E+03  0.80419002446E+02 0. -1.
<mgrwt>
<rscale>  0 0.13224041E+03</rscale>
<asrwt>0</asrwt>
<pdfrwt beam="1">  1        1 0.29928230E-01 0.13224041E+03</pdfrwt>
<pdfrwt beam="2">  1       -1 0.18501653E-01 0.13224041E+03</pdfrwt>
<totfact> 0.33529097E+03</totfact>
</mgrwt>
</event>
<event>
 4    1  0.6602701E-002  0.1304768E+03  0.7546771E-02  0.1226750E+00
         -2   -1    0    0    0  501 -0.00000000000E+00  0.00000000000E+00  0.24420626458E+02  0.24420626458E+02  0.00000000000E+00 0.  1.
          2   -1    0    0  501    0  0.00000000000E+00 -0.00000000000E+00 -0.71734530619E+03  0.71734530619E+03  0.00000000000E+00 0. -1.
         24    1    1    2    0    0  0.66724779091E+02 -0.78133140373E+02 -0.40873244396E+03  0.42905292269E+03  0.80419002446E+02 0. -1.
        -24    1    1    2    0    0 -0.66724779091E+02  0.78133140373E+02 -0.28419223577E+03  0.31271300996E+03  0.80419002446E+02 0.  1.
<mgrwt>
<rscale>  0 0.13047682E+03</rscale>
<asrwt>0</asrwt>
<pdfrwt beam="1">  1        2 0.11036081E+00 0.13047682E+03</pdfrwt>
<pdfrwt beam="2">  1       -2 0.37570197E-02 0.13047682E+03</pdfrwt>
<totfact> 0.11715638E+04</totfact>
</mgrwt>
</event>
<event>
 4    1  0.6602701E-002  0.1008972E+03  0.7546771E-02  0.1278420E+00
         -2   -1    0    0    0  501 -0.00000000000E+00  0.00000000000E+00  0.86332039738E+01  0.86332039738E+01  0.00000000000E+00 0.  1.
          2   -1    0    0  501    0  0.00000000000E+00 -0.00000000000E+00 -0.11968745043E+04  0.11968745043E+04  0.00000000000E+00 0. -1.
         24    1    1    2    0    0  0.33404120979E+02 -0.50962694442E+02 -0.66737395598E+03  0.67495795765E+03  0.80419002446E+02 0. -1.
        -24    1    1    2    0    0 -0.33404120979E+02  0.50962694442E+02 -0.52086734430E+03  0.53054975058E+03  0.80419002446E+02 0.  0.
<mgrwt>
<rscale>  0 0.10089721E+03</rscale>
<asrwt>0</asrwt>
<pdfrwt beam="1">  1        2 0.18413444E+00 0.10089721E+03</pdfrwt>
<pdfrwt beam="2">  1       -2 0.13281859E-02 0.10089721E+03</pdfrwt>
<totfact> 0.26345015E+04</totfact>
</mgrwt>
</event>
<event>
 4    1  0.6602701E-002  0.1743169E+03  0.7546771E-02  0.1173419E+00
         -2   -1    0    0    0  501 -0.00000000000E+00  0.00000000000E+00  0.20432792412E+02  0.20432792412E+02  0.00000000000E+00 0.  1.
          2   -1    0    0  501    0  0.00000000000E+00 -0.00000000000E+00 -0.22654316409E+04  0.22654316409E+04  0.00000000000E+00 0. -1.
         24    1    1    2    0    0 -0.13461760415E+03 -0.76139678648E+02 -0.17924101854E+04  0.18008666355E+04  0.80419002446E+02 0. -1.
        -24    1    1    2    0    0  0.13461760415E+03  0.76139678648E+02 -0.45258866301E+03  0.48499779778E+03  0.80419002446E+02 0.  1.
<mgrwt>
<rscale>  0 0.17431686E+03</rscale>
<asrwt>0</asrwt>
<pdfrwt beam="1">  1        2 0.34852768E+00 0.17431686E+03</pdfrwt>
<pdfrwt beam="2">  1       -2 0.31435089E-02 0.17431686E+03</pdfrwt>
<totfact> 0.21381431E+03</totfact>
</mgrwt>
</event>
<event>
 4    1  0.8901420E-002  0.8806203E+02  0.7546771E-02  0.1307614E+00
          1   -1    0    0  501    0  0.00000000000E+00  0.00000000000E+00  0.10911733494E+04  0.10911733494E+04  0.00000000000E+00 0. -1.
         -1   -1    0    0    0  501 -0.00000000000E+00 -0.00000000000E+00 -0.36832321909E+02  0.36832321909E+02  0.00000000000E+00 0.  1.
         24    1    1    2    0    0 -0.12862325698E+02  0.33500238806E+02  0.20494505107E+02  0.90415408623E+02  0.80419002446E+02 0.  1.
        -24    1    1    2    0    0  0.12862325698E+02 -0.33500238806E+02  0.10338465224E+04  0.10375902627E+04  0.80419002446E+02 0. -1.
<mgrwt>
<rscale>  0 0.88062031E+02</rscale>
<asrwt>0</asrwt>
<pdfrwt beam="1">  1        1 0.16787280E+00 0.88062031E+02</pdfrwt>
<pdfrwt beam="2">  1       -1 0.56665119E-02 0.88062031E+02</pdfrwt>
<totfact> 0.19677216E+03</totfact>
</mgrwt>
</event>
<event>
 4    1  0.6602701E-002  0.8782273E+02  0.7546771E-02  0.1308212E+00
         -2   -1    0    0    0  501 -0.00000000000E+00  0.00000000000E+00  0.58602684324E+01  0.58602684324E+01  0.00000000000E+00 0.  1.
          2   -1    0    0  501    0  0.00000000000E+00 -0.00000000000E+00 -0.17458156248E+04  0.17458156248E+04  0.00000000000E+00 0. -1.
         24    1    1    2    0    0  0.27001610477E+02  0.22727269067E+02 -0.13044916294E+04  0.13074445468E+04  0.80419002446E+02 0. -1.
        -24    1    1    2    0    0 -0.27001610477E+02 -0.22727269067E+02 -0.43546372692E+03  0.44423134642E+03  0.80419002446E+02 0.  1.
<mgrwt>
<rscale>  0 0.87822729E+02</rscale>
<asrwt>0</asrwt>
<pdfrwt beam="1">  1        2 0.26858753E+00 0.87822729E+02</pdfrwt>
<pdfrwt beam="2">  1       -2 0.90157804E-03 0.87822729E+02</pdfrwt>
<totfact> 0.23496791E+04</totfact>
</mgrwt>
</event>
<event>
 4    1  0.6602701E-002  0.8169826E+02  0.7546771E-02  0.1324300E+00
         -2   -1    0    0    0  501 -0.00000000000E+00  0.00000000000E+00  0.45070254915E+03  0.45070254915E+03  0.00000000000E+00 0.  1.
          2   -1    0    0  501    0  0.00000000000E+00 -0.00000000000E+00 -0.21730779068E+02  0.21730779068E+02  0.00000000000E+00 0. -1.
         24    1    1    2    0    0 -0.14280460530E+02  0.18594681108E+01  0.81173274108E+02  0.11516816209E+03  0.80419002446E+02 0. -1.
        -24    1    1    2    0    0  0.14280460530E+02 -0.18594681108E+01  0.34779849597E+03  0.35726516613E+03  0.80419002446E+02 0.  1.
<mgrwt>
<rscale>  0 0.81698257E+02</rscale>
<asrwt>0</asrwt>
<pdfrwt beam="1">  1        2 0.33431971E-02 0.81698257E+02</pdfrwt>
<pdfrwt beam="2">  1       -2 0.69338847E-01 0.81698257E+02</pdfrwt>
<totfact> 0.47548812E+03</totfact>
</mgrwt>
</event>
<event>
 4    1  0.6602701E-002  0.8416975E+02  0.7546771E-02  0.1317618E+00
          3   -1    0    0  501    0  0.00000000000E+00  0.00000000000E+00  0.45627306359E+02  0.45627306359E+02  0.00000000000E+00 0. -1.
         -3   -1    0    0    0  501 -0.00000000000E+00 -0.00000000000E+00 -0.35168452496E+03  0.35168452496E+03  0.00000000000E+00 0.  1.
         24    1    1    2    0    0 -0.20648711076E+02  0.13818889585E+02 -0.30148940800E+03  0.31301822642E+03  0.80419002446E+02 0.  1.
        -24    1    1    2    0    0  0.20648711076E+02 -0.13818889585E+02 -0.45678105962E+01  0.84293604897E+02  0.80419002446E+02 0. -1.
<mgrwt>
<rscale>  0 0.84169751E+02</rscale>
<asrwt>0</asrwt>
<pdfrwt beam="1">  1        3 0.70195858E-02 0.84169751E+02</pdfrwt>
<pdfrwt beam="2">  1       -3 0.54105310E-01 0.84169751E+02</pdfrwt>
<totfact> 0.95382799E+02</totfact>
</mgrwt>
</event>
<event>
 4    1  0.6602701E-002  0.1045164E+03  0.7546771E-02  0.1271075E+00
          1   -1    0    0  501    0  0.00000000000E+00  0.00000000000E+00  0.11251585234E+03  0.11251585234E+03  0.00000000000E+00 0. -1.
         -1   -1    0    0    0  501 -0.00000000000E+00 -0.00000000000E+00 -0.10996580545E+03  0.10996580545E+03  0.00000000000E+00 0.  1.
         24    1    1    2    0    0  0.64695050187E+02 -0.16462735709E+02 -0.36795957645E+02  0.11080446579E+03  0.80419002446E+02 0.  1.
        -24    1    1    2    0    0 -0.64695050187E+02  0.16462735709E+02  0.39346004538E+02  0.11167719200E+03  0.80419002446E+02 0. -1.
<mgrwt>
<rscale>  0 0.10451644E+03</rscale>
<asrwt>0</asrwt>
<pdfrwt beam="1">  1        1 0.17310131E-01 0.10451644E+03</pdfrwt>
<pdfrwt beam="2">  1       -1 0.16917816E-01 0.10451644E+03</pdfrwt>
<totfact> 0.75675398E+03</totfact>
</mgrwt>
</event>
<event>
 4    1  0.6602701E-002  0.8283117E+02  0.7546771E-02  0.1321204E+00
          1   -1    0    0  501    0  0.00000000000E+00  0.00000000000E+00  0.19104252655E+03  0.19104252655E+03  0.00000000000E+00 0. -1.
         -1   -1    0    0    0  501 -0.00000000000E+00 -0.00000000000E+00 -0.36945745666E+02  0.36945745666E+02  0.00000000000E+00 0.  1.
         24    1    1    2    0    0 -0.21478859986E+01 -0.19727496335E+02  0.57994030855E+02  0.10111533561E+03  0.80419002446E+02 0.  1.
        -24    1    1    2    0    0  0.21478859986E+01  0.19727496335E+02  0.96102750030E+02  0.12687293661E+03  0.80419002446E+02 0. -1.
<mgrwt>
<rscale>  0 0.82831175E+02</rscale>
<asrwt>0</asrwt>
<pdfrwt beam="1">  1        1 0.29391157E-01 0.82831175E+02</pdfrwt>
<pdfrwt beam="2">  1       -1 0.56839610E-02 0.82831175E+02</pdfrwt>
<totfact> 0.19886696E+04</totfact>
</mgrwt>
</event>
<event>
 4    1  0.6602701E-002  0.9391363E+02  0.7546771E-02  0.1293642E+00
          1   -1    0    0  501    0  0.00000000000E+00  0.00000000000E+00  0.29812950295E+03  0.29812950295E+03  0.00000000000E+00 0. -1.
         -1   -1    0    0    0  501 -0.00000000000E+00 -0.00000000000E+00 -0.29780322092E+02  0.29780322092E+02  0.00000000000E+00 0.  1.
         24    1    1    2    0    0 -0.16551735481E+02 -0.45591591157E+02  0.12085185911E+03  0.15305208570E+03  0.80419002446E+02 0.  1.
        -24    1    1    2    0    0  0.16551735481E+02  0.45591591157E+02  0.14749732174E+03  0.17485773934E+03  0.80419002446E+02 0. -1.
<mgrwt>
<rscale>  0 0.93913626E+02</rscale>
<asrwt>0</asrwt>
<pdfrwt beam="1">  1        1 0.45866075E-01 0.93913626E+02</pdfrwt>
<pdfrwt beam="2">  1       -1 0.45815882E-02 0.93913626E+02</pdfrwt>
<totfact> 0.16047285E+04</totfact>
</mgrwt>
</event>
<event>
 4    1  0.6602701E-002  0.8590993E+02  0.7546771E-02  0.1313070E+00
          2   -1    0    0  501    0  0.00000000000E+00  0.00000000000E+00  0.68486591085E+03  0.68486591085E+03  0.00000000000E+00 0. -1.
         -2   -1    0    0    0  501 -0.00000000000E+00 -0.00000000000E+00 -0.12506358755E+02  0.12506358755E+02  0.00000000000E+00 0.  1.
         24    1    1    2    0    0 -0.33321125952E+01  0.30036609575E+02  0.46585699245E+03  0.47371220615E+03  0.80419002446E+02 0.  0.
        -24    1    1    2    0    0  0.33321125952E+01 -0.30036609575E+02  0.20650255965E+03  0.22366006345E+03  0.80419002446E+02 0. -1.
<mgrwt>
<rscale>  0 0.85909934E+02</rscale>
<asrwt>0</asrwt>
<pdfrwt beam="1">  1        2 0.10536396E+00 0.85909934E+02</pdfrwt>
<pdfrwt beam="2">  1       -2 0.19240557E-02 0.85909934E+02</pdfrwt>
<totfact> 0.31583340E+04</totfact>
</mgrwt>
</event>
<event>
 4    1  0.6602701E-002  0.8280372E+02  0.7546771E-02  0.1321278E+00
          2   -1    0    0  501    0  0.00000000000E+00  0.00000000000E+00  0.27179751663E+03  0.27179751663E+03  0.00000000000E+00 0. -1.
         -2   -1    0    0    0  501 -0.00000000000E+00 -0.00000000000E+00 -0.70122157699E+02  0.70122157699E+02  0.00000000000E+00 0.  1.
         24    1    1    2    0    0  0.15166718807E+02 -0.12617867466E+02  0.23763242468E+03  0.25164583277E+03  0.80419002446E+02 0. -1.
        -24    1    1    2    0    0 -0.15166718807E+02  0.12617867466E+02 -0.35957065743E+02  0.90273841560E+02  0.80419002446E+02 0.  1.
<mgrwt>
<rscale>  0 0.82803719E+02</rscale>
<asrwt>0</asrwt>
<pdfrwt beam="1">  1        2 0.41815002E-01 0.82803719E+02</pdfrwt>
<pdfrwt beam="2">  1       -2 0.10788024E-01 0.82803719E+02</pdfrwt>
<totfact> 0.65722608E+03</totfact>
</mgrwt>
</event>
<event>
 4    1  0.6602701E-002  0.1357814E+03  0.7546771E-02  0.1219121E+00
          1   -1    0    0  501    0  0.00000000000E+00  0.00000000000E+00  0.11011277909E+03  0.11011277909E+03  0.00000000000E+00 0. -1.
         -1   -1    0    0    0  501 -0.00000000000E+00 -0.00000000000E+00 -0.31767596000E+03  0.31767596000E+03  0.00000000000E+00 0.  1.
         24    1    1    2    0    0 -0.10933385836E+03  0.39347649288E+01 -0.25087838849E+03  0.28526576507E+03  0.80419002446E+02 0.  1.
        -24    1    1    2    0    0  0.10933385836E+03 -0.39347649288E+01  0.43315207575E+02  0.14252297401E+03  0.80419002446E+02 0. -1.
<mgrwt>
<rscale>  0 0.13578141E+03</rscale>
<asrwt>0</asrwt>
<pdfrwt beam="1">  1        1 0.16940428E-01 0.13578141E+03</pdfrwt>
<pdfrwt beam="2">  1       -1 0.48873224E-01 0.13578141E+03</pdfrwt>
<totfact> 0.13358540E+03</totfact>
</mgrwt>
</event>
<event>
 4    1  0.6602701E-002  0.9753343E+02  0.7546771E-02  0.1285570E+00
         -2   -1    0    0    0  501 -0.00000000000E+00  0.00000000000E+00  0.73039311396E+01  0.73039311396E+01  0.00000000000E+00 0.  1.
          2   -1    0    0  501    0  0.00000000000E+00 -0.00000000000E+00 -0.31254366899E+04  0.31254366899E+04  0.00000000000E+00 0. -1.
         24    1    1    2    0    0 -0.17813188088E+02  0.52232589588E+02 -0.27553514657E+04  0.27570771605E+04  0.80419002446E+02 0. -1.
        -24    1    1    2    0    0  0.17813188088E+02 -0.52232589588E+02 -0.36278129299E+03  0.37566346053E+03  0.80419002446E+02 0.  1.
<mgrwt>
<rscale>  0 0.97533425E+02</rscale>
<asrwt>0</asrwt>
<pdfrwt beam="1">  1        2 0.48083663E+00 0.97533425E+02</pdfrwt>
<pdfrwt beam="2">  1       -2 0.11236812E-02 0.97533425E+02</pdfrwt>
<totfact> 0.32201030E+03</totfact>
</mgrwt>
</event>
<event>
 4    1  0.6602701E-002  0.9961289E+02  0.7546771E-02  0.1281112E+00
          2   -1    0    0  501    0  0.00000000000E+00  0.00000000000E+00  0.47854279096E+03  0.47854279096E+03  0.00000000000E+00 0. -1.
         -2   -1    0    0    0  501 -0.00000000000E+00 -0.00000000000E+00 -0.45672776972E+02  0.45672776972E+02  0.00000000000E+00 0.  1.
         24    1    1    2    0    0  0.57698680908E+02 -0.11241652167E+02  0.41011174546E+03  0.42203598454E+03  0.80419002446E+02 0. -1.
        -24    1    1    2    0    0 -0.57698680908E+02  0.11241652167E+02  0.22758268523E+02  0.10217958339E+03  0.80419002446E+02 0.  1.
<mgrwt>
<rscale>  0 0.99612893E+02</rscale>
<asrwt>0</asrwt>
<pdfrwt beam="1">  1        2 0.73621964E-01 0.99612893E+02</pdfrwt>
<pdfrwt beam="2">  1       -2 0.70265814E-02 0.99612893E+02</pdfrwt>
<totfact> 0.71080117E+03</totfact>
</mgrwt>
</event>
<event>
 4    1  0.1722738E-001  0.8737469E+02  0.7546771E-02  0.1309337E+00
         -1   -1    0    0    0  501 -0.00000000000E+00  0.00000000000E+00  0.79823814448E+02  0.79823814448E+02  0.00000000000E+00 0.  1.
          1   -1    0    0  501    0  0.00000000000E+00 -0.00000000000E+00 -0.13240097041E+04  0.13240097041E+04  0.00000000000E+00 0. -1.
         24    1    1    2    0    0 -0.31333745946E+02 -0.13613083956E+02  0.53997202683E+02  0.10271335620E+03  0.80419002446E+02 0.  1.
        -24    1    1    2    0    0  0.31333745946E+02  0.13613083956E+02 -0.12981830923E+04  0.13011201623E+04  0.80419002446E+02 0. -1.
<mgrwt>
<rscale>  0 0.87374685E+02</rscale>
<asrwt>0</asrwt>
<pdfrwt beam="1">  1        1 0.20369378E+00 0.87374685E+02</pdfrwt>
<pdfrwt beam="2">  1       -1 0.12280588E-01 0.87374685E+02</pdfrwt>
<totfact> 0.43183221E+02</totfact>
</mgrwt>
</event>
<event>
 4    1  0.6602701E-002  0.1090406E+03  0.7546771E-02  0.1262357E+00
         -1   -1    0    0    0  501 -0.00000000000E+00  0.00000000000E+00  0.96606541712E+02  0.96606541712E+02  0.00000000000E+00 0.  1.
          1   -1    0    0  501    0  0.00000000000E+00 -0.00000000000E+00 -0.15012914213E+03  0.15012914213E+03  0.00000000000E+00 0. -1.
         24    1    1    2    0    0  0.10275281587E+02 -0.72918106725E+02  0.25609179831E+02  0.11200748969E+03  0.80419002446E+02 0.  1.
        -24    1    1    2    0    0 -0.10275281587E+02  0.72918106725E+02 -0.79131780246E+02  0.13472819415E+03  0.80419002446E+02 0. -1.
<mgrwt>
<rscale>  0 0.10904058E+03</rscale>
<asrwt>0</asrwt>
<pdfrwt beam="1">  1        1 0.23096791E-01 0.10904058E+03</pdfrwt>
<pdfrwt beam="2">  1       -1 0.14862545E-01 0.10904058E+03</pdfrwt>
<totfact> 0.64610458E+03</totfact>
</mgrwt>
</event>
<event>
 4    1  0.6602701E-002  0.1224654E+03  0.7546771E-02  0.1239084E+00
          2   -1    0    0  501    0  0.00000000000E+00  0.00000000000E+00  0.15178896966E+04  0.15178896966E+04  0.00000000000E+00 0. -1.
         -2   -1    0    0    0  501 -0.00000000000E+00 -0.00000000000E+00 -0.10354096640E+02  0.10354096640E+02  0.00000000000E+00 0.  1.
         24    1    1    2    0    0 -0.37263038599E+01  0.92285795874E+02  0.91716033508E+03  0.92530041049E+03  0.80419002446E+02 0.  1.
        -24    1    1    2    0    0  0.37263038599E+01 -0.92285795874E+02  0.59037526484E+03  0.60294338271E+03  0.80419002446E+02 0.  0.
<mgrwt>
<rscale>  0 0.12246538E+03</rscale>
<asrwt>0</asrwt>
<pdfrwt beam="1">  1        2 0.23352131E+00 0.12246538E+03</pdfrwt>
<pdfrwt beam="2">  1       -2 0.15929392E-02 0.12246538E+03</pdfrwt>
<totfact> 0.13913854E+04</totfact>
</mgrwt>
</event>
<event>
 4    1  0.6602701E-002  0.9448571E+02  0.7546771E-02  0.1292339E+00
          1   -1    0    0  501    0  0.00000000000E+00  0.00000000000E+00  0.25203192558E+03  0.25203192558E+03  0.00000000000E+00 0. -1.
         -1   -1    0    0    0  501 -0.00000000000E+00 -0.00000000000E+00 -0.38809405807E+02  0.38809405807E+02  0.00000000000E+00 0.  1.
         24    1    1    2    0    0  0.10211334064E+02 -0.48539288139E+02  0.63650476899E+02  0.11392512015E+03  0.80419002446E+02 0.  1.
        -24    1    1    2    0    0 -0.10211334064E+02  0.48539288139E+02  0.14957204288E+03  0.17691621124E+03  0.80419002446E+02 0. -1.
<mgrwt>
<rscale>  0 0.94485712E+02</rscale>
<asrwt>0</asrwt>
<pdfrwt beam="1">  1        1 0.38774141E-01 0.94485712E+02</pdfrwt>
<pdfrwt beam="2">  1       -1 0.59706780E-02 0.94485712E+02</pdfrwt>
<totfact> 0.13365358E+04</totfact>
</mgrwt>
</event>
<event>
 4    1  0.6602701E-002  0.9676162E+02  0.7546771E-02  0.1287257E+00
         -2   -1    0    0    0  501 -0.00000000000E+00  0.00000000000E+00  0.40107519103E+02  0.40107519103E+02  0.00000000000E+00 0.  1.
          2   -1    0    0  501    0  0.00000000000E+00 -0.00000000000E+00 -0.78986429779E+03  0.78986429779E+03  0.00000000000E+00 0. -1.
         24    1    1    2    0    0 -0.34764305786E+02  0.41073566943E+02 -0.72318287336E+03  0.72962749341E+03  0.80419002446E+02 0. -1.
        -24    1    1    2    0    0  0.34764305786E+02 -0.41073566943E+02 -0.26573905332E+02  0.10034432349E+03  0.80419002446E+02 0.  1.
<mgrwt>
<rscale>  0 0.96761618E+02</rscale>
<asrwt>0</asrwt>
<pdfrwt beam="1">  1        2 0.12151757E+00 0.96761618E+02</pdfrwt>
<pdfrwt beam="2">  1       -2 0.61703880E-02 0.96761618E+02</pdfrwt>
<totfact> 0.48883455E+03</totfact>
</mgrwt>
</event>
<event>
 4    1  0.6602701E-002  0.9267600E+02  0.7546771E-02  0.1296498E+00
          1   -1    0    0  501    0  0.00000000000E+00  0.00000000000E+00  0.64470332104E+02  0.64470332104E+02  0.00000000000E+00 0. -1.
         -1   -1    0    0    0  501 -0.00000000000E+00 -0.00000000000E+00 -0.13333899886E+03  0.13333899886E+03  0.00000000000E+00 0.  1.
         24    1    1    2    0    0  0.21623634482E+02 -0.40669875408E+02 -0.31498716314E+02  0.97882610395E+02  0.80419002446E+02 0.  1.
        -24    1    1    2    0    0 -0.21623634482E+02  0.40669875408E+02 -0.37369950446E+02  0.99926720574E+02  0.80419002446E+02 0. -1.
<mgrwt>
<rscale>  0 0.92675986E+02</rscale>
<asrwt>0</asrwt>
<pdfrwt beam="1">  1        1 0.99185128E-02 0.92675998E+02</pdfrwt>
<pdfrwt beam="2">  1       -1 0.20513692E-01 0.92675998E+02</pdfrwt>
<totfact> 0.11335966E+04</totfact>
</mgrwt>
</event>
<event>
 4    1  0.6602701E-002  0.1213475E+03  0.7546771E-02  0.1240891E+00
         -4   -1    0    0    0  501 -0.00000000000E+00  0.00000000000E+00  0.16286142173E+02  0.16286142173E+02  0.00000000000E+00 0.  1.
          4   -1    0    0  501    0  0.00000000000E+00 -0.00000000000E+00 -0.94393814252E+03  0.94393814252E+03  0.00000000000E+00 0. -1.
         24    1    1    2    0    0 -0.43605868370E+02 -0.79727768892E+02 -0.56238988093E+03  0.57533258470E+03  0.80419002446E+02 0. -1.
        -24    1    1    2    0    0  0.43605868370E+02  0.79727768892E+02 -0.36526211941E+03  0.38489169999E+03  0.80419002446E+02 0.  1.
<mgrwt>
<rscale>  0 0.12134746E+03</rscale>
<asrwt>0</asrwt>
<pdfrwt beam="1">  1        4 0.14522129E+00 0.12134746E+03</pdfrwt>
<pdfrwt beam="2">  1       -4 0.25055597E-02 0.12134746E+03</pdfrwt>
<totfact> 0.40391397E+02</totfact>
</mgrwt>
</event>
<event>
 4    1  0.1217779E-001  0.1098116E+03  0.7546771E-02  0.1260919E+00
         -1   -1    0    0    0  501 -0.00000000000E+00  0.00000000000E+00  0.23756721047E+03  0.23756721047E+03  0.00000000000E+00 0.  1.
          1   -1    0    0  501    0  0.00000000000E+00 -0.00000000000E+00 -0.58506826488E+03  0.58506826488E+03  0.00000000000E+00 0. -1.
         24    1    1    2    0    0  0.54407822512E+02  0.51294836722E+02  0.21932016921E+03  0.24527520054E+03  0.80419002446E+02 0.  1.
        -24    1    1    2    0    0 -0.54407822512E+02 -0.51294836722E+02 -0.56682122362E+03  0.57736027481E+03  0.80419002446E+02 0. -1.
<mgrwt>
<rscale>  0 0.10981160E+03</rscale>
<asrwt>0</asrwt>
<pdfrwt beam="1">  1        1 0.90010502E-01 0.10981160E+03</pdfrwt>
<pdfrwt beam="2">  1       -1 0.36548802E-01 0.10981160E+03</pdfrwt>
<totfact> 0.27284237E+02</totfact>
</mgrwt>
</event>
<event>
 4    1  0.6602701E-002  0.9685097E+02  0.7546771E-02  0.1287061E+00
         -2   -1    0    0    0  501 -0.00000000000E+00  0.00000000000E+00  0.15107489819E+02  0.15107489819E+02  0.00000000000E+00 0.  1.
          2   -1    0    0  501    0  0.00000000000E+00 -0.00000000000E+00 -0.63444202792E+03  0.63444202792E+03  0.00000000000E+00 0. -1.
         24    1    1    2    0    0  0.53687534701E+02 -0.55261430057E+01 -0.26220251705E+03  0.27951791632E+03  0.80419002446E+02 0. -1.
        -24    1    1    2    0    0 -0.53687534701E+02  0.55261430057E+01 -0.35713202105E+03  0.37003160142E+03  0.80419002446E+02 0. -1.
<mgrwt>
<rscale>  0 0.96850957E+02</rscale>
<asrwt>0</asrwt>
<pdfrwt beam="1">  1        2 0.97606494E-01 0.96850969E+02</pdfrwt>
<pdfrwt beam="2">  1       -2 0.23242285E-02 0.96850969E+02</pdfrwt>
<totfact> 0.26603574E+04</totfact>
</mgrwt>
</event>
<event>
 4    1  0.6602701E-002  0.1734721E+03  0.7546771E-02  0.1174275E+00
         -3   -1    0    0    0  501 -0.00000000000E+00  0.00000000000E+00  0.12017150725E+03  0.12017150725E+03  0.00000000000E+00 0.  1.
          3   -1    0    0  501    0  0.00000000000E+00 -0.00000000000E+00 -0.25731389721E+03  0.25731389721E+03  0.00000000000E+00 0. -1.
         24    1    1    2    0    0  0.15306012360E+03  0.14068699111E+02 -0.99479939607E+02  0.19997200821E+03  0.80419002446E+02 0.  1.
        -24    1    1    2    0    0 -0.15306012360E+03 -0.14068699111E+02 -0.37662450353E+02  0.17751339626E+03  0.80419002446E+02 0. -1.
<mgrwt>
<rscale>  0 0.17347205E+03</rscale>
<asrwt>0</asrwt>
<pdfrwt beam="1">  1        3 0.39586753E-01 0.17347207E+03</pdfrwt>
<pdfrwt beam="2">  1       -3 0.18487925E-01 0.17347207E+03</pdfrwt>
<totfact> 0.39231928E+02</totfact>
</mgrwt>
</event>
<event>
 4    1  0.6602701E-002  0.1273810E+03  0.7546771E-02  0.1231394E+00
          3   -1    0    0  501    0  0.00000000000E+00  0.00000000000E+00  0.98025779243E+03  0.98025779243E+03  0.00000000000E+00 0. -1.
         -3   -1    0    0    0  501 -0.00000000000E+00 -0.00000000000E+00 -0.29138919880E+02  0.29138919880E+02  0.00000000000E+00 0.  1.
         24    1    1    2    0    0  0.71770675853E+02  0.67879815771E+02  0.14386148743E+03  0.19215109373E+03  0.80419002446E+02 0.  1.
        -24    1    1    2    0    0 -0.71770675853E+02 -0.67879815771E+02  0.80725738513E+03  0.81724561859E+03  0.80419002446E+02 0. -1.
<mgrwt>
<rscale>  0 0.12738098E+03</rscale>
<asrwt>0</asrwt>
<pdfrwt beam="1">  1        3 0.15080887E+00 0.12738098E+03</pdfrwt>
<pdfrwt beam="2">  1       -3 0.44829115E-02 0.12738098E+03</pdfrwt>
<totfact> 0.21364758E+02</totfact>
</mgrwt>
</event>
<event>
 4    1  0.6602701E-002  0.9377596E+02  0.7546771E-02  0.1293957E+00
          2   -1    0    0  501    0  0.00000000000E+00  0.00000000000E+00  0.98410551641E+02  0.98410551641E+02  0.00000000000E+00 0. -1.
         -2   -1    0    0    0  501 -0.00000000000E+00 -0.00000000000E+00 -0.23457006188E+03  0.23457006188E+03  0.00000000000E+00 0.  1.
         24    1    1    2    0    0  0.47616412781E+02 -0.77065694553E+01  0.62914297766E+02  0.11292536826E+03  0.80419002446E+02 0. -1.
        -24    1    1    2    0    0 -0.47616412781E+02  0.77065694553E+01 -0.19907380800E+03  0.22005524526E+03  0.80419002446E+02 0.  1.
<mgrwt>
<rscale>  0 0.93775956E+02</rscale>
<asrwt>0</asrwt>
<pdfrwt beam="1">  1        2 0.15140085E-01 0.93775956E+02</pdfrwt>
<pdfrwt beam="2">  1       -2 0.36087702E-01 0.93775956E+02</pdfrwt>
<totfact> 0.26373282E+03</totfact>
</mgrwt>
</event>
<event>
 4    1  0.1165016E-001  0.9300190E+02  0.7546771E-02  0.1295741E+00
          1   -1    0    0  501    0  0.00000000000E+00  0.00000000000E+00  0.30326112283E+03  0.30326112283E+03  0.00000000000E+00 0. -1.
         -1   -1    0    0    0  501 -0.00000000000E+00 -0.00000000000E+00 -0.27922325391E+03  0.27922325391E+03  0.00000000000E+00 0.  1.
         24    1    1    2    0    0 -0.36571344296E+02 -0.29063290241E+02 -0.26394827917E+03  0.27985361904E+03  0.80419002446E+02 0.  1.
        -24    1    1    2    0    0  0.36571344296E+02  0.29063290241E+02  0.28798614808E+03  0.30263075770E+03  0.80419002446E+02 0. -1.
<mgrwt>
<rscale>  0 0.93001903E+02</rscale>
<asrwt>0</asrwt>
<pdfrwt beam="1">  1        1 0.46655557E-01 0.93001903E+02</pdfrwt>
<pdfrwt beam="2">  1       -1 0.42957424E-01 0.93001903E+02</pdfrwt>
<totfact> 0.47381310E+02</totfact>
</mgrwt>
</event>
<event>
 4    1  0.6602701E-002  0.9537442E+02  0.7546771E-02  0.1290335E+00
          1   -1    0    0  501    0  0.00000000000E+00  0.00000000000E+00  0.89160590983E+03  0.89160590983E+03  0.00000000000E+00 0. -1.
         -1   -1    0    0    0  501 -0.00000000000E+00 -0.00000000000E+00 -0.11638404514E+02  0.11638404514E+02  0.00000000000E+00 0.  1.
         24    1    1    2    0    0 -0.23867032214E+02 -0.45380932140E+02  0.28133118274E+03  0.29705809965E+03  0.80419002446E+02 0.  1.
        -24    1    1    2    0    0  0.23867032214E+02  0.45380932140E+02  0.59863632258E+03  0.60618621470E+03  0.80419002446E+02 0. -1.
<mgrwt>
<rscale>  0 0.95374421E+02</rscale>
<asrwt>0</asrwt>
<pdfrwt beam="1">  1        1 0.13717009E+00 0.95374421E+02</pdfrwt>
<pdfrwt beam="2">  1       -1 0.17905245E-02 0.95374421E+02</pdfrwt>
<totfact> 0.14554349E+04</totfact>
</mgrwt>
</event>
<event>
 4    1  0.6602701E-002  0.1471527E+03  0.7546771E-02  0.1204016E+00
         -2   -1    0    0    0  501 -0.00000000000E+00  0.00000000000E+00  0.63607599703E+02  0.63607599703E+02  0.00000000000E+00 0.  1.
          2   -1    0    0  501    0  0.00000000000E+00 -0.00000000000E+00 -0.41052819914E+03  0.41052819914E+03  0.00000000000E+00 0. -1.
         24    1    1    2    0    0 -0.88656734067E+02  0.85596110865E+02 -0.27142172608E+03  0.30874533200E+03  0.80419002446E+02 0. -1.
        -24    1    1    2    0    0  0.88656734067E+02 -0.85596110865E+02 -0.75498873366E+02  0.16539046685E+03  0.80419002446E+02 0.  1.
<mgrwt>
<rscale>  0 0.14715273E+03</rscale>
<asrwt>0</asrwt>
<pdfrwt beam="1">  1        2 0.63158183E-01 0.14715273E+03</pdfrwt>
<pdfrwt beam="2">  1       -2 0.97857848E-02 0.14715273E+03</pdfrwt>
<totfact> 0.51462577E+03</totfact>
</mgrwt>
</event>
<event>
 4    1  0.6602701E-002  0.1836111E+03  0.7546771E-02  0.1164353E+00
          1   -1    0    0  501    0  0.00000000000E+00  0.00000000000E+00  0.50813433454E+03  0.50813433454E+03  0.00000000000E+00 0. -1.
         -1   -1    0    0    0  501 -0.00000000000E+00 -0.00000000000E+00 -0.28748544549E+03  0.28748544549E+03  0.00000000000E+00 0.  1.
         24    1    1    2    0    0  0.68439791258E+02  0.15020594181E+03 -0.23857481420E+03  0.30104980968E+03  0.80419002446E+02 0.  1.
        -24    1    1    2    0    0 -0.68439791258E+02 -0.15020594181E+03  0.45922370326E+03  0.49456997035E+03  0.80419002446E+02 0. -1.
<mgrwt>
<rscale>  0 0.18361113E+03</rscale>
<asrwt>0</asrwt>
<pdfrwt beam="1">  1        1 0.78174513E-01 0.18361113E+03</pdfrwt>
<pdfrwt beam="2">  1       -1 0.44228530E-01 0.18361113E+03</pdfrwt>
<totfact> 0.23232671E+02</totfact>
</mgrwt>
</event>
<event>
 4    1  0.6602701E-002  0.9601644E+02  0.7546771E-02  0.1288903E+00
          3   -1    0    0  501    0  0.00000000000E+00  0.00000000000E+00  0.92353667469E+02  0.92353667469E+02  0.00000000000E+00 0. -1.
         -3   -1    0    0    0  501 -0.00000000000E+00 -0.00000000000E+00 -0.14770061001E+03  0.14770061001E+03  0.00000000000E+00 0.  1.
         24    1    1    2    0    0 -0.21321617700E+02  0.47930472536E+02 -0.96009194188E+02  0.13578263108E+03  0.80419002446E+02 0.  1.
        -24    1    1    2    0    0  0.21321617700E+02 -0.47930472536E+02  0.40662251652E+02  0.10427164640E+03  0.80419002446E+02 0. -1.
<mgrwt>
<rscale>  0 0.96016444E+02</rscale>
<asrwt>0</asrwt>
<pdfrwt beam="1">  1        3 0.14208257E-01 0.96016444E+02</pdfrwt>
<pdfrwt beam="2">  1       -3 0.22723171E-01 0.96016444E+02</pdfrwt>
<totfact> 0.15697867E+03</totfact>
</mgrwt>
</event>
<event>
 4    1  0.6602701E-002  0.9187989E+02  0.7546771E-02  0.1298362E+00
          2   -1    0    0  501    0  0.00000000000E+00  0.00000000000E+00  0.20797412217E+04  0.20797412217E+04  0.00000000000E+00 0. -1.
         -2   -1    0    0    0  501 -0.00000000000E+00 -0.00000000000E+00 -0.55338696248E+01  0.55338696248E+01  0.00000000000E+00 0.  1.
         24    1    1    2    0    0 -0.39538893550E+02 -0.20282357788E+02  0.15753466955E+04  0.15780238037E+04  0.80419002446E+02 0.  0.
        -24    1    1    2    0    0  0.39538893550E+02  0.20282357788E+02  0.49886065660E+03  0.50725128763E+03  0.80419002446E+02 0. -1.
<mgrwt>
<rscale>  0 0.91879890E+02</rscale>
<asrwt>0</asrwt>
<pdfrwt beam="1">  1        2 0.31995956E+00 0.91879890E+02</pdfrwt>
<pdfrwt beam="2">  1       -2 0.85136622E-03 0.91879890E+02</pdfrwt>
<totfact> 0.17370158E+04</totfact>
</mgrwt>
</event>
<event>
 4    1  0.6602701E-002  0.1701968E+03  0.7546771E-02  0.1177643E+00
          4   -1    0    0  501    0  0.00000000000E+00  0.00000000000E+00  0.52443518430E+03  0.52443518430E+03  0.00000000000E+00 0. -1.
         -4   -1    0    0    0  501 -0.00000000000E+00 -0.00000000000E+00 -0.86135227477E+02  0.86135227477E+02  0.00000000000E+00 0.  1.
         24    1    1    2    0    0 -0.13522668922E+03 -0.64911288114E+02  0.40200178625E+03  0.43654597112E+03  0.80419002446E+02 0. -1.
        -24    1    1    2    0    0  0.13522668922E+03  0.64911288114E+02  0.36298170570E+02  0.17402444065E+03  0.80419002446E+02 0.  1.
<mgrwt>
<rscale>  0 0.17019679E+03</rscale>
<asrwt>0</asrwt>
<pdfrwt beam="1">  1        4 0.80682334E-01 0.17019679E+03</pdfrwt>
<pdfrwt beam="2">  1       -4 0.13251574E-01 0.17019679E+03</pdfrwt>
<totfact> 0.11337762E+02</totfact>
</mgrwt>
</event>
<event>
 4    1  0.6602701E-002  0.9036047E+02  0.7546771E-02  0.1301981E+00
          2   -1    0    0  501    0  0.00000000000E+00  0.00000000000E+00  0.13571754986E+04  0.13571754986E+04  0.00000000000E+00 0. -1.
         -2   -1    0    0    0  501 -0.00000000000E+00 -0.00000000000E+00 -0.61733908866E+01  0.61733908866E+01  0.00000000000E+00 0.  1.
         24    1    1    2    0    0  0.19282361951E+02 -0.36414142715E+02  0.78428210288E+03  0.78947034911E+03  0.80419002446E+02 0. -1.
        -24    1    1    2    0    0 -0.19282361951E+02  0.36414142715E+02  0.56672000486E+03  0.57387854041E+03  0.80419002446E+02 0.  1.
<mgrwt>
<rscale>  0 0.90360474E+02</rscale>
<asrwt>0</asrwt>
<pdfrwt beam="1">  1        2 0.20879599E+00 0.90360474E+02</pdfrwt>
<pdfrwt beam="2">  1       -2 0.94975352E-03 0.90360474E+02</pdfrwt>
<totfact> 0.34504555E+04</totfact>
</mgrwt>
</event>
<event>
 4    1  0.7140031E-002  0.9545265E+02  0.7546771E-02  0.1290160E+00
         -1   -1    0    0    0  501 -0.00000000000E+00  0.00000000000E+00  0.16789575765E+02  0.16789575765E+02  0.00000000000E+00 0.  1.
          1   -1    0    0  501    0  0.00000000000E+00 -0.00000000000E+00 -0.16405634462E+04  0.16405634462E+04  0.00000000000E+00 0. -1.
         24    1    1    2    0    0 -0.45906410768E+02 -0.23164483172E+02 -0.13398245013E+03  0.16450685314E+03  0.80419002446E+02 0.  1.
        -24    1    1    2    0    0  0.45906410768E+02  0.23164483172E+02 -0.14897914203E+04  0.14928461689E+04  0.80419002446E+02 0. -1.
<mgrwt>
<rscale>  0 0.95452647E+02</rscale>
<asrwt>0</asrwt>
<pdfrwt beam="1">  1        1 0.25239431E+00 0.95452647E+02</pdfrwt>
<pdfrwt beam="2">  1       -1 0.25830123E-02 0.95452647E+02</pdfrwt>
<totfact> 0.26934042E+03</totfact>
</mgrwt>
</event>
<event>
 4    1  0.6602701E-002  0.8907175E+02  0.7546771E-02  0.1305115E+00
         -4   -1    0    0    0  501 -0.00000000000E+00  0.00000000000E+00  0.76620404547E+01  0.76620404547E+01  0.00000000000E+00 0.  1.
          4   -1    0    0  501    0  0.00000000000E+00 -0.00000000000E+00 -0.14795122857E+04  0.14795122857E+04  0.00000000000E+00 0. -1.
         24    1    1    2    0    0  0.38279250709E+02 -0.11223357262E+01 -0.11432932850E+04  0.11467577391E+04  0.80419002446E+02 0. -1.
        -24    1    1    2    0    0 -0.38279250709E+02  0.11223357262E+01 -0.32855696027E+03  0.34041658709E+03  0.80419002446E+02 0.  1.
<mgrwt>
<rscale>  0 0.89071750E+02</rscale>
<asrwt>0</asrwt>
<pdfrwt beam="1">  1        4 0.22761754E+00 0.89071750E+02</pdfrwt>
<pdfrwt beam="2">  1       -4 0.11787741E-02 0.89071750E+02</pdfrwt>
<totfact> 0.35200164E+02</totfact>
</mgrwt>
</event>
<event>
 4    1  0.6602701E-002  0.8254396E+02  0.7546771E-02  0.1321983E+00
          1   -1    0    0  501    0  0.00000000000E+00  0.00000000000E+00  0.76352042468E+03  0.76352042468E+03  0.00000000000E+00 0. -1.
         -1   -1    0    0    0  501 -0.00000000000E+00 -0.00000000000E+00 -0.91200837506E+01  0.91200837506E+01  0.00000000000E+00 0.  1.
         24    1    1    2    0    0  0.18571229869E+02 -0.11810259805E+01  0.43387542003E+03  0.44165753867E+03  0.80419002446E+02 0. -1.
        -24    1    1    2    0    0 -0.18571229869E+02  0.11810259805E+01  0.32052492090E+03  0.33098296976E+03  0.80419002446E+02 0. -1.
<mgrwt>
<rscale>  0 0.82543946E+02</rscale>
<asrwt>0</asrwt>
<pdfrwt beam="1">  1        1 0.11746463E+00 0.82543957E+02</pdfrwt>
<pdfrwt beam="2">  1       -1 0.14030904E-02 0.82543957E+02</pdfrwt>
<totfact> 0.25628589E+04</totfact>
</mgrwt>
</event>
<event>
 4    1  0.6602701E-002  0.1057940E+03  0.7546771E-02  0.1268563E+00
          2   -1    0    0  501    0  0.00000000000E+00  0.00000000000E+00  0.12398068791E+04  0.12398068791E+04  0.00000000000E+00 0. -1.
         -2   -1    0    0    0  501 -0.00000000000E+00 -0.00000000000E+00 -0.96752331711E+01  0.96752331711E+01  0.00000000000E+00 0.  1.
         24    1    1    2    0    0  0.23009876882E+02  0.64774258906E+02  0.77671087674E+03  0.78388274701E+03  0.80419002446E+02 0. -1.
        -24    1    1    2    0    0 -0.23009876882E+02 -0.64774258906E+02  0.45342076921E+03  0.46559936529E+03  0.80419002446E+02 0.  1.
<mgrwt>
<rscale>  0 0.10579402E+03</rscale>
<asrwt>0</asrwt>
<pdfrwt beam="1">  1        2 0.19073939E+00 0.10579402E+03</pdfrwt>
<pdfrwt beam="2">  1       -2 0.14884984E-02 0.10579402E+03</pdfrwt>
<totfact> 0.21293786E+04</totfact>
</mgrwt>
</event>
<event>
 4    1  0.6602701E-002  0.8510421E+02  0.7546771E-02  0.1315160E+00
          2   -1    0    0  501    0  0.00000000000E+00  0.00000000000E+00  0.29768876995E+03  0.29768876995E+03  0.00000000000E+00 0. -1.
         -2   -1    0    0    0  501 -0.00000000000E+00 -0.00000000000E+00 -0.33244526035E+02  0.33244526035E+02  0.00000000000E+00 0.  1.
         24    1    1    2    0    0  0.35789986927E+01 -0.27616994336E+02  0.46537449148E+02  0.96997204781E+02  0.80419002446E+02 0.  1.
        -24    1    1    2    0    0 -0.35789986927E+01  0.27616994336E+02  0.21790679477E+03  0.23393609121E+03  0.80419002446E+02 0. -1.
<mgrwt>
<rscale>  0 0.85104203E+02</rscale>
<asrwt>0</asrwt>
<pdfrwt beam="1">  1        2 0.45798271E-01 0.85104214E+02</pdfrwt>
<pdfrwt beam="2">  1       -2 0.51145427E-02 0.85104214E+02</pdfrwt>
<totfact> 0.18622007E+04</totfact>
</mgrwt>
</event>
<event>
 4    1  0.6602701E-002  0.8709739E+02  0.7546771E-02  0.1310037E+00
          1   -1    0    0  501    0  0.00000000000E+00  0.00000000000E+00  0.84572125847E+02  0.84572125847E+02  0.00000000000E+00 0. -1.
         -1   -1    0    0    0  501 -0.00000000000E+00 -0.00000000000E+00 -0.29466860188E+03  0.29466860188E+03  0.00000000000E+00 0.  1.
         24    1    1    2    0    0 -0.18092210215E+02  0.28132030052E+02 -0.26319626386E+03  0.27723316621E+03  0.80419002446E+02 0.  1.
        -24    1    1    2    0    0  0.18092210215E+02 -0.28132030052E+02  0.53099787823E+02  0.10200756152E+03  0.80419002446E+02 0. -1.
<mgrwt>
<rscale>  0 0.87097389E+02</rscale>
<asrwt>0</asrwt>
<pdfrwt beam="1">  1        1 0.13011096E-01 0.87097389E+02</pdfrwt>
<pdfrwt beam="2">  1       -1 0.45333630E-01 0.87097389E+02</pdfrwt>
<totfact> 0.21080490E+03</totfact>
</mgrwt>
</event>
<event>
 4    1  0.6602701E-002  0.8405818E+02  0.7546771E-02  0.1317914E+00
          2   -1    0    0  501    0  0.00000000000E+00  0.00000000000E+00  0.86159787266E+03  0.86159787266E+03  0.00000000000E+00 0. -1.
         -2   -1    0    0    0  501 -0.00000000000E+00 -0.00000000000E+00 -0.84853134336E+01  0.84853134336E+01  0.00000000000E+00 0.  1.
         24    1    1    2    0    0 -0.84846533582E+01  0.22947153466E+02  0.50622011882E+03  0.51315162072E+03  0.80419002446E+02 0.  1.
        -24    1    1    2    0    0  0.84846533582E+01 -0.22947153466E+02  0.34689244041E+03  0.35693156538E+03  0.80419002446E+02 0.  0.
<mgrwt>
<rscale>  0 0.84058177E+02</rscale>
<asrwt>0</asrwt>
<pdfrwt beam="1">  1        2 0.13255345E+00 0.84058177E+02</pdfrwt>
<pdfrwt beam="2">  1       -2 0.13054335E-02 0.84058177E+02</pdfrwt>
<totfact> 0.41572920E+04</totfact>
</mgrwt>
</event>
<event>
 4    1  0.6602701E-002  0.1480128E+03  0.7546771E-02  0.1202936E+00
         -2   -1    0    0    0  501 -0.00000000000E+00  0.00000000000E+00  0.43975507293E+02  0.43975507293E+02  0.00000000000E+00 0.  1.
          2   -1    0    0  501    0  0.00000000000E+00 -0.00000000000E+00 -0.94833082263E+03  0.94833082263E+03  0.00000000000E+00 0. -1.
         24    1    1    2    0    0  0.75685805856E+02  0.98550675282E+02 -0.79401069930E+03  0.80768854354E+03  0.80419002446E+02 0. -1.
        -24    1    1    2    0    0 -0.75685805856E+02 -0.98550675282E+02 -0.11034461604E+03  0.18461778638E+03  0.80419002446E+02 0.  1.
<mgrwt>
<rscale>  0 0.14801281E+03</rscale>
<asrwt>0</asrwt>
<pdfrwt beam="1">  1        2 0.14589704E+00 0.14801281E+03</pdfrwt>
<pdfrwt beam="2">  1       -2 0.67654631E-02 0.14801281E+03</pdfrwt>
<totfact> 0.34204469E+03</totfact>
</mgrwt>
</event>
<event>
 4    1  0.6602701E-002  0.1151210E+03  0.7546771E-02  0.1251370E+00
          2   -1    0    0  501    0  0.00000000000E+00  0.00000000000E+00  0.20062135390E+04  0.20062135390E+04  0.00000000000E+00 0. -1.
         -2   -1    0    0    0  501 -0.00000000000E+00 -0.00000000000E+00 -0.13259081876E+02  0.13259081876E+02  0.00000000000E+00 0.  1.
         24    1    1    2    0    0 -0.16350061143E+01  0.82358639157E+02  0.17117408391E+04  0.17156076285E+04  0.80419002446E+02 0. -1.
        -24    1    1    2    0    0  0.16350061143E+01 -0.82358639157E+02  0.28121361800E+03  0.30386499238E+03  0.80419002446E+02 0.  1.
<mgrwt>
<rscale>  0 0.11512096E+03</rscale>
<asrwt>0</asrwt>
<pdfrwt beam="1">  1        2 0.30864800E+00 0.11512096E+03</pdfrwt>
<pdfrwt beam="2">  1       -2 0.20398603E-02 0.11512096E+03</pdfrwt>
<totfact> 0.54783189E+03</totfact>
</mgrwt>
</event>
<event>
 4    1  0.6602701E-002  0.9458072E+02  0.7546771E-02  0.1292123E+00
         -2   -1    0    0    0  501 -0.00000000000E+00  0.00000000000E+00  0.99272888374E+01  0.99272888374E+01  0.00000000000E+00 0.  1.
          2   -1    0    0  501    0  0.00000000000E+00 -0.00000000000E+00 -0.11615952949E+04  0.11615952949E+04  0.00000000000E+00 0. -1.
         24    1    1    2    0    0  0.54107352913E+01  0.49487583885E+02 -0.85322375879E+03  0.85844993770E+03  0.80419002446E+02 0. -1.
        -24    1    1    2    0    0 -0.54107352913E+01 -0.49487583885E+02 -0.29844424732E+03  0.31307264609E+03  0.80419002446E+02 0.  1.
<mgrwt>
<rscale>  0 0.94580722E+02</rscale>
<asrwt>0</asrwt>
<pdfrwt beam="1">  1        2 0.17870703E+00 0.94580722E+02</pdfrwt>
<pdfrwt beam="2">  1       -2 0.15272747E-02 0.94580722E+02</pdfrwt>
<totfact> 0.22444254E+04</totfact>
</mgrwt>
</event>
<event>
 4    1  0.6602701E-002  0.8525403E+02  0.7546771E-02  0.1314770E+00
         -1   -1    0    0    0  501 -0.00000000000E+00  0.00000000000E+00  0.17111730040E+02  0.17111730040E+02  0.00000000000E+00 0.  1.
          1   -1    0    0  501    0  0.00000000000E+00 -0.00000000000E+00 -0.45017114935E+03  0.45017114935E+03  0.00000000000E+00 0. -1.
         24    1    1    2    0    0 -0.23443198699E+02  0.15857197232E+02 -0.16101127347E+03  0.18218913362E+03  0.80419002446E+02 0. -1.
        -24    1    1    2    0    0  0.23443198699E+02 -0.15857197232E+02 -0.27204814584E+03  0.28509374577E+03  0.80419002446E+02 0.  0.
<mgrwt>
<rscale>  0 0.85254033E+02</rscale>
<asrwt>0</asrwt>
<pdfrwt beam="1">  1        1 0.69257087E-01 0.85254033E+02</pdfrwt>
<pdfrwt beam="2">  1       -1 0.26325744E-02 0.85254033E+02</pdfrwt>
<totfact> 0.21276035E+04</totfact>
</mgrwt>
</event>
<event>
 4    1  0.6602701E-002  0.8594793E+02  0.7546771E-02  0.1312972E+00
         -1   -1    0    0    0  501 -0.00000000000E+00  0.00000000000E+00  0.54986799568E+02  0.54986799568E+02  0.00000000000E+00 0.  1.
          1   -1    0    0  501    0  0.00000000000E+00 -0.00000000000E+00 -0.15907850514E+03  0.15907850514E+03  0.00000000000E+00 0. -1.
         24    1    1    2    0    0 -0.96921812929E+01 -0.28738338207E+02 -0.98394688782E+01  0.86509314893E+02  0.80419002446E+02 0.  1.
        -24    1    1    2    0    0  0.96921812929E+01  0.28738338207E+02 -0.94252236690E+02  0.12755598981E+03  0.80419002446E+02 0. -1.
<mgrwt>
<rscale>  0 0.85947929E+02</rscale>
<asrwt>0</asrwt>
<pdfrwt beam="1">  1        1 0.24473616E-01 0.85947929E+02</pdfrwt>
<pdfrwt beam="2">  1       -1 0.84595077E-02 0.85947929E+02</pdfrwt>
<totfact> 0.13890662E+04</totfact>
</mgrwt>
</event>
<event>
 4    1  0.6602701E-002  0.1005996E+03  0.7546771E-02  0.1279040E+00
         -1   -1    0    0    0  501 -0.00000000000E+00  0.00000000000E+00  0.16666878124E+02  0.16666878124E+02  0.00000000000E+00 0.  1.
          1   -1    0    0  501    0  0.00000000000E+00 -0.00000000000E+00 -0.62538633597E+03  0.62538633597E+03  0.00000000000E+00 0. -1.
         24    1    1    2    0    0 -0.51491569626E+02  0.31649467646E+02 -0.24962964101E+03  0.26913796493E+03  0.80419002446E+02 0. -1.
        -24    1    1    2    0    0  0.51491569626E+02 -0.31649467646E+02 -0.35908981684E+03  0.37291524916E+03  0.80419002446E+02 0.  1.
<mgrwt>
<rscale>  0 0.10059963E+03</rscale>
<asrwt>0</asrwt>
<pdfrwt beam="1">  1        1 0.96213274E-01 0.10059963E+03</pdfrwt>
<pdfrwt beam="2">  1       -1 0.25641353E-02 0.10059963E+03</pdfrwt>
<totfact> 0.14622953E+04</totfact>
</mgrwt>
</event>
<event>
 4    1  0.6602701E-002  0.8877564E+02  0.7546771E-02  0.1305844E+00
         -1   -1    0    0    0  501 -0.00000000000E+00  0.00000000000E+00  0.18178889862E+02  0.18178889862E+02  0.00000000000E+00 0.  1.
          1   -1    0    0  501    0  0.00000000000E+00 -0.00000000000E+00 -0.46285032904E+03  0.46285032904E+03  0.00000000000E+00 0. -1.
         24    1    1    2    0    0 -0.37194567589E+02 -0.55192815042E+01 -0.16180199726E+03  0.18455622611E+03  0.80419002446E+02 0.  1.
        -24    1    1    2    0    0  0.37194567589E+02  0.55192815042E+01 -0.28286944192E+03  0.29647299279E+03  0.80419002446E+02 0. -1.
<mgrwt>
<rscale>  0 0.88775640E+02</rscale>
<asrwt>0</asrwt>
<pdfrwt beam="1">  1        1 0.71207743E-01 0.88775640E+02</pdfrwt>
<pdfrwt beam="2">  1       -1 0.27967523E-02 0.88775640E+02</pdfrwt>
<totfact> 0.18915248E+04</totfact>
</mgrwt>
</event>
<event>
 4    1  0.6602701E-002  0.8376865E+02  0.7546771E-02  0.1318684E+00
          2   -1    0    0  501    0  0.00000000000E+00  0.00000000000E+00  0.19119705572E+03  0.19119705572E+03  0.00000000000E+00 0. -1.
         -2   -1    0    0    0  501 -0.00000000000E+00 -0.00000000000E+00 -0.38841191968E+02  0.38841191968E+02  0.00000000000E+00 0.  1.
         24    1    1    2    0    0  0.23065857168E+02 -0.42352610626E+01  0.10317497325E+03  0.13289944418E+03  0.80419002446E+02 0. -1.
        -24    1    1    2    0    0 -0.23065857168E+02  0.42352610626E+01  0.49180890508E+02  0.97138803517E+02  0.80419002446E+02 0.  1.
<mgrwt>
<rscale>  0 0.83768653E+02</rscale>
<asrwt>0</asrwt>
<pdfrwt beam="1">  1        2 0.29414931E-01 0.83768653E+02</pdfrwt>
<pdfrwt beam="2">  1       -2 0.59755681E-02 0.83768653E+02</pdfrwt>
<totfact> 0.23490506E+04</totfact>
</mgrwt>
</event>
<event>
 4    1  0.6602701E-002  0.9579182E+02  0.7546771E-02  0.1289403E+00
         -1   -1    0    0    0  501 -0.00000000000E+00  0.00000000000E+00  0.68452930813E+02  0.68452930813E+02  0.00000000000E+00 0.  1.
          1   -1    0    0  501    0  0.00000000000E+00 -0.00000000000E+00 -0.29699019944E+03  0.29699019944E+03  0.00000000000E+00 0. -1.
         24    1    1    2    0    0  0.20524471216E+02  0.47828887139E+02  0.21073714003E+02  0.98082484368E+02  0.80419002446E+02 0.  1.
        -24    1    1    2    0    0 -0.20524471216E+02 -0.47828887139E+02 -0.24961098263E+03  0.26736064588E+03  0.80419002446E+02 0. -1.
<mgrwt>
<rscale>  0 0.95791818E+02</rscale>
<asrwt>0</asrwt>
<pdfrwt beam="1">  1        1 0.45690800E-01 0.95791818E+02</pdfrwt>
<pdfrwt beam="2">  1       -1 0.10531220E-01 0.95791818E+02</pdfrwt>
<totfact> 0.46892672E+03</totfact>
</mgrwt>
</event>
<event>
 4    1  0.6602701E-002  0.1048323E+03  0.7546771E-02  0.1270450E+00
         -2   -1    0    0    0  501 -0.00000000000E+00  0.00000000000E+00  0.53555089247E+01  0.53555089247E+01  0.00000000000E+00 0.  1.
          2   -1    0    0  501    0  0.00000000000E+00 -0.00000000000E+00 -0.30540500171E+04  0.30540500171E+04  0.00000000000E+00 0. -1.
         24    1    1    2    0    0 -0.16209836757E+02 -0.65267349372E+02 -0.24005440212E+04  0.24028319541E+04  0.80419002446E+02 0. -1.
        -24    1    1    2    0    0  0.16209836757E+02  0.65267349372E+02 -0.64815048690E+03  0.65657357191E+03  0.80419002446E+02 0. -1.
<mgrwt>
<rscale>  0 0.10483225E+03</rscale>
<asrwt>0</asrwt>
<pdfrwt beam="1">  1        2 0.46985273E+00 0.10483225E+03</pdfrwt>
<pdfrwt beam="2">  1       -2 0.82392641E-03 0.10483225E+03</pdfrwt>
<totfact> 0.55004632E+03</totfact>
</mgrwt>
</event>
<event>
 4    1  0.6602701E-002  0.1117345E+03  0.7546771E-02  0.1257391E+00
         -2   -1    0    0    0  501 -0.00000000000E+00  0.00000000000E+00  0.34717375410E+02  0.34717375410E+02  0.00000000000E+00 0.  1.
          2   -1    0    0  501    0  0.00000000000E+00 -0.00000000000E+00 -0.13816986553E+04  0.13816986553E+04  0.00000000000E+00 0. -1.
         24    1    1    2    0    0 -0.21579056409E+02 -0.74509847307E+02 -0.12826055461E+04  0.12874632329E+04  0.80419002446E+02 0. -1.
        -24    1    1    2    0    0  0.21579056409E+02  0.74509847307E+02 -0.64375733734E+02  0.12895279783E+03  0.80419002446E+02 0.  1.
<mgrwt>
<rscale>  0 0.11173446E+03</rscale>
<asrwt>0</asrwt>
<pdfrwt beam="1">  1        2 0.21256899E+00 0.11173446E+03</pdfrwt>
<pdfrwt beam="2">  1       -2 0.53411355E-02 0.11173446E+03</pdfrwt>
<totfact> 0.27752979E+03</totfact>
</mgrwt>
</event>
<event>
 4    1  0.6602701E-002  0.1214715E+03  0.7546771E-02  0.1240689E+00
          1   -1    0    0  501    0  0.00000000000E+00  0.00000000000E+00  0.43509472379E+02  0.43509472379E+02  0.00000000000E+00 0. -1.
         -1   -1    0    0    0  501 -0.00000000000E+00 -0.00000000000E+00 -0.39197689090E+03  0.39197689090E+03  0.00000000000E+00 0.  1.
         24    1    1    2    0    0 -0.82825610094E+02  0.37789081629E+02 -0.94281724194E+02  0.15376721318E+03  0.80419002446E+02 0. -1.
        -24    1    1    2    0    0  0.82825610094E+02 -0.37789081629E+02 -0.25418569433E+03  0.28171915010E+03  0.80419002446E+02 0.  1.
<mgrwt>
<rscale>  0 0.12147146E+03</rscale>
<asrwt>0</asrwt>
<pdfrwt beam="1">  1        1 0.66937651E-02 0.12147148E+03</pdfrwt>
<pdfrwt beam="2">  1       -1 0.60304136E-01 0.12147148E+03</pdfrwt>
<totfact> 0.30605219E+03</totfact>
</mgrwt>
</event>
<event>
 4    1  0.6602701E-002  0.8404659E+02  0.7546771E-02  0.1317945E+00
         -2   -1    0    0    0  501 -0.00000000000E+00  0.00000000000E+00  0.78026534594E+02  0.78026534594E+02  0.00000000000E+00 0.  1.
          2   -1    0    0  501    0  0.00000000000E+00 -0.00000000000E+00 -0.22751616116E+03  0.22751616116E+03  0.00000000000E+00 0. -1.
         24    1    1    2    0    0  0.24308931329E+02 -0.23853627590E+01 -0.19328683972E+03  0.21076914495E+03  0.80419002446E+02 0. -1.
        -24    1    1    2    0    0 -0.24308931329E+02  0.23853627590E+01  0.43797213156E+02  0.94773550806E+02  0.80419002446E+02 0.  0.
<mgrwt>
<rscale>  0 0.84046595E+02</rscale>
<asrwt>0</asrwt>
<pdfrwt beam="1">  1        2 0.35002486E-01 0.84046595E+02</pdfrwt>
<pdfrwt beam="2">  1       -2 0.12004082E-01 0.84046595E+02</pdfrwt>
<totfact> 0.67051153E+03</totfact>
</mgrwt>
</event>
<event>
 4    1  0.6602701E-002  0.8156472E+02  0.7546771E-02  0.1324669E+00
         -2   -1    0    0    0  501 -0.00000000000E+00  0.00000000000E+00  0.22676557926E+03  0.22676557926E+03  0.00000000000E+00 0.  1.
          2   -1    0    0  501    0  0.00000000000E+00 -0.00000000000E+00 -0.36403616138E+03  0.36403616138E+03  0.00000000000E+00 0. -1.
         24    1    1    2    0    0 -0.27124660936E+01 -0.13350304129E+02 -0.35188292977E+03  0.36121240332E+03  0.80419002446E+02 0. -1.
        -24    1    1    2    0    0  0.27124660936E+01  0.13350304129E+02  0.21461234765E+03  0.22958933732E+03  0.80419002446E+02 0.  1.
<mgrwt>
<rscale>  0 0.81564723E+02</rscale>
<asrwt>0</asrwt>
<pdfrwt beam="1">  1        2 0.56005563E-01 0.81564723E+02</pdfrwt>
<pdfrwt beam="2">  1       -2 0.34887012E-01 0.81564723E+02</pdfrwt>
<totfact> 0.67881973E+02</totfact>
</mgrwt>
</event>
<event>
 4    1  0.6602701E-002  0.8667575E+02  0.7546771E-02  0.1311108E+00
          1   -1    0    0  501    0  0.00000000000E+00  0.00000000000E+00  0.70751270368E+03  0.70751270368E+03  0.00000000000E+00 0. -1.
         -1   -1    0    0    0  501 -0.00000000000E+00 -0.00000000000E+00 -0.11929452401E+02  0.11929452401E+02  0.00000000000E+00 0.  1.
         24    1    1    2    0    0  0.22598374612E+02  0.23125360813E+02  0.22854168077E+03  0.24442582648E+03  0.80419002446E+02 0.  1.
        -24    1    1    2    0    0 -0.22598374612E+02 -0.23125360813E+02  0.46704157051E+03  0.47501632960E+03  0.80419002446E+02 0. -1.
<mgrwt>
<rscale>  0 0.86675745E+02</rscale>
<asrwt>0</asrwt>
<pdfrwt beam="1">  1        1 0.10884808E+00 0.86675745E+02</pdfrwt>
<pdfrwt beam="2">  1       -1 0.18353009E-02 0.86675745E+02</pdfrwt>
<totfact> 0.19620837E+04</totfact>
</mgrwt>
</event>
<event>
 4    1  0.6602701E-002  0.1054772E+03  0.7546771E-02  0.1269182E+00
          1   -1    0    0  501    0  0.00000000000E+00  0.00000000000E+00  0.59569929265E+03  0.59569929265E+03  0.00000000000E+00 0. -1.
         -1   -1    0    0    0  501 -0.00000000000E+00 -0.00000000000E+00 -0.20384479409E+02  0.20384479409E+02  0.00000000000E+00 0.  1.
         24    1    1    2    0    0  0.54699629692E+02 -0.40818763748E+02  0.19848482275E+03  0.22477024220E+03  0.80419002446E+02 0.  1.
        -24    1    1    2    0    0 -0.54699629692E+02  0.40818763748E+02  0.37682999049E+03  0.39131352986E+03  0.80419002446E+02 0. -1.
<mgrwt>
<rscale>  0 0.10547719E+03</rscale>
<asrwt>0</asrwt>
<pdfrwt beam="1">  1        1 0.91646032E-01 0.10547719E+03</pdfrwt>
<pdfrwt beam="2">  1       -1 0.31360742E-02 0.10547719E+03</pdfrwt>
<totfact> 0.11724744E+04</totfact>
</mgrwt>
</event>
<event>
 4    1  0.6602701E-002  0.9069687E+02  0.7546771E-02  0.1301173E+00
          3   -1    0    0  501    0  0.00000000000E+00  0.00000000000E+00  0.82930577181E+02  0.82930577181E+02  0.00000000000E+00 0. -1.
         -3   -1    0    0    0  501 -0.00000000000E+00 -0.00000000000E+00 -0.99864259193E+02  0.99864259193E+02  0.00000000000E+00 0.  1.
         24    1    1    2    0    0 -0.38086476019E+02  0.17553421700E+02 -0.95910163111E+00  0.90701918939E+02  0.80419002446E+02 0.  1.
        -24    1    1    2    0    0  0.38086476019E+02 -0.17553421700E+02 -0.15974580380E+02  0.92092917435E+02  0.80419002446E+02 0. -1.
<mgrwt>
<rscale>  0 0.90696859E+02</rscale>
<asrwt>0</asrwt>
<pdfrwt beam="1">  1        3 0.12758550E-01 0.90696871E+02</pdfrwt>
<pdfrwt beam="2">  1       -3 0.15363732E-01 0.90696871E+02</pdfrwt>
<totfact> 0.36640258E+03</totfact>
</mgrwt>
</event>
<event>
 4    1  0.6602701E-002  0.8059212E+02  0.7546771E-02  0.1327379E+00
          4   -1    0    0  501    0  0.00000000000E+00  0.00000000000E+00  0.11062207046E+03  0.11062207046E+03  0.00000000000E+00 0. -1.
         -4   -1    0    0    0  501 -0.00000000000E+00 -0.00000000000E+00 -0.85688301814E+02  0.85688301814E+02  0.00000000000E+00 0.  1.
         24    1    1    2    0    0  0.51767554998E+01  0.10367725072E+01  0.67538236579E+02  0.10514990751E+03  0.80419002446E+02 0.  0.
        -24    1    1    2    0    0 -0.51767554998E+01 -0.10367725072E+01 -0.42604467929E+02  0.91160464767E+02  0.80419002446E+02 0.  1.
<mgrwt>
<rscale>  0 0.80592119E+02</rscale>
<asrwt>0</asrwt>
<pdfrwt beam="1">  1        4 0.17018780E-01 0.80592119E+02</pdfrwt>
<pdfrwt beam="2">  1       -4 0.13182816E-01 0.80592119E+02</pdfrwt>
<totfact> 0.20502800E+03</totfact>
</mgrwt>
</event>
<event>
 4    1  0.6602701E-002  0.8545434E+02  0.7546771E-02  0.1314249E+00
          2   -1    0    0  501    0  0.00000000000E+00  0.00000000000E+00  0.58091692742E+03  0.58091692742E+03  0.00000000000E+00 0. -1.
         -2   -1    0    0    0  501 -0.00000000000E+00 -0.00000000000E+00 -0.18727375158E+02  0.18727375158E+02  0.00000000000E+00 0.  1.
         24    1    1    2    0    0  0.28147661891E+02  0.65526357473E+01  0.45300581206E+03  0.46099534664E+03  0.80419002446E+02 0.  0.
        -24    1    1    2    0    0 -0.28147661891E+02 -0.65526357473E+01  0.10918374020E+03  0.13864895594E+03  0.80419002446E+02 0. -1.
<mgrwt>
<rscale>  0 0.85454338E+02</rscale>
<asrwt>0</asrwt>
<pdfrwt beam="1">  1        2 0.89371821E-01 0.85454338E+02</pdfrwt>
<pdfrwt beam="2">  1       -2 0.28811351E-02 0.85454338E+02</pdfrwt>
<totfact> 0.21253427E+04</totfact>
</mgrwt>
</event>
<event>
 4    1  0.6602701E-002  0.9793093E+02  0.7546771E-02  0.1284708E+00
          1   -1    0    0  501    0  0.00000000000E+00  0.00000000000E+00  0.53745436409E+02  0.53745436409E+02  0.00000000000E+00 0. -1.
         -1   -1    0    0    0  501 -0.00000000000E+00 -0.00000000000E+00 -0.25513539959E+03  0.25513539959E+03  0.00000000000E+00 0.  1.
         24    1    1    2    0    0  0.45205988899E+02 -0.32858330544E+02 -0.18536961648E+03  0.20964818622E+03  0.80419002446E+02 0.  1.
        -24    1    1    2    0    0 -0.45205988899E+02  0.32858330544E+02 -0.16020346701E+02  0.99232649774E+02  0.80419002446E+02 0. -1.
<mgrwt>
<rscale>  0 0.97930931E+02</rscale>
<asrwt>0</asrwt>
<pdfrwt beam="1">  1        1 0.82685286E-02 0.97930931E+02</pdfrwt>
<pdfrwt beam="2">  1       -1 0.39251600E-01 0.97930931E+02</pdfrwt>
<totfact> 0.49447272E+03</totfact>
</mgrwt>
</event>
<event>
 4    1  0.6602701E-002  0.8924474E+02  0.7546771E-02  0.1304691E+00
          2   -1    0    0  501    0  0.00000000000E+00  0.00000000000E+00  0.12481833634E+04  0.12481833634E+04  0.00000000000E+00 0. -1.
         -2   -1    0    0    0  501 -0.00000000000E+00 -0.00000000000E+00 -0.11313475123E+02  0.11313475123E+02  0.00000000000E+00 0.  1.
         24    1    1    2    0    0  0.14951556499E+02 -0.35691159804E+02  0.10342524121E+04  0.10380956968E+04  0.80419002446E+02 0. -1.
        -24    1    1    2    0    0 -0.14951556499E+02  0.35691159804E+02  0.20261747624E+03  0.22140114174E+03  0.80419002446E+02 0.  1.
<mgrwt>
<rscale>  0 0.89244741E+02</rscale>
<asrwt>0</asrwt>
<pdfrwt beam="1">  1        2 0.19202810E+00 0.89244741E+02</pdfrwt>
<pdfrwt beam="2">  1       -2 0.17405356E-02 0.89244741E+02</pdfrwt>
<totfact> 0.16634184E+04</totfact>
</mgrwt>
</event>
<event>
 4    1  0.6602701E-002  0.9523595E+02  0.7546771E-02  0.1290646E+00
         -2   -1    0    0    0  501 -0.00000000000E+00  0.00000000000E+00  0.63396416312E+02  0.63396416312E+02  0.00000000000E+00 0.  1.
          2   -1    0    0  501    0  0.00000000000E+00 -0.00000000000E+00 -0.18049757925E+03  0.18049757925E+03  0.00000000000E+00 0. -1.
         24    1    1    2    0    0 -0.17023614207E+02 -0.48092273795E+02 -0.11408384170E+03  0.14861025917E+03  0.80419002446E+02 0. -1.
        -24    1    1    2    0    0  0.17023614207E+02  0.48092273795E+02 -0.30173212412E+01  0.95283736394E+02  0.80419002446E+02 0.  1.
<mgrwt>
<rscale>  0 0.95235950E+02</rscale>
<asrwt>0</asrwt>
<pdfrwt beam="1">  1        2 0.27768858E-01 0.95235950E+02</pdfrwt>
<pdfrwt beam="2">  1       -2 0.97532951E-02 0.95235950E+02</pdfrwt>
<totfact> 0.12006654E+04</totfact>
</mgrwt>
</event>
<event>
 4    1  0.6602701E-002  0.1009135E+03  0.7546771E-02  0.1278387E+00
         -2   -1    0    0    0  501 -0.00000000000E+00  0.00000000000E+00  0.48402713203E+02  0.48402713203E+02  0.00000000000E+00 0.  1.
          2   -1    0    0  501    0  0.00000000000E+00 -0.00000000000E+00 -0.21083917652E+03  0.21083917652E+03  0.00000000000E+00 0. -1.
         24    1    1    2    0    0  0.46782993958E+02 -0.39085372199E+02 -0.87189516456E+02  0.13336244816E+03  0.80419002446E+02 0.  0.
        -24    1    1    2    0    0 -0.46782993958E+02  0.39085372199E+02 -0.75246946865E+02  0.12587944157E+03  0.80419002446E+02 0. -1.
<mgrwt>
<rscale>  0 0.10091348E+03</rscale>
<asrwt>0</asrwt>
<pdfrwt beam="1">  1        2 0.32436797E-01 0.10091348E+03</pdfrwt>
<pdfrwt beam="2">  1       -2 0.74465712E-02 0.10091348E+03</pdfrwt>
<totfact> 0.15481592E+04</totfact>
</mgrwt>
</event>
<event>
 4    1  0.6602701E-002  0.9096298E+02  0.7546771E-02  0.1300536E+00
          2   -1    0    0  501    0  0.00000000000E+00  0.00000000000E+00  0.14551073019E+04  0.14551073019E+04  0.00000000000E+00 0. -1.
         -2   -1    0    0    0  501 -0.00000000000E+00 -0.00000000000E+00 -0.65309533096E+01  0.65309533096E+01  0.00000000000E+00 0.  1.
         24    1    1    2    0    0 -0.58938136399E+01 -0.42098810293E+02  0.98710044298E+03  0.99128277870E+03  0.80419002446E+02 0. -1.
        -24    1    1    2    0    0  0.58938136399E+01  0.42098810293E+02  0.46147590565E+03  0.47035547655E+03  0.80419002446E+02 0.  1.
<mgrwt>
<rscale>  0 0.90962975E+02</rscale>
<asrwt>0</asrwt>
<pdfrwt beam="1">  1        2 0.22386240E+00 0.90962975E+02</pdfrwt>
<pdfrwt beam="2">  1       -2 0.10047632E-02 0.90962975E+02</pdfrwt>
<totfact> 0.28365963E+04</totfact>
</mgrwt>
</event>
<event>
 4    1  0.6602701E-002  0.1146314E+03  0.7546771E-02  0.1252226E+00
         -2   -1    0    0    0  501 -0.00000000000E+00  0.00000000000E+00  0.10127035990E+02  0.10127035990E+02  0.00000000000E+00 0.  1.
          2   -1    0    0  501    0  0.00000000000E+00 -0.00000000000E+00 -0.13235098210E+04  0.13235098210E+04  0.00000000000E+00 0. -1.
         24    1    1    2    0    0  0.80966602404E+02  0.10841758624E+02 -0.75007756979E+03  0.75878634087E+03  0.80419002446E+02 0. -1.
        -24    1    1    2    0    0 -0.80966602404E+02 -0.10841758624E+02 -0.56330521524E+03  0.57485051614E+03  0.80419002446E+02 0.  1.
<mgrwt>
<rscale>  0 0.11463137E+03</rscale>
<asrwt>0</asrwt>
<pdfrwt beam="1">  1        2 0.20361679E+00 0.11463137E+03</pdfrwt>
<pdfrwt beam="2">  1       -2 0.15580064E-02 0.11463137E+03</pdfrwt>
<totfact> 0.18088439E+04</totfact>
</mgrwt>
</event>
<event>
 4    1  0.6602701E-002  0.8402290E+02  0.7546771E-02  0.1318008E+00
          2   -1    0    0  501    0  0.00000000000E+00  0.00000000000E+00  0.49976416953E+02  0.49976416953E+02  0.00000000000E+00 0. -1.
         -2   -1    0    0    0  501 -0.00000000000E+00 -0.00000000000E+00 -0.28243195955E+03  0.28243195955E+03  0.00000000000E+00 0.  1.
         24    1    1    2    0    0 -0.24118559710E+02 -0.33055051449E+01  0.12765312251E+01  0.84032593516E+02  0.80419002446E+02 0. -1.
        -24    1    1    2    0    0  0.24118559710E+02  0.33055051449E+01 -0.23373207382E+03  0.24837578298E+03  0.80419002446E+02 0.  1.
<mgrwt>
<rscale>  0 0.84022897E+02</rscale>
<asrwt>0</asrwt>
<pdfrwt beam="1">  1        2 0.76886795E-02 0.84022897E+02</pdfrwt>
<pdfrwt beam="2">  1       -2 0.43451071E-01 0.84022897E+02</pdfrwt>
<totfact> 0.41678844E+03</totfact>
</mgrwt>
</event>
<event>
 4    1  0.6602701E-002  0.9107472E+02  0.7546771E-02  0.1300270E+00
         -2   -1    0    0    0  501 -0.00000000000E+00  0.00000000000E+00  0.74767012960E+03  0.74767012960E+03  0.00000000000E+00 0.  1.
          2   -1    0    0  501    0  0.00000000000E+00 -0.00000000000E+00 -0.11465326889E+02  0.11465326889E+02  0.00000000000E+00 0. -1.
         24    1    1    2    0    0  0.34275672240E+02  0.25545302324E+02  0.43641725619E+03  0.44581904584E+03  0.80419002446E+02 0.  1.
        -24    1    1    2    0    0 -0.34275672240E+02 -0.25545302324E+02  0.29978754652E+03  0.31331641064E+03  0.80419002446E+02 0. -1.
<mgrwt>
<rscale>  0 0.91074707E+02</rscale>
<asrwt>0</asrwt>
<pdfrwt beam="1">  1        2 0.17638970E-02 0.91074718E+02</pdfrwt>
<pdfrwt beam="2">  1       -2 0.11502614E+00 0.91074718E+02</pdfrwt>
<totfact> 0.36632610E+03</totfact>
</mgrwt>
</event>
<event>
 4    1  0.6602701E-002  0.1159060E+03  0.7546771E-02  0.1250008E+00
          2   -1    0    0  501    0  0.00000000000E+00  0.00000000000E+00  0.41744418869E+03  0.41744418869E+03  0.00000000000E+00 0. -1.
         -2   -1    0    0    0  501 -0.00000000000E+00 -0.00000000000E+00 -0.34110073850E+02  0.34110073850E+02  0.00000000000E+00 0.  1.
         24    1    1    2    0    0 -0.52508040548E+02 -0.64883551688E+02  0.13798843649E+03  0.18020819671E+03  0.80419002446E+02 0.  1.
        -24    1    1    2    0    0  0.52508040548E+02  0.64883551688E+02  0.24534567835E+03  0.27134606583E+03  0.80419002446E+02 0. -1.
<mgrwt>
<rscale>  0 0.11590595E+03</rscale>
<asrwt>0</asrwt>
<pdfrwt beam="1">  1        2 0.64222179E-01 0.11590596E+03</pdfrwt>
<pdfrwt beam="2">  1       -2 0.52477040E-02 0.11590596E+03</pdfrwt>
<totfact> 0.12927549E+04</totfact>
</mgrwt>
</event>
<event>
 4    1  0.6602701E-002  0.9076282E+02  0.7546771E-02  0.1301015E+00
         -2   -1    0    0    0  501 -0.00000000000E+00  0.00000000000E+00  0.10065429656E+04  0.10065429656E+04  0.00000000000E+00 0.  1.
          2   -1    0    0  501    0  0.00000000000E+00 -0.00000000000E+00 -0.95111281296E+01  0.95111281296E+01  0.00000000000E+00 0. -1.
         24    1    1    2    0    0 -0.31593582522E+02  0.27794219291E+02  0.30877030738E+03  0.32183379524E+03  0.80419002446E+02 0.  0.
        -24    1    1    2    0    0  0.31593582522E+02 -0.27794219291E+02  0.68826153007E+03  0.69422029847E+03  0.80419002446E+02 0. -1.
<mgrwt>
<rscale>  0 0.90762817E+02</rscale>
<asrwt>0</asrwt>
<pdfrwt beam="1">  1        2 0.14632513E-02 0.90762817E+02</pdfrwt>
<pdfrwt beam="2">  1       -2 0.15485268E+00 0.90762817E+02</pdfrwt>
<totfact> 0.22766741E+03</totfact>
</mgrwt>
</event>
<event>
 4    1  0.6602701E-002  0.8138578E+02  0.7546771E-02  0.1325164E+00
         -2   -1    0    0    0  501 -0.00000000000E+00  0.00000000000E+00  0.25167297364E+02  0.25167297364E+02  0.00000000000E+00 0.  1.
          2   -1    0    0  501    0  0.00000000000E+00 -0.00000000000E+00 -0.37475038713E+03  0.37475038713E+03  0.00000000000E+00 0. -1.
         24    1    1    2    0    0 -0.11723921076E+02  0.43564206384E+01 -0.28389414909E+03  0.29532953216E+03  0.80419002446E+02 0.  0.
        -24    1    1    2    0    0  0.11723921076E+02 -0.43564206384E+01 -0.65688940671E+02  0.10458815233E+03  0.80419002446E+02 0.  1.
<mgrwt>
<rscale>  0 0.81385777E+02</rscale>
<asrwt>0</asrwt>
<pdfrwt beam="1">  1        2 0.57653899E-01 0.81385777E+02</pdfrwt>
<pdfrwt beam="2">  1       -2 0.38718924E-02 0.81385777E+02</pdfrwt>
<totfact> 0.21970138E+04</totfact>
</mgrwt>
</event>
<event>
 4    1  0.6602701E-002  0.1004165E+03  0.7546771E-02  0.1279423E+00
          2   -1    0    0  501    0  0.00000000000E+00  0.00000000000E+00  0.58459189740E+03  0.58459189740E+03  0.00000000000E+00 0. -1.
         -2   -1    0    0    0  501 -0.00000000000E+00 -0.00000000000E+00 -0.31007909086E+02  0.31007909086E+02  0.00000000000E+00 0.  1.
         24    1    1    2    0    0  0.56941336563E+02  0.19337448530E+02  0.48182721760E+03  0.49217978047E+03  0.80419002446E+02 0. -1.
        -24    1    1    2    0    0 -0.56941336563E+02 -0.19337448530E+02  0.71756770717E+02  0.12342002602E+03  0.80419002446E+02 0.  1.
<mgrwt>
<rscale>  0 0.10041648E+03</rscale>
<asrwt>0</asrwt>
<pdfrwt beam="1">  1        2 0.89937207E-01 0.10041648E+03</pdfrwt>
<pdfrwt beam="2">  1       -2 0.47704480E-02 0.10041648E+03</pdfrwt>
<totfact> 0.10216140E+04</totfact>
</mgrwt>
</event>
<event>
 4    1  0.6602701E-002  0.8624209E+02  0.7546771E-02  0.1312216E+00
         -2   -1    0    0    0  501 -0.00000000000E+00  0.00000000000E+00  0.28849863176E+02  0.28849863176E+02  0.00000000000E+00 0.  1.
          2   -1    0    0  501    0  0.00000000000E+00 -0.00000000000E+00 -0.28303568384E+03  0.28303568384E+03  0.00000000000E+00 0. -1.
         24    1    1    2    0    0 -0.18637697559E+02  0.24962345964E+02 -0.17365060076E+03  0.19388715684E+03  0.80419002446E+02 0. -1.
        -24    1    1    2    0    0  0.18637697559E+02 -0.24962345964E+02 -0.80535219901E+02  0.11799839018E+03  0.80419002446E+02 0.  1.
<mgrwt>
<rscale>  0 0.86242092E+02</rscale>
<asrwt>0</asrwt>
<pdfrwt beam="1">  1        2 0.43543952E-01 0.86242092E+02</pdfrwt>
<pdfrwt beam="2">  1       -2 0.44384404E-02 0.86242092E+02</pdfrwt>
<totfact> 0.24245669E+04</totfact>
</mgrwt>
</event>
<event>
 4    1  0.6602701E-002  0.8805069E+02  0.7546771E-02  0.1307642E+00
          2   -1    0    0  501    0  0.00000000000E+00  0.00000000000E+00  0.35309720231E+03  0.35309720231E+03  0.00000000000E+00 0. -1.
         -2   -1    0    0    0  501 -0.00000000000E+00 -0.00000000000E+00 -0.53464882077E+02  0.53464882077E+02  0.00000000000E+00 0.  1.
         24    1    1    2    0    0  0.34409541735E+02 -0.10084236042E+02  0.30586939708E+03  0.31829076707E+03  0.80419002446E+02 0. -1.
        -24    1    1    2    0    0 -0.34409541735E+02  0.10084236042E+02 -0.62370768445E+01  0.88271317317E+02  0.80419002446E+02 0.  1.
<mgrwt>
<rscale>  0 0.88050692E+02</rscale>
<asrwt>0</asrwt>
<pdfrwt beam="1">  1        2 0.54322645E-01 0.88050692E+02</pdfrwt>
<pdfrwt beam="2">  1       -2 0.82253667E-02 0.88050692E+02</pdfrwt>
<totfact> 0.76433515E+03</totfact>
</mgrwt>
</event>
<event>
 4    1  0.6602701E-002  0.9035218E+02  0.7546771E-02  0.1302001E+00
         -2   -1    0    0    0  501 -0.00000000000E+00  0.00000000000E+00  0.47961725256E+02  0.47961725256E+02  0.00000000000E+00 0.  1.
          2   -1    0    0  501    0  0.00000000000E+00 -0.00000000000E+00 -0.17499451711E+03  0.17499451711E+03  0.00000000000E+00 0. -1.
         24    1    1    2    0    0 -0.35910615717E+02 -0.20167510365E+02 -0.81951363227E+02  0.12198173095E+03  0.80419002446E+02 0. -1.
        -24    1    1    2    0    0  0.35910615717E+02  0.20167510365E+02 -0.45081428631E+02  0.10097451142E+03  0.80419002446E+02 0.  1.
<mgrwt>
<rscale>  0 0.90352182E+02</rscale>
<asrwt>0</asrwt>
<pdfrwt beam="1">  1        2 0.26922233E-01 0.90352182E+02</pdfrwt>
<pdfrwt beam="2">  1       -2 0.73787270E-02 0.90352182E+02</pdfrwt>
<totfact> 0.18957763E+04</totfact>
</mgrwt>
</event>
<event>
 4    1  0.6602701E-002  0.1169654E+03  0.7546771E-02  0.1248189E+00
         -2   -1    0    0    0  501 -0.00000000000E+00  0.00000000000E+00  0.55536925676E+03  0.55536925676E+03  0.00000000000E+00 0.  1.
          2   -1    0    0  501    0  0.00000000000E+00 -0.00000000000E+00 -0.31214025109E+02  0.31214025109E+02  0.00000000000E+00 0. -1.
         24    1    1    2    0    0  0.22988981812E+02  0.81763080639E+02  0.12741660148E+03  0.17296213727E+03  0.80419002446E+02 0. -1.
        -24    1    1    2    0    0 -0.22988981812E+02 -0.81763080639E+02  0.39673863017E+03  0.41362114460E+03  0.80419002446E+02 0.  0.
<mgrwt>
<rscale>  0 0.11696542E+03</rscale>
<asrwt>0</asrwt>
<pdfrwt beam="1">  1        2 0.48021581E-02 0.11696542E+03</pdfrwt>
<pdfrwt beam="2">  1       -2 0.85441417E-01 0.11696542E+03</pdfrwt>
<totfact> 0.19423022E+03</totfact>
</mgrwt>
</event>
<event>
 4    1  0.6602701E-002  0.9528032E+02  0.7546771E-02  0.1290546E+00
          2   -1    0    0  501    0  0.00000000000E+00  0.00000000000E+00  0.83143930062E+03  0.83143930062E+03  0.00000000000E+00 0. -1.
         -2   -1    0    0    0  501 -0.00000000000E+00 -0.00000000000E+00 -0.18381480296E+02  0.18381480296E+02  0.00000000000E+00 0.  1.
         24    1    1    2    0    0 -0.15029089651E+02  0.48839013842E+02  0.67726979976E+03  0.68393912041E+03  0.80419002446E+02 0. -1.
        -24    1    1    2    0    0  0.15029089651E+02 -0.48839013842E+02  0.13578802057E+03  0.16588166051E+03  0.80419002446E+02 0.  1.
<mgrwt>
<rscale>  0 0.95280317E+02</rscale>
<asrwt>0</asrwt>
<pdfrwt beam="1">  1        2 0.12791371E+00 0.95280317E+02</pdfrwt>
<pdfrwt beam="2">  1       -2 0.28279207E-02 0.95280317E+02</pdfrwt>
<totfact> 0.14508996E+04</totfact>
</mgrwt>
</event>
<event>
 4    1  0.6602701E-002  0.8222856E+02  0.7546771E-02  0.1322843E+00
         -1   -1    0    0    0  501 -0.00000000000E+00  0.00000000000E+00  0.22938237254E+02  0.22938237254E+02  0.00000000000E+00 0.  1.
          1   -1    0    0  501    0  0.00000000000E+00 -0.00000000000E+00 -0.39155383759E+03  0.39155383759E+03  0.00000000000E+00 0. -1.
         24    1    1    2    0    0 -0.16514831859E+02  0.46454431560E+01 -0.81271839626E+02  0.11561421921E+03  0.80419002446E+02 0.  1.
        -24    1    1    2    0    0  0.16514831859E+02 -0.46454431560E+01 -0.28734376071E+03  0.29887785563E+03  0.80419002446E+02 0. -1.
<mgrwt>
<rscale>  0 0.82228558E+02</rscale>
<asrwt>0</asrwt>
<pdfrwt beam="1">  1        1 0.60239045E-01 0.82228558E+02</pdfrwt>
<pdfrwt beam="2">  1       -1 0.35289600E-02 0.82228558E+02</pdfrwt>
<totfact> 0.16549352E+04</totfact>
</mgrwt>
</event>
<event>
 4    1  0.6602701E-002  0.1487378E+03  0.7546771E-02  0.1202033E+00
         -1   -1    0    0    0  501 -0.00000000000E+00  0.00000000000E+00  0.31750221770E+03  0.31750221770E+03  0.00000000000E+00 0.  1.
          1   -1    0    0  501    0  0.00000000000E+00 -0.00000000000E+00 -0.29079851320E+03  0.29079851320E+03  0.00000000000E+00 0. -1.
         24    1    1    2    0    0 -0.11238874199E+03 -0.54995474928E+02  0.27857210337E+03  0.31579323033E+03  0.80419002446E+02 0.  1.
        -24    1    1    2    0    0  0.11238874199E+03  0.54995474928E+02 -0.25186839887E+03  0.29250750058E+03  0.80419002446E+02 0. -1.
<mgrwt>
<rscale>  0 0.14873785E+03</rscale>
<asrwt>0</asrwt>
<pdfrwt beam="1">  1        1 0.44738233E-01 0.14873785E+03</pdfrwt>
<pdfrwt beam="2">  1       -1 0.48846495E-01 0.14873785E+03</pdfrwt>
<totfact> 0.39587974E+02</totfact>
</mgrwt>
</event>
<event>
 4    1  0.6602701E-002  0.9014830E+02  0.7546771E-02  0.1302493E+00
         -3   -1    0    0    0  501 -0.00000000000E+00  0.00000000000E+00  0.39696464004E+03  0.39696464004E+03  0.00000000000E+00 0.  1.
          3   -1    0    0  501    0  0.00000000000E+00 -0.00000000000E+00 -0.51836063573E+02  0.51836063573E+02  0.00000000000E+00 0. -1.
         24    1    1    2    0    0  0.39157656166E+02  0.11232877201E+02  0.34711544163E+03  0.35863051367E+03  0.80419002446E+02 0.  1.
        -24    1    1    2    0    0 -0.39157656166E+02 -0.11232877201E+02 -0.19868651590E+01  0.90170189942E+02  0.80419002446E+02 0. -1.
<mgrwt>
<rscale>  0 0.90148297E+02</rscale>
<asrwt>0</asrwt>
<pdfrwt beam="1">  1        3 0.79747793E-02 0.90148297E+02</pdfrwt>
<pdfrwt beam="2">  1       -3 0.61071481E-01 0.90148297E+02</pdfrwt>
<totfact> 0.61628785E+02</totfact>
</mgrwt>
</event>
<event>
 4    1  0.6602701E-002  0.8121011E+02  0.7546771E-02  0.1325652E+00
          1   -1    0    0  501    0  0.00000000000E+00  0.00000000000E+00  0.25155155688E+03  0.25155155688E+03  0.00000000000E+00 0. -1.
         -1   -1    0    0    0  501 -0.00000000000E+00 -0.00000000000E+00 -0.45203990747E+02  0.45203990747E+02  0.00000000000E+00 0.  1.
         24    1    1    2    0    0 -0.55936314827E+01  0.98273829061E+01  0.70122260915E+01  0.81512290098E+02  0.80419002446E+02 0.  0.
        -24    1    1    2    0    0  0.55936314827E+01 -0.98273829061E+01  0.19933534005E+03  0.21524325753E+03  0.80419002446E+02 0. -1.
<mgrwt>
<rscale>  0 0.81210111E+02</rscale>
<asrwt>0</asrwt>
<pdfrwt beam="1">  1        1 0.38700239E-01 0.81210111E+02</pdfrwt>
<pdfrwt beam="2">  1       -1 0.69544602E-02 0.81210111E+02</pdfrwt>
<totfact> 0.10542991E+04</totfact>
</mgrwt>
</event>
<event>
 4    1  0.6602701E-002  0.1183751E+03  0.7546771E-02  0.1245802E+00
         -2   -1    0    0    0  501 -0.00000000000E+00  0.00000000000E+00  0.36314212762E+02  0.36314212762E+02  0.00000000000E+00 0.  1.
          2   -1    0    0  501    0  0.00000000000E+00 -0.00000000000E+00 -0.53564088706E+03  0.53564088706E+03  0.00000000000E+00 0. -1.
         24    1    1    2    0    0  0.82409307093E+02 -0.27461916022E+02 -0.40088177008E+03  0.41799385194E+03  0.80419002446E+02 0. -1.
        -24    1    1    2    0    0 -0.82409307093E+02  0.27461916022E+02 -0.98444904219E+02  0.15396124788E+03  0.80419002446E+02 0.  1.
<mgrwt>
<rscale>  0 0.11837511E+03</rscale>
<asrwt>0</asrwt>
<pdfrwt beam="1">  1        2 0.82406295E-01 0.11837511E+03</pdfrwt>
<pdfrwt beam="2">  1       -2 0.55868016E-02 0.11837511E+03</pdfrwt>
<totfact> 0.89951190E+03</totfact>
</mgrwt>
</event>
<event>
 4    1  0.6602701E-002  0.1116638E+03  0.7546771E-02  0.1257519E+00
          2   -1    0    0  501    0  0.00000000000E+00  0.00000000000E+00  0.87741263976E+03  0.87741263976E+03  0.00000000000E+00 0. -1.
         -2   -1    0    0    0  501 -0.00000000000E+00 -0.00000000000E+00 -0.20812096578E+02  0.20812096578E+02  0.00000000000E+00 0.  1.
         24    1    1    2    0    0  0.45099054950E+02 -0.62989370884E+02  0.68123545639E+03  0.69032640729E+03  0.80419002446E+02 0. -1.
        -24    1    1    2    0    0 -0.45099054950E+02  0.62989370884E+02  0.17536508679E+03  0.20789832905E+03  0.80419002446E+02 0.  1.
<mgrwt>
<rscale>  0 0.11166379E+03</rscale>
<asrwt>0</asrwt>
<pdfrwt beam="1">  1        2 0.13498653E+00 0.11166379E+03</pdfrwt>
<pdfrwt beam="2">  1       -2 0.32018617E-02 0.11166379E+03</pdfrwt>
<totfact> 0.11441478E+04</totfact>
</mgrwt>
</event>
<event>
 4    1  0.6602701E-002  0.9403112E+02  0.7546771E-02  0.1293373E+00
         -3   -1    0    0    0  501 -0.00000000000E+00  0.00000000000E+00  0.83105841564E+03  0.83105841564E+03  0.00000000000E+00 0.  1.
          3   -1    0    0  501    0  0.00000000000E+00 -0.00000000000E+00 -0.12344061750E+02  0.12344061750E+02  0.00000000000E+00 0. -1.
         24    1    1    2    0    0  0.18406232343E+02 -0.45120350219E+02  0.56607270893E+03  0.57382938505E+03  0.80419002446E+02 0.  0.
        -24    1    1    2    0    0 -0.18406232343E+02  0.45120350219E+02  0.25264164496E+03  0.26957309234E+03  0.80419002446E+02 0.  1.
<mgrwt>
<rscale>  0 0.94031119E+02</rscale>
<asrwt>0</asrwt>
<pdfrwt beam="1">  1        3 0.18990871E-02 0.94031119E+02</pdfrwt>
<pdfrwt beam="2">  1       -3 0.12785510E+00 0.94031119E+02</pdfrwt>
<totfact> 0.11353328E+03</totfact>
</mgrwt>
</event>
<event>
 4    1  0.6602701E-002  0.1148196E+03  0.7546771E-02  0.1251896E+00
         -1   -1    0    0    0  501 -0.00000000000E+00  0.00000000000E+00  0.13580552882E+03  0.13580552882E+03  0.00000000000E+00 0.  1.
          1   -1    0    0  501    0  0.00000000000E+00 -0.00000000000E+00 -0.20341807021E+03  0.20341807021E+03  0.00000000000E+00 0. -1.
         24    1    1    2    0    0  0.22783546151E+01 -0.81921473576E+02  0.88828236974E+02  0.14516883402E+03  0.80419002446E+02 0.  1.
        -24    1    1    2    0    0 -0.22783546151E+01  0.81921473576E+02 -0.15644077836E+03  0.19405476501E+03  0.80419002446E+02 0. -1.
<mgrwt>
<rscale>  0 0.11481957E+03</rscale>
<asrwt>0</asrwt>
<pdfrwt beam="1">  1        1 0.31295087E-01 0.11481957E+03</pdfrwt>
<pdfrwt beam="2">  1       -1 0.20893158E-01 0.11481957E+03</pdfrwt>
<totfact> 0.25938688E+03</totfact>
</mgrwt>
</event>
<event>
 4    1  0.6602701E-002  0.8982904E+02  0.7546771E-02  0.1303266E+00
         -1   -1    0    0    0  501 -0.00000000000E+00  0.00000000000E+00  0.36079198533E+01  0.36079198533E+01  0.00000000000E+00 0.  1.
          1   -1    0    0  501    0  0.00000000000E+00 -0.00000000000E+00 -0.22484225699E+04  0.22484225699E+04  0.00000000000E+00 0. -1.
         24    1    1    2    0    0  0.34469115866E+02  0.20345055421E+02 -0.10405495547E+04  0.10444197590E+04  0.80419002446E+02 0.  0.
        -24    1    1    2    0    0 -0.34469115866E+02 -0.20345055421E+02 -0.12042650953E+04  0.12076107307E+04  0.80419002446E+02 0. -1.
<mgrwt>
<rscale>  0 0.89829044E+02</rscale>
<asrwt>0</asrwt>
<pdfrwt beam="1">  1        1 0.34591130E+00 0.89829044E+02</pdfrwt>
<pdfrwt beam="2">  1       -1 0.55506437E-03 0.89829044E+02</pdfrwt>
<totfact> 0.98403650E+03</totfact>
</mgrwt>
</event>
<event>
 4    1  0.6602701E-002  0.9289128E+02  0.7546771E-02  0.1295997E+00
          1   -1    0    0  501    0  0.00000000000E+00  0.00000000000E+00  0.90736750564E+03  0.90736750564E+03  0.00000000000E+00 0. -1.
         -1   -1    0    0    0  501 -0.00000000000E+00 -0.00000000000E+00 -0.97503347575E+01  0.97503347575E+01  0.00000000000E+00 0.  1.
         24    1    1    2    0    0  0.13598770146E+02  0.44459504194E+02  0.37676964813E+03  0.38805174625E+03  0.80419002446E+02 0.  1.
        -24    1    1    2    0    0 -0.13598770146E+02 -0.44459504194E+02  0.52084752275E+03  0.52906609414E+03  0.80419002446E+02 0. -1.
<mgrwt>
<rscale>  0 0.92891281E+02</rscale>
<asrwt>0</asrwt>
<pdfrwt beam="1">  1        1 0.13959493E+00 0.92891281E+02</pdfrwt>
<pdfrwt beam="2">  1       -1 0.15000522E-02 0.92891281E+02</pdfrwt>
<totfact> 0.18175428E+04</totfact>
</mgrwt>
</event>
<event>
 4    1  0.6602701E-002  0.1036844E+03  0.7546771E-02  0.1272733E+00
          2   -1    0    0  501    0  0.00000000000E+00  0.00000000000E+00  0.56043644974E+03  0.56043644974E+03  0.00000000000E+00 0. -1.
         -2   -1    0    0    0  501 -0.00000000000E+00 -0.00000000000E+00 -0.19613704715E+02  0.19613704715E+02  0.00000000000E+00 0.  1.
         24    1    1    2    0    0 -0.54170391030E+02  0.36726250921E+02  0.31342380786E+03  0.33012868409E+03  0.80419002446E+02 0. -1.
        -24    1    1    2    0    0  0.54170391030E+02 -0.36726250921E+02  0.22739893716E+03  0.24992147036E+03  0.80419002446E+02 0.  1.
<mgrwt>
<rscale>  0 0.10368445E+03</rscale>
<asrwt>0</asrwt>
<pdfrwt beam="1">  1        2 0.86220980E-01 0.10368445E+03</pdfrwt>
<pdfrwt beam="2">  1       -2 0.30174935E-02 0.10368445E+03</pdfrwt>
<totfact> 0.21070825E+04</totfact>
</mgrwt>
</event>
<event>
 4    1  0.6602701E-002  0.1140521E+03  0.7546771E-02  0.1253245E+00
         -2   -1    0    0    0  501 -0.00000000000E+00  0.00000000000E+00  0.24569739587E+02  0.24569739587E+02  0.00000000000E+00 0.  1.
          2   -1    0    0  501    0  0.00000000000E+00 -0.00000000000E+00 -0.66550505632E+03  0.66550505632E+03  0.00000000000E+00 0. -1.
         24    1    1    2    0    0 -0.36886408413E+02 -0.71972579280E+02 -0.47648938371E+03  0.48994898514E+03  0.80419002446E+02 0. -1.
        -24    1    1    2    0    0  0.36886408413E+02  0.71972579280E+02 -0.16444593302E+03  0.20012581077E+03  0.80419002446E+02 0.  1.
<mgrwt>
<rscale>  0 0.11405207E+03</rscale>
<asrwt>0</asrwt>
<pdfrwt beam="1">  1        2 0.10238539E+00 0.11405207E+03</pdfrwt>
<pdfrwt beam="2">  1       -2 0.37799599E-02 0.11405207E+03</pdfrwt>
<totfact> 0.12561455E+04</totfact>
</mgrwt>
</event>
<event>
 4    1  0.6602701E-002  0.8478606E+02  0.7546771E-02  0.1315993E+00
          1   -1    0    0  501    0  0.00000000000E+00  0.00000000000E+00  0.12670476469E+03  0.12670476469E+03  0.00000000000E+00 0. -1.
         -1   -1    0    0    0  501 -0.00000000000E+00 -0.00000000000E+00 -0.62779582665E+02  0.62779582665E+02  0.00000000000E+00 0.  1.
         24    1    1    2    0    0  0.25187386307E+02 -0.93304003324E+01  0.25661968065E+01  0.84824890921E+02  0.80419002446E+02 0. -1.
        -24    1    1    2    0    0 -0.25187386307E+02  0.93304003324E+01  0.61358985216E+02  0.10465945643E+03  0.80419002446E+02 0.  0.
<mgrwt>
<rscale>  0 0.84786065E+02</rscale>
<asrwt>0</asrwt>
<pdfrwt beam="1">  1        1 0.19493041E-01 0.84786065E+02</pdfrwt>
<pdfrwt beam="2">  1       -1 0.96583973E-02 0.84786065E+02</pdfrwt>
<totfact> 0.15100345E+04</totfact>
</mgrwt>
</event>
<event>
 4    1  0.6602701E-002  0.9238194E+02  0.7546771E-02  0.1297184E+00
         -2   -1    0    0    0  501 -0.00000000000E+00  0.00000000000E+00  0.60254079571E+03  0.60254079571E+03  0.00000000000E+00 0.  1.
          2   -1    0    0  501    0  0.00000000000E+00 -0.00000000000E+00 -0.14888680929E+02  0.14888680929E+02  0.00000000000E+00 0. -1.
         24    1    1    2    0    0 -0.45454385067E+02  0.10518988323E+01  0.22572013243E+03  0.24389342294E+03  0.80419002446E+02 0. -1.
        -24    1    1    2    0    0  0.45454385067E+02 -0.10518988323E+01  0.36193198235E+03  0.37353605370E+03  0.80419002446E+02 0.  1.
<mgrwt>
<rscale>  0 0.92381944E+02</rscale>
<asrwt>0</asrwt>
<pdfrwt beam="1">  1        2 0.22905668E-02 0.92381944E+02</pdfrwt>
<pdfrwt beam="2">  1       -2 0.92698565E-01 0.92381944E+02</pdfrwt>
<totfact> 0.42388664E+03</totfact>
</mgrwt>
</event>
<event>
 4    1  0.6602701E-002  0.1184280E+03  0.7546771E-02  0.1245713E+00
          2   -1    0    0  501    0  0.00000000000E+00  0.00000000000E+00  0.60961339431E+03  0.60961339431E+03  0.00000000000E+00 0. -1.
         -2   -1    0    0    0  501 -0.00000000000E+00 -0.00000000000E+00 -0.93487911552E+02  0.93487911552E+02  0.00000000000E+00 0.  1.
         24    1    1    2    0    0  0.61005694807E+02 -0.61937657841E+02  0.56330657693E+03  0.57562095499E+03  0.80419002446E+02 0. -1.
        -24    1    1    2    0    0 -0.61005694807E+02  0.61937657841E+02 -0.47181094169E+02  0.12748035087E+03  0.80419002446E+02 0.  1.
<mgrwt>
<rscale>  0 0.11842797E+03</rscale>
<asrwt>0</asrwt>
<pdfrwt beam="1">  1        2 0.93786674E-01 0.11842797E+03</pdfrwt>
<pdfrwt beam="2">  1       -2 0.14382756E-01 0.11842797E+03</pdfrwt>
<totfact> 0.17874471E+03</totfact>
</mgrwt>
</event>
<event>
 4    1  0.6602701E-002  0.9479002E+02  0.7546771E-02  0.1291650E+00
          4   -1    0    0  501    0  0.00000000000E+00  0.00000000000E+00  0.49814981697E+02  0.49814981697E+02  0.00000000000E+00 0. -1.
         -4   -1    0    0    0  501 -0.00000000000E+00 -0.00000000000E+00 -0.21546048996E+03  0.21546048996E+03  0.00000000000E+00 0.  1.
         24    1    1    2    0    0  0.17998255974E+02  0.46840093943E+02 -0.29295422548E+02  0.99213755878E+02  0.80419002446E+02 0. -1.
        -24    1    1    2    0    0 -0.17998255974E+02 -0.46840093943E+02 -0.13635008571E+03  0.16606171577E+03  0.80419002446E+02 0.  1.
<mgrwt>
<rscale>  0 0.94790018E+02</rscale>
<asrwt>0</asrwt>
<pdfrwt beam="1">  1        4 0.76638435E-02 0.94790018E+02</pdfrwt>
<pdfrwt beam="2">  1       -4 0.33147767E-01 0.94790018E+02</pdfrwt>
<totfact> 0.15744130E+03</totfact>
</mgrwt>
</event>
<event>
 4    1  0.6602701E-002  0.1526846E+03  0.7546771E-02  0.1197212E+00
          4   -1    0    0  501    0  0.00000000000E+00  0.00000000000E+00  0.36462518859E+03  0.36462518859E+03  0.00000000000E+00 0. -1.
         -4   -1    0    0    0  501 -0.00000000000E+00 -0.00000000000E+00 -0.14312905680E+03  0.14312905680E+03  0.00000000000E+00 0.  1.
         24    1    1    2    0    0  0.73815413764E+02 -0.10675507894E+03  0.29959239714E+03  0.33625612644E+03  0.80419002446E+02 0. -1.
        -24    1    1    2    0    0 -0.73815413764E+02  0.10675507894E+03 -0.78096265352E+02  0.17149811896E+03  0.80419002446E+02 0.  1.
<mgrwt>
<rscale>  0 0.15268457E+03</rscale>
<asrwt>0</asrwt>
<pdfrwt beam="1">  1        4 0.56096183E-01 0.15268457E+03</pdfrwt>
<pdfrwt beam="2">  1       -4 0.22019855E-01 0.15268457E+03</pdfrwt>
<totfact> 0.98921950E+01</totfact>
</mgrwt>
</event>
<event>
 4    1  0.6602701E-002  0.1003387E+03  0.7546771E-02  0.1279585E+00
          1   -1    0    0  501    0  0.00000000000E+00  0.00000000000E+00  0.11608372902E+02  0.11608372902E+02  0.00000000000E+00 0. -1.
         -1   -1    0    0    0  501 -0.00000000000E+00 -0.00000000000E+00 -0.10535069485E+04  0.10535069485E+04  0.00000000000E+00 0.  1.
         24    1    1    2    0    0 -0.45944045314E+02 -0.38597746146E+02 -0.74484943022E+03  0.75157736193E+03  0.80419002446E+02 0. -1.
        -24    1    1    2    0    0  0.45944045314E+02  0.38597746146E+02 -0.29704914536E+03  0.31353795946E+03  0.80419002446E+02 0.  0.
<mgrwt>
<rscale>  0 0.10033871E+03</rscale>
<asrwt>0</asrwt>
<pdfrwt beam="1">  1        1 0.17859029E-02 0.10033871E+03</pdfrwt>
<pdfrwt beam="2">  1       -1 0.16207805E+00 0.10033871E+03</pdfrwt>
<totfact> 0.20770396E+03</totfact>
</mgrwt>
</event>
<event>
 4    1  0.6602701E-002  0.8333302E+02  0.7546771E-02  0.1319850E+00
         -2   -1    0    0    0  501 -0.00000000000E+00  0.00000000000E+00  0.11081409031E+02  0.11081409031E+02  0.00000000000E+00 0.  1.
          2   -1    0    0  501    0  0.00000000000E+00 -0.00000000000E+00 -0.13944614009E+04  0.13944614009E+04  0.00000000000E+00 0. -1.
         24    1    1    2    0    0 -0.60455913435E+01  0.20991120096E+02 -0.12131635770E+04  0.12160223094E+04  0.80419002446E+02 0.  0.
        -24    1    1    2    0    0  0.60455913435E+01 -0.20991120096E+02 -0.17021641483E+03  0.18952050055E+03  0.80419002446E+02 0.  1.
<mgrwt>
<rscale>  0 0.83333020E+02</rscale>
<asrwt>0</asrwt>
<pdfrwt beam="1">  1        2 0.21453257E+00 0.83333020E+02</pdfrwt>
<pdfrwt beam="2">  1       -2 0.17048318E-02 0.83333020E+02</pdfrwt>
<totfact> 0.14286034E+04</totfact>
</mgrwt>
</event>
<event>
 4    1  0.6602701E-002  0.1007358E+03  0.7546771E-02  0.1278756E+00
         -1   -1    0    0    0  501 -0.00000000000E+00  0.00000000000E+00  0.12568928267E+03  0.12568928267E+03  0.00000000000E+00 0.  1.
          1   -1    0    0  501    0  0.00000000000E+00 -0.00000000000E+00 -0.15791568167E+03  0.15791568167E+03  0.00000000000E+00 0. -1.
         24    1    1    2    0    0  0.23566423815E+01 -0.60621175493E+02  0.83020576602E+02  0.13053778294E+03  0.80419002446E+02 0.  1.
        -24    1    1    2    0    0 -0.23566423815E+01  0.60621175493E+02 -0.11524697560E+03  0.15306718140E+03  0.80419002446E+02 0. -1.
<mgrwt>
<rscale>  0 0.10073578E+03</rscale>
<asrwt>0</asrwt>
<pdfrwt beam="1">  1        1 0.24294720E-01 0.10073578E+03</pdfrwt>
<pdfrwt beam="2">  1       -1 0.19336813E-01 0.10073578E+03</pdfrwt>
<totfact> 0.39887895E+03</totfact>
</mgrwt>
</event>
<event>
 4    1  0.6602701E-002  0.8451682E+02  0.7546771E-02  0.1316701E+00
          1   -1    0    0  501    0  0.00000000000E+00  0.00000000000E+00  0.45053575883E+03  0.45053575883E+03  0.00000000000E+00 0. -1.
         -1   -1    0    0    0  501 -0.00000000000E+00 -0.00000000000E+00 -0.19828648885E+02  0.19828648885E+02  0.00000000000E+00 0.  1.
         24    1    1    2    0    0 -0.16793749770E+02 -0.19845580775E+02  0.11006746400E+03  0.13877297897E+03  0.80419002446E+02 0. -1.
        -24    1    1    2    0    0  0.16793749770E+02  0.19845580775E+02  0.32063964594E+03  0.33159142874E+03  0.80419002446E+02 0. -1.
<mgrwt>
<rscale>  0 0.84516821E+02</rscale>
<asrwt>0</asrwt>
<pdfrwt beam="1">  1        1 0.69313186E-01 0.84516821E+02</pdfrwt>
<pdfrwt beam="2">  1       -1 0.30505617E-02 0.84516821E+02</pdfrwt>
<totfact> 0.17186703E+04</totfact>
</mgrwt>
</event>
<event>
 4    1  0.6611456E-002  0.8991793E+02  0.7546771E-02  0.1303051E+00
          1   -1    0    0  501    0  0.00000000000E+00  0.00000000000E+00  0.56854510909E+03  0.56854510909E+03  0.00000000000E+00 0. -1.
         -1   -1    0    0    0  501 -0.00000000000E+00 -0.00000000000E+00 -0.50859980287E+02  0.50859980287E+02  0.00000000000E+00 0.  1.
         24    1    1    2    0    0 -0.21198479375E+01  0.40168702773E+02 -0.40200629903E+01  0.90007751325E+02  0.80419002446E+02 0.  1.
        -24    1    1    2    0    0  0.21198479375E+01 -0.40168702773E+02  0.52170519180E+03  0.52939733805E+03  0.80419002446E+02 0. -1.
<mgrwt>
<rscale>  0 0.89917931E+02</rscale>
<asrwt>0</asrwt>
<pdfrwt beam="1">  1        1 0.87468474E-01 0.89917931E+02</pdfrwt>
<pdfrwt beam="2">  1       -1 0.78246128E-02 0.89917931E+02</pdfrwt>
<totfact> 0.32306151E+03</totfact>
</mgrwt>
</event>
<event>
 4    1  0.6602701E-002  0.1585514E+03  0.7546771E-02  0.1190342E+00
         -1   -1    0    0    0  501 -0.00000000000E+00  0.00000000000E+00  0.93644730147E+03  0.93644730147E+03  0.00000000000E+00 0.  1.
          1   -1    0    0  501    0  0.00000000000E+00 -0.00000000000E+00 -0.29934335359E+02  0.29934335359E+02  0.00000000000E+00 0. -1.
         24    1    1    2    0    0 -0.22935190091E+02 -0.13470454768E+03  0.60849319742E+03  0.62881040494E+03  0.80419002446E+02 0.  1.
        -24    1    1    2    0    0  0.22935190091E+02  0.13470454768E+03  0.29801976870E+03  0.33757123189E+03  0.80419002446E+02 0. -1.
<mgrwt>
<rscale>  0 0.15855142E+03</rscale>
<asrwt>0</asrwt>
<pdfrwt beam="1">  1        1 0.46052831E-02 0.15855142E+03</pdfrwt>
<pdfrwt beam="2">  1       -1 0.14406879E+00 0.15855142E+03</pdfrwt>
<totfact> 0.77665564E+02</totfact>
</mgrwt>
</event>
<event>
 4    1  0.6602701E-002  0.1127659E+03  0.7546771E-02  0.1255532E+00
          4   -1    0    0  501    0  0.00000000000E+00  0.00000000000E+00  0.19063404192E+03  0.19063404192E+03  0.00000000000E+00 0. -1.
         -4   -1    0    0    0  501 -0.00000000000E+00 -0.00000000000E+00 -0.11650174417E+03  0.11650174417E+03  0.00000000000E+00 0.  1.
         24    1    1    2    0    0 -0.77495403083E+02  0.15600990757E+02  0.13746689958E+03  0.17780127346E+03  0.80419002446E+02 0. -1.
        -24    1    1    2    0    0  0.77495403083E+02 -0.15600990757E+02 -0.63334601834E+02  0.12933451262E+03  0.80419002446E+02 0.  1.
<mgrwt>
<rscale>  0 0.11276588E+03</rscale>
<asrwt>0</asrwt>
<pdfrwt beam="1">  1        4 0.29328314E-01 0.11276588E+03</pdfrwt>
<pdfrwt beam="2">  1       -4 0.17923345E-01 0.11276588E+03</pdfrwt>
<totfact> 0.48742620E+02</totfact>
</mgrwt>
</event>
<event>
 4    1  0.6602701E-002  0.1337329E+03  0.7546771E-02  0.1222020E+00
         -1   -1    0    0    0  501 -0.00000000000E+00  0.00000000000E+00  0.20130640572E+03  0.20130640572E+03  0.00000000000E+00 0.  1.
          1   -1    0    0  501    0  0.00000000000E+00 -0.00000000000E+00 -0.13092979065E+03  0.13092979065E+03  0.00000000000E+00 0. -1.
         24    1    1    2    0    0  0.14538284226E+02 -0.10585797514E+03  0.12937187589E+03  0.18606872611E+03  0.80419002446E+02 0.  1.
        -24    1    1    2    0    0 -0.14538284226E+02  0.10585797514E+03 -0.58995260821E+02  0.14616747026E+03  0.80419002446E+02 0. -1.
<mgrwt>
<rscale>  0 0.13373290E+03</rscale>
<asrwt>0</asrwt>
<pdfrwt beam="1">  1        1 0.20143045E-01 0.13373290E+03</pdfrwt>
<pdfrwt beam="2">  1       -1 0.30970216E-01 0.13373290E+03</pdfrwt>
<totfact> 0.23744513E+03</totfact>
</mgrwt>
</event>
<event>
 4    1  0.6602701E-002  0.1079915E+03  0.7546771E-02  0.1264335E+00
          2   -1    0    0  501    0  0.00000000000E+00  0.00000000000E+00  0.13674014115E+04  0.13674014115E+04  0.00000000000E+00 0. -1.
         -2   -1    0    0    0  501 -0.00000000000E+00 -0.00000000000E+00 -0.88082009870E+01  0.88082009870E+01  0.00000000000E+00 0.  1.
         24    1    1    2    0    0  0.14394323925E+02  0.70623996004E+02  0.80187103095E+03  0.80911019745E+03  0.80419002446E+02 0. -1.
        -24    1    1    2    0    0 -0.14394323925E+02 -0.70623996004E+02  0.55672217955E+03  0.56709941503E+03  0.80419002446E+02 0.  1.
<mgrwt>
<rscale>  0 0.10799149E+03</rscale>
<asrwt>0</asrwt>
<pdfrwt beam="1">  1        2 0.21036928E+00 0.10799149E+03</pdfrwt>
<pdfrwt beam="2">  1       -2 0.13551089E-02 0.10799149E+03</pdfrwt>
<totfact> 0.20857637E+04</totfact>
</mgrwt>
</event>
<event>
 4    1  0.6602701E-002  0.8449337E+02  0.7546771E-02  0.1316763E+00
          1   -1    0    0  501    0  0.00000000000E+00  0.00000000000E+00  0.17832845335E+04  0.17832845335E+04  0.00000000000E+00 0. -1.
         -1   -1    0    0    0  501 -0.00000000000E+00 -0.00000000000E+00 -0.41759706532E+01  0.41759706532E+01  0.00000000000E+00 0.  1.
         24    1    1    2    0    0  0.14069380667E+02  0.21770665502E+02  0.10712584246E+04  0.10745853793E+04  0.80419002446E+02 0. -1.
        -24    1    1    2    0    0 -0.14069380667E+02 -0.21770665502E+02  0.70785013830E+03  0.71287512483E+03  0.80419002446E+02 0. -1.
<mgrwt>
<rscale>  0 0.84493355E+02</rscale>
<asrwt>0</asrwt>
<pdfrwt beam="1">  1        1 0.27435086E+00 0.84493366E+02</pdfrwt>
<pdfrwt beam="2">  1       -1 0.64245845E-03 0.84493366E+02</pdfrwt>
<totfact> 0.15639173E+04</totfact>
</mgrwt>
</event>
<event>
 4    1  0.6602701E-002  0.1786125E+03  0.7546771E-02  0.1169153E+00
         -2   -1    0    0    0  501 -0.00000000000E+00  0.00000000000E+00  0.24965144124E+03  0.24965144124E+03  0.00000000000E+00 0.  1.
          2   -1    0    0  501    0  0.00000000000E+00 -0.00000000000E+00 -0.19303314828E+03  0.19303314828E+03  0.00000000000E+00 0. -1.
         24    1    1    2    0    0  0.15867933035E+03  0.16002354452E+02 -0.10037441388E+03  0.20488397728E+03  0.80419002446E+02 0. -1.
        -24    1    1    2    0    0 -0.15867933035E+03 -0.16002354452E+02  0.15699270684E+03  0.23780061224E+03  0.80419002446E+02 0.  1.
<mgrwt>
<rscale>  0 0.17861249E+03</rscale>
<asrwt>0</asrwt>
<pdfrwt beam="1">  1        2 0.29697407E-01 0.17861249E+03</pdfrwt>
<pdfrwt beam="2">  1       -2 0.38407914E-01 0.17861249E+03</pdfrwt>
<totfact> 0.11323870E+03</totfact>
</mgrwt>
</event>
<event>
 4    1  0.6602701E-002  0.1100784E+03  0.7546771E-02  0.1260425E+00
         -2   -1    0    0    0  501 -0.00000000000E+00  0.00000000000E+00  0.71624166566E+02  0.71624166566E+02  0.00000000000E+00 0.  1.
          2   -1    0    0  501    0  0.00000000000E+00 -0.00000000000E+00 -0.37624087399E+03  0.37624087399E+03  0.00000000000E+00 0. -1.
         24    1    1    2    0    0  0.67862383065E+02 -0.32322367275E+02 -0.31843335204E+03  0.33692292013E+03  0.80419002446E+02 0. -1.
        -24    1    1    2    0    0 -0.67862383065E+02  0.32322367275E+02  0.13816644619E+02  0.11094212042E+03  0.80419002446E+02 0.  1.
<mgrwt>
<rscale>  0 0.11007840E+03</rscale>
<asrwt>0</asrwt>
<pdfrwt beam="1">  1        2 0.57883212E-01 0.11007840E+03</pdfrwt>
<pdfrwt beam="2">  1       -2 0.11019102E-01 0.11007840E+03</pdfrwt>
<totfact> 0.46104063E+03</totfact>
</mgrwt>
</event>
<event>
 4    1  0.6602701E-002  0.8179826E+02  0.7546771E-02  0.1324024E+00
          1   -1    0    0  501    0  0.00000000000E+00  0.00000000000E+00  0.34216657602E+03  0.34216657602E+03  0.00000000000E+00 0. -1.
         -1   -1    0    0    0  501 -0.00000000000E+00 -0.00000000000E+00 -0.21208813308E+02  0.21208813308E+02  0.00000000000E+00 0.  1.
         24    1    1    2    0    0 -0.12827516752E+02 -0.76936080756E+01  0.21121936015E+03  0.22650512323E+03  0.80419002446E+02 0.  0.
        -24    1    1    2    0    0  0.12827516752E+02  0.76936080756E+01  0.10973840256E+03  0.13687026610E+03  0.80419002446E+02 0.  1.
<mgrwt>
<rscale>  0 0.81798254E+02</rscale>
<asrwt>0</asrwt>
<pdfrwt beam="1">  1        1 0.52641008E-01 0.81798265E+02</pdfrwt>
<pdfrwt beam="2">  1       -1 0.32628946E-02 0.81798265E+02</pdfrwt>
<totfact> 0.21855443E+04</totfact>
</mgrwt>
</event>
<event>
 4    1  0.6602701E-002  0.9740006E+02  0.7546771E-02  0.1285860E+00
         -1   -1    0    0    0  501 -0.00000000000E+00  0.00000000000E+00  0.12758473540E+02  0.12758473540E+02  0.00000000000E+00 0.  1.
          1   -1    0    0  501    0  0.00000000000E+00 -0.00000000000E+00 -0.87444568235E+03  0.87444568235E+03  0.00000000000E+00 0. -1.
         24    1    1    2    0    0 -0.40517873275E+01  0.54800902254E+02 -0.25922567429E+03  0.27692006434E+03  0.80419002446E+02 0.  0.
        -24    1    1    2    0    0  0.40517873275E+01 -0.54800902254E+02 -0.60246153452E+03  0.61028409155E+03  0.80419002446E+02 0.  0.
<mgrwt>
<rscale>  0 0.97400061E+02</rscale>
<asrwt>0</asrwt>
<pdfrwt beam="1">  1        1 0.13453014E+00 0.97400061E+02</pdfrwt>
<pdfrwt beam="2">  1       -1 0.19628415E-02 0.97400061E+02</pdfrwt>
<totfact> 0.13178860E+04</totfact>
</mgrwt>
</event>
<event>
 4    1  0.6602701E-002  0.1190466E+03  0.7546771E-02  0.1244678E+00
         -1   -1    0    0    0  501 -0.00000000000E+00  0.00000000000E+00  0.14429488054E+02  0.14429488054E+02  0.00000000000E+00 0.  1.
          1   -1    0    0  501    0  0.00000000000E+00 -0.00000000000E+00 -0.10796117743E+04  0.10796117743E+04  0.00000000000E+00 0. -1.
         24    1    1    2    0    0 -0.26245690023E+02 -0.83761874823E+02 -0.36824522390E+03  0.38700988204E+03  0.80419002446E+02 0.  1.
        -24    1    1    2    0    0  0.26245690023E+02  0.83761874823E+02 -0.69693706233E+03  0.70703138029E+03  0.80419002446E+02 0. -1.
<mgrwt>
<rscale>  0 0.11904665E+03</rscale>
<asrwt>0</asrwt>
<pdfrwt beam="1">  1        1 0.16609412E+00 0.11904665E+03</pdfrwt>
<pdfrwt beam="2">  1       -1 0.22199212E-02 0.11904665E+03</pdfrwt>
<totfact> 0.79104667E+03</totfact>
</mgrwt>
</event>
<event>
 4    1  0.6602701E-002  0.9193500E+02  0.7546771E-02  0.1298232E+00
          2   -1    0    0  501    0  0.00000000000E+00  0.00000000000E+00  0.16896700275E+03  0.16896700275E+03  0.00000000000E+00 0. -1.
         -2   -1    0    0    0  501 -0.00000000000E+00 -0.00000000000E+00 -0.54655553931E+02  0.54655553931E+02  0.00000000000E+00 0.  1.
         24    1    1    2    0    0 -0.46211134365E+01  0.44311110260E+02  0.89711777794E+02  0.12845329194E+03  0.80419002446E+02 0. -1.
        -24    1    1    2    0    0  0.46211134365E+01 -0.44311110260E+02  0.24599671026E+02  0.95169264738E+02  0.80419002446E+02 0.  1.
<mgrwt>
<rscale>  0 0.91935005E+02</rscale>
<asrwt>0</asrwt>
<pdfrwt beam="1">  1        2 0.25994923E-01 0.91935005E+02</pdfrwt>
<pdfrwt beam="2">  1       -2 0.84085468E-02 0.91935005E+02</pdfrwt>
<totfact> 0.16159994E+04</totfact>
</mgrwt>
</event>
<event>
 4    1  0.6602701E-002  0.1338286E+03  0.7546771E-02  0.1221883E+00
          1   -1    0    0  501    0  0.00000000000E+00  0.00000000000E+00  0.58244890568E+02  0.58244890568E+02  0.00000000000E+00 0. -1.
         -1   -1    0    0    0  501 -0.00000000000E+00 -0.00000000000E+00 -0.30981706112E+03  0.30981706112E+03  0.00000000000E+00 0.  1.
         24    1    1    2    0    0 -0.99676564204E+01  0.10650596131E+03 -0.10985846304E+03  0.17314436700E+03  0.80419002446E+02 0.  1.
        -24    1    1    2    0    0  0.99676564204E+01 -0.10650596131E+03 -0.14171370751E+03  0.19491758469E+03  0.80419002446E+02 0. -1.
<mgrwt>
<rscale>  0 0.13382860E+03</rscale>
<asrwt>0</asrwt>
<pdfrwt beam="1">  1        1 0.89607524E-02 0.13382862E+03</pdfrwt>
<pdfrwt beam="2">  1       -1 0.47664163E-01 0.13382862E+03</pdfrwt>
<totfact> 0.32164718E+03</totfact>
</mgrwt>
</event>
<event>
 4    1  0.6602701E-002  0.8203428E+02  0.7546771E-02  0.1323376E+00
          2   -1    0    0  501    0  0.00000000000E+00  0.00000000000E+00  0.10164210159E+03  0.10164210159E+03  0.00000000000E+00 0. -1.
         -2   -1    0    0    0  501 -0.00000000000E+00 -0.00000000000E+00 -0.66254765111E+02  0.66254765111E+02  0.00000000000E+00 0.  1.
         24    1    1    2    0    0  0.14054841304E+02  0.80539176153E+01  0.15486907937E+02  0.83483318243E+02  0.80419002446E+02 0. -1.
        -24    1    1    2    0    0 -0.14054841304E+02 -0.80539176153E+01  0.19900428544E+02  0.84413548460E+02  0.80419002446E+02 0.  1.
<mgrwt>
<rscale>  0 0.82034272E+02</rscale>
<asrwt>0</asrwt>
<pdfrwt beam="1">  1        2 0.15637246E-01 0.82034282E+02</pdfrwt>
<pdfrwt beam="2">  1       -2 0.10193041E-01 0.82034282E+02</pdfrwt>
<totfact> 0.20892932E+04</totfact>
</mgrwt>
</event>
<event>
 4    1  0.6602701E-002  0.1189328E+03  0.7546771E-02  0.1244868E+00
          1   -1    0    0  501    0  0.00000000000E+00  0.00000000000E+00  0.13054958751E+03  0.13054958751E+03  0.00000000000E+00 0. -1.
         -1   -1    0    0    0  501 -0.00000000000E+00 -0.00000000000E+00 -0.10921527016E+03  0.10921527016E+03  0.00000000000E+00 0.  1.
         24    1    1    2    0    0  0.78009447733E+02 -0.39903758873E+02 -0.57270723131E-02  0.11893275367E+03  0.80419002446E+02 0.  1.
        -24    1    1    2    0    0 -0.78009447733E+02  0.39903758873E+02  0.21340044424E+02  0.12083210400E+03  0.80419002446E+02 0. -1.
<mgrwt>
<rscale>  0 0.11893275E+03</rscale>
<asrwt>0</asrwt>
<pdfrwt beam="1">  1        1 0.20084552E-01 0.11893275E+03</pdfrwt>
<pdfrwt beam="2">  1       -1 0.16802349E-01 0.11893275E+03</pdfrwt>
<totfact> 0.63971588E+03</totfact>
</mgrwt>
</event>
<event>
 4    1  0.7074799E-002  0.1005916E+03  0.7546771E-02  0.1279057E+00
          1   -1    0    0  501    0  0.00000000000E+00  0.00000000000E+00  0.31024546958E+04  0.31024546958E+04  0.00000000000E+00 0. -1.
         -1   -1    0    0    0  501 -0.00000000000E+00 -0.00000000000E+00 -0.83677299256E+01  0.83677299256E+01  0.00000000000E+00 0.  1.
         24    1    1    2    0    0 -0.46272387180E+02  0.38862793498E+02  0.33200107118E+03  0.34690543056E+03  0.80419002446E+02 0.  1.
        -24    1    1    2    0    0  0.46272387180E+02 -0.38862793498E+02  0.27620858947E+04  0.27639169952E+04  0.80419002446E+02 0. -1.
<mgrwt>
<rscale>  0 0.10059158E+03</rscale>
<asrwt>0</asrwt>
<pdfrwt beam="1">  1        1 0.47729980E+00 0.10059158E+03</pdfrwt>
<pdfrwt beam="2">  1       -1 0.12873455E-02 0.10059158E+03</pdfrwt>
<totfact> 0.82635437E+02</totfact>
</mgrwt>
</event>
<event>
 4    1  0.6602701E-002  0.9200233E+02  0.7546771E-02  0.1298074E+00
         -1   -1    0    0    0  501 -0.00000000000E+00  0.00000000000E+00  0.75245062719E+03  0.75245062719E+03  0.00000000000E+00 0.  1.
          1   -1    0    0  501    0  0.00000000000E+00 -0.00000000000E+00 -0.27836452108E+02  0.27836452108E+02  0.00000000000E+00 0. -1.
         24    1    1    2    0    0  0.38090036585E+00 -0.44688567231E+02  0.66347269305E+03  0.66982120264E+03  0.80419002446E+02 0.  1.
        -24    1    1    2    0    0 -0.38090036585E+00  0.44688567231E+02  0.61141482026E+02  0.11046587665E+03  0.80419002446E+02 0. -1.
<mgrwt>
<rscale>  0 0.92002332E+02</rscale>
<asrwt>0</asrwt>
<pdfrwt beam="1">  1        1 0.42825317E-02 0.92002332E+02</pdfrwt>
<pdfrwt beam="2">  1       -1 0.11576162E+00 0.92002332E+02</pdfrwt>
<totfact> 0.14284415E+03</totfact>
</mgrwt>
</event>
<event>
 4    1  0.6602701E-002  0.9225253E+02  0.7546771E-02  0.1297487E+00
         -1   -1    0    0    0  501 -0.00000000000E+00  0.00000000000E+00  0.15571357653E+03  0.15571357653E+03  0.00000000000E+00 0.  1.
          1   -1    0    0  501    0  0.00000000000E+00 -0.00000000000E+00 -0.81633902810E+02  0.81633902810E+02  0.00000000000E+00 0. -1.
         24    1    1    2    0    0  0.85044747127E+01 -0.44395802246E+02  0.10526291255E+03  0.13996717494E+03  0.80419002446E+02 0. -1.
        -24    1    1    2    0    0 -0.85044747127E+01  0.44395802246E+02 -0.31183238830E+02  0.97380304402E+02  0.80419002446E+02 0. -1.
<mgrwt>
<rscale>  0 0.92252530E+02</rscale>
<asrwt>0</asrwt>
<pdfrwt beam="1">  1        1 0.12559062E-01 0.92252530E+02</pdfrwt>
<pdfrwt beam="2">  1       -1 0.23955935E-01 0.92252530E+02</pdfrwt>
<totfact> 0.64955208E+03</totfact>
</mgrwt>
</event>
<event>
 4    1  0.6602701E-002  0.8392284E+02  0.7546771E-02  0.1318274E+00
         -2   -1    0    0    0  501 -0.00000000000E+00  0.00000000000E+00  0.83302455323E+01  0.83302455323E+01  0.00000000000E+00 0.  1.
          2   -1    0    0  501    0  0.00000000000E+00 -0.00000000000E+00 -0.14795551720E+04  0.14795551720E+04  0.00000000000E+00 0. -1.
         24    1    1    2    0    0 -0.23727511101E+02  0.35821376664E+01 -0.12226302699E+04  0.12255071682E+04  0.80419002446E+02 0. -1.
        -24    1    1    2    0    0  0.23727511101E+02 -0.35821376664E+01 -0.24859465664E+03  0.26237824940E+03  0.80419002446E+02 0.  1.
<mgrwt>
<rscale>  0 0.83922836E+02</rscale>
<asrwt>0</asrwt>
<pdfrwt beam="1">  1        2 0.22762404E+00 0.83922836E+02</pdfrwt>
<pdfrwt beam="2">  1       -2 0.12815753E-02 0.83922836E+02</pdfrwt>
<totfact> 0.19399196E+04</totfact>
</mgrwt>
</event>
<event>
 4    1  0.6602701E-002  0.8276386E+02  0.7546771E-02  0.1321386E+00
         -2   -1    0    0    0  501 -0.00000000000E+00  0.00000000000E+00  0.10094955194E+02  0.10094955194E+02  0.00000000000E+00 0.  1.
          2   -1    0    0  501    0  0.00000000000E+00 -0.00000000000E+00 -0.94812724228E+03  0.94812724228E+03  0.00000000000E+00 0. -1.
         24    1    1    2    0    0 -0.18107985300E+02 -0.73987522069E+01 -0.72449239459E+03  0.72920442020E+03  0.80419002446E+02 0. -1.
        -24    1    1    2    0    0  0.18107985300E+02  0.73987522069E+01 -0.21353989249E+03  0.22901777727E+03  0.80419002446E+02 0.  1.
<mgrwt>
<rscale>  0 0.82763861E+02</rscale>
<asrwt>0</asrwt>
<pdfrwt beam="1">  1        2 0.14586580E+00 0.82763861E+02</pdfrwt>
<pdfrwt beam="2">  1       -2 0.15530693E-02 0.82763861E+02</pdfrwt>
<totfact> 0.28684422E+04</totfact>
</mgrwt>
</event>
<event>
 4    1  0.6602701E-002  0.1145609E+03  0.7546771E-02  0.1252350E+00
         -1   -1    0    0    0  501 -0.00000000000E+00  0.00000000000E+00  0.30682250645E+02  0.30682250645E+02  0.00000000000E+00 0.  1.
          1   -1    0    0  501    0  0.00000000000E+00 -0.00000000000E+00 -0.42781587517E+03  0.42781587517E+03  0.00000000000E+00 0. -1.
         24    1    1    2    0    0  0.10747258159E+02  0.80879337305E+02 -0.20151248613E+03  0.23180049348E+03  0.80419002446E+02 0.  0.
        -24    1    1    2    0    0 -0.10747258159E+02 -0.80879337305E+02 -0.19562113839E+03  0.22669763233E+03  0.80419002446E+02 0. -1.
<mgrwt>
<rscale>  0 0.11456086E+03</rscale>
<asrwt>0</asrwt>
<pdfrwt beam="1">  1        1 0.65817823E-01 0.11456087E+03</pdfrwt>
<pdfrwt beam="2">  1       -1 0.47203465E-02 0.11456087E+03</pdfrwt>
<totfact> 0.99920648E+03</totfact>
</mgrwt>
</event>
<event>
 4    1  0.6602701E-002  0.1022712E+03  0.7546771E-02  0.1275591E+00
         -3   -1    0    0    0  501 -0.00000000000E+00  0.00000000000E+00  0.36927197908E+02  0.36927197908E+02  0.00000000000E+00 0.  1.
          3   -1    0    0  501    0  0.00000000000E+00 -0.00000000000E+00 -0.28431176740E+03  0.28431176740E+03  0.00000000000E+00 0. -1.
         24    1    1    2    0    0 -0.57407683819E+02  0.26391962525E+02 -0.11384734300E+03  0.15303794075E+03  0.80419002446E+02 0.  1.
        -24    1    1    2    0    0  0.57407683819E+02 -0.26391962525E+02 -0.13353722649E+03  0.16820102456E+03  0.80419002446E+02 0.  0.
<mgrwt>
<rscale>  0 0.10227118E+03</rscale>
<asrwt>0</asrwt>
<pdfrwt beam="1">  1        3 0.43740273E-01 0.10227118E+03</pdfrwt>
<pdfrwt beam="2">  1       -3 0.56811072E-02 0.10227118E+03</pdfrwt>
<totfact> 0.21078643E+03</totfact>
</mgrwt>
</event>
<event>
 4    1  0.6602701E-002  0.1257623E+03  0.7546771E-02  0.1233883E+00
          1   -1    0    0  501    0  0.00000000000E+00  0.00000000000E+00  0.16737121439E+02  0.16737121439E+02  0.00000000000E+00 0. -1.
         -1   -1    0    0    0  501 -0.00000000000E+00 -0.00000000000E+00 -0.11617746335E+04  0.11617746335E+04  0.00000000000E+00 0.  1.
         24    1    1    2    0    0  0.96011686988E+02  0.11431949067E+02 -0.82706867368E+03  0.83657560354E+03  0.80419002446E+02 0.  1.
        -24    1    1    2    0    0 -0.96011686988E+02 -0.11431949067E+02 -0.31796883834E+03  0.34193615136E+03  0.80419002446E+02 0. -1.
<mgrwt>
<rscale>  0 0.12576227E+03</rscale>
<asrwt>0</asrwt>
<pdfrwt beam="1">  1        1 0.25749425E-02 0.12576227E+03</pdfrwt>
<pdfrwt beam="2">  1       -1 0.17873451E+00 0.12576227E+03</pdfrwt>
<totfact> 0.96661735E+02</totfact>
</mgrwt>
</event>
<event>
 4    1  0.6602701E-002  0.1015180E+03  0.7546771E-02  0.1277136E+00
          1   -1    0    0  501    0  0.00000000000E+00  0.00000000000E+00  0.14280064441E+04  0.14280064441E+04  0.00000000000E+00 0. -1.
         -1   -1    0    0    0  501 -0.00000000000E+00 -0.00000000000E+00 -0.13197121243E+02  0.13197121243E+02  0.00000000000E+00 0.  1.
         24    1    1    2    0    0  0.39521077782E+02 -0.47715565285E+02  0.22232716770E+03  0.24440801176E+03  0.80419002446E+02 0.  1.
        -24    1    1    2    0    0 -0.39521077782E+02  0.47715565285E+02  0.11924821551E+04  0.11967955536E+04  0.80419002446E+02 0. -1.
<mgrwt>
<rscale>  0 0.10151801E+03</rscale>
<asrwt>0</asrwt>
<pdfrwt beam="1">  1        1 0.21969318E+00 0.10151801E+03</pdfrwt>
<pdfrwt beam="2">  1       -1 0.20303275E-02 0.10151801E+03</pdfrwt>
<totfact> 0.52086583E+03</totfact>
</mgrwt>
</event>
<event>
 4    1  0.6602701E-002  0.8321758E+02  0.7546771E-02  0.1320161E+00
         -1   -1    0    0    0  501 -0.00000000000E+00  0.00000000000E+00  0.10148389271E+03  0.10148389271E+03  0.00000000000E+00 0.  1.
          1   -1    0    0  501    0  0.00000000000E+00 -0.00000000000E+00 -0.80087131170E+02  0.80087131170E+02  0.00000000000E+00 0. -1.
         24    1    1    2    0    0 -0.15660917603E+02  0.14583720669E+02  0.45617159734E+02  0.94900423947E+02  0.80419002446E+02 0.  1.
        -24    1    1    2    0    0  0.15660917603E+02 -0.14583720669E+02 -0.24220398198E+02  0.86670599928E+02  0.80419002446E+02 0. -1.
<mgrwt>
<rscale>  0 0.83217577E+02</rscale>
<asrwt>0</asrwt>
<pdfrwt beam="1">  1        1 0.12321097E-01 0.83217577E+02</pdfrwt>
<pdfrwt beam="2">  1       -1 0.15612907E-01 0.83217577E+02</pdfrwt>
<totfact> 0.12983469E+04</totfact>
</mgrwt>
</event>
<event>
 4    1  0.6602701E-002  0.1002004E+03  0.7546771E-02  0.1279875E+00
         -1   -1    0    0    0  501 -0.00000000000E+00  0.00000000000E+00  0.35427315176E+02  0.35427315176E+02  0.00000000000E+00 0.  1.
          1   -1    0    0  501    0  0.00000000000E+00 -0.00000000000E+00 -0.39672198946E+03  0.39672198946E+03  0.00000000000E+00 0. -1.
         24    1    1    2    0    0  0.21910385966E+02  0.55613228026E+02 -0.65164568416E+02  0.11952628613E+03  0.80419002446E+02 0.  1.
        -24    1    1    2    0    0 -0.21910385966E+02 -0.55613228026E+02 -0.29613010586E+03  0.31262301850E+03  0.80419002446E+02 0. -1.
<mgrwt>
<rscale>  0 0.10020036E+03</rscale>
<asrwt>0</asrwt>
<pdfrwt beam="1">  1        1 0.61034148E-01 0.10020036E+03</pdfrwt>
<pdfrwt beam="2">  1       -1 0.54503565E-02 0.10020036E+03</pdfrwt>
<totfact> 0.87986168E+03</totfact>
</mgrwt>
</event>
<event>
 4    1  0.6602701E-002  0.1266651E+03  0.7546771E-02  0.1232490E+00
          1   -1    0    0  501    0  0.00000000000E+00  0.00000000000E+00  0.93619482576E+03  0.93619482576E+03  0.00000000000E+00 0. -1.
         -1   -1    0    0    0  501 -0.00000000000E+00 -0.00000000000E+00 -0.17179037441E+02  0.17179037441E+02  0.00000000000E+00 0.  1.
         24    1    1    2    0    0 -0.73541675140E+02 -0.64563537322E+02  0.48294603730E+03  0.49928040141E+03  0.80419002446E+02 0.  0.
        -24    1    1    2    0    0  0.73541675140E+02  0.64563537322E+02  0.43606975102E+03  0.45409346179E+03  0.80419002446E+02 0. -1.
<mgrwt>
<rscale>  0 0.12666510E+03</rscale>
<asrwt>0</asrwt>
<pdfrwt beam="1">  1        1 0.14402993E+00 0.12666512E+03</pdfrwt>
<pdfrwt beam="2">  1       -1 0.26429296E-02 0.12666512E+03</pdfrwt>
<totfact> 0.78437603E+03</totfact>
</mgrwt>
</event>
<event>
 4    1  0.6602701E-002  0.1041755E+03  0.7546771E-02  0.1271753E+00
          2   -1    0    0  501    0  0.00000000000E+00  0.00000000000E+00  0.49563919140E+02  0.49563919140E+02  0.00000000000E+00 0. -1.
         -2   -1    0    0    0  501 -0.00000000000E+00 -0.00000000000E+00 -0.26168305899E+03  0.26168305899E+03  0.00000000000E+00 0.  1.
         24    1    1    2    0    0 -0.19998814313E+02 -0.63129680702E+02 -0.43178843155E+02  0.11276940015E+03  0.80419002446E+02 0. -1.
        -24    1    1    2    0    0  0.19998814313E+02  0.63129680702E+02 -0.16894029670E+03  0.19847757798E+03  0.80419002446E+02 0.  1.
<mgrwt>
<rscale>  0 0.10417545E+03</rscale>
<asrwt>0</asrwt>
<pdfrwt beam="1">  1        2 0.76252184E-02 0.10417545E+03</pdfrwt>
<pdfrwt beam="2">  1       -2 0.40258932E-01 0.10417545E+03</pdfrwt>
<totfact> 0.49524600E+03</totfact>
</mgrwt>
</event>
<event>
 4    1  0.6602701E-002  0.9302845E+02  0.7546771E-02  0.1295679E+00
          3   -1    0    0  501    0  0.00000000000E+00  0.00000000000E+00  0.33454247586E+02  0.33454247586E+02  0.00000000000E+00 0. -1.
         -3   -1    0    0    0  501 -0.00000000000E+00 -0.00000000000E+00 -0.26462770495E+03  0.26462770495E+03  0.00000000000E+00 0.  1.
         24    1    1    2    0    0 -0.36745682550E+02 -0.28927960922E+02 -0.93261918923E+02  0.13172726971E+03  0.80419002446E+02 0. -1.
        -24    1    1    2    0    0  0.36745682550E+02  0.28927960922E+02 -0.13791153844E+03  0.16635468283E+03  0.80419002446E+02 0.  1.
<mgrwt>
<rscale>  0 0.93028438E+02</rscale>
<asrwt>0</asrwt>
<pdfrwt beam="1">  1        3 0.51468074E-02 0.93028449E+02</pdfrwt>
<pdfrwt beam="2">  1       -3 0.40711954E-01 0.93028449E+02</pdfrwt>
<totfact> 0.27741681E+03</totfact>
</mgrwt>
</event>
<event>
 4    1  0.6602701E-002  0.9774352E+02  0.7546771E-02  0.1285114E+00
          1   -1    0    0  501    0  0.00000000000E+00  0.00000000000E+00  0.44598849384E+02  0.44598849384E+02  0.00000000000E+00 0. -1.
         -1   -1    0    0    0  501 -0.00000000000E+00 -0.00000000000E+00 -0.54561394065E+03  0.54561394065E+03  0.00000000000E+00 0.  1.
         24    1    1    2    0    0  0.55444683058E+02  0.35307779349E+01 -0.48049845760E+03  0.49033923256E+03  0.80419002446E+02 0.  1.
        -24    1    1    2    0    0 -0.55444683058E+02 -0.35307779349E+01 -0.20516633666E+02  0.99873557479E+02  0.80419002446E+02 0. -1.
<mgrwt>
<rscale>  0 0.97743518E+02</rscale>
<asrwt>0</asrwt>
<pdfrwt beam="1">  1        1 0.68613617E-02 0.97743518E+02</pdfrwt>
<pdfrwt beam="2">  1       -1 0.83940603E-01 0.97743518E+02</pdfrwt>
<totfact> 0.15245486E+03</totfact>
</mgrwt>
</event>
<event>
 4    1  0.6602701E-002  0.1216452E+03  0.7546771E-02  0.1240407E+00
         -2   -1    0    0    0  501 -0.00000000000E+00  0.00000000000E+00  0.13096756441E+02  0.13096756441E+02  0.00000000000E+00 0.  1.
          2   -1    0    0  501    0  0.00000000000E+00 -0.00000000000E+00 -0.11302664211E+04  0.11302664211E+04  0.00000000000E+00 0. -1.
         24    1    1    2    0    0  0.64154431954E+02 -0.64919539789E+02 -0.54779786872E+03  0.56114174565E+03  0.80419002446E+02 0. -1.
        -24    1    1    2    0    0 -0.64154431954E+02  0.64919539789E+02 -0.56937179599E+03  0.58222143194E+03  0.80419002446E+02 0.  0.
<mgrwt>
<rscale>  0 0.12164521E+03</rscale>
<asrwt>0</asrwt>
<pdfrwt beam="1">  1        2 0.17388715E+00 0.12164523E+03</pdfrwt>
<pdfrwt beam="2">  1       -2 0.20148855E-02 0.12164523E+03</pdfrwt>
<totfact> 0.15981459E+04</totfact>
</mgrwt>
</event>
<event>
 4    1  0.6602701E-002  0.8208962E+02  0.7546771E-02  0.1323224E+00
          2   -1    0    0  501    0  0.00000000000E+00  0.00000000000E+00  0.55457334913E+03  0.55457334913E+03  0.00000000000E+00 0. -1.
         -2   -1    0    0    0  501 -0.00000000000E+00 -0.00000000000E+00 -0.17424466594E+02  0.17424466594E+02  0.00000000000E+00 0.  1.
         24    1    1    2    0    0 -0.16471011577E+02  0.44175371098E+00  0.42590984166E+03  0.43374865826E+03  0.80419002446E+02 0.  0.
        -24    1    1    2    0    0  0.16471011577E+02 -0.44175371098E+00  0.11123904087E+03  0.13824915746E+03  0.80419002446E+02 0.  1.
<mgrwt>
<rscale>  0 0.82089618E+02</rscale>
<asrwt>0</asrwt>
<pdfrwt beam="1">  1        2 0.85318963E-01 0.82089618E+02</pdfrwt>
<pdfrwt beam="2">  1       -2 0.26806876E-02 0.82089618E+02</pdfrwt>
<totfact> 0.24723979E+04</totfact>
</mgrwt>
</event>
<event>
 4    1  0.6602701E-002  0.1129996E+03  0.7546771E-02  0.1255114E+00
         -2   -1    0    0    0  501 -0.00000000000E+00  0.00000000000E+00  0.57159073826E+01  0.57159073826E+01  0.00000000000E+00 0.  1.
          2   -1    0    0  501    0  0.00000000000E+00 -0.00000000000E+00 -0.22442003330E+04  0.22442003330E+04  0.00000000000E+00 0. -1.
         24    1    1    2    0    0  0.65330388241E+01  0.79113818217E+02 -0.10431112673E+04  0.10492139957E+04  0.80419002446E+02 0.  0.
        -24    1    1    2    0    0 -0.65330388241E+01 -0.79113818217E+02 -0.11953731583E+04  0.12007022447E+04  0.80419002446E+02 0. -1.
<mgrwt>
<rscale>  0 0.11299954E+03</rscale>
<asrwt>0</asrwt>
<pdfrwt beam="1">  1        2 0.34526180E+00 0.11299955E+03</pdfrwt>
<pdfrwt beam="2">  1       -2 0.87936984E-03 0.11299955E+03</pdfrwt>
<totfact> 0.13809018E+04</totfact>
</mgrwt>
</event>
<event>
 4    1  0.6602701E-002  0.1139109E+03  0.7546771E-02  0.1253494E+00
         -2   -1    0    0    0  501 -0.00000000000E+00  0.00000000000E+00  0.17874706005E+03  0.17874706005E+03  0.00000000000E+00 0.  1.
          2   -1    0    0  501    0  0.00000000000E+00 -0.00000000000E+00 -0.24831048666E+03  0.24831048666E+03  0.00000000000E+00 0. -1.
         24    1    1    2    0    0  0.14018847276E+02  0.79447717384E+02 -0.21440683185E+03  0.24278791851E+03  0.80419002446E+02 0. -1.
        -24    1    1    2    0    0 -0.14018847276E+02 -0.79447717384E+02  0.14484340524E+03  0.18426962819E+03  0.80419002446E+02 0.  1.
<mgrwt>
<rscale>  0 0.11391086E+03</rscale>
<asrwt>0</asrwt>
<pdfrwt beam="1">  1        2 0.38201613E-01 0.11391086E+03</pdfrwt>
<pdfrwt beam="2">  1       -2 0.27499548E-01 0.11391086E+03</pdfrwt>
<totfact> 0.15681002E+03</totfact>
</mgrwt>
</event>
<event>
 4    1  0.6602701E-002  0.8221200E+02  0.7546771E-02  0.1322889E+00
         -1   -1    0    0    0  501 -0.00000000000E+00  0.00000000000E+00  0.10301590111E+03  0.10301590111E+03  0.00000000000E+00 0.  1.
          1   -1    0    0  501    0  0.00000000000E+00 -0.00000000000E+00 -0.79189251126E+02  0.79189251126E+02  0.00000000000E+00 0. -1.
         24    1    1    2    0    0 -0.85477167852E+01 -0.14782880945E+02  0.49639676567E+02  0.96035985315E+02  0.80419002446E+02 0.  1.
        -24    1    1    2    0    0  0.85477167852E+01  0.14782880945E+02 -0.25813026587E+02  0.86169166917E+02  0.80419002446E+02 0. -1.
<mgrwt>
<rscale>  0 0.82212000E+02</rscale>
<asrwt>0</asrwt>
<pdfrwt beam="1">  1        1 0.12182962E-01 0.82212000E+02</pdfrwt>
<pdfrwt beam="2">  1       -1 0.15848600E-01 0.82212000E+02</pdfrwt>
<totfact> 0.12854520E+04</totfact>
</mgrwt>
</event>
<event>
 4    1  0.6602701E-002  0.9547639E+02  0.7546771E-02  0.1290107E+00
          2   -1    0    0  501    0  0.00000000000E+00  0.00000000000E+00  0.17609983409E+03  0.17609983409E+03  0.00000000000E+00 0. -1.
         -2   -1    0    0    0  501 -0.00000000000E+00 -0.00000000000E+00 -0.51844640617E+02  0.51844640617E+02  0.00000000000E+00 0.  1.
         24    1    1    2    0    0 -0.51451176697E+02 -0.11387537190E+01  0.57649221937E+02  0.11153102298E+03  0.80419002446E+02 0. -1.
        -24    1    1    2    0    0  0.51451176697E+02  0.11387537190E+01  0.66605971537E+02  0.11641345172E+03  0.80419002446E+02 0.  1.
<mgrwt>
<rscale>  0 0.95476377E+02</rscale>
<asrwt>0</asrwt>
<pdfrwt beam="1">  1        2 0.27092282E-01 0.95476389E+02</pdfrwt>
<pdfrwt beam="2">  1       -2 0.79760986E-02 0.95476389E+02</pdfrwt>
<totfact> 0.16817862E+04</totfact>
</mgrwt>
</event>
<event>
 4    1  0.6602701E-002  0.8095060E+02  0.7546771E-02  0.1326375E+00
          1   -1    0    0  501    0  0.00000000000E+00  0.00000000000E+00  0.57270116859E+02  0.57270116859E+02  0.00000000000E+00 0. -1.
         -1   -1    0    0    0  501 -0.00000000000E+00 -0.00000000000E+00 -0.19241154460E+03  0.19241154460E+03  0.00000000000E+00 0.  1.
         24    1    1    2    0    0  0.66453410477E+01  0.64515506632E+01 -0.14705063839E+03  0.16785973093E+03  0.80419002446E+02 0.  0.
        -24    1    1    2    0    0 -0.66453410477E+01 -0.64515506632E+01  0.11909210642E+02  0.81821930533E+02  0.80419002446E+02 0. -1.
<mgrwt>
<rscale>  0 0.80950596E+02</rscale>
<asrwt>0</asrwt>
<pdfrwt beam="1">  1        1 0.88107870E-02 0.80950596E+02</pdfrwt>
<pdfrwt beam="2">  1       -1 0.29601777E-01 0.80950596E+02</pdfrwt>
<totfact> 0.72121784E+03</totfact>
</mgrwt>
</event>
<event>
 4    1  0.6602701E-002  0.8779279E+02  0.7546771E-02  0.1308287E+00
         -1   -1    0    0    0  501 -0.00000000000E+00  0.00000000000E+00  0.67920205208E+01  0.67920205208E+01  0.00000000000E+00 0.  1.
          1   -1    0    0  501    0  0.00000000000E+00 -0.00000000000E+00 -0.18003245396E+04  0.18003245396E+04  0.00000000000E+00 0. -1.
         24    1    1    2    0    0  0.29711201798E+02  0.18910375502E+02 -0.34739828271E+03  0.35831988585E+03  0.80419002446E+02 0.  1.
        -24    1    1    2    0    0 -0.29711201798E+02 -0.18910375502E+02 -0.14461342363E+04  0.14487966742E+04  0.80419002446E+02 0. -1.
<mgrwt>
<rscale>  0 0.87792789E+02</rscale>
<asrwt>0</asrwt>
<pdfrwt beam="1">  1        1 0.27697335E+00 0.87792789E+02</pdfrwt>
<pdfrwt beam="2">  1       -1 0.10449250E-02 0.87792789E+02</pdfrwt>
<totfact> 0.77222468E+03</totfact>
</mgrwt>
</event>
<event>
 4    1  0.6602701E-002  0.9668114E+02  0.7546771E-02  0.1287434E+00
          2   -1    0    0  501    0  0.00000000000E+00  0.00000000000E+00  0.16600291460E+03  0.16600291460E+03  0.00000000000E+00 0. -1.
         -2   -1    0    0    0  501 -0.00000000000E+00 -0.00000000000E+00 -0.57724707091E+02  0.57724707091E+02  0.00000000000E+00 0.  1.
         24    1    1    2    0    0  0.25801784214E+02  0.47056244610E+02  0.36612467642E+02  0.10338138598E+03  0.80419002446E+02 0.  1.
        -24    1    1    2    0    0 -0.25801784214E+02 -0.47056244610E+02  0.71665739867E+02  0.12034623571E+03  0.80419002446E+02 0. -1.
<mgrwt>
<rscale>  0 0.96681128E+02</rscale>
<asrwt>0</asrwt>
<pdfrwt beam="1">  1        2 0.25538910E-01 0.96681140E+02</pdfrwt>
<pdfrwt beam="2">  1       -2 0.88807243E-02 0.96681140E+02</pdfrwt>
<totfact> 0.15222375E+04</totfact>
</mgrwt>
</event>
<event>
 4    1  0.6602701E-002  0.9250276E+02  0.7546771E-02  0.1296902E+00
          1   -1    0    0  501    0  0.00000000000E+00  0.00000000000E+00  0.24868076975E+03  0.24868076975E+03  0.00000000000E+00 0. -1.
         -1   -1    0    0    0  501 -0.00000000000E+00 -0.00000000000E+00 -0.39870092681E+02  0.39870092681E+02  0.00000000000E+00 0.  1.
         24    1    1    2    0    0 -0.21347443151E+02  0.40420685118E+02  0.51007484075E+02  0.10563391738E+03  0.80419002446E+02 0.  1.
        -24    1    1    2    0    0  0.21347443151E+02 -0.40420685118E+02  0.15780319300E+03  0.18291694506E+03  0.80419002446E+02 0. -1.
<mgrwt>
<rscale>  0 0.92502762E+02</rscale>
<asrwt>0</asrwt>
<pdfrwt beam="1">  1        1 0.38258579E-01 0.92502762E+02</pdfrwt>
<pdfrwt beam="2">  1       -1 0.61338606E-02 0.92502762E+02</pdfrwt>
<totfact> 0.13030046E+04</totfact>
</mgrwt>
</event>
<event>
 4    1  0.6602701E-002  0.1197674E+03  0.7546771E-02  0.1243481E+00
          1   -1    0    0  501    0  0.00000000000E+00  0.00000000000E+00  0.12462471729E+03  0.12462471729E+03  0.00000000000E+00 0. -1.
         -1   -1    0    0    0  501 -0.00000000000E+00 -0.00000000000E+00 -0.53832847033E+03  0.53832847033E+03  0.00000000000E+00 0.  1.
         24    1    1    2    0    0  0.88022360786E+02 -0.11360772644E+02 -0.50076365039E+03  0.51488683481E+03  0.80419002446E+02 0.  1.
        -24    1    1    2    0    0 -0.88022360786E+02  0.11360772644E+02  0.87059897345E+02  0.14806635281E+03  0.80419002446E+02 0. -1.
<mgrwt>
<rscale>  0 0.11976735E+03</rscale>
<asrwt>0</asrwt>
<pdfrwt beam="1">  1        1 0.19173033E-01 0.11976735E+03</pdfrwt>
<pdfrwt beam="2">  1       -1 0.82819766E-01 0.11976735E+03</pdfrwt>
<totfact> 0.41164581E+02</totfact>
</mgrwt>
</event>
<event>
 4    1  0.6602701E-002  0.1009361E+03  0.7546771E-02  0.1278340E+00
          1   -1    0    0  501    0  0.00000000000E+00  0.00000000000E+00  0.52684092237E+03  0.52684092237E+03  0.00000000000E+00 0. -1.
         -1   -1    0    0    0  501 -0.00000000000E+00 -0.00000000000E+00 -0.25920825609E+02  0.25920825609E+02  0.00000000000E+00 0.  1.
         24    1    1    2    0    0 -0.53206892534E+02 -0.29831470316E+02  0.11118086079E+03  0.15016420944E+03  0.80419002446E+02 0. -1.
        -24    1    1    2    0    0  0.53206892534E+02  0.29831470316E+02  0.38973923597E+03  0.40259753855E+03  0.80419002446E+02 0.  0.
<mgrwt>
<rscale>  0 0.10093615E+03</rscale>
<asrwt>0</asrwt>
<pdfrwt beam="1">  1        1 0.81052441E-01 0.10093615E+03</pdfrwt>
<pdfrwt beam="2">  1       -1 0.39878197E-02 0.10093615E+03</pdfrwt>
<totfact> 0.96982060E+03</totfact>
</mgrwt>
</event>
<event>
 4    1  0.6602701E-002  0.9229225E+02  0.7546771E-02  0.1297394E+00
         -1   -1    0    0    0  501 -0.00000000000E+00  0.00000000000E+00  0.46059248667E+02  0.46059248667E+02  0.00000000000E+00 0.  1.
          1   -1    0    0  501    0  0.00000000000E+00 -0.00000000000E+00 -0.18699891006E+03  0.18699891006E+03  0.00000000000E+00 0. -1.
         24    1    1    2    0    0  0.45275206131E+02  0.89194624031E+00 -0.82719217315E+02  0.12393677713E+03  0.80419002446E+02 0. -1.
        -24    1    1    2    0    0 -0.45275206131E+02 -0.89194624031E+00 -0.58220444080E+02  0.10912138160E+03  0.80419002446E+02 0.  1.
<mgrwt>
<rscale>  0 0.92292242E+02</rscale>
<asrwt>0</asrwt>
<pdfrwt beam="1">  1        1 0.28769064E-01 0.92292254E+02</pdfrwt>
<pdfrwt beam="2">  1       -1 0.70860381E-02 0.92292254E+02</pdfrwt>
<totfact> 0.14920174E+04</totfact>
</mgrwt>
</event>
<event>
 4    1  0.6602701E-002  0.1113552E+03  0.7546771E-02  0.1258081E+00
         -4   -1    0    0    0  501 -0.00000000000E+00  0.00000000000E+00  0.22075773138E+02  0.22075773138E+02  0.00000000000E+00 0.  1.
          4   -1    0    0  501    0  0.00000000000E+00 -0.00000000000E+00 -0.77975841939E+03  0.77975841939E+03  0.00000000000E+00 0. -1.
         24    1    1    2    0    0  0.20709395470E+02  0.74188089195E+02 -0.16682919416E+03  0.20057903086E+03  0.80419002446E+02 0.  0.
        -24    1    1    2    0    0 -0.20709395470E+02 -0.74188089195E+02 -0.59085345209E+03  0.60125516167E+03  0.80419002446E+02 0. -1.
<mgrwt>
<rscale>  0 0.11135516E+03</rscale>
<asrwt>0</asrwt>
<pdfrwt beam="1">  1        4 0.11996284E+00 0.11135517E+03</pdfrwt>
<pdfrwt beam="2">  1       -4 0.33962727E-02 0.11135517E+03</pdfrwt>
<totfact> 0.39473306E+02</totfact>
</mgrwt>
</event>
<event>
 4    1  0.6602701E-002  0.8692799E+02  0.7546771E-02  0.1310466E+00
          2   -1    0    0  501    0  0.00000000000E+00  0.00000000000E+00  0.17588393040E+03  0.17588393040E+03  0.00000000000E+00 0. -1.
         -2   -1    0    0    0  501 -0.00000000000E+00 -0.00000000000E+00 -0.10429209299E+03  0.10429209299E+03  0.00000000000E+00 0.  1.
         24    1    1    2    0    0  0.25225775391E+02 -0.21281929416E+02  0.14322183224E+03  0.16753796420E+03  0.80419002446E+02 0. -1.
        -24    1    1    2    0    0 -0.25225775391E+02  0.21281929416E+02 -0.71629994835E+02  0.11263805919E+03  0.80419002446E+02 0.  1.
<mgrwt>
<rscale>  0 0.86927994E+02</rscale>
<asrwt>0</asrwt>
<pdfrwt beam="1">  1        2 0.27059066E-01 0.86927994E+02</pdfrwt>
<pdfrwt beam="2">  1       -2 0.16044937E-01 0.86927994E+02</pdfrwt>
<totfact> 0.55560032E+03</totfact>
</mgrwt>
</event>
<event>
 4    1  0.6602701E-002  0.8418313E+02  0.7546771E-02  0.1317583E+00
          2   -1    0    0  501    0  0.00000000000E+00  0.00000000000E+00  0.68528199231E+02  0.68528199231E+02  0.00000000000E+00 0. -1.
         -2   -1    0    0    0  501 -0.00000000000E+00 -0.00000000000E+00 -0.10704991487E+03  0.10704991487E+03  0.00000000000E+00 0.  1.
         24    1    1    2    0    0 -0.19793817826E+02  0.15092636962E+02 -0.30825370653E+01  0.84239544774E+02  0.80419002446E+02 0.  0.
        -24    1    1    2    0    0  0.19793817826E+02 -0.15092636962E+02 -0.35439178577E+02  0.91338569330E+02  0.80419002446E+02 0.  0.
<mgrwt>
<rscale>  0 0.84183127E+02</rscale>
<asrwt>0</asrwt>
<pdfrwt beam="1">  1        2 0.10542800E-01 0.84183127E+02</pdfrwt>
<pdfrwt beam="2">  1       -2 0.16469218E-01 0.84183127E+02</pdfrwt>
<totfact> 0.15524920E+04</totfact>
</mgrwt>
</event>
<event>
 4    1  0.6602701E-002  0.1538381E+03  0.7546771E-02  0.1195835E+00
         -2   -1    0    0    0  501 -0.00000000000E+00  0.00000000000E+00  0.21994858658E+03  0.21994858658E+03  0.00000000000E+00 0.  1.
          2   -1    0    0  501    0  0.00000000000E+00 -0.00000000000E+00 -0.23425677442E+03  0.23425677442E+03  0.00000000000E+00 0. -1.
         24    1    1    2    0    0 -0.20201751315E+02  0.12957939305E+03 -0.17414503156E+03  0.23236315936E+03  0.80419002446E+02 0. -1.
        -24    1    1    2    0    0  0.20201751315E+02 -0.12957939305E+03  0.15983684372E+03  0.22184220163E+03  0.80419002446E+02 0.  1.
<mgrwt>
<rscale>  0 0.15383805E+03</rscale>
<asrwt>0</asrwt>
<pdfrwt beam="1">  1        2 0.36039504E-01 0.15383805E+03</pdfrwt>
<pdfrwt beam="2">  1       -2 0.33838244E-01 0.15383805E+03</pdfrwt>
<totfact> 0.11586267E+03</totfact>
</mgrwt>
</event>
<event>
 4    1  0.6602701E-002  0.8209061E+02  0.7546771E-02  0.1323221E+00
          1   -1    0    0  501    0  0.00000000000E+00  0.00000000000E+00  0.50389575506E+03  0.50389575506E+03  0.00000000000E+00 0. -1.
         -1   -1    0    0    0  501 -0.00000000000E+00 -0.00000000000E+00 -0.13536596907E+02  0.13536596907E+02  0.00000000000E+00 0.  1.
         24    1    1    2    0    0  0.10251727517E+02 -0.12905617015E+02  0.21678459410E+03  0.23180687880E+03  0.80419002446E+02 0.  1.
        -24    1    1    2    0    0 -0.10251727517E+02  0.12905617015E+02  0.27357456405E+03  0.28562547316E+03  0.80419002446E+02 0. -1.
<mgrwt>
<rscale>  0 0.82090613E+02</rscale>
<asrwt>0</asrwt>
<pdfrwt beam="1">  1        1 0.77522410E-01 0.82090613E+02</pdfrwt>
<pdfrwt beam="2">  1       -1 0.20825538E-02 0.82090613E+02</pdfrwt>
<totfact> 0.25663783E+04</totfact>
</mgrwt>
</event>
<event>
 4    1  0.6602701E-002  0.9221572E+02  0.7546771E-02  0.1297573E+00
          2   -1    0    0  501    0  0.00000000000E+00  0.00000000000E+00  0.40944582964E+03  0.40944582964E+03  0.00000000000E+00 0. -1.
         -2   -1    0    0    0  501 -0.00000000000E+00 -0.00000000000E+00 -0.40536779689E+02  0.40536779689E+02  0.00000000000E+00 0.  1.
         24    1    1    2    0    0  0.29990068318E+01 -0.45028091602E+02  0.34157079805E+03  0.35379987155E+03  0.80419002446E+02 0. -1.
        -24    1    1    2    0    0 -0.29990068318E+01  0.45028091602E+02  0.27338251904E+02  0.96182737780E+02  0.80419002446E+02 0.  1.
<mgrwt>
<rscale>  0 0.92215720E+02</rscale>
<asrwt>0</asrwt>
<pdfrwt beam="1">  1        2 0.62991663E-01 0.92215720E+02</pdfrwt>
<pdfrwt beam="2">  1       -2 0.62364279E-02 0.92215720E+02</pdfrwt>
<totfact> 0.99938645E+03</totfact>
</mgrwt>
</event>
<event>
 4    1  0.6602701E-002  0.9165555E+02  0.7546771E-02  0.1298891E+00
         -2   -1    0    0    0  501 -0.00000000000E+00  0.00000000000E+00  0.45298509432E+02  0.45298509432E+02  0.00000000000E+00 0.  1.
          2   -1    0    0  501    0  0.00000000000E+00 -0.00000000000E+00 -0.37894368523E+03  0.37894368523E+03  0.00000000000E+00 0. -1.
         24    1    1    2    0    0  0.33763000592E+02 -0.28170604103E+02 -0.31839727917E+03  0.33132697820E+03  0.80419002446E+02 0. -1.
        -24    1    1    2    0    0 -0.33763000592E+02  0.28170604103E+02 -0.15247896628E+02  0.92915216463E+02  0.80419002446E+02 0.  1.
<mgrwt>
<rscale>  0 0.91655546E+02</rscale>
<asrwt>0</asrwt>
<pdfrwt beam="1">  1        2 0.58299030E-01 0.91655546E+02</pdfrwt>
<pdfrwt beam="2">  1       -2 0.69690013E-02 0.91655546E+02</pdfrwt>
<totfact> 0.91641633E+03</totfact>
</mgrwt>
</event>
<event>
 4    1  0.6602701E-002  0.8699492E+02  0.7546771E-02  0.1310297E+00
          2   -1    0    0  501    0  0.00000000000E+00  0.00000000000E+00  0.12843052674E+04  0.12843052674E+04  0.00000000000E+00 0. -1.
         -2   -1    0    0    0  501 -0.00000000000E+00 -0.00000000000E+00 -0.59409694899E+01  0.59409694899E+01  0.00000000000E+00 0.  1.
         24    1    1    2    0    0 -0.21033538367E+02  0.25661073089E+02  0.69728966570E+03  0.70269552030E+03  0.80419002446E+02 0. -1.
        -24    1    1    2    0    0  0.21033538367E+02 -0.25661073089E+02  0.58107463219E+03  0.58755071657E+03  0.80419002446E+02 0.  1.
<mgrwt>
<rscale>  0 0.86994921E+02</rscale>
<asrwt>0</asrwt>
<pdfrwt beam="1">  1        2 0.19758521E+00 0.86994921E+02</pdfrwt>
<pdfrwt beam="2">  1       -2 0.91399633E-03 0.86994921E+02</pdfrwt>
<totfact> 0.39645446E+04</totfact>
</mgrwt>
</event>
<event>
 4    1  0.6602701E-002  0.8906968E+02  0.7546771E-02  0.1305120E+00
         -1   -1    0    0    0  501 -0.00000000000E+00  0.00000000000E+00  0.13560611069E+02  0.13560611069E+02  0.00000000000E+00 0.  1.
          1   -1    0    0  501    0  0.00000000000E+00 -0.00000000000E+00 -0.59381131539E+03  0.59381131539E+03  0.00000000000E+00 0. -1.
         24    1    1    2    0    0  0.32578014948E+02 -0.20121272060E+02 -0.25320214141E+03  0.26841149941E+03  0.80419002446E+02 0.  1.
        -24    1    1    2    0    0 -0.32578014948E+02  0.20121272060E+02 -0.32704856292E+03  0.33896042705E+03  0.80419002446E+02 0. -1.
<mgrwt>
<rscale>  0 0.89069684E+02</rscale>
<asrwt>0</asrwt>
<pdfrwt beam="1">  1        1 0.91355587E-01 0.89069684E+02</pdfrwt>
<pdfrwt beam="2">  1       -1 0.20862479E-02 0.89069684E+02</pdfrwt>
<totfact> 0.20836716E+04</totfact>
</mgrwt>
</event>
<event>
 4    1  0.6602701E-002  0.1680911E+03  0.7546771E-02  0.1179853E+00
          1   -1    0    0  501    0  0.00000000000E+00  0.00000000000E+00  0.46128787139E+03  0.46128787139E+03  0.00000000000E+00 0. -1.
         -1   -1    0    0    0  501 -0.00000000000E+00 -0.00000000000E+00 -0.77810253691E+02  0.77810253691E+02  0.00000000000E+00 0.  1.
         24    1    1    2    0    0 -0.14750014366E+03  0.55786487276E+01  0.67392856622E+02  0.18109783759E+03  0.80419002446E+02 0.  0.
        -24    1    1    2    0    0  0.14750014366E+03 -0.55786487276E+01  0.31608476108E+03  0.35800028749E+03  0.80419002446E+02 0. -1.
<mgrwt>
<rscale>  0 0.16809113E+03</rscale>
<asrwt>0</asrwt>
<pdfrwt beam="1">  1        1 0.70967363E-01 0.16809113E+03</pdfrwt>
<pdfrwt beam="2">  1       -1 0.11970809E-01 0.16809113E+03</pdfrwt>
<totfact> 0.22781249E+03</totfact>
</mgrwt>
</event>
<event>
 4    1  0.6602701E-002  0.8789374E+02  0.7546771E-02  0.1308034E+00
         -1   -1    0    0    0  501 -0.00000000000E+00  0.00000000000E+00  0.46253487603E+02  0.46253487603E+02  0.00000000000E+00 0.  1.
          1   -1    0    0  501    0  0.00000000000E+00 -0.00000000000E+00 -0.44761035712E+03  0.44761035712E+03  0.00000000000E+00 0. -1.
         24    1    1    2    0    0 -0.34987865341E+02  0.58260689064E+01 -0.51712732085E+01  0.88045737097E+02  0.80419002446E+02 0.  1.
        -24    1    1    2    0    0  0.34987865341E+02 -0.58260689064E+01 -0.39618559631E+03  0.40581810763E+03  0.80419002446E+02 0. -1.
<mgrwt>
<rscale>  0 0.87893741E+02</rscale>
<asrwt>0</asrwt>
<pdfrwt beam="1">  1        1 0.68863134E-01 0.87893741E+02</pdfrwt>
<pdfrwt beam="2">  1       -1 0.71159209E-02 0.87893741E+02</pdfrwt>
<totfact> 0.50546255E+03</totfact>
</mgrwt>
</event>
<event>
 4    1  0.6602701E-002  0.8060869E+02  0.7546771E-02  0.1327333E+00
          1   -1    0    0  501    0  0.00000000000E+00  0.00000000000E+00  0.49874868535E+02  0.49874868535E+02  0.00000000000E+00 0. -1.
         -1   -1    0    0    0  501 -0.00000000000E+00 -0.00000000000E+00 -0.17163837025E+03  0.17163837025E+03  0.00000000000E+00 0.  1.
         24    1    1    2    0    0 -0.24660617850E+01  0.49460538317E+01 -0.11524902732E+03  0.14064174047E+03  0.80419002446E+02 0.  1.
        -24    1    1    2    0    0  0.24660617850E+01 -0.49460538317E+01 -0.65144743961E+01  0.80871498318E+02  0.80419002446E+02 0.  0.
<mgrwt>
<rscale>  0 0.80608690E+02</rscale>
<asrwt>0</asrwt>
<pdfrwt beam="1">  1        1 0.76730568E-02 0.80608690E+02</pdfrwt>
<pdfrwt beam="2">  1       -1 0.26405903E-01 0.80608690E+02</pdfrwt>
<totfact> 0.10435050E+04</totfact>
</mgrwt>
</event>
<event>
 4    1  0.6602701E-002  0.8583274E+02  0.7546771E-02  0.1313269E+00
         -1   -1    0    0    0  501 -0.00000000000E+00  0.00000000000E+00  0.36807702508E+02  0.36807702508E+02  0.00000000000E+00 0.  1.
          1   -1    0    0  501    0  0.00000000000E+00 -0.00000000000E+00 -0.20172271751E+03  0.20172271751E+03  0.00000000000E+00 0. -1.
         24    1    1    2    0    0  0.13669312566E+01  0.29969556091E+02 -0.71944640908E+02  0.11199683077E+03  0.80419002446E+02 0. -1.
        -24    1    1    2    0    0 -0.13669312566E+01 -0.29969556091E+02 -0.92970374091E+02  0.12653358924E+03  0.80419002446E+02 0.  0.
<mgrwt>
<rscale>  0 0.85832737E+02</rscale>
<asrwt>0</asrwt>
<pdfrwt beam="1">  1        1 0.31034265E-01 0.85832737E+02</pdfrwt>
<pdfrwt beam="2">  1       -1 0.56627234E-02 0.85832737E+02</pdfrwt>
<totfact> 0.18782261E+04</totfact>
</mgrwt>
</event>
<event>
 4    1  0.6602701E-002  0.8844963E+02  0.7546771E-02  0.1306650E+00
          1   -1    0    0  501    0  0.00000000000E+00  0.00000000000E+00  0.21464100315E+03  0.21464100315E+03  0.00000000000E+00 0. -1.
         -1   -1    0    0    0  501 -0.00000000000E+00 -0.00000000000E+00 -0.61972535190E+02  0.61972535190E+02  0.00000000000E+00 0.  1.
         24    1    1    2    0    0  0.22898842054E+02  0.28840325778E+02 -0.12426049796E+02  0.89318217774E+02  0.80419002446E+02 0.  1.
        -24    1    1    2    0    0 -0.22898842054E+02 -0.28840325778E+02  0.16509451775E+03  0.18729532056E+03  0.80419002446E+02 0. -1.
<mgrwt>
<rscale>  0 0.88449632E+02</rscale>
<asrwt>0</asrwt>
<pdfrwt beam="1">  1        1 0.33021692E-01 0.88449632E+02</pdfrwt>
<pdfrwt beam="2">  1       -1 0.95342363E-02 0.88449632E+02</pdfrwt>
<totfact> 0.80542225E+03</totfact>
</mgrwt>
</event>
<event>
 4    1  0.6602701E-002  0.9099072E+02  0.7546771E-02  0.1300470E+00
         -2   -1    0    0    0  501 -0.00000000000E+00  0.00000000000E+00  0.30252450601E+02  0.30252450601E+02  0.00000000000E+00 0.  1.
          2   -1    0    0  501    0  0.00000000000E+00 -0.00000000000E+00 -0.27677642549E+03  0.27677642549E+03  0.00000000000E+00 0. -1.
         24    1    1    2    0    0  0.16920129120E+02  0.39061536535E+02 -0.13951495227E+03  0.16656449882E+03  0.80419002446E+02 0. -1.
        -24    1    1    2    0    0 -0.16920129120E+02 -0.39061536535E+02 -0.10700902262E+03  0.14046437727E+03  0.80419002446E+02 0.  1.
<mgrwt>
<rscale>  0 0.90990716E+02</rscale>
<asrwt>0</asrwt>
<pdfrwt beam="1">  1        2 0.42580989E-01 0.90990716E+02</pdfrwt>
<pdfrwt beam="2">  1       -2 0.46542231E-02 0.90990716E+02</pdfrwt>
<totfact> 0.23277855E+04</totfact>
</mgrwt>
</event>
<event>
 4    1  0.6602701E-002  0.1970940E+03  0.7546771E-02  0.1152214E+00
         -1   -1    0    0    0  501 -0.00000000000E+00  0.00000000000E+00  0.69298530560E+02  0.69298530560E+02  0.00000000000E+00 0.  1.
          1   -1    0    0  501    0  0.00000000000E+00 -0.00000000000E+00 -0.85561702428E+03  0.85561702428E+03  0.00000000000E+00 0. -1.
         24    1    1    2    0    0  0.17965538824E+03 -0.10138162647E+02 -0.12158749876E+03  0.23158060514E+03  0.80419002446E+02 0. -1.
        -24    1    1    2    0    0 -0.17965538824E+03  0.10138162647E+02 -0.66473099495E+03  0.69333494970E+03  0.80419002446E+02 0.  1.
<mgrwt>
<rscale>  0 0.19709403E+03</rscale>
<asrwt>0</asrwt>
<pdfrwt beam="1">  1        1 0.13163339E+00 0.19709403E+03</pdfrwt>
<pdfrwt beam="2">  1       -1 0.10661313E-01 0.19709403E+03</pdfrwt>
<totfact> 0.11450469E+03</totfact>
</mgrwt>
</event>
<event>
 4    1  0.6602701E-002  0.1010241E+03  0.7546771E-02  0.1278157E+00
          1   -1    0    0  501    0  0.00000000000E+00  0.00000000000E+00  0.15450055565E+03  0.15450055565E+03  0.00000000000E+00 0. -1.
         -1   -1    0    0    0  501 -0.00000000000E+00 -0.00000000000E+00 -0.12889737995E+03  0.12889737995E+03  0.00000000000E+00 0.  1.
         24    1    1    2    0    0 -0.48654727698E+02 -0.37032059301E+02 -0.86136474608E+02  0.13276055196E+03  0.80419002446E+02 0.  1.
        -24    1    1    2    0    0  0.48654727698E+02  0.37032059301E+02  0.11173965031E+03  0.15063738364E+03  0.80419002446E+02 0. -1.
<mgrwt>
<rscale>  0 0.10102412E+03</rscale>
<asrwt>0</asrwt>
<pdfrwt beam="1">  1        1 0.23769316E-01 0.10102412E+03</pdfrwt>
<pdfrwt beam="2">  1       -1 0.19830366E-01 0.10102412E+03</pdfrwt>
<totfact> 0.39386752E+03</totfact>
</mgrwt>
</event>
<event>
 4    1  0.6602701E-002  0.1106063E+03  0.7546771E-02  0.1259451E+00
         -2   -1    0    0    0  501 -0.00000000000E+00  0.00000000000E+00  0.19657189663E+02  0.19657189663E+02  0.00000000000E+00 0.  1.
          2   -1    0    0  501    0  0.00000000000E+00 -0.00000000000E+00 -0.74198001284E+03  0.74198001284E+03  0.00000000000E+00 0. -1.
         24    1    1    2    0    0  0.72122887159E+02  0.23765960575E+02 -0.51407049591E+03  0.52583478628E+03  0.80419002446E+02 0. -1.
        -24    1    1    2    0    0 -0.72122887159E+02 -0.23765960575E+02 -0.20825232726E+03  0.23580241623E+03  0.80419002446E+02 0.  1.
<mgrwt>
<rscale>  0 0.11060627E+03</rscale>
<asrwt>0</asrwt>
<pdfrwt beam="1">  1        2 0.11415078E+00 0.11060627E+03</pdfrwt>
<pdfrwt beam="2">  1       -2 0.30241827E-02 0.11060627E+03</pdfrwt>
<totfact> 0.15297544E+04</totfact>
</mgrwt>
</event>
<event>
 4    1  0.6602701E-002  0.8256128E+02  0.7546771E-02  0.1321936E+00
          1   -1    0    0  501    0  0.00000000000E+00  0.00000000000E+00  0.11571877620E+02  0.11571877620E+02  0.00000000000E+00 0. -1.
         -1   -1    0    0    0  501 -0.00000000000E+00 -0.00000000000E+00 -0.69473816498E+03  0.69473816498E+03  0.00000000000E+00 0.  1.
         24    1    1    2    0    0  0.18426418799E+02  0.31009575044E+01 -0.47932845081E+03  0.48638680961E+03  0.80419002446E+02 0.  1.
        -24    1    1    2    0    0 -0.18426418799E+02 -0.31009575044E+01 -0.20383783655E+03  0.21992323299E+03  0.80419002446E+02 0. -1.
<mgrwt>
<rscale>  0 0.82561279E+02</rscale>
<asrwt>0</asrwt>
<pdfrwt beam="1">  1        1 0.17802891E-02 0.82561279E+02</pdfrwt>
<pdfrwt beam="2">  1       -1 0.10688278E+00 0.82561279E+02</pdfrwt>
<totfact> 0.56424755E+03</totfact>
</mgrwt>
</event>
<event>
 4    1  0.6602701E-002  0.8575694E+02  0.7546771E-02  0.1313465E+00
         -2   -1    0    0    0  501 -0.00000000000E+00  0.00000000000E+00  0.34200605510E+01  0.34200605510E+01  0.00000000000E+00 0.  1.
          2   -1    0    0  501    0  0.00000000000E+00 -0.00000000000E+00 -0.23759955755E+04  0.23759955755E+04  0.00000000000E+00 0. -1.
         24    1    1    2    0    0  0.29405397635E+02 -0.47282546148E+01 -0.81963690038E+03  0.82411097446E+03  0.80419002446E+02 0.  0.
        -24    1    1    2    0    0 -0.29405397635E+02  0.47282546148E+01 -0.15529386146E+04  0.15553046616E+04  0.80419002446E+02 0. -1.
<mgrwt>
<rscale>  0 0.85756933E+02</rscale>
<asrwt>0</asrwt>
<pdfrwt beam="1">  1        2 0.36553727E+00 0.85756944E+02</pdfrwt>
<pdfrwt beam="2">  1       -2 0.52616390E-03 0.85756944E+02</pdfrwt>
<totfact> 0.24042969E+04</totfact>
</mgrwt>
</event>
<event>
 4    1  0.6602701E-002  0.9717144E+02  0.7546771E-02  0.1286359E+00
          4   -1    0    0  501    0  0.00000000000E+00  0.00000000000E+00  0.53073953869E+03  0.53073953869E+03  0.00000000000E+00 0. -1.
         -4   -1    0    0    0  501 -0.00000000000E+00 -0.00000000000E+00 -0.31428792698E+02  0.31428792698E+02  0.00000000000E+00 0.  1.
         24    1    1    2    0    0  0.45736886308E+02  0.29718860062E+02  0.43481551591E+03  0.44554104440E+03  0.80419002446E+02 0. -1.
        -24    1    1    2    0    0 -0.45736886308E+02 -0.29718860062E+02  0.64495230079E+02  0.11662728699E+03  0.80419002446E+02 0.  1.
<mgrwt>
<rscale>  0 0.97171443E+02</rscale>
<asrwt>0</asrwt>
<pdfrwt beam="1">  1        4 0.81652230E-01 0.97171443E+02</pdfrwt>
<pdfrwt beam="2">  1       -4 0.48351993E-02 0.97171443E+02</pdfrwt>
<totfact> 0.52957630E+02</totfact>
</mgrwt>
</event>
<event>
 4    1  0.6602701E-002  0.8814204E+02  0.7546771E-02  0.1307414E+00
          1   -1    0    0  501    0  0.00000000000E+00  0.00000000000E+00  0.25816421503E+04  0.25816421503E+04  0.00000000000E+00 0. -1.
         -1   -1    0    0    0  501 -0.00000000000E+00 -0.00000000000E+00 -0.30451678537E+01  0.30451678537E+01  0.00000000000E+00 0.  1.
         24    1    1    2    0    0  0.36080442549E+02  0.42440889663E-01  0.14294947891E+04  0.14322096104E+04  0.80419002446E+02 0.  0.
        -24    1    1    2    0    0 -0.36080442549E+02 -0.42440889663E-01  0.11491021933E+04  0.11524777077E+04  0.80419002446E+02 0. -1.
<mgrwt>
<rscale>  0 0.88142033E+02</rscale>
<asrwt>0</asrwt>
<pdfrwt beam="1">  1        1 0.39717397E+00 0.88142044E+02</pdfrwt>
<pdfrwt beam="2">  1       -1 0.46848943E-03 0.88142044E+02</pdfrwt>
<totfact> 0.76311371E+03</totfact>
</mgrwt>
</event>
<event>
 4    1  0.6602701E-002  0.8838853E+02  0.7546771E-02  0.1306802E+00
         -1   -1    0    0    0  501 -0.00000000000E+00  0.00000000000E+00  0.27891193685E+02  0.27891193685E+02  0.00000000000E+00 0.  1.
          1   -1    0    0  501    0  0.00000000000E+00 -0.00000000000E+00 -0.49916197458E+03  0.49916197458E+03  0.00000000000E+00 0. -1.
         24    1    1    2    0    0 -0.68250963889E+01  0.36037957189E+02 -0.61061311214E+02  0.10742912073E+03  0.80419002446E+02 0.  0.
        -24    1    1    2    0    0  0.68250963889E+01 -0.36037957189E+02 -0.41020946968E+03  0.41962404753E+03  0.80419002446E+02 0.  0.
<mgrwt>
<rscale>  0 0.88388530E+02</rscale>
<asrwt>0</asrwt>
<pdfrwt beam="1">  1        1 0.76794149E-01 0.88388530E+02</pdfrwt>
<pdfrwt beam="2">  1       -1 0.42909529E-02 0.88388530E+02</pdfrwt>
<totfact> 0.92509346E+03</totfact>
</mgrwt>
</event>
<event>
 4    1  0.6602701E-002  0.9993175E+02  0.7546771E-02  0.1280440E+00
         -2   -1    0    0    0  501 -0.00000000000E+00  0.00000000000E+00  0.31660067581E+01  0.31660067581E+01  0.00000000000E+00 0.  1.
          2   -1    0    0  501    0  0.00000000000E+00 -0.00000000000E+00 -0.31632285363E+04  0.31632285363E+04  0.00000000000E+00 0. -1.
         24    1    1    2    0    0 -0.35895614925E+02 -0.47229681831E+02 -0.16644127113E+04  0.16674099759E+04  0.80419002446E+02 0.  1.
        -24    1    1    2    0    0  0.35895614925E+02  0.47229681831E+02 -0.14956498182E+04  0.14989845672E+04  0.80419002446E+02 0. -1.
<mgrwt>
<rscale>  0 0.99931747E+02</rscale>
<asrwt>0</asrwt>
<pdfrwt beam="1">  1        2 0.48665129E+00 0.99931747E+02</pdfrwt>
<pdfrwt beam="2">  1       -2 0.48707721E-03 0.99931747E+02</pdfrwt>
<totfact> 0.99620162E+03</totfact>
</mgrwt>
</event>
<event>
 4    1  0.6602701E-002  0.9065693E+02  0.7546771E-02  0.1301269E+00
         -1   -1    0    0    0  501 -0.00000000000E+00  0.00000000000E+00  0.12230366413E+02  0.12230366413E+02  0.00000000000E+00 0.  1.
          1   -1    0    0  501    0  0.00000000000E+00 -0.00000000000E+00 -0.82832459849E+03  0.82832459849E+03  0.00000000000E+00 0. -1.
         24    1    1    2    0    0  0.87808527162E+01  0.40918935493E+02 -0.22546257773E+03  0.24300628093E+03  0.80419002446E+02 0.  1.
        -24    1    1    2    0    0 -0.87808527162E+01 -0.40918935493E+02 -0.59063165434E+03  0.59754868398E+03  0.80419002446E+02 0. -1.
<mgrwt>
<rscale>  0 0.90656928E+02</rscale>
<asrwt>0</asrwt>
<pdfrwt beam="1">  1        1 0.12743453E+00 0.90656928E+02</pdfrwt>
<pdfrwt beam="2">  1       -1 0.18815951E-02 0.90656928E+02</pdfrwt>
<totfact> 0.15118037E+04</totfact>
</mgrwt>
</event>
<event>
 4    1  0.6602701E-002  0.1208624E+03  0.7546771E-02  0.1241681E+00
         -2   -1    0    0    0  501 -0.00000000000E+00  0.00000000000E+00  0.18331744920E+02  0.18331744920E+02  0.00000000000E+00 0.  1.
          2   -1    0    0  501    0  0.00000000000E+00 -0.00000000000E+00 -0.18159508457E+04  0.18159508457E+04  0.00000000000E+00 0. -1.
         24    1    1    2    0    0  0.30627662218E+02  0.84867309676E+02 -0.15858651242E+04  0.15904640588E+04  0.80419002446E+02 0. -1.
        -24    1    1    2    0    0 -0.30627662218E+02 -0.84867309676E+02 -0.21175397649E+03  0.24381853182E+03  0.80419002446E+02 0.  1.
<mgrwt>
<rscale>  0 0.12086244E+03</rscale>
<asrwt>0</asrwt>
<pdfrwt beam="1">  1        2 0.27937723E+00 0.12086244E+03</pdfrwt>
<pdfrwt beam="2">  1       -2 0.28202667E-02 0.12086244E+03</pdfrwt>
<totfact> 0.42761153E+03</totfact>
</mgrwt>
</event>
<event>
 4    1  0.6602701E-002  0.1423477E+03  0.7546771E-02  0.1210204E+00
          2   -1    0    0  501    0  0.00000000000E+00  0.00000000000E+00  0.22999359505E+03  0.22999359505E+03  0.00000000000E+00 0. -1.
         -2   -1    0    0    0  501 -0.00000000000E+00 -0.00000000000E+00 -0.11593269980E+03  0.11593269980E+03  0.00000000000E+00 0.  1.
         24    1    1    2    0    0 -0.79650093301E+02 -0.86322085734E+02 -0.27714540262E+02  0.14502052112E+03  0.80419002446E+02 0.  0.
        -24    1    1    2    0    0  0.79650093301E+02  0.86322085734E+02  0.14177543552E+03  0.20090577373E+03  0.80419002446E+02 0.  0.
<mgrwt>
<rscale>  0 0.14234768E+03</rscale>
<asrwt>0</asrwt>
<pdfrwt beam="1">  1        2 0.35383630E-01 0.14234769E+03</pdfrwt>
<pdfrwt beam="2">  1       -2 0.17835800E-01 0.14234769E+03</pdfrwt>
<totfact> 0.36096980E+03</totfact>
</mgrwt>
</event>
<event>
 4    1  0.6602701E-002  0.1165145E+03  0.7546771E-02  0.1248960E+00
         -2   -1    0    0    0  501 -0.00000000000E+00  0.00000000000E+00  0.17431429969E+02  0.17431429969E+02  0.00000000000E+00 0.  1.
          2   -1    0    0  501    0  0.00000000000E+00 -0.00000000000E+00 -0.17937688371E+04  0.17937688371E+04  0.00000000000E+00 0. -1.
         24    1    1    2    0    0 -0.72162016759E+02 -0.43601132224E+02 -0.15693758275E+04  0.15736950528E+04  0.80419002446E+02 0. -1.
        -24    1    1    2    0    0  0.72162016759E+02  0.43601132224E+02 -0.20696157962E+03  0.23750521424E+03  0.80419002446E+02 0.  1.
<mgrwt>
<rscale>  0 0.11651451E+03</rscale>
<asrwt>0</asrwt>
<pdfrwt beam="1">  1        2 0.27596432E+00 0.11651451E+03</pdfrwt>
<pdfrwt beam="2">  1       -2 0.26817596E-02 0.11651451E+03</pdfrwt>
<totfact> 0.47202816E+03</totfact>
</mgrwt>
</event>
<event>
 4    1  0.6602701E-002  0.8610396E+02  0.7546771E-02  0.1312571E+00
         -2   -1    0    0    0  501 -0.00000000000E+00  0.00000000000E+00  0.50293761667E+01  0.50293761667E+01  0.00000000000E+00 0.  1.
          2   -1    0    0  501    0  0.00000000000E+00 -0.00000000000E+00 -0.17010539782E+04  0.17010539782E+04  0.00000000000E+00 0. -1.
         24    1    1    2    0    0 -0.24877881854E+01 -0.30667362177E+02 -0.11595877431E+04  0.11627801281E+04  0.80419002446E+02 0. -1.
        -24    1    1    2    0    0  0.24877881854E+01  0.30667362177E+02 -0.53643685893E+03  0.54330322635E+03  0.80419002446E+02 0.  1.
<mgrwt>
<rscale>  0 0.86103961E+02</rscale>
<asrwt>0</asrwt>
<pdfrwt beam="1">  1        2 0.26170089E+00 0.86103961E+02</pdfrwt>
<pdfrwt beam="2">  1       -2 0.77374937E-03 0.86103961E+02</pdfrwt>
<totfact> 0.30647806E+04</totfact>
</mgrwt>
</event>
<event>
 4    1  0.6602701E-002  0.9834497E+02  0.7546771E-02  0.1283815E+00
         -2   -1    0    0    0  501 -0.00000000000E+00  0.00000000000E+00  0.38517212919E+03  0.38517212919E+03  0.00000000000E+00 0.  1.
          2   -1    0    0  501    0  0.00000000000E+00 -0.00000000000E+00 -0.28613986728E+02  0.28613986728E+02  0.00000000000E+00 0. -1.
         24    1    1    2    0    0  0.53953997029E+02  0.17131333645E+02  0.10588078653E+03  0.14450769287E+03  0.80419002446E+02 0. -1.
        -24    1    1    2    0    0 -0.53953997029E+02 -0.17131333645E+02  0.25067735593E+03  0.26927842305E+03  0.80419002446E+02 0.  1.
<mgrwt>
<rscale>  0 0.98344966E+02</rscale>
<asrwt>0</asrwt>
<pdfrwt beam="1">  1        2 0.44021521E-02 0.98344966E+02</pdfrwt>
<pdfrwt beam="2">  1       -2 0.59257247E-01 0.98344966E+02</pdfrwt>
<totfact> 0.46684322E+03</totfact>
</mgrwt>
</event>
<event>
 4    1  0.6602701E-002  0.1353161E+03  0.7546771E-02  0.1219774E+00
         -2   -1    0    0    0  501 -0.00000000000E+00  0.00000000000E+00  0.93329950122E+01  0.93329950122E+01  0.00000000000E+00 0.  1.
          2   -1    0    0  501    0  0.00000000000E+00 -0.00000000000E+00 -0.26949176949E+04  0.26949176949E+04  0.00000000000E+00 0. -1.
         24    1    1    2    0    0 -0.49539930228E+01  0.10871376491E+03 -0.20479727468E+04  0.20524382603E+04  0.80419002446E+02 0. -1.
        -24    1    1    2    0    0  0.49539930228E+01 -0.10871376491E+03 -0.63761195304E+03  0.65181242958E+03  0.80419002446E+02 0.  1.
<mgrwt>
<rscale>  0 0.13531608E+03</rscale>
<asrwt>0</asrwt>
<pdfrwt beam="1">  1        2 0.41460318E+00 0.13531608E+03</pdfrwt>
<pdfrwt beam="2">  1       -2 0.14358438E-02 0.13531608E+03</pdfrwt>
<totfact> 0.39601559E+03</totfact>
</mgrwt>
</event>
<event>
 4    1  0.6602701E-002  0.8139524E+02  0.7546771E-02  0.1325138E+00
          2   -1    0    0  501    0  0.00000000000E+00  0.00000000000E+00  0.72174297728E+03  0.72174297728E+03  0.00000000000E+00 0. -1.
         -2   -1    0    0    0  501 -0.00000000000E+00 -0.00000000000E+00 -0.29774580210E+02  0.29774580210E+02  0.00000000000E+00 0.  1.
         24    1    1    2    0    0  0.10242906804E+02 -0.72837227158E+01  0.65849774264E+03  0.66350920324E+03  0.80419002446E+02 0.  0.
        -24    1    1    2    0    0 -0.10242906804E+02  0.72837227158E+01  0.33470654423E+02  0.88008354253E+02  0.80419002446E+02 0.  1.
<mgrwt>
<rscale>  0 0.81395244E+02</rscale>
<asrwt>0</asrwt>
<pdfrwt beam="1">  1        2 0.11103737E+00 0.81395244E+02</pdfrwt>
<pdfrwt beam="2">  1       -2 0.45807052E-02 0.81395244E+02</pdfrwt>
<totfact> 0.83967229E+03</totfact>
</mgrwt>
</event>
<event>
 4    1  0.6602701E-002  0.8067318E+02  0.7546771E-02  0.1327152E+00
         -1   -1    0    0    0  501 -0.00000000000E+00  0.00000000000E+00  0.32512440175E+01  0.32512440175E+01  0.00000000000E+00 0.  1.
          1   -1    0    0  501    0  0.00000000000E+00 -0.00000000000E+00 -0.21479676688E+04  0.21479676688E+04  0.00000000000E+00 0. -1.
         24    1    1    2    0    0  0.29009713088E+01  0.57035738598E+01 -0.79171942882E+03  0.79581895951E+03  0.80419002446E+02 0.  1.
        -24    1    1    2    0    0 -0.29009713088E+01 -0.57035738598E+01 -0.13529969960E+04  0.13553999533E+04  0.80419002446E+02 0.  0.
<mgrwt>
<rscale>  0 0.80673182E+02</rscale>
<asrwt>0</asrwt>
<pdfrwt beam="1">  1        1 0.33045604E+00 0.80673182E+02</pdfrwt>
<pdfrwt beam="2">  1       -1 0.50019219E-03 0.80673182E+02</pdfrwt>
<totfact> 0.13090535E+04</totfact>
</mgrwt>
</event>
<event>
 4    1  0.6602701E-002  0.9059125E+02  0.7546771E-02  0.1301426E+00
          2   -1    0    0  501    0  0.00000000000E+00  0.00000000000E+00  0.20566972382E+04  0.20566972382E+04  0.00000000000E+00 0. -1.
         -2   -1    0    0    0  501 -0.00000000000E+00 -0.00000000000E+00 -0.39916039812E+01  0.39916039812E+01  0.00000000000E+00 0.  1.
         24    1    1    2    0    0  0.41699395205E+02 -0.84760739859E+00  0.10452000406E+04  0.10491186295E+04  0.80419002446E+02 0.  0.
        -24    1    1    2    0    0 -0.41699395205E+02  0.84760739859E+00  0.10075055936E+04  0.10115702126E+04  0.80419002446E+02 0.  1.
<mgrwt>
<rscale>  0 0.90591247E+02</rscale>
<asrwt>0</asrwt>
<pdfrwt beam="1">  1        2 0.31641411E+00 0.90591247E+02</pdfrwt>
<pdfrwt beam="2">  1       -2 0.61409456E-03 0.90591247E+02</pdfrwt>
<totfact> 0.28241403E+04</totfact>
</mgrwt>
</event>
<event>
 4    1  0.6602701E-002  0.8690926E+02  0.7546771E-02  0.1310514E+00
         -2   -1    0    0    0  501 -0.00000000000E+00  0.00000000000E+00  0.21639850601E+02  0.21639850601E+02  0.00000000000E+00 0.  1.
          2   -1    0    0  501    0  0.00000000000E+00 -0.00000000000E+00 -0.39878266183E+03  0.39878266183E+03  0.00000000000E+00 0. -1.
         24    1    1    2    0    0 -0.32571943476E+02  0.50068454572E+01 -0.11433041299E+03  0.14361287997E+03  0.80419002446E+02 0.  0.
        -24    1    1    2    0    0  0.32571943476E+02 -0.50068454572E+01 -0.26281239824E+03  0.27680963246E+03  0.80419002446E+02 0. -1.
<mgrwt>
<rscale>  0 0.86909251E+02</rscale>
<asrwt>0</asrwt>
<pdfrwt beam="1">  1        2 0.61351177E-01 0.86909261E+02</pdfrwt>
<pdfrwt beam="2">  1       -2 0.33292079E-02 0.86909261E+02</pdfrwt>
<totfact> 0.25852821E+04</totfact>
</mgrwt>
</event>
<event>
 4    1  0.6602701E-002  0.9826995E+02  0.7546771E-02  0.1283977E+00
         -1   -1    0    0    0  501 -0.00000000000E+00  0.00000000000E+00  0.50733632063E+02  0.50733632063E+02  0.00000000000E+00 0.  1.
          1   -1    0    0  501    0  0.00000000000E+00 -0.00000000000E+00 -0.23598092829E+03  0.23598092829E+03  0.00000000000E+00 0. -1.
         24    1    1    2    0    0  0.47867275545E+02  0.29974846602E+02 -0.29582185656E+02  0.10262596728E+03  0.80419002446E+02 0.  0.
        -24    1    1    2    0    0 -0.47867275545E+02 -0.29974846602E+02 -0.15566511057E+03  0.18408859307E+03  0.80419002446E+02 0.  1.
<mgrwt>
<rscale>  0 0.98269952E+02</rscale>
<asrwt>0</asrwt>
<pdfrwt beam="1">  1        1 0.36304758E-01 0.98269952E+02</pdfrwt>
<pdfrwt beam="2">  1       -1 0.78051742E-02 0.98269952E+02</pdfrwt>
<totfact> 0.97676981E+03</totfact>
</mgrwt>
</event>
<event>
 4    1  0.7193568E-002  0.8654488E+02  0.7546771E-02  0.1311441E+00
          1   -1    0    0  501    0  0.00000000000E+00  0.00000000000E+00  0.47535501804E+03  0.47535501804E+03  0.00000000000E+00 0. -1.
         -1   -1    0    0    0  501 -0.00000000000E+00 -0.00000000000E+00 -0.36665233128E+02  0.36665233128E+02  0.00000000000E+00 0.  1.
         24    1    1    2    0    0 -0.83213450206E+01 -0.30879687393E+02  0.26018150912E+02  0.90371234404E+02  0.80419002446E+02 0.  1.
        -24    1    1    2    0    0  0.83213450206E+01  0.30879687393E+02  0.41267163400E+03  0.42164901677E+03  0.80419002446E+02 0. -1.
<mgrwt>
<rscale>  0 0.86544878E+02</rscale>
<asrwt>0</asrwt>
<pdfrwt beam="1">  1        1 0.73131537E-01 0.86544878E+02</pdfrwt>
<pdfrwt beam="2">  1       -1 0.56408054E-02 0.86544878E+02</pdfrwt>
<totfact> 0.65921460E+03</totfact>
</mgrwt>
</event>
<event>
 4    1  0.6602701E-002  0.1062781E+03  0.7546771E-02  0.1267622E+00
          1   -1    0    0  501    0  0.00000000000E+00  0.00000000000E+00  0.31545179217E+04  0.31545179217E+04  0.00000000000E+00 0. -1.
         -1   -1    0    0    0  501 -0.00000000000E+00 -0.00000000000E+00 -0.36791579819E+01  0.36791579819E+01  0.00000000000E+00 0.  1.
         24    1    1    2    0    0 -0.57565292484E+02  0.38910829277E+02  0.13169520702E+04  0.13212334338E+04  0.80419002446E+02 0.  1.
        -24    1    1    2    0    0  0.57565292484E+02 -0.38910829277E+02  0.18338866936E+04  0.18369636459E+04  0.80419002446E+02 0. -1.
<mgrwt>
<rscale>  0 0.10627809E+03</rscale>
<asrwt>0</asrwt>
<pdfrwt beam="1">  1        1 0.48530829E+00 0.10627809E+03</pdfrwt>
<pdfrwt beam="2">  1       -1 0.56602683E-03 0.10627809E+03</pdfrwt>
<totfact> 0.24256340E+03</totfact>
</mgrwt>
</event>
<event>
 4    1  0.6602701E-002  0.8344553E+02  0.7546771E-02  0.1319548E+00
          2   -1    0    0  501    0  0.00000000000E+00  0.00000000000E+00  0.33580420194E+02  0.33580420194E+02  0.00000000000E+00 0. -1.
         -2   -1    0    0    0  501 -0.00000000000E+00 -0.00000000000E+00 -0.28978774025E+03  0.28978774025E+03  0.00000000000E+00 0.  1.
         24    1    1    2    0    0 -0.23408951291E+01 -0.22146355089E+02 -0.41871321883E+02  0.93361471627E+02  0.80419002446E+02 0. -1.
        -24    1    1    2    0    0  0.23408951291E+01  0.22146355089E+02 -0.21433599818E+03  0.23000668882E+03  0.80419002446E+02 0.  1.
<mgrwt>
<rscale>  0 0.83445532E+02</rscale>
<asrwt>0</asrwt>
<pdfrwt beam="1">  1        2 0.51662185E-02 0.83445532E+02</pdfrwt>
<pdfrwt beam="2">  1       -2 0.44582729E-01 0.83445532E+02</pdfrwt>
<totfact> 0.65529797E+03</totfact>
</mgrwt>
</event>
<event>
 4    1  0.6602701E-002  0.1149381E+03  0.7546771E-02  0.1251689E+00
          1   -1    0    0  501    0  0.00000000000E+00  0.00000000000E+00  0.12936414949E+04  0.12936414949E+04  0.00000000000E+00 0. -1.
         -1   -1    0    0    0  501 -0.00000000000E+00 -0.00000000000E+00 -0.17026250484E+02  0.17026250484E+02  0.00000000000E+00 0.  1.
         24    1    1    2    0    0 -0.38114353892E+02  0.72738250526E+02  0.22372648257E+03  0.25152397902E+03  0.80419002446E+02 0.  1.
        -24    1    1    2    0    0  0.38114353892E+02 -0.72738250526E+02  0.10528887618E+04  0.10591437663E+04  0.80419002446E+02 0. -1.
<mgrwt>
<rscale>  0 0.11493813E+03</rscale>
<asrwt>0</asrwt>
<pdfrwt beam="1">  1        1 0.19902169E+00 0.11493813E+03</pdfrwt>
<pdfrwt beam="2">  1       -1 0.26194242E-02 0.11493813E+03</pdfrwt>
<totfact> 0.44422086E+03</totfact>
</mgrwt>
</event>
<event>
 4    1  0.6602701E-002  0.8744473E+02  0.7546771E-02  0.1309160E+00
         -4   -1    0    0    0  501 -0.00000000000E+00  0.00000000000E+00  0.12514542910E+03  0.12514542910E+03  0.00000000000E+00 0.  1.
          4   -1    0    0  501    0  0.00000000000E+00 -0.00000000000E+00 -0.10242625560E+03  0.10242625560E+03  0.00000000000E+00 0. -1.
         24    1    1    2    0    0 -0.31129886824E+02 -0.14501542481E+02 -0.60915301554E+02  0.10657042041E+03  0.80419002446E+02 0. -1.
        -24    1    1    2    0    0  0.31129886824E+02  0.14501542481E+02  0.83634475060E+02  0.12100126429E+03  0.80419002446E+02 0.  1.
<mgrwt>
<rscale>  0 0.87444728E+02</rscale>
<asrwt>0</asrwt>
<pdfrwt beam="1">  1        4 0.15757885E-01 0.87444728E+02</pdfrwt>
<pdfrwt beam="2">  1       -4 0.19253143E-01 0.87444728E+02</pdfrwt>
<totfact> 0.12405044E+03</totfact>
</mgrwt>
</event>
<event>
 4    1  0.6602701E-002  0.9192638E+02  0.7546771E-02  0.1298253E+00
         -2   -1    0    0    0  501 -0.00000000000E+00  0.00000000000E+00  0.93288532709E+01  0.93288532709E+01  0.00000000000E+00 0.  1.
          2   -1    0    0  501    0  0.00000000000E+00 -0.00000000000E+00 -0.95516571990E+03  0.95516571990E+03  0.00000000000E+00 0. -1.
         24    1    1    2    0    0 -0.33717015002E+02 -0.29092985224E+02 -0.36333014940E+03  0.37477893791E+03  0.80419002446E+02 0. -1.
        -24    1    1    2    0    0  0.33717015002E+02  0.29092985224E+02 -0.58250671724E+03  0.58971563526E+03  0.80419002446E+02 0.  1.
<mgrwt>
<rscale>  0 0.91926367E+02</rscale>
<asrwt>0</asrwt>
<pdfrwt beam="1">  1        2 0.14694863E+00 0.91926379E+02</pdfrwt>
<pdfrwt beam="2">  1       -2 0.14352076E-02 0.91926379E+02</pdfrwt>
<totfact> 0.32122343E+04</totfact>
</mgrwt>
</event>
<event>
 4    1  0.6602701E-002  0.8214475E+02  0.7546771E-02  0.1323073E+00
         -2   -1    0    0    0  501 -0.00000000000E+00  0.00000000000E+00  0.12240128935E+02  0.12240128935E+02  0.00000000000E+00 0.  1.
          2   -1    0    0  501    0  0.00000000000E+00 -0.00000000000E+00 -0.66486997649E+03  0.66486997649E+03  0.00000000000E+00 0. -1.
         24    1    1    2    0    0  0.21513200124E+01 -0.16610722275E+02 -0.46625029873E+03  0.47343120016E+03  0.80419002446E+02 0.  0.
        -24    1    1    2    0    0 -0.21513200124E+01  0.16610722275E+02 -0.18637954883E+03  0.20367890526E+03  0.80419002446E+02 0.  0.
<mgrwt>
<rscale>  0 0.82144752E+02</rscale>
<asrwt>0</asrwt>
<pdfrwt beam="1">  1        2 0.10228768E+00 0.82144752E+02</pdfrwt>
<pdfrwt beam="2">  1       -2 0.18830970E-02 0.82144752E+02</pdfrwt>
<totfact> 0.33532934E+04</totfact>
</mgrwt>
</event>
<event>
 4    1  0.6602701E-002  0.8170478E+02  0.7546771E-02  0.1324282E+00
          2   -1    0    0  501    0  0.00000000000E+00  0.00000000000E+00  0.86124387561E+03  0.86124387561E+03  0.00000000000E+00 0. -1.
         -2   -1    0    0    0  501 -0.00000000000E+00 -0.00000000000E+00 -0.11689177762E+03  0.11689177762E+03  0.00000000000E+00 0.  1.
         24    1    1    2    0    0 -0.13521586929E+01  0.14374532481E+02  0.84475050250E+03  0.84869257269E+03  0.80419002446E+02 0. -1.
        -24    1    1    2    0    0  0.13521586929E+01 -0.14374532481E+02 -0.10039840450E+03  0.12944308054E+03  0.80419002446E+02 0.  1.
<mgrwt>
<rscale>  0 0.81704782E+02</rscale>
<asrwt>0</asrwt>
<pdfrwt beam="1">  1        2 0.13249905E+00 0.81704782E+02</pdfrwt>
<pdfrwt beam="2">  1       -2 0.17983351E-01 0.81704782E+02</pdfrwt>
<totfact> 0.81865096E+02</totfact>
</mgrwt>
</event>
<event>
 4    1  0.6602701E-002  0.1010326E+03  0.7546771E-02  0.1278139E+00
          1   -1    0    0  501    0  0.00000000000E+00  0.00000000000E+00  0.36142529736E+03  0.36142529736E+03  0.00000000000E+00 0. -1.
         -1   -1    0    0    0  501 -0.00000000000E+00 -0.00000000000E+00 -0.35942863371E+02  0.35942863371E+02  0.00000000000E+00 0.  1.
         24    1    1    2    0    0 -0.51727726748E+02  0.32628415913E+02  0.70778932511E+02  0.12335819584E+03  0.80419002446E+02 0.  1.
        -24    1    1    2    0    0  0.51727726748E+02 -0.32628415913E+02  0.25470350148E+03  0.27400996489E+03  0.80419002446E+02 0. -1.
<mgrwt>
<rscale>  0 0.10103260E+03</rscale>
<asrwt>0</asrwt>
<pdfrwt beam="1">  1        1 0.55603889E-01 0.10103260E+03</pdfrwt>
<pdfrwt beam="2">  1       -1 0.55296715E-02 0.10103260E+03</pdfrwt>
<totfact> 0.96758989E+03</totfact>
</mgrwt>
</event>
<event>
 4    1  0.6602701E-002  0.1556850E+03  0.7546771E-02  0.1193656E+00
         -2   -1    0    0    0  501 -0.00000000000E+00  0.00000000000E+00  0.44887653614E+02  0.44887653614E+02  0.00000000000E+00 0.  1.
          2   -1    0    0  501    0  0.00000000000E+00 -0.00000000000E+00 -0.10681403450E+04  0.10681403450E+04  0.00000000000E+00 0. -1.
         24    1    1    2    0    0  0.38075508735E+02  0.12775310984E+03 -0.90296296419E+03  0.91628594450E+03  0.80419002446E+02 0. -1.
        -24    1    1    2    0    0 -0.38075508735E+02 -0.12775310984E+03 -0.12028972723E+03  0.19674205415E+03  0.80419002446E+02 0.  1.
<mgrwt>
<rscale>  0 0.15568499E+03</rscale>
<asrwt>0</asrwt>
<pdfrwt beam="1">  1        2 0.16432929E+00 0.15568499E+03</pdfrwt>
<pdfrwt beam="2">  1       -2 0.69057927E-02 0.15568499E+03</pdfrwt>
<totfact> 0.28134655E+03</totfact>
</mgrwt>
</event>
<event>
 4    1  0.6602701E-002  0.8502569E+02  0.7546771E-02  0.1315365E+00
          1   -1    0    0  501    0  0.00000000000E+00  0.00000000000E+00  0.71336025416E+03  0.71336025416E+03  0.00000000000E+00 0. -1.
         -1   -1    0    0    0  501 -0.00000000000E+00 -0.00000000000E+00 -0.11928468831E+02  0.11928468831E+02  0.00000000000E+00 0.  1.
         24    1    1    2    0    0 -0.76196780857E+00 -0.27596505280E+02  0.49136194842E+03  0.49866414349E+03  0.80419002446E+02 0. -1.
        -24    1    1    2    0    0  0.76196780857E+00  0.27596505280E+02  0.21006983691E+03  0.22662457950E+03  0.80419002446E+02 0.  1.
<mgrwt>
<rscale>  0 0.85025675E+02</rscale>
<asrwt>0</asrwt>
<pdfrwt beam="1">  1        1 0.10974770E+00 0.85025686E+02</pdfrwt>
<pdfrwt beam="2">  1       -1 0.18351496E-02 0.85025686E+02</pdfrwt>
<totfact> 0.19360495E+04</totfact>
</mgrwt>
</event>
<event>
 4    1  0.6602701E-002  0.8484793E+02  0.7546771E-02  0.1315831E+00
         -2   -1    0    0    0  501 -0.00000000000E+00  0.00000000000E+00  0.16154576111E+02  0.16154576111E+02  0.00000000000E+00 0.  1.
          2   -1    0    0  501    0  0.00000000000E+00 -0.00000000000E+00 -0.50448547673E+03  0.50448547673E+03  0.00000000000E+00 0. -1.
         24    1    1    2    0    0  0.89505958199E+00  0.27039860450E+02 -0.33307109116E+03  0.34370848536E+03  0.80419002446E+02 0. -1.
        -24    1    1    2    0    0 -0.89505958199E+00 -0.27039860450E+02 -0.15525980946E+03  0.17693156748E+03  0.80419002446E+02 0.  1.
<mgrwt>
<rscale>  0 0.84847929E+02</rscale>
<asrwt>0</asrwt>
<pdfrwt beam="1">  1        2 0.77613140E-01 0.84847929E+02</pdfrwt>
<pdfrwt beam="2">  1       -2 0.24853197E-02 0.84847929E+02</pdfrwt>
<totfact> 0.30677764E+04</totfact>
</mgrwt>
</event>
<event>
 4    1  0.6602701E-002  0.8195483E+02  0.7546771E-02  0.1323594E+00
          1   -1    0    0  501    0  0.00000000000E+00  0.00000000000E+00  0.11467429972E+03  0.11467429972E+03  0.00000000000E+00 0. -1.
         -1   -1    0    0    0  501 -0.00000000000E+00 -0.00000000000E+00 -0.15286245068E+03  0.15286245068E+03  0.00000000000E+00 0.  1.
         24    1    1    2    0    0  0.69596576232E+01  0.14175378977E+02 -0.12415448427E+03  0.14876468036E+03  0.80419002446E+02 0.  1.
        -24    1    1    2    0    0 -0.69596576232E+01 -0.14175378977E+02  0.85966333312E+02  0.11877207004E+03  0.80419002446E+02 0.  0.
<mgrwt>
<rscale>  0 0.81954830E+02</rscale>
<asrwt>0</asrwt>
<pdfrwt beam="1">  1        1 0.17642200E-01 0.81954830E+02</pdfrwt>
<pdfrwt beam="2">  1       -1 0.23517300E-01 0.81954830E+02</pdfrwt>
<totfact> 0.42954381E+03</totfact>
</mgrwt>
</event>
<event>
 4    1  0.6602701E-002  0.1466035E+03  0.7546771E-02  0.1204710E+00
         -2   -1    0    0    0  501 -0.00000000000E+00  0.00000000000E+00  0.83654782484E+03  0.83654782484E+03  0.00000000000E+00 0.  1.
          2   -1    0    0  501    0  0.00000000000E+00 -0.00000000000E+00 -0.31413017297E+02  0.31413017297E+02  0.00000000000E+00 0. -1.
         24    1    1    2    0    0  0.10693465333E+03  0.59919449855E+02  0.21736253319E+03  0.26218132531E+03  0.80419002446E+02 0.  0.
        -24    1    1    2    0    0 -0.10693465333E+03 -0.59919449855E+02  0.58777227435E+03  0.60577951682E+03  0.80419002446E+02 0. -1.
<mgrwt>
<rscale>  0 0.14660347E+03</rscale>
<asrwt>0</asrwt>
<pdfrwt beam="1">  1        2 0.48327725E-02 0.14660347E+03</pdfrwt>
<pdfrwt beam="2">  1       -2 0.12869965E+00 0.14660347E+03</pdfrwt>
<totfact> 0.75154495E+02</totfact>
</mgrwt>
</event>
<event>
 4    1  0.6602701E-002  0.8592783E+02  0.7546771E-02  0.1313024E+00
          2   -1    0    0  501    0  0.00000000000E+00  0.00000000000E+00  0.51022572792E+04  0.51022572792E+04  0.00000000000E+00 0. -1.
         -2   -1    0    0    0  501 -0.00000000000E+00 -0.00000000000E+00 -0.14477414950E+01  0.14477414950E+01  0.00000000000E+00 0.  1.
         24    1    1    2    0    0 -0.23978528197E+01 -0.30176513269E+02  0.24976079005E+04  0.24990855953E+04  0.80419002446E+02 0.  1.
        -24    1    1    2    0    0  0.23978528197E+01  0.30176513269E+02  0.26032016372E+04  0.26046194255E+04  0.80419002446E+02 0. -1.
<mgrwt>
<rscale>  0 0.85927815E+02</rscale>
<asrwt>0</asrwt>
<pdfrwt beam="1">  1        2 0.78494827E+00 0.85927826E+02</pdfrwt>
<pdfrwt beam="2">  1       -2 0.22273354E-03 0.85927826E+02</pdfrwt>
<totfact> 0.77214307E+02</totfact>
</mgrwt>
</event>
<event>
 4    1  0.6602701E-002  0.9776548E+02  0.7546771E-02  0.1285066E+00
          1   -1    0    0  501    0  0.00000000000E+00  0.00000000000E+00  0.58559309116E+03  0.58559309116E+03  0.00000000000E+00 0. -1.
         -1   -1    0    0    0  501 -0.00000000000E+00 -0.00000000000E+00 -0.17869727716E+02  0.17869727716E+02  0.00000000000E+00 0.  1.
         24    1    1    2    0    0  0.20760128115E+02  0.51574116441E+02  0.19506438454E+03  0.21819303947E+03  0.80419002446E+02 0.  1.
        -24    1    1    2    0    0 -0.20760128115E+02 -0.51574116441E+02  0.37265897891E+03  0.38526977940E+03  0.80419002446E+02 0. -1.
<mgrwt>
<rscale>  0 0.97765476E+02</rscale>
<asrwt>0</asrwt>
<pdfrwt beam="1">  1        1 0.90091230E-01 0.97765476E+02</pdfrwt>
<pdfrwt beam="2">  1       -1 0.27491893E-02 0.97765476E+02</pdfrwt>
<totfact> 0.14417678E+04</totfact>
</mgrwt>
</event>
<event>
 4    1  0.6602701E-002  0.8944364E+02  0.7546771E-02  0.1304205E+00
         -1   -1    0    0    0  501 -0.00000000000E+00  0.00000000000E+00  0.24404349373E+03  0.24404349373E+03  0.00000000000E+00 0.  1.
          1   -1    0    0  501    0  0.00000000000E+00 -0.00000000000E+00 -0.51457421523E+02  0.51457421523E+02  0.00000000000E+00 0. -1.
         24    1    1    2    0    0 -0.29963113571E+02 -0.25202394386E+02  0.18530396197E+03  0.20576132565E+03  0.80419002446E+02 0.  1.
        -24    1    1    2    0    0  0.29963113571E+02  0.25202394386E+02  0.72821102344E+01  0.89739589599E+02  0.80419002446E+02 0. -1.
<mgrwt>
<rscale>  0 0.89443640E+02</rscale>
<asrwt>0</asrwt>
<pdfrwt beam="1">  1        1 0.79165265E-02 0.89443640E+02</pdfrwt>
<pdfrwt beam="2">  1       -1 0.37545152E-01 0.89443640E+02</pdfrwt>
<totfact> 0.56154459E+03</totfact>
</mgrwt>
</event>
<event>
 4    1  0.6602701E-002  0.1119446E+03  0.7546771E-02  0.1257011E+00
         -2   -1    0    0    0  501 -0.00000000000E+00  0.00000000000E+00  0.34255539428E+02  0.34255539428E+02  0.00000000000E+00 0.  1.
          2   -1    0    0  501    0  0.00000000000E+00 -0.00000000000E+00 -0.39799075761E+03  0.39799075761E+03  0.00000000000E+00 0. -1.
         24    1    1    2    0    0 -0.76996943803E+02 -0.11654806088E+02 -0.12042744005E+03  0.16442125206E+03  0.80419002446E+02 0.  1.
        -24    1    1    2    0    0  0.76996943803E+02  0.11654806088E+02 -0.24330777813E+03  0.26782504497E+03  0.80419002446E+02 0. -1.
<mgrwt>
<rscale>  0 0.11194455E+03</rscale>
<asrwt>0</asrwt>
<pdfrwt beam="1">  1        2 0.61229347E-01 0.11194457E+03</pdfrwt>
<pdfrwt beam="2">  1       -2 0.52700830E-02 0.11194457E+03</pdfrwt>
<totfact> 0.13475600E+04</totfact>
</mgrwt>
</event>
<event>
 4    1  0.6602701E-002  0.1111591E+03  0.7546771E-02  0.1258438E+00
          2   -1    0    0  501    0  0.00000000000E+00  0.00000000000E+00  0.39632016108E+03  0.39632016108E+03  0.00000000000E+00 0. -1.
         -2   -1    0    0    0  501 -0.00000000000E+00 -0.00000000000E+00 -0.34528313386E+02  0.34528313386E+02  0.00000000000E+00 0.  1.
         24    1    1    2    0    0  0.55547957403E+02 -0.52948612840E+02  0.24800321190E+03  0.27177553282E+03  0.80419002446E+02 0. -1.
        -24    1    1    2    0    0 -0.55547957403E+02  0.52948612840E+02  0.11378863580E+03  0.15907294165E+03  0.80419002446E+02 0.  1.
<mgrwt>
<rscale>  0 0.11115911E+03</rscale>
<asrwt>0</asrwt>
<pdfrwt beam="1">  1        2 0.60972329E-01 0.11115911E+03</pdfrwt>
<pdfrwt beam="2">  1       -2 0.53120485E-02 0.11115911E+03</pdfrwt>
<totfact> 0.13368122E+04</totfact>
</mgrwt>
</event>
<event>
 4    1  0.6602701E-002  0.1502269E+03  0.7546771E-02  0.1200194E+00
         -1   -1    0    0    0  501 -0.00000000000E+00  0.00000000000E+00  0.23643324413E+02  0.23643324413E+02  0.00000000000E+00 0.  1.
          1   -1    0    0  501    0  0.00000000000E+00 -0.00000000000E+00 -0.13377815502E+04  0.13377815502E+04  0.00000000000E+00 0. -1.
         24    1    1    2    0    0 -0.12674106038E+03  0.61323964077E+01 -0.29272102782E+03  0.32901932885E+03  0.80419002446E+02 0.  1.
        -24    1    1    2    0    0  0.12674106038E+03 -0.61323964077E+01 -0.10214171979E+04  0.10324055457E+04  0.80419002446E+02 0. -1.
<mgrwt>
<rscale>  0 0.15022689E+03</rscale>
<asrwt>0</asrwt>
<pdfrwt beam="1">  1        1 0.20581247E+00 0.15022689E+03</pdfrwt>
<pdfrwt beam="2">  1       -1 0.36374358E-02 0.15022689E+03</pdfrwt>
<totfact> 0.25904237E+03</totfact>
</mgrwt>
</event>
<event>
 4    1  0.6602701E-002  0.8112470E+02  0.7546771E-02  0.1325890E+00
          1   -1    0    0  501    0  0.00000000000E+00  0.00000000000E+00  0.93926791811E+03  0.93926791811E+03  0.00000000000E+00 0. -1.
         -1   -1    0    0    0  501 -0.00000000000E+00 -0.00000000000E+00 -0.77599620787E+01  0.77599620787E+01  0.00000000000E+00 0.  1.
         24    1    1    2    0    0 -0.69003727814E+01 -0.81477364532E+01  0.31823046966E+03  0.32840805186E+03  0.80419002446E+02 0.  0.
        -24    1    1    2    0    0  0.69003727814E+01  0.81477364532E+01  0.61327748638E+03  0.61861982833E+03  0.80419002446E+02 0. -1.
<mgrwt>
<rscale>  0 0.81124699E+02</rscale>
<asrwt>0</asrwt>
<pdfrwt beam="1">  1        1 0.14450267E+00 0.81124699E+02</pdfrwt>
<pdfrwt beam="2">  1       -1 0.11938411E-02 0.81124699E+02</pdfrwt>
<totfact> 0.23472190E+04</totfact>
</mgrwt>
</event>
<event>
 4    1  0.6602701E-002  0.9537297E+02  0.7546771E-02  0.1290338E+00
         -1   -1    0    0    0  501 -0.00000000000E+00  0.00000000000E+00  0.56247106942E+03  0.56247106942E+03  0.00000000000E+00 0.  1.
          1   -1    0    0  501    0  0.00000000000E+00 -0.00000000000E+00 -0.26719119762E+02  0.26719119762E+02  0.00000000000E+00 0. -1.
         24    1    1    2    0    0 -0.51026455859E+02 -0.50088473254E+01  0.45296964527E+03  0.46290118086E+03  0.80419002446E+02 0.  1.
        -24    1    1    2    0    0  0.51026455859E+02  0.50088473254E+01  0.82782304386E+02  0.12628900832E+03  0.80419002446E+02 0. -1.
<mgrwt>
<rscale>  0 0.95372972E+02</rscale>
<asrwt>0</asrwt>
<pdfrwt beam="1">  1        1 0.41106342E-02 0.95372972E+02</pdfrwt>
<pdfrwt beam="2">  1       -1 0.86534002E-01 0.95372972E+02</pdfrwt>
<totfact> 0.28547120E+03</totfact>
</mgrwt>
</event>
<event>
 4    1  0.6602701E-002  0.9593774E+02  0.7546771E-02  0.1289078E+00
          2   -1    0    0  501    0  0.00000000000E+00  0.00000000000E+00  0.66524467260E+03  0.66524467260E+03  0.00000000000E+00 0. -1.
         -2   -1    0    0    0  501 -0.00000000000E+00 -0.00000000000E+00 -0.17475135597E+02  0.17475135597E+02  0.00000000000E+00 0.  1.
         24    1    1    2    0    0 -0.40849156347E+02  0.32682957436E+02  0.16809947094E+03  0.19354967674E+03  0.80419002446E+02 0.  1.
        -24    1    1    2    0    0  0.40849156347E+02 -0.32682957436E+02  0.47967006606E+03  0.48917013146E+03  0.80419002446E+02 0. -1.
<mgrwt>
<rscale>  0 0.95937727E+02</rscale>
<asrwt>0</asrwt>
<pdfrwt beam="1">  1        2 0.10234531E+00 0.95937739E+02</pdfrwt>
<pdfrwt beam="2">  1       -2 0.26884829E-02 0.95937739E+02</pdfrwt>
<totfact> 0.20390650E+04</totfact>
</mgrwt>
</event>
<event>
 4    1  0.6602701E-002  0.1118406E+03  0.7546771E-02  0.1257199E+00
          2   -1    0    0  501    0  0.00000000000E+00  0.00000000000E+00  0.45727330333E+03  0.45727330333E+03  0.00000000000E+00 0. -1.
         -2   -1    0    0    0  501 -0.00000000000E+00 -0.00000000000E+00 -0.11704222545E+03  0.11704222545E+03  0.00000000000E+00 0.  1.
         24    1    1    2    0    0  0.45808324617E+02  0.62791018871E+02  0.42148735791E+03  0.43607330059E+03  0.80419002446E+02 0. -1.
        -24    1    1    2    0    0 -0.45808324617E+02 -0.62791018871E+02 -0.81256280031E+02  0.13824222819E+03  0.80419002446E+02 0.  1.
<mgrwt>
<rscale>  0 0.11184065E+03</rscale>
<asrwt>0</asrwt>
<pdfrwt beam="1">  1        2 0.70349738E-01 0.11184065E+03</pdfrwt>
<pdfrwt beam="2">  1       -2 0.18006496E-01 0.11184065E+03</pdfrwt>
<totfact> 0.16949051E+03</totfact>
</mgrwt>
</event>
<event>
 4    1  0.6602701E-002  0.1325733E+03  0.7546771E-02  0.1223687E+00
         -2   -1    0    0    0  501 -0.00000000000E+00  0.00000000000E+00  0.68686297090E+02  0.68686297090E+02  0.00000000000E+00 0.  1.
          2   -1    0    0  501    0  0.00000000000E+00 -0.00000000000E+00 -0.27552371889E+03  0.27552371889E+03  0.00000000000E+00 0. -1.
         24    1    1    2    0    0  0.10102732322E+03 -0.30032426389E+02 -0.14936901362E+03  0.19971676158E+03  0.80419002446E+02 0. -1.
        -24    1    1    2    0    0 -0.10102732322E+03  0.30032426389E+02 -0.57468408174E+02  0.14449325439E+03  0.80419002446E+02 0.  1.
<mgrwt>
<rscale>  0 0.13257331E+03</rscale>
<asrwt>0</asrwt>
<pdfrwt beam="1">  1        2 0.42388264E-01 0.13257331E+03</pdfrwt>
<pdfrwt beam="2">  1       -2 0.10567123E-01 0.13257331E+03</pdfrwt>
<totfact> 0.69255471E+03</totfact>
</mgrwt>
</event>
<event>
 4    1  0.6602701E-002  0.2209384E+03  0.7546771E-02  0.1133185E+00
          3   -1    0    0  501    0  0.00000000000E+00  0.00000000000E+00  0.15026310915E+04  0.15026310915E+04  0.00000000000E+00 0. -1.
         -3   -1    0    0    0  501 -0.00000000000E+00 -0.00000000000E+00 -0.67851255064E+02  0.67851255064E+02  0.00000000000E+00 0.  1.
         24    1    1    2    0    0  0.17193063556E+03  0.11307703527E+03  0.15047828165E+03  0.26731533542E+03  0.80419002446E+02 0.  1.
        -24    1    1    2    0    0 -0.17193063556E+03 -0.11307703527E+03  0.12843015548E+04  0.13031670111E+04  0.80419002446E+02 0. -1.
<mgrwt>
<rscale>  0 0.22093840E+03</rscale>
<asrwt>0</asrwt>
<pdfrwt beam="1">  1        3 0.23117399E+00 0.22093840E+03</pdfrwt>
<pdfrwt beam="2">  1       -3 0.10438656E-01 0.22093840E+03</pdfrwt>
<totfact> 0.17868289E+01</totfact>
</mgrwt>
</event>
<event>
 4    1  0.6602701E-002  0.8165357E+02  0.7546771E-02  0.1324423E+00
         -1   -1    0    0    0  501 -0.00000000000E+00  0.00000000000E+00  0.50133900040E+03  0.50133900040E+03  0.00000000000E+00 0.  1.
          1   -1    0    0  501    0  0.00000000000E+00 -0.00000000000E+00 -0.14568108696E+02  0.14568108696E+02  0.00000000000E+00 0. -1.
         24    1    1    2    0    0  0.13707830477E+02  0.34907655473E+01  0.31952140115E+03  0.32978967814E+03  0.80419002446E+02 0.  0.
        -24    1    1    2    0    0 -0.13707830477E+02 -0.34907655473E+01  0.16724949056E+03  0.18611743096E+03  0.80419002446E+02 0. -1.
<mgrwt>
<rscale>  0 0.81653573E+02</rscale>
<asrwt>0</asrwt>
<pdfrwt beam="1">  1        1 0.22412479E-02 0.81653573E+02</pdfrwt>
<pdfrwt beam="2">  1       -1 0.77129064E-01 0.81653573E+02</pdfrwt>
<totfact> 0.81621675E+03</totfact>
</mgrwt>
</event>
<event>
 4    1  0.6602701E-002  0.9500061E+02  0.7546771E-02  0.1291175E+00
         -3   -1    0    0    0  501 -0.00000000000E+00  0.00000000000E+00  0.80168382124E+02  0.80168382124E+02  0.00000000000E+00 0.  1.
          3   -1    0    0  501    0  0.00000000000E+00 -0.00000000000E+00 -0.13422697201E+03  0.13422697201E+03  0.00000000000E+00 0. -1.
         24    1    1    2    0    0  0.24904431620E+02  0.44018903089E+02 -0.70081443500E+02  0.11805303563E+03  0.80419002446E+02 0.  0.
        -24    1    1    2    0    0 -0.24904431620E+02 -0.44018903089E+02  0.16022853612E+02  0.96342318509E+02  0.80419002446E+02 0.  0.
<mgrwt>
<rscale>  0 0.95000593E+02</rscale>
<asrwt>0</asrwt>
<pdfrwt beam="1">  1        3 0.20650303E-01 0.95000605E+02</pdfrwt>
<pdfrwt beam="2">  1       -3 0.12333597E-01 0.95000605E+02</pdfrwt>
<totfact> 0.23508328E+03</totfact>
</mgrwt>
</event>
<event>
 4    1  0.6602701E-002  0.8510473E+02  0.7546771E-02  0.1315159E+00
         -2   -1    0    0    0  501 -0.00000000000E+00  0.00000000000E+00  0.13791661177E+02  0.13791661177E+02  0.00000000000E+00 0.  1.
          2   -1    0    0  501    0  0.00000000000E+00 -0.00000000000E+00 -0.90293114267E+03  0.90293114267E+03  0.00000000000E+00 0. -1.
         24    1    1    2    0    0 -0.23593112463E+02  0.14797458760E+02 -0.74104991570E+03  0.74592076876E+03  0.80419002446E+02 0. -1.
        -24    1    1    2    0    0  0.23593112463E+02 -0.14797458760E+02 -0.14808956579E+03  0.17080203509E+03  0.80419002446E+02 0.  1.
<mgrwt>
<rscale>  0 0.85104734E+02</rscale>
<asrwt>0</asrwt>
<pdfrwt beam="1">  1        2 0.13891247E+00 0.85104734E+02</pdfrwt>
<pdfrwt beam="2">  1       -2 0.21217943E-02 0.85104734E+02</pdfrwt>
<totfact> 0.19611418E+04</totfact>
</mgrwt>
</event>
<event>
 4    1  0.6602701E-002  0.1153613E+03  0.7546771E-02  0.1250952E+00
         -2   -1    0    0    0  501 -0.00000000000E+00  0.00000000000E+00  0.36749247720E+03  0.36749247720E+03  0.00000000000E+00 0.  1.
          2   -1    0    0  501    0  0.00000000000E+00 -0.00000000000E+00 -0.26897161763E+03  0.26897161763E+03  0.00000000000E+00 0. -1.
         24    1    1    2    0    0  0.49058876579E+02  0.66590020270E+02 -0.24677454552E+03  0.27240759248E+03  0.80419002446E+02 0. -1.
        -24    1    1    2    0    0 -0.49058876579E+02 -0.66590020270E+02  0.34529540509E+03  0.36405650235E+03  0.80419002446E+02 0.  1.
<mgrwt>
<rscale>  0 0.11536126E+03</rscale>
<asrwt>0</asrwt>
<pdfrwt beam="1">  1        2 0.41380249E-01 0.11536126E+03</pdfrwt>
<pdfrwt beam="2">  1       -2 0.56537305E-01 0.11536126E+03</pdfrwt>
<totfact> 0.37039834E+02</totfact>
</mgrwt>
</event>
<event>
 4    1  0.6602701E-002  0.1255415E+03  0.7546771E-02  0.1234225E+00
         -2   -1    0    0    0  501 -0.00000000000E+00  0.00000000000E+00  0.28098674470E+02  0.28098674470E+02  0.00000000000E+00 0.  1.
          2   -1    0    0  501    0  0.00000000000E+00 -0.00000000000E+00 -0.17671922684E+04  0.17671922684E+04  0.00000000000E+00 0. -1.
         24    1    1    2    0    0  0.90626052103E+02  0.32869101343E+02 -0.16111786785E+04  0.16160623160E+04  0.80419002446E+02 0. -1.
        -24    1    1    2    0    0 -0.90626052103E+02 -0.32869101343E+02 -0.12791491535E+03  0.17922862680E+03  0.80419002446E+02 0.  1.
<mgrwt>
<rscale>  0 0.12554153E+03</rscale>
<asrwt>0</asrwt>
<pdfrwt beam="1">  1        2 0.27187577E+00 0.12554153E+03</pdfrwt>
<pdfrwt beam="2">  1       -2 0.43228725E-02 0.12554153E+03</pdfrwt>
<totfact> 0.24126164E+03</totfact>
</mgrwt>
</event>
<event>
 4    1  0.6602701E-002  0.9622024E+02  0.7546771E-02  0.1288451E+00
         -2   -1    0    0    0  501 -0.00000000000E+00  0.00000000000E+00  0.23502207784E+03  0.23502207784E+03  0.00000000000E+00 0.  1.
          2   -1    0    0  501    0  0.00000000000E+00 -0.00000000000E+00 -0.43105820817E+02  0.43105820817E+02  0.00000000000E+00 0. -1.
         24    1    1    2    0    0 -0.46284126159E+01  0.52627907693E+02  0.55147696635E+02  0.11090357645E+03  0.80419002446E+02 0. -1.
        -24    1    1    2    0    0  0.46284126159E+01 -0.52627907693E+02  0.13676856038E+03  0.16722432220E+03  0.80419002446E+02 0.  1.
<mgrwt>
<rscale>  0 0.96220241E+02</rscale>
<asrwt>0</asrwt>
<pdfrwt beam="1">  1        2 0.66316649E-02 0.96220241E+02</pdfrwt>
<pdfrwt beam="2">  1       -2 0.36157242E-01 0.96220241E+02</pdfrwt>
<totfact> 0.71622020E+03</totfact>
</mgrwt>
</event>
<event>
 4    1  0.6602701E-002  0.9288223E+02  0.7546771E-02  0.1296018E+00
          2   -1    0    0  501    0  0.00000000000E+00  0.00000000000E+00  0.16025947550E+03  0.16025947550E+03  0.00000000000E+00 0. -1.
         -2   -1    0    0    0  501 -0.00000000000E+00 -0.00000000000E+00 -0.78409233929E+02  0.78409233929E+02  0.00000000000E+00 0.  1.
         24    1    1    2    0    0 -0.41152678876E+02  0.21595139454E+02  0.10773600711E+03  0.14224681441E+03  0.80419002446E+02 0. -1.
        -24    1    1    2    0    0  0.41152678876E+02 -0.21595139454E+02 -0.25885765544E+02  0.96421895018E+02  0.80419002446E+02 0.  1.
<mgrwt>
<rscale>  0 0.92882232E+02</rscale>
<asrwt>0</asrwt>
<pdfrwt beam="1">  1        2 0.24655304E-01 0.92882232E+02</pdfrwt>
<pdfrwt beam="2">  1       -2 0.12062959E-01 0.92882232E+02</pdfrwt>
<totfact> 0.97678147E+03</totfact>
</mgrwt>
</event>
<event>
 4    1  0.6602701E-002  0.8438180E+02  0.7546771E-02  0.1317057E+00
          2   -1    0    0  501    0  0.00000000000E+00  0.00000000000E+00  0.26122791242E+04  0.26122791242E+04  0.00000000000E+00 0. -1.
         -2   -1    0    0    0  501 -0.00000000000E+00 -0.00000000000E+00 -0.29546870787E+01  0.29546870787E+01  0.00000000000E+00 0.  1.
         24    1    1    2    0    0 -0.12881893899E+02 -0.22070983532E+02  0.16686869615E+04  0.16708190994E+04  0.80419002446E+02 0. -1.
        -24    1    1    2    0    0  0.12881893899E+02  0.22070983532E+02  0.94063747562E+03  0.94441471188E+03  0.80419002446E+02 0.  1.
<mgrwt>
<rscale>  0 0.84381796E+02</rscale>
<asrwt>0</asrwt>
<pdfrwt beam="1">  1        2 0.40188725E+00 0.84381796E+02</pdfrwt>
<pdfrwt beam="2">  1       -2 0.45456934E-03 0.84381796E+02</pdfrwt>
<totfact> 0.22172322E+04</totfact>
</mgrwt>
</event>
<event>
 4    1  0.6602701E-002  0.8956877E+02  0.7546771E-02  0.1303899E+00
         -3   -1    0    0    0  501 -0.00000000000E+00  0.00000000000E+00  0.92105259803E+02  0.92105259803E+02  0.00000000000E+00 0.  1.
          3   -1    0    0  501    0  0.00000000000E+00 -0.00000000000E+00 -0.10600828628E+03  0.10600828628E+03  0.00000000000E+00 0. -1.
         24    1    1    2    0    0 -0.37203174333E+02  0.13087105481E+02  0.34881184430E+02  0.96121077251E+02  0.80419002446E+02 0.  1.
        -24    1    1    2    0    0  0.37203174333E+02 -0.13087105481E+02 -0.48784210907E+02  0.10199246883E+03  0.80419002446E+02 0. -1.
<mgrwt>
<rscale>  0 0.89568769E+02</rscale>
<asrwt>0</asrwt>
<pdfrwt beam="1">  1        3 0.16308967E-01 0.89568769E+02</pdfrwt>
<pdfrwt beam="2">  1       -3 0.14170040E-01 0.89568769E+02</pdfrwt>
<totfact> 0.27682374E+03</totfact>
</mgrwt>
</event>
<event>
 4    1  0.6602701E-002  0.1486225E+03  0.7546771E-02  0.1202176E+00
         -2   -1    0    0    0  501 -0.00000000000E+00  0.00000000000E+00  0.55783541059E+02  0.55783541059E+02  0.00000000000E+00 0.  1.
          2   -1    0    0  501    0  0.00000000000E+00 -0.00000000000E+00 -0.15410655379E+04  0.15410655379E+04  0.00000000000E+00 0. -1.
         24    1    1    2    0    0  0.90368330299E+02 -0.86342319850E+02 -0.14308875632E+04  0.14385853697E+04  0.80419002446E+02 0. -1.
        -24    1    1    2    0    0 -0.90368330299E+02  0.86342319850E+02 -0.54394433649E+02  0.15826370931E+03  0.80419002446E+02 0.  1.
<mgrwt>
<rscale>  0 0.14862250E+03</rscale>
<asrwt>0</asrwt>
<pdfrwt beam="1">  1        2 0.23708698E+00 0.14862250E+03</pdfrwt>
<pdfrwt beam="2">  1       -2 0.85820843E-02 0.14862250E+03</pdfrwt>
<totfact> 0.11111785E+03</totfact>
</mgrwt>
</event>
<event>
 4    1  0.6602701E-002  0.1161979E+03  0.7546771E-02  0.1249504E+00
          1   -1    0    0  501    0  0.00000000000E+00  0.00000000000E+00  0.85672613541E+03  0.85672613541E+03  0.00000000000E+00 0. -1.
         -1   -1    0    0    0  501 -0.00000000000E+00 -0.00000000000E+00 -0.18271569201E+02  0.18271569201E+02  0.00000000000E+00 0.  1.
         24    1    1    2    0    0 -0.28594776935E+02  0.78848402124E+02  0.25702116320E+03  0.28206705953E+03  0.80419002446E+02 0.  1.
        -24    1    1    2    0    0  0.28594776935E+02 -0.78848402124E+02  0.58143340301E+03  0.59293064508E+03  0.80419002446E+02 0. -1.
<mgrwt>
<rscale>  0 0.11619788E+03</rscale>
<asrwt>0</asrwt>
<pdfrwt beam="1">  1        1 0.13180399E+00 0.11619788E+03</pdfrwt>
<pdfrwt beam="2">  1       -1 0.28110113E-02 0.11619788E+03</pdfrwt>
<totfact> 0.82137775E+03</totfact>
</mgrwt>
</event>
<event>
 4    1  0.6602701E-002  0.9078845E+02  0.7546771E-02  0.1300954E+00
          2   -1    0    0  501    0  0.00000000000E+00  0.00000000000E+00  0.12650578956E+04  0.12650578956E+04  0.00000000000E+00 0. -1.
         -2   -1    0    0    0  501 -0.00000000000E+00 -0.00000000000E+00 -0.65188716164E+01  0.65188716164E+01  0.00000000000E+00 0.  1.
         24    1    1    2    0    0 -0.14572987768E+02 -0.39534179257E+02  0.61490301076E+03  0.62156918513E+03  0.80419002446E+02 0.  0.
        -24    1    1    2    0    0  0.14572987768E+02  0.39534179257E+02  0.64363601318E+03  0.65000758205E+03  0.80419002446E+02 0.  1.
<mgrwt>
<rscale>  0 0.90788443E+02</rscale>
<asrwt>0</asrwt>
<pdfrwt beam="1">  1        2 0.19462410E+00 0.90788454E+02</pdfrwt>
<pdfrwt beam="2">  1       -2 0.10029043E-02 0.90788454E+02</pdfrwt>
<totfact> 0.35745016E+04</totfact>
</mgrwt>
</event>
<event>
 4    1  0.6602701E-002  0.8361253E+02  0.7546771E-02  0.1319101E+00
         -1   -1    0    0    0  501 -0.00000000000E+00  0.00000000000E+00  0.78198493580E+01  0.78198493580E+01  0.00000000000E+00 0.  1.
          1   -1    0    0  501    0  0.00000000000E+00 -0.00000000000E+00 -0.11575636271E+04  0.11575636271E+04  0.00000000000E+00 0. -1.
         24    1    1    2    0    0  0.22803905909E+02 -0.19546625696E+01 -0.29683806705E+03  0.30838919053E+03  0.80419002446E+02 0.  1.
        -24    1    1    2    0    0 -0.22803905909E+02  0.19546625696E+01 -0.85290571068E+03  0.85699428592E+03  0.80419002446E+02 0. -1.
<mgrwt>
<rscale>  0 0.83612528E+02</rscale>
<asrwt>0</asrwt>
<pdfrwt beam="1">  1        1 0.17808676E+00 0.83612528E+02</pdfrwt>
<pdfrwt beam="2">  1       -1 0.12030534E-02 0.83612528E+02</pdfrwt>
<totfact> 0.16338566E+04</totfact>
</mgrwt>
</event>
<event>
 4    1  0.6602701E-002  0.8741130E+02  0.7546771E-02  0.1309245E+00
         -2   -1    0    0    0  501 -0.00000000000E+00  0.00000000000E+00  0.60589335727E+03  0.60589335727E+03  0.00000000000E+00 0.  1.
          2   -1    0    0  501    0  0.00000000000E+00 -0.00000000000E+00 -0.43516758680E+02  0.43516758680E+02  0.00000000000E+00 0. -1.
         24    1    1    2    0    0  0.14137520657E+02 -0.31203369208E+02  0.75463731001E+01  0.87736443064E+02  0.80419002446E+02 0. -1.
        -24    1    1    2    0    0 -0.14137520657E+02  0.31203369208E+02  0.55483022549E+03  0.56167367288E+03  0.80419002446E+02 0.  1.
<mgrwt>
<rscale>  0 0.87411302E+02</rscale>
<asrwt>0</asrwt>
<pdfrwt beam="1">  1        2 0.66948864E-02 0.87411302E+02</pdfrwt>
<pdfrwt beam="2">  1       -2 0.93214357E-01 0.87411302E+02</pdfrwt>
<totfact> 0.10265472E+03</totfact>
</mgrwt>
</event>
<event>
 4    1  0.6602701E-002  0.2214557E+03  0.7546771E-02  0.1132802E+00
          2   -1    0    0  501    0  0.00000000000E+00  0.00000000000E+00  0.14163069357E+04  0.14163069357E+04  0.00000000000E+00 0. -1.
         -2   -1    0    0    0  501 -0.00000000000E+00 -0.00000000000E+00 -0.39361187206E+02  0.39361187206E+02  0.00000000000E+00 0.  1.
         24    1    1    2    0    0  0.18529513538E+03  0.90780602181E+02  0.94088824251E+03  0.96659883394E+03  0.80419002446E+02 0. -1.
        -24    1    1    2    0    0 -0.18529513538E+03 -0.90780602181E+02  0.43605750595E+03  0.48906928893E+03  0.80419002446E+02 0.  1.
<mgrwt>
<rscale>  0 0.22145569E+03</rscale>
<asrwt>0</asrwt>
<pdfrwt beam="1">  1        2 0.21789334E+00 0.22145569E+03</pdfrwt>
<pdfrwt beam="2">  1       -2 0.60555683E-02 0.22145569E+03</pdfrwt>
<totfact> 0.22101178E+03</totfact>
</mgrwt>
</event>
<event>
 4    1  0.6602701E-002  0.8187638E+02  0.7546771E-02  0.1323809E+00
          2   -1    0    0  501    0  0.00000000000E+00  0.00000000000E+00  0.31864023549E+03  0.31864023549E+03  0.00000000000E+00 0. -1.
         -2   -1    0    0    0  501 -0.00000000000E+00 -0.00000000000E+00 -0.26102376192E+02  0.26102376192E+02  0.00000000000E+00 0.  1.
         24    1    1    2    0    0 -0.11819875624E+01 -0.15333879104E+02  0.22219006255E+03  0.23679561818E+03  0.80419002446E+02 0.  1.
        -24    1    1    2    0    0  0.11819875624E+01  0.15333879104E+02  0.70347796752E+02  0.10794699350E+03  0.80419002446E+02 0.  0.
<mgrwt>
<rscale>  0 0.81876376E+02</rscale>
<asrwt>0</asrwt>
<pdfrwt beam="1">  1        2 0.49021572E-01 0.81876376E+02</pdfrwt>
<pdfrwt beam="2">  1       -2 0.40157504E-02 0.81876376E+02</pdfrwt>
<totfact> 0.24681292E+04</totfact>
</mgrwt>
</event>
<event>
 4    1  0.6602701E-002  0.9393466E+02  0.7546771E-02  0.1293594E+00
          1   -1    0    0  501    0  0.00000000000E+00  0.00000000000E+00  0.26024445580E+03  0.26024445580E+03  0.00000000000E+00 0. -1.
         -1   -1    0    0    0  501 -0.00000000000E+00 -0.00000000000E+00 -0.67020710600E+02  0.67020710600E+02  0.00000000000E+00 0.  1.
         24    1    1    2    0    0  0.34862704562E+02  0.33780114561E+02 -0.18409616548E+02  0.95721649824E+02  0.80419002446E+02 0.  1.
        -24    1    1    2    0    0 -0.34862704562E+02 -0.33780114561E+02  0.21163336175E+03  0.23154351658E+03  0.80419002446E+02 0. -1.
<mgrwt>
<rscale>  0 0.93934660E+02</rscale>
<asrwt>0</asrwt>
<pdfrwt beam="1">  1        1 0.40037608E-01 0.93934660E+02</pdfrwt>
<pdfrwt beam="2">  1       -1 0.10310879E-01 0.93934660E+02</pdfrwt>
<totfact> 0.56819946E+03</totfact>
</mgrwt>
</event>
<event>
 4    1  0.6602701E-002  0.1030910E+03  0.7546771E-02  0.1273927E+00
          1   -1    0    0  501    0  0.00000000000E+00  0.00000000000E+00  0.32408145324E+03  0.32408145324E+03  0.00000000000E+00 0. -1.
         -1   -1    0    0    0  501 -0.00000000000E+00 -0.00000000000E+00 -0.70506727709E+02  0.70506727709E+02  0.00000000000E+00 0.  1.
         24    1    1    2    0    0 -0.63517835155E+02 -0.11225868676E+02 -0.17505846279E+02  0.10456675437E+03  0.80419002446E+02 0.  1.
        -24    1    1    2    0    0  0.63517835155E+02  0.11225868676E+02  0.27108057181E+03  0.29002142659E+03  0.80419002446E+02 0. -1.
<mgrwt>
<rscale>  0 0.10309099E+03</rscale>
<asrwt>0</asrwt>
<pdfrwt beam="1">  1        1 0.49858684E-01 0.10309099E+03</pdfrwt>
<pdfrwt beam="2">  1       -1 0.10847189E-01 0.10309099E+03</pdfrwt>
<totfact> 0.40461856E+03</totfact>
</mgrwt>
</event>
<event>
 4    1  0.6602701E-002  0.8383892E+02  0.7546771E-02  0.1318497E+00
         -1   -1    0    0    0  501 -0.00000000000E+00  0.00000000000E+00  0.11493583093E+02  0.11493583093E+02  0.00000000000E+00 0.  1.
          1   -1    0    0  501    0  0.00000000000E+00 -0.00000000000E+00 -0.79597243745E+03  0.79597243745E+03  0.00000000000E+00 0. -1.
         24    1    1    2    0    0 -0.19778743973E+02  0.13059441997E+02 -0.19790682106E+03  0.21493271858E+03  0.80419002446E+02 0.  1.
        -24    1    1    2    0    0  0.19778743973E+02 -0.13059441997E+02 -0.58657203330E+03  0.59253330197E+03  0.80419002446E+02 0. -1.
<mgrwt>
<rscale>  0 0.83838915E+02</rscale>
<asrwt>0</asrwt>
<pdfrwt beam="1">  1        1 0.12245733E+00 0.83838915E+02</pdfrwt>
<pdfrwt beam="2">  1       -1 0.17682430E-02 0.83838915E+02</pdfrwt>
<totfact> 0.17403826E+04</totfact>
</mgrwt>
</event>
<event>
 4    1  0.6602701E-002  0.8593340E+02  0.7546771E-02  0.1313009E+00
          1   -1    0    0  501    0  0.00000000000E+00  0.00000000000E+00  0.14069024447E+04  0.14069024447E+04  0.00000000000E+00 0. -1.
         -1   -1    0    0    0  501 -0.00000000000E+00 -0.00000000000E+00 -0.15518556615E+02  0.15518556615E+02  0.00000000000E+00 0.  1.
         24    1    1    2    0    0 -0.41152804468E+01  0.30006628346E+02  0.11712638394E+03  0.14526919511E+03  0.80419002446E+02 0.  1.
        -24    1    1    2    0    0  0.41152804468E+01 -0.30006628346E+02  0.12742575041E+04  0.12771518062E+04  0.80419002446E+02 0. -1.
<mgrwt>
<rscale>  0 0.85933400E+02</rscale>
<asrwt>0</asrwt>
<pdfrwt beam="1">  1        1 0.21644643E+00 0.85933400E+02</pdfrwt>
<pdfrwt beam="2">  1       -1 0.23874714E-02 0.85933400E+02</pdfrwt>
<totfact> 0.42357663E+03</totfact>
</mgrwt>
</event>
<event>
 4    1  0.6602701E-002  0.9841807E+02  0.7546771E-02  0.1283658E+00
         -3   -1    0    0    0  501 -0.00000000000E+00  0.00000000000E+00  0.41163309498E+03  0.41163309498E+03  0.00000000000E+00 0.  1.
          3   -1    0    0  501    0  0.00000000000E+00 -0.00000000000E+00 -0.24034519926E+02  0.24034519926E+02  0.00000000000E+00 0. -1.
         24    1    1    2    0    0 -0.10891791945E+02  0.55680067234E+02  0.22533032715E+03  0.24588589490E+03  0.80419002446E+02 0.  0.
        -24    1    1    2    0    0  0.10891791945E+02 -0.55680067234E+02  0.16226824790E+03  0.18978172001E+03  0.80419002446E+02 0.  1.
<mgrwt>
<rscale>  0 0.98418072E+02</rscale>
<asrwt>0</asrwt>
<pdfrwt beam="1">  1        3 0.36976188E-02 0.98418072E+02</pdfrwt>
<pdfrwt beam="2">  1       -3 0.63328163E-01 0.98418072E+02</pdfrwt>
<totfact> 0.19530721E+03</totfact>
</mgrwt>
</event>
<event>
 4    1  0.6602701E-002  0.8164284E+02  0.7546771E-02  0.1324453E+00
          2   -1    0    0  501    0  0.00000000000E+00  0.00000000000E+00  0.46886600181E+03  0.46886600181E+03  0.00000000000E+00 0. -1.
         -2   -1    0    0    0  501 -0.00000000000E+00 -0.00000000000E+00 -0.22195322076E+02  0.22195322076E+02  0.00000000000E+00 0.  1.
         24    1    1    2    0    0 -0.73221939238E+00  0.14064154074E+02  0.37054933539E+03  0.37943690186E+03  0.80419002446E+02 0. -1.
        -24    1    1    2    0    0  0.73221939238E+00 -0.14064154074E+02  0.76121344342E+02  0.11162442203E+03  0.80419002446E+02 0.  1.
<mgrwt>
<rscale>  0 0.81642835E+02</rscale>
<asrwt>0</asrwt>
<pdfrwt beam="1">  1        2 0.72133224E-01 0.81642835E+02</pdfrwt>
<pdfrwt beam="2">  1       -2 0.34146653E-02 0.81642835E+02</pdfrwt>
<totfact> 0.20852924E+04</totfact>
</mgrwt>
</event>
<event>
 4    1  0.6602701E-002  0.1220259E+03  0.7546771E-02  0.1239792E+00
          2   -1    0    0  501    0  0.00000000000E+00  0.00000000000E+00  0.29452120213E+03  0.29452120213E+03  0.00000000000E+00 0. -1.
         -2   -1    0    0    0  501 -0.00000000000E+00 -0.00000000000E+00 -0.72731763366E+02  0.72731763366E+02  0.00000000000E+00 0.  1.
         24    1    1    2    0    0  0.89825534366E+02  0.18827299374E+02  0.21228493786E+03  0.24485751902E+03  0.80419002446E+02 0. -1.
        -24    1    1    2    0    0 -0.89825534366E+02 -0.18827299374E+02  0.95045009070E+01  0.12239544648E+03  0.80419002446E+02 0.  1.
<mgrwt>
<rscale>  0 0.12202586E+03</rscale>
<asrwt>0</asrwt>
<pdfrwt beam="1">  1        2 0.45310954E-01 0.12202586E+03</pdfrwt>
<pdfrwt beam="2">  1       -2 0.11189502E-01 0.12202586E+03</pdfrwt>
<totfact> 0.58636506E+03</totfact>
</mgrwt>
</event>
<event>
 4    1  0.6602701E-002  0.1712215E+03  0.7546771E-02  0.1176580E+00
         -2   -1    0    0    0  501 -0.00000000000E+00  0.00000000000E+00  0.37801481734E+02  0.37801481734E+02  0.00000000000E+00 0.  1.
          2   -1    0    0  501    0  0.00000000000E+00 -0.00000000000E+00 -0.81169353024E+03  0.81169353024E+03  0.00000000000E+00 0. -1.
         24    1    1    2    0    0 -0.54605623572E+02  0.14095316897E+03 -0.47658036590E+03  0.50640461203E+03  0.80419002446E+02 0. -1.
        -24    1    1    2    0    0  0.54605623572E+02 -0.14095316897E+03 -0.29731168260E+03  0.34309039994E+03  0.80419002446E+02 0.  0.
<mgrwt>
<rscale>  0 0.17122145E+03</rscale>
<asrwt>0</asrwt>
<pdfrwt beam="1">  1        2 0.12487593E+00 0.17122145E+03</pdfrwt>
<pdfrwt beam="2">  1       -2 0.58156126E-02 0.17122145E+03</pdfrwt>
<totfact> 0.53021049E+03</totfact>
</mgrwt>
</event>
<event>
 4    1  0.6602701E-002  0.8426249E+02  0.7546771E-02  0.1317373E+00
         -1   -1    0    0    0  501 -0.00000000000E+00  0.00000000000E+00  0.48082154440E+02  0.48082154440E+02  0.00000000000E+00 0.  1.
          1   -1    0    0  501    0  0.00000000000E+00 -0.00000000000E+00 -0.20472278850E+03  0.20472278850E+03  0.00000000000E+00 0. -1.
         24    1    1    2    0    0  0.22002199045E+01 -0.25062114091E+02 -0.11590363193E+02  0.85055881652E+02  0.80419002446E+02 0.  1.
        -24    1    1    2    0    0 -0.22002199045E+01  0.25062114091E+02 -0.14505027087E+03  0.16774906129E+03  0.80419002446E+02 0. -1.
<mgrwt>
<rscale>  0 0.84262486E+02</rscale>
<asrwt>0</asrwt>
<pdfrwt beam="1">  1        1 0.31495813E-01 0.84262486E+02</pdfrwt>
<pdfrwt beam="2">  1       -1 0.73972548E-02 0.84262486E+02</pdfrwt>
<totfact> 0.12412085E+04</totfact>
</mgrwt>
</event>
<event>
 4    1  0.6602701E-002  0.2086229E+03  0.7546771E-02  0.1142661E+00
         -1   -1    0    0    0  501 -0.00000000000E+00  0.00000000000E+00  0.25294003249E+03  0.25294003249E+03  0.00000000000E+00 0.  1.
          1   -1    0    0  501    0  0.00000000000E+00 -0.00000000000E+00 -0.23107834170E+03  0.23107834170E+03  0.00000000000E+00 0. -1.
         24    1    1    2    0    0  0.19245604445E+03  0.41176657910E+01  0.13322546600E+03  0.24753287653E+03  0.80419002446E+02 0.  1.
        -24    1    1    2    0    0 -0.19245604445E+03 -0.41176657910E+01 -0.11136377521E+03  0.23648549765E+03  0.80419002446E+02 0. -1.
<mgrwt>
<rscale>  0 0.20862287E+03</rscale>
<asrwt>0</asrwt>
<pdfrwt beam="1">  1        1 0.35550514E-01 0.20862287E+03</pdfrwt>
<pdfrwt beam="2">  1       -1 0.38913851E-01 0.20862287E+03</pdfrwt>
<totfact> 0.79206171E+02</totfact>
</mgrwt>
</event>
<event>
 4    1  0.6602701E-002  0.1347209E+03  0.7546771E-02  0.1220614E+00
         -2   -1    0    0    0  501 -0.00000000000E+00  0.00000000000E+00  0.39118795086E+02  0.39118795086E+02  0.00000000000E+00 0.  1.
          2   -1    0    0  501    0  0.00000000000E+00 -0.00000000000E+00 -0.12420417089E+04  0.12420417089E+04  0.00000000000E+00 0. -1.
         24    1    1    2    0    0  0.47761687969E+02 -0.96960379190E+02 -0.11084719668E+04  0.11166287705E+04  0.80419002446E+02 0. -1.
        -24    1    1    2    0    0 -0.47761687969E+02  0.96960379190E+02 -0.94450946959E+02  0.16453173343E+03  0.80419002446E+02 0.  1.
<mgrwt>
<rscale>  0 0.13472086E+03</rscale>
<asrwt>0</asrwt>
<pdfrwt beam="1">  1        2 0.19108335E+00 0.13472086E+03</pdfrwt>
<pdfrwt beam="2">  1       -2 0.60182760E-02 0.13472086E+03</pdfrwt>
<totfact> 0.27621891E+03</totfact>
</mgrwt>
</event>
<event>
 4    1  0.6602701E-002  0.1161919E+03  0.7546771E-02  0.1249515E+00
         -1   -1    0    0    0  501 -0.00000000000E+00  0.00000000000E+00  0.23923639854E+03  0.23923639854E+03  0.00000000000E+00 0.  1.
          1   -1    0    0  501    0  0.00000000000E+00 -0.00000000000E+00 -0.61124685445E+02  0.61124685445E+02  0.00000000000E+00 0. -1.
         24    1    1    2    0    0 -0.83739103824E+02  0.45935260334E+01  0.13066825450E+03  0.17485636014E+03  0.80419002446E+02 0.  0.
        -24    1    1    2    0    0  0.83739103824E+02 -0.45935260334E+01  0.47443458588E+02  0.12550472385E+03  0.80419002446E+02 0. -1.
<mgrwt>
<rscale>  0 0.11619188E+03</rscale>
<asrwt>0</asrwt>
<pdfrwt beam="1">  1        1 0.94037979E-02 0.11619188E+03</pdfrwt>
<pdfrwt beam="2">  1       -1 0.36805599E-01 0.11619188E+03</pdfrwt>
<totfact> 0.47174816E+03</totfact>
</mgrwt>
</event>
<event>
 4    1  0.6602701E-002  0.1103328E+03  0.7546771E-02  0.1259955E+00
          2   -1    0    0  501    0  0.00000000000E+00  0.00000000000E+00  0.13258428718E+04  0.13258428718E+04  0.00000000000E+00 0. -1.
         -2   -1    0    0    0  501 -0.00000000000E+00 -0.00000000000E+00 -0.21484692754E+02  0.21484692754E+02  0.00000000000E+00 0.  1.
         24    1    1    2    0    0  0.53657875409E+02 -0.53168935037E+02  0.11619632101E+04  0.11671897108E+04  0.80419002446E+02 0. -1.
        -24    1    1    2    0    0 -0.53657875409E+02  0.53168935037E+02  0.14239496895E+03  0.18013785383E+03  0.80419002446E+02 0.  1.
<mgrwt>
<rscale>  0 0.11033277E+03</rscale>
<asrwt>0</asrwt>
<pdfrwt beam="1">  1        2 0.20397576E+00 0.11033277E+03</pdfrwt>
<pdfrwt beam="2">  1       -2 0.33053384E-02 0.11033277E+03</pdfrwt>
<totfact> 0.60467941E+03</totfact>
</mgrwt>
</event>
<event>
 4    1  0.6602701E-002  0.1024894E+03  0.7546771E-02  0.1275146E+00
          1   -1    0    0  501    0  0.00000000000E+00  0.00000000000E+00  0.28694190921E+02  0.28694190921E+02  0.00000000000E+00 0. -1.
         -1   -1    0    0    0  501 -0.00000000000E+00 -0.00000000000E+00 -0.36797489713E+03  0.36797489713E+03  0.00000000000E+00 0.  1.
         24    1    1    2    0    0 -0.49107977648E+02  0.40314710748E+02 -0.18391001509E+03  0.21053973253E+03  0.80419002446E+02 0.  0.
        -24    1    1    2    0    0  0.49107977648E+02 -0.40314710748E+02 -0.15537069112E+03  0.18612935552E+03  0.80419002446E+02 0. -1.
<mgrwt>
<rscale>  0 0.10248944E+03</rscale>
<asrwt>0</asrwt>
<pdfrwt beam="1">  1        1 0.44144910E-02 0.10248944E+03</pdfrwt>
<pdfrwt beam="2">  1       -1 0.56611521E-01 0.10248944E+03</pdfrwt>
<totfact> 0.59855502E+03</totfact>
</mgrwt>
</event>
<event>
 4    1  0.6602701E-002  0.1221260E+03  0.7546771E-02  0.1239630E+00
         -2   -1    0    0    0  501 -0.00000000000E+00  0.00000000000E+00  0.10419859158E+02  0.10419859158E+02  0.00000000000E+00 0.  1.
          2   -1    0    0  501    0  0.00000000000E+00 -0.00000000000E+00 -0.28185168496E+04  0.28185168496E+04  0.00000000000E+00 0. -1.
         24    1    1    2    0    0 -0.79149028716E+02  0.46722449584E+02 -0.23963477439E+04  0.23994577057E+04  0.80419002446E+02 0. -1.
        -24    1    1    2    0    0  0.79149028716E+02 -0.46722449584E+02 -0.41174924658E+03  0.42947900304E+03  0.80419002446E+02 0.  1.
<mgrwt>
<rscale>  0 0.12212605E+03</rscale>
<asrwt>0</asrwt>
<pdfrwt beam="1">  1        2 0.43361786E+00 0.12212605E+03</pdfrwt>
<pdfrwt beam="2">  1       -2 0.16030557E-02 0.12212605E+03</pdfrwt>
<totfact> 0.28903827E+03</totfact>
</mgrwt>
</event>
<event>
 4    1  0.6602701E-002  0.1041481E+03  0.7546771E-02  0.1271807E+00
         -1   -1    0    0    0  501 -0.00000000000E+00  0.00000000000E+00  0.37683667161E+02  0.37683667161E+02  0.00000000000E+00 0.  1.
          1   -1    0    0  501    0  0.00000000000E+00 -0.00000000000E+00 -0.30987700121E+03  0.30987700121E+03  0.00000000000E+00 0. -1.
         24    1    1    2    0    0 -0.65784822616E+02 -0.72082166744E+01 -0.89752492205E+02  0.13748573412E+03  0.80419002446E+02 0.  0.
        -24    1    1    2    0    0  0.65784822616E+02  0.72082166744E+01 -0.18244084184E+03  0.21007493425E+03  0.80419002446E+02 0. -1.
<mgrwt>
<rscale>  0 0.10414805E+03</rscale>
<asrwt>0</asrwt>
<pdfrwt beam="1">  1        1 0.47673386E-01 0.10414805E+03</pdfrwt>
<pdfrwt beam="2">  1       -1 0.57974871E-02 0.10414805E+03</pdfrwt>
<totfact> 0.10935883E+04</totfact>
</mgrwt>
</event>
<event>
 4    1  0.6602701E-002  0.9664689E+02  0.7546771E-02  0.1287509E+00
         -2   -1    0    0    0  501 -0.00000000000E+00  0.00000000000E+00  0.46785693134E+01  0.46785693134E+01  0.00000000000E+00 0.  1.
          2   -1    0    0  501    0  0.00000000000E+00 -0.00000000000E+00 -0.25096837265E+04  0.25096837265E+04  0.00000000000E+00 0. -1.
         24    1    1    2    0    0 -0.16949813834E+02  0.50853808010E+02 -0.18210119343E+04  0.18235748097E+04  0.80419002446E+02 0. -1.
        -24    1    1    2    0    0  0.16949813834E+02 -0.50853808010E+02 -0.68399322295E+03  0.69078748612E+03  0.80419002446E+02 0.  1.
<mgrwt>
<rscale>  0 0.96646893E+02</rscale>
<asrwt>0</asrwt>
<pdfrwt beam="1">  1        2 0.38610633E+00 0.96646893E+02</pdfrwt>
<pdfrwt beam="2">  1       -2 0.71977776E-03 0.96646893E+02</pdfrwt>
<totfact> 0.13259072E+04</totfact>
</mgrwt>
</event>
<event>
 4    1  0.6602701E-002  0.8661199E+02  0.7546771E-02  0.1311270E+00
          2   -1    0    0  501    0  0.00000000000E+00  0.00000000000E+00  0.10599690829E+03  0.10599690829E+03  0.00000000000E+00 0. -1.
         -2   -1    0    0    0  501 -0.00000000000E+00 -0.00000000000E+00 -0.71127519306E+02  0.71127519306E+02  0.00000000000E+00 0.  1.
         24    1    1    2    0    0  0.27241975785E+02  0.17096677155E+02  0.23693921816E+02  0.89794429114E+02  0.80419002446E+02 0.  0.
        -24    1    1    2    0    0 -0.27241975785E+02 -0.17096677155E+02  0.11175467170E+02  0.87329998484E+02  0.80419002446E+02 0. -1.
<mgrwt>
<rscale>  0 0.86611994E+02</rscale>
<asrwt>0</asrwt>
<pdfrwt beam="1">  1        2 0.16307217E-01 0.86611994E+02</pdfrwt>
<pdfrwt beam="2">  1       -2 0.10942695E-01 0.86611994E+02</pdfrwt>
<totfact> 0.17938495E+04</totfact>
</mgrwt>
</event>
<event>
 4    1  0.6602701E-002  0.1109002E+03  0.7546771E-02  0.1258912E+00
         -1   -1    0    0    0  501 -0.00000000000E+00  0.00000000000E+00  0.30687902862E+02  0.30687902862E+02  0.00000000000E+00 0.  1.
          1   -1    0    0  501    0  0.00000000000E+00 -0.00000000000E+00 -0.42227367639E+03  0.42227367639E+03  0.00000000000E+00 0. -1.
         24    1    1    2    0    0 -0.37944262728E+01 -0.76270863888E+02 -0.14468728341E+03  0.18229994044E+03  0.80419002446E+02 0.  1.
        -24    1    1    2    0    0  0.37944262728E+01  0.76270863888E+02 -0.24689849012E+03  0.27066163881E+03  0.80419002446E+02 0. -1.
<mgrwt>
<rscale>  0 0.11090022E+03</rscale>
<asrwt>0</asrwt>
<pdfrwt beam="1">  1        1 0.64965183E-01 0.11090022E+03</pdfrwt>
<pdfrwt beam="2">  1       -1 0.47212157E-02 0.11090022E+03</pdfrwt>
<totfact> 0.10130007E+04</totfact>
</mgrwt>
</event>
<event>
 4    1  0.6602701E-002  0.8218516E+02  0.7546771E-02  0.1322962E+00
         -3   -1    0    0    0  501 -0.00000000000E+00  0.00000000000E+00  0.96042494795E+03  0.96042494795E+03  0.00000000000E+00 0.  1.
          3   -1    0    0  501    0  0.00000000000E+00 -0.00000000000E+00 -0.85564300519E+01  0.85564300519E+01  0.00000000000E+00 0. -1.
         24    1    1    2    0    0 -0.15362450635E+02 -0.71539967779E+01  0.68038570398E+03  0.68533138459E+03  0.80419002446E+02 0.  0.
        -24    1    1    2    0    0  0.15362450635E+02  0.71539967779E+01  0.27148281392E+03  0.28364999342E+03  0.80419002446E+02 0. -1.
<mgrwt>
<rscale>  0 0.82185160E+02</rscale>
<asrwt>0</asrwt>
<pdfrwt beam="1">  1        3 0.13163746E-02 0.82185160E+02</pdfrwt>
<pdfrwt beam="2">  1       -3 0.14775760E+00 0.82185160E+02</pdfrwt>
<totfact> 0.13523876E+03</totfact>
</mgrwt>
</event>
<event>
 4    1  0.6602701E-002  0.8539734E+02  0.7546771E-02  0.1314397E+00
         -2   -1    0    0    0  501 -0.00000000000E+00  0.00000000000E+00  0.56213098935E+03  0.56213098935E+03  0.00000000000E+00 0.  1.
          2   -1    0    0  501    0  0.00000000000E+00 -0.00000000000E+00 -0.28947111322E+02  0.28947111322E+02  0.00000000000E+00 0. -1.
         24    1    1    2    0    0  0.14493522398E+02 -0.24807815648E+02  0.47050632080E+02  0.97501117133E+02  0.80419002446E+02 0. -1.
        -24    1    1    2    0    0 -0.14493522398E+02  0.24807815648E+02  0.48613324595E+03  0.49357698354E+03  0.80419002446E+02 0.  1.
<mgrwt>
<rscale>  0 0.85397341E+02</rscale>
<asrwt>0</asrwt>
<pdfrwt beam="1">  1        2 0.44534022E-02 0.85397341E+02</pdfrwt>
<pdfrwt beam="2">  1       -2 0.86481683E-01 0.85397341E+02</pdfrwt>
<totfact> 0.20395575E+03</totfact>
</mgrwt>
</event>
<event>
 4    1  0.6602701E-002  0.1295639E+03  0.7546771E-02  0.1228104E+00
         -1   -1    0    0    0  501 -0.00000000000E+00  0.00000000000E+00  0.14129980459E+02  0.14129980459E+02  0.00000000000E+00 0.  1.
          1   -1    0    0  501    0  0.00000000000E+00 -0.00000000000E+00 -0.12225338586E+04  0.12225338586E+04  0.00000000000E+00 0. -1.
         24    1    1    2    0    0 -0.75835221723E+02 -0.67591431908E+02 -0.50031909054E+03  0.51682297824E+03  0.80419002446E+02 0. -1.
        -24    1    1    2    0    0  0.75835221723E+02  0.67591431908E+02 -0.70808478760E+03  0.71984086082E+03  0.80419002446E+02 0.  1.
<mgrwt>
<rscale>  0 0.12956388E+03</rscale>
<asrwt>0</asrwt>
<pdfrwt beam="1">  1        1 0.18808216E+00 0.12956388E+03</pdfrwt>
<pdfrwt beam="2">  1       -1 0.21738428E-02 0.12956388E+03</pdfrwt>
<totfact> 0.65206137E+03</totfact>
</mgrwt>
</event>
<event>
 4    1  0.6602701E-002  0.8327899E+02  0.7546771E-02  0.1319996E+00
         -1   -1    0    0    0  501 -0.00000000000E+00  0.00000000000E+00  0.40108442068E+01  0.40108442068E+01  0.00000000000E+00 0.  1.
          1   -1    0    0  501    0  0.00000000000E+00 -0.00000000000E+00 -0.19079552468E+04  0.19079552468E+04  0.00000000000E+00 0. -1.
         24    1    1    2    0    0 -0.20252541125E+02 -0.76163604005E+01 -0.65932498348E+03  0.66456363439E+03  0.80419002446E+02 0.  0.
        -24    1    1    2    0    0  0.20252541125E+02  0.76163604005E+01 -0.12446194191E+04  0.12474024566E+04  0.80419002446E+02 0.  1.
<mgrwt>
<rscale>  0 0.83278991E+02</rscale>
<asrwt>0</asrwt>
<pdfrwt beam="1">  1        1 0.29353223E+00 0.83278991E+02</pdfrwt>
<pdfrwt beam="2">  1       -1 0.61705157E-03 0.83278991E+02</pdfrwt>
<totfact> 0.13818691E+04</totfact>
</mgrwt>
</event>
<event>
 4    1  0.6602701E-002  0.1217073E+03  0.7546771E-02  0.1240307E+00
         -1   -1    0    0    0  501 -0.00000000000E+00  0.00000000000E+00  0.15938084269E+03  0.15938084269E+03  0.00000000000E+00 0.  1.
          1   -1    0    0  501    0  0.00000000000E+00 -0.00000000000E+00 -0.18403269468E+03  0.18403269468E+03  0.00000000000E+00 0. -1.
         24    1    1    2    0    0 -0.15065750617E+02  0.90102599122E+02  0.10847894748E+03  0.16303482208E+03  0.80419002446E+02 0.  1.
        -24    1    1    2    0    0  0.15065750617E+02 -0.90102599122E+02 -0.13313079947E+03  0.18037871529E+03  0.80419002446E+02 0. -1.
<mgrwt>
<rscale>  0 0.12170732E+03</rscale>
<asrwt>0</asrwt>
<pdfrwt beam="1">  1        1 0.28312722E-01 0.12170732E+03</pdfrwt>
<pdfrwt beam="2">  1       -1 0.24520130E-01 0.12170732E+03</pdfrwt>
<totfact> 0.22717708E+03</totfact>
</mgrwt>
</event>
<event>
 4    1  0.6602701E-002  0.1021641E+03  0.7546771E-02  0.1275810E+00
          1   -1    0    0  501    0  0.00000000000E+00  0.00000000000E+00  0.88723665191E+03  0.88723665191E+03  0.00000000000E+00 0. -1.
         -1   -1    0    0    0  501 -0.00000000000E+00 -0.00000000000E+00 -0.13812786621E+02  0.13812786621E+02  0.00000000000E+00 0.  1.
         24    1    1    2    0    0 -0.62828632515E+02 -0.47797602105E+01  0.26320345270E+03  0.28233589329E+03  0.80419002446E+02 0.  1.
        -24    1    1    2    0    0  0.62828632515E+02  0.47797602105E+01  0.61022041258E+03  0.61871354524E+03  0.80419002446E+02 0. -1.
<mgrwt>
<rscale>  0 0.10216408E+03</rscale>
<asrwt>0</asrwt>
<pdfrwt beam="1">  1        1 0.13649790E+00 0.10216408E+03</pdfrwt>
<pdfrwt beam="2">  1       -1 0.21250448E-02 0.10216408E+03</pdfrwt>
<totfact> 0.11541405E+04</totfact>
</mgrwt>
</event>
<event>
 4    1  0.6602701E-002  0.9189572E+02  0.7546771E-02  0.1298325E+00
          2   -1    0    0  501    0  0.00000000000E+00  0.00000000000E+00  0.60978263171E+03  0.60978263171E+03  0.00000000000E+00 0. -1.
         -2   -1    0    0    0  501 -0.00000000000E+00 -0.00000000000E+00 -0.13850684899E+02  0.13850684899E+02  0.00000000000E+00 0.  1.
         24    1    1    2    0    0 -0.18435952130E+02 -0.40468736559E+02  0.29442662365E+03  0.30843452407E+03  0.80419002446E+02 0.  0.
        -24    1    1    2    0    0  0.18435952130E+02  0.40468736559E+02  0.30150532316E+03  0.31519879254E+03  0.80419002446E+02 0.  1.
<mgrwt>
<rscale>  0 0.91895707E+02</rscale>
<asrwt>0</asrwt>
<pdfrwt beam="1">  1        2 0.93812692E-01 0.91895719E+02</pdfrwt>
<pdfrwt beam="2">  1       -2 0.21308751E-02 0.91895719E+02</pdfrwt>
<totfact> 0.31364503E+04</totfact>
</mgrwt>
</event>
<event>
 4    1  0.6602701E-002  0.1059594E+03  0.7546771E-02  0.1268241E+00
         -2   -1    0    0    0  501 -0.00000000000E+00  0.00000000000E+00  0.94735933884E+01  0.94735933884E+01  0.00000000000E+00 0.  1.
          2   -1    0    0  501    0  0.00000000000E+00 -0.00000000000E+00 -0.18065776620E+04  0.18065776620E+04  0.00000000000E+00 0. -1.
         24    1    1    2    0    0  0.67614731877E+02 -0.13726595045E+02 -0.14311187248E+04  0.14350359549E+04  0.80419002446E+02 0.  0.
        -24    1    1    2    0    0 -0.67614731877E+02  0.13726595045E+02 -0.36598534375E+03  0.38101530044E+03  0.80419002446E+02 0.  0.
<mgrwt>
<rscale>  0 0.10595937E+03</rscale>
<asrwt>0</asrwt>
<pdfrwt beam="1">  1        2 0.27793471E+00 0.10595937E+03</pdfrwt>
<pdfrwt beam="2">  1       -2 0.14574775E-02 0.10595937E+03</pdfrwt>
<totfact> 0.11184967E+04</totfact>
</mgrwt>
</event>
<event>
 4    1  0.6602701E-002  0.9342523E+02  0.7546771E-02  0.1294763E+00
         -1   -1    0    0    0  501 -0.00000000000E+00  0.00000000000E+00  0.32366165232E+03  0.32366165232E+03  0.00000000000E+00 0.  1.
          1   -1    0    0  501    0  0.00000000000E+00 -0.00000000000E+00 -0.42468423208E+02  0.42468423208E+02  0.00000000000E+00 0. -1.
         24    1    1    2    0    0 -0.42898414846E+02 -0.20513002031E+02  0.25119639313E+03  0.26800727812E+03  0.80419002446E+02 0.  1.
        -24    1    1    2    0    0  0.42898414846E+02  0.20513002031E+02  0.29996835986E+02  0.98122797413E+02  0.80419002446E+02 0. -1.
<mgrwt>
<rscale>  0 0.93425228E+02</rscale>
<asrwt>0</asrwt>
<pdfrwt beam="1">  1        1 0.65336038E-02 0.93425228E+02</pdfrwt>
<pdfrwt beam="2">  1       -1 0.49794099E-01 0.93425228E+02</pdfrwt>
<totfact> 0.44278818E+03</totfact>
</mgrwt>
</event>
<event>
 4    1  0.6602701E-002  0.9970238E+02  0.7546771E-02  0.1280923E+00
         -1   -1    0    0    0  501 -0.00000000000E+00  0.00000000000E+00  0.99330068529E+02  0.99330068529E+02  0.00000000000E+00 0.  1.
          1   -1    0    0  501    0  0.00000000000E+00 -0.00000000000E+00 -0.18299846164E+03  0.18299846164E+03  0.00000000000E+00 0. -1.
         24    1    1    2    0    0 -0.22811599003E+02  0.54341319117E+02  0.53190596712E+02  0.11300355545E+03  0.80419002446E+02 0.  1.
        -24    1    1    2    0    0  0.22811599003E+02 -0.54341319117E+02 -0.13685898982E+03  0.16932497471E+03  0.80419002446E+02 0. -1.
<mgrwt>
<rscale>  0 0.99702377E+02</rscale>
<asrwt>0</asrwt>
<pdfrwt beam="1">  1        1 0.28153609E-01 0.99702377E+02</pdfrwt>
<pdfrwt beam="2">  1       -1 0.15281549E-01 0.99702377E+02</pdfrwt>
<totfact> 0.48059271E+03</totfact>
</mgrwt>
</event>
<event>
 4    1  0.6602701E-002  0.9574209E+02  0.7546771E-02  0.1289513E+00
          1   -1    0    0  501    0  0.00000000000E+00  0.00000000000E+00  0.58367347166E+03  0.58367347166E+03  0.00000000000E+00 0. -1.
         -1   -1    0    0    0  501 -0.00000000000E+00 -0.00000000000E+00 -0.15797322197E+02  0.15797322197E+02  0.00000000000E+00 0.  1.
         24    1    1    2    0    0 -0.51932038406E+02  0.15461447494E+01  0.30686235385E+03  0.32145146965E+03  0.80419002446E+02 0. -1.
        -24    1    1    2    0    0  0.51932038406E+02 -0.15461447494E+01  0.26101379562E+03  0.27801932421E+03  0.80419002446E+02 0.  1.
<mgrwt>
<rscale>  0 0.95742078E+02</rscale>
<asrwt>0</asrwt>
<pdfrwt beam="1">  1        1 0.89795902E-01 0.95742090E+02</pdfrwt>
<pdfrwt beam="2">  1       -1 0.24303577E-02 0.95742090E+02</pdfrwt>
<totfact> 0.17255911E+04</totfact>
</mgrwt>
</event>
<event>
 4    1  0.6602701E-002  0.8659743E+02  0.7546771E-02  0.1311307E+00
         -2   -1    0    0    0  501 -0.00000000000E+00  0.00000000000E+00  0.77719595622E+01  0.77719595622E+01  0.00000000000E+00 0.  1.
          2   -1    0    0  501    0  0.00000000000E+00 -0.00000000000E+00 -0.12157837377E+04  0.12157837377E+04  0.00000000000E+00 0. -1.
         24    1    1    2    0    0  0.29370243215E+02  0.13011055635E+02 -0.88191789150E+03  0.88615928707E+03  0.80419002446E+02 0. -1.
        -24    1    1    2    0    0 -0.29370243215E+02 -0.13011055635E+02 -0.32609388665E+03  0.33739641021E+03  0.80419002446E+02 0.  1.
<mgrwt>
<rscale>  0 0.86597429E+02</rscale>
<asrwt>0</asrwt>
<pdfrwt beam="1">  1        2 0.18704378E+00 0.86597429E+02</pdfrwt>
<pdfrwt beam="2">  1       -2 0.11956853E-02 0.86597429E+02</pdfrwt>
<totfact> 0.29481393E+04</totfact>
</mgrwt>
</event>
<event>
 4    1  0.6602701E-002  0.1186521E+03  0.7546771E-02  0.1245337E+00
          1   -1    0    0  501    0  0.00000000000E+00  0.00000000000E+00  0.17058963319E+03  0.17058963319E+03  0.00000000000E+00 0. -1.
         -1   -1    0    0    0  501 -0.00000000000E+00 -0.00000000000E+00 -0.99144933910E+02  0.99144933910E+02  0.00000000000E+00 0.  1.
         24    1    1    2    0    0 -0.83121499893E+02 -0.26493704475E+02 -0.19492367177E+02  0.12024254012E+03  0.80419002446E+02 0.  0.
        -24    1    1    2    0    0  0.83121499893E+02  0.26493704475E+02  0.90937066456E+02  0.14949202698E+03  0.80419002446E+02 0. -1.
<mgrwt>
<rscale>  0 0.11865208E+03</rscale>
<asrwt>0</asrwt>
<pdfrwt beam="1">  1        1 0.26244559E-01 0.11865208E+03</pdfrwt>
<pdfrwt beam="2">  1       -1 0.15253067E-01 0.11865208E+03</pdfrwt>
<totfact> 0.53203017E+03</totfact>
</mgrwt>
</event>
<event>
 4    1  0.6602701E-002  0.8678176E+02  0.7546771E-02  0.1310838E+00
         -2   -1    0    0    0  501 -0.00000000000E+00  0.00000000000E+00  0.12222809549E+02  0.12222809549E+02  0.00000000000E+00 0.  1.
          2   -1    0    0  501    0  0.00000000000E+00 -0.00000000000E+00 -0.61714674260E+03  0.61714674260E+03  0.00000000000E+00 0. -1.
         24    1    1    2    0    0  0.26227090982E+02 -0.19390642079E+02 -0.31511417344E+03  0.32684555307E+03  0.80419002446E+02 0. -1.
        -24    1    1    2    0    0 -0.26227090982E+02  0.19390642079E+02 -0.28980975961E+03  0.30252399909E+03  0.80419002446E+02 0.  1.
<mgrwt>
<rscale>  0 0.86781756E+02</rscale>
<asrwt>0</asrwt>
<pdfrwt beam="1">  1        2 0.94945677E-01 0.86781756E+02</pdfrwt>
<pdfrwt beam="2">  1       -2 0.18804318E-02 0.86781756E+02</pdfrwt>
<totfact> 0.36791492E+04</totfact>
</mgrwt>
</event>
<event>
 4    1  0.6602701E-002  0.8657740E+02  0.7546771E-02  0.1311358E+00
          3   -1    0    0  501    0  0.00000000000E+00  0.00000000000E+00  0.78853303719E+03  0.78853303719E+03  0.00000000000E+00 0. -1.
         -3   -1    0    0    0  501 -0.00000000000E+00 -0.00000000000E+00 -0.10035246522E+02  0.10035246522E+02  0.00000000000E+00 0.  1.
         24    1    1    2    0    0  0.13911704991E+02 -0.28894492406E+02  0.48096087182E+03  0.48869111246E+03  0.80419002446E+02 0. -1.
        -24    1    1    2    0    0 -0.13911704991E+02  0.28894492406E+02  0.29753691885E+03  0.30987717125E+03  0.80419002446E+02 0.  1.
<mgrwt>
<rscale>  0 0.86577393E+02</rscale>
<asrwt>0</asrwt>
<pdfrwt beam="1">  1        3 0.12131273E+00 0.86577404E+02</pdfrwt>
<pdfrwt beam="2">  1       -3 0.15438847E-02 0.86577404E+02</pdfrwt>
<totfact> 0.17305141E+03</totfact>
</mgrwt>
</event>
<event>
 4    1  0.6602701E-002  0.2155209E+03  0.7546771E-02  0.1137267E+00
         -1   -1    0    0    0  501 -0.00000000000E+00  0.00000000000E+00  0.39468773978E+03  0.39468773978E+03  0.00000000000E+00 0.  1.
          1   -1    0    0  501    0  0.00000000000E+00 -0.00000000000E+00 -0.18168579771E+03  0.18168579771E+03  0.00000000000E+00 0. -1.
         24    1    1    2    0    0  0.69275363148E+02  0.18757112231E+03 -0.64541073223E+02  0.22497726096E+03  0.80419002446E+02 0. -1.
        -24    1    1    2    0    0 -0.69275363148E+02 -0.18757112231E+03  0.27754301529E+03  0.35139627652E+03  0.80419002446E+02 0.  1.
<mgrwt>
<rscale>  0 0.21552083E+03</rscale>
<asrwt>0</asrwt>
<pdfrwt beam="1">  1        1 0.27951661E-01 0.21552086E+03</pdfrwt>
<pdfrwt beam="2">  1       -1 0.60721191E-01 0.21552086E+03</pdfrwt>
<totfact> 0.47314482E+02</totfact>
</mgrwt>
</event>
<event>
 4    1  0.6602701E-002  0.1329750E+03  0.7546771E-02  0.1223107E+00
          2   -1    0    0  501    0  0.00000000000E+00  0.00000000000E+00  0.30728116517E+03  0.30728116517E+03  0.00000000000E+00 0. -1.
         -2   -1    0    0    0  501 -0.00000000000E+00 -0.00000000000E+00 -0.62620316060E+02  0.62620316060E+02  0.00000000000E+00 0.  1.
         24    1    1    2    0    0 -0.78438829115E+02 -0.71151097872E+02  0.17498679079E+03  0.21977880140E+03  0.80419002446E+02 0. -1.
        -24    1    1    2    0    0  0.78438829115E+02  0.71151097872E+02  0.69674058324E+02  0.15012267983E+03  0.80419002446E+02 0.  1.
<mgrwt>
<rscale>  0 0.13297498E+03</rscale>
<asrwt>0</asrwt>
<pdfrwt beam="1">  1        2 0.47274024E-01 0.13297498E+03</pdfrwt>
<pdfrwt beam="2">  1       -2 0.96338950E-02 0.13297498E+03</pdfrwt>
<totfact> 0.71364275E+03</totfact>
</mgrwt>
</event>
<event>
 4    1  0.6602701E-002  0.8152803E+02  0.7546771E-02  0.1324770E+00
          3   -1    0    0  501    0  0.00000000000E+00  0.00000000000E+00  0.98131417972E+03  0.98131417972E+03  0.00000000000E+00 0. -1.
         -3   -1    0    0    0  501 -0.00000000000E+00 -0.00000000000E+00 -0.77595820269E+01  0.77595820269E+01  0.00000000000E+00 0.  1.
         24    1    1    2    0    0 -0.93156253448E+01 -0.96344855229E+01  0.31047375082E+03  0.32099964189E+03  0.80419002446E+02 0.  1.
        -24    1    1    2    0    0  0.93156253448E+01  0.96344855229E+01  0.66308084687E+03  0.66807411987E+03  0.80419002446E+02 0. -1.
<mgrwt>
<rscale>  0 0.81528033E+02</rscale>
<asrwt>0</asrwt>
<pdfrwt beam="1">  1        3 0.15097131E+00 0.81528033E+02</pdfrwt>
<pdfrwt beam="2">  1       -3 0.11937826E-02 0.81528033E+02</pdfrwt>
<totfact> 0.14869593E+03</totfact>
</mgrwt>
</event>
<event>
 4    1  0.6602701E-002  0.9242733E+02  0.7546771E-02  0.1297078E+00
          2   -1    0    0  501    0  0.00000000000E+00  0.00000000000E+00  0.10545361650E+03  0.10545361650E+03  0.00000000000E+00 0. -1.
         -2   -1    0    0    0  501 -0.00000000000E+00 -0.00000000000E+00 -0.81194545225E+02  0.81194545225E+02  0.00000000000E+00 0.  1.
         24    1    1    2    0    0 -0.37538330439E+02 -0.25815995044E+02  0.76815194137E+01  0.92745962430E+02  0.80419002446E+02 0.  1.
        -24    1    1    2    0    0  0.37538330439E+02  0.25815995044E+02  0.16577551860E+02  0.93902199294E+02  0.80419002446E+02 0. -1.
<mgrwt>
<rscale>  0 0.92427322E+02</rscale>
<asrwt>0</asrwt>
<pdfrwt beam="1">  1        2 0.16223633E-01 0.92427334E+02</pdfrwt>
<pdfrwt beam="2">  1       -2 0.12491468E-01 0.92427334E+02</pdfrwt>
<totfact> 0.14749670E+04</totfact>
</mgrwt>
</event>
<event>
 4    1  0.6602701E-002  0.1132402E+03  0.7546771E-02  0.1254685E+00
          1   -1    0    0  501    0  0.00000000000E+00  0.00000000000E+00  0.16219066456E+03  0.16219066456E+03  0.00000000000E+00 0. -1.
         -1   -1    0    0    0  501 -0.00000000000E+00 -0.00000000000E+00 -0.93755045107E+02  0.93755045107E+02  0.00000000000E+00 0.  1.
         24    1    1    2    0    0  0.79725181828E+02 -0.11769308928E+00 -0.16441206120E+02  0.11442747783E+03  0.80419002446E+02 0.  1.
        -24    1    1    2    0    0 -0.79725181828E+02  0.11769308928E+00  0.84876825577E+02  0.14151823184E+03  0.80419002446E+02 0. -1.
<mgrwt>
<rscale>  0 0.11324016E+03</rscale>
<asrwt>0</asrwt>
<pdfrwt beam="1">  1        1 0.24952410E-01 0.11324016E+03</pdfrwt>
<pdfrwt beam="2">  1       -1 0.14423853E-01 0.11324016E+03</pdfrwt>
<totfact> 0.61626934E+03</totfact>
</mgrwt>
</event>
<event>
 4    1  0.6602701E-002  0.1004715E+03  0.7546771E-02  0.1279308E+00
          2   -1    0    0  501    0  0.00000000000E+00  0.00000000000E+00  0.14568755112E+02  0.14568755112E+02  0.00000000000E+00 0. -1.
         -2   -1    0    0    0  501 -0.00000000000E+00 -0.00000000000E+00 -0.69300088818E+03  0.69300088818E+03  0.00000000000E+00 0.  1.
         24    1    1    2    0    0 -0.11438468295E+02  0.59130899477E+02 -0.33470367335E+03  0.34945824749E+03  0.80419002446E+02 0.  1.
        -24    1    1    2    0    0  0.11438468295E+02 -0.59130899477E+02 -0.34372845972E+03  0.35811139580E+03  0.80419002446E+02 0. -1.
<mgrwt>
<rscale>  0 0.10047148E+03</rscale>
<asrwt>0</asrwt>
<pdfrwt beam="1">  1        2 0.22413476E-02 0.10047148E+03</pdfrwt>
<pdfrwt beam="2">  1       -2 0.10661549E+00 0.10047148E+03</pdfrwt>
<totfact> 0.31957647E+03</totfact>
</mgrwt>
</event>
<event>
 4    1  0.6602701E-002  0.9877914E+02  0.7546771E-02  0.1282884E+00
          2   -1    0    0  501    0  0.00000000000E+00  0.00000000000E+00  0.20114556993E+03  0.20114556993E+03  0.00000000000E+00 0. -1.
         -2   -1    0    0    0  501 -0.00000000000E+00 -0.00000000000E+00 -0.91399558826E+02  0.91399558826E+02  0.00000000000E+00 0.  1.
         24    1    1    2    0    0  0.24533251377E+02 -0.51848064252E+02  0.15507422214E+03  0.18386226507E+03  0.80419002446E+02 0. -1.
        -24    1    1    2    0    0 -0.24533251377E+02  0.51848064252E+02 -0.45328211033E+02  0.10868286369E+03  0.80419002446E+02 0.  1.
<mgrwt>
<rscale>  0 0.98779138E+02</rscale>
<asrwt>0</asrwt>
<pdfrwt beam="1">  1        2 0.30945472E-01 0.98779138E+02</pdfrwt>
<pdfrwt beam="2">  1       -2 0.14061471E-01 0.98779138E+02</pdfrwt>
<totfact> 0.60135441E+03</totfact>
</mgrwt>
</event>
<event>
 4    1  0.6602701E-002  0.9016202E+02  0.7546771E-02  0.1302460E+00
          2   -1    0    0  501    0  0.00000000000E+00  0.00000000000E+00  0.12977972211E+04  0.12977972211E+04  0.00000000000E+00 0. -1.
         -2   -1    0    0    0  501 -0.00000000000E+00 -0.00000000000E+00 -0.10088039745E+02  0.10088039745E+02  0.00000000000E+00 0.  1.
         24    1    1    2    0    0  0.15030179218E+02  0.37895490558E+02  0.10464851214E+04  0.10503619851E+04  0.80419002446E+02 0. -1.
        -24    1    1    2    0    0 -0.15030179218E+02 -0.37895490558E+02  0.24122405996E+03  0.25752327575E+03  0.80419002446E+02 0.  1.
<mgrwt>
<rscale>  0 0.90162023E+02</rscale>
<asrwt>0</asrwt>
<pdfrwt beam="1">  1        2 0.19966098E+00 0.90162023E+02</pdfrwt>
<pdfrwt beam="2">  1       -2 0.15520071E-02 0.90162023E+02</pdfrwt>
<totfact> 0.18453611E+04</totfact>
</mgrwt>
</event>
<event>
 4    1  0.6602701E-002  0.8454204E+02  0.7546771E-02  0.1316635E+00
          1   -1    0    0  501    0  0.00000000000E+00  0.00000000000E+00  0.19851823220E+03  0.19851823220E+03  0.00000000000E+00 0. -1.
         -1   -1    0    0    0  501 -0.00000000000E+00 -0.00000000000E+00 -0.48502468905E+02  0.48502468905E+02  0.00000000000E+00 0.  1.
         24    1    1    2    0    0  0.24734611236E+02  0.82667403574E+01  0.12309243511E+02  0.85433444384E+02  0.80419002446E+02 0. -1.
        -24    1    1    2    0    0 -0.24734611236E+02 -0.82667403574E+01  0.13770651978E+03  0.16158725672E+03  0.80419002446E+02 0.  0.
<mgrwt>
<rscale>  0 0.84542037E+02</rscale>
<asrwt>0</asrwt>
<pdfrwt beam="1">  1        1 0.30541266E-01 0.84542037E+02</pdfrwt>
<pdfrwt beam="2">  1       -1 0.74619184E-02 0.84542037E+02</pdfrwt>
<totfact> 0.12727145E+04</totfact>
</mgrwt>
</event>
<event>
 4    1  0.6602701E-002  0.8338074E+02  0.7546771E-02  0.1319722E+00
         -1   -1    0    0    0  501 -0.00000000000E+00  0.00000000000E+00  0.21558148534E+02  0.21558148534E+02  0.00000000000E+00 0.  1.
          1   -1    0    0  501    0  0.00000000000E+00 -0.00000000000E+00 -0.58710495832E+03  0.58710495832E+03  0.00000000000E+00 0. -1.
         24    1    1    2    0    0  0.16927286054E+02  0.14092539280E+02 -0.78461360133E+02  0.11449250484E+03  0.80419002446E+02 0.  1.
        -24    1    1    2    0    0 -0.16927286054E+02 -0.14092539280E+02 -0.48708544966E+03  0.49417060202E+03  0.80419002446E+02 0. -1.
<mgrwt>
<rscale>  0 0.83380745E+02</rscale>
<asrwt>0</asrwt>
<pdfrwt beam="1">  1        1 0.90323844E-01 0.83380745E+02</pdfrwt>
<pdfrwt beam="2">  1       -1 0.33166381E-02 0.83380745E+02</pdfrwt>
<totfact> 0.10817084E+04</totfact>
</mgrwt>
</event>
<event>
 4    1  0.6602701E-002  0.9508827E+02  0.7546771E-02  0.1290977E+00
         -1   -1    0    0    0  501 -0.00000000000E+00  0.00000000000E+00  0.30188016731E+03  0.30188016731E+03  0.00000000000E+00 0.  1.
          1   -1    0    0  501    0  0.00000000000E+00 -0.00000000000E+00 -0.38965112791E+02  0.38965112791E+02  0.00000000000E+00 0. -1.
         24    1    1    2    0    0 -0.25366557689E+02  0.43944237828E+02  0.49490735292E+02  0.10719658167E+03  0.80419002446E+02 0. -1.
        -24    1    1    2    0    0  0.25366557689E+02 -0.43944237828E+02  0.21342431923E+03  0.23364869843E+03  0.80419002446E+02 0.  1.
<mgrwt>
<rscale>  0 0.95088256E+02</rscale>
<asrwt>0</asrwt>
<pdfrwt beam="1">  1        1 0.59946329E-02 0.95088268E+02</pdfrwt>
<pdfrwt beam="2">  1       -1 0.46443101E-01 0.95088268E+02</pdfrwt>
<totfact> 0.56391772E+03</totfact>
</mgrwt>
</event>
<event>
 4    1  0.6602701E-002  0.1601872E+03  0.7546771E-02  0.1188486E+00
         -1   -1    0    0    0  501 -0.00000000000E+00  0.00000000000E+00  0.58389690974E+02  0.58389690974E+02  0.00000000000E+00 0.  1.
          1   -1    0    0  501    0  0.00000000000E+00 -0.00000000000E+00 -0.82154360759E+03  0.82154360759E+03  0.00000000000E+00 0. -1.
         24    1    1    2    0    0  0.13817914268E+03 -0.99617856303E+01 -0.81533820872E+02  0.17974340752E+03  0.80419002446E+02 0.  1.
        -24    1    1    2    0    0 -0.13817914268E+03  0.99617856303E+01 -0.68162009574E+03  0.70018989104E+03  0.80419002446E+02 0. -1.
<mgrwt>
<rscale>  0 0.16018717E+03</rscale>
<asrwt>0</asrwt>
<pdfrwt beam="1">  1        1 0.12639132E+00 0.16018717E+03</pdfrwt>
<pdfrwt beam="2">  1       -1 0.89830297E-02 0.16018717E+03</pdfrwt>
<totfact> 0.15845181E+03</totfact>
</mgrwt>
</event>
<event>
 4    1  0.6602701E-002  0.8683229E+02  0.7546771E-02  0.1310709E+00
         -1   -1    0    0    0  501 -0.00000000000E+00  0.00000000000E+00  0.35171291553E+02  0.35171291553E+02  0.00000000000E+00 0.  1.
          1   -1    0    0  501    0  0.00000000000E+00 -0.00000000000E+00 -0.52307935120E+03  0.52307935120E+03  0.00000000000E+00 0. -1.
         24    1    1    2    0    0  0.30252765012E+02  0.12545955000E+02 -0.29523409835E+02  0.91714112657E+02  0.80419002446E+02 0.  0.
        -24    1    1    2    0    0 -0.30252765012E+02 -0.12545955000E+02 -0.45838464981E+03  0.46653653009E+03  0.80419002446E+02 0.  0.
<mgrwt>
<rscale>  0 0.86832291E+02</rscale>
<asrwt>0</asrwt>
<pdfrwt beam="1">  1        1 0.80473749E-01 0.86832291E+02</pdfrwt>
<pdfrwt beam="2">  1       -1 0.54109678E-02 0.86832291E+02</pdfrwt>
<totfact> 0.61997147E+03</totfact>
</mgrwt>
</event>
<event>
 4    1  0.6929993E-002  0.1040500E+03  0.7546771E-02  0.1272003E+00
         -1   -1    0    0    0  501 -0.00000000000E+00  0.00000000000E+00  0.15676053291E+02  0.15676053291E+02  0.00000000000E+00 0.  1.
          1   -1    0    0  501    0  0.00000000000E+00 -0.00000000000E+00 -0.10977480738E+04  0.10977480738E+04  0.00000000000E+00 0. -1.
         24    1    1    2    0    0 -0.19687143845E+02 -0.63020577877E+02 -0.20200602073E+03  0.22722857487E+03  0.80419002446E+02 0. -1.
        -24    1    1    2    0    0  0.19687143845E+02  0.63020577877E+02 -0.88006599975E+03  0.88619555220E+03  0.80419002446E+02 0.  0.
<mgrwt>
<rscale>  0 0.10404995E+03</rscale>
<asrwt>0</asrwt>
<pdfrwt beam="1">  1        1 0.16888435E+00 0.10404995E+03</pdfrwt>
<pdfrwt beam="2">  1       -1 0.24117001E-02 0.10404995E+03</pdfrwt>
<totfact> 0.67704733E+03</totfact>
</mgrwt>
</event>
<event>
 4    1  0.6602701E-002  0.8742051E+02  0.7546771E-02  0.1309221E+00
          1   -1    0    0  501    0  0.00000000000E+00  0.00000000000E+00  0.54145959823E+03  0.54145959823E+03  0.00000000000E+00 0. -1.
         -1   -1    0    0    0  501 -0.00000000000E+00 -0.00000000000E+00 -0.23224029118E+02  0.23224029118E+02  0.00000000000E+00 0.  1.
         24    1    1    2    0    0  0.32996612546E+02 -0.92926396239E+01  0.82286881550E+02  0.12005613862E+03  0.80419002446E+02 0.  1.
        -24    1    1    2    0    0 -0.32996612546E+02  0.92926396239E+01  0.43594868756E+03  0.44462748872E+03  0.80419002446E+02 0. -1.
<mgrwt>
<rscale>  0 0.87420510E+02</rscale>
<asrwt>0</asrwt>
<pdfrwt beam="1">  1        1 0.83301467E-01 0.87420510E+02</pdfrwt>
<pdfrwt beam="2">  1       -1 0.35729280E-02 0.87420510E+02</pdfrwt>
<totfact> 0.10849890E+04</totfact>
</mgrwt>
</event>
<event>
 4    1  0.6602701E-002  0.8681472E+02  0.7546771E-02  0.1310754E+00
          2   -1    0    0  501    0  0.00000000000E+00  0.00000000000E+00  0.80882594588E+01  0.80882594588E+01  0.00000000000E+00 0. -1.
         -2   -1    0    0    0  501 -0.00000000000E+00 -0.00000000000E+00 -0.12312888820E+04  0.12312888820E+04  0.00000000000E+00 0.  1.
         24    1    1    2    0    0 -0.22146336211E+02 -0.24064915626E+02 -0.30598869325E+03  0.31806583709E+03  0.80419002446E+02 0. -1.
        -24    1    1    2    0    0  0.22146336211E+02  0.24064915626E+02 -0.91721192924E+03  0.92131130432E+03  0.80419002446E+02 0.  1.
<mgrwt>
<rscale>  0 0.86814724E+02</rscale>
<asrwt>0</asrwt>
<pdfrwt beam="1">  1        2 0.12443487E-02 0.86814724E+02</pdfrwt>
<pdfrwt beam="2">  1       -2 0.18942890E+00 0.86814724E+02</pdfrwt>
<totfact> 0.16571944E+03</totfact>
</mgrwt>
</event>
<event>
 4    1  0.6602701E-002  0.1830994E+03  0.7546771E-02  0.1164837E+00
         -2   -1    0    0    0  501 -0.00000000000E+00  0.00000000000E+00  0.18584856560E+03  0.18584856560E+03  0.00000000000E+00 0.  1.
          2   -1    0    0  501    0  0.00000000000E+00 -0.00000000000E+00 -0.27490048769E+03  0.27490048769E+03  0.00000000000E+00 0. -1.
         24    1    1    2    0    0  0.60137722979E+02  0.15310655075E+03 -0.17960401304E+03  0.25648192736E+03  0.80419002446E+02 0. -1.
        -24    1    1    2    0    0 -0.60137722979E+02 -0.15310655075E+03  0.90552090953E+02  0.20426712593E+03  0.80419002446E+02 0.  1.
<mgrwt>
<rscale>  0 0.18309937E+03</rscale>
<asrwt>0</asrwt>
<pdfrwt beam="1">  1        2 0.42292382E-01 0.18309937E+03</pdfrwt>
<pdfrwt beam="2">  1       -2 0.28592087E-01 0.18309937E+03</pdfrwt>
<totfact> 0.13312312E+03</totfact>
</mgrwt>
</event>
<event>
 4    1  0.6602701E-002  0.9688015E+02  0.7546771E-02  0.1286997E+00
          2   -1    0    0  501    0  0.00000000000E+00  0.00000000000E+00  0.42385868234E+02  0.42385868234E+02  0.00000000000E+00 0. -1.
         -2   -1    0    0    0  501 -0.00000000000E+00 -0.00000000000E+00 -0.33693950683E+03  0.33693950683E+03  0.00000000000E+00 0.  1.
         24    1    1    2    0    0  0.23621204470E+02  0.48585854582E+02 -0.36230727662E+02  0.10343320621E+03  0.80419002446E+02 0. -1.
        -24    1    1    2    0    0 -0.23621204470E+02 -0.48585854582E+02 -0.25832291093E+03  0.27589216885E+03  0.80419002446E+02 0.  1.
<mgrwt>
<rscale>  0 0.96880145E+02</rscale>
<asrwt>0</asrwt>
<pdfrwt beam="1">  1        2 0.65209030E-02 0.96880145E+02</pdfrwt>
<pdfrwt beam="2">  1       -2 0.51836845E-01 0.96880145E+02</pdfrwt>
<totfact> 0.36802713E+03</totfact>
</mgrwt>
</event>
<event>
 4    1  0.6602701E-002  0.8394304E+02  0.7546771E-02  0.1318220E+00
         -2   -1    0    0    0  501 -0.00000000000E+00  0.00000000000E+00  0.53784494044E+01  0.53784494044E+01  0.00000000000E+00 0.  1.
          2   -1    0    0  501    0  0.00000000000E+00 -0.00000000000E+00 -0.20534451254E+04  0.20534451254E+04  0.00000000000E+00 0. -1.
         24    1    1    2    0    0  0.19054399728E+02  0.14701993492E+02 -0.16433829567E+04  0.16455254410E+04  0.80419002446E+02 0. -1.
        -24    1    1    2    0    0 -0.19054399728E+02 -0.14701993492E+02 -0.40468371932E+03  0.41329813379E+03  0.80419002446E+02 0.  1.
<mgrwt>
<rscale>  0 0.83943044E+02</rscale>
<asrwt>0</asrwt>
<pdfrwt beam="1">  1        2 0.31591467E+00 0.83943044E+02</pdfrwt>
<pdfrwt beam="2">  1       -2 0.82745366E-03 0.83943044E+02</pdfrwt>
<totfact> 0.18548420E+04</totfact>
</mgrwt>
</event>
<event>
 4    1  0.6602701E-002  0.1407167E+03  0.7546771E-02  0.1212368E+00
         -1   -1    0    0    0  501 -0.00000000000E+00  0.00000000000E+00  0.43599644269E+02  0.43599644269E+02  0.00000000000E+00 0.  1.
          1   -1    0    0  501    0  0.00000000000E+00 -0.00000000000E+00 -0.49483466783E+03  0.49483466783E+03  0.00000000000E+00 0. -1.
         24    1    1    2    0    0 -0.76212882548E+01 -0.11522099109E+03 -0.30280364635E+03  0.33390301738E+03  0.80419002446E+02 0.  1.
        -24    1    1    2    0    0  0.76212882548E+01  0.11522099109E+03 -0.14843137722E+03  0.20453129472E+03  0.80419002446E+02 0.  0.
<mgrwt>
<rscale>  0 0.14071667E+03</rscale>
<asrwt>0</asrwt>
<pdfrwt beam="1">  1        1 0.76128410E-01 0.14071669E+03</pdfrwt>
<pdfrwt beam="2">  1       -1 0.67076376E-02 0.14071669E+03</pdfrwt>
<totfact> 0.49881638E+03</totfact>
</mgrwt>
</event>
<event>
 4    1  0.6602701E-002  0.9442121E+02  0.7546771E-02  0.1292485E+00
          1   -1    0    0  501    0  0.00000000000E+00  0.00000000000E+00  0.71584022397E+03  0.71584022397E+03  0.00000000000E+00 0. -1.
         -1   -1    0    0    0  501 -0.00000000000E+00 -0.00000000000E+00 -0.19369763732E+02  0.19369763732E+02  0.00000000000E+00 0.  1.
         24    1    1    2    0    0  0.44937846876E+02 -0.20705988919E+02  0.12858756040E+03  0.15953095218E+03  0.80419002446E+02 0.  1.
        -24    1    1    2    0    0 -0.44937846876E+02  0.20705988919E+02  0.56788289983E+03  0.57567903552E+03  0.80419002446E+02 0. -1.
<mgrwt>
<rscale>  0 0.94421205E+02</rscale>
<asrwt>0</asrwt>
<pdfrwt beam="1">  1        1 0.11012925E+00 0.94421205E+02</pdfrwt>
<pdfrwt beam="2">  1       -1 0.29799642E-02 0.94421205E+02</pdfrwt>
<totfact> 0.97124973E+03</totfact>
</mgrwt>
</event>
<event>
 4    1  0.6602701E-002  0.1104545E+03  0.7546771E-02  0.1259731E+00
         -2   -1    0    0    0  501 -0.00000000000E+00  0.00000000000E+00  0.29181383913E+02  0.29181383913E+02  0.00000000000E+00 0.  1.
          2   -1    0    0  501    0  0.00000000000E+00 -0.00000000000E+00 -0.42204804623E+03  0.42204804623E+03  0.00000000000E+00 0. -1.
         24    1    1    2    0    0 -0.72576218090E+02 -0.21579390475E+02 -0.21830585431E+03  0.24465820956E+03  0.80419002446E+02 0. -1.
        -24    1    1    2    0    0  0.72576218090E+02  0.21579390475E+02 -0.17456080800E+03  0.20657122058E+03  0.80419002446E+02 0.  1.
<mgrwt>
<rscale>  0 0.11045449E+03</rscale>
<asrwt>0</asrwt>
<pdfrwt beam="1">  1        2 0.64930469E-01 0.11045449E+03</pdfrwt>
<pdfrwt beam="2">  1       -2 0.44894436E-02 0.11045449E+03</pdfrwt>
<totfact> 0.16062621E+04</totfact>
</mgrwt>
</event>
<event>
 4    1  0.6602701E-002  0.8820255E+02  0.7546771E-02  0.1307264E+00
         -1   -1    0    0    0  501 -0.00000000000E+00  0.00000000000E+00  0.23966002265E+02  0.23966002265E+02  0.00000000000E+00 0.  1.
          1   -1    0    0  501    0  0.00000000000E+00 -0.00000000000E+00 -0.38983186627E+03  0.38983186627E+03  0.00000000000E+00 0. -1.
         24    1    1    2    0    0 -0.30929689544E+02  0.18863429931E+02 -0.98306864689E+02  0.13207547192E+03  0.80419002446E+02 0.  1.
        -24    1    1    2    0    0  0.30929689544E+02 -0.18863429931E+02 -0.26755899931E+03  0.28172239661E+03  0.80419002446E+02 0. -1.
<mgrwt>
<rscale>  0 0.88202555E+02</rscale>
<asrwt>0</asrwt>
<pdfrwt beam="1">  1        1 0.59974133E-01 0.88202555E+02</pdfrwt>
<pdfrwt beam="2">  1       -1 0.36870773E-02 0.88202555E+02</pdfrwt>
<totfact> 0.15729482E+04</totfact>
</mgrwt>
</event>
<event>
 4    1  0.6602701E-002  0.9433093E+02  0.7546771E-02  0.1292690E+00
          2   -1    0    0  501    0  0.00000000000E+00  0.00000000000E+00  0.68789841395E+03  0.68789841395E+03  0.00000000000E+00 0. -1.
         -2   -1    0    0    0  501 -0.00000000000E+00 -0.00000000000E+00 -0.15682887241E+02  0.15682887241E+02  0.00000000000E+00 0.  1.
         24    1    1    2    0    0  0.42896786628E+02  0.24309977524E+02  0.48334900134E+03  0.49246784906E+03  0.80419002446E+02 0. -1.
        -24    1    1    2    0    0 -0.42896786628E+02 -0.24309977524E+02  0.18886652537E+03  0.21111345213E+03  0.80419002446E+02 0.  1.
<mgrwt>
<rscale>  0 0.94330935E+02</rscale>
<asrwt>0</asrwt>
<pdfrwt beam="1">  1        2 0.10583050E+00 0.94330935E+02</pdfrwt>
<pdfrwt beam="2">  1       -2 0.24127524E-02 0.94330935E+02</pdfrwt>
<totfact> 0.22906807E+04</totfact>
</mgrwt>
</event>
<event>
 4    1  0.6602701E-002  0.8952315E+02  0.7546771E-02  0.1304011E+00
          1   -1    0    0  501    0  0.00000000000E+00  0.00000000000E+00  0.23808873692E+04  0.23808873692E+04  0.00000000000E+00 0. -1.
         -1   -1    0    0    0  501 -0.00000000000E+00 -0.00000000000E+00 -0.33685400743E+01  0.33685400743E+01  0.00000000000E+00 0.  1.
         24    1    1    2    0    0  0.19595705577E+02 -0.34105471250E+02  0.12206066391E+04  0.12238851900E+04  0.80419002446E+02 0.  0.
        -24    1    1    2    0    0 -0.19595705577E+02  0.34105471250E+02  0.11569121900E+04  0.11603707193E+04  0.80419002446E+02 0. -1.
<mgrwt>
<rscale>  0 0.89523141E+02</rscale>
<asrwt>0</asrwt>
<pdfrwt beam="1">  1        1 0.36628902E+00 0.89523152E+02</pdfrwt>
<pdfrwt beam="2">  1       -1 0.51823884E-03 0.89523152E+02</pdfrwt>
<totfact> 0.89241648E+03</totfact>
</mgrwt>
</event>
<event>
 4    1  0.6602701E-002  0.1366838E+03  0.7546771E-02  0.1217862E+00
          1   -1    0    0  501    0  0.00000000000E+00  0.00000000000E+00  0.29013801075E+04  0.29013801075E+04  0.00000000000E+00 0. -1.
         -1   -1    0    0    0  501 -0.00000000000E+00 -0.00000000000E+00 -0.13385471472E+02  0.13385471472E+02  0.00000000000E+00 0.  1.
         24    1    1    2    0    0  0.11049717919E+03  0.23687174450E+01  0.39413125310E+03  0.41715931976E+03  0.80419002446E+02 0.  1.
        -24    1    1    2    0    0 -0.11049717919E+03 -0.23687174450E+01  0.24938633829E+04  0.24976062592E+04  0.80419002446E+02 0. -1.
<mgrwt>
<rscale>  0 0.13668377E+03</rscale>
<asrwt>0</asrwt>
<pdfrwt beam="1">  1        1 0.44636567E+00 0.13668377E+03</pdfrwt>
<pdfrwt beam="2">  1       -1 0.20593056E-02 0.13668377E+03</pdfrwt>
<totfact> 0.57299124E+02</totfact>
</mgrwt>
</event>
<event>
 4    1  0.6602701E-002  0.1101090E+03  0.7546771E-02  0.1260368E+00
          2   -1    0    0  501    0  0.00000000000E+00  0.00000000000E+00  0.32651621269E+04  0.32651621269E+04  0.00000000000E+00 0. -1.
         -2   -1    0    0    0  501 -0.00000000000E+00 -0.00000000000E+00 -0.40697908361E+01  0.40697908361E+01  0.00000000000E+00 0.  1.
         24    1    1    2    0    0 -0.57438513333E+02  0.48555116156E+02  0.21144426190E+04  0.21173076269E+04  0.80419002446E+02 0. -1.
        -24    1    1    2    0    0  0.57438513333E+02 -0.48555116156E+02  0.11466497170E+04  0.11519242908E+04  0.80419002446E+02 0.  1.
<mgrwt>
<rscale>  0 0.11010903E+03</rscale>
<asrwt>0</asrwt>
<pdfrwt beam="1">  1        2 0.50233054E+00 0.11010903E+03</pdfrwt>
<pdfrwt beam="2">  1       -2 0.62612428E-03 0.11010903E+03</pdfrwt>
<totfact> 0.60804772E+03</totfact>
</mgrwt>
</event>
<event>
 4    1  0.6602701E-002  0.8595115E+02  0.7546771E-02  0.1312964E+00
         -2   -1    0    0    0  501 -0.00000000000E+00  0.00000000000E+00  0.48309640533E+02  0.48309640533E+02  0.00000000000E+00 0.  1.
          2   -1    0    0  501    0  0.00000000000E+00 -0.00000000000E+00 -0.28785610113E+03  0.28785610113E+03  0.00000000000E+00 0. -1.
         24    1    1    2    0    0  0.98229729948E+00  0.30321919156E+02 -0.23485243132E+03  0.25008651331E+03  0.80419002446E+02 0.  0.
        -24    1    1    2    0    0 -0.98229729948E+00 -0.30321919156E+02 -0.46940292835E+01  0.86079228357E+02  0.80419002446E+02 0.  0.
<mgrwt>
<rscale>  0 0.85951147E+02</rscale>
<asrwt>0</asrwt>
<pdfrwt beam="1">  1        2 0.44285554E-01 0.85951147E+02</pdfrwt>
<pdfrwt beam="2">  1       -2 0.74322524E-02 0.85951147E+02</pdfrwt>
<totfact> 0.11017757E+04</totfact>
</mgrwt>
</event>
<event>
 4    1  0.6602701E-002  0.8620780E+02  0.7546771E-02  0.1312304E+00
          2   -1    0    0  501    0  0.00000000000E+00  0.00000000000E+00  0.73902180684E+03  0.73902180684E+03  0.00000000000E+00 0. -1.
         -2   -1    0    0    0  501 -0.00000000000E+00 -0.00000000000E+00 -0.40557503134E+02  0.40557503134E+02  0.00000000000E+00 0.  1.
         24    1    1    2    0    0  0.20115298318E+02  0.23663113640E+02  0.68726085759E+03  0.69264656969E+03  0.80419002446E+02 0. -1.
        -24    1    1    2    0    0 -0.20115298318E+02 -0.23663113640E+02  0.11203446114E+02  0.86932740281E+02  0.80419002446E+02 0.  1.
<mgrwt>
<rscale>  0 0.86207796E+02</rscale>
<asrwt>0</asrwt>
<pdfrwt beam="1">  1        2 0.11369565E+00 0.86207796E+02</pdfrwt>
<pdfrwt beam="2">  1       -2 0.62396164E-02 0.86207796E+02</pdfrwt>
<totfact> 0.51752248E+03</totfact>
</mgrwt>
</event>
<event>
 4    1  0.6602701E-002  0.9487646E+02  0.7546771E-02  0.1291455E+00
          2   -1    0    0  501    0  0.00000000000E+00  0.00000000000E+00  0.38843509625E+03  0.38843509625E+03  0.00000000000E+00 0. -1.
         -2   -1    0    0    0  501 -0.00000000000E+00 -0.00000000000E+00 -0.23333784035E+02  0.23333784035E+02  0.00000000000E+00 0.  1.
         24    1    1    2    0    0  0.83118642234E+01 -0.49651171545E+02  0.19959511163E+03  0.22099717298E+03  0.80419002446E+02 0.  1.
        -24    1    1    2    0    0 -0.83118642234E+01  0.49651171545E+02  0.16550620059E+03  0.19077170731E+03  0.80419002446E+02 0. -1.
<mgrwt>
<rscale>  0 0.94876456E+02</rscale>
<asrwt>0</asrwt>
<pdfrwt beam="1">  1        2 0.59759241E-01 0.94876456E+02</pdfrwt>
<pdfrwt beam="2">  1       -2 0.35898132E-02 0.94876456E+02</pdfrwt>
<totfact> 0.24033170E+04</totfact>
</mgrwt>
</event>
<event>
 4    1  0.6602701E-002  0.9679948E+02  0.7546771E-02  0.1287174E+00
         -2   -1    0    0    0  501 -0.00000000000E+00  0.00000000000E+00  0.25825215021E+02  0.25825215021E+02  0.00000000000E+00 0.  1.
          2   -1    0    0  501    0  0.00000000000E+00 -0.00000000000E+00 -0.37302228781E+03  0.37302228781E+03  0.00000000000E+00 0. -1.
         24    1    1    2    0    0 -0.85080673060E+01  0.53202787296E+02 -0.20656439001E+03  0.22812055357E+03  0.80419002446E+02 0. -1.
        -24    1    1    2    0    0  0.85080673060E+01 -0.53202787296E+02 -0.14063268278E+03  0.17072694927E+03  0.80419002446E+02 0.  1.
<mgrwt>
<rscale>  0 0.96799482E+02</rscale>
<asrwt>0</asrwt>
<pdfrwt beam="1">  1        2 0.57388039E-01 0.96799482E+02</pdfrwt>
<pdfrwt beam="2">  1       -2 0.39731104E-02 0.96799482E+02</pdfrwt>
<totfact> 0.21651372E+04</totfact>
</mgrwt>
</event>
<event>
 4    1  0.6602701E-002  0.8685292E+02  0.7546771E-02  0.1310657E+00
         -1   -1    0    0    0  501 -0.00000000000E+00  0.00000000000E+00  0.12042625590E+02  0.12042625590E+02  0.00000000000E+00 0.  1.
          1   -1    0    0  501    0  0.00000000000E+00 -0.00000000000E+00 -0.63578232104E+03  0.63578232104E+03  0.00000000000E+00 0. -1.
         24    1    1    2    0    0 -0.32513624642E+02  0.43678595289E+01 -0.27250899617E+03  0.28601500473E+03  0.80419002446E+02 0.  1.
        -24    1    1    2    0    0  0.32513624642E+02 -0.43678595289E+01 -0.35123069928E+03  0.36180994190E+03  0.80419002446E+02 0. -1.
<mgrwt>
<rscale>  0 0.86852921E+02</rscale>
<asrwt>0</asrwt>
<pdfrwt beam="1">  1        1 0.97812679E-01 0.86852921E+02</pdfrwt>
<pdfrwt beam="2">  1       -1 0.18527114E-02 0.86852921E+02</pdfrwt>
<totfact> 0.22450232E+04</totfact>
</mgrwt>
</event>
<event>
 4    1  0.6602701E-002  0.9415358E+02  0.7546771E-02  0.1293094E+00
          1   -1    0    0  501    0  0.00000000000E+00  0.00000000000E+00  0.57701180185E+03  0.57701180185E+03  0.00000000000E+00 0. -1.
         -1   -1    0    0    0  501 -0.00000000000E+00 -0.00000000000E+00 -0.15522430014E+02  0.15522430014E+02  0.00000000000E+00 0.  1.
         24    1    1    2    0    0  0.35653228732E+02  0.33563780578E+02  0.25076236707E+03  0.26785567155E+03  0.80419002446E+02 0.  0.
        -24    1    1    2    0    0 -0.35653228732E+02 -0.33563780578E+02  0.31072700476E+03  0.32467856032E+03  0.80419002446E+02 0. -1.
<mgrwt>
<rscale>  0 0.94153577E+02</rscale>
<asrwt>0</asrwt>
<pdfrwt beam="1">  1        1 0.88771030E-01 0.94153577E+02</pdfrwt>
<pdfrwt beam="2">  1       -1 0.23880666E-02 0.94153577E+02</pdfrwt>
<totfact> 0.17940313E+04</totfact>
</mgrwt>
</event>
<event>
 4    1  0.6602701E-002  0.1180477E+03  0.7546771E-02  0.1246353E+00
         -1   -1    0    0    0  501 -0.00000000000E+00  0.00000000000E+00  0.11038981647E+03  0.11038981647E+03  0.00000000000E+00 0.  1.
          1   -1    0    0  501    0  0.00000000000E+00 -0.00000000000E+00 -0.12664883096E+03  0.12664883096E+03  0.00000000000E+00 0. -1.
         24    1    1    2    0    0  0.27458019448E+02  0.81939634657E+02 -0.13697975188E+01  0.11805566001E+03  0.80419002446E+02 0. -1.
        -24    1    1    2    0    0 -0.27458019448E+02 -0.81939634657E+02 -0.14889216969E+02  0.11898298742E+03  0.80419002446E+02 0.  1.
<mgrwt>
<rscale>  0 0.11804771E+03</rscale>
<asrwt>0</asrwt>
<pdfrwt beam="1">  1        1 0.19484435E-01 0.11804771E+03</pdfrwt>
<pdfrwt beam="2">  1       -1 0.16983049E-01 0.11804771E+03</pdfrwt>
<totfact> 0.65330824E+03</totfact>
</mgrwt>
</event>
<event>
 4    1  0.1272282E-001  0.1083030E+03  0.7546771E-02  0.1263745E+00
          1   -1    0    0  501    0  0.00000000000E+00  0.00000000000E+00  0.19279777016E+04  0.19279777016E+04  0.00000000000E+00 0. -1.
         -1   -1    0    0    0  501 -0.00000000000E+00 -0.00000000000E+00 -0.66856909456E+02  0.66856909456E+02  0.00000000000E+00 0.  1.
         24    1    1    2    0    0  0.48426738408E+02  0.54010862308E+02 -0.20393101960E+02  0.11020624666E+03  0.80419002446E+02 0.  1.
        -24    1    1    2    0    0 -0.48426738408E+02 -0.54010862308E+02  0.18815138941E+04  0.18846283644E+04  0.80419002446E+02 0. -1.
<mgrwt>
<rscale>  0 0.10830299E+03</rscale>
<asrwt>0</asrwt>
<pdfrwt beam="1">  1        1 0.29661191E+00 0.10830299E+03</pdfrwt>
<pdfrwt beam="2">  1       -1 0.10285680E-01 0.10830299E+03</pdfrwt>
<totfact> 0.23150663E+02</totfact>
</mgrwt>
</event>
<event>
 4    1  0.6602701E-002  0.1446026E+03  0.7546771E-02  0.1207267E+00
         -2   -1    0    0    0  501 -0.00000000000E+00  0.00000000000E+00  0.12337027190E+03  0.12337027190E+03  0.00000000000E+00 0.  1.
          2   -1    0    0  501    0  0.00000000000E+00 -0.00000000000E+00 -0.35319186533E+03  0.35319186533E+03  0.00000000000E+00 0. -1.
         24    1    1    2    0    0 -0.56866500931E+02 -0.10587208286E+03 -0.28675784376E+03  0.32115412775E+03  0.80419002446E+02 0. -1.
        -24    1    1    2    0    0  0.56866500931E+02  0.10587208286E+03  0.56936250330E+02  0.15540800949E+03  0.80419002446E+02 0.  1.
<mgrwt>
<rscale>  0 0.14460260E+03</rscale>
<asrwt>0</asrwt>
<pdfrwt beam="1">  1        2 0.54337210E-01 0.14460260E+03</pdfrwt>
<pdfrwt beam="2">  1       -2 0.18980042E-01 0.14460260E+03</pdfrwt>
<totfact> 0.20618586E+03</totfact>
</mgrwt>
</event>
<event>
 4    1  0.6602701E-002  0.9022612E+02  0.7546771E-02  0.1302305E+00
          2   -1    0    0  501    0  0.00000000000E+00  0.00000000000E+00  0.81575790212E+01  0.81575790212E+01  0.00000000000E+00 0. -1.
         -2   -1    0    0    0  501 -0.00000000000E+00 -0.00000000000E+00 -0.20390937929E+04  0.20390937929E+04  0.00000000000E+00 0.  1.
         24    1    1    2    0    0  0.99577851148E+01 -0.39678439520E+02 -0.28402493600E+03  0.29801160426E+03  0.80419002446E+02 0. -1.
        -24    1    1    2    0    0 -0.99577851148E+01  0.39678439520E+02 -0.17469112779E+04  0.17492397677E+04  0.80419002446E+02 0.  1.
<mgrwt>
<rscale>  0 0.90226116E+02</rscale>
<asrwt>0</asrwt>
<pdfrwt beam="1">  1        2 0.12550116E-02 0.90226116E+02</pdfrwt>
<pdfrwt beam="2">  1       -2 0.31370688E+00 0.90226116E+02</pdfrwt>
<totfact> 0.31384604E+02</totfact>
</mgrwt>
</event>
<event>
 4    1  0.6602701E-002  0.1183581E+03  0.7546771E-02  0.1245831E+00
         -2   -1    0    0    0  501 -0.00000000000E+00  0.00000000000E+00  0.61527053722E+01  0.61527053722E+01  0.00000000000E+00 0.  1.
          2   -1    0    0  501    0  0.00000000000E+00 -0.00000000000E+00 -0.27922992836E+04  0.27922992836E+04  0.00000000000E+00 0. -1.
         24    1    1    2    0    0  0.10844777614E+02  0.86161524565E+02 -0.19942613953E+04  0.19977705439E+04  0.80419002446E+02 0. -1.
        -24    1    1    2    0    0 -0.10844777614E+02 -0.86161524565E+02 -0.79188518301E+03  0.80068144511E+03  0.80419002446E+02 0.  1.
<mgrwt>
<rscale>  0 0.11835807E+03</rscale>
<asrwt>0</asrwt>
<pdfrwt beam="1">  1        2 0.42958493E+00 0.11835807E+03</pdfrwt>
<pdfrwt beam="2">  1       -2 0.94656912E-03 0.11835807E+03</pdfrwt>
<totfact> 0.63556662E+03</totfact>
</mgrwt>
</event>
<event>
 4    1  0.6602701E-002  0.1418020E+03  0.7546771E-02  0.1210925E+00
         -1   -1    0    0    0  501 -0.00000000000E+00  0.00000000000E+00  0.24535341156E+02  0.24535341156E+02  0.00000000000E+00 0.  1.
          1   -1    0    0  501    0  0.00000000000E+00 -0.00000000000E+00 -0.86031937959E+03  0.86031937959E+03  0.00000000000E+00 0. -1.
         24    1    1    2    0    0  0.44585751921E+02  0.10794771825E+03 -0.32157433431E+03  0.35145108847E+03  0.80419002446E+02 0. -1.
        -24    1    1    2    0    0 -0.44585751921E+02 -0.10794771825E+03 -0.51420970413E+03  0.53340363228E+03  0.80419002446E+02 0.  1.
<mgrwt>
<rscale>  0 0.14180203E+03</rscale>
<asrwt>0</asrwt>
<pdfrwt beam="1">  1        1 0.13235681E+00 0.14180203E+03</pdfrwt>
<pdfrwt beam="2">  1       -1 0.37746685E-02 0.14180203E+03</pdfrwt>
<totfact> 0.53656278E+03</totfact>
</mgrwt>
</event>
<event>
 4    1  0.6602701E-002  0.8363681E+02  0.7546771E-02  0.1319036E+00
         -2   -1    0    0    0  501 -0.00000000000E+00  0.00000000000E+00  0.11094283312E+02  0.11094283312E+02  0.00000000000E+00 0.  1.
          2   -1    0    0  501    0  0.00000000000E+00 -0.00000000000E+00 -0.20886783620E+04  0.20886783620E+04  0.00000000000E+00 0. -1.
         24    1    1    2    0    0 -0.90262267618E+01 -0.21128819179E+02 -0.19160140815E+04  0.19178386470E+04  0.80419002446E+02 0. -1.
        -24    1    1    2    0    0  0.90262267618E+01  0.21128819179E+02 -0.16156999724E+03  0.18193399829E+03  0.80419002446E+02 0.  1.
<mgrwt>
<rscale>  0 0.83636808E+02</rscale>
<asrwt>0</asrwt>
<pdfrwt beam="1">  1        2 0.32133528E+00 0.83636808E+02</pdfrwt>
<pdfrwt beam="2">  1       -2 0.17068120E-02 0.83636808E+02</pdfrwt>
<totfact> 0.63824205E+03</totfact>
</mgrwt>
</event>
<event>
 4    1  0.6602701E-002  0.8957156E+02  0.7546771E-02  0.1303893E+00
          4   -1    0    0  501    0  0.00000000000E+00  0.00000000000E+00  0.54157664443E+02  0.54157664443E+02  0.00000000000E+00 0. -1.
         -4   -1    0    0    0  501 -0.00000000000E+00 -0.00000000000E+00 -0.17153852466E+03  0.17153852466E+03  0.00000000000E+00 0.  1.
         24    1    1    2    0    0 -0.32791173713E+01  0.39307697650E+02 -0.17014778517E+02  0.91173276499E+02  0.80419002446E+02 0. -1.
        -24    1    1    2    0    0  0.32791173713E+01 -0.39307697650E+02 -0.10036608170E+03  0.13452291261E+03  0.80419002446E+02 0.  1.
<mgrwt>
<rscale>  0 0.89571556E+02</rscale>
<asrwt>0</asrwt>
<pdfrwt beam="1">  1        4 0.83319485E-02 0.89571556E+02</pdfrwt>
<pdfrwt beam="2">  1       -4 0.26390542E-01 0.89571556E+02</pdfrwt>
<totfact> 0.20719466E+03</totfact>
</mgrwt>
</event>
<event>
 4    1  0.6602701E-002  0.8758883E+02  0.7546771E-02  0.1308798E+00
          2   -1    0    0  501    0  0.00000000000E+00  0.00000000000E+00  0.29695192198E+03  0.29695192198E+03  0.00000000000E+00 0. -1.
         -2   -1    0    0    0  501 -0.00000000000E+00 -0.00000000000E+00 -0.36597979461E+02  0.36597979461E+02  0.00000000000E+00 0.  1.
         24    1    1    2    0    0  0.32489295928E+02  0.12207877641E+02  0.22061792782E+03  0.23736906424E+03  0.80419002446E+02 0. -1.
        -24    1    1    2    0    0 -0.32489295928E+02 -0.12207877641E+02  0.39736014695E+02  0.96180837201E+02  0.80419002446E+02 0. -1.
<mgrwt>
<rscale>  0 0.87588827E+02</rscale>
<asrwt>0</asrwt>
<pdfrwt beam="1">  1        2 0.45684910E-01 0.87588827E+02</pdfrwt>
<pdfrwt beam="2">  1       -2 0.56304586E-02 0.87588827E+02</pdfrwt>
<totfact> 0.16229556E+04</totfact>
</mgrwt>
</event>
<event>
 4    1  0.6602701E-002  0.1180543E+03  0.7546771E-02  0.1246342E+00
         -2   -1    0    0    0  501 -0.00000000000E+00  0.00000000000E+00  0.10102879358E+02  0.10102879358E+02  0.00000000000E+00 0.  1.
          2   -1    0    0  501    0  0.00000000000E+00 -0.00000000000E+00 -0.22130600344E+04  0.22130600344E+04  0.00000000000E+00 0. -1.
         24    1    1    2    0    0  0.71931783391E+02 -0.47910494807E+02 -0.17836852331E+04  0.17875877107E+04  0.80419002446E+02 0. -1.
        -24    1    1    2    0    0 -0.71931783391E+02  0.47910494807E+02 -0.41927192203E+03  0.43557520307E+03  0.80419002446E+02 0.  1.
<mgrwt>
<rscale>  0 0.11805428E+03</rscale>
<asrwt>0</asrwt>
<pdfrwt beam="1">  1        2 0.34047107E+00 0.11805428E+03</pdfrwt>
<pdfrwt beam="2">  1       -2 0.15542878E-02 0.11805428E+03</pdfrwt>
<totfact> 0.63579617E+03</totfact>
</mgrwt>
</event>
<event>
 4    1  0.6602701E-002  0.1284485E+03  0.7546771E-02  0.1229776E+00
          2   -1    0    0  501    0  0.00000000000E+00  0.00000000000E+00  0.20743465694E+04  0.20743465694E+04  0.00000000000E+00 0. -1.
         -2   -1    0    0    0  501 -0.00000000000E+00 -0.00000000000E+00 -0.84300377561E+01  0.84300377561E+01  0.00000000000E+00 0.  1.
         24    1    1    2    0    0  0.34087159882E+01  0.10010081643E+03  0.12804691144E+04  0.12868955520E+04  0.80419002446E+02 0. -1.
        -24    1    1    2    0    0 -0.34087159882E+01 -0.10010081643E+03  0.78544741722E+03  0.79588105516E+03  0.80419002446E+02 0.  1.
<mgrwt>
<rscale>  0 0.12844847E+03</rscale>
<asrwt>0</asrwt>
<pdfrwt beam="1">  1        2 0.31912984E+00 0.12844847E+03</pdfrwt>
<pdfrwt beam="2">  1       -2 0.12969305E-02 0.12844847E+03</pdfrwt>
<totfact> 0.97359024E+03</totfact>
</mgrwt>
</event>
<event>
 4    1  0.6602701E-002  0.8661253E+02  0.7546771E-02  0.1311269E+00
          2   -1    0    0  501    0  0.00000000000E+00  0.00000000000E+00  0.71067017017E+03  0.71067017017E+03  0.00000000000E+00 0. -1.
         -2   -1    0    0    0  501 -0.00000000000E+00 -0.00000000000E+00 -0.10995077975E+02  0.10995077975E+02  0.00000000000E+00 0.  1.
         24    1    1    2    0    0 -0.21392418704E+02  0.24018302831E+02  0.42195655781E+03  0.43075406798E+03  0.80419002446E+02 0. -1.
        -24    1    1    2    0    0  0.21392418704E+02 -0.24018302831E+02  0.27771853438E+03  0.29091118016E+03  0.80419002446E+02 0.  1.
<mgrwt>
<rscale>  0 0.86612530E+02</rscale>
<asrwt>0</asrwt>
<pdfrwt beam="1">  1        2 0.10933384E+00 0.86612530E+02</pdfrwt>
<pdfrwt beam="2">  1       -2 0.16915510E-02 0.86612530E+02</pdfrwt>
<totfact> 0.36406849E+04</totfact>
</mgrwt>
</event>
<event>
 4    1  0.6602701E-002  0.8501229E+02  0.7546771E-02  0.1315400E+00
         -3   -1    0    0    0  501 -0.00000000000E+00  0.00000000000E+00  0.73387566112E+02  0.73387566112E+02  0.00000000000E+00 0.  1.
          3   -1    0    0  501    0  0.00000000000E+00 -0.00000000000E+00 -0.21572609872E+03  0.21572609872E+03  0.00000000000E+00 0. -1.
         24    1    1    2    0    0 -0.13174619457E+02 -0.24213687094E+02  0.35401837682E+02  0.92088974943E+02  0.80419002446E+02 0.  1.
        -24    1    1    2    0    0  0.13174619457E+02  0.24213687094E+02 -0.17774037029E+03  0.19702468989E+03  0.80419002446E+02 0. -1.
<mgrwt>
<rscale>  0 0.85012288E+02</rscale>
<asrwt>0</asrwt>
<pdfrwt beam="1">  1        3 0.33188630E-01 0.85012288E+02</pdfrwt>
<pdfrwt beam="2">  1       -3 0.11290395E-01 0.85012288E+02</pdfrwt>
<totfact> 0.11329985E+03</totfact>
</mgrwt>
</event>
<event>
 4    1  0.6602701E-002  0.9105670E+02  0.7546771E-02  0.1300313E+00
          2   -1    0    0  501    0  0.00000000000E+00  0.00000000000E+00  0.19232686372E+03  0.19232686372E+03  0.00000000000E+00 0. -1.
         -2   -1    0    0    0  501 -0.00000000000E+00 -0.00000000000E+00 -0.43533074026E+02  0.43533074026E+02  0.00000000000E+00 0.  1.
         24    1    1    2    0    0 -0.17073878588E+02 -0.39148308641E+02  0.86014668389E+02  0.12525911756E+03  0.80419002446E+02 0. -1.
        -24    1    1    2    0    0  0.17073878588E+02  0.39148308641E+02  0.62779121306E+02  0.11060082019E+03  0.80419002446E+02 0.  1.
<mgrwt>
<rscale>  0 0.91056704E+02</rscale>
<asrwt>0</asrwt>
<pdfrwt beam="1">  1        2 0.29588748E-01 0.91056704E+02</pdfrwt>
<pdfrwt beam="2">  1       -2 0.66973961E-02 0.91056704E+02</pdfrwt>
<totfact> 0.19851998E+04</totfact>
</mgrwt>
</event>
<event>
 4    1  0.6602701E-002  0.9934118E+02  0.7546771E-02  0.1281687E+00
         -1   -1    0    0    0  501 -0.00000000000E+00  0.00000000000E+00  0.13621679461E+02  0.13621679461E+02  0.00000000000E+00 0.  1.
          1   -1    0    0  501    0  0.00000000000E+00 -0.00000000000E+00 -0.76521821002E+03  0.76521821002E+03  0.00000000000E+00 0. -1.
         24    1    1    2    0    0 -0.42673877449E+02  0.39754173733E+02 -0.28594941616E+03  0.30271395525E+03  0.80419002446E+02 0.  1.
        -24    1    1    2    0    0  0.42673877449E+02 -0.39754173733E+02 -0.46564711440E+03  0.47612593423E+03  0.80419002446E+02 0. -1.
<mgrwt>
<rscale>  0 0.99341180E+02</rscale>
<asrwt>0</asrwt>
<pdfrwt beam="1">  1        1 0.11772588E+00 0.99341180E+02</pdfrwt>
<pdfrwt beam="2">  1       -1 0.20956429E-02 0.99341180E+02</pdfrwt>
<totfact> 0.14688426E+04</totfact>
</mgrwt>
</event>
<event>
 4    1  0.6602701E-002  0.2022389E+03  0.7546771E-02  0.1147864E+00
          1   -1    0    0  501    0  0.00000000000E+00  0.00000000000E+00  0.14756900821E+03  0.14756900821E+03  0.00000000000E+00 0. -1.
         -1   -1    0    0    0  501 -0.00000000000E+00 -0.00000000000E+00 -0.29537508559E+03  0.29537508559E+03  0.00000000000E+00 0.  1.
         24    1    1    2    0    0  0.16851833829E+03 -0.77684767175E+02 -0.12889761800E+03  0.23982319586E+03  0.80419002446E+02 0.  1.
        -24    1    1    2    0    0 -0.16851833829E+03  0.77684767175E+02 -0.18908459378E+02  0.20312089795E+03  0.80419002446E+02 0. -1.
<mgrwt>
<rscale>  0 0.20223889E+03</rscale>
<asrwt>0</asrwt>
<pdfrwt beam="1">  1        1 0.22702925E-01 0.20223889E+03</pdfrwt>
<pdfrwt beam="2">  1       -1 0.45442320E-01 0.20223889E+03</pdfrwt>
<totfact> 0.10574787E+03</totfact>
</mgrwt>
</event>
<event>
 4    1  0.6602701E-002  0.1644472E+03  0.7546771E-02  0.1183765E+00
          1   -1    0    0  501    0  0.00000000000E+00  0.00000000000E+00  0.22263096763E+04  0.22263096763E+04  0.00000000000E+00 0. -1.
         -1   -1    0    0    0  501 -0.00000000000E+00 -0.00000000000E+00 -0.13201888000E+02  0.13201888000E+02  0.00000000000E+00 0.  1.
         24    1    1    2    0    0  0.18678440382E+02 -0.14222087005E+03  0.14230864780E+04  0.14325564561E+04  0.80419002446E+02 0. -1.
        -24    1    1    2    0    0 -0.18678440382E+02  0.14222087005E+03  0.79002131029E+03  0.80695510821E+03  0.80419002446E+02 0.  1.
<mgrwt>
<rscale>  0 0.16444720E+03</rscale>
<asrwt>0</asrwt>
<pdfrwt beam="1">  1        1 0.34250888E+00 0.16444722E+03</pdfrwt>
<pdfrwt beam="2">  1       -1 0.20310615E-02 0.16444722E+03</pdfrwt>
<totfact> 0.16205168E+03</totfact>
</mgrwt>
</event>
<event>
 4    1  0.6602701E-002  0.1029266E+03  0.7546771E-02  0.1274259E+00
          2   -1    0    0  501    0  0.00000000000E+00  0.00000000000E+00  0.30025878461E+04  0.30025878461E+04  0.00000000000E+00 0. -1.
         -2   -1    0    0    0  501 -0.00000000000E+00 -0.00000000000E+00 -0.66819626667E+01  0.66819626667E+01  0.00000000000E+00 0.  1.
         24    1    1    2    0    0  0.52954070681E+02 -0.36366676930E+02  0.25316423714E+04  0.25337338024E+04  0.80419002446E+02 0. -1.
        -24    1    1    2    0    0 -0.52954070681E+02  0.36366676930E+02  0.46426351201E+03  0.47553600635E+03  0.80419002446E+02 0.  1.
<mgrwt>
<rscale>  0 0.10292660E+03</rscale>
<asrwt>0</asrwt>
<pdfrwt beam="1">  1        2 0.46193552E+00 0.10292660E+03</pdfrwt>
<pdfrwt beam="2">  1       -2 0.10279967E-02 0.10292660E+03</pdfrwt>
<totfact> 0.43023867E+03</totfact>
</mgrwt>
</event>
<event>
 4    1  0.6602701E-002  0.9253496E+02  0.7546771E-02  0.1296827E+00
          1   -1    0    0  501    0  0.00000000000E+00  0.00000000000E+00  0.11217096694E+02  0.11217096694E+02  0.00000000000E+00 0. -1.
         -1   -1    0    0    0  501 -0.00000000000E+00 -0.00000000000E+00 -0.76345869306E+03  0.76345869306E+03  0.00000000000E+00 0.  1.
         24    1    1    2    0    0  0.26609342129E+02 -0.37248380137E+02 -0.37178084921E+03  0.38312362849E+03  0.80419002446E+02 0.  1.
        -24    1    1    2    0    0 -0.26609342129E+02  0.37248380137E+02 -0.38046074716E+03  0.39155216127E+03  0.80419002446E+02 0.  0.
<mgrwt>
<rscale>  0 0.92534950E+02</rscale>
<asrwt>0</asrwt>
<pdfrwt beam="1">  1        1 0.17257065E-02 0.92534962E+02</pdfrwt>
<pdfrwt beam="2">  1       -1 0.11745523E+00 0.92534962E+02</pdfrwt>
<totfact> 0.48068892E+03</totfact>
</mgrwt>
</event>
<event>
 4    1  0.6602701E-002  0.1134953E+03  0.7546771E-02  0.1254231E+00
          2   -1    0    0  501    0  0.00000000000E+00  0.00000000000E+00  0.17588937102E+03  0.17588937102E+03  0.00000000000E+00 0. -1.
         -2   -1    0    0    0  501 -0.00000000000E+00 -0.00000000000E+00 -0.81210280541E+02  0.81210280541E+02  0.00000000000E+00 0.  1.
         24    1    1    2    0    0 -0.25510100826E+02 -0.75915735127E+02  0.70538323852E+01  0.11371427610E+03  0.80419002446E+02 0.  0.
        -24    1    1    2    0    0  0.25510100826E+02  0.75915735127E+02  0.87625258090E+02  0.14338537545E+03  0.80419002446E+02 0.  1.
<mgrwt>
<rscale>  0 0.11349530E+03</rscale>
<asrwt>0</asrwt>
<pdfrwt beam="1">  1        2 0.27059903E-01 0.11349531E+03</pdfrwt>
<pdfrwt beam="2">  1       -2 0.12493889E-01 0.11349531E+03</pdfrwt>
<totfact> 0.84892461E+03</totfact>
</mgrwt>
</event>
<event>
 4    1  0.6602701E-002  0.1235467E+03  0.7546771E-02  0.1237358E+00
          1   -1    0    0  501    0  0.00000000000E+00  0.00000000000E+00  0.16528742370E+03  0.16528742370E+03  0.00000000000E+00 0. -1.
         -1   -1    0    0    0  501 -0.00000000000E+00 -0.00000000000E+00 -0.14168971867E+03  0.14168971867E+03  0.00000000000E+00 0.  1.
         24    1    1    2    0    0 -0.51417255609E+02  0.78439975623E+02 -0.78778346335E+02  0.14652579212E+03  0.80419002446E+02 0.  1.
        -24    1    1    2    0    0  0.51417255609E+02 -0.78439975623E+02  0.10237605137E+03  0.16045135025E+03  0.80419002446E+02 0. -1.
<mgrwt>
<rscale>  0 0.12354667E+03</rscale>
<asrwt>0</asrwt>
<pdfrwt beam="1">  1        1 0.25428834E-01 0.12354667E+03</pdfrwt>
<pdfrwt beam="2">  1       -1 0.21798418E-01 0.12354667E+03</pdfrwt>
<totfact> 0.31466423E+03</totfact>
</mgrwt>
</event>
<event>
 4    1  0.6602701E-002  0.1375546E+03  0.7546771E-02  0.1216658E+00
         -2   -1    0    0    0  501 -0.00000000000E+00  0.00000000000E+00  0.21954964266E+02  0.21954964266E+02  0.00000000000E+00 0.  1.
          2   -1    0    0  501    0  0.00000000000E+00 -0.00000000000E+00 -0.11158230064E+04  0.11158230064E+04  0.00000000000E+00 0. -1.
         24    1    1    2    0    0  0.76126750790E+02 -0.81601271533E+02 -0.81835774489E+03  0.82983773370E+03  0.80419002446E+02 0. -1.
        -24    1    1    2    0    0 -0.76126750790E+02  0.81601271533E+02 -0.27551029728E+03  0.30794023700E+03  0.80419002446E+02 0.  1.
<mgrwt>
<rscale>  0 0.13755459E+03</rscale>
<asrwt>0</asrwt>
<pdfrwt beam="1">  1        2 0.17166501E+00 0.13755459E+03</pdfrwt>
<pdfrwt beam="2">  1       -2 0.33776882E-02 0.13755459E+03</pdfrwt>
<totfact> 0.77065503E+03</totfact>
</mgrwt>
</event>
<event>
 4    1  0.6602701E-002  0.9106126E+02  0.7546771E-02  0.1300302E+00
          1   -1    0    0  501    0  0.00000000000E+00  0.00000000000E+00  0.58756444796E+02  0.58756444796E+02  0.00000000000E+00 0. -1.
         -1   -1    0    0    0  501 -0.00000000000E+00 -0.00000000000E+00 -0.15871255790E+03  0.15871255790E+03  0.00000000000E+00 0.  1.
         24    1    1    2    0    0  0.37278544470E+02  0.20862597354E+02 -0.86171746228E+02  0.12537034597E+03  0.80419002446E+02 0.  1.
        -24    1    1    2    0    0 -0.37278544470E+02 -0.20862597354E+02 -0.13784366875E+02  0.92098656726E+02  0.80419002446E+02 0. -1.
<mgrwt>
<rscale>  0 0.91061264E+02</rscale>
<asrwt>0</asrwt>
<pdfrwt beam="1">  1        1 0.90394530E-02 0.91061264E+02</pdfrwt>
<pdfrwt beam="2">  1       -1 0.24417317E-01 0.91061264E+02</pdfrwt>
<totfact> 0.96635087E+03</totfact>
</mgrwt>
</event>
<event>
 4    1  0.6602701E-002  0.9405828E+02  0.7546771E-02  0.1293311E+00
         -2   -1    0    0    0  501 -0.00000000000E+00  0.00000000000E+00  0.46410563981E+03  0.46410563981E+03  0.00000000000E+00 0.  1.
          2   -1    0    0  501    0  0.00000000000E+00 -0.00000000000E+00 -0.28552417509E+02  0.28552417509E+02  0.00000000000E+00 0. -1.
         24    1    1    2    0    0 -0.27621051852E+02 -0.40209711343E+02  0.75763627159E+02  0.12077701166E+03  0.80419002446E+02 0. -1.
        -24    1    1    2    0    0  0.27621051852E+02  0.40209711343E+02  0.35978959514E+03  0.37188104566E+03  0.80419002446E+02 0.  1.
<mgrwt>
<rscale>  0 0.94058276E+02</rscale>
<asrwt>0</asrwt>
<pdfrwt beam="1">  1        2 0.43926800E-02 0.94058276E+02</pdfrwt>
<pdfrwt beam="2">  1       -2 0.71400862E-01 0.94058276E+02</pdfrwt>
<totfact> 0.31667375E+03</totfact>
</mgrwt>
</event>
<event>
 4    1  0.6602701E-002  0.8299398E+02  0.7546771E-02  0.1320763E+00
         -2   -1    0    0    0  501 -0.00000000000E+00  0.00000000000E+00  0.87170591454E+01  0.87170591454E+01  0.00000000000E+00 0.  1.
          2   -1    0    0  501    0  0.00000000000E+00 -0.00000000000E+00 -0.29007522017E+04  0.29007522017E+04  0.00000000000E+00 0. -1.
         24    1    1    2    0    0  0.20209190023E+02  0.35175469826E+01 -0.26868956267E+04  0.26881770978E+04  0.80419002446E+02 0. -1.
        -24    1    1    2    0    0 -0.20209190023E+02 -0.35175469826E+01 -0.20513951586E+03  0.22129216303E+03  0.80419002446E+02 0.  1.
<mgrwt>
<rscale>  0 0.82993978E+02</rscale>
<asrwt>0</asrwt>
<pdfrwt beam="1">  1        2 0.44627020E+00 0.82993978E+02</pdfrwt>
<pdfrwt beam="2">  1       -2 0.13410841E-02 0.82993978E+02</pdfrwt>
<totfact> 0.33708087E+03</totfact>
</mgrwt>
</event>
<event>
 4    1  0.6602701E-002  0.8089507E+02  0.7546771E-02  0.1326530E+00
         -1   -1    0    0    0  501 -0.00000000000E+00  0.00000000000E+00  0.29826545346E+02  0.29826545346E+02  0.00000000000E+00 0.  1.
          1   -1    0    0  501    0  0.00000000000E+00 -0.00000000000E+00 -0.22610054912E+03  0.22610054912E+03  0.00000000000E+00 0. -1.
         24    1    1    2    0    0 -0.45800498319E+01 -0.74710263673E+01 -0.12016221032E+03  0.14485498208E+03  0.80419002446E+02 0. -1.
        -24    1    1    2    0    0  0.45800498319E+01  0.74710263673E+01 -0.76111793453E+02  0.11107211238E+03  0.80419002446E+02 0.  0.
<mgrwt>
<rscale>  0 0.80895060E+02</rscale>
<asrwt>0</asrwt>
<pdfrwt beam="1">  1        1 0.34784700E-01 0.80895070E+02</pdfrwt>
<pdfrwt beam="2">  1       -1 0.45886993E-02 0.80895070E+02</pdfrwt>
<totfact> 0.22068406E+04</totfact>
</mgrwt>
</event>
<event>
 4    1  0.6602701E-002  0.8443571E+02  0.7546771E-02  0.1316915E+00
          2   -1    0    0  501    0  0.00000000000E+00  0.00000000000E+00  0.37593768318E+02  0.37593768318E+02  0.00000000000E+00 0. -1.
         -2   -1    0    0    0  501 -0.00000000000E+00 -0.00000000000E+00 -0.19028975759E+03  0.19028975759E+03  0.00000000000E+00 0.  1.
         24    1    1    2    0    0  0.23867111813E+02  0.96194244036E+01 -0.69704358914E+02  0.10949011808E+03  0.80419002446E+02 0.  0.
        -24    1    1    2    0    0 -0.23867111813E+02 -0.96194244036E+01 -0.82991630357E+02  0.11839340782E+03  0.80419002446E+02 0.  1.
<mgrwt>
<rscale>  0 0.84435705E+02</rscale>
<asrwt>0</asrwt>
<pdfrwt beam="1">  1        2 0.57836567E-02 0.84435705E+02</pdfrwt>
<pdfrwt beam="2">  1       -2 0.29275347E-01 0.84435705E+02</pdfrwt>
<totfact> 0.12311473E+04</totfact>
</mgrwt>
</event>
<event>
 4    1  0.6602701E-002  0.8257379E+02  0.7546771E-02  0.1321902E+00
         -1   -1    0    0    0  501 -0.00000000000E+00  0.00000000000E+00  0.70518884183E+02  0.70518884183E+02  0.00000000000E+00 0.  1.
          1   -1    0    0  501    0  0.00000000000E+00 -0.00000000000E+00 -0.11365325033E+03  0.11365325033E+03  0.00000000000E+00 0. -1.
         24    1    1    2    0    0  0.16651113415E+02 -0.85997156396E+01  0.14009449716E+02  0.83753777961E+02  0.80419002446E+02 0.  1.
        -24    1    1    2    0    0 -0.16651113415E+02  0.85997156396E+01 -0.57143815863E+02  0.10041835655E+03  0.80419002446E+02 0. -1.
<mgrwt>
<rscale>  0 0.82573789E+02</rscale>
<asrwt>0</asrwt>
<pdfrwt beam="1">  1        1 0.17485115E-01 0.82573789E+02</pdfrwt>
<pdfrwt beam="2">  1       -1 0.10849059E-01 0.82573789E+02</pdfrwt>
<totfact> 0.14488529E+04</totfact>
</mgrwt>
</event>
<event>
 4    1  0.6602701E-002  0.9612191E+02  0.7546771E-02  0.1288669E+00
          1   -1    0    0  501    0  0.00000000000E+00  0.00000000000E+00  0.55339899799E+02  0.55339899799E+02  0.00000000000E+00 0. -1.
         -1   -1    0    0    0  501 -0.00000000000E+00 -0.00000000000E+00 -0.19494290381E+03  0.19494290381E+03  0.00000000000E+00 0.  1.
         24    1    1    2    0    0  0.48542923992E+02 -0.20390936686E+02 -0.11721605172E+03  0.15158833894E+03  0.80419002446E+02 0.  1.
        -24    1    1    2    0    0 -0.48542923992E+02  0.20390936686E+02 -0.22386952295E+02  0.98694464668E+02  0.80419002446E+02 0. -1.
<mgrwt>
<rscale>  0 0.96121911E+02</rscale>
<asrwt>0</asrwt>
<pdfrwt beam="1">  1        1 0.85138306E-02 0.96121911E+02</pdfrwt>
<pdfrwt beam="2">  1       -1 0.29991216E-01 0.96121911E+02</pdfrwt>
<totfact> 0.74980850E+03</totfact>
</mgrwt>
</event>
<event>
 4    1  0.6602701E-002  0.1408285E+03  0.7546771E-02  0.1212218E+00
          2   -1    0    0  501    0  0.00000000000E+00  0.00000000000E+00  0.16238209798E+04  0.16238209798E+04  0.00000000000E+00 0. -1.
         -2   -1    0    0    0  501 -0.00000000000E+00 -0.00000000000E+00 -0.13577844395E+02  0.13577844395E+02  0.00000000000E+00 0.  1.
         24    1    1    2    0    0  0.82518535447E+02  0.80970023161E+02  0.54560914293E+03  0.56349091044E+03  0.80419002446E+02 0.  1.
        -24    1    1    2    0    0 -0.82518535447E+02 -0.80970023161E+02  0.10646339925E+04  0.10739079137E+04  0.80419002446E+02 0. -1.
<mgrwt>
<rscale>  0 0.14082853E+03</rscale>
<asrwt>0</asrwt>
<pdfrwt beam="1">  1        2 0.24981846E+00 0.14082855E+03</pdfrwt>
<pdfrwt beam="2">  1       -2 0.20889004E-02 0.14082855E+03</pdfrwt>
<totfact> 0.83376772E+03</totfact>
</mgrwt>
</event>
<event>
 4    1  0.6602701E-002  0.1536740E+03  0.7546771E-02  0.1196030E+00
          2   -1    0    0  501    0  0.00000000000E+00  0.00000000000E+00  0.14796665028E+04  0.14796665028E+04  0.00000000000E+00 0. -1.
         -2   -1    0    0    0  501 -0.00000000000E+00 -0.00000000000E+00 -0.16435106321E+02  0.16435106321E+02  0.00000000000E+00 0.  1.
         24    1    1    2    0    0 -0.10168162713E+03  0.82518675341E+02  0.85878173823E+03  0.87242293353E+03  0.80419002446E+02 0.  1.
        -24    1    1    2    0    0  0.10168162713E+03 -0.82518675341E+02  0.60444965825E+03  0.62367867559E+03  0.80419002446E+02 0. -1.
<mgrwt>
<rscale>  0 0.15367401E+03</rscale>
<asrwt>0</asrwt>
<pdfrwt beam="1">  1        2 0.22764090E+00 0.15367401E+03</pdfrwt>
<pdfrwt beam="2">  1       -2 0.25284791E-02 0.15367401E+03</pdfrwt>
<totfact> 0.75185608E+03</totfact>
</mgrwt>
</event>
<event>
 4    1  0.6602701E-002  0.1118918E+03  0.7546771E-02  0.1257106E+00
         -2   -1    0    0    0  501 -0.00000000000E+00  0.00000000000E+00  0.85109581082E+02  0.85109581082E+02  0.00000000000E+00 0.  1.
          2   -1    0    0  501    0  0.00000000000E+00 -0.00000000000E+00 -0.15651430856E+03  0.15651430856E+03  0.00000000000E+00 0. -1.
         24    1    1    2    0    0  0.60998327512E+02  0.48288302998E+02 -0.65329226614E+02  0.12956727970E+03  0.80419002446E+02 0. -1.
        -24    1    1    2    0    0 -0.60998327512E+02 -0.48288302998E+02 -0.60755008649E+01  0.11205660994E+03  0.80419002446E+02 0.  0.
<mgrwt>
<rscale>  0 0.11189179E+03</rscale>
<asrwt>0</asrwt>
<pdfrwt beam="1">  1        2 0.24079124E-01 0.11189179E+03</pdfrwt>
<pdfrwt beam="2">  1       -2 0.13093782E-01 0.11189179E+03</pdfrwt>
<totfact> 0.89389511E+03</totfact>
</mgrwt>
</event>
<event>
 4    1  0.6602701E-002  0.9898528E+02  0.7546771E-02  0.1282444E+00
          1   -1    0    0  501    0  0.00000000000E+00  0.00000000000E+00  0.25692036347E+02  0.25692036347E+02  0.00000000000E+00 0. -1.
         -1   -1    0    0    0  501 -0.00000000000E+00 -0.00000000000E+00 -0.45183392860E+03  0.45183392860E+03  0.00000000000E+00 0.  1.
         24    1    1    2    0    0  0.57678193971E+02 -0.20236404882E+01 -0.30736219960E+03  0.32290804710E+03  0.80419002446E+02 0.  1.
        -24    1    1    2    0    0 -0.57678193971E+02  0.20236404882E+01 -0.11877969265E+03  0.15461791785E+03  0.80419002446E+02 0. -1.
<mgrwt>
<rscale>  0 0.98985277E+02</rscale>
<asrwt>0</asrwt>
<pdfrwt beam="1">  1        1 0.39526213E-02 0.98985277E+02</pdfrwt>
<pdfrwt beam="2">  1       -1 0.69512906E-01 0.98985277E+02</pdfrwt>
<totfact> 0.46919441E+03</totfact>
</mgrwt>
</event>
<event>
 4    1  0.6602701E-002  0.8352156E+02  0.7546771E-02  0.1319345E+00
         -1   -1    0    0    0  501 -0.00000000000E+00  0.00000000000E+00  0.18246779370E+02  0.18246779370E+02  0.00000000000E+00 0.  1.
          1   -1    0    0  501    0  0.00000000000E+00 -0.00000000000E+00 -0.47309783202E+03  0.47309783202E+03  0.00000000000E+00 0. -1.
         24    1    1    2    0    0 -0.25297398240E+01 -0.22410627166E+02 -0.11980272123E+03  0.14604295177E+03  0.80419002446E+02 0.  1.
        -24    1    1    2    0    0  0.25297398240E+01  0.22410627166E+02 -0.33504833142E+03  0.34530165962E+03  0.80419002446E+02 0. -1.
<mgrwt>
<rscale>  0 0.83521565E+02</rscale>
<asrwt>0</asrwt>
<pdfrwt beam="1">  1        1 0.72784280E-01 0.83521565E+02</pdfrwt>
<pdfrwt beam="2">  1       -1 0.28071969E-02 0.83521565E+02</pdfrwt>
<totfact> 0.18185499E+04</totfact>
</mgrwt>
</event>
<event>
 4    1  0.6602701E-002  0.1107414E+03  0.7546771E-02  0.1259203E+00
         -2   -1    0    0    0  501 -0.00000000000E+00  0.00000000000E+00  0.87723937610E+02  0.87723937610E+02  0.00000000000E+00 0.  1.
          2   -1    0    0  501    0  0.00000000000E+00 -0.00000000000E+00 -0.20137561398E+03  0.20137561398E+03  0.00000000000E+00 0. -1.
         24    1    1    2    0    0  0.52191758312E+02  0.55429790938E+02 -0.13675851470E+03  0.17597314755E+03  0.80419002446E+02 0. -1.
        -24    1    1    2    0    0 -0.52191758312E+02 -0.55429790938E+02  0.23106838336E+02  0.11312640404E+03  0.80419002446E+02 0.  1.
<mgrwt>
<rscale>  0 0.11074140E+03</rscale>
<asrwt>0</asrwt>
<pdfrwt beam="1">  1        2 0.30980863E-01 0.11074140E+03</pdfrwt>
<pdfrwt beam="2">  1       -2 0.13495991E-01 0.11074140E+03</pdfrwt>
<totfact> 0.64704929E+03</totfact>
</mgrwt>
</event>
<event>
 4    1  0.6602701E-002  0.8491694E+02  0.7546771E-02  0.1315650E+00
         -2   -1    0    0    0  501 -0.00000000000E+00  0.00000000000E+00  0.33922657983E+02  0.33922657983E+02  0.00000000000E+00 0.  1.
          2   -1    0    0  501    0  0.00000000000E+00 -0.00000000000E+00 -0.25662060478E+03  0.25662060478E+03  0.00000000000E+00 0. -1.
         24    1    1    2    0    0 -0.11186910893E+02  0.24870121050E+02 -0.17153820122E+03  0.19140595688E+03  0.80419002446E+02 0.  0.
        -24    1    1    2    0    0  0.11186910893E+02 -0.24870121050E+02 -0.51159745580E+02  0.99137305887E+02  0.80419002446E+02 0. -1.
<mgrwt>
<rscale>  0 0.84916935E+02</rscale>
<asrwt>0</asrwt>
<pdfrwt beam="1">  1        2 0.39480093E-01 0.84916935E+02</pdfrwt>
<pdfrwt beam="2">  1       -2 0.52188704E-02 0.84916935E+02</pdfrwt>
<totfact> 0.21094931E+04</totfact>
</mgrwt>
</event>
<event>
 4    1  0.6602701E-002  0.1319169E+03  0.7546771E-02  0.1224639E+00
          2   -1    0    0  501    0  0.00000000000E+00  0.00000000000E+00  0.13280563079E+04  0.13280563079E+04  0.00000000000E+00 0. -1.
         -2   -1    0    0    0  501 -0.00000000000E+00 -0.00000000000E+00 -0.13336385292E+02  0.13336385292E+02  0.00000000000E+00 0.  1.
         24    1    1    2    0    0 -0.75936861923E+02  0.71891990985E+02  0.74600435386E+03  0.75757809980E+03  0.80419002446E+02 0.  1.
        -24    1    1    2    0    0  0.75936861923E+02 -0.71891990985E+02  0.56871556878E+03  0.58381459342E+03  0.80419002446E+02 0. -1.
<mgrwt>
<rscale>  0 0.13191695E+03</rscale>
<asrwt>0</asrwt>
<pdfrwt beam="1">  1        2 0.20431625E+00 0.13191695E+03</pdfrwt>
<pdfrwt beam="2">  1       -2 0.20517526E-02 0.13191695E+03</pdfrwt>
<totfact> 0.12188711E+04</totfact>
</mgrwt>
</event>
<event>
 4    1  0.6602701E-002  0.1693718E+03  0.7546771E-02  0.1178505E+00
         -2   -1    0    0    0  501 -0.00000000000E+00  0.00000000000E+00  0.39519810466E+02  0.39519810466E+02  0.00000000000E+00 0.  1.
          2   -1    0    0  501    0  0.00000000000E+00 -0.00000000000E+00 -0.89704492781E+03  0.89704492781E+03  0.00000000000E+00 0. -1.
         24    1    1    2    0    0  0.14493609077E+03  0.34829662779E+02 -0.63331432243E+03  0.65557137122E+03  0.80419002446E+02 0. -1.
        -24    1    1    2    0    0 -0.14493609077E+03 -0.34829662779E+02 -0.22421079491E+03  0.28099336705E+03  0.80419002446E+02 0.  1.
<mgrwt>
<rscale>  0 0.16937176E+03</rscale>
<asrwt>0</asrwt>
<pdfrwt beam="1">  1        2 0.13800689E+00 0.16937176E+03</pdfrwt>
<pdfrwt beam="2">  1       -2 0.60799717E-02 0.16937176E+03</pdfrwt>
<totfact> 0.43539039E+03</totfact>
</mgrwt>
</event>
<event>
 4    1  0.6602701E-002  0.2141412E+03  0.7546771E-02  0.1138328E+00
          2   -1    0    0  501    0  0.00000000000E+00  0.00000000000E+00  0.56339947091E+03  0.56339947091E+03  0.00000000000E+00 0. -1.
         -2   -1    0    0    0  501 -0.00000000000E+00 -0.00000000000E+00 -0.10806492896E+03  0.10806492896E+03  0.00000000000E+00 0.  1.
         24    1    1    2    0    0 -0.12106119795E+03 -0.15726868616E+03  0.39446195857E+03  0.44883928750E+03  0.80419002446E+02 0.  0.
        -24    1    1    2    0    0  0.12106119795E+03  0.15726868616E+03  0.60872583374E+02  0.22262511237E+03  0.80419002446E+02 0.  1.
<mgrwt>
<rscale>  0 0.21414124E+03</rscale>
<asrwt>0</asrwt>
<pdfrwt beam="1">  1        2 0.86676840E-01 0.21414124E+03</pdfrwt>
<pdfrwt beam="2">  1       -2 0.16625374E-01 0.21414124E+03</pdfrwt>
<totfact> 0.15588136E+03</totfact>
</mgrwt>
</event>
<event>
 4    1  0.6602701E-002  0.1248001E+03  0.7546771E-02  0.1235382E+00
          2   -1    0    0  501    0  0.00000000000E+00  0.00000000000E+00  0.24102443072E+04  0.24102443072E+04  0.00000000000E+00 0. -1.
         -2   -1    0    0    0  501 -0.00000000000E+00 -0.00000000000E+00 -0.10719357533E+02  0.10719357533E+02  0.00000000000E+00 0.  1.
         24    1    1    2    0    0  0.94989541577E+02 -0.92105852249E+01  0.19626185004E+04  0.19665824270E+04  0.80419002446E+02 0. -1.
        -24    1    1    2    0    0 -0.94989541577E+02  0.92105852249E+01  0.43690644919E+03  0.45438123771E+03  0.80419002446E+02 0.  1.
<mgrwt>
<rscale>  0 0.12480010E+03</rscale>
<asrwt>0</asrwt>
<pdfrwt beam="1">  1        2 0.37080638E+00 0.12480010E+03</pdfrwt>
<pdfrwt beam="2">  1       -2 0.16491338E-02 0.12480010E+03</pdfrwt>
<totfact> 0.46122983E+03</totfact>
</mgrwt>
</event>
<event>
 4    1  0.6602701E-002  0.8154986E+02  0.7546771E-02  0.1324710E+00
         -2   -1    0    0    0  501 -0.00000000000E+00  0.00000000000E+00  0.80166789573E+03  0.80166789573E+03  0.00000000000E+00 0.  1.
          2   -1    0    0  501    0  0.00000000000E+00 -0.00000000000E+00 -0.15342057061E+02  0.15342057061E+02  0.00000000000E+00 0. -1.
         24    1    1    2    0    0 -0.29677227081E+01  0.13204429219E+02  0.11631676446E+03  0.14205622119E+03  0.80419002446E+02 0. -1.
        -24    1    1    2    0    0  0.29677227081E+01 -0.13204429219E+02  0.67000907420E+03  0.67495373160E+03  0.80419002446E+02 0.  0.
<mgrwt>
<rscale>  0 0.81549864E+02</rscale>
<asrwt>0</asrwt>
<pdfrwt beam="1">  1        2 0.23603171E-02 0.81549864E+02</pdfrwt>
<pdfrwt beam="2">  1       -2 0.12333349E+00 0.81549864E+02</pdfrwt>
<totfact> 0.20753952E+03</totfact>
</mgrwt>
</event>
<event>
 4    1  0.6602701E-002  0.8323105E+02  0.7546771E-02  0.1320124E+00
          2   -1    0    0  501    0  0.00000000000E+00  0.00000000000E+00  0.23804206688E+04  0.23804206688E+04  0.00000000000E+00 0. -1.
         -2   -1    0    0    0  501 -0.00000000000E+00 -0.00000000000E+00 -0.31871108036E+01  0.31871108036E+01  0.00000000000E+00 0.  1.
         24    1    1    2    0    0  0.13458001460E+01  0.21409807874E+02  0.15399400164E+04  0.15421876218E+04  0.80419002446E+02 0. -1.
        -24    1    1    2    0    0 -0.13458001460E+01 -0.21409807874E+02  0.83729354166E+03  0.84142015778E+03  0.80419002446E+02 0. -1.
<mgrwt>
<rscale>  0 0.83231046E+02</rscale>
<asrwt>0</asrwt>
<pdfrwt beam="1">  1        2 0.36621714E+00 0.83231046E+02</pdfrwt>
<pdfrwt beam="2">  1       -2 0.49032664E-03 0.83231046E+02</pdfrwt>
<totfact> 0.26350441E+04</totfact>
</mgrwt>
</event>
<event>
 4    1  0.8065849E-002  0.9817312E+02  0.7546771E-02  0.1284185E+00
         -1   -1    0    0    0  501 -0.00000000000E+00  0.00000000000E+00  0.57972575497E+02  0.57972575497E+02  0.00000000000E+00 0.  1.
          1   -1    0    0  501    0  0.00000000000E+00 -0.00000000000E+00 -0.88492978659E+03  0.88492978659E+03  0.00000000000E+00 0. -1.
         24    1    1    2    0    0  0.49827358408E+02  0.26229373805E+02  0.11385388013E+02  0.98831112058E+02  0.80419002446E+02 0.  1.
        -24    1    1    2    0    0 -0.49827358408E+02 -0.26229373805E+02 -0.83834259910E+03  0.84407125003E+03  0.80419002446E+02 0. -1.
<mgrwt>
<rscale>  0 0.98173121E+02</rscale>
<asrwt>0</asrwt>
<pdfrwt beam="1">  1        1 0.13614305E+00 0.98173121E+02</pdfrwt>
<pdfrwt beam="2">  1       -1 0.89188576E-02 0.98173121E+02</pdfrwt>
<totfact> 0.14188004E+03</totfact>
</mgrwt>
</event>
<event>
 4    1  0.6602701E-002  0.9098669E+02  0.7546771E-02  0.1300480E+00
          2   -1    0    0  501    0  0.00000000000E+00  0.00000000000E+00  0.18659812458E+03  0.18659812458E+03  0.00000000000E+00 0. -1.
         -2   -1    0    0    0  501 -0.00000000000E+00 -0.00000000000E+00 -0.48595309785E+02  0.48595309785E+02  0.00000000000E+00 0.  1.
         24    1    1    2    0    0  0.60212825893E+01 -0.42131966920E+02  0.34308298930E+02  0.97240083353E+02  0.80419002446E+02 0.  0.
        -24    1    1    2    0    0 -0.60212825893E+01  0.42131966920E+02  0.10369451586E+03  0.13795335101E+03  0.80419002446E+02 0.  0.
<mgrwt>
<rscale>  0 0.90986683E+02</rscale>
<asrwt>0</asrwt>
<pdfrwt beam="1">  1        2 0.28707403E-01 0.90986694E+02</pdfrwt>
<pdfrwt beam="2">  1       -2 0.74762016E-02 0.90986694E+02</pdfrwt>
<totfact> 0.17355246E+04</totfact>
</mgrwt>
</event>
<event>
 4    1  0.6602701E-002  0.1020204E+03  0.7546771E-02  0.1276104E+00
         -2   -1    0    0    0  501 -0.00000000000E+00  0.00000000000E+00  0.47444979154E+02  0.47444979154E+02  0.00000000000E+00 0.  1.
          2   -1    0    0  501    0  0.00000000000E+00 -0.00000000000E+00 -0.24629989863E+03  0.24629989863E+03  0.00000000000E+00 0. -1.
         24    1    1    2    0    0  0.39564601630E+02  0.48739999166E+02 -0.14798973411E+03  0.17974738546E+03  0.80419002446E+02 0.  1.
        -24    1    1    2    0    0 -0.39564601630E+02 -0.48739999166E+02 -0.50865185365E+02  0.11399749233E+03  0.80419002446E+02 0.  0.
<mgrwt>
<rscale>  0 0.10202040E+03</rscale>
<asrwt>0</asrwt>
<pdfrwt beam="1">  1        2 0.37892291E-01 0.10202040E+03</pdfrwt>
<pdfrwt beam="2">  1       -2 0.72992278E-02 0.10202040E+03</pdfrwt>
<totfact> 0.13547405E+04</totfact>
</mgrwt>
</event>
<event>
 4    1  0.6602701E-002  0.1291681E+03  0.7546771E-02  0.1228695E+00
         -1   -1    0    0    0  501 -0.00000000000E+00  0.00000000000E+00  0.15747411476E+03  0.15747411476E+03  0.00000000000E+00 0.  1.
          1   -1    0    0  501    0  0.00000000000E+00 -0.00000000000E+00 -0.11535940225E+03  0.11535940225E+03  0.00000000000E+00 0. -1.
         24    1    1    2    0    0  0.58398184000E+01 -0.10091121863E+03  0.60017507111E+02  0.14243066607E+03  0.80419002446E+02 0.  1.
        -24    1    1    2    0    0 -0.58398184000E+01  0.10091121863E+03 -0.17902794602E+02  0.13040285094E+03  0.80419002446E+02 0. -1.
<mgrwt>
<rscale>  0 0.12916808E+03</rscale>
<asrwt>0</asrwt>
<pdfrwt beam="1">  1        1 0.17747600E-01 0.12916808E+03</pdfrwt>
<pdfrwt beam="2">  1       -1 0.24226787E-01 0.12916808E+03</pdfrwt>
<totfact> 0.41863939E+03</totfact>
</mgrwt>
</event>
<event>
 4    1  0.6602701E-002  0.8541666E+02  0.7546771E-02  0.1314346E+00
         -4   -1    0    0    0  501 -0.00000000000E+00  0.00000000000E+00  0.69512832785E+01  0.69512832785E+01  0.00000000000E+00 0.  1.
          4   -1    0    0  501    0  0.00000000000E+00 -0.00000000000E+00 -0.12609241795E+04  0.12609241795E+04  0.00000000000E+00 0. -1.
         24    1    1    2    0    0 -0.10856083593E+02  0.26663381710E+02 -0.88651530483E+03  0.89062079031E+03  0.80419002446E+02 0. -1.
        -24    1    1    2    0    0  0.10856083593E+02 -0.26663381710E+02 -0.36745759136E+03  0.37725467244E+03  0.80419002446E+02 0.  1.
<mgrwt>
<rscale>  0 0.85416664E+02</rscale>
<asrwt>0</asrwt>
<pdfrwt beam="1">  1        4 0.19398840E+00 0.85416664E+02</pdfrwt>
<pdfrwt beam="2">  1       -4 0.10694279E-02 0.85416664E+02</pdfrwt>
<totfact> 0.64048366E+02</totfact>
</mgrwt>
</event>
<event>
 4    1  0.6602701E-002  0.9639389E+02  0.7546771E-02  0.1288067E+00
         -1   -1    0    0    0  501 -0.00000000000E+00  0.00000000000E+00  0.28614826192E+03  0.28614826192E+03  0.00000000000E+00 0.  1.
          1   -1    0    0  501    0  0.00000000000E+00 -0.00000000000E+00 -0.46928249776E+02  0.46928249776E+02  0.00000000000E+00 0. -1.
         24    1    1    2    0    0  0.41720393162E+02 -0.32923762463E+02  0.21204277668E+03  0.23292470980E+03  0.80419002446E+02 0.  1.
        -24    1    1    2    0    0 -0.41720393162E+02  0.32923762463E+02  0.27177235463E+02  0.10015180189E+03  0.80419002446E+02 0. -1.
<mgrwt>
<rscale>  0 0.96393886E+02</rscale>
<asrwt>0</asrwt>
<pdfrwt beam="1">  1        1 0.72197309E-02 0.96393886E+02</pdfrwt>
<pdfrwt beam="2">  1       -1 0.44022809E-01 0.96393886E+02</pdfrwt>
<totfact> 0.48396443E+03</totfact>
</mgrwt>
</event>
<event>
 4    1  0.6602701E-002  0.1136406E+03  0.7546771E-02  0.1253973E+00
         -4   -1    0    0    0  501 -0.00000000000E+00  0.00000000000E+00  0.12820280960E+03  0.12820280960E+03  0.00000000000E+00 0.  1.
          4   -1    0    0  501    0  0.00000000000E+00 -0.00000000000E+00 -0.10365314382E+03  0.10365314382E+03  0.00000000000E+00 0. -1.
         24    1    1    2    0    0 -0.69729186540E+02 -0.39809467567E+02  0.31735070792E+02  0.11798849027E+03  0.80419002446E+02 0. -1.
        -24    1    1    2    0    0  0.69729186540E+02  0.39809467567E+02 -0.71854050148E+01  0.11386746315E+03  0.80419002446E+02 0. -1.
<mgrwt>
<rscale>  0 0.11364054E+03</rscale>
<asrwt>0</asrwt>
<pdfrwt beam="1">  1        4 0.15946637E-01 0.11364055E+03</pdfrwt>
<pdfrwt beam="2">  1       -4 0.19723509E-01 0.11364055E+03</pdfrwt>
<totfact> 0.12401925E+03</totfact>
</mgrwt>
</event>
<event>
 4    1  0.6602701E-002  0.8480945E+02  0.7546771E-02  0.1315932E+00
         -2   -1    0    0    0  501 -0.00000000000E+00  0.00000000000E+00  0.36092123937E+02  0.36092123937E+02  0.00000000000E+00 0.  1.
          2   -1    0    0  501    0  0.00000000000E+00 -0.00000000000E+00 -0.22067647299E+03  0.22067647299E+03  0.00000000000E+00 0. -1.
         24    1    1    2    0    0 -0.22563702911E+02  0.14707334344E+02 -0.13226341779E+03  0.15711859855E+03  0.80419002446E+02 0. -1.
        -24    1    1    2    0    0  0.22563702911E+02 -0.14707334344E+02 -0.52320931263E+02  0.99649998370E+02  0.80419002446E+02 0.  1.
<mgrwt>
<rscale>  0 0.84809447E+02</rscale>
<asrwt>0</asrwt>
<pdfrwt beam="1">  1        2 0.33950226E-01 0.84809447E+02</pdfrwt>
<pdfrwt beam="2">  1       -2 0.55526345E-02 0.84809447E+02</pdfrwt>
<totfact> 0.22541658E+04</totfact>
</mgrwt>
</event>
<event>
 4    1  0.6602701E-002  0.9783266E+02  0.7546771E-02  0.1284921E+00
         -1   -1    0    0    0  501 -0.00000000000E+00  0.00000000000E+00  0.65217996610E+02  0.65217996610E+02  0.00000000000E+00 0.  1.
          1   -1    0    0  501    0  0.00000000000E+00 -0.00000000000E+00 -0.22358700147E+03  0.22358700147E+03  0.00000000000E+00 0. -1.
         24    1    1    2    0    0  0.27988901637E+02  0.48172957350E+02  0.54632666757E+01  0.97985078822E+02  0.80419002446E+02 0.  1.
        -24    1    1    2    0    0 -0.27988901637E+02 -0.48172957350E+02 -0.16383227153E+03  0.19081991926E+03  0.80419002446E+02 0. -1.
<mgrwt>
<rscale>  0 0.97832655E+02</rscale>
<asrwt>0</asrwt>
<pdfrwt beam="1">  1        1 0.34398001E-01 0.97832655E+02</pdfrwt>
<pdfrwt beam="2">  1       -1 0.10033538E-01 0.97832655E+02</pdfrwt>
<totfact> 0.71513600E+03</totfact>
</mgrwt>
</event>
<event>
 4    1  0.6602701E-002  0.1247339E+03  0.7546771E-02  0.1235486E+00
         -2   -1    0    0    0  501 -0.00000000000E+00  0.00000000000E+00  0.14681406034E+03  0.14681406034E+03  0.00000000000E+00 0.  1.
          2   -1    0    0  501    0  0.00000000000E+00 -0.00000000000E+00 -0.11514618000E+03  0.11514618000E+03  0.00000000000E+00 0. -1.
         24    1    1    2    0    0  0.33323453686E+02 -0.89335727414E+02 -0.21132362883E+02  0.12651133338E+03  0.80419002446E+02 0. -1.
        -24    1    1    2    0    0 -0.33323453686E+02  0.89335727414E+02  0.52800243216E+02  0.13544890696E+03  0.80419002446E+02 0.  1.
<mgrwt>
<rscale>  0 0.12473388E+03</rscale>
<asrwt>0</asrwt>
<pdfrwt beam="1">  1        2 0.17714797E-01 0.12473388E+03</pdfrwt>
<pdfrwt beam="2">  1       -2 0.22586779E-01 0.12473388E+03</pdfrwt>
<totfact> 0.51542826E+03</totfact>
</mgrwt>
</event>
<event>
 4    1  0.6602701E-002  0.9444339E+02  0.7546771E-02  0.1292435E+00
         -1   -1    0    0    0  501 -0.00000000000E+00  0.00000000000E+00  0.23876305122E+03  0.23876305122E+03  0.00000000000E+00 0.  1.
          1   -1    0    0  501    0  0.00000000000E+00 -0.00000000000E+00 -0.62651393851E+02  0.62651393851E+02  0.00000000000E+00 0. -1.
         24    1    1    2    0    0  0.17192687512E+02  0.46440823949E+02  0.18381444039E+03  0.20665745349E+03  0.80419002446E+02 0.  1.
        -24    1    1    2    0    0 -0.17192687512E+02 -0.46440823949E+02 -0.77027830200E+01  0.94756991581E+02  0.80419002446E+02 0. -1.
<mgrwt>
<rscale>  0 0.94443394E+02</rscale>
<asrwt>0</asrwt>
<pdfrwt beam="1">  1        1 0.96386761E-02 0.94443394E+02</pdfrwt>
<pdfrwt beam="2">  1       -1 0.36732777E-01 0.94443394E+02</pdfrwt>
<totfact> 0.45152883E+03</totfact>
</mgrwt>
</event>
<event>
 4    1  0.6602701E-002  0.9771588E+02  0.7546771E-02  0.1285174E+00
         -1   -1    0    0    0  501 -0.00000000000E+00  0.00000000000E+00  0.16581860481E+02  0.16581860481E+02  0.00000000000E+00 0.  1.
          1   -1    0    0  501    0  0.00000000000E+00 -0.00000000000E+00 -0.74401225466E+03  0.74401225466E+03  0.00000000000E+00 0. -1.
         24    1    1    2    0    0 -0.20314328838E+02 -0.51657569144E+02 -0.18290689743E+03  0.20737243184E+03  0.80419002446E+02 0.  1.
        -24    1    1    2    0    0  0.20314328838E+02  0.51657569144E+02 -0.54452349675E+03  0.55322168330E+03  0.80419002446E+02 0. -1.
<mgrwt>
<rscale>  0 0.97715876E+02</rscale>
<asrwt>0</asrwt>
<pdfrwt beam="1">  1        1 0.11446345E+00 0.97715876E+02</pdfrwt>
<pdfrwt beam="2">  1       -1 0.25510548E-02 0.97715876E+02</pdfrwt>
<totfact> 0.11523911E+04</totfact>
</mgrwt>
</event>
<event>
 4    1  0.6602701E-002  0.1442499E+03  0.7546771E-02  0.1207722E+00
         -1   -1    0    0    0  501 -0.00000000000E+00  0.00000000000E+00  0.33391907046E+02  0.33391907046E+02  0.00000000000E+00 0.  1.
          1   -1    0    0  501    0  0.00000000000E+00 -0.00000000000E+00 -0.74939617131E+03  0.74939617131E+03  0.00000000000E+00 0. -1.
         24    1    1    2    0    0  0.81448591641E+02  0.87789259819E+02 -0.19735463929E+03  0.24445223833E+03  0.80419002446E+02 0. -1.
        -24    1    1    2    0    0 -0.81448591641E+02 -0.87789259819E+02 -0.51864962497E+03  0.53833584003E+03  0.80419002446E+02 0.  1.
<mgrwt>
<rscale>  0 0.14424993E+03</rscale>
<asrwt>0</asrwt>
<pdfrwt beam="1">  1        1 0.11529173E+00 0.14424993E+03</pdfrwt>
<pdfrwt beam="2">  1       -1 0.51372161E-02 0.14424993E+03</pdfrwt>
<totfact> 0.41996544E+03</totfact>
</mgrwt>
</event>
<event>
 4    1  0.6602701E-002  0.8956707E+02  0.7546771E-02  0.1303904E+00
         -3   -1    0    0    0  501 -0.00000000000E+00  0.00000000000E+00  0.92990161672E+03  0.92990161672E+03  0.00000000000E+00 0.  1.
          3   -1    0    0  501    0  0.00000000000E+00 -0.00000000000E+00 -0.13622861377E+02  0.13622861377E+02  0.00000000000E+00 0. -1.
         24    1    1    2    0    0  0.30171962782E+02 -0.25390862399E+02  0.74382888710E+03  0.74920202380E+03  0.80419002446E+02 0.  1.
        -24    1    1    2    0    0 -0.30171962782E+02  0.25390862399E+02  0.17244986825E+03  0.19432245430E+03  0.80419002446E+02 0. -1.
<mgrwt>
<rscale>  0 0.89567065E+02</rscale>
<asrwt>0</asrwt>
<pdfrwt beam="1">  1        3 0.20958256E-02 0.89567065E+02</pdfrwt>
<pdfrwt beam="2">  1       -3 0.14306174E+00 0.89567065E+02</pdfrwt>
<totfact> 0.74066572E+02</totfact>
</mgrwt>
</event>
<event>
 4    1  0.6602701E-002  0.2045071E+03  0.7546771E-02  0.1145991E+00
          2   -1    0    0  501    0  0.00000000000E+00  0.00000000000E+00  0.37546028718E+04  0.37546028718E+04  0.00000000000E+00 0. -1.
         -2   -1    0    0    0  501 -0.00000000000E+00 -0.00000000000E+00 -0.11405433503E+02  0.11405433503E+02  0.00000000000E+00 0.  1.
         24    1    1    2    0    0 -0.15199248274E+03 -0.11069864071E+03  0.15838854735E+04  0.15970335980E+04  0.80419002446E+02 0.  0.
        -24    1    1    2    0    0  0.15199248274E+03  0.11069864071E+03  0.21593119648E+04  0.21689747073E+04  0.80419002446E+02 0.  0.
<mgrwt>
<rscale>  0 0.20450704E+03</rscale>
<asrwt>0</asrwt>
<pdfrwt beam="1">  1        2 0.57763022E+00 0.20450707E+03</pdfrwt>
<pdfrwt beam="2">  1       -2 0.17546851E-02 0.20450707E+03</pdfrwt>
<totfact> 0.64898498E+02</totfact>
</mgrwt>
</event>
<event>
 4    1  0.6602701E-002  0.1094385E+03  0.7546771E-02  0.1261613E+00
          1   -1    0    0  501    0  0.00000000000E+00  0.00000000000E+00  0.51098524469E+03  0.51098524469E+03  0.00000000000E+00 0. -1.
         -1   -1    0    0    0  501 -0.00000000000E+00 -0.00000000000E+00 -0.52774208441E+02  0.52774208441E+02  0.00000000000E+00 0.  1.
         24    1    1    2    0    0  0.65891646640E+02  0.34174008098E+02  0.18945355692E+02  0.11106626123E+03  0.80419002446E+02 0.  1.
        -24    1    1    2    0    0 -0.65891646640E+02 -0.34174008098E+02  0.43926568055E+03  0.45269319190E+03  0.80419002446E+02 0. -1.
<mgrwt>
<rscale>  0 0.10943851E+03</rscale>
<asrwt>0</asrwt>
<pdfrwt beam="1">  1        1 0.78613111E-01 0.10943851E+03</pdfrwt>
<pdfrwt beam="2">  1       -1 0.81191093E-02 0.10943851E+03</pdfrwt>
<totfact> 0.35486393E+03</totfact>
</mgrwt>
</event>
<event>
 4    1  0.6602701E-002  0.8519058E+02  0.7546771E-02  0.1314935E+00
          1   -1    0    0  501    0  0.00000000000E+00  0.00000000000E+00  0.43805807674E+02  0.43805807674E+02  0.00000000000E+00 0. -1.
         -1   -1    0    0    0  501 -0.00000000000E+00 -0.00000000000E+00 -0.19120585644E+03  0.19120585644E+03  0.00000000000E+00 0.  1.
         24    1    1    2    0    0 -0.46972994971E+01  0.27715611981E+02 -0.11663975111E+03  0.14443776259E+03  0.80419002446E+02 0.  0.
        -24    1    1    2    0    0  0.46972994971E+01 -0.27715611981E+02 -0.30760297655E+02  0.90573901518E+02  0.80419002446E+02 0.  1.
<mgrwt>
<rscale>  0 0.85190585E+02</rscale>
<asrwt>0</asrwt>
<pdfrwt beam="1">  1        1 0.67393550E-02 0.85190585E+02</pdfrwt>
<pdfrwt beam="2">  1       -1 0.29416286E-01 0.85190585E+02</pdfrwt>
<totfact> 0.10441254E+04</totfact>
</mgrwt>
</event>
<event>
 4    1  0.6602701E-002  0.9177599E+02  0.7546771E-02  0.1298607E+00
          2   -1    0    0  501    0  0.00000000000E+00  0.00000000000E+00  0.21329336469E+04  0.21329336469E+04  0.00000000000E+00 0. -1.
         -2   -1    0    0    0  501 -0.00000000000E+00 -0.00000000000E+00 -0.56859530106E+01  0.56859530106E+01  0.00000000000E+00 0.  1.
         24    1    1    2    0    0  0.29407621011E+02 -0.33027395028E+02  0.16546451031E+04  0.16571883569E+04  0.80419002446E+02 0.  0.
        -24    1    1    2    0    0 -0.29407621011E+02  0.33027395028E+02  0.47260259082E+03  0.48143124307E+03  0.80419002446E+02 0.  0.
<mgrwt>
<rscale>  0 0.91775993E+02</rscale>
<asrwt>0</asrwt>
<pdfrwt beam="1">  1        2 0.32814300E+00 0.91775993E+02</pdfrwt>
<pdfrwt beam="2">  1       -2 0.87476370E-03 0.91775993E+02</pdfrwt>
<totfact> 0.15712762E+04</totfact>
</mgrwt>
</event>
<event>
 4    1  0.6602701E-002  0.8148144E+02  0.7546771E-02  0.1324899E+00
          1   -1    0    0  501    0  0.00000000000E+00  0.00000000000E+00  0.37691744751E+02  0.37691744751E+02  0.00000000000E+00 0. -1.
         -1   -1    0    0    0  501 -0.00000000000E+00 -0.00000000000E+00 -0.22340972901E+03  0.22340972901E+03  0.00000000000E+00 0.  1.
         24    1    1    2    0    0 -0.75354556694E+01 -0.10734322655E+02 -0.15290655249E+03  0.17326176301E+03  0.80419002446E+02 0.  1.
        -24    1    1    2    0    0  0.75354556694E+01  0.10734322655E+02 -0.32811431774E+02  0.87839710749E+02  0.80419002446E+02 0.  0.
<mgrwt>
<rscale>  0 0.81481438E+02</rscale>
<asrwt>0</asrwt>
<pdfrwt beam="1">  1        1 0.57987300E-02 0.81481438E+02</pdfrwt>
<pdfrwt beam="2">  1       -1 0.34370727E-01 0.81481438E+02</pdfrwt>
<totfact> 0.97951680E+03</totfact>
</mgrwt>
</event>
<event>
 4    1  0.6602701E-002  0.9428720E+02  0.7546771E-02  0.1292790E+00
         -2   -1    0    0    0  501 -0.00000000000E+00  0.00000000000E+00  0.11093485125E+02  0.11093485125E+02  0.00000000000E+00 0.  1.
          2   -1    0    0  501    0  0.00000000000E+00 -0.00000000000E+00 -0.10532081983E+04  0.10532081983E+04  0.00000000000E+00 0. -1.
         24    1    1    2    0    0 -0.42405058370E+02  0.24993439786E+02 -0.78127179066E+03  0.78694071431E+03  0.80419002446E+02 0. -1.
        -24    1    1    2    0    0  0.42405058370E+02 -0.24993439786E+02 -0.26084292256E+03  0.27736096916E+03  0.80419002446E+02 0.  1.
<mgrwt>
<rscale>  0 0.94287205E+02</rscale>
<asrwt>0</asrwt>
<pdfrwt beam="1">  1        2 0.16203208E+00 0.94287205E+02</pdfrwt>
<pdfrwt beam="2">  1       -2 0.17066895E-02 0.94287205E+02</pdfrwt>
<totfact> 0.22021305E+04</totfact>
</mgrwt>
</event>
<event>
 4    1  0.6602701E-002  0.9399629E+02  0.7546771E-02  0.1293453E+00
         -1   -1    0    0    0  501 -0.00000000000E+00  0.00000000000E+00  0.20190829814E+02  0.20190829814E+02  0.00000000000E+00 0.  1.
          1   -1    0    0  501    0  0.00000000000E+00 -0.00000000000E+00 -0.51226396452E+03  0.51226396452E+03  0.00000000000E+00 0. -1.
         24    1    1    2    0    0  0.17051662230E+02  0.45577714763E+02 -0.14439046384E+03  0.17229018913E+03  0.80419002446E+02 0.  0.
        -24    1    1    2    0    0 -0.17051662230E+02 -0.45577714763E+02 -0.34768267087E+03  0.36016460521E+03  0.80419002446E+02 0.  0.
<mgrwt>
<rscale>  0 0.93996294E+02</rscale>
<asrwt>0</asrwt>
<pdfrwt beam="1">  1        1 0.78809836E-01 0.93996294E+02</pdfrwt>
<pdfrwt beam="2">  1       -1 0.31062817E-02 0.93996294E+02</pdfrwt>
<totfact> 0.14362010E+04</totfact>
</mgrwt>
</event>
<event>
 4    1  0.6602701E-002  0.8151674E+02  0.7546771E-02  0.1324801E+00
          2   -1    0    0  501    0  0.00000000000E+00  0.00000000000E+00  0.25699758255E+04  0.25699758255E+04  0.00000000000E+00 0. -1.
         -2   -1    0    0    0  501 -0.00000000000E+00 -0.00000000000E+00 -0.28518821833E+01  0.28518821833E+01  0.00000000000E+00 0.  1.
         24    1    1    2    0    0  0.13293265831E+02  0.10252935255E+01  0.16766325613E+04  0.16786130357E+04  0.80419002446E+02 0.  0.
        -24    1    1    2    0    0 -0.13293265831E+02 -0.10252935255E+01  0.89049138200E+03  0.89421467194E+03  0.80419002446E+02 0.  1.
<mgrwt>
<rscale>  0 0.81516735E+02</rscale>
<asrwt>0</asrwt>
<pdfrwt beam="1">  1        2 0.39537905E+00 0.81516735E+02</pdfrwt>
<pdfrwt beam="2">  1       -2 0.43875316E-03 0.81516735E+02</pdfrwt>
<totfact> 0.24482603E+04</totfact>
</mgrwt>
</event>
<event>
 4    1  0.6602701E-002  0.8406614E+02  0.7546771E-02  0.1317893E+00
          2   -1    0    0  501    0  0.00000000000E+00  0.00000000000E+00  0.46302635619E+03  0.46302635619E+03  0.00000000000E+00 0. -1.
         -2   -1    0    0    0  501 -0.00000000000E+00 -0.00000000000E+00 -0.32790062999E+02  0.32790062999E+02  0.00000000000E+00 0.  1.
         24    1    1    2    0    0 -0.15144223146E+02 -0.19249734835E+02  0.39636724006E+03  0.40518403811E+03  0.80419002446E+02 0.  0.
        -24    1    1    2    0    0  0.15144223146E+02  0.19249734835E+02  0.33869053122E+02  0.90632381077E+02  0.80419002446E+02 0.  1.
<mgrwt>
<rscale>  0 0.84066139E+02</rscale>
<asrwt>0</asrwt>
<pdfrwt beam="1">  1        2 0.71234819E-01 0.84066139E+02</pdfrwt>
<pdfrwt beam="2">  1       -2 0.50446254E-02 0.84066139E+02</pdfrwt>
<totfact> 0.11945636E+04</totfact>
</mgrwt>
</event>
<event>
 4    1  0.6602701E-002  0.1279432E+03  0.7546771E-02  0.1230540E+00
         -4   -1    0    0    0  501 -0.00000000000E+00  0.00000000000E+00  0.58902683438E+03  0.58902683438E+03  0.00000000000E+00 0.  1.
          4   -1    0    0  501    0  0.00000000000E+00 -0.00000000000E+00 -0.87263903989E+02  0.87263903989E+02  0.00000000000E+00 0. -1.
         24    1    1    2    0    0 -0.93920738436E+02 -0.32880846881E+02 -0.28274410702E+02  0.13103020055E+03  0.80419002446E+02 0. -1.
        -24    1    1    2    0    0  0.93920738436E+02  0.32880846881E+02  0.53003734109E+03  0.54526053782E+03  0.80419002446E+02 0.  1.
<mgrwt>
<rscale>  0 0.12794323E+03</rscale>
<asrwt>0</asrwt>
<pdfrwt beam="1">  1        4 0.13425216E-01 0.12794323E+03</pdfrwt>
<pdfrwt beam="2">  1       -4 0.90619511E-01 0.12794323E+03</pdfrwt>
<totfact> 0.81784647E+01</totfact>
</mgrwt>
</event>
<event>
 4    1  0.6602701E-002  0.1281790E+03  0.7546771E-02  0.1230183E+00
         -2   -1    0    0    0  501 -0.00000000000E+00  0.00000000000E+00  0.20705588539E+02  0.20705588539E+02  0.00000000000E+00 0.  1.
          2   -1    0    0  501    0  0.00000000000E+00 -0.00000000000E+00 -0.80088194744E+03  0.80088194744E+03  0.00000000000E+00 0. -1.
         24    1    1    2    0    0 -0.87855040195E+02  0.47372230002E+02 -0.35064508909E+03  0.37333876134E+03  0.80419002446E+02 0. -1.
        -24    1    1    2    0    0  0.87855040195E+02 -0.47372230002E+02 -0.42953126981E+03  0.44824877463E+03  0.80419002446E+02 0.  1.
<mgrwt>
<rscale>  0 0.12817900E+03</rscale>
<asrwt>0</asrwt>
<pdfrwt beam="1">  1        2 0.12321261E+00 0.12817902E+03</pdfrwt>
<pdfrwt beam="2">  1       -2 0.31854751E-02 0.12817902E+03</pdfrwt>
<totfact> 0.13054684E+04</totfact>
</mgrwt>
</event>
<event>
 4    1  0.6602701E-002  0.8904189E+02  0.7546771E-02  0.1305189E+00
          2   -1    0    0  501    0  0.00000000000E+00  0.00000000000E+00  0.22729787058E+04  0.22729787058E+04  0.00000000000E+00 0. -1.
         -2   -1    0    0    0  501 -0.00000000000E+00 -0.00000000000E+00 -0.48015937072E+01  0.48015937072E+01  0.00000000000E+00 0.  1.
         24    1    1    2    0    0  0.12874828521E+02 -0.35992801019E+02  0.17297468265E+04  0.17320371077E+04  0.80419002446E+02 0. -1.
        -24    1    1    2    0    0 -0.12874828521E+02  0.35992801019E+02  0.53843028558E+03  0.54574319173E+03  0.80419002446E+02 0.  1.
<mgrwt>
<rscale>  0 0.89041894E+02</rscale>
<asrwt>0</asrwt>
<pdfrwt beam="1">  1        2 0.34968817E+00 0.89041894E+02</pdfrwt>
<pdfrwt beam="2">  1       -2 0.73870854E-03 0.89041894E+02</pdfrwt>
<totfact> 0.16900410E+04</totfact>
</mgrwt>
</event>
<event>
 4    1  0.6602701E-002  0.9114355E+02  0.7546771E-02  0.1300106E+00
         -2   -1    0    0    0  501 -0.00000000000E+00  0.00000000000E+00  0.30196361064E+02  0.30196361064E+02  0.00000000000E+00 0.  1.
          2   -1    0    0  501    0  0.00000000000E+00 -0.00000000000E+00 -0.87360683393E+03  0.87360683393E+03  0.00000000000E+00 0. -1.
         24    1    1    2    0    0 -0.24991150919E+02 -0.34862207558E+02 -0.79574595455E+03  0.80094866957E+03  0.80419002446E+02 0. -1.
        -24    1    1    2    0    0  0.24991150919E+02  0.34862207558E+02 -0.47664518309E+02  0.10285452542E+03  0.80419002446E+02 0.  1.
<mgrwt>
<rscale>  0 0.91143552E+02</rscale>
<asrwt>0</asrwt>
<pdfrwt beam="1">  1        2 0.13440103E+00 0.91143552E+02</pdfrwt>
<pdfrwt beam="2">  1       -2 0.46455948E-02 0.91143552E+02</pdfrwt>
<totfact> 0.65675211E+03</totfact>
</mgrwt>
</event>
<event>
 4    1  0.7497489E-002  0.1041327E+03  0.7546771E-02  0.1271838E+00
         -1   -1    0    0    0  501 -0.00000000000E+00  0.00000000000E+00  0.38801712093E+01  0.38801712093E+01  0.00000000000E+00 0.  1.
          1   -1    0    0  501    0  0.00000000000E+00 -0.00000000000E+00 -0.31461097615E+04  0.31461097615E+04  0.00000000000E+00 0. -1.
         24    1    1    2    0    0  0.57478161088E-01  0.66154420594E+02 -0.10446795195E+04  0.10498566212E+04  0.80419002446E+02 0.  1.
        -24    1    1    2    0    0 -0.57478161088E-01 -0.66154420594E+02 -0.20975500707E+04  0.21001333115E+04  0.80419002446E+02 0. -1.
<mgrwt>
<rscale>  0 0.10413274E+03</rscale>
<asrwt>0</asrwt>
<pdfrwt beam="1">  1        1 0.48401789E+00 0.10413274E+03</pdfrwt>
<pdfrwt beam="2">  1       -1 0.59694817E-03 0.10413274E+03</pdfrwt>
<totfact> 0.22814164E+03</totfact>
</mgrwt>
</event>
<event>
 4    1  0.6602701E-002  0.8102168E+02  0.7546771E-02  0.1326177E+00
          4   -1    0    0  501    0  0.00000000000E+00  0.00000000000E+00  0.40439587965E+03  0.40439587965E+03  0.00000000000E+00 0. -1.
         -4   -1    0    0    0  501 -0.00000000000E+00 -0.00000000000E+00 -0.81936543335E+02  0.81936543335E+02  0.00000000000E+00 0.  1.
         24    1    1    2    0    0 -0.80996062184E+01  0.56296132948E+01  0.37898017901E+03  0.38754417581E+03  0.80419002446E+02 0.  0.
        -24    1    1    2    0    0  0.80996062184E+01 -0.56296132948E+01 -0.56520842695E+02  0.98788247176E+02  0.80419002446E+02 0.  1.
<mgrwt>
<rscale>  0 0.81021677E+02</rscale>
<asrwt>0</asrwt>
<pdfrwt beam="1">  1        4 0.62214750E-01 0.81021677E+02</pdfrwt>
<pdfrwt beam="2">  1       -4 0.12605622E-01 0.81021677E+02</pdfrwt>
<totfact> 0.18910965E+02</totfact>
</mgrwt>
</event>
<event>
 4    1  0.6602701E-002  0.9881188E+02  0.7546771E-02  0.1282814E+00
         -2   -1    0    0    0  501 -0.00000000000E+00  0.00000000000E+00  0.89469625099E+01  0.89469625099E+01  0.00000000000E+00 0.  1.
          2   -1    0    0  501    0  0.00000000000E+00 -0.00000000000E+00 -0.11518093185E+04  0.11518093185E+04  0.00000000000E+00 0. -1.
         24    1    1    2    0    0  0.50117691648E+02  0.28013982577E+02 -0.43840193377E+03  0.44939964144E+03  0.80419002446E+02 0.  0.
        -24    1    1    2    0    0 -0.50117691648E+02 -0.28013982577E+02 -0.70446042224E+03  0.71135663959E+03  0.80419002446E+02 0.  0.
<mgrwt>
<rscale>  0 0.98811865E+02</rscale>
<asrwt>0</asrwt>
<pdfrwt beam="1">  1        2 0.17720138E+00 0.98811877E+02</pdfrwt>
<pdfrwt beam="2">  1       -2 0.13764562E-02 0.98811877E+02</pdfrwt>
<totfact> 0.26459600E+04</totfact>
</mgrwt>
</event>
<event>
 4    1  0.6602701E-002  0.8307120E+02  0.7546771E-02  0.1320555E+00
          2   -1    0    0  501    0  0.00000000000E+00  0.00000000000E+00  0.10069946272E+03  0.10069946272E+03  0.00000000000E+00 0. -1.
         -2   -1    0    0    0  501 -0.00000000000E+00 -0.00000000000E+00 -0.12534115418E+03  0.12534115418E+03  0.00000000000E+00 0.  1.
         24    1    1    2    0    0 -0.20818833719E+02 -0.43042892337E+00  0.63769681186E+02  0.10472534220E+03  0.80419002446E+02 0.  0.
        -24    1    1    2    0    0  0.20818833719E+02  0.43042892337E+00 -0.88411372644E+02  0.12131527469E+03  0.80419002446E+02 0.  0.
<mgrwt>
<rscale>  0 0.83071205E+02</rscale>
<asrwt>0</asrwt>
<pdfrwt beam="1">  1        2 0.15492225E-01 0.83071205E+02</pdfrwt>
<pdfrwt beam="2">  1       -2 0.19283254E-01 0.83071205E+02</pdfrwt>
<totfact> 0.76049446E+03</totfact>
</mgrwt>
</event>
<event>
 4    1  0.6602701E-002  0.1099574E+03  0.7546771E-02  0.1260649E+00
         -2   -1    0    0    0  501 -0.00000000000E+00  0.00000000000E+00  0.22679133517E+02  0.22679133517E+02  0.00000000000E+00 0.  1.
          2   -1    0    0  501    0  0.00000000000E+00 -0.00000000000E+00 -0.33825280149E+04  0.33825280149E+04  0.00000000000E+00 0. -1.
         24    1    1    2    0    0  0.32988048741E+02 -0.67343888702E+02 -0.32426057068E+04  0.32444695092E+04  0.80419002446E+02 0. -1.
        -24    1    1    2    0    0 -0.32988048741E+02  0.67343888702E+02 -0.11724317458E+03  0.16073763917E+03  0.80419002446E+02 0.  1.
<mgrwt>
<rscale>  0 0.10995739E+03</rscale>
<asrwt>0</asrwt>
<pdfrwt beam="1">  1        2 0.52038899E+00 0.10995739E+03</pdfrwt>
<pdfrwt beam="2">  1       -2 0.34890970E-02 0.10995739E+03</pdfrwt>
<totfact> 0.43691246E+02</totfact>
</mgrwt>
</event>
<event>
 4    1  0.6602701E-002  0.1182794E+03  0.7546771E-02  0.1245963E+00
         -1   -1    0    0    0  501 -0.00000000000E+00  0.00000000000E+00  0.17174469563E+02  0.17174469563E+02  0.00000000000E+00 0.  1.
          1   -1    0    0  501    0  0.00000000000E+00 -0.00000000000E+00 -0.10836048496E+04  0.10836048496E+04  0.00000000000E+00 0. -1.
         24    1    1    2    0    0  0.85961032703E+02 -0.11553944504E+02 -0.25897593725E+03  0.28470782358E+03  0.80419002446E+02 0.  1.
        -24    1    1    2    0    0 -0.85961032703E+02  0.11553944504E+02 -0.80745444283E+03  0.81607149563E+03  0.80419002446E+02 0. -1.
<mgrwt>
<rscale>  0 0.11827937E+03</rscale>
<asrwt>0</asrwt>
<pdfrwt beam="1">  1        1 0.16670842E+00 0.11827937E+03</pdfrwt>
<pdfrwt beam="2">  1       -1 0.26422264E-02 0.11827937E+03</pdfrwt>
<totfact> 0.61105579E+03</totfact>
</mgrwt>
</event>
<event>
 4    1  0.6602701E-002  0.8298422E+02  0.7546771E-02  0.1320790E+00
          1   -1    0    0  501    0  0.00000000000E+00  0.00000000000E+00  0.79101953631E+02  0.79101953631E+02  0.00000000000E+00 0. -1.
         -1   -1    0    0    0  501 -0.00000000000E+00 -0.00000000000E+00 -0.20955843061E+03  0.20955843061E+03  0.00000000000E+00 0.  1.
         24    1    1    2    0    0  0.20007649894E+02 -0.43425858682E+01 -0.17557895885E+03  0.19420183020E+03  0.80419002446E+02 0.  1.
        -24    1    1    2    0    0 -0.20007649894E+02  0.43425858682E+01  0.45122481877E+02  0.94458554040E+02  0.80419002446E+02 0. -1.
<mgrwt>
<rscale>  0 0.82984216E+02</rscale>
<asrwt>0</asrwt>
<pdfrwt beam="1">  1        1 0.12169531E-01 0.82984216E+02</pdfrwt>
<pdfrwt beam="2">  1       -1 0.32239758E-01 0.82984216E+02</pdfrwt>
<totfact> 0.41166637E+03</totfact>
</mgrwt>
</event>
<event>
 4    1  0.6602701E-002  0.1018256E+03  0.7546771E-02  0.1276503E+00
         -2   -1    0    0    0  501 -0.00000000000E+00  0.00000000000E+00  0.10183524768E+02  0.10183524768E+02  0.00000000000E+00 0.  1.
          2   -1    0    0  501    0  0.00000000000E+00 -0.00000000000E+00 -0.11986094581E+04  0.11986094581E+04  0.00000000000E+00 0. -1.
         24    1    1    2    0    0  0.43686423681E+02  0.44639890275E+02 -0.35970207022E+03  0.37383688782E+03  0.80419002446E+02 0.  1.
        -24    1    1    2    0    0 -0.43686423681E+02 -0.44639890275E+02 -0.82872386315E+03  0.83495609509E+03  0.80419002446E+02 0. -1.
<mgrwt>
<rscale>  0 0.10182555E+03</rscale>
<asrwt>0</asrwt>
<pdfrwt beam="1">  1        2 0.18440150E+00 0.10182556E+03</pdfrwt>
<pdfrwt beam="2">  1       -2 0.15666957E-02 0.10182556E+03</pdfrwt>
<totfact> 0.20774276E+04</totfact>
</mgrwt>
</event>
<event>
 4    1  0.6602701E-002  0.1067720E+03  0.7546771E-02  0.1266667E+00
          1   -1    0    0  501    0  0.00000000000E+00  0.00000000000E+00  0.69984269723E+02  0.69984269723E+02  0.00000000000E+00 0. -1.
         -1   -1    0    0    0  501 -0.00000000000E+00 -0.00000000000E+00 -0.18353407223E+03  0.18353407223E+03  0.00000000000E+00 0.  1.
         24    1    1    2    0    0 -0.55153729928E+02  0.43486979808E+02 -0.99279812318E+02  0.14579694244E+03  0.80419002446E+02 0.  1.
        -24    1    1    2    0    0  0.55153729928E+02 -0.43486979808E+02 -0.14269990191E+02  0.10772139951E+03  0.80419002446E+02 0. -1.
<mgrwt>
<rscale>  0 0.10677203E+03</rscale>
<asrwt>0</asrwt>
<pdfrwt beam="1">  1        1 0.10766811E-01 0.10677203E+03</pdfrwt>
<pdfrwt beam="2">  1       -1 0.28236011E-01 0.10677203E+03</pdfrwt>
<totfact> 0.61361786E+03</totfact>
</mgrwt>
</event>
<event>
 4    1  0.6602701E-002  0.2226893E+03  0.7546771E-02  0.1131894E+00
         -1   -1    0    0    0  501 -0.00000000000E+00  0.00000000000E+00  0.94214682162E+02  0.94214682162E+02  0.00000000000E+00 0.  1.
          1   -1    0    0  501    0  0.00000000000E+00 -0.00000000000E+00 -0.53840432899E+03  0.53840432899E+03  0.00000000000E+00 0. -1.
         24    1    1    2    0    0 -0.14420695511E+03 -0.14942441068E+03 -0.17477847526E+03  0.28308661533E+03  0.80419002446E+02 0.  1.
        -24    1    1    2    0    0  0.14420695511E+03  0.14942441068E+03 -0.26941117156E+03  0.34953239582E+03  0.80419002446E+02 0. -1.
<mgrwt>
<rscale>  0 0.22268928E+03</rscale>
<asrwt>0</asrwt>
<pdfrwt beam="1">  1        1 0.82831435E-01 0.22268928E+03</pdfrwt>
<pdfrwt beam="2">  1       -1 0.14494567E-01 0.22268928E+03</pdfrwt>
<totfact> 0.13844250E+03</totfact>
</mgrwt>
</event>
<event>
 4    1  0.6602701E-002  0.9056273E+02  0.7546771E-02  0.1301495E+00
         -2   -1    0    0    0  501 -0.00000000000E+00  0.00000000000E+00  0.15960654686E+02  0.15960654686E+02  0.00000000000E+00 0.  1.
          2   -1    0    0  501    0  0.00000000000E+00 -0.00000000000E+00 -0.12483946098E+04  0.12483946098E+04  0.00000000000E+00 0. -1.
         24    1    1    2    0    0  0.40829514553E+02  0.82062261666E+01 -0.11011347535E+04  0.11048526385E+04  0.80419002446E+02 0. -1.
        -24    1    1    2    0    0 -0.40829514553E+02 -0.82062261666E+01 -0.13129920158E+03  0.15950262599E+03  0.80419002446E+02 0.  1.
<mgrwt>
<rscale>  0 0.90562726E+02</rscale>
<asrwt>0</asrwt>
<pdfrwt beam="1">  1        2 0.19206063E+00 0.90562726E+02</pdfrwt>
<pdfrwt beam="2">  1       -2 0.24554863E-02 0.90562726E+02</pdfrwt>
<totfact> 0.10150927E+04</totfact>
</mgrwt>
</event>
<event>
 4    1  0.6602701E-002  0.8088184E+02  0.7546771E-02  0.1326567E+00
         -1   -1    0    0    0  501 -0.00000000000E+00  0.00000000000E+00  0.90206868770E+01  0.90206868770E+01  0.00000000000E+00 0.  1.
          1   -1    0    0  501    0  0.00000000000E+00 -0.00000000000E+00 -0.11212302484E+04  0.11212302484E+04  0.00000000000E+00 0. -1.
         24    1    1    2    0    0  0.38434269913E+01  0.77385250593E+01 -0.22024548851E+03  0.23462725303E+03  0.80419002446E+02 0.  0.
        -24    1    1    2    0    0 -0.38434269913E+01 -0.77385250593E+01 -0.89196407303E+03  0.89562368226E+03  0.80419002446E+02 0. -1.
<mgrwt>
<rscale>  0 0.80881844E+02</rscale>
<asrwt>0</asrwt>
<pdfrwt beam="1">  1        1 0.17249690E+00 0.80881844E+02</pdfrwt>
<pdfrwt beam="2">  1       -1 0.13877985E-02 0.80881844E+02</pdfrwt>
<totfact> 0.14100571E+04</totfact>
</mgrwt>
</event>
<event>
 4    1  0.6602701E-002  0.9544836E+02  0.7546771E-02  0.1290169E+00
          2   -1    0    0  501    0  0.00000000000E+00  0.00000000000E+00  0.36320803551E+03  0.36320803551E+03  0.00000000000E+00 0. -1.
         -2   -1    0    0    0  501 -0.00000000000E+00 -0.00000000000E+00 -0.26610545030E+02  0.26610545030E+02  0.00000000000E+00 0.  1.
         24    1    1    2    0    0 -0.66638141970E+01  0.50978101951E+02  0.21499544506E+03  0.23523059038E+03  0.80419002446E+02 0.  1.
        -24    1    1    2    0    0  0.66638141970E+01 -0.50978101951E+02  0.12160204542E+03  0.15458799016E+03  0.80419002446E+02 0. -1.
<mgrwt>
<rscale>  0 0.95448359E+02</rscale>
<asrwt>0</asrwt>
<pdfrwt beam="1">  1        2 0.55878156E-01 0.95448359E+02</pdfrwt>
<pdfrwt beam="2">  1       -2 0.40939303E-02 0.95448359E+02</pdfrwt>
<totfact> 0.21275219E+04</totfact>
</mgrwt>
</event>
<event>
 4    1  0.6602701E-002  0.9298076E+02  0.7546771E-02  0.1295790E+00
         -2   -1    0    0    0  501 -0.00000000000E+00  0.00000000000E+00  0.46229558007E+01  0.46229558007E+01  0.00000000000E+00 0.  1.
          2   -1    0    0  501    0  0.00000000000E+00 -0.00000000000E+00 -0.26055575274E+04  0.26055575274E+04  0.00000000000E+00 0. -1.
         24    1    1    2    0    0 -0.34857726950E+02 -0.31034490589E+02 -0.60709372001E+03  0.61417277827E+03  0.80419002446E+02 0.  1.
        -24    1    1    2    0    0  0.34857726950E+02  0.31034490589E+02 -0.19938408516E+04  0.19960077049E+04  0.80419002446E+02 0. -1.
<mgrwt>
<rscale>  0 0.92980745E+02</rscale>
<asrwt>0</asrwt>
<pdfrwt beam="1">  1        2 0.40085522E+00 0.92980756E+02</pdfrwt>
<pdfrwt beam="2">  1       -2 0.71122358E-03 0.92980756E+02</pdfrwt>
<totfact> 0.11979252E+04</totfact>
</mgrwt>
</event>
<event>
 4    1  0.6602701E-002  0.9407180E+02  0.7546771E-02  0.1293280E+00
          1   -1    0    0  501    0  0.00000000000E+00  0.00000000000E+00  0.21834504485E+03  0.21834504485E+03  0.00000000000E+00 0. -1.
         -1   -1    0    0    0  501 -0.00000000000E+00 -0.00000000000E+00 -0.41144583914E+02  0.41144583914E+02  0.00000000000E+00 0.  1.
         24    1    1    2    0    0  0.24230315439E+02  0.42369557235E+02  0.72741862780E+02  0.11891544106E+03  0.80419002446E+02 0. -1.
        -24    1    1    2    0    0 -0.24230315439E+02 -0.42369557235E+02  0.10445859816E+03  0.14057418771E+03  0.80419002446E+02 0.  0.
<mgrwt>
<rscale>  0 0.94071800E+02</rscale>
<asrwt>0</asrwt>
<pdfrwt beam="1">  1        1 0.33591545E-01 0.94071800E+02</pdfrwt>
<pdfrwt beam="2">  1       -1 0.63299361E-02 0.94071800E+02</pdfrwt>
<totfact> 0.14607036E+04</totfact>
</mgrwt>
</event>
<event>
 4    1  0.6602701E-002  0.8443012E+02  0.7546771E-02  0.1316930E+00
         -1   -1    0    0    0  501 -0.00000000000E+00  0.00000000000E+00  0.17147983377E+01  0.17147983377E+01  0.00000000000E+00 0.  1.
          1   -1    0    0  501    0  0.00000000000E+00 -0.00000000000E+00 -0.54236485295E+04  0.54236485295E+04  0.00000000000E+00 0. -1.
         24    1    1    2    0    0 -0.18664186373E+02 -0.17688351536E+02 -0.14000406894E+04  0.14025841784E+04  0.80419002446E+02 0.  1.
        -24    1    1    2    0    0  0.18664186373E+02  0.17688351536E+02 -0.40218930418E+04  0.40227791494E+04  0.80419002446E+02 0.  0.
<mgrwt>
<rscale>  0 0.84430123E+02</rscale>
<asrwt>0</asrwt>
<pdfrwt beam="1">  1        1 0.83440102E+00 0.84430123E+02</pdfrwt>
<pdfrwt beam="2">  1       -1 0.26381717E-03 0.84430123E+02</pdfrwt>
<totfact> 0.47075296E+01</totfact>
</mgrwt>
</event>
<event>
 4    1  0.6602701E-002  0.8137880E+02  0.7546771E-02  0.1325184E+00
         -1   -1    0    0    0  501 -0.00000000000E+00  0.00000000000E+00  0.36075717337E+02  0.36075717337E+02  0.00000000000E+00 0.  1.
          1   -1    0    0  501    0  0.00000000000E+00 -0.00000000000E+00 -0.31642961148E+03  0.31642961148E+03  0.00000000000E+00 0. -1.
         24    1    1    2    0    0  0.71584621621E+01 -0.10200485636E+02 -0.25970783468E+02  0.85422427009E+02  0.80419002446E+02 0.  1.
        -24    1    1    2    0    0 -0.71584621621E+01  0.10200485636E+02 -0.25438311067E+03  0.26708290181E+03  0.80419002446E+02 0.  0.
<mgrwt>
<rscale>  0 0.81378802E+02</rscale>
<asrwt>0</asrwt>
<pdfrwt beam="1">  1        1 0.48681479E-01 0.81378802E+02</pdfrwt>
<pdfrwt beam="2">  1       -1 0.55501104E-02 0.81378802E+02</pdfrwt>
<totfact> 0.11118242E+04</totfact>
</mgrwt>
</event>
<event>
 4    1  0.6602701E-002  0.1006584E+03  0.7546771E-02  0.1278918E+00
         -2   -1    0    0    0  501 -0.00000000000E+00  0.00000000000E+00  0.28262802917E+03  0.28262802917E+03  0.00000000000E+00 0.  1.
          2   -1    0    0  501    0  0.00000000000E+00 -0.00000000000E+00 -0.95391120869E+02  0.95391120869E+02  0.00000000000E+00 0. -1.
         24    1    1    2    0    0 -0.47724883749E+02 -0.37245449374E+02 -0.55709035172E+02  0.11504608026E+03  0.80419002446E+02 0. -1.
        -24    1    1    2    0    0  0.47724883749E+02  0.37245449374E+02  0.24294594348E+03  0.26297306979E+03  0.80419002446E+02 0.  1.
<mgrwt>
<rscale>  0 0.10065835E+03</rscale>
<asrwt>0</asrwt>
<pdfrwt beam="1">  1        2 0.14675557E-01 0.10065835E+03</pdfrwt>
<pdfrwt beam="2">  1       -2 0.43481235E-01 0.10065835E+03</pdfrwt>
<totfact> 0.19353861E+03</totfact>
</mgrwt>
</event>
<event>
 4    1  0.6602701E-002  0.1139182E+03  0.7546771E-02  0.1253481E+00
          3   -1    0    0  501    0  0.00000000000E+00  0.00000000000E+00  0.13193216353E+04  0.13193216353E+04  0.00000000000E+00 0. -1.
         -3   -1    0    0    0  501 -0.00000000000E+00 -0.00000000000E+00 -0.11461338451E+02  0.11461338451E+02  0.00000000000E+00 0.  1.
         24    1    1    2    0    0 -0.66285497609E+02  0.46004050965E+02  0.40338845852E+03  0.41916536632E+03  0.80419002446E+02 0.  1.
        -24    1    1    2    0    0  0.66285497609E+02 -0.46004050965E+02  0.90447183834E+03  0.91161760744E+03  0.80419002446E+02 0. -1.
<mgrwt>
<rscale>  0 0.11391820E+03</rscale>
<asrwt>0</asrwt>
<pdfrwt beam="1">  1        3 0.20297244E+00 0.11391820E+03</pdfrwt>
<pdfrwt beam="2">  1       -3 0.17632839E-02 0.11391820E+03</pdfrwt>
<totfact> 0.40819827E+02</totfact>
</mgrwt>
</event>
<event>
 4    1  0.6602701E-002  0.9131428E+02  0.7546771E-02  0.1299700E+00
         -1   -1    0    0    0  501 -0.00000000000E+00  0.00000000000E+00  0.10204248814E+03  0.10204248814E+03  0.00000000000E+00 0.  1.
          1   -1    0    0  501    0  0.00000000000E+00 -0.00000000000E+00 -0.87366623919E+02  0.87366623919E+02  0.00000000000E+00 0. -1.
         24    1    1    2    0    0 -0.39661752454E+02 -0.17263479987E+02  0.31427207333E+02  0.96571049824E+02  0.80419002446E+02 0.  1.
        -24    1    1    2    0    0  0.39661752454E+02  0.17263479987E+02 -0.16751343112E+02  0.92838062234E+02  0.80419002446E+02 0. -1.
<mgrwt>
<rscale>  0 0.91314283E+02</rscale>
<asrwt>0</asrwt>
<pdfrwt beam="1">  1        1 0.13441019E-01 0.91314283E+02</pdfrwt>
<pdfrwt beam="2">  1       -1 0.15698844E-01 0.91314283E+02</pdfrwt>
<totfact> 0.11618436E+04</totfact>
</mgrwt>
</event>
<event>
 4    1  0.6602701E-002  0.8303274E+02  0.7546771E-02  0.1320659E+00
         -1   -1    0    0    0  501 -0.00000000000E+00  0.00000000000E+00  0.43240110255E+02  0.43240110255E+02  0.00000000000E+00 0.  1.
          1   -1    0    0  501    0  0.00000000000E+00 -0.00000000000E+00 -0.19229287750E+03  0.19229287750E+03  0.00000000000E+00 0. -1.
         24    1    1    2    0    0 -0.18574671557E+02 -0.90664752988E+01 -0.25853019895E+02  0.86964440951E+02  0.80419002446E+02 0.  0.
        -24    1    1    2    0    0  0.18574671557E+02  0.90664752988E+01 -0.12319974735E+03  0.14856854680E+03  0.80419002446E+02 0. -1.
<mgrwt>
<rscale>  0 0.83032737E+02</rscale>
<asrwt>0</asrwt>
<pdfrwt beam="1">  1        1 0.29583519E-01 0.83032737E+02</pdfrwt>
<pdfrwt beam="2">  1       -1 0.66523247E-02 0.83032737E+02</pdfrwt>
<totfact> 0.15656534E+04</totfact>
</mgrwt>
</event>
<event>
 4    1  0.6602701E-002  0.1066800E+03  0.7546771E-02  0.1266844E+00
         -2   -1    0    0    0  501 -0.00000000000E+00  0.00000000000E+00  0.21000120076E+02  0.21000120076E+02  0.00000000000E+00 0.  1.
          2   -1    0    0  501    0  0.00000000000E+00 -0.00000000000E+00 -0.73479853278E+03  0.73479853278E+03  0.00000000000E+00 0. -1.
         24    1    1    2    0    0 -0.40660145517E+02 -0.57097867596E+02 -0.55050609257E+03  0.56074734759E+03  0.80419002446E+02 0. -1.
        -24    1    1    2    0    0  0.40660145517E+02  0.57097867596E+02 -0.16329232014E+03  0.19505130527E+03  0.80419002446E+02 0.  1.
<mgrwt>
<rscale>  0 0.10668004E+03</rscale>
<asrwt>0</asrwt>
<pdfrwt beam="1">  1        2 0.11304591E+00 0.10668004E+03</pdfrwt>
<pdfrwt beam="2">  1       -2 0.32307882E-02 0.10668004E+03</pdfrwt>
<totfact> 0.14010063E+04</totfact>
</mgrwt>
</event>
<event>
 4    1  0.6602701E-002  0.1090106E+03  0.7546771E-02  0.1262413E+00
         -1   -1    0    0    0  501 -0.00000000000E+00  0.00000000000E+00  0.94746223095E+01  0.94746223095E+01  0.00000000000E+00 0.  1.
          1   -1    0    0  501    0  0.00000000000E+00 -0.00000000000E+00 -0.15940107944E+04  0.15940107944E+04  0.00000000000E+00 0. -1.
         24    1    1    2    0    0 -0.69331019740E+02 -0.24684212621E+02 -0.42210642985E+03  0.43595545039E+03  0.80419002446E+02 0.  1.
        -24    1    1    2    0    0  0.69331019740E+02  0.24684212621E+02 -0.11624297422E+04  0.11675299663E+04  0.80419002446E+02 0. -1.
<mgrwt>
<rscale>  0 0.10901063E+03</rscale>
<asrwt>0</asrwt>
<pdfrwt beam="1">  1        1 0.24523225E+00 0.10901063E+03</pdfrwt>
<pdfrwt beam="2">  1       -1 0.14576353E-02 0.10901063E+03</pdfrwt>
<totfact> 0.65621349E+03</totfact>
</mgrwt>
</event>
<event>
 4    1  0.6602701E-002  0.8128783E+02  0.7546771E-02  0.1325436E+00
          4   -1    0    0  501    0  0.00000000000E+00  0.00000000000E+00  0.12874527458E+03  0.12874527458E+03  0.00000000000E+00 0. -1.
         -4   -1    0    0    0  501 -0.00000000000E+00 -0.00000000000E+00 -0.24187583824E+03  0.24187583824E+03  0.00000000000E+00 0.  1.
         24    1    1    2    0    0  0.73513433382E+01 -0.92980014140E+01  0.10791376818E+03  0.13510400585E+03  0.80419002446E+02 0. -1.
        -24    1    1    2    0    0 -0.73513433382E+01  0.92980014140E+01 -0.22104433184E+03  0.23551710696E+03  0.80419002446E+02 0.  1.
<mgrwt>
<rscale>  0 0.81287828E+02</rscale>
<asrwt>0</asrwt>
<pdfrwt beam="1">  1        4 0.19806966E-01 0.81287828E+02</pdfrwt>
<pdfrwt beam="2">  1       -4 0.37211667E-01 0.81287828E+02</pdfrwt>
<totfact> 0.24184218E+02</totfact>
</mgrwt>
</event>
<event>
 4    1  0.6602701E-002  0.1100900E+03  0.7546771E-02  0.1260403E+00
          2   -1    0    0  501    0  0.00000000000E+00  0.00000000000E+00  0.75872147525E+03  0.75872147525E+03  0.00000000000E+00 0. -1.
         -2   -1    0    0    0  501 -0.00000000000E+00 -0.00000000000E+00 -0.16147966547E+02  0.16147966547E+02  0.00000000000E+00 0.  1.
         24    1    1    2    0    0  0.67381857505E+02 -0.33350675245E+02  0.41150314944E+03  0.42597492909E+03  0.80419002446E+02 0.  0.
        -24    1    1    2    0    0 -0.67381857505E+02  0.33350675245E+02  0.33107035927E+03  0.34889451271E+03  0.80419002446E+02 0.  1.
<mgrwt>
<rscale>  0 0.11008996E+03</rscale>
<asrwt>0</asrwt>
<pdfrwt beam="1">  1        2 0.11672635E+00 0.11008996E+03</pdfrwt>
<pdfrwt beam="2">  1       -2 0.24843031E-02 0.11008996E+03</pdfrwt>
<totfact> 0.19826909E+04</totfact>
</mgrwt>
</event>
<event>
 4    1  0.6602701E-002  0.1136702E+03  0.7546771E-02  0.1253920E+00
          2   -1    0    0  501    0  0.00000000000E+00  0.00000000000E+00  0.19887737373E+04  0.19887737373E+04  0.00000000000E+00 0. -1.
         -2   -1    0    0    0  501 -0.00000000000E+00 -0.00000000000E+00 -0.11131860700E+02  0.11131860700E+02  0.00000000000E+00 0.  1.
         24    1    1    2    0    0  0.47906256451E+02 -0.64487831852E+02  0.16340555621E+04  0.16380044218E+04  0.80419002446E+02 0.  1.
        -24    1    1    2    0    0 -0.47906256451E+02  0.64487831852E+02  0.34358631443E+03  0.36190117613E+03  0.80419002446E+02 0. -1.
<mgrwt>
<rscale>  0 0.11367016E+03</rscale>
<asrwt>0</asrwt>
<pdfrwt beam="1">  1        2 0.30596491E+00 0.11367016E+03</pdfrwt>
<pdfrwt beam="2">  1       -2 0.17125955E-02 0.11367016E+03</pdfrwt>
<totfact> 0.71937711E+03</totfact>
</mgrwt>
</event>
<event>
 4    1  0.6602701E-002  0.1034894E+03  0.7546771E-02  0.1273125E+00
          2   -1    0    0  501    0  0.00000000000E+00  0.00000000000E+00  0.93533715475E+03  0.93533715475E+03  0.00000000000E+00 0. -1.
         -2   -1    0    0    0  501 -0.00000000000E+00 -0.00000000000E+00 -0.11458437429E+02  0.11458437429E+02  0.00000000000E+00 0.  1.
         24    1    1    2    0    0 -0.17238463943E+02 -0.62814643369E+02  0.47441409852E+03  0.48557058899E+03  0.80419002446E+02 0. -1.
        -24    1    1    2    0    0  0.17238463943E+02  0.62814643369E+02  0.44946461880E+03  0.46122500319E+03  0.80419002446E+02 0.  1.
<mgrwt>
<rscale>  0 0.10348942E+03</rscale>
<asrwt>0</asrwt>
<pdfrwt beam="1">  1        2 0.14389796E+00 0.10348942E+03</pdfrwt>
<pdfrwt beam="2">  1       -2 0.17628373E-02 0.10348942E+03</pdfrwt>
<totfact> 0.24877684E+04</totfact>
</mgrwt>
</event>
<event>
 4    1  0.6602701E-002  0.8101302E+02  0.7546771E-02  0.1326201E+00
          2   -1    0    0  501    0  0.00000000000E+00  0.00000000000E+00  0.41151061123E+03  0.41151061123E+03  0.00000000000E+00 0. -1.
         -2   -1    0    0    0  501 -0.00000000000E+00 -0.00000000000E+00 -0.21046195367E+02  0.21046195367E+02  0.00000000000E+00 0.  1.
         24    1    1    2    0    0 -0.84001711906E+01 -0.50329489325E+01  0.30167091425E+03  0.31235948827E+03  0.80419002446E+02 0.  0.
        -24    1    1    2    0    0  0.84001711906E+01  0.50329489325E+01  0.88793501611E+02  0.12019731833E+03  0.80419002446E+02 0.  1.
<mgrwt>
<rscale>  0 0.81013020E+02</rscale>
<asrwt>0</asrwt>
<pdfrwt beam="1">  1        2 0.63309319E-01 0.81013020E+02</pdfrwt>
<pdfrwt beam="2">  1       -2 0.32378765E-02 0.81013020E+02</pdfrwt>
<totfact> 0.25842116E+04</totfact>
</mgrwt>
</event>
<event>
 4    1  0.6602701E-002  0.9475757E+02  0.7546771E-02  0.1291723E+00
          2   -1    0    0  501    0  0.00000000000E+00  0.00000000000E+00  0.17706222972E+04  0.17706222972E+04  0.00000000000E+00 0. -1.
         -2   -1    0    0    0  501 -0.00000000000E+00 -0.00000000000E+00 -0.65473124223E+01  0.65473124223E+01  0.00000000000E+00 0.  1.
         24    1    1    2    0    0  0.46334988859E+02  0.19101069485E+02  0.13039692071E+04  0.13074076223E+04  0.80419002446E+02 0. -1.
        -24    1    1    2    0    0 -0.46334988859E+02 -0.19101069485E+02  0.46010577771E+03  0.46976198727E+03  0.80419002446E+02 0.  1.
<mgrwt>
<rscale>  0 0.94757575E+02</rscale>
<asrwt>0</asrwt>
<pdfrwt beam="1">  1        2 0.27240305E+00 0.94757575E+02</pdfrwt>
<pdfrwt beam="2">  1       -2 0.10072802E-02 0.94757575E+02</pdfrwt>
<totfact> 0.19618949E+04</totfact>
</mgrwt>
</event>
<event>
 4    1  0.6602701E-002  0.1065132E+03  0.7546771E-02  0.1267167E+00
         -2   -1    0    0    0  501 -0.00000000000E+00  0.00000000000E+00  0.91470995646E+01  0.91470995646E+01  0.00000000000E+00 0.  1.
          2   -1    0    0  501    0  0.00000000000E+00 -0.00000000000E+00 -0.12486393341E+04  0.12486393341E+04  0.00000000000E+00 0. -1.
         24    1    1    2    0    0  0.66771362848E+02  0.20480008599E+02 -0.67117045784E+03  0.67956960282E+03  0.80419002446E+02 0. -1.
        -24    1    1    2    0    0 -0.66771362848E+02 -0.20480008599E+02 -0.56832177671E+03  0.57821683086E+03  0.80419002446E+02 0.  0.
<mgrwt>
<rscale>  0 0.10651320E+03</rscale>
<asrwt>0</asrwt>
<pdfrwt beam="1">  1        2 0.19209821E+00 0.10651320E+03</pdfrwt>
<pdfrwt beam="2">  1       -2 0.14072472E-02 0.10651320E+03</pdfrwt>
<totfact> 0.22835148E+04</totfact>
</mgrwt>
</event>
<event>
 4    1  0.6602701E-002  0.8433797E+02  0.7546771E-02  0.1317173E+00
         -2   -1    0    0    0  501 -0.00000000000E+00  0.00000000000E+00  0.78147095905E+02  0.78147095905E+02  0.00000000000E+00 0.  1.
          2   -1    0    0  501    0  0.00000000000E+00 -0.00000000000E+00 -0.11584965126E+03  0.11584965126E+03  0.00000000000E+00 0. -1.
         24    1    1    2    0    0  0.19473515112E+02  0.16323596775E+02 -0.63757711164E+02  0.10572577401E+03  0.80419002446E+02 0. -1.
        -24    1    1    2    0    0 -0.19473515112E+02 -0.16323596775E+02  0.26055155812E+02  0.88270973152E+02  0.80419002446E+02 0.  1.
<mgrwt>
<rscale>  0 0.84337972E+02</rscale>
<asrwt>0</asrwt>
<pdfrwt beam="1">  1        2 0.17823023E-01 0.84337972E+02</pdfrwt>
<pdfrwt beam="2">  1       -2 0.12022630E-01 0.84337972E+02</pdfrwt>
<totfact> 0.13945264E+04</totfact>
</mgrwt>
</event>
<event>
 4    1  0.6602701E-002  0.1045870E+03  0.7546771E-02  0.1270935E+00
         -3   -1    0    0    0  501 -0.00000000000E+00  0.00000000000E+00  0.15359112656E+03  0.15359112656E+03  0.00000000000E+00 0.  1.
          3   -1    0    0  501    0  0.00000000000E+00 -0.00000000000E+00 -0.11048775074E+03  0.11048775074E+03  0.00000000000E+00 0. -1.
         24    1    1    2    0    0 -0.35872275843E+02  0.56430581191E+02  0.10027002292E+03  0.14488797093E+03  0.80419002446E+02 0.  1.
        -24    1    1    2    0    0  0.35872275843E+02 -0.56430581191E+02 -0.57166647096E+02  0.11919090637E+03  0.80419002446E+02 0. -1.
<mgrwt>
<rscale>  0 0.10458703E+03</rscale>
<asrwt>0</asrwt>
<pdfrwt beam="1">  1        3 0.16998115E-01 0.10458703E+03</pdfrwt>
<pdfrwt beam="2">  1       -3 0.23629404E-01 0.10458703E+03</pdfrwt>
<totfact> 0.10960433E+03</totfact>
</mgrwt>
</event>
<event>
 4    1  0.6602701E-002  0.8597013E+02  0.7546771E-02  0.1312915E+00
          2   -1    0    0  501    0  0.00000000000E+00  0.00000000000E+00  0.63080572150E+02  0.63080572150E+02  0.00000000000E+00 0. -1.
         -2   -1    0    0    0  501 -0.00000000000E+00 -0.00000000000E+00 -0.15641664062E+03  0.15641664062E+03  0.00000000000E+00 0.  1.
         24    1    1    2    0    0  0.29751259261E+02  0.62056841283E+01  0.83093319751E+01  0.86370764124E+02  0.80419002446E+02 0. -1.
        -24    1    1    2    0    0 -0.29751259261E+02 -0.62056841283E+01 -0.10164540045E+03  0.13312644865E+03  0.80419002446E+02 0. -1.
<mgrwt>
<rscale>  0 0.85970134E+02</rscale>
<asrwt>0</asrwt>
<pdfrwt beam="1">  1        2 0.97047035E-02 0.85970134E+02</pdfrwt>
<pdfrwt beam="2">  1       -2 0.24064098E-01 0.85970134E+02</pdfrwt>
<totfact> 0.91178677E+03</totfact>
</mgrwt>
</event>
<event>
 4    1  0.6602701E-002  0.8244623E+02  0.7546771E-02  0.1322249E+00
         -3   -1    0    0    0  501 -0.00000000000E+00  0.00000000000E+00  0.23375055008E+02  0.23375055008E+02  0.00000000000E+00 0.  1.
          3   -1    0    0  501    0  0.00000000000E+00 -0.00000000000E+00 -0.79454524212E+03  0.79454524212E+03  0.00000000000E+00 0. -1.
         24    1    1    2    0    0 -0.81930299584E+01  0.16218486034E+02 -0.59951860913E+02  0.10193922999E+03  0.80419002446E+02 0.  1.
        -24    1    1    2    0    0  0.81930299584E+01 -0.16218486034E+02 -0.71121832620E+03  0.71598106714E+03  0.80419002446E+02 0. -1.
<mgrwt>
<rscale>  0 0.82446231E+02</rscale>
<asrwt>0</asrwt>
<pdfrwt beam="1">  1        3 0.12223774E+00 0.82446231E+02</pdfrwt>
<pdfrwt beam="2">  1       -3 0.35961621E-02 0.82446231E+02</pdfrwt>
<totfact> 0.46745345E+02</totfact>
</mgrwt>
</event>
<event>
 4    1  0.6602701E-002  0.9521135E+02  0.7546771E-02  0.1290701E+00
         -2   -1    0    0    0  501 -0.00000000000E+00  0.00000000000E+00  0.63793188101E+02  0.63793188101E+02  0.00000000000E+00 0.  1.
          2   -1    0    0  501    0  0.00000000000E+00 -0.00000000000E+00 -0.44532780099E+03  0.44532780099E+03  0.00000000000E+00 0. -1.
         24    1    1    2    0    0  0.50042534837E+02  0.96813950327E+01 -0.40082253330E+03  0.41197561076E+03  0.80419002446E+02 0. -1.
        -24    1    1    2    0    0 -0.50042534837E+02 -0.96813950327E+01  0.19287920415E+02  0.97145378331E+02  0.80419002446E+02 0.  1.
<mgrwt>
<rscale>  0 0.95211347E+02</rscale>
<asrwt>0</asrwt>
<pdfrwt beam="1">  1        2 0.68511968E-01 0.95211347E+02</pdfrwt>
<pdfrwt beam="2">  1       -2 0.98143368E-02 0.95211347E+02</pdfrwt>
<totfact> 0.45826200E+03</totfact>
</mgrwt>
</event>
<event>
 4    1  0.6602701E-002  0.1496656E+03  0.7546771E-02  0.1200885E+00
         -2   -1    0    0    0  501 -0.00000000000E+00  0.00000000000E+00  0.31554616640E+02  0.31554616640E+02  0.00000000000E+00 0.  1.
          2   -1    0    0  501    0  0.00000000000E+00 -0.00000000000E+00 -0.73187961993E+03  0.73187961993E+03  0.00000000000E+00 0. -1.
         24    1    1    2    0    0  0.12277581372E+03  0.29302845543E+02 -0.28397170383E+03  0.32099797775E+03  0.80419002446E+02 0.  0.
        -24    1    1    2    0    0 -0.12277581372E+03 -0.29302845543E+02 -0.41635329947E+03  0.44243625882E+03  0.80419002446E+02 0.  1.
<mgrwt>
<rscale>  0 0.14966556E+03</rscale>
<asrwt>0</asrwt>
<pdfrwt beam="1">  1        2 0.11259685E+00 0.14966558E+03</pdfrwt>
<pdfrwt beam="2">  1       -2 0.48545571E-02 0.14966558E+03</pdfrwt>
<totfact> 0.78684602E+03</totfact>
</mgrwt>
</event>
<event>
 4    1  0.6602701E-002  0.8150728E+02  0.7546771E-02  0.1324828E+00
         -2   -1    0    0    0  501 -0.00000000000E+00  0.00000000000E+00  0.30679372382E+02  0.30679372382E+02  0.00000000000E+00 0.  1.
          2   -1    0    0  501    0  0.00000000000E+00 -0.00000000000E+00 -0.79409002138E+03  0.79409002138E+03  0.00000000000E+00 0. -1.
         24    1    1    2    0    0  0.46034787498E+01  0.12451073941E+02 -0.73339606198E+03  0.73791139098E+03  0.80419002446E+02 0. -1.
        -24    1    1    2    0    0 -0.46034787498E+01 -0.12451073941E+02 -0.30014587019E+02  0.86858002781E+02  0.80419002446E+02 0.  1.
<mgrwt>
<rscale>  0 0.81507283E+02</rscale>
<asrwt>0</asrwt>
<pdfrwt beam="1">  1        2 0.12216768E+00 0.81507283E+02</pdfrwt>
<pdfrwt beam="2">  1       -2 0.47199040E-02 0.81507283E+02</pdfrwt>
<totfact> 0.71703447E+03</totfact>
</mgrwt>
</event>
<event>
 4    1  0.6602701E-002  0.8735343E+02  0.7546771E-02  0.1309390E+00
          2   -1    0    0  501    0  0.00000000000E+00  0.00000000000E+00  0.15403348454E+03  0.15403348454E+03  0.00000000000E+00 0. -1.
         -2   -1    0    0    0  501 -0.00000000000E+00 -0.00000000000E+00 -0.73651528325E+02  0.73651528325E+02  0.00000000000E+00 0.  1.
         24    1    1    2    0    0 -0.33534428752E+02  0.62328500103E+01  0.10532942926E+03  0.13683899646E+03  0.80419002446E+02 0. -1.
        -24    1    1    2    0    0  0.33534428752E+02 -0.62328500103E+01 -0.24947473041E+02  0.90846016404E+02  0.80419002446E+02 0.  1.
<mgrwt>
<rscale>  0 0.87353433E+02</rscale>
<asrwt>0</asrwt>
<pdfrwt beam="1">  1        2 0.23697459E-01 0.87353433E+02</pdfrwt>
<pdfrwt beam="2">  1       -2 0.11331004E-01 0.87353433E+02</pdfrwt>
<totfact> 0.11193683E+04</totfact>
</mgrwt>
</event>
<event>
 4    1  0.6602701E-002  0.9613602E+02  0.7546771E-02  0.1288638E+00
         -2   -1    0    0    0  501 -0.00000000000E+00  0.00000000000E+00  0.42501435849E+02  0.42501435849E+02  0.00000000000E+00 0.  1.
          2   -1    0    0  501    0  0.00000000000E+00 -0.00000000000E+00 -0.33716560333E+03  0.33716560333E+03  0.00000000000E+00 0. -1.
         24    1    1    2    0    0  0.67020738771E+01 -0.52249413891E+02 -0.26044656469E+03  0.27762303230E+03  0.80419002446E+02 0. -1.
        -24    1    1    2    0    0 -0.67020738771E+01  0.52249413891E+02 -0.34217602789E+02  0.10204400689E+03  0.80419002446E+02 0.  1.
<mgrwt>
<rscale>  0 0.96136023E+02</rscale>
<asrwt>0</asrwt>
<pdfrwt beam="1">  1        2 0.51871632E-01 0.96136023E+02</pdfrwt>
<pdfrwt beam="2">  1       -2 0.65386824E-02 0.96136023E+02</pdfrwt>
<totfact> 0.11452429E+04</totfact>
</mgrwt>
</event>
<event>
 4    1  0.6602701E-002  0.8484434E+02  0.7546771E-02  0.1315840E+00
          1   -1    0    0  501    0  0.00000000000E+00  0.00000000000E+00  0.99612818939E+01  0.99612818939E+01  0.00000000000E+00 0. -1.
         -1   -1    0    0    0  501 -0.00000000000E+00 -0.00000000000E+00 -0.74709260051E+03  0.74709260051E+03  0.00000000000E+00 0.  1.
         24    1    1    2    0    0 -0.15903486967E+02 -0.21872853369E+02 -0.30010371859E+03  0.31186663894E+03  0.80419002446E+02 0. -1.
        -24    1    1    2    0    0  0.15903486967E+02  0.21872853369E+02 -0.43702760002E+03  0.44518724347E+03  0.80419002446E+02 0.  1.
<mgrwt>
<rscale>  0 0.84844330E+02</rscale>
<asrwt>0</asrwt>
<pdfrwt beam="1">  1        1 0.15325049E-02 0.84844341E+02</pdfrwt>
<pdfrwt beam="2">  1       -1 0.11493733E+00 0.84844341E+02</pdfrwt>
<totfact> 0.59046887E+03</totfact>
</mgrwt>
</event>
<event>
 4    1  0.6602701E-002  0.8531461E+02  0.7546771E-02  0.1314612E+00
          2   -1    0    0  501    0  0.00000000000E+00  0.00000000000E+00  0.76507786243E+03  0.76507786243E+03  0.00000000000E+00 0. -1.
         -2   -1    0    0    0  501 -0.00000000000E+00 -0.00000000000E+00 -0.14318314604E+02  0.14318314604E+02  0.00000000000E+00 0.  1.
         24    1    1    2    0    0 -0.26432156273E+02 -0.10616364921E+02  0.60112565113E+03  0.60714959482E+03  0.80419002446E+02 0. -1.
        -24    1    1    2    0    0  0.26432156273E+02  0.10616364921E+02  0.14963389670E+03  0.17224658221E+03  0.80419002446E+02 0.  1.
<mgrwt>
<rscale>  0 0.85314606E+02</rscale>
<asrwt>0</asrwt>
<pdfrwt beam="1">  1        2 0.11770425E+00 0.85314606E+02</pdfrwt>
<pdfrwt beam="2">  1       -2 0.22028182E-02 0.85314606E+02</pdfrwt>
<totfact> 0.22816220E+04</totfact>
</mgrwt>
</event>
<event>
 4    1  0.6602701E-002  0.8708525E+02  0.7546771E-02  0.1310068E+00
         -2   -1    0    0    0  501 -0.00000000000E+00  0.00000000000E+00  0.15367757315E+03  0.15367757315E+03  0.00000000000E+00 0.  1.
          2   -1    0    0  501    0  0.00000000000E+00 -0.00000000000E+00 -0.16738818020E+03  0.16738818020E+03  0.00000000000E+00 0. -1.
         24    1    1    2    0    0 -0.75734967073E+01  0.32546376359E+02 -0.14166297782E+03  0.16628962597E+03  0.80419002446E+02 0. -1.
        -24    1    1    2    0    0  0.75734967073E+01 -0.32546376359E+02  0.12795237077E+03  0.15477612738E+03  0.80419002446E+02 0.  1.
<mgrwt>
<rscale>  0 0.87085248E+02</rscale>
<asrwt>0</asrwt>
<pdfrwt beam="1">  1        2 0.25752028E-01 0.87085248E+02</pdfrwt>
<pdfrwt beam="2">  1       -2 0.23642704E-01 0.87085248E+02</pdfrwt>
<totfact> 0.30694392E+03</totfact>
</mgrwt>
</event>
<event>
 4    1  0.6602701E-002  0.8207431E+02  0.7546771E-02  0.1323266E+00
          2   -1    0    0  501    0  0.00000000000E+00  0.00000000000E+00  0.10950832917E+04  0.10950832917E+04  0.00000000000E+00 0. -1.
         -2   -1    0    0    0  501 -0.00000000000E+00 -0.00000000000E+00 -0.14137891675E+02  0.14137891675E+02  0.00000000000E+00 0.  1.
         24    1    1    2    0    0 -0.11933449867E+02 -0.11250272651E+02  0.95731945678E+03  0.96083127247E+03  0.80419002446E+02 0. -1.
        -24    1    1    2    0    0  0.11933449867E+02  0.11250272651E+02  0.12362594320E+03  0.14838991087E+03  0.80419002446E+02 0.  1.
<mgrwt>
<rscale>  0 0.82074307E+02</rscale>
<asrwt>0</asrwt>
<pdfrwt beam="1">  1        2 0.16847429E+00 0.82074307E+02</pdfrwt>
<pdfrwt beam="2">  1       -2 0.21750611E-02 0.82074307E+02</pdfrwt>
<totfact> 0.14563296E+04</totfact>
</mgrwt>
</event>
<event>
 4    1  0.6602701E-002  0.1337487E+03  0.7546771E-02  0.1221997E+00
          2   -1    0    0  501    0  0.00000000000E+00  0.00000000000E+00  0.36401003957E+03  0.36401003957E+03  0.00000000000E+00 0. -1.
         -2   -1    0    0    0  501 -0.00000000000E+00 -0.00000000000E+00 -0.51701973047E+02  0.51701973047E+02  0.00000000000E+00 0.  1.
         24    1    1    2    0    0 -0.64451394687E+02 -0.85249736313E+02  0.20239236425E+03  0.24259304376E+03  0.80419002446E+02 0. -1.
        -24    1    1    2    0    0  0.64451394687E+02  0.85249736313E+02  0.10991570228E+03  0.17311896886E+03  0.80419002446E+02 0.  1.
<mgrwt>
<rscale>  0 0.13374870E+03</rscale>
<asrwt>0</asrwt>
<pdfrwt beam="1">  1        2 0.56001543E-01 0.13374870E+03</pdfrwt>
<pdfrwt beam="2">  1       -2 0.79541499E-02 0.13374870E+03</pdfrwt>
<totfact> 0.80337997E+03</totfact>
</mgrwt>
</event>
<event>
 4    1  0.6602701E-002  0.1284669E+03  0.7546771E-02  0.1229749E+00
         -2   -1    0    0    0  501 -0.00000000000E+00  0.00000000000E+00  0.10573773202E+02  0.10573773202E+02  0.00000000000E+00 0.  1.
          2   -1    0    0  501    0  0.00000000000E+00 -0.00000000000E+00 -0.20096061211E+04  0.20096061211E+04  0.00000000000E+00 0. -1.
         24    1    1    2    0    0 -0.78547068583E+02  0.62184202896E+02 -0.14768534693E+04  0.14824304040E+04  0.80419002446E+02 0. -1.
        -24    1    1    2    0    0  0.78547068583E+02 -0.62184202896E+02 -0.52217887858E+03  0.53774949025E+03  0.80419002446E+02 0.  1.
<mgrwt>
<rscale>  0 0.12846686E+03</rscale>
<asrwt>0</asrwt>
<pdfrwt beam="1">  1        2 0.30916999E+00 0.12846686E+03</pdfrwt>
<pdfrwt beam="2">  1       -2 0.16267353E-02 0.12846686E+03</pdfrwt>
<totfact> 0.75841974E+03</totfact>
</mgrwt>
</event>
<event>
 4    1  0.6602701E-002  0.1003120E+03  0.7546771E-02  0.1279641E+00
          1   -1    0    0  501    0  0.00000000000E+00  0.00000000000E+00  0.10540114923E+04  0.10540114923E+04  0.00000000000E+00 0. -1.
         -1   -1    0    0    0  501 -0.00000000000E+00 -0.00000000000E+00 -0.10833058197E+02  0.10833058197E+02  0.00000000000E+00 0.  1.
         24    1    1    2    0    0  0.18668195631E+02 -0.56980526167E+02  0.33813191723E+03  0.35269773361E+03  0.80419002446E+02 0.  1.
        -24    1    1    2    0    0 -0.18668195631E+02  0.56980526167E+02  0.70504651685E+03  0.71214681686E+03  0.80419002446E+02 0. -1.
<mgrwt>
<rscale>  0 0.10031200E+03</rscale>
<asrwt>0</asrwt>
<pdfrwt beam="1">  1        1 0.16215553E+00 0.10031200E+03</pdfrwt>
<pdfrwt beam="2">  1       -1 0.16666252E-02 0.10031200E+03</pdfrwt>
<totfact> 0.12306740E+04</totfact>
</mgrwt>
</event>
<event>
 4    1  0.6602701E-002  0.8624473E+02  0.7546771E-02  0.1312209E+00
          1   -1    0    0  501    0  0.00000000000E+00  0.00000000000E+00  0.49792030056E+03  0.49792030056E+03  0.00000000000E+00 0. -1.
         -1   -1    0    0    0  501 -0.00000000000E+00 -0.00000000000E+00 -0.28444414950E+02  0.28444414950E+02  0.00000000000E+00 0.  1.
         24    1    1    2    0    0 -0.25511738675E+02 -0.17890999053E+02  0.53386406938E+02  0.10143106554E+03  0.80419002446E+02 0.  1.
        -24    1    1    2    0    0  0.25511738675E+02  0.17890999053E+02  0.41608947867E+03  0.42493364997E+03  0.80419002446E+02 0. -1.
<mgrwt>
<rscale>  0 0.86244725E+02</rscale>
<asrwt>0</asrwt>
<pdfrwt beam="1">  1        1 0.76603117E-01 0.86244725E+02</pdfrwt>
<pdfrwt beam="2">  1       -1 0.43760642E-02 0.86244725E+02</pdfrwt>
<totfact> 0.90012217E+03</totfact>
</mgrwt>
</event>
<event>
 4    1  0.6602701E-002  0.1103764E+03  0.7546771E-02  0.1259874E+00
          1   -1    0    0  501    0  0.00000000000E+00  0.00000000000E+00  0.15324504175E+04  0.15324504175E+04  0.00000000000E+00 0. -1.
         -1   -1    0    0    0  501 -0.00000000000E+00 -0.00000000000E+00 -0.11041062217E+02  0.11041062217E+02  0.00000000000E+00 0.  1.
         24    1    1    2    0    0 -0.52979513294E+02 -0.53934256970E+02  0.35236258443E+03  0.36924563608E+03  0.80419002446E+02 0.  1.
        -24    1    1    2    0    0  0.52979513294E+02  0.53934256970E+02  0.11690467708E+04  0.11742458436E+04  0.80419002446E+02 0. -1.
<mgrwt>
<rscale>  0 0.11037640E+03</rscale>
<asrwt>0</asrwt>
<pdfrwt beam="1">  1        1 0.23576143E+00 0.11037640E+03</pdfrwt>
<pdfrwt beam="2">  1       -1 0.16986262E-02 0.11037640E+03</pdfrwt>
<totfact> 0.57771780E+03</totfact>
</mgrwt>
</event>
<event>
 4    1  0.6602701E-002  0.9695420E+02  0.7546771E-02  0.1286834E+00
          1   -1    0    0  501    0  0.00000000000E+00  0.00000000000E+00  0.24487315747E+03  0.24487315747E+03  0.00000000000E+00 0. -1.
         -1   -1    0    0    0  501 -0.00000000000E+00 -0.00000000000E+00 -0.40181574090E+02  0.40181574090E+02  0.00000000000E+00 0.  1.
         24    1    1    2    0    0 -0.36187811486E+02 -0.40290723930E+02  0.72230895811E+02  0.12090251610E+03  0.80419002446E+02 0.  1.
        -24    1    1    2    0    0  0.36187811486E+02  0.40290723930E+02  0.13246068757E+03  0.16415221546E+03  0.80419002446E+02 0. -1.
<mgrwt>
<rscale>  0 0.96954196E+02</rscale>
<asrwt>0</asrwt>
<pdfrwt beam="1">  1        1 0.37672793E-01 0.96954196E+02</pdfrwt>
<pdfrwt beam="2">  1       -1 0.61817808E-02 0.96954196E+02</pdfrwt>
<totfact> 0.13184355E+04</totfact>
</mgrwt>
</event>
<event>
 4    1  0.6602701E-002  0.8730734E+02  0.7546771E-02  0.1309507E+00
         -2   -1    0    0    0  501 -0.00000000000E+00  0.00000000000E+00  0.25219285792E+03  0.25219285792E+03  0.00000000000E+00 0.  1.
          2   -1    0    0  501    0  0.00000000000E+00 -0.00000000000E+00 -0.37591020219E+02  0.37591020219E+02  0.00000000000E+00 0. -1.
         24    1    1    2    0    0 -0.63984468385E+01  0.33382850274E+02  0.43163163856E+02  0.97394196351E+02  0.80419002446E+02 0.  1.
        -24    1    1    2    0    0  0.63984468385E+01 -0.33382850274E+02  0.17143867384E+03  0.19238968179E+03  0.80419002446E+02 0.  1.
<mgrwt>
<rscale>  0 0.87307335E+02</rscale>
<asrwt>0</asrwt>
<pdfrwt beam="1">  1        2 0.57832340E-02 0.87307335E+02</pdfrwt>
<pdfrwt beam="2">  1       -2 0.38798900E-01 0.87307335E+02</pdfrwt>
<totfact> 0.74079396E+03</totfact>
</mgrwt>
</event>
<event>
 4    1  0.6602701E-002  0.8059505E+02  0.7546771E-02  0.1327371E+00
         -2   -1    0    0    0  501 -0.00000000000E+00  0.00000000000E+00  0.54329854086E+02  0.54329854086E+02  0.00000000000E+00 0.  1.
          2   -1    0    0  501    0  0.00000000000E+00 -0.00000000000E+00 -0.24462342316E+03  0.24462342316E+03  0.00000000000E+00 0. -1.
         24    1    1    2    0    0 -0.19972879042E+01  0.49352295636E+01 -0.20202597569E+03  0.21750875030E+03  0.80419002446E+02 0.  0.
        -24    1    1    2    0    0  0.19972879042E+01 -0.49352295636E+01  0.11732406617E+02  0.81444526944E+02  0.80419002446E+02 0.  1.
<mgrwt>
<rscale>  0 0.80595047E+02</rscale>
<asrwt>0</asrwt>
<pdfrwt beam="1">  1        2 0.37634372E-01 0.80595047E+02</pdfrwt>
<pdfrwt beam="2">  1       -2 0.83584393E-02 0.80595047E+02</pdfrwt>
<totfact> 0.10855746E+04</totfact>
</mgrwt>
</event>
<event>
 4    1  0.6602701E-002  0.9228762E+02  0.7546771E-02  0.1297405E+00
         -1   -1    0    0    0  501 -0.00000000000E+00  0.00000000000E+00  0.94539064364E+01  0.94539064364E+01  0.00000000000E+00 0.  1.
          1   -1    0    0  501    0  0.00000000000E+00 -0.00000000000E+00 -0.14353677582E+04  0.14353677582E+04  0.00000000000E+00 0. -1.
         24    1    1    2    0    0 -0.44791345636E+02  0.65973436899E+01 -0.27213395375E+03  0.28735673705E+03  0.80419002446E+02 0.  1.
        -24    1    1    2    0    0  0.44791345636E+02 -0.65973436899E+01 -0.11537798980E+04  0.11574649276E+04  0.80419002446E+02 0. -1.
<mgrwt>
<rscale>  0 0.92287624E+02</rscale>
<asrwt>0</asrwt>
<pdfrwt beam="1">  1        1 0.22082578E+00 0.92287624E+02</pdfrwt>
<pdfrwt beam="2">  1       -1 0.14544474E-02 0.92287624E+02</pdfrwt>
<totfact> 0.82516804E+03</totfact>
</mgrwt>
</event>
<event>
 4    1  0.6602701E-002  0.1338347E+03  0.7546771E-02  0.1221874E+00
          1   -1    0    0  501    0  0.00000000000E+00  0.00000000000E+00  0.27915466988E+03  0.27915466988E+03  0.00000000000E+00 0. -1.
         -1   -1    0    0    0  501 -0.00000000000E+00 -0.00000000000E+00 -0.77384017689E+02  0.77384017689E+02  0.00000000000E+00 0.  1.
         24    1    1    2    0    0 -0.25293874542E+02 -0.10394575103E+03  0.27202718033E+02  0.13657123807E+03  0.80419002446E+02 0.  1.
        -24    1    1    2    0    0  0.25293874542E+02  0.10394575103E+03  0.17456793416E+03  0.21996744950E+03  0.80419002446E+02 0. -1.
<mgrwt>
<rscale>  0 0.13383466E+03</rscale>
<asrwt>0</asrwt>
<pdfrwt beam="1">  1        1 0.42946872E-01 0.13383466E+03</pdfrwt>
<pdfrwt beam="2">  1       -1 0.11905234E-01 0.13383466E+03</pdfrwt>
<totfact> 0.42791915E+03</totfact>
</mgrwt>
</event>
<event>
 4    1  0.6602701E-002  0.1046489E+03  0.7546771E-02  0.1270813E+00
          2   -1    0    0  501    0  0.00000000000E+00  0.00000000000E+00  0.83925903356E+02  0.83925903356E+02  0.00000000000E+00 0. -1.
         -2   -1    0    0    0  501 -0.00000000000E+00 -0.00000000000E+00 -0.13335957510E+03  0.13335957510E+03  0.00000000000E+00 0.  1.
         24    1    1    2    0    0  0.15401036502E+02 -0.65168949286E+02 -0.87771518857E+01  0.10501637123E+03  0.80419002446E+02 0.  0.
        -24    1    1    2    0    0 -0.15401036502E+02  0.65168949286E+02 -0.40656519860E+02  0.11226910723E+03  0.80419002446E+02 0.  1.
<mgrwt>
<rscale>  0 0.10464894E+03</rscale>
<asrwt>0</asrwt>
<pdfrwt beam="1">  1        2 0.12911678E-01 0.10464894E+03</pdfrwt>
<pdfrwt beam="2">  1       -2 0.20516858E-01 0.10464894E+03</pdfrwt>
<totfact> 0.86521101E+03</totfact>
</mgrwt>
</event>
<event>
 4    1  0.6602701E-002  0.2045910E+03  0.7546771E-02  0.1145922E+00
         -2   -1    0    0    0  501 -0.00000000000E+00  0.00000000000E+00  0.13777241003E+03  0.13777241003E+03  0.00000000000E+00 0.  1.
          2   -1    0    0  501    0  0.00000000000E+00 -0.00000000000E+00 -0.42553537663E+03  0.42553537663E+03  0.00000000000E+00 0. -1.
         24    1    1    2    0    0 -0.13925442013E+03  0.12648511853E+03 -0.29451699490E+03  0.35860529134E+03  0.80419002446E+02 0. -1.
        -24    1    1    2    0    0  0.13925442013E+03 -0.12648511853E+03  0.67540283007E+01  0.20470249531E+03  0.80419002446E+02 0.  1.
<mgrwt>
<rscale>  0 0.20459104E+03</rscale>
<asrwt>0</asrwt>
<pdfrwt beam="1">  1        2 0.65466980E-01 0.20459104E+03</pdfrwt>
<pdfrwt beam="2">  1       -2 0.21195756E-01 0.20459104E+03</pdfrwt>
<totfact> 0.14105961E+03</totfact>
</mgrwt>
</event>
<event>
 4    1  0.6602701E-002  0.8435392E+02  0.7546771E-02  0.1317131E+00
         -1   -1    0    0    0  501 -0.00000000000E+00  0.00000000000E+00  0.26621128661E+02  0.26621128661E+02  0.00000000000E+00 0.  1.
          1   -1    0    0  501    0  0.00000000000E+00 -0.00000000000E+00 -0.43753067532E+03  0.43753067532E+03  0.00000000000E+00 0. -1.
         24    1    1    2    0    0 -0.91726531347E+01 -0.23753528956E+02 -0.60692165637E+02  0.10391882711E+03  0.80419002446E+02 0.  1.
        -24    1    1    2    0    0  0.91726531347E+01  0.23753528956E+02 -0.35021738102E+03  0.36023297688E+03  0.80419002446E+02 0. -1.
<mgrwt>
<rscale>  0 0.84353919E+02</rscale>
<asrwt>0</asrwt>
<pdfrwt beam="1">  1        1 0.67312405E-01 0.84353919E+02</pdfrwt>
<pdfrwt beam="2">  1       -1 0.40955586E-02 0.84353919E+02</pdfrwt>
<totfact> 0.11650821E+04</totfact>
</mgrwt>
</event>
<event>
 4    1  0.6602701E-002  0.8059363E+02  0.7546771E-02  0.1327375E+00
          1   -1    0    0  501    0  0.00000000000E+00  0.00000000000E+00  0.27760460184E+02  0.27760460184E+02  0.00000000000E+00 0. -1.
         -1   -1    0    0    0  501 -0.00000000000E+00 -0.00000000000E+00 -0.27487133454E+03  0.27487133454E+03  0.00000000000E+00 0.  1.
         24    1    1    2    0    0 -0.50901671164E+01  0.14846207259E+01 -0.65191114112E+02  0.10365911062E+03  0.80419002446E+02 0. -1.
        -24    1    1    2    0    0  0.50901671164E+01 -0.14846207259E+01 -0.18191976024E+03  0.19897268410E+03  0.80419002446E+02 0.  0.
<mgrwt>
<rscale>  0 0.80593619E+02</rscale>
<asrwt>0</asrwt>
<pdfrwt beam="1">  1        1 0.42708400E-02 0.80593629E+02</pdfrwt>
<pdfrwt beam="2">  1       -1 0.42287898E-01 0.80593629E+02</pdfrwt>
<totfact> 0.10346788E+04</totfact>
</mgrwt>
</event>
<event>
 4    1  0.6602701E-002  0.8132000E+02  0.7546771E-02  0.1325347E+00
          1   -1    0    0  501    0  0.00000000000E+00  0.00000000000E+00  0.27814544698E+04  0.27814544698E+04  0.00000000000E+00 0. -1.
         -1   -1    0    0    0  501 -0.00000000000E+00 -0.00000000000E+00 -0.33328328843E+01  0.33328328843E+01  0.00000000000E+00 0.  1.
         24    1    1    2    0    0 -0.10240470566E+02  0.63921766745E+01  0.64359152397E+03  0.64870871186E+03  0.80419002446E+02 0. -1.
        -24    1    1    2    0    0  0.10240470566E+02 -0.63921766745E+01  0.21345301129E+04  0.21360785908E+04  0.80419002446E+02 0. -1.
<mgrwt>
<rscale>  0 0.81320004E+02</rscale>
<asrwt>0</asrwt>
<pdfrwt beam="1">  1        1 0.42791422E+00 0.81320004E+02</pdfrwt>
<pdfrwt beam="2">  1       -1 0.51274574E-03 0.81320004E+02</pdfrwt>
<totfact> 0.49686610E+03</totfact>
</mgrwt>
</event>
<event>
 4    1  0.6602701E-002  0.9154680E+02  0.7546771E-02  0.1299149E+00
          1   -1    0    0  501    0  0.00000000000E+00  0.00000000000E+00  0.24084554534E+03  0.24084554534E+03  0.00000000000E+00 0. -1.
         -1   -1    0    0    0  501 -0.00000000000E+00 -0.00000000000E+00 -0.55672374843E+02  0.55672374843E+02  0.00000000000E+00 0.  1.
         24    1    1    2    0    0 -0.29389109790E+02  0.32401860469E+02  0.18017520717E+01  0.91564526980E+02  0.80419002446E+02 0.  1.
        -24    1    1    2    0    0  0.29389109790E+02 -0.32401860469E+02  0.18337141842E+03  0.20495339320E+03  0.80419002446E+02 0. -1.
<mgrwt>
<rscale>  0 0.91546798E+02</rscale>
<asrwt>0</asrwt>
<pdfrwt beam="1">  1        1 0.37053160E-01 0.91546798E+02</pdfrwt>
<pdfrwt beam="2">  1       -1 0.85649809E-02 0.91546798E+02</pdfrwt>
<totfact> 0.82423154E+03</totfact>
</mgrwt>
</event>
<event>
 4    1  0.6602701E-002  0.8394530E+02  0.7546771E-02  0.1318214E+00
          2   -1    0    0  501    0  0.00000000000E+00  0.00000000000E+00  0.14867598289E+03  0.14867598289E+03  0.00000000000E+00 0. -1.
         -2   -1    0    0    0  501 -0.00000000000E+00 -0.00000000000E+00 -0.74446324264E+02  0.74446324264E+02  0.00000000000E+00 0.  1.
         24    1    1    2    0    0  0.23194514095E+02  0.64507833556E+01  0.10436115793E+03  0.13393306287E+03  0.80419002446E+02 0. -1.
        -24    1    1    2    0    0 -0.23194514095E+02 -0.64507833556E+01 -0.30131499312E+02  0.89189244280E+02  0.80419002446E+02 0.  1.
<mgrwt>
<rscale>  0 0.83945304E+02</rscale>
<asrwt>0</asrwt>
<pdfrwt beam="1">  1        2 0.22873228E-01 0.83945304E+02</pdfrwt>
<pdfrwt beam="2">  1       -2 0.11453281E-01 0.83945304E+02</pdfrwt>
<totfact> 0.11397485E+04</totfact>
</mgrwt>
</event>
<event>
 4    1  0.6602701E-002  0.8426640E+02  0.7546771E-02  0.1317362E+00
         -2   -1    0    0    0  501 -0.00000000000E+00  0.00000000000E+00  0.31891744142E+03  0.31891744142E+03  0.00000000000E+00 0.  1.
          2   -1    0    0  501    0  0.00000000000E+00 -0.00000000000E+00 -0.30362253889E+03  0.30362253889E+03  0.00000000000E+00 0. -1.
         24    1    1    2    0    0 -0.19749945709E+02 -0.15606110261E+02 -0.29199215066E+03  0.30390828063E+03  0.80419002446E+02 0. -1.
        -24    1    1    2    0    0  0.19749945709E+02  0.15606110261E+02  0.30728705319E+03  0.31863169968E+03  0.80419002446E+02 0.  1.
<mgrwt>
<rscale>  0 0.84266405E+02</rscale>
<asrwt>0</asrwt>
<pdfrwt beam="1">  1        2 0.46711160E-01 0.84266405E+02</pdfrwt>
<pdfrwt beam="2">  1       -2 0.49064222E-01 0.84266405E+02</pdfrwt>
<totfact> 0.43131652E+02</totfact>
</mgrwt>
</event>
<event>
 4    1  0.6602701E-002  0.8440999E+02  0.7546771E-02  0.1316983E+00
         -2   -1    0    0    0  501 -0.00000000000E+00  0.00000000000E+00  0.63563828053E+01  0.63563828053E+01  0.00000000000E+00 0.  1.
          2   -1    0    0  501    0  0.00000000000E+00 -0.00000000000E+00 -0.20358669675E+04  0.20358669675E+04  0.00000000000E+00 0. -1.
         24    1    1    2    0    0  0.17865658412E+02  0.18402418233E+02 -0.16992886789E+04  0.17013838665E+04  0.80419002446E+02 0. -1.
        -24    1    1    2    0    0 -0.17865658412E+02 -0.18402418233E+02 -0.33022190571E+03  0.34083948379E+03  0.80419002446E+02 0.  1.
<mgrwt>
<rscale>  0 0.84409992E+02</rscale>
<asrwt>0</asrwt>
<pdfrwt beam="1">  1        2 0.31321039E+00 0.84409992E+02</pdfrwt>
<pdfrwt beam="2">  1       -2 0.97790477E-03 0.84409992E+02</pdfrwt>
<totfact> 0.14961164E+04</totfact>
</mgrwt>
</event>
<event>
 4    1  0.6602701E-002  0.8832286E+02  0.7546771E-02  0.1306965E+00
          1   -1    0    0  501    0  0.00000000000E+00  0.00000000000E+00  0.15648297345E+03  0.15648297345E+03  0.00000000000E+00 0. -1.
         -1   -1    0    0    0  501 -0.00000000000E+00 -0.00000000000E+00 -0.49851767094E+02  0.49851767094E+02  0.00000000000E+00 0.  1.
         24    1    1    2    0    0 -0.24670930152E+02  0.26926820627E+02  0.53512201714E+02  0.10326896993E+03  0.80419002446E+02 0.  0.
        -24    1    1    2    0    0  0.24670930152E+02 -0.26926820627E+02  0.53119004640E+02  0.10306577061E+03  0.80419002446E+02 0.  0.
<mgrwt>
<rscale>  0 0.88322853E+02</rscale>
<asrwt>0</asrwt>
<pdfrwt beam="1">  1        1 0.24074303E-01 0.88322864E+02</pdfrwt>
<pdfrwt beam="2">  1       -1 0.76695027E-02 0.88322864E+02</pdfrwt>
<totfact> 0.16455779E+04</totfact>
</mgrwt>
</event>
<event>
 4    1  0.6602701E-002  0.1489754E+03  0.7546771E-02  0.1201738E+00
          3   -1    0    0  501    0  0.00000000000E+00  0.00000000000E+00  0.85105651463E+03  0.85105651463E+03  0.00000000000E+00 0. -1.
         -3   -1    0    0    0  501 -0.00000000000E+00 -0.00000000000E+00 -0.43385785197E+02  0.43385785197E+02  0.00000000000E+00 0.  1.
         24    1    1    2    0    0 -0.90545031620E+02 -0.86764419758E+02  0.12136568592E+03  0.19215439875E+03  0.80419002446E+02 0.  1.
        -24    1    1    2    0    0  0.90545031620E+02  0.86764419758E+02  0.68630504352E+03  0.70228790108E+03  0.80419002446E+02 0. -1.
<mgrwt>
<rscale>  0 0.14897545E+03</rscale>
<asrwt>0</asrwt>
<pdfrwt beam="1">  1        3 0.13093176E+00 0.14897545E+03</pdfrwt>
<pdfrwt beam="2">  1       -3 0.66747368E-02 0.14897545E+03</pdfrwt>
<totfact> 0.16323212E+02</totfact>
</mgrwt>
</event>
<event>
 4    1  0.6602701E-002  0.8049612E+02  0.7546771E-02  0.1327649E+00
         -1   -1    0    0    0  501 -0.00000000000E+00  0.00000000000E+00  0.45746932828E+02  0.45746932828E+02  0.00000000000E+00 0.  1.
          1   -1    0    0  501    0  0.00000000000E+00 -0.00000000000E+00 -0.17771340452E+03  0.17771340452E+03  0.00000000000E+00 0. -1.
         24    1    1    2    0    0  0.34857191489E+01  0.50919224994E+00 -0.15644768082E+02  0.82002342878E+02  0.80419002446E+02 0.  1.
        -24    1    1    2    0    0 -0.34857191489E+01 -0.50919224994E+00 -0.11632170361E+03  0.14145799447E+03  0.80419002446E+02 0.  0.
<mgrwt>
<rscale>  0 0.80496121E+02</rscale>
<asrwt>0</asrwt>
<pdfrwt beam="1">  1        1 0.27340524E-01 0.80496121E+02</pdfrwt>
<pdfrwt beam="2">  1       -1 0.70379896E-02 0.80496121E+02</pdfrwt>
<totfact> 0.15815991E+04</totfact>
</mgrwt>
</event>
<event>
 4    1  0.6602701E-002  0.1277116E+03  0.7546771E-02  0.1230891E+00
          2   -1    0    0  501    0  0.00000000000E+00  0.00000000000E+00  0.75506582104E+03  0.75506582104E+03  0.00000000000E+00 0. -1.
         -2   -1    0    0    0  501 -0.00000000000E+00 -0.00000000000E+00 -0.25414369538E+02  0.25414369538E+02  0.00000000000E+00 0.  1.
         24    1    1    2    0    0  0.77827162133E+02  0.61530141374E+02  0.51598743432E+03  0.53155740404E+03  0.80419002446E+02 0.  0.
        -24    1    1    2    0    0 -0.77827162133E+02 -0.61530141374E+02  0.21366401718E+03  0.24892278653E+03  0.80419002446E+02 0.  1.
<mgrwt>
<rscale>  0 0.12771156E+03</rscale>
<asrwt>0</asrwt>
<pdfrwt beam="1">  1        2 0.11616396E+00 0.12771156E+03</pdfrwt>
<pdfrwt beam="2">  1       -2 0.39099036E-02 0.12771156E+03</pdfrwt>
<totfact> 0.10367688E+04</totfact>
</mgrwt>
</event>
<event>
 4    1  0.6602701E-002  0.9084807E+02  0.7546771E-02  0.1300811E+00
          2   -1    0    0  501    0  0.00000000000E+00  0.00000000000E+00  0.15252477632E+04  0.15252477632E+04  0.00000000000E+00 0. -1.
         -2   -1    0    0    0  501 -0.00000000000E+00 -0.00000000000E+00 -0.54169489830E+01  0.54169489830E+01  0.00000000000E+00 0.  1.
         24    1    1    2    0    0  0.40416473191E+02 -0.12355559552E+02  0.73490670504E+03  0.74050066321E+03  0.80419002446E+02 0. -1.
        -24    1    1    2    0    0 -0.40416473191E+02  0.12355559552E+02  0.78492410914E+03  0.79016404893E+03  0.80419002446E+02 0.  1.
<mgrwt>
<rscale>  0 0.90848055E+02</rscale>
<asrwt>0</asrwt>
<pdfrwt beam="1">  1        2 0.23465316E+00 0.90848067E+02</pdfrwt>
<pdfrwt beam="2">  1       -2 0.83337798E-03 0.90848067E+02</pdfrwt>
<totfact> 0.34014008E+04</totfact>
</mgrwt>
</event>
<event>
 4    1  0.6602701E-002  0.9998684E+02  0.7546771E-02  0.1280324E+00
          2   -1    0    0  501    0  0.00000000000E+00  0.00000000000E+00  0.11095943648E+04  0.11095943648E+04  0.00000000000E+00 0. -1.
         -2   -1    0    0    0  501 -0.00000000000E+00 -0.00000000000E+00 -0.28206402845E+02  0.28206402845E+02  0.00000000000E+00 0.  1.
         24    1    1    2    0    0  0.55274943487E+02  0.21790643036E+02  0.10100183394E+04  0.10149553751E+04  0.80419002446E+02 0. -1.
        -24    1    1    2    0    0 -0.55274943487E+02 -0.21790643036E+02  0.71369622576E+02  0.12284539260E+03  0.80419002446E+02 0.  1.
<mgrwt>
<rscale>  0 0.99986836E+02</rscale>
<asrwt>0</asrwt>
<pdfrwt beam="1">  1        2 0.17070679E+00 0.99986836E+02</pdfrwt>
<pdfrwt beam="2">  1       -2 0.43394474E-02 0.99986836E+02</pdfrwt>
<totfact> 0.52905262E+03</totfact>
</mgrwt>
</event>
<event>
 4    1  0.6602701E-002  0.8558498E+02  0.7546771E-02  0.1313910E+00
          2   -1    0    0  501    0  0.00000000000E+00  0.00000000000E+00  0.39000182516E+02  0.39000182516E+02  0.00000000000E+00 0. -1.
         -2   -1    0    0    0  501 -0.00000000000E+00 -0.00000000000E+00 -0.22508518150E+03  0.22508518150E+03  0.00000000000E+00 0.  1.
         24    1    1    2    0    0 -0.28750133250E+02  0.55680584790E+01 -0.39311353464E+02  0.94181590041E+02  0.80419002446E+02 0.  0.
        -24    1    1    2    0    0  0.28750133250E+02 -0.55680584790E+01 -0.14677364552E+03  0.16990377397E+03  0.80419002446E+02 0.  0.
<mgrwt>
<rscale>  0 0.85584983E+02</rscale>
<asrwt>0</asrwt>
<pdfrwt beam="1">  1        2 0.60000279E-02 0.85584983E+02</pdfrwt>
<pdfrwt beam="2">  1       -2 0.34628490E-01 0.85584983E+02</pdfrwt>
<totfact> 0.87007425E+03</totfact>
</mgrwt>
</event>
<event>
 4    1  0.6602701E-002  0.9232661E+02  0.7546771E-02  0.1297313E+00
         -2   -1    0    0    0  501 -0.00000000000E+00  0.00000000000E+00  0.33979659693E+02  0.33979659693E+02  0.00000000000E+00 0.  1.
          2   -1    0    0  501    0  0.00000000000E+00 -0.00000000000E+00 -0.25262845299E+03  0.25262845299E+03  0.00000000000E+00 0. -1.
         24    1    1    2    0    0  0.43060258860E+02 -0.14240661814E+02 -0.97340610354E+02  0.13416181543E+03  0.80419002446E+02 0.  1.
        -24    1    1    2    0    0 -0.43060258860E+02  0.14240661814E+02 -0.12130818294E+03  0.15244629725E+03  0.80419002446E+02 0.  0.
<mgrwt>
<rscale>  0 0.92326597E+02</rscale>
<asrwt>0</asrwt>
<pdfrwt beam="1">  1        2 0.38865915E-01 0.92326608E+02</pdfrwt>
<pdfrwt beam="2">  1       -2 0.52276401E-02 0.92326608E+02</pdfrwt>
<totfact> 0.21589365E+04</totfact>
</mgrwt>
</event>
<event>
 4    1  0.6602701E-002  0.1119743E+03  0.7546771E-02  0.1256957E+00
          2   -1    0    0  501    0  0.00000000000E+00  0.00000000000E+00  0.11264089519E+04  0.11264089519E+04  0.00000000000E+00 0. -1.
         -2   -1    0    0    0  501 -0.00000000000E+00 -0.00000000000E+00 -0.17669061036E+02  0.17669061036E+02  0.00000000000E+00 0.  1.
         24    1    1    2    0    0  0.45293277600E+02 -0.63399944925E+02  0.90233668551E+03  0.90925779842E+03  0.80419002446E+02 0. -1.
        -24    1    1    2    0    0 -0.45293277600E+02  0.63399944925E+02  0.20640320536E+03  0.23482021452E+03  0.80419002446E+02 0.  1.
<mgrwt>
<rscale>  0 0.11197433E+03</rscale>
<asrwt>0</asrwt>
<pdfrwt beam="1">  1        2 0.17329363E+00 0.11197433E+03</pdfrwt>
<pdfrwt beam="2">  1       -2 0.27183180E-02 0.11197433E+03</pdfrwt>
<totfact> 0.10343282E+04</totfact>
</mgrwt>
</event>
<event>
 4    1  0.6602701E-002  0.9940408E+02  0.7546771E-02  0.1281554E+00
          1   -1    0    0  501    0  0.00000000000E+00  0.00000000000E+00  0.16114601169E+04  0.16114601169E+04  0.00000000000E+00 0. -1.
         -1   -1    0    0    0  501 -0.00000000000E+00 -0.00000000000E+00 -0.62657189798E+01  0.62657189798E+01  0.00000000000E+00 0.  1.
         24    1    1    2    0    0 -0.21159591692E+02 -0.54463080123E+02  0.68435018517E+03  0.69153188453E+03  0.80419002446E+02 0.  1.
        -24    1    1    2    0    0  0.21159591692E+02  0.54463080123E+02  0.92084421270E+03  0.92619395131E+03  0.80419002446E+02 0. -1.
<mgrwt>
<rscale>  0 0.99404081E+02</rscale>
<asrwt>0</asrwt>
<pdfrwt beam="1">  1        1 0.24791661E+00 0.99404081E+02</pdfrwt>
<pdfrwt beam="2">  1       -1 0.96395805E-03 0.99404081E+02</pdfrwt>
<totfact> 0.11452809E+04</totfact>
</mgrwt>
</event>
<event>
 4    1  0.6602701E-002  0.9408483E+02  0.7546771E-02  0.1293251E+00
         -2   -1    0    0    0  501 -0.00000000000E+00  0.00000000000E+00  0.88521005047E+01  0.88521005047E+01  0.00000000000E+00 0.  1.
          2   -1    0    0  501    0  0.00000000000E+00 -0.00000000000E+00 -0.10032832662E+04  0.10032832662E+04  0.00000000000E+00 0. -1.
         24    1    1    2    0    0 -0.45241273816E+02  0.18383872237E+02 -0.52623776374E+03  0.53458221029E+03  0.80419002446E+02 0.  0.
        -24    1    1    2    0    0  0.45241273816E+02 -0.18383872237E+02 -0.46819340192E+03  0.47755315638E+03  0.80419002446E+02 0. -1.
<mgrwt>
<rscale>  0 0.94084832E+02</rscale>
<asrwt>0</asrwt>
<pdfrwt beam="1">  1        2 0.15435121E+00 0.94084832E+02</pdfrwt>
<pdfrwt beam="2">  1       -2 0.13618622E-02 0.94084832E+02</pdfrwt>
<totfact> 0.32488049E+04</totfact>
</mgrwt>
</event>
<event>
 4    1  0.6602701E-002  0.8230952E+02  0.7546771E-02  0.1322622E+00
          2   -1    0    0  501    0  0.00000000000E+00  0.00000000000E+00  0.37705507458E+03  0.37705507458E+03  0.00000000000E+00 0. -1.
         -2   -1    0    0    0  501 -0.00000000000E+00 -0.00000000000E+00 -0.70563558615E+02  0.70563558615E+02  0.00000000000E+00 0.  1.
         24    1    1    2    0    0 -0.10047990812E+02 -0.14376324116E+02  0.34647071228E+03  0.35611348084E+03  0.80419002446E+02 0. -1.
        -24    1    1    2    0    0  0.10047990812E+02  0.14376324116E+02 -0.39979196316E+02  0.91505152352E+02  0.80419002446E+02 0.  1.
<mgrwt>
<rscale>  0 0.82309518E+02</rscale>
<asrwt>0</asrwt>
<pdfrwt beam="1">  1        2 0.58008472E-01 0.82309518E+02</pdfrwt>
<pdfrwt beam="2">  1       -2 0.10855932E-01 0.82309518E+02</pdfrwt>
<totfact> 0.46248040E+03</totfact>
</mgrwt>
</event>
<event>
 4    1  0.6602701E-002  0.1449195E+03  0.7546771E-02  0.1206859E+00
         -1   -1    0    0    0  501 -0.00000000000E+00  0.00000000000E+00  0.62773233546E+02  0.62773233546E+02  0.00000000000E+00 0.  1.
          1   -1    0    0  501    0  0.00000000000E+00 -0.00000000000E+00 -0.61134795027E+03  0.61134795027E+03  0.00000000000E+00 0. -1.
         24    1    1    2    0    0  0.11718256124E+03 -0.28331853778E+02 -0.47491969694E+02  0.15250294993E+03  0.80419002446E+02 0.  1.
        -24    1    1    2    0    0 -0.11718256124E+03  0.28331853778E+02 -0.50108274703E+03  0.52161823388E+03  0.80419002446E+02 0. -1.
<mgrwt>
<rscale>  0 0.14491950E+03</rscale>
<asrwt>0</asrwt>
<pdfrwt beam="1">  1        1 0.94053532E-01 0.14491950E+03</pdfrwt>
<pdfrwt beam="2">  1       -1 0.96574205E-02 0.14491950E+03</pdfrwt>
<totfact> 0.21708825E+03</totfact>
</mgrwt>
</event>
<event>
 4    1  0.6602701E-002  0.8563286E+02  0.7546771E-02  0.1313786E+00
         -2   -1    0    0    0  501 -0.00000000000E+00  0.00000000000E+00  0.14312382692E+02  0.14312382692E+02  0.00000000000E+00 0.  1.
          2   -1    0    0  501    0  0.00000000000E+00 -0.00000000000E+00 -0.53317706054E+03  0.53317706054E+03  0.00000000000E+00 0. -1.
         24    1    1    2    0    0  0.22760617487E+02  0.18647387562E+02 -0.31353227227E+03  0.32501611111E+03  0.80419002446E+02 0.  1.
        -24    1    1    2    0    0 -0.22760617487E+02 -0.18647387562E+02 -0.20533240558E+03  0.22247333212E+03  0.80419002446E+02 0.  0.
<mgrwt>
<rscale>  0 0.85632860E+02</rscale>
<asrwt>0</asrwt>
<pdfrwt beam="1">  1        2 0.82027258E-01 0.85632860E+02</pdfrwt>
<pdfrwt beam="2">  1       -2 0.22019046E-02 0.85632860E+02</pdfrwt>
<totfact> 0.34431362E+04</totfact>
</mgrwt>
</event>
<event>
 4    1  0.6602701E-002  0.8876684E+02  0.7546771E-02  0.1305866E+00
          2   -1    0    0  501    0  0.00000000000E+00  0.00000000000E+00  0.43543721266E+04  0.43543721266E+04  0.00000000000E+00 0. -1.
         -2   -1    0    0    0  501 -0.00000000000E+00 -0.00000000000E+00 -0.18179865723E+01  0.18179865723E+01  0.00000000000E+00 0.  1.
         24    1    1    2    0    0  0.14896786114E+02  0.34502437138E+02  0.20280912953E+04  0.20300329678E+04  0.80419002446E+02 0.  1.
        -24    1    1    2    0    0 -0.14896786114E+02 -0.34502437138E+02  0.23244628447E+04  0.23261571453E+04  0.80419002446E+02 0. -1.
<mgrwt>
<rscale>  0 0.88766831E+02</rscale>
<asrwt>0</asrwt>
<pdfrwt beam="1">  1        2 0.66989506E+00 0.88766842E+02</pdfrwt>
<pdfrwt beam="2">  1       -2 0.27969373E-03 0.88766842E+02</pdfrwt>
<totfact> 0.32063167E+03</totfact>
</mgrwt>
</event>
<event>
 4    1  0.6602701E-002  0.1244256E+03  0.7546771E-02  0.1235970E+00
         -1   -1    0    0    0  501 -0.00000000000E+00  0.00000000000E+00  0.17799113771E+02  0.17799113771E+02  0.00000000000E+00 0.  1.
          1   -1    0    0  501    0  0.00000000000E+00 -0.00000000000E+00 -0.87341603752E+03  0.87341603752E+03  0.00000000000E+00 0. -1.
         24    1    1    2    0    0  0.88923857809E+02  0.33272685859E+02 -0.39915222988E+03  0.41809597305E+03  0.80419002446E+02 0.  1.
        -24    1    1    2    0    0 -0.88923857809E+02 -0.33272685859E+02 -0.45646469387E+03  0.47311917823E+03  0.80419002446E+02 0. -1.
<mgrwt>
<rscale>  0 0.12442564E+03</rscale>
<asrwt>0</asrwt>
<pdfrwt beam="1">  1        1 0.13437164E+00 0.12442564E+03</pdfrwt>
<pdfrwt beam="2">  1       -1 0.27383263E-02 0.12442564E+03</pdfrwt>
<totfact> 0.83128376E+03</totfact>
</mgrwt>
</event>
<event>
 4    1  0.6602701E-002  0.1137012E+03  0.7546771E-02  0.1253865E+00
         -2   -1    0    0    0  501 -0.00000000000E+00  0.00000000000E+00  0.34689034320E+03  0.34689034320E+03  0.00000000000E+00 0.  1.
          2   -1    0    0  501    0  0.00000000000E+00 -0.00000000000E+00 -0.37273557421E+02  0.37273557421E+02  0.00000000000E+00 0. -1.
         24    1    1    2    0    0  0.25388668191E+02 -0.76263695761E+02  0.15712788409E+03  0.19395134358E+03  0.80419002446E+02 0.  0.
        -24    1    1    2    0    0 -0.25388668191E+02  0.76263695761E+02  0.15248890169E+03  0.19021255704E+03  0.80419002446E+02 0.  1.
<mgrwt>
<rscale>  0 0.11370117E+03</rscale>
<asrwt>0</asrwt>
<pdfrwt beam="1">  1        2 0.57343937E-02 0.11370118E+03</pdfrwt>
<pdfrwt beam="2">  1       -2 0.53367743E-01 0.11370118E+03</pdfrwt>
<totfact> 0.41439345E+03</totfact>
</mgrwt>
</event>
<event>
 4    1  0.6602701E-002  0.1060393E+03  0.7546771E-02  0.1268085E+00
          1   -1    0    0  501    0  0.00000000000E+00  0.00000000000E+00  0.38341223927E+03  0.38341223927E+03  0.00000000000E+00 0. -1.
         -1   -1    0    0    0  501 -0.00000000000E+00 -0.00000000000E+00 -0.44787144286E+02  0.44787144286E+02  0.00000000000E+00 0.  1.
         24    1    1    2    0    0  0.31674249267E+02 -0.61431694187E+02  0.43522505546E+02  0.11462345118E+03  0.80419002446E+02 0.  1.
        -24    1    1    2    0    0 -0.31674249267E+02  0.61431694187E+02  0.29510258944E+03  0.31357593238E+03  0.80419002446E+02 0. -1.
<mgrwt>
<rscale>  0 0.10603927E+03</rscale>
<asrwt>0</asrwt>
<pdfrwt beam="1">  1        1 0.58986496E-01 0.10603927E+03</pdfrwt>
<pdfrwt beam="2">  1       -1 0.68903301E-02 0.10603927E+03</pdfrwt>
<totfact> 0.65161261E+03</totfact>
</mgrwt>
</event>
<event>
 4    1  0.6602701E-002  0.8593681E+02  0.7546771E-02  0.1313001E+00
          2   -1    0    0  501    0  0.00000000000E+00  0.00000000000E+00  0.88043353775E+02  0.88043353775E+02  0.00000000000E+00 0. -1.
         -2   -1    0    0    0  501 -0.00000000000E+00 -0.00000000000E+00 -0.88941020708E+02  0.88941020708E+02  0.00000000000E+00 0.  1.
         24    1    1    2    0    0  0.12358887520E+02  0.27661762115E+02 -0.21556795820E+02  0.88599247087E+02  0.80419002446E+02 0.  0.
        -24    1    1    2    0    0 -0.12358887520E+02 -0.27661762115E+02  0.20659128888E+02  0.88385127396E+02  0.80419002446E+02 0.  0.
<mgrwt>
<rscale>  0 0.85936796E+02</rscale>
<asrwt>0</asrwt>
<pdfrwt beam="1">  1        2 0.13545131E-01 0.85936807E+02</pdfrwt>
<pdfrwt beam="2">  1       -2 0.13683234E-01 0.85936807E+02</pdfrwt>
<totfact> 0.15596371E+04</totfact>
</mgrwt>
</event>
<event>
 4    1  0.6602701E-002  0.1786316E+03  0.7546771E-02  0.1169134E+00
         -2   -1    0    0    0  501 -0.00000000000E+00  0.00000000000E+00  0.49879702489E+02  0.49879702489E+02  0.00000000000E+00 0.  1.
          2   -1    0    0  501    0  0.00000000000E+00 -0.00000000000E+00 -0.84964439523E+03  0.84964439523E+03  0.00000000000E+00 0. -1.
         24    1    1    2    0    0  0.12346070454E+03 -0.10099249313E+03 -0.17632369743E+03  0.25099659652E+03  0.80419002446E+02 0.  1.
        -24    1    1    2    0    0 -0.12346070454E+03  0.10099249313E+03 -0.62344099531E+03  0.64852750121E+03  0.80419002446E+02 0. -1.
<mgrwt>
<rscale>  0 0.17863161E+03</rscale>
<asrwt>0</asrwt>
<pdfrwt beam="1">  1        2 0.13071453E+00 0.17863164E+03</pdfrwt>
<pdfrwt beam="2">  1       -2 0.76738002E-02 0.17863164E+03</pdfrwt>
<totfact> 0.32719368E+03</totfact>
</mgrwt>
</event>
<event>
 4    1  0.6602701E-002  0.1009698E+03  0.7546771E-02  0.1278270E+00
         -2   -1    0    0    0  501 -0.00000000000E+00  0.00000000000E+00  0.19253292468E+02  0.19253292468E+02  0.00000000000E+00 0.  1.
          2   -1    0    0  501    0  0.00000000000E+00 -0.00000000000E+00 -0.66914807592E+03  0.66914807592E+03  0.00000000000E+00 0. -1.
         24    1    1    2    0    0  0.54411594865E+02  0.27696034117E+02 -0.48218075495E+03  0.49263900410E+03  0.80419002446E+02 0. -1.
        -24    1    1    2    0    0 -0.54411594865E+02 -0.27696034117E+02 -0.16771402851E+03  0.19576236429E+03  0.80419002446E+02 0.  1.
<mgrwt>
<rscale>  0 0.10096984E+03</rscale>
<asrwt>0</asrwt>
<pdfrwt beam="1">  1        2 0.10294586E+00 0.10096984E+03</pdfrwt>
<pdfrwt beam="2">  1       -2 0.29620449E-02 0.10096984E+03</pdfrwt>
<totfact> 0.17672527E+04</totfact>
</mgrwt>
</event>
<event>
 4    1  0.6602701E-002  0.8456637E+02  0.7546771E-02  0.1316570E+00
         -1   -1    0    0    0  501 -0.00000000000E+00  0.00000000000E+00  0.13768779964E+02  0.13768779964E+02  0.00000000000E+00 0.  1.
          1   -1    0    0  501    0  0.00000000000E+00 -0.00000000000E+00 -0.57686764762E+03  0.57686764762E+03  0.00000000000E+00 0. -1.
         24    1    1    2    0    0 -0.13932778618E+02 -0.22138948203E+02 -0.18833720116E+03  0.20645186519E+03  0.80419002446E+02 0.  1.
        -24    1    1    2    0    0  0.13932778618E+02  0.22138948203E+02 -0.37476166650E+03  0.38418456240E+03  0.80419002446E+02 0. -1.
<mgrwt>
<rscale>  0 0.84566372E+02</rscale>
<asrwt>0</asrwt>
<pdfrwt beam="1">  1        1 0.88748870E-01 0.84566372E+02</pdfrwt>
<pdfrwt beam="2">  1       -1 0.21182738E-02 0.84566372E+02</pdfrwt>
<totfact> 0.21075921E+04</totfact>
</mgrwt>
</event>
<event>
 4    1  0.6602701E-002  0.8930587E+02  0.7546771E-02  0.1304541E+00
          2   -1    0    0  501    0  0.00000000000E+00  0.00000000000E+00  0.27374223037E+02  0.27374223037E+02  0.00000000000E+00 0. -1.
         -2   -1    0    0    0  501 -0.00000000000E+00 -0.00000000000E+00 -0.41815232173E+03  0.41815232173E+03  0.00000000000E+00 0.  1.
         24    1    1    2    0    0 -0.16683581595E+02 -0.35071080637E+02 -0.72719642427E+02  0.11516807258E+03  0.80419002446E+02 0. -1.
        -24    1    1    2    0    0  0.16683581595E+02  0.35071080637E+02 -0.31805845627E+03  0.33035847219E+03  0.80419002446E+02 0.  1.
<mgrwt>
<rscale>  0 0.89305871E+02</rscale>
<asrwt>0</asrwt>
<pdfrwt beam="1">  1        2 0.42114195E-02 0.89305871E+02</pdfrwt>
<pdfrwt beam="2">  1       -2 0.64331118E-01 0.89305871E+02</pdfrwt>
<totfact> 0.41430131E+03</totfact>
</mgrwt>
</event>
<event>
 4    1  0.6602701E-002  0.1409523E+03  0.7546771E-02  0.1212053E+00
          3   -1    0    0  501    0  0.00000000000E+00  0.00000000000E+00  0.61913474496E+02  0.61913474496E+02  0.00000000000E+00 0. -1.
         -3   -1    0    0    0  501 -0.00000000000E+00 -0.00000000000E+00 -0.15514444463E+04  0.15514444463E+04  0.00000000000E+00 0.  1.
         24    1    1    2    0    0  0.11575725852E+03  0.77765117894E+00 -0.14631924242E+04  0.14699658615E+04  0.80419002446E+02 0.  1.
        -24    1    1    2    0    0 -0.11575725852E+03 -0.77765117894E+00 -0.26338547619E+02  0.14339205936E+03  0.80419002446E+02 0. -1.
<mgrwt>
<rscale>  0 0.14095235E+03</rscale>
<asrwt>0</asrwt>
<pdfrwt beam="1">  1        3 0.95251503E-02 0.14095235E+03</pdfrwt>
<pdfrwt beam="2">  1       -3 0.23868375E+00 0.14095235E+03</pdfrwt>
<totfact> 0.18369888E+01</totfact>
</mgrwt>
</event>
<event>
 4    1  0.6602701E-002  0.9332832E+02  0.7546771E-02  0.1294986E+00
         -2   -1    0    0    0  501 -0.00000000000E+00  0.00000000000E+00  0.70500790201E+01  0.70500790201E+01  0.00000000000E+00 0.  1.
          2   -1    0    0  501    0  0.00000000000E+00 -0.00000000000E+00 -0.12987613186E+04  0.12987613186E+04  0.00000000000E+00 0. -1.
         24    1    1    2    0    0  0.39429101344E+02  0.26235478691E+02 -0.50172595378E+03  0.51033234566E+03  0.80419002446E+02 0.  0.
        -24    1    1    2    0    0 -0.39429101344E+02 -0.26235478691E+02 -0.78998528584E+03  0.79547905200E+03  0.80419002446E+02 0.  0.
<mgrwt>
<rscale>  0 0.93328305E+02</rscale>
<asrwt>0</asrwt>
<pdfrwt beam="1">  1        2 0.19980949E+00 0.93328317E+02</pdfrwt>
<pdfrwt beam="2">  1       -2 0.10846272E-02 0.93328317E+02</pdfrwt>
<totfact> 0.30773659E+04</totfact>
</mgrwt>
</event>
<event>
 4    1  0.6602701E-002  0.8340620E+02  0.7546771E-02  0.1319654E+00
          1   -1    0    0  501    0  0.00000000000E+00  0.00000000000E+00  0.56571811175E+03  0.56571811175E+03  0.00000000000E+00 0. -1.
         -1   -1    0    0    0  501 -0.00000000000E+00 -0.00000000000E+00 -0.19448798831E+02  0.19448798831E+02  0.00000000000E+00 0.  1.
         24    1    1    2    0    0  0.18175263373E+02  0.12611020126E+02  0.95710294519E+02  0.12695296160E+03  0.80419002446E+02 0.  1.
        -24    1    1    2    0    0 -0.18175263373E+02 -0.12611020126E+02  0.45055901840E+03  0.45821394899E+03  0.80419002446E+02 0.  0.
<mgrwt>
<rscale>  0 0.83406199E+02</rscale>
<asrwt>0</asrwt>
<pdfrwt beam="1">  1        1 0.87033543E-01 0.83406199E+02</pdfrwt>
<pdfrwt beam="2">  1       -1 0.29921233E-02 0.83406199E+02</pdfrwt>
<totfact> 0.13175012E+04</totfact>
</mgrwt>
</event>
<event>
 4    1  0.6602701E-002  0.8299966E+02  0.7546771E-02  0.1320748E+00
         -1   -1    0    0    0  501 -0.00000000000E+00  0.00000000000E+00  0.31019215479E+02  0.31019215479E+02  0.00000000000E+00 0.  1.
          1   -1    0    0  501    0  0.00000000000E+00 -0.00000000000E+00 -0.23896418454E+03  0.23896418454E+03  0.00000000000E+00 0. -1.
         24    1    1    2    0    0 -0.20357969856E+02  0.26974885733E+01 -0.13984824369E+03  0.16262370860E+03  0.80419002446E+02 0. -1.
        -24    1    1    2    0    0  0.20357969856E+02 -0.26974885733E+01 -0.68096725374E+02  0.10735969142E+03  0.80419002446E+02 0.  0.
<mgrwt>
<rscale>  0 0.82999645E+02</rscale>
<asrwt>0</asrwt>
<pdfrwt beam="1">  1        1 0.36763720E-01 0.82999655E+02</pdfrwt>
<pdfrwt beam="2">  1       -1 0.47721870E-02 0.82999655E+02</pdfrwt>
<totfact> 0.19542925E+04</totfact>
</mgrwt>
</event>
<event>
 4    1  0.6602701E-002  0.1732106E+03  0.7546771E-02  0.1174541E+00
          2   -1    0    0  501    0  0.00000000000E+00  0.00000000000E+00  0.66379107748E+03  0.66379107748E+03  0.00000000000E+00 0. -1.
         -2   -1    0    0    0  501 -0.00000000000E+00 -0.00000000000E+00 -0.55590060573E+02  0.55590060573E+02  0.00000000000E+00 0.  1.
         24    1    1    2    0    0  0.78911372502E+02 -0.13155860400E+03  0.14858067329E+03  0.22820627385E+03  0.80419002446E+02 0. -1.
        -24    1    1    2    0    0 -0.78911372502E+02  0.13155860400E+03  0.45962034362E+03  0.49117486420E+03  0.80419002446E+02 0.  1.
<mgrwt>
<rscale>  0 0.17321055E+03</rscale>
<asrwt>0</asrwt>
<pdfrwt beam="1">  1        2 0.10212170E+00 0.17321057E+03</pdfrwt>
<pdfrwt beam="2">  1       -2 0.85523175E-02 0.17321057E+03</pdfrwt>
<totfact> 0.37417239E+03</totfact>
</mgrwt>
</event>
<event>
 4    1  0.6602701E-002  0.9680001E+02  0.7546771E-02  0.1287173E+00
          2   -1    0    0  501    0  0.00000000000E+00  0.00000000000E+00  0.90133905124E+02  0.90133905124E+02  0.00000000000E+00 0. -1.
         -2   -1    0    0    0  501 -0.00000000000E+00 -0.00000000000E+00 -0.19512094754E+03  0.19512094754E+03  0.00000000000E+00 0.  1.
         24    1    1    2    0    0 -0.52900451331E+02  0.10225844178E+02  0.44995925436E+02  0.10674677934E+03  0.80419002446E+02 0. -1.
        -24    1    1    2    0    0  0.52900451331E+02 -0.10225844178E+02 -0.14998296785E+03  0.17850807332E+03  0.80419002446E+02 0.  1.
<mgrwt>
<rscale>  0 0.96800008E+02</rscale>
<asrwt>0</asrwt>
<pdfrwt beam="1">  1        2 0.13866755E-01 0.96800008E+02</pdfrwt>
<pdfrwt beam="2">  1       -2 0.30018607E-01 0.96800008E+02</pdfrwt>
<totfact> 0.40870425E+03</totfact>
</mgrwt>
</event>
<event>
 4    1  0.6602701E-002  0.9932137E+02  0.7546771E-02  0.1281730E+00
          2   -1    0    0  501    0  0.00000000000E+00  0.00000000000E+00  0.10504563105E+04  0.10504563105E+04  0.00000000000E+00 0. -1.
         -2   -1    0    0    0  501 -0.00000000000E+00 -0.00000000000E+00 -0.94348941489E+01  0.94348941489E+01  0.00000000000E+00 0.  1.
         24    1    1    2    0    0  0.15109534850E+02  0.56295831699E+02  0.55669658504E+03  0.56548724341E+03  0.80419002446E+02 0. -1.
        -24    1    1    2    0    0 -0.15109534850E+02 -0.56295831699E+02  0.48432483132E+03  0.49440396125E+03  0.80419002446E+02 0.  1.
<mgrwt>
<rscale>  0 0.99321371E+02</rscale>
<asrwt>0</asrwt>
<pdfrwt beam="1">  1        2 0.16160857E+00 0.99321371E+02</pdfrwt>
<pdfrwt beam="2">  1       -2 0.14515230E-02 0.99321371E+02</pdfrwt>
<totfact> 0.27990202E+04</totfact>
</mgrwt>
</event>
<event>
 4    1  0.6602701E-002  0.8895708E+02  0.7546771E-02  0.1305397E+00
          2   -1    0    0  501    0  0.00000000000E+00  0.00000000000E+00  0.78792108305E+02  0.78792108305E+02  0.00000000000E+00 0. -1.
         -2   -1    0    0    0  501 -0.00000000000E+00 -0.00000000000E+00 -0.18055102443E+03  0.18055102443E+03  0.00000000000E+00 0.  1.
         24    1    1    2    0    0 -0.33509490601E+02  0.17979438977E+02  0.35499649661E+02  0.95778845612E+02  0.80419002446E+02 0. -1.
        -24    1    1    2    0    0  0.33509490601E+02 -0.17979438977E+02 -0.13725856579E+03  0.16356428713E+03  0.80419002446E+02 0.  1.
<mgrwt>
<rscale>  0 0.88957080E+02</rscale>
<asrwt>0</asrwt>
<pdfrwt beam="1">  1        2 0.12121863E-01 0.88957080E+02</pdfrwt>
<pdfrwt beam="2">  1       -2 0.27777081E-01 0.88957080E+02</pdfrwt>
<totfact> 0.54587509E+03</totfact>
</mgrwt>
</event>
<event>
 4    1  0.6602701E-002  0.1614554E+03  0.7546771E-02  0.1187063E+00
          1   -1    0    0  501    0  0.00000000000E+00  0.00000000000E+00  0.15199462256E+03  0.15199462256E+03  0.00000000000E+00 0. -1.
         -1   -1    0    0    0  501 -0.00000000000E+00 -0.00000000000E+00 -0.19948902968E+03  0.19948902968E+03  0.00000000000E+00 0.  1.
         24    1    1    2    0    0  0.11707849650E+03 -0.76767531610E+02  0.42074697618E+02  0.16684760827E+03  0.80419002446E+02 0. -1.
        -24    1    1    2    0    0 -0.11707849650E+03  0.76767531610E+02 -0.89569104738E+02  0.18463604396E+03  0.80419002446E+02 0.  1.
<mgrwt>
<rscale>  0 0.16145541E+03</rscale>
<asrwt>0</asrwt>
<pdfrwt beam="1">  1        1 0.23383788E-01 0.16145543E+03</pdfrwt>
<pdfrwt beam="2">  1       -1 0.30690620E-01 0.16145543E+03</pdfrwt>
<totfact> 0.20104659E+03</totfact>
</mgrwt>
</event>
<event>
 4    1  0.6602701E-002  0.9169732E+02  0.7546771E-02  0.1298793E+00
         -1   -1    0    0    0  501 -0.00000000000E+00  0.00000000000E+00  0.54817846502E+01  0.54817846502E+01  0.00000000000E+00 0.  1.
          1   -1    0    0  501    0  0.00000000000E+00 -0.00000000000E+00 -0.15483513627E+04  0.15483513627E+04  0.00000000000E+00 0. -1.
         24    1    1    2    0    0  0.41729591197E+02 -0.14135923568E+02 -0.69632501716E+03  0.70233676295E+03  0.80419002446E+02 0. -1.
        -24    1    1    2    0    0 -0.41729591197E+02  0.14135923568E+02 -0.84654456085E+03  0.85149638436E+03  0.80419002446E+02 0.  1.
<mgrwt>
<rscale>  0 0.91697323E+02</rscale>
<asrwt>0</asrwt>
<pdfrwt beam="1">  1        1 0.23820789E+00 0.91697323E+02</pdfrwt>
<pdfrwt beam="2">  1       -1 0.84335152E-03 0.91697323E+02</pdfrwt>
<totfact> 0.15087642E+04</totfact>
</mgrwt>
</event>
<event>
 4    1  0.6602701E-002  0.8766951E+02  0.7546771E-02  0.1308595E+00
          1   -1    0    0  501    0  0.00000000000E+00  0.00000000000E+00  0.86263326607E+02  0.86263326607E+02  0.00000000000E+00 0. -1.
         -1   -1    0    0    0  501 -0.00000000000E+00 -0.00000000000E+00 -0.54352958313E+03  0.54352958313E+03  0.00000000000E+00 0.  1.
         24    1    1    2    0    0 -0.25971093627E+01  0.34813540493E+02 -0.51656526119E+03  0.52395191822E+03  0.80419002446E+02 0.  1.
        -24    1    1    2    0    0  0.25971093627E+01 -0.34813540493E+02  0.59299004664E+02  0.10584099153E+03  0.80419002446E+02 0. -1.
<mgrwt>
<rscale>  0 0.87669513E+02</rscale>
<asrwt>0</asrwt>
<pdfrwt beam="1">  1        1 0.13271281E-01 0.87669513E+02</pdfrwt>
<pdfrwt beam="2">  1       -1 0.83619936E-01 0.87669513E+02</pdfrwt>
<totfact> 0.64382222E+02</totfact>
</mgrwt>
</event>
<event>
 4    1  0.6602701E-002  0.8130281E+02  0.7546771E-02  0.1325394E+00
          2   -1    0    0  501    0  0.00000000000E+00  0.00000000000E+00  0.22587783482E+03  0.22587783482E+03  0.00000000000E+00 0. -1.
         -2   -1    0    0    0  501 -0.00000000000E+00 -0.00000000000E+00 -0.33106747885E+02  0.33106747885E+02  0.00000000000E+00 0.  1.
         24    1    1    2    0    0  0.10877108797E+02  0.49618402751E+01  0.14050112442E+03  0.16232902782E+03  0.80419002446E+02 0.  0.
        -24    1    1    2    0    0 -0.10877108797E+02 -0.49618402751E+01  0.52269962514E+02  0.96655554886E+02  0.80419002446E+02 0.  0.
<mgrwt>
<rscale>  0 0.81302812E+02</rscale>
<asrwt>0</asrwt>
<pdfrwt beam="1">  1        2 0.34750435E-01 0.81302812E+02</pdfrwt>
<pdfrwt beam="2">  1       -2 0.50933460E-02 0.81302812E+02</pdfrwt>
<totfact> 0.24884690E+04</totfact>
</mgrwt>
</event>
<event>
 4    1  0.6602701E-002  0.9836593E+02  0.7546771E-02  0.1283770E+00
          3   -1    0    0  501    0  0.00000000000E+00  0.00000000000E+00  0.23139121481E+03  0.23139121481E+03  0.00000000000E+00 0. -1.
         -3   -1    0    0    0  501 -0.00000000000E+00 -0.00000000000E+00 -0.56071401256E+02  0.56071401256E+02  0.00000000000E+00 0.  1.
         24    1    1    2    0    0 -0.27668283917E+02  0.49427785252E+02  0.15187890662E+02  0.99531542070E+02  0.80419002446E+02 0.  0.
        -24    1    1    2    0    0  0.27668283917E+02 -0.49427785252E+02  0.16013192290E+03  0.18793107400E+03  0.80419002446E+02 0.  1.
<mgrwt>
<rscale>  0 0.98365928E+02</rscale>
<asrwt>0</asrwt>
<pdfrwt beam="1">  1        3 0.35598648E-01 0.98365928E+02</pdfrwt>
<pdfrwt beam="2">  1       -3 0.86263696E-02 0.98365928E+02</pdfrwt>
<totfact> 0.15877686E+03</totfact>
</mgrwt>
</event>
<event>
 4    1  0.6602701E-002  0.9122020E+02  0.7546771E-02  0.1299923E+00
         -4   -1    0    0    0  501 -0.00000000000E+00  0.00000000000E+00  0.26921462141E+03  0.26921462141E+03  0.00000000000E+00 0.  1.
          4   -1    0    0  501    0  0.00000000000E+00 -0.00000000000E+00 -0.34416133727E+02  0.34416133727E+02  0.00000000000E+00 0. -1.
         24    1    1    2    0    0 -0.31615730348E+02 -0.29229347783E+02  0.68935418091E+02  0.11433816948E+03  0.80419002446E+02 0. -1.
        -24    1    1    2    0    0  0.31615730348E+02  0.29229347783E+02  0.16586306960E+03  0.18929258566E+03  0.80419002446E+02 0.  1.
<mgrwt>
<rscale>  0 0.91220201E+02</rscale>
<asrwt>0</asrwt>
<pdfrwt beam="1">  1        4 0.52947900E-02 0.91220201E+02</pdfrwt>
<pdfrwt beam="2">  1       -4 0.41417633E-01 0.91220201E+02</pdfrwt>
<totfact> 0.18454431E+03</totfact>
</mgrwt>
</event>
<event>
 4    1  0.6602701E-002  0.8710511E+02  0.7546771E-02  0.1310017E+00
         -2   -1    0    0    0  501 -0.00000000000E+00  0.00000000000E+00  0.64461937279E+02  0.64461937279E+02  0.00000000000E+00 0.  1.
          2   -1    0    0  501    0  0.00000000000E+00 -0.00000000000E+00 -0.27304999055E+03  0.27304999055E+03  0.00000000000E+00 0. -1.
         24    1    1    2    0    0  0.27926502798E+02 -0.18444361972E+02 -0.23158301766E+03  0.24742270322E+03  0.80419002446E+02 0. -1.
        -24    1    1    2    0    0 -0.27926502798E+02  0.18444361972E+02  0.22994964396E+02  0.90089224600E+02  0.80419002446E+02 0.  1.
<mgrwt>
<rscale>  0 0.87105109E+02</rscale>
<asrwt>0</asrwt>
<pdfrwt beam="1">  1        2 0.42007691E-01 0.87105109E+02</pdfrwt>
<pdfrwt beam="2">  1       -2 0.99172210E-02 0.87105109E+02</pdfrwt>
<totfact> 0.74867872E+03</totfact>
</mgrwt>
</event>
<event>
 4    1  0.6602701E-002  0.8188392E+02  0.7546771E-02  0.1323789E+00
          2   -1    0    0  501    0  0.00000000000E+00  0.00000000000E+00  0.24929874526E+04  0.24929874526E+04  0.00000000000E+00 0. -1.
         -2   -1    0    0    0  501 -0.00000000000E+00 -0.00000000000E+00 -0.86596074958E+01  0.86596074958E+01  0.00000000000E+00 0.  1.
         24    1    1    2    0    0 -0.84015049920E+01 -0.12929639473E+02  0.22807362431E+04  0.22822056847E+04  0.80419002446E+02 0. -1.
        -24    1    1    2    0    0  0.84015049920E+01  0.12929639473E+02  0.20359160204E+03  0.21944137540E+03  0.80419002446E+02 0.  1.
<mgrwt>
<rscale>  0 0.81883923E+02</rscale>
<asrwt>0</asrwt>
<pdfrwt beam="1">  1        2 0.38353596E+00 0.81883923E+02</pdfrwt>
<pdfrwt beam="2">  1       -2 0.13322493E-02 0.81883923E+02</pdfrwt>
<totfact> 0.56393357E+03</totfact>
</mgrwt>
</event>
<event>
 4    1  0.6602701E-002  0.8932109E+02  0.7546771E-02  0.1304504E+00
          2   -1    0    0  501    0  0.00000000000E+00  0.00000000000E+00  0.12389149661E+04  0.12389149661E+04  0.00000000000E+00 0. -1.
         -2   -1    0    0    0  501 -0.00000000000E+00 -0.00000000000E+00 -0.10087905332E+02  0.10087905332E+02  0.00000000000E+00 0.  1.
         24    1    1    2    0    0 -0.50383268718E+01 -0.38544222823E+02  0.98996698174E+03  0.99398837153E+03  0.80419002446E+02 0. -1.
        -24    1    1    2    0    0  0.50383268718E+01  0.38544222823E+02  0.23886007900E+03  0.25501449987E+03  0.80419002446E+02 0.  1.
<mgrwt>
<rscale>  0 0.89321094E+02</rscale>
<asrwt>0</asrwt>
<pdfrwt beam="1">  1        2 0.19060218E+00 0.89321094E+02</pdfrwt>
<pdfrwt beam="2">  1       -2 0.15519864E-02 0.89321094E+02</pdfrwt>
<totfact> 0.19821698E+04</totfact>
</mgrwt>
</event>
<event>
 4    1  0.6602701E-002  0.9982887E+02  0.7546771E-02  0.1280656E+00
          1   -1    0    0  501    0  0.00000000000E+00  0.00000000000E+00  0.15226944432E+04  0.15226944432E+04  0.00000000000E+00 0. -1.
         -1   -1    0    0    0  501 -0.00000000000E+00 -0.00000000000E+00 -0.11334818692E+02  0.11334818692E+02  0.00000000000E+00 0.  1.
         24    1    1    2    0    0  0.57797340038E+02  0.12571970516E+02  0.25706771581E+03  0.27577094376E+03  0.80419002446E+02 0.  1.
        -24    1    1    2    0    0 -0.57797340038E+02 -0.12571970516E+02  0.12542919087E+04  0.12582583182E+04  0.80419002446E+02 0. -1.
<mgrwt>
<rscale>  0 0.99828868E+02</rscale>
<asrwt>0</asrwt>
<pdfrwt beam="1">  1        1 0.23426052E+00 0.99828868E+02</pdfrwt>
<pdfrwt beam="2">  1       -1 0.17438195E-02 0.99828868E+02</pdfrwt>
<totfact> 0.56234877E+03</totfact>
</mgrwt>
</event>
<event>
 4    1  0.6602701E-002  0.9155239E+02  0.7546771E-02  0.1299135E+00
          3   -1    0    0  501    0  0.00000000000E+00  0.00000000000E+00  0.12155142517E+02  0.12155142517E+02  0.00000000000E+00 0. -1.
         -3   -1    0    0    0  501 -0.00000000000E+00 -0.00000000000E+00 -0.12945234683E+04  0.12945234683E+04  0.00000000000E+00 0.  1.
         24    1    1    2    0    0 -0.27256129588E+02  0.34230497441E+02 -0.10878104490E+04  0.10916562703E+04  0.80419002446E+02 0.  1.
        -24    1    1    2    0    0  0.27256129588E+02 -0.34230497441E+02 -0.19455787684E+03  0.21502234058E+03  0.80419002446E+02 0. -1.
<mgrwt>
<rscale>  0 0.91552387E+02</rscale>
<asrwt>0</asrwt>
<pdfrwt beam="1">  1        3 0.18700211E-02 0.91552387E+02</pdfrwt>
<pdfrwt beam="2">  1       -3 0.19915754E+00 0.91552387E+02</pdfrwt>
<totfact> 0.37879599E+02</totfact>
</mgrwt>
</event>
<event>
 4    1  0.6602701E-002  0.8245417E+02  0.7546771E-02  0.1322228E+00
         -2   -1    0    0    0  501 -0.00000000000E+00  0.00000000000E+00  0.14937023611E+02  0.14937023611E+02  0.00000000000E+00 0.  1.
          2   -1    0    0  501    0  0.00000000000E+00 -0.00000000000E+00 -0.51993231509E+03  0.51993231509E+03  0.00000000000E+00 0. -1.
         24    1    1    2    0    0  0.16379555070E+02 -0.79488708313E+01 -0.34689268853E+03  0.35655746757E+03  0.80419002446E+02 0. -1.
        -24    1    1    2    0    0 -0.16379555070E+02  0.79488708313E+01 -0.15810260295E+03  0.17831187113E+03  0.80419002446E+02 0.  1.
<mgrwt>
<rscale>  0 0.82454171E+02</rscale>
<asrwt>0</asrwt>
<pdfrwt beam="1">  1        2 0.79989582E-01 0.82454171E+02</pdfrwt>
<pdfrwt beam="2">  1       -2 0.22980038E-02 0.82454171E+02</pdfrwt>
<totfact> 0.33131277E+04</totfact>
</mgrwt>
</event>
<event>
 4    1  0.6602701E-002  0.9749553E+02  0.7546771E-02  0.1285652E+00
         -2   -1    0    0    0  501 -0.00000000000E+00  0.00000000000E+00  0.43112452640E+03  0.43112452640E+03  0.00000000000E+00 0.  1.
          2   -1    0    0  501    0  0.00000000000E+00 -0.00000000000E+00 -0.44783321066E+02  0.44783321066E+02  0.00000000000E+00 0. -1.
         24    1    1    2    0    0 -0.54253976773E+02 -0.97297817731E+01  0.23625017641E+02  0.10031709756E+03  0.80419002446E+02 0. -1.
        -24    1    1    2    0    0  0.54253976773E+02  0.97297817731E+01  0.36271618769E+03  0.37559074991E+03  0.80419002446E+02 0.  1.
<mgrwt>
<rscale>  0 0.97495531E+02</rscale>
<asrwt>0</asrwt>
<pdfrwt beam="1">  1        2 0.68897420E-02 0.97495531E+02</pdfrwt>
<pdfrwt beam="2">  1       -2 0.66326847E-01 0.97495531E+02</pdfrwt>
<totfact> 0.20817652E+03</totfact>
</mgrwt>
</event>
<event>
 4    1  0.6602701E-002  0.8297352E+02  0.7546771E-02  0.1320819E+00
         -2   -1    0    0    0  501 -0.00000000000E+00  0.00000000000E+00  0.31611325101E+02  0.31611325101E+02  0.00000000000E+00 0.  1.
          2   -1    0    0  501    0  0.00000000000E+00 -0.00000000000E+00 -0.31031543280E+03  0.31031543280E+03  0.00000000000E+00 0. -1.
         24    1    1    2    0    0  0.10348116683E+02  0.17615493724E+02 -0.23270625218E+03  0.24705627880E+03  0.80419002446E+02 0. -1.
        -24    1    1    2    0    0 -0.10348116683E+02 -0.17615493724E+02 -0.45997855523E+02  0.94870479102E+02  0.80419002446E+02 0.  1.
<mgrwt>
<rscale>  0 0.82973520E+02</rscale>
<asrwt>0</asrwt>
<pdfrwt beam="1">  1        2 0.47740837E-01 0.82973520E+02</pdfrwt>
<pdfrwt beam="2">  1       -2 0.48632806E-02 0.82973520E+02</pdfrwt>
<totfact> 0.19164089E+04</totfact>
</mgrwt>
</event>
<event>
 4    1  0.6602701E-002  0.1390573E+03  0.7546771E-02  0.1214603E+00
         -2   -1    0    0    0  501 -0.00000000000E+00  0.00000000000E+00  0.10225804920E+02  0.10225804920E+02  0.00000000000E+00 0.  1.
          2   -1    0    0  501    0  0.00000000000E+00 -0.00000000000E+00 -0.19160255098E+04  0.19160255098E+04  0.00000000000E+00 0. -1.
         24    1    1    2    0    0  0.52621171049E+02  0.10050229074E+03 -0.84281077146E+03  0.85420542642E+03  0.80419002446E+02 0.  1.
        -24    1    1    2    0    0 -0.52621171049E+02 -0.10050229074E+03 -0.10629889334E+04  0.10720458883E+04  0.80419002446E+02 0. -1.
<mgrwt>
<rscale>  0 0.13905725E+03</rscale>
<asrwt>0</asrwt>
<pdfrwt beam="1">  1        2 0.29477298E+00 0.13905727E+03</pdfrwt>
<pdfrwt beam="2">  1       -2 0.15732017E-02 0.13905727E+03</pdfrwt>
<totfact> 0.89053100E+03</totfact>
</mgrwt>
</event>
<event>
 4    1  0.6602701E-002  0.9113979E+02  0.7546771E-02  0.1300115E+00
          2   -1    0    0  501    0  0.00000000000E+00  0.00000000000E+00  0.13224136261E+03  0.13224136261E+03  0.00000000000E+00 0. -1.
         -2   -1    0    0    0  501 -0.00000000000E+00 -0.00000000000E+00 -0.98228471974E+02  0.98228471974E+02  0.00000000000E+00 0.  1.
         24    1    1    2    0    0  0.10311112388E+02 -0.41628442226E+02  0.86199513747E+02  0.12544647610E+03  0.80419002446E+02 0. -1.
        -24    1    1    2    0    0 -0.10311112388E+02  0.41628442226E+02 -0.52186623113E+02  0.10502335848E+03  0.80419002446E+02 0.  1.
<mgrwt>
<rscale>  0 0.91139795E+02</rscale>
<asrwt>0</asrwt>
<pdfrwt beam="1">  1        2 0.20344825E-01 0.91139795E+02</pdfrwt>
<pdfrwt beam="2">  1       -2 0.15112073E-01 0.91139795E+02</pdfrwt>
<totfact> 0.84043103E+03</totfact>
</mgrwt>
</event>
<event>
 4    1  0.6602701E-002  0.1040983E+03  0.7546771E-02  0.1271906E+00
         -1   -1    0    0    0  501 -0.00000000000E+00  0.00000000000E+00  0.43587075238E+02  0.43587075238E+02  0.00000000000E+00 0.  1.
          1   -1    0    0  501    0  0.00000000000E+00 -0.00000000000E+00 -0.25752578446E+03  0.25752578446E+03  0.00000000000E+00 0. -1.
         24    1    1    2    0    0 -0.54738165897E+02 -0.37053699582E+02 -0.13497296944E+03  0.17045281427E+03  0.80419002446E+02 0.  1.
        -24    1    1    2    0    0  0.54738165897E+02  0.37053699582E+02 -0.78965739788E+02  0.13066004543E+03  0.80419002446E+02 0.  0.
<mgrwt>
<rscale>  0 0.10409833E+03</rscale>
<asrwt>0</asrwt>
<pdfrwt beam="1">  1        1 0.39619352E-01 0.10409834E+03</pdfrwt>
<pdfrwt beam="2">  1       -1 0.67057038E-02 0.10409834E+03</pdfrwt>
<totfact> 0.11058650E+04</totfact>
</mgrwt>
</event>
<event>
 4    1  0.6602701E-002  0.8238117E+02  0.7546771E-02  0.1322427E+00
         -2   -1    0    0    0  501 -0.00000000000E+00  0.00000000000E+00  0.78150471986E+02  0.78150471986E+02  0.00000000000E+00 0.  1.
          2   -1    0    0  501    0  0.00000000000E+00 -0.00000000000E+00 -0.10063492974E+03  0.10063492974E+03  0.00000000000E+00 0. -1.
         24    1    1    2    0    0 -0.14943068111E+02  0.98054022965E+01 -0.44338060500E+02  0.93554907739E+02  0.80419002446E+02 0. -1.
        -24    1    1    2    0    0  0.14943068111E+02 -0.98054022965E+01  0.21853602742E+02  0.85230493991E+02  0.80419002446E+02 0.  1.
<mgrwt>
<rscale>  0 0.82381170E+02</rscale>
<asrwt>0</asrwt>
<pdfrwt beam="1">  1        2 0.15482297E-01 0.82381170E+02</pdfrwt>
<pdfrwt beam="2">  1       -2 0.12023150E-01 0.82381170E+02</pdfrwt>
<totfact> 0.16328738E+04</totfact>
</mgrwt>
</event>
<event>
 4    1  0.6602701E-002  0.8228901E+02  0.7546771E-02  0.1322678E+00
         -2   -1    0    0    0  501 -0.00000000000E+00  0.00000000000E+00  0.17645627085E+02  0.17645627085E+02  0.00000000000E+00 0.  1.
          2   -1    0    0  501    0  0.00000000000E+00 -0.00000000000E+00 -0.45039128882E+03  0.45039128882E+03  0.00000000000E+00 0. -1.
         24    1    1    2    0    0  0.10761143469E+00  0.17442852562E+02 -0.30639140418E+03  0.31724938644E+03  0.80419002446E+02 0. -1.
        -24    1    1    2    0    0 -0.10761143469E+00 -0.17442852562E+02 -0.12635425755E+03  0.15078752946E+03  0.80419002446E+02 0. -1.
<mgrwt>
<rscale>  0 0.82289007E+02</rscale>
<asrwt>0</asrwt>
<pdfrwt beam="1">  1        2 0.69290970E-01 0.82289007E+02</pdfrwt>
<pdfrwt beam="2">  1       -2 0.27147118E-02 0.82289007E+02</pdfrwt>
<totfact> 0.30382962E+04</totfact>
</mgrwt>
</event>
<event>
 4    1  0.6602701E-002  0.8978681E+02  0.7546771E-02  0.1303369E+00
          1   -1    0    0  501    0  0.00000000000E+00  0.00000000000E+00  0.34885339246E+02  0.34885339246E+02  0.00000000000E+00 0. -1.
         -1   -1    0    0    0  501 -0.00000000000E+00 -0.00000000000E+00 -0.23113050572E+03  0.23113050572E+03  0.00000000000E+00 0.  1.
         24    1    1    2    0    0 -0.39887164247E+02 -0.18626595281E+01 -0.99871944652E+02  0.13429846110E+03  0.80419002446E+02 0.  0.
        -24    1    1    2    0    0  0.39887164247E+02  0.18626595281E+01 -0.96373221821E+02  0.13171738386E+03  0.80419002446E+02 0.  1.
<mgrwt>
<rscale>  0 0.89786810E+02</rscale>
<asrwt>0</asrwt>
<pdfrwt beam="1">  1        1 0.53669751E-02 0.89786810E+02</pdfrwt>
<pdfrwt beam="2">  1       -1 0.35558540E-01 0.89786810E+02</pdfrwt>
<totfact> 0.10361835E+04</totfact>
</mgrwt>
</event>
<event>
 4    1  0.6602701E-002  0.9175248E+02  0.7546771E-02  0.1298662E+00
          1   -1    0    0  501    0  0.00000000000E+00  0.00000000000E+00  0.42798064311E+04  0.42798064311E+04  0.00000000000E+00 0. -1.
         -1   -1    0    0    0  501 -0.00000000000E+00 -0.00000000000E+00 -0.21178121460E+01  0.21178121460E+01  0.00000000000E+00 0.  1.
         24    1    1    2    0    0  0.43813713112E+02  0.56268047114E+01  0.15675806120E+04  0.15702635108E+04  0.80419002446E+02 0. -1.
        -24    1    1    2    0    0 -0.43813713112E+02 -0.56268047114E+01  0.27101080070E+04  0.27116607325E+04  0.80419002446E+02 0.  0.
<mgrwt>
<rscale>  0 0.91752484E+02</rscale>
<asrwt>0</asrwt>
<pdfrwt beam="1">  1        1 0.65842484E+00 0.91752484E+02</pdfrwt>
<pdfrwt beam="2">  1       -1 0.32582068E-03 0.91752484E+02</pdfrwt>
<totfact> 0.70485527E+02</totfact>
</mgrwt>
</event>
<event>
 4    1  0.6602701E-002  0.1035024E+03  0.7546771E-02  0.1273099E+00
         -1   -1    0    0    0  501 -0.00000000000E+00  0.00000000000E+00  0.50115145378E+02  0.50115145378E+02  0.00000000000E+00 0.  1.
          1   -1    0    0  501    0  0.00000000000E+00 -0.00000000000E+00 -0.24160770360E+03  0.24160770360E+03  0.00000000000E+00 0. -1.
         24    1    1    2    0    0  0.29937301369E+02  0.57873065754E+02 -0.46228796498E+02  0.11335718474E+03  0.80419002446E+02 0.  1.
        -24    1    1    2    0    0 -0.29937301369E+02 -0.57873065754E+02 -0.14526376173E+03  0.17836566423E+03  0.80419002446E+02 0.  0.
<mgrwt>
<rscale>  0 0.10350241E+03</rscale>
<asrwt>0</asrwt>
<pdfrwt beam="1">  1        1 0.37170416E-01 0.10350241E+03</pdfrwt>
<pdfrwt beam="2">  1       -1 0.77100224E-02 0.10350241E+03</pdfrwt>
<totfact> 0.97079158E+03</totfact>
</mgrwt>
</event>
<event>
 4    1  0.6602701E-002  0.1927284E+03  0.7546771E-02  0.1156023E+00
         -1   -1    0    0    0  501 -0.00000000000E+00  0.00000000000E+00  0.50744483992E+03  0.50744483992E+03  0.00000000000E+00 0.  1.
          1   -1    0    0  501    0  0.00000000000E+00 -0.00000000000E+00 -0.89136903900E+02  0.89136903900E+02  0.00000000000E+00 0. -1.
         24    1    1    2    0    0 -0.14372645387E+03 -0.10009859882E+03  0.33528808999E+03  0.38673290819E+03  0.80419002446E+02 0.  1.
        -24    1    1    2    0    0  0.14372645387E+03  0.10009859882E+03  0.83019846023E+02  0.20984883563E+03  0.80419002446E+02 0. -1.
<mgrwt>
<rscale>  0 0.19272841E+03</rscale>
<asrwt>0</asrwt>
<pdfrwt beam="1">  1        1 0.13713370E-01 0.19272841E+03</pdfrwt>
<pdfrwt beam="2">  1       -1 0.78068435E-01 0.19272841E+03</pdfrwt>
<totfact> 0.71882264E+02</totfact>
</mgrwt>
</event>
<event>
 4    1  0.6602701E-002  0.1152710E+03  0.7546771E-02  0.1251109E+00
         -2   -1    0    0    0  501 -0.00000000000E+00  0.00000000000E+00  0.11378477100E+04  0.11378477100E+04  0.00000000000E+00 0.  1.
          2   -1    0    0  501    0  0.00000000000E+00 -0.00000000000E+00 -0.27850500833E+02  0.27850500833E+02  0.00000000000E+00 0. -1.
         24    1    1    2    0    0 -0.61027784209E+02  0.55639858512E+02  0.11084543342E+03  0.15991907443E+03  0.80419002446E+02 0. -1.
        -24    1    1    2    0    0  0.61027784209E+02 -0.55639858512E+02  0.99915177569E+03  0.10057791364E+04  0.80419002446E+02 0.  1.
<mgrwt>
<rscale>  0 0.11527099E+03</rscale>
<asrwt>0</asrwt>
<pdfrwt beam="1">  1        2 0.42846933E-02 0.11527099E+03</pdfrwt>
<pdfrwt beam="2">  1       -2 0.17505346E+00 0.11527099E+03</pdfrwt>
<totfact> 0.39704412E+02</totfact>
</mgrwt>
</event>
<event>
 4    1  0.6602701E-002  0.9062967E+02  0.7546771E-02  0.1301334E+00
          2   -1    0    0  501    0  0.00000000000E+00  0.00000000000E+00  0.79962186423E+03  0.79962186423E+03  0.00000000000E+00 0. -1.
         -2   -1    0    0    0  501 -0.00000000000E+00 -0.00000000000E+00 -0.14883884469E+02  0.14883884469E+02  0.00000000000E+00 0.  1.
         24    1    1    2    0    0 -0.69478310559E+01  0.41209821824E+02  0.61906502845E+03  0.62566384519E+03  0.80419002446E+02 0. -1.
        -24    1    1    2    0    0  0.69478310559E+01 -0.41209821824E+02  0.16567295130E+03  0.18884190351E+03  0.80419002446E+02 0.  1.
<mgrwt>
<rscale>  0 0.90629674E+02</rscale>
<asrwt>0</asrwt>
<pdfrwt beam="1">  1        2 0.12301872E+00 0.90629674E+02</pdfrwt>
<pdfrwt beam="2">  1       -2 0.22898290E-02 0.90629674E+02</pdfrwt>
<totfact> 0.20574334E+04</totfact>
</mgrwt>
</event>
<event>
 4    1  0.6602701E-002  0.8585296E+02  0.7546771E-02  0.1313217E+00
          2   -1    0    0  501    0  0.00000000000E+00  0.00000000000E+00  0.10625002295E+04  0.10625002295E+04  0.00000000000E+00 0. -1.
         -2   -1    0    0    0  501 -0.00000000000E+00 -0.00000000000E+00 -0.15147445249E+02  0.15147445249E+02  0.00000000000E+00 0.  1.
         24    1    1    2    0    0  0.27616493905E+02  0.11867737750E+02  0.92037103208E+03  0.92436657587E+03  0.80419002446E+02 0. -1.
        -24    1    1    2    0    0 -0.27616493905E+02 -0.11867737750E+02  0.12698175216E+03  0.15328109887E+03  0.80419002446E+02 0.  1.
<mgrwt>
<rscale>  0 0.85852955E+02</rscale>
<asrwt>0</asrwt>
<pdfrwt beam="1">  1        2 0.16346152E+00 0.85852955E+02</pdfrwt>
<pdfrwt beam="2">  1       -2 0.23303770E-02 0.85852955E+02</pdfrwt>
<totfact> 0.13805436E+04</totfact>
</mgrwt>
</event>
<event>
 4    1  0.6602701E-002  0.1050866E+03  0.7546771E-02  0.1269949E+00
          3   -1    0    0  501    0  0.00000000000E+00  0.00000000000E+00  0.27837155406E+04  0.27837155406E+04  0.00000000000E+00 0. -1.
         -3   -1    0    0    0  501 -0.00000000000E+00 -0.00000000000E+00 -0.41062699565E+01  0.41062699565E+01  0.00000000000E+00 0.  1.
         24    1    1    2    0    0  0.60929433594E+02 -0.29386893560E+02  0.11331631087E+04  0.11380254094E+04  0.80419002446E+02 0.  0.
        -24    1    1    2    0    0 -0.60929433594E+02  0.29386893560E+02  0.16464461619E+04  0.16497964012E+04  0.80419002446E+02 0. -1.
<mgrwt>
<rscale>  0 0.10508664E+03</rscale>
<asrwt>0</asrwt>
<pdfrwt beam="1">  1        3 0.42826242E+00 0.10508664E+03</pdfrwt>
<pdfrwt beam="2">  1       -3 0.63173606E-03 0.10508664E+03</pdfrwt>
<totfact> 0.12626278E+02</totfact>
</mgrwt>
</event>
<event>
 4    1  0.6602701E-002  0.8749393E+02  0.7546771E-02  0.1309037E+00
         -2   -1    0    0    0  501 -0.00000000000E+00  0.00000000000E+00  0.23218368071E+02  0.23218368071E+02  0.00000000000E+00 0.  1.
          2   -1    0    0  501    0  0.00000000000E+00 -0.00000000000E+00 -0.73068488307E+03  0.73068488307E+03  0.00000000000E+00 0. -1.
         24    1    1    2    0    0 -0.18821508726E+02 -0.28874268788E+02 -0.63297632485E+03  0.63899469197E+03  0.80419002446E+02 0. -1.
        -24    1    1    2    0    0  0.18821508726E+02  0.28874268788E+02 -0.74490190157E+02  0.11490855918E+03  0.80419002446E+02 0.  1.
<mgrwt>
<rscale>  0 0.87493934E+02</rscale>
<asrwt>0</asrwt>
<pdfrwt beam="1">  1        2 0.11241307E+00 0.87493934E+02</pdfrwt>
<pdfrwt beam="2">  1       -2 0.35720564E-02 0.87493934E+02</pdfrwt>
<totfact> 0.11988584E+04</totfact>
</mgrwt>
</event>
<event>
 4    1  0.6602701E-002  0.9665262E+02  0.7546771E-02  0.1287497E+00
          2   -1    0    0  501    0  0.00000000000E+00  0.00000000000E+00  0.78323237408E+03  0.78323237408E+03  0.00000000000E+00 0. -1.
         -2   -1    0    0    0  501 -0.00000000000E+00 -0.00000000000E+00 -0.12070246254E+02  0.12070246254E+02  0.00000000000E+00 0.  1.
         24    1    1    2    0    0  0.16027019070E+02  0.51162915000E+02  0.34228306047E+03  0.35566756762E+03  0.80419002446E+02 0.  0.
        -24    1    1    2    0    0 -0.16027019070E+02 -0.51162915000E+02  0.42887906736E+03  0.43963505272E+03  0.80419002446E+02 0.  1.
<mgrwt>
<rscale>  0 0.96652612E+02</rscale>
<asrwt>0</asrwt>
<pdfrwt beam="1">  1        2 0.12049725E+00 0.96652625E+02</pdfrwt>
<pdfrwt beam="2">  1       -2 0.18569616E-02 0.96652625E+02</pdfrwt>
<totfact> 0.28697752E+04</totfact>
</mgrwt>
</event>
<event>
 4    1  0.6602701E-002  0.1506844E+03  0.7546771E-02  0.1199634E+00
         -2   -1    0    0    0  501 -0.00000000000E+00  0.00000000000E+00  0.26068124645E+03  0.26068124645E+03  0.00000000000E+00 0.  1.
          2   -1    0    0  501    0  0.00000000000E+00 -0.00000000000E+00 -0.97388148729E+02  0.97388148729E+02  0.00000000000E+00 0. -1.
         24    1    1    2    0    0 -0.10857032242E+03  0.66716339338E+02  0.23460994277E+02  0.15249989853E+03  0.80419002446E+02 0. -1.
        -24    1    1    2    0    0  0.10857032242E+03 -0.66716339338E+02  0.13983210345E+03  0.20556949665E+03  0.80419002446E+02 0.  1.
<mgrwt>
<rscale>  0 0.15068444E+03</rscale>
<asrwt>0</asrwt>
<pdfrwt beam="1">  1        2 0.14982792E-01 0.15068444E+03</pdfrwt>
<pdfrwt beam="2">  1       -2 0.40104807E-01 0.15068444E+03</pdfrwt>
<totfact> 0.22488228E+03</totfact>
</mgrwt>
</event>
<event>
 4    1  0.6602701E-002  0.9207070E+02  0.7546771E-02  0.1297913E+00
          1   -1    0    0  501    0  0.00000000000E+00  0.00000000000E+00  0.11747486647E+03  0.11747486647E+03  0.00000000000E+00 0. -1.
         -1   -1    0    0    0  501 -0.00000000000E+00 -0.00000000000E+00 -0.79175299788E+02  0.79175299788E+02  0.00000000000E+00 0.  1.
         24    1    1    2    0    0 -0.29498992725E+02  0.33758006915E+02  0.48417340177E+02  0.10402522957E+03  0.80419002446E+02 0.  0.
        -24    1    1    2    0    0  0.29498992725E+02 -0.33758006915E+02 -0.10117773490E+02  0.92624936693E+02  0.80419002446E+02 0.  0.
<mgrwt>
<rscale>  0 0.92070688E+02</rscale>
<asrwt>0</asrwt>
<pdfrwt beam="1">  1        1 0.18073056E-01 0.92070700E+02</pdfrwt>
<pdfrwt beam="2">  1       -1 0.12180815E-01 0.92070700E+02</pdfrwt>
<totfact> 0.11783942E+04</totfact>
</mgrwt>
</event>
<event>
 4    1  0.6602701E-002  0.1044703E+03  0.7546771E-02  0.1271167E+00
         -2   -1    0    0    0  501 -0.00000000000E+00  0.00000000000E+00  0.13796943307E+02  0.13796943307E+02  0.00000000000E+00 0.  1.
          2   -1    0    0  501    0  0.00000000000E+00 -0.00000000000E+00 -0.96859808763E+03  0.96859808763E+03  0.00000000000E+00 0. -1.
         24    1    1    2    0    0  0.32985819673E+02 -0.57954767037E+02 -0.26709750202E+03  0.28680151824E+03  0.80419002446E+02 0.  0.
        -24    1    1    2    0    0 -0.32985819673E+02  0.57954767037E+02 -0.68770364230E+03  0.69559351270E+03  0.80419002446E+02 0.  0.
<mgrwt>
<rscale>  0 0.10447027E+03</rscale>
<asrwt>0</asrwt>
<pdfrwt beam="1">  1        2 0.14901511E+00 0.10447029E+03</pdfrwt>
<pdfrwt beam="2">  1       -2 0.21226064E-02 0.10447029E+03</pdfrwt>
<totfact> 0.18191089E+04</totfact>
</mgrwt>
</event>
<event>
 4    1  0.6602701E-002  0.1099720E+03  0.7546771E-02  0.1260622E+00
         -1   -1    0    0    0  501 -0.00000000000E+00  0.00000000000E+00  0.30257488864E+03  0.30257488864E+03  0.00000000000E+00 0.  1.
          1   -1    0    0  501    0  0.00000000000E+00 -0.00000000000E+00 -0.46289757149E+02  0.46289757149E+02  0.00000000000E+00 0. -1.
         24    1    1    2    0    0 -0.73842335972E+02  0.13188289211E+02  0.19259567641E+03  0.22178127081E+03  0.80419002446E+02 0.  1.
        -24    1    1    2    0    0  0.73842335972E+02 -0.13188289211E+02  0.63689455082E+02  0.12708337498E+03  0.80419002446E+02 0. -1.
<mgrwt>
<rscale>  0 0.10997199E+03</rscale>
<asrwt>0</asrwt>
<pdfrwt beam="1">  1        1 0.71215013E-02 0.10997199E+03</pdfrwt>
<pdfrwt beam="2">  1       -1 0.46549982E-01 0.10997199E+03</pdfrwt>
<totfact> 0.45068459E+03</totfact>
</mgrwt>
</event>
<event>
 4    1  0.6602701E-002  0.9997141E+02  0.7546771E-02  0.1280356E+00
          1   -1    0    0  501    0  0.00000000000E+00  0.00000000000E+00  0.38691991266E+02  0.38691991266E+02  0.00000000000E+00 0. -1.
         -1   -1    0    0    0  501 -0.00000000000E+00 -0.00000000000E+00 -0.26957780934E+03  0.26957780934E+03  0.00000000000E+00 0.  1.
         24    1    1    2    0    0 -0.44538407188E+02 -0.39286037277E+02 -0.83921684633E+02  0.13052634809E+03  0.80419002446E+02 0.  0.
        -24    1    1    2    0    0  0.44538407188E+02  0.39286037277E+02 -0.14696413344E+03  0.17774345251E+03  0.80419002446E+02 0.  0.
<mgrwt>
<rscale>  0 0.99971400E+02</rscale>
<asrwt>0</asrwt>
<pdfrwt beam="1">  1        1 0.59526142E-02 0.99971413E+02</pdfrwt>
<pdfrwt beam="2">  1       -1 0.41473508E-01 0.99971413E+02</pdfrwt>
<totfact> 0.69813068E+03</totfact>
</mgrwt>
</event>
<event>
 4    1  0.6602701E-002  0.1144065E+03  0.7546771E-02  0.1252621E+00
         -2   -1    0    0    0  501 -0.00000000000E+00  0.00000000000E+00  0.19024996211E+02  0.19024996211E+02  0.00000000000E+00 0.  1.
          2   -1    0    0  501    0  0.00000000000E+00 -0.00000000000E+00 -0.86168973361E+03  0.86168973361E+03  0.00000000000E+00 0. -1.
         24    1    1    2    0    0 -0.54030914051E+02 -0.60846478672E+02 -0.61904742074E+03  0.62953042716E+03  0.80419002446E+02 0. -1.
        -24    1    1    2    0    0  0.54030914051E+02  0.60846478672E+02 -0.22361731666E+03  0.25118430267E+03  0.80419002446E+02 0.  0.
<mgrwt>
<rscale>  0 0.11440651E+03</rscale>
<asrwt>0</asrwt>
<pdfrwt beam="1">  1        2 0.13256762E+00 0.11440651E+03</pdfrwt>
<pdfrwt beam="2">  1       -2 0.29269233E-02 0.11440651E+03</pdfrwt>
<totfact> 0.13375181E+04</totfact>
</mgrwt>
</event>
<event>
 4    1  0.6602701E-002  0.8438322E+02  0.7546771E-02  0.1317053E+00
         -2   -1    0    0    0  501 -0.00000000000E+00  0.00000000000E+00  0.30871440077E+02  0.30871440077E+02  0.00000000000E+00 0.  1.
          2   -1    0    0  501    0  0.00000000000E+00 -0.00000000000E+00 -0.77830319743E+03  0.77830319743E+03  0.00000000000E+00 0. -1.
         24    1    1    2    0    0  0.11224059712E+02 -0.22963731495E+02 -0.71309902957E+03  0.71807433766E+03  0.80419002446E+02 0. -1.
        -24    1    1    2    0    0 -0.11224059712E+02  0.22963731495E+02 -0.34332727784E+02  0.91100299846E+02  0.80419002446E+02 0.  0.
<mgrwt>
<rscale>  0 0.84383224E+02</rscale>
<asrwt>0</asrwt>
<pdfrwt beam="1">  1        2 0.11973895E+00 0.84383224E+02</pdfrwt>
<pdfrwt beam="2">  1       -2 0.47494524E-02 0.84383224E+02</pdfrwt>
<totfact> 0.72954624E+03</totfact>
</mgrwt>
</event>
<event>
 4    1  0.6602701E-002  0.8921090E+02  0.7546771E-02  0.1304774E+00
         -2   -1    0    0    0  501 -0.00000000000E+00  0.00000000000E+00  0.73721130666E+02  0.73721130666E+02  0.00000000000E+00 0.  1.
          2   -1    0    0  501    0  0.00000000000E+00 -0.00000000000E+00 -0.12235556737E+03  0.12235556737E+03  0.00000000000E+00 0. -1.
         24    1    1    2    0    0 -0.38174754451E+02 -0.58355176573E+01  0.93161652775E+01  0.89695997868E+02  0.80419002446E+02 0.  1.
        -24    1    1    2    0    0  0.38174754451E+02  0.58355176573E+01 -0.57950601983E+02  0.10638070017E+03  0.80419002446E+02 0. -1.
<mgrwt>
<rscale>  0 0.89210891E+02</rscale>
<asrwt>0</asrwt>
<pdfrwt beam="1">  1        2 0.18823933E-01 0.89210902E+02</pdfrwt>
<pdfrwt beam="2">  1       -2 0.11341712E-01 0.89210902E+02</pdfrwt>
<totfact> 0.14458163E+04</totfact>
</mgrwt>
</event>
<event>
 4    1  0.6602701E-002  0.8645841E+02  0.7546771E-02  0.1311662E+00
         -1   -1    0    0    0  501 -0.00000000000E+00  0.00000000000E+00  0.21322863413E+02  0.21322863413E+02  0.00000000000E+00 0.  1.
          1   -1    0    0  501    0  0.00000000000E+00 -0.00000000000E+00 -0.43147969869E+03  0.43147969869E+03  0.00000000000E+00 0. -1.
         24    1    1    2    0    0  0.30870516350E+02 -0.74062305592E+01 -0.10703657178E+03  0.13759318546E+03  0.80419002446E+02 0.  1.
        -24    1    1    2    0    0 -0.30870516350E+02  0.74062305592E+01 -0.30312026350E+03  0.31520937665E+03  0.80419002446E+02 0. -1.
<mgrwt>
<rscale>  0 0.86458412E+02</rscale>
<asrwt>0</asrwt>
<pdfrwt beam="1">  1        1 0.66381485E-01 0.86458412E+02</pdfrwt>
<pdfrwt beam="2">  1       -1 0.32804409E-02 0.86458412E+02</pdfrwt>
<totfact> 0.16379635E+04</totfact>
</mgrwt>
</event>
<event>
 4    1  0.6602701E-002  0.3006138E+03  0.7546771E-02  0.1084934E+00
          2   -1    0    0  501    0  0.00000000000E+00  0.00000000000E+00  0.16101733358E+04  0.16101733358E+04  0.00000000000E+00 0. -1.
         -2   -1    0    0    0  501 -0.00000000000E+00 -0.00000000000E+00 -0.78082835325E+02  0.78082835325E+02  0.00000000000E+00 0.  1.
         24    1    1    2    0    0 -0.53109472831E+02  0.28474691145E+03  0.12136964092E+04  0.12503709887E+04  0.80419002446E+02 0.  1.
        -24    1    1    2    0    0  0.53109472831E+02 -0.28474691145E+03  0.31839409125E+03  0.43788518242E+03  0.80419002446E+02 0. -1.
<mgrwt>
<rscale>  0 0.30061376E+03</rscale>
<asrwt>0</asrwt>
<pdfrwt beam="1">  1        2 0.24771895E+00 0.30061376E+03</pdfrwt>
<pdfrwt beam="2">  1       -2 0.12012745E-01 0.30061376E+03</pdfrwt>
<totfact> 0.58776569E+02</totfact>
</mgrwt>
</event>
<event>
 4    1  0.6602701E-002  0.9276518E+02  0.7546771E-02  0.1296290E+00
         -3   -1    0    0    0  501 -0.00000000000E+00  0.00000000000E+00  0.40897436142E+02  0.40897436142E+02  0.00000000000E+00 0.  1.
          3   -1    0    0  501    0  0.00000000000E+00 -0.00000000000E+00 -0.32539640372E+03  0.32539640372E+03  0.00000000000E+00 0. -1.
         24    1    1    2    0    0  0.35408981639E+01 -0.46104494492E+02 -0.33379133537E+02  0.98587752192E+02  0.80419002446E+02 0.  1.
        -24    1    1    2    0    0 -0.35408981639E+01  0.46104494492E+02 -0.25111983404E+03  0.26770608767E+03  0.80419002446E+02 0. -1.
<mgrwt>
<rscale>  0 0.92765178E+02</rscale>
<asrwt>0</asrwt>
<pdfrwt beam="1">  1        3 0.50060986E-01 0.92765178E+02</pdfrwt>
<pdfrwt beam="2">  1       -3 0.62919132E-02 0.92765178E+02</pdfrwt>
<totfact> 0.13508397E+03</totfact>
</mgrwt>
</event>
<event>
 4    1  0.6602701E-002  0.8484411E+02  0.7546771E-02  0.1315841E+00
         -2   -1    0    0    0  501 -0.00000000000E+00  0.00000000000E+00  0.22821933436E+02  0.22821933436E+02  0.00000000000E+00 0.  1.
          2   -1    0    0  501    0  0.00000000000E+00 -0.00000000000E+00 -0.69481491288E+03  0.69481491288E+03  0.00000000000E+00 0. -1.
         24    1    1    2    0    0  0.26440555454E+02 -0.56748725514E+01 -0.60114256048E+03  0.60710040448E+03  0.80419002446E+02 0. -1.
        -24    1    1    2    0    0 -0.26440555454E+02  0.56748725514E+01 -0.70850418969E+02  0.11053644184E+03  0.80419002446E+02 0.  1.
<mgrwt>
<rscale>  0 0.84844111E+02</rscale>
<asrwt>0</asrwt>
<pdfrwt beam="1">  1        2 0.10689462E+00 0.84844111E+02</pdfrwt>
<pdfrwt beam="2">  1       -2 0.35110661E-02 0.84844111E+02</pdfrwt>
<totfact> 0.13007119E+04</totfact>
</mgrwt>
</event>
<event>
 4    1  0.6602701E-002  0.1184629E+03  0.7546771E-02  0.1245654E+00
         -2   -1    0    0    0  501 -0.00000000000E+00  0.00000000000E+00  0.16922799472E+02  0.16922799472E+02  0.00000000000E+00 0.  1.
          2   -1    0    0  501    0  0.00000000000E+00 -0.00000000000E+00 -0.99919067074E+03  0.99919067074E+03  0.00000000000E+00 0. -1.
         24    1    1    2    0    0 -0.86329121268E+02 -0.10655174909E+02 -0.70065080231E+03  0.71059483017E+03  0.80419002446E+02 0. -1.
        -24    1    1    2    0    0  0.86329121268E+02  0.10655174909E+02 -0.28161706896E+03  0.30551864005E+03  0.80419002446E+02 0.  1.
<mgrwt>
<rscale>  0 0.11846293E+03</rscale>
<asrwt>0</asrwt>
<pdfrwt beam="1">  1        2 0.15372166E+00 0.11846293E+03</pdfrwt>
<pdfrwt beam="2">  1       -2 0.26035074E-02 0.11846293E+03</pdfrwt>
<totfact> 0.13087782E+04</totfact>
</mgrwt>
</event>
<event>
 4    1  0.6602701E-002  0.9989349E+02  0.7546771E-02  0.1280520E+00
          2   -1    0    0  501    0  0.00000000000E+00  0.00000000000E+00  0.49254946570E+03  0.49254946570E+03  0.00000000000E+00 0. -1.
         -2   -1    0    0    0  501 -0.00000000000E+00 -0.00000000000E+00 -0.76252330590E+02  0.76252330590E+02  0.00000000000E+00 0.  1.
         24    1    1    2    0    0 -0.33746152086E+02  0.48710268581E+02  0.45185746050E+03  0.46276762377E+03  0.80419002446E+02 0. -1.
        -24    1    1    2    0    0  0.33746152086E+02 -0.48710268581E+02 -0.35560325390E+02  0.10603417252E+03  0.80419002446E+02 0.  1.
<mgrwt>
<rscale>  0 0.99893488E+02</rscale>
<asrwt>0</asrwt>
<pdfrwt beam="1">  1        2 0.75776839E-01 0.99893488E+02</pdfrwt>
<pdfrwt beam="2">  1       -2 0.11731128E-01 0.99893488E+02</pdfrwt>
<totfact> 0.31171025E+03</totfact>
</mgrwt>
</event>
<event>
 4    1  0.6602701E-002  0.9894636E+02  0.7546771E-02  0.1282527E+00
         -2   -1    0    0    0  501 -0.00000000000E+00  0.00000000000E+00  0.40715311074E+02  0.40715311074E+02  0.00000000000E+00 0.  1.
          2   -1    0    0  501    0  0.00000000000E+00 -0.00000000000E+00 -0.26013746422E+03  0.26013746422E+03  0.00000000000E+00 0. -1.
         24    1    1    2    0    0  0.55506730458E+02  0.15561788519E+02 -0.15108368756E+03  0.18060083884E+03  0.80419002446E+02 0. -1.
        -24    1    1    2    0    0 -0.55506730458E+02 -0.15561788519E+02 -0.68338465582E+02  0.12025193645E+03  0.80419002446E+02 0.  1.
<mgrwt>
<rscale>  0 0.98946361E+02</rscale>
<asrwt>0</asrwt>
<pdfrwt beam="1">  1        2 0.40021148E-01 0.98946361E+02</pdfrwt>
<pdfrwt beam="2">  1       -2 0.62638941E-02 0.98946361E+02</pdfrwt>
<totfact> 0.16078416E+04</totfact>
</mgrwt>
</event>
<event>
 4    1  0.6602701E-002  0.1476571E+03  0.7546771E-02  0.1203382E+00
         -1   -1    0    0    0  501 -0.00000000000E+00  0.00000000000E+00  0.44000406042E+02  0.44000406042E+02  0.00000000000E+00 0.  1.
          1   -1    0    0  501    0  0.00000000000E+00 -0.00000000000E+00 -0.12889582822E+04  0.12889582822E+04  0.00000000000E+00 0. -1.
         24    1    1    2    0    0  0.12382368360E+03  0.17616690143E+01 -0.99569257287E+02  0.17809172089E+03  0.80419002446E+02 0.  1.
        -24    1    1    2    0    0 -0.12382368360E+03 -0.17616690143E+01 -0.11453886188E+04  0.11548669673E+04  0.80419002446E+02 0. -1.
<mgrwt>
<rscale>  0 0.14765712E+03</rscale>
<asrwt>0</asrwt>
<pdfrwt beam="1">  1        1 0.19830128E+00 0.14765712E+03</pdfrwt>
<pdfrwt beam="2">  1       -1 0.67692930E-02 0.14765712E+03</pdfrwt>
<totfact> 0.11116669E+03</totfact>
</mgrwt>
</event>
<event>
 4    1  0.6602701E-002  0.8347030E+02  0.7546771E-02  0.1319482E+00
         -1   -1    0    0    0  501 -0.00000000000E+00  0.00000000000E+00  0.55849591420E+02  0.55849591420E+02  0.00000000000E+00 0.  1.
          1   -1    0    0  501    0  0.00000000000E+00 -0.00000000000E+00 -0.19586367966E+03  0.19586367966E+03  0.00000000000E+00 0. -1.
         24    1    1    2    0    0  0.72160604433E+01 -0.21166080038E+02  0.58284973341E+01  0.83673543059E+02  0.80419002446E+02 0.  1.
        -24    1    1    2    0    0 -0.72160604433E+01  0.21166080038E+02 -0.14584258558E+03  0.16803972803E+03  0.80419002446E+02 0. -1.
<mgrwt>
<rscale>  0 0.83470297E+02</rscale>
<asrwt>0</asrwt>
<pdfrwt beam="1">  1        1 0.30132874E-01 0.83470297E+02</pdfrwt>
<pdfrwt beam="2">  1       -1 0.85922448E-02 0.83470297E+02</pdfrwt>
<totfact> 0.10474574E+04</totfact>
</mgrwt>
</event>
<event>
 4    1  0.6602701E-002  0.8351325E+02  0.7546771E-02  0.1319367E+00
          2   -1    0    0  501    0  0.00000000000E+00  0.00000000000E+00  0.34331222618E+03  0.34331222618E+03  0.00000000000E+00 0. -1.
         -2   -1    0    0    0  501 -0.00000000000E+00 -0.00000000000E+00 -0.60643683225E+02  0.60643683225E+02  0.00000000000E+00 0.  1.
         24    1    1    2    0    0  0.22508147722E+02  0.79361905078E+00  0.30604315958E+03  0.31723316035E+03  0.80419002446E+02 0. -1.
        -24    1    1    2    0    0 -0.22508147722E+02 -0.79361905078E+00 -0.23374616634E+02  0.86722749047E+02  0.80419002446E+02 0.  1.
<mgrwt>
<rscale>  0 0.83513247E+02</rscale>
<asrwt>0</asrwt>
<pdfrwt beam="1">  1        2 0.52817264E-01 0.83513247E+02</pdfrwt>
<pdfrwt beam="2">  1       -2 0.93297976E-02 0.83513247E+02</pdfrwt>
<totfact> 0.64594663E+03</totfact>
</mgrwt>
</event>
<event>
 4    1  0.6602701E-002  0.1464524E+03  0.7546771E-02  0.1204901E+00
          2   -1    0    0  501    0  0.00000000000E+00  0.00000000000E+00  0.13415436393E+03  0.13415436393E+03  0.00000000000E+00 0. -1.
         -2   -1    0    0    0  501 -0.00000000000E+00 -0.00000000000E+00 -0.21126285912E+03  0.21126285912E+03  0.00000000000E+00 0.  1.
         24    1    1    2    0    0  0.29241857798E+02 -0.11885283747E+03 -0.12373098800E+03  0.19172286397E+03  0.80419002446E+02 0.  1.
        -24    1    1    2    0    0 -0.29241857798E+02  0.11885283747E+03  0.46622492817E+02  0.15369435908E+03  0.80419002446E+02 0. -1.
<mgrwt>
<rscale>  0 0.14645240E+03</rscale>
<asrwt>0</asrwt>
<pdfrwt beam="1">  1        2 0.20639133E-01 0.14645242E+03</pdfrwt>
<pdfrwt beam="2">  1       -2 0.32501978E-01 0.14645242E+03</pdfrwt>
<totfact> 0.22963856E+03</totfact>
</mgrwt>
</event>
<event>
 4    1  0.7062288E-002  0.8638655E+02  0.7546771E-02  0.1311846E+00
         -1   -1    0    0    0  501 -0.00000000000E+00  0.00000000000E+00  0.47073197903E+01  0.47073197903E+01  0.00000000000E+00 0.  1.
          1   -1    0    0  501    0  0.00000000000E+00 -0.00000000000E+00 -0.21055625102E+04  0.21055625102E+04  0.00000000000E+00 0. -1.
         24    1    1    2    0    0 -0.29010500067E+02  0.12402086563E+02 -0.52595318158E+03  0.53300036213E+03  0.80419002446E+02 0.  1.
        -24    1    1    2    0    0  0.29010500067E+02 -0.12402086563E+02 -0.15749020088E+04  0.15772694678E+04  0.80419002446E+02 0. -1.
<mgrwt>
<rscale>  0 0.86386555E+02</rscale>
<asrwt>0</asrwt>
<pdfrwt beam="1">  1        1 0.32393339E+00 0.86386555E+02</pdfrwt>
<pdfrwt beam="2">  1       -1 0.72420149E-03 0.86386555E+02</pdfrwt>
<totfact> 0.83241103E+03</totfact>
</mgrwt>
</event>
<event>
 4    1  0.7559598E-002  0.8575953E+02  0.7546771E-02  0.1313458E+00
          1   -1    0    0  501    0  0.00000000000E+00  0.00000000000E+00  0.41976815196E+03  0.41976815196E+03  0.00000000000E+00 0. -1.
         -1   -1    0    0    0  501 -0.00000000000E+00 -0.00000000000E+00 -0.73238551808E+02  0.73238551808E+02  0.00000000000E+00 0.  1.
         24    1    1    2    0    0 -0.29779455393E+02 -0.81507231262E+00 -0.41740684782E+02  0.95378095110E+02  0.80419002446E+02 0.  1.
        -24    1    1    2    0    0  0.29779455393E+02  0.81507231262E+00  0.38827028493E+03  0.39762860865E+03  0.80419002446E+02 0. -1.
<mgrwt>
<rscale>  0 0.85759526E+02</rscale>
<asrwt>0</asrwt>
<pdfrwt beam="1">  1        1 0.64579714E-01 0.85759526E+02</pdfrwt>
<pdfrwt beam="2">  1       -1 0.11267470E-01 0.85759526E+02</pdfrwt>
<totfact> 0.27463295E+03</totfact>
</mgrwt>
</event>
<event>
 4    1  0.6602701E-002  0.1173820E+03  0.7546771E-02  0.1247480E+00
         -1   -1    0    0    0  501 -0.00000000000E+00  0.00000000000E+00  0.44160776529E+02  0.44160776529E+02  0.00000000000E+00 0.  1.
          1   -1    0    0  501    0  0.00000000000E+00 -0.00000000000E+00 -0.31994267016E+03  0.31994267016E+03  0.00000000000E+00 0. -1.
         24    1    1    2    0    0  0.27727817662E+02 -0.80885522762E+02 -0.16656064470E+03  0.20376693545E+03  0.80419002446E+02 0.  0.
        -24    1    1    2    0    0 -0.27727817662E+02  0.80885522762E+02 -0.10922124894E+03  0.16033651125E+03  0.80419002446E+02 0.  0.
<mgrwt>
<rscale>  0 0.11738194E+03</rscale>
<asrwt>0</asrwt>
<pdfrwt beam="1">  1        1 0.49221951E-01 0.11738195E+03</pdfrwt>
<pdfrwt beam="2">  1       -1 0.67939653E-02 0.11738195E+03</pdfrwt>
<totfact> 0.83876864E+03</totfact>
</mgrwt>
</event>
<event>
 4    1  0.8642173E-002  0.9260599E+02  0.7546771E-02  0.1296661E+00
          1   -1    0    0  501    0  0.00000000000E+00  0.00000000000E+00  0.40125207523E+03  0.40125207523E+03  0.00000000000E+00 0. -1.
         -1   -1    0    0    0  501 -0.00000000000E+00 -0.00000000000E+00 -0.10073973690E+03  0.10073973690E+03  0.00000000000E+00 0.  1.
         24    1    1    2    0    0 -0.41553572937E+02  0.19543651802E+02 -0.72528916696E+02  0.11762786005E+03  0.80419002446E+02 0.  1.
        -24    1    1    2    0    0  0.41553572937E+02 -0.19543651802E+02  0.37304125502E+03  0.38436395207E+03  0.80419002446E+02 0. -1.
<mgrwt>
<rscale>  0 0.92605992E+02</rscale>
<asrwt>0</asrwt>
<pdfrwt beam="1">  1        1 0.61731088E-01 0.92605992E+02</pdfrwt>
<pdfrwt beam="2">  1       -1 0.15498421E-01 0.92605992E+02</pdfrwt>
<totfact> 0.17862176E+03</totfact>
</mgrwt>
</event>
<event>
 4    1  0.6602701E-002  0.2154823E+03  0.7546771E-02  0.1137297E+00
          2   -1    0    0  501    0  0.00000000000E+00  0.00000000000E+00  0.92796321535E+03  0.92796321535E+03  0.00000000000E+00 0. -1.
         -2   -1    0    0    0  501 -0.00000000000E+00 -0.00000000000E+00 -0.51954360795E+02  0.51954360795E+02  0.00000000000E+00 0.  1.
         24    1    1    2    0    0  0.19792592062E+03  0.28120011530E+02  0.53212512427E+03  0.57409909330E+03  0.80419002446E+02 0.  1.
        -24    1    1    2    0    0 -0.19792592062E+03 -0.28120011530E+02  0.34388373029E+03  0.40581848284E+03  0.80419002446E+02 0. -1.
<mgrwt>
<rscale>  0 0.21548230E+03</rscale>
<asrwt>0</asrwt>
<pdfrwt beam="1">  1        2 0.14276356E+00 0.21548230E+03</pdfrwt>
<pdfrwt beam="2">  1       -2 0.79929793E-02 0.21548230E+03</pdfrwt>
<totfact> 0.27447557E+03</totfact>
</mgrwt>
</event>
<event>
 4    1  0.6602701E-002  0.8969433E+02  0.7546771E-02  0.1303594E+00
         -2   -1    0    0    0  501 -0.00000000000E+00  0.00000000000E+00  0.35733100541E+01  0.35733100541E+01  0.00000000000E+00 0.  1.
          2   -1    0    0  501    0  0.00000000000E+00 -0.00000000000E+00 -0.28964249375E+04  0.28964249375E+04  0.00000000000E+00 0. -1.
         24    1    1    2    0    0  0.36058722497E+02  0.16661989634E+02 -0.76217765756E+03  0.76743719678E+03  0.80419002446E+02 0.  1.
        -24    1    1    2    0    0 -0.36058722497E+02 -0.16661989634E+02 -0.21306739699E+04  0.21325610508E+04  0.80419002446E+02 0.  0.
<mgrwt>
<rscale>  0 0.89694322E+02</rscale>
<asrwt>0</asrwt>
<pdfrwt beam="1">  1        2 0.44560268E+00 0.89694333E+02</pdfrwt>
<pdfrwt beam="2">  1       -2 0.54974144E-03 0.89694333E+02</pdfrwt>
<totfact> 0.11930528E+04</totfact>
</mgrwt>
</event>
<event>
 4    1  0.6602701E-002  0.8352705E+02  0.7546771E-02  0.1319330E+00
         -1   -1    0    0    0  501 -0.00000000000E+00  0.00000000000E+00  0.18890431116E+02  0.18890431116E+02  0.00000000000E+00 0.  1.
          1   -1    0    0  501    0  0.00000000000E+00 -0.00000000000E+00 -0.37005255253E+03  0.37005255253E+03  0.00000000000E+00 0. -1.
         24    1    1    2    0    0  0.20713661368E+02 -0.89718175064E+01 -0.18418619776E+03  0.20224074930E+03  0.80419002446E+02 0.  1.
        -24    1    1    2    0    0 -0.20713661368E+02  0.89718175064E+01 -0.16697592365E+03  0.18670223435E+03  0.80419002446E+02 0. -1.
<mgrwt>
<rscale>  0 0.83527043E+02</rscale>
<asrwt>0</asrwt>
<pdfrwt beam="1">  1        1 0.56931159E-01 0.83527054E+02</pdfrwt>
<pdfrwt beam="2">  1       -1 0.29062203E-02 0.83527054E+02</pdfrwt>
<totfact> 0.23501011E+04</totfact>
</mgrwt>
</event>
<event>
 4    1  0.6602701E-002  0.1642695E+03  0.7546771E-02  0.1183959E+00
         -1   -1    0    0    0  501 -0.00000000000E+00  0.00000000000E+00  0.63765455499E+02  0.63765455499E+02  0.00000000000E+00 0.  1.
          1   -1    0    0  501    0  0.00000000000E+00 -0.00000000000E+00 -0.52163843271E+03  0.52163843271E+03  0.00000000000E+00 0. -1.
         24    1    1    2    0    0  0.10660298975E+03  0.95671608309E+02 -0.10177365399E+03  0.19324167941E+03  0.80419002446E+02 0.  1.
        -24    1    1    2    0    0 -0.10660298975E+03 -0.95671608309E+02 -0.35609932322E+03  0.39216220881E+03  0.80419002446E+02 0. -1.
<mgrwt>
<rscale>  0 0.16426950E+03</rscale>
<asrwt>0</asrwt>
<pdfrwt beam="1">  1        1 0.80252068E-01 0.16426950E+03</pdfrwt>
<pdfrwt beam="2">  1       -1 0.98100699E-02 0.16426950E+03</pdfrwt>
<totfact> 0.26340729E+03</totfact>
</mgrwt>
</event>
<event>
 4    1  0.6602701E-002  0.8989775E+02  0.7546771E-02  0.1303099E+00
          2   -1    0    0  501    0  0.00000000000E+00  0.00000000000E+00  0.17157527858E+03  0.17157527858E+03  0.00000000000E+00 0. -1.
         -2   -1    0    0    0  501 -0.00000000000E+00 -0.00000000000E+00 -0.75219878492E+02  0.75219878492E+02  0.00000000000E+00 0.  1.
         24    1    1    2    0    0 -0.13050735981E+02  0.38000895968E+02  0.12362237356E+03  0.15285318774E+03  0.80419002446E+02 0. -1.
        -24    1    1    2    0    0  0.13050735981E+02 -0.38000895968E+02 -0.27266973476E+02  0.93941969327E+02  0.80419002446E+02 0.  1.
<mgrwt>
<rscale>  0 0.89897752E+02</rscale>
<asrwt>0</asrwt>
<pdfrwt beam="1">  1        2 0.26396197E-01 0.89897752E+02</pdfrwt>
<pdfrwt beam="2">  1       -2 0.11572289E-01 0.89897752E+02</pdfrwt>
<totfact> 0.96555713E+03</totfact>
</mgrwt>
</event>
<event>
 4    1  0.6602701E-002  0.9975512E+02  0.7546771E-02  0.1280812E+00
          1   -1    0    0  501    0  0.00000000000E+00  0.00000000000E+00  0.10334227294E+04  0.10334227294E+04  0.00000000000E+00 0. -1.
         -1   -1    0    0    0  501 -0.00000000000E+00 -0.00000000000E+00 -0.16799169341E+02  0.16799169341E+02  0.00000000000E+00 0.  1.
         24    1    1    2    0    0 -0.33400579408E+02  0.48664864223E+02  0.16525629458E+03  0.19303037731E+03  0.80419002446E+02 0.  1.
        -24    1    1    2    0    0  0.33400579408E+02 -0.48664864223E+02  0.85136726549E+03  0.85719152143E+03  0.80419002446E+02 0. -1.
<mgrwt>
<rscale>  0 0.99755119E+02</rscale>
<asrwt>0</asrwt>
<pdfrwt beam="1">  1        1 0.15898806E+00 0.99755119E+02</pdfrwt>
<pdfrwt beam="2">  1       -1 0.25844884E-02 0.99755119E+02</pdfrwt>
<totfact> 0.67885503E+03</totfact>
</mgrwt>
</event>
<event>
 4    1  0.6602701E-002  0.1244018E+03  0.7546771E-02  0.1236007E+00
         -1   -1    0    0    0  501 -0.00000000000E+00  0.00000000000E+00  0.24842579138E+03  0.24842579138E+03  0.00000000000E+00 0.  1.
          1   -1    0    0  501    0  0.00000000000E+00 -0.00000000000E+00 -0.95469202425E+02  0.95469202425E+02  0.00000000000E+00 0. -1.
         24    1    1    2    0    0 -0.64042555783E+02  0.70051011508E+02  0.17783702838E+03  0.21702953205E+03  0.80419002446E+02 0.  1.
        -24    1    1    2    0    0  0.64042555783E+02 -0.70051011508E+02 -0.24880439430E+02  0.12686546175E+03  0.80419002446E+02 0. -1.
<mgrwt>
<rscale>  0 0.12440181E+03</rscale>
<asrwt>0</asrwt>
<pdfrwt beam="1">  1        1 0.14687570E-01 0.12440181E+03</pdfrwt>
<pdfrwt beam="2">  1       -1 0.38219352E-01 0.12440181E+03</pdfrwt>
<totfact> 0.24756623E+03</totfact>
</mgrwt>
</event>
<event>
 4    1  0.6602701E-002  0.9085597E+02  0.7546771E-02  0.1300792E+00
         -2   -1    0    0    0  501 -0.00000000000E+00  0.00000000000E+00  0.18366893499E+02  0.18366893499E+02  0.00000000000E+00 0.  1.
          2   -1    0    0  501    0  0.00000000000E+00 -0.00000000000E+00 -0.44984632113E+03  0.44984632113E+03  0.00000000000E+00 0. -1.
         24    1    1    2    0    0 -0.12037766950E+02 -0.40530037927E+02 -0.22277973090E+03  0.24059429806E+03  0.80419002446E+02 0. -1.
        -24    1    1    2    0    0  0.12037766950E+02  0.40530037927E+02 -0.20869969674E+03  0.22761891657E+03  0.80419002446E+02 0.  1.
<mgrwt>
<rscale>  0 0.90855973E+02</rscale>
<asrwt>0</asrwt>
<pdfrwt beam="1">  1        2 0.69207134E-01 0.90855973E+02</pdfrwt>
<pdfrwt beam="2">  1       -2 0.28256756E-02 0.90855973E+02</pdfrwt>
<totfact> 0.29034725E+04</totfact>
</mgrwt>
</event>
<event>
 4    1  0.6602701E-002  0.1127530E+03  0.7546771E-02  0.1255555E+00
         -2   -1    0    0    0  501 -0.00000000000E+00  0.00000000000E+00  0.61698996862E+02  0.61698996862E+02  0.00000000000E+00 0.  1.
          2   -1    0    0  501    0  0.00000000000E+00 -0.00000000000E+00 -0.25874465549E+03  0.25874465549E+03  0.00000000000E+00 0. -1.
         24    1    1    2    0    0 -0.36530735409E+02  0.70082270970E+02 -0.17082623979E+03  0.20468228914E+03  0.80419002446E+02 0. -1.
        -24    1    1    2    0    0  0.36530735409E+02 -0.70082270970E+02 -0.26219418842E+02  0.11576136321E+03  0.80419002446E+02 0.  0.
<mgrwt>
<rscale>  0 0.11275298E+03</rscale>
<asrwt>0</asrwt>
<pdfrwt beam="1">  1        2 0.39806870E-01 0.11275298E+03</pdfrwt>
<pdfrwt beam="2">  1       -2 0.94921534E-02 0.11275298E+03</pdfrwt>
<totfact> 0.86549813E+03</totfact>
</mgrwt>
</event>
<event>
 4    1  0.6602701E-002  0.8782807E+02  0.7546771E-02  0.1308198E+00
          1   -1    0    0  501    0  0.00000000000E+00  0.00000000000E+00  0.11217734824E+03  0.11217734824E+03  0.00000000000E+00 0. -1.
         -1   -1    0    0    0  501 -0.00000000000E+00 -0.00000000000E+00 -0.72905739528E+02  0.72905739528E+02  0.00000000000E+00 0.  1.
         24    1    1    2    0    0  0.15270587489E+02  0.31833368083E+02 -0.24210728826E+01  0.87861434737E+02  0.80419002446E+02 0.  0.
        -24    1    1    2    0    0 -0.15270587489E+02 -0.31833368083E+02  0.41692681599E+02  0.97221653036E+02  0.80419002446E+02 0.  1.
<mgrwt>
<rscale>  0 0.87828071E+02</rscale>
<asrwt>0</asrwt>
<pdfrwt beam="1">  1        1 0.17258054E-01 0.87828071E+02</pdfrwt>
<pdfrwt beam="2">  1       -1 0.11216268E-01 0.87828071E+02</pdfrwt>
<totfact> 0.14097470E+04</totfact>
</mgrwt>
</event>
<event>
 4    1  0.6602701E-002  0.8526720E+02  0.7546771E-02  0.1314735E+00
          2   -1    0    0  501    0  0.00000000000E+00  0.00000000000E+00  0.26354761816E+03  0.26354761816E+03  0.00000000000E+00 0. -1.
         -2   -1    0    0    0  501 -0.00000000000E+00 -0.00000000000E+00 -0.63876305335E+02  0.63876305335E+02  0.00000000000E+00 0.  1.
         24    1    1    2    0    0  0.23506851022E+02  0.15833751847E+02  0.22323125653E+03  0.23896169063E+03  0.80419002446E+02 0. -1.
        -24    1    1    2    0    0 -0.23506851022E+02 -0.15833751847E+02 -0.23559943700E+02  0.88462232868E+02  0.80419002446E+02 0.  1.
<mgrwt>
<rscale>  0 0.85267202E+02</rscale>
<asrwt>0</asrwt>
<pdfrwt beam="1">  1        2 0.40545787E-01 0.85267202E+02</pdfrwt>
<pdfrwt beam="2">  1       -2 0.98271241E-02 0.85267202E+02</pdfrwt>
<totfact> 0.78659639E+03</totfact>
</mgrwt>
</event>
<event>
 4    1  0.6878839E-002  0.9620183E+02  0.7546771E-02  0.1288492E+00
          1   -1    0    0  501    0  0.00000000000E+00  0.00000000000E+00  0.19853636975E+04  0.19853636975E+04  0.00000000000E+00 0. -1.
         -1   -1    0    0    0  501 -0.00000000000E+00 -0.00000000000E+00 -0.14049183790E+02  0.14049183790E+02  0.00000000000E+00 0.  1.
         24    1    1    2    0    0  0.51995648903E+02 -0.91667368032E+01  0.16846180569E+03  0.19399528989E+03  0.80419002446E+02 0.  1.
        -24    1    1    2    0    0 -0.51995648903E+02  0.91667368032E+01  0.18028527080E+04  0.18054175914E+04  0.80419002446E+02 0. -1.
<mgrwt>
<rscale>  0 0.96201832E+02</rscale>
<asrwt>0</asrwt>
<pdfrwt beam="1">  1        1 0.30544035E+00 0.96201832E+02</pdfrwt>
<pdfrwt beam="2">  1       -1 0.21614145E-02 0.96201832E+02</pdfrwt>
<totfact> 0.21116044E+03</totfact>
</mgrwt>
</event>
<event>
 4    1  0.6602701E-002  0.1046580E+03  0.7546771E-02  0.1270795E+00
         -1   -1    0    0    0  501 -0.00000000000E+00  0.00000000000E+00  0.29015001943E+02  0.29015001943E+02  0.00000000000E+00 0.  1.
          1   -1    0    0  501    0  0.00000000000E+00 -0.00000000000E+00 -0.41629150089E+03  0.41629150089E+03  0.00000000000E+00 0. -1.
         24    1    1    2    0    0 -0.18279899346E+01  0.66953262671E+02 -0.12567521293E+03  0.16354680073E+03  0.80419002446E+02 0.  1.
        -24    1    1    2    0    0  0.18279899346E+01 -0.66953262671E+02 -0.26160128602E+03  0.28175970210E+03  0.80419002446E+02 0. -1.
<mgrwt>
<rscale>  0 0.10465800E+03</rscale>
<asrwt>0</asrwt>
<pdfrwt beam="1">  1        1 0.64044845E-01 0.10465800E+03</pdfrwt>
<pdfrwt beam="2">  1       -1 0.44638465E-02 0.10465800E+03</pdfrwt>
<totfact> 0.11144233E+04</totfact>
</mgrwt>
</event>
<event>
 4    1  0.6602701E-002  0.9515327E+02  0.7546771E-02  0.1290831E+00
         -2   -1    0    0    0  501 -0.00000000000E+00  0.00000000000E+00  0.16615890763E+02  0.16615890763E+02  0.00000000000E+00 0.  1.
          2   -1    0    0  501    0  0.00000000000E+00 -0.00000000000E+00 -0.11130304744E+04  0.11130304744E+04  0.00000000000E+00 0. -1.
         24    1    1    2    0    0  0.45871306980E+02 -0.21971626236E+02 -0.95174085722E+03  0.95648565301E+03  0.80419002446E+02 0. -1.
        -24    1    1    2    0    0 -0.45871306980E+02  0.21971626236E+02 -0.14467372643E+03  0.17316071216E+03  0.80419002446E+02 0.  1.
<mgrwt>
<rscale>  0 0.95153272E+02</rscale>
<asrwt>0</asrwt>
<pdfrwt beam="1">  1        2 0.17123550E+00 0.95153272E+02</pdfrwt>
<pdfrwt beam="2">  1       -2 0.25562903E-02 0.95153272E+02</pdfrwt>
<totfact> 0.11392524E+04</totfact>
</mgrwt>
</event>
<event>
 4    1  0.6602701E-002  0.8393252E+02  0.7546771E-02  0.1318248E+00
         -2   -1    0    0    0  501 -0.00000000000E+00  0.00000000000E+00  0.49730739624E+01  0.49730739624E+01  0.00000000000E+00 0.  1.
          2   -1    0    0  501    0  0.00000000000E+00 -0.00000000000E+00 -0.14762267697E+04  0.14762267697E+04  0.00000000000E+00 0. -1.
         24    1    1    2    0    0 -0.10085448752E+02  0.21811269968E+02 -0.58673567883E+03  0.59270854603E+03  0.80419002446E+02 0.  1.
        -24    1    1    2    0    0  0.10085448752E+02 -0.21811269968E+02 -0.88451801687E+03  0.88849129759E+03  0.80419002446E+02 0. -1.
<mgrwt>
<rscale>  0 0.83932506E+02</rscale>
<asrwt>0</asrwt>
<pdfrwt beam="1">  1        2 0.22711219E+00 0.83932516E+02</pdfrwt>
<pdfrwt beam="2">  1       -2 0.76508703E-03 0.83932516E+02</pdfrwt>
<totfact> 0.40352580E+04</totfact>
</mgrwt>
</event>
<event>
 4    1  0.6602701E-002  0.1049077E+03  0.7546771E-02  0.1270302E+00
          2   -1    0    0  501    0  0.00000000000E+00  0.00000000000E+00  0.30751594582E+03  0.30751594582E+03  0.00000000000E+00 0. -1.
         -2   -1    0    0    0  501 -0.00000000000E+00 -0.00000000000E+00 -0.57052039909E+02  0.57052039909E+02  0.00000000000E+00 0.  1.
         24    1    1    2    0    0  0.49145560124E+02  0.46077348292E+02  0.23651467779E+03  0.25873696464E+03  0.80419002446E+02 0. -1.
        -24    1    1    2    0    0 -0.49145560124E+02 -0.46077348292E+02  0.13949228120E+02  0.10583102109E+03  0.80419002446E+02 0.  1.
<mgrwt>
<rscale>  0 0.10490769E+03</rscale>
<asrwt>0</asrwt>
<pdfrwt beam="1">  1        2 0.47310144E-01 0.10490769E+03</pdfrwt>
<pdfrwt beam="2">  1       -2 0.87772371E-02 0.10490769E+03</pdfrwt>
<totfact> 0.81036173E+03</totfact>
</mgrwt>
</event>
<event>
 4    1  0.6602701E-002  0.9325842E+02  0.7546771E-02  0.1295147E+00
          1   -1    0    0  501    0  0.00000000000E+00  0.00000000000E+00  0.11799097757E+04  0.11799097757E+04  0.00000000000E+00 0. -1.
         -1   -1    0    0    0  501 -0.00000000000E+00 -0.00000000000E+00 -0.76192144993E+01  0.76192144993E+01  0.00000000000E+00 0.  1.
         24    1    1    2    0    0  0.38613420017E+02 -0.27183029380E+02  0.69331253470E+03  0.69955657385E+03  0.80419002446E+02 0.  0.
        -24    1    1    2    0    0 -0.38613420017E+02  0.27183029380E+02  0.47897802648E+03  0.48797241633E+03  0.80419002446E+02 0.  0.
<mgrwt>
<rscale>  0 0.93258412E+02</rscale>
<asrwt>0</asrwt>
<pdfrwt beam="1">  1        1 0.18152444E+00 0.93258424E+02</pdfrwt>
<pdfrwt beam="2">  1       -1 0.11721878E-02 0.93258424E+02</pdfrwt>
<totfact> 0.16511629E+04</totfact>
</mgrwt>
</event>
<event>
 4    1  0.6602701E-002  0.8832054E+02  0.7546771E-02  0.1306970E+00
          2   -1    0    0  501    0  0.00000000000E+00  0.00000000000E+00  0.12515127341E+04  0.12515127341E+04  0.00000000000E+00 0. -1.
         -2   -1    0    0    0  501 -0.00000000000E+00 -0.00000000000E+00 -0.75103418550E+01  0.75103418550E+01  0.00000000000E+00 0.  1.
         24    1    1    2    0    0 -0.31375501312E+02 -0.18678336879E+02  0.88162781796E+03  0.88604070318E+03  0.80419002446E+02 0. -1.
        -24    1    1    2    0    0  0.31375501312E+02  0.18678336879E+02  0.36237457425E+03  0.37298237273E+03  0.80419002446E+02 0.  1.
<mgrwt>
<rscale>  0 0.88320543E+02</rscale>
<asrwt>0</asrwt>
<pdfrwt beam="1">  1        2 0.19254026E+00 0.88320543E+02</pdfrwt>
<pdfrwt beam="2">  1       -2 0.11554382E-02 0.88320543E+02</pdfrwt>
<totfact> 0.29664273E+04</totfact>
</mgrwt>
</event>
<event>
 4    1  0.6602701E-002  0.9577866E+02  0.7546771E-02  0.1289432E+00
          1   -1    0    0  501    0  0.00000000000E+00  0.00000000000E+00  0.31117138590E+03  0.31117138590E+03  0.00000000000E+00 0. -1.
         -1   -1    0    0    0  501 -0.00000000000E+00 -0.00000000000E+00 -0.30550461741E+02  0.30550461741E+02  0.00000000000E+00 0.  1.
         24    1    1    2    0    0 -0.22380113421E+02 -0.46962345951E+02  0.17228316031E+03  0.19711680470E+03  0.80419002446E+02 0.  0.
        -24    1    1    2    0    0  0.22380113421E+02  0.46962345951E+02  0.10833776385E+03  0.14460504294E+03  0.80419002446E+02 0. -1.
<mgrwt>
<rscale>  0 0.95778649E+02</rscale>
<asrwt>0</asrwt>
<pdfrwt beam="1">  1        1 0.47872519E-01 0.95778661E+02</pdfrwt>
<pdfrwt beam="2">  1       -1 0.47000712E-02 0.95778661E+02</pdfrwt>
<totfact> 0.14698422E+04</totfact>
</mgrwt>
</event>
<event>
 4    1  0.6602701E-002  0.1003310E+03  0.7546771E-02  0.1279601E+00
          2   -1    0    0  501    0  0.00000000000E+00  0.00000000000E+00  0.16392675310E+04  0.16392675310E+04  0.00000000000E+00 0. -1.
         -2   -1    0    0    0  501 -0.00000000000E+00 -0.00000000000E+00 -0.63064772660E+01  0.63064772660E+01  0.00000000000E+00 0.  1.
         24    1    1    2    0    0 -0.30596813951E+02 -0.51603524625E+02  0.94986732749E+03  0.95515142494E+03  0.80419002446E+02 0. -1.
        -24    1    1    2    0    0  0.30596813951E+02  0.51603524625E+02  0.68309372620E+03  0.69042258328E+03  0.80419002446E+02 0.  1.
<mgrwt>
<rscale>  0 0.10033098E+03</rscale>
<asrwt>0</asrwt>
<pdfrwt beam="1">  1        2 0.25219467E+00 0.10033098E+03</pdfrwt>
<pdfrwt beam="2">  1       -2 0.97022857E-03 0.10033098E+03</pdfrwt>
<totfact> 0.24192602E+04</totfact>
</mgrwt>
</event>
<event>
 4    1  0.6602701E-002  0.1417803E+03  0.7546771E-02  0.1210953E+00
          2   -1    0    0  501    0  0.00000000000E+00  0.00000000000E+00  0.78724946165E+03  0.78724946165E+03  0.00000000000E+00 0. -1.
         -2   -1    0    0    0  501 -0.00000000000E+00 -0.00000000000E+00 -0.34733834263E+02  0.34733834263E+02  0.00000000000E+00 0.  1.
         24    1    1    2    0    0 -0.11655253882E+03 -0.70664318076E+01  0.58777522646E+03  0.60463324549E+03  0.80419002446E+02 0. -1.
        -24    1    1    2    0    0  0.11655253882E+03  0.70664318076E+01  0.16474040093E+03  0.21735005042E+03  0.80419002446E+02 0.  1.
<mgrwt>
<rscale>  0 0.14178027E+03</rscale>
<asrwt>0</asrwt>
<pdfrwt beam="1">  1        2 0.12111529E+00 0.14178027E+03</pdfrwt>
<pdfrwt beam="2">  1       -2 0.53436674E-02 0.14178027E+03</pdfrwt>
<totfact> 0.62112090E+03</totfact>
</mgrwt>
</event>
<event>
 4    1  0.6602701E-002  0.9666937E+02  0.7546771E-02  0.1287460E+00
         -2   -1    0    0    0  501 -0.00000000000E+00  0.00000000000E+00  0.98091337292E+02  0.98091337292E+02  0.00000000000E+00 0.  1.
          2   -1    0    0  501    0  0.00000000000E+00 -0.00000000000E+00 -0.10582759449E+03  0.10582759449E+03  0.00000000000E+00 0. -1.
         24    1    1    2    0    0  0.49928152562E+01 -0.53411819789E+02 -0.36075217557E+02  0.10318133539E+03  0.80419002446E+02 0. -1.
        -24    1    1    2    0    0 -0.49928152562E+01  0.53411819789E+02  0.28338960360E+02  0.10073759639E+03  0.80419002446E+02 0.  1.
<mgrwt>
<rscale>  0 0.96669368E+02</rscale>
<asrwt>0</asrwt>
<pdfrwt beam="1">  1        2 0.16281168E-01 0.96669368E+02</pdfrwt>
<pdfrwt beam="2">  1       -2 0.15090975E-01 0.96669368E+02</pdfrwt>
<totfact> 0.10894421E+04</totfact>
</mgrwt>
</event>
<event>
 4    1  0.6602701E-002  0.1238057E+03  0.7546771E-02  0.1236948E+00
          4   -1    0    0  501    0  0.00000000000E+00  0.00000000000E+00  0.81534377068E+03  0.81534377068E+03  0.00000000000E+00 0. -1.
         -4   -1    0    0    0  501 -0.00000000000E+00 -0.00000000000E+00 -0.27882328389E+02  0.27882328389E+02  0.00000000000E+00 0.  1.
         24    1    1    2    0    0  0.80563416635E+02  0.48684502532E+02  0.63436959100E+03  0.64633786739E+03  0.80419002446E+02 0. -1.
        -24    1    1    2    0    0 -0.80563416635E+02 -0.48684502532E+02  0.15309185129E+03  0.19688823168E+03  0.80419002446E+02 0.  1.
<mgrwt>
<rscale>  0 0.12380574E+03</rscale>
<asrwt>0</asrwt>
<pdfrwt beam="1">  1        4 0.12543749E+00 0.12380574E+03</pdfrwt>
<pdfrwt beam="2">  1       -4 0.42895896E-02 0.12380574E+03</pdfrwt>
<totfact> 0.25014504E+02</totfact>
</mgrwt>
</event>
<event>
 4    1  0.6602701E-002  0.1328343E+03  0.7546771E-02  0.1223310E+00
          2   -1    0    0  501    0  0.00000000000E+00  0.00000000000E+00  0.11748818988E+03  0.11748818988E+03  0.00000000000E+00 0. -1.
         -2   -1    0    0    0  501 -0.00000000000E+00 -0.00000000000E+00 -0.33094859284E+03  0.33094859284E+03  0.00000000000E+00 0.  1.
         24    1    1    2    0    0 -0.10235960313E+03  0.26462193143E+02  0.58978977769E+02  0.14533916125E+03  0.80419002446E+02 0. -1.
        -24    1    1    2    0    0  0.10235960313E+03 -0.26462193143E+02 -0.27243938073E+03  0.30309762148E+03  0.80419002446E+02 0.  1.
<mgrwt>
<rscale>  0 0.13283430E+03</rscale>
<asrwt>0</asrwt>
<pdfrwt beam="1">  1        2 0.18075106E-01 0.13283430E+03</pdfrwt>
<pdfrwt beam="2">  1       -2 0.50915168E-01 0.13283430E+03</pdfrwt>
<totfact> 0.11329864E+03</totfact>
</mgrwt>
</event>
<event>
 4    1  0.6602701E-002  0.8702661E+02  0.7546771E-02  0.1310216E+00
          2   -1    0    0  501    0  0.00000000000E+00  0.00000000000E+00  0.82866552701E+03  0.82866552701E+03  0.00000000000E+00 0. -1.
         -2   -1    0    0    0  501 -0.00000000000E+00 -0.00000000000E+00 -0.10532285808E+02  0.10532285808E+02  0.00000000000E+00 0.  1.
         24    1    1    2    0    0  0.23035768757E+02 -0.23995104311E+02  0.25648302306E+03  0.27084528562E+03  0.80419002446E+02 0.  0.
        -24    1    1    2    0    0 -0.23035768757E+02  0.23995104311E+02  0.56165021815E+03  0.56835252720E+03  0.80419002446E+02 0.  0.
<mgrwt>
<rscale>  0 0.87026602E+02</rscale>
<asrwt>0</asrwt>
<pdfrwt beam="1">  1        2 0.12748695E+00 0.87026613E+02</pdfrwt>
<pdfrwt beam="2">  1       -2 0.16203523E-02 0.87026613E+02</pdfrwt>
<totfact> 0.32206609E+04</totfact>
</mgrwt>
</event>
<event>
 4    1  0.6602701E-002  0.9047946E+02  0.7546771E-02  0.1301695E+00
          2   -1    0    0  501    0  0.00000000000E+00  0.00000000000E+00  0.24491327405E+03  0.24491327405E+03  0.00000000000E+00 0. -1.
         -2   -1    0    0    0  501 -0.00000000000E+00 -0.00000000000E+00 -0.36679442059E+02  0.36679442059E+02  0.00000000000E+00 0.  1.
         24    1    1    2    0    0 -0.29224146225E+02 -0.29415415190E+02  0.14604785998E+03  0.17180369825E+03  0.80419002446E+02 0. -1.
        -24    1    1    2    0    0  0.29224146225E+02  0.29415415190E+02  0.62185972013E+02  0.10978901786E+03  0.80419002446E+02 0.  1.
<mgrwt>
<rscale>  0 0.90479464E+02</rscale>
<asrwt>0</asrwt>
<pdfrwt beam="1">  1        2 0.37678964E-01 0.90479464E+02</pdfrwt>
<pdfrwt beam="2">  1       -2 0.56429912E-02 0.90479464E+02</pdfrwt>
<totfact> 0.19857763E+04</totfact>
</mgrwt>
</event>
<event>
 4    1  0.6602701E-002  0.9579956E+02  0.7546771E-02  0.1289385E+00
         -2   -1    0    0    0  501 -0.00000000000E+00  0.00000000000E+00  0.23803951531E+02  0.23803951531E+02  0.00000000000E+00 0.  1.
          2   -1    0    0  501    0  0.00000000000E+00 -0.00000000000E+00 -0.93113747932E+03  0.93113747932E+03  0.00000000000E+00 0. -1.
         24    1    1    2    0    0 -0.47170502253E+02  0.22029156368E+02 -0.81915465759E+03  0.82473747885E+03  0.80419002446E+02 0. -1.
        -24    1    1    2    0    0  0.47170502253E+02 -0.22029156368E+02 -0.88178870204E+02  0.13020395201E+03  0.80419002446E+02 0.  1.
<mgrwt>
<rscale>  0 0.95799561E+02</rscale>
<asrwt>0</asrwt>
<pdfrwt beam="1">  1        2 0.14325192E+00 0.95799561E+02</pdfrwt>
<pdfrwt beam="2">  1       -2 0.36621465E-02 0.95799561E+02</pdfrwt>
<totfact> 0.86153357E+03</totfact>
</mgrwt>
</event>
<event>
 4    1  0.6602701E-002  0.1700495E+03  0.7546771E-02  0.1177796E+00
          3   -1    0    0  501    0  0.00000000000E+00  0.00000000000E+00  0.14969884982E+03  0.14969884982E+03  0.00000000000E+00 0. -1.
         -3   -1    0    0    0  501 -0.00000000000E+00 -0.00000000000E+00 -0.30547365216E+03  0.30547365216E+03  0.00000000000E+00 0.  1.
         24    1    1    2    0    0  0.14860676123E+03  0.19122109573E+02 -0.21588208774E+03  0.27481251121E+03  0.80419002446E+02 0.  1.
        -24    1    1    2    0    0 -0.14860676123E+03 -0.19122109573E+02  0.60107285405E+02  0.18035999077E+03  0.80419002446E+02 0. -1.
<mgrwt>
<rscale>  0 0.17004952E+03</rscale>
<asrwt>0</asrwt>
<pdfrwt beam="1">  1        3 0.23030593E-01 0.17004952E+03</pdfrwt>
<pdfrwt beam="2">  1       -3 0.46995946E-01 0.17004952E+03</pdfrwt>
<totfact> 0.18926804E+02</totfact>
</mgrwt>
</event>
<event>
 4    1  0.6602701E-002  0.1022963E+03  0.7546771E-02  0.1275540E+00
          2   -1    0    0  501    0  0.00000000000E+00  0.00000000000E+00  0.12473272877E+03  0.12473272877E+03  0.00000000000E+00 0. -1.
         -2   -1    0    0    0  501 -0.00000000000E+00 -0.00000000000E+00 -0.10846657259E+03  0.10846657259E+03  0.00000000000E+00 0.  1.
         24    1    1    2    0    0  0.66825572084E+01 -0.62870126379E+02  0.63628938907E+02  0.12047060713E+03  0.80419002446E+02 0.  0.
        -24    1    1    2    0    0 -0.66825572084E+01  0.62870126379E+02 -0.47362782726E+02  0.11272869423E+03  0.80419002446E+02 0.  1.
<mgrwt>
<rscale>  0 0.10229626E+03</rscale>
<asrwt>0</asrwt>
<pdfrwt beam="1">  1        2 0.19189651E-01 0.10229626E+03</pdfrwt>
<pdfrwt beam="2">  1       -2 0.16687165E-01 0.10229626E+03</pdfrwt>
<totfact> 0.77082147E+03</totfact>
</mgrwt>
</event>
<event>
 4    1  0.6602701E-002  0.8844061E+02  0.7546771E-02  0.1306673E+00
         -1   -1    0    0    0  501 -0.00000000000E+00  0.00000000000E+00  0.74674693047E+02  0.74674693047E+02  0.00000000000E+00 0.  1.
          1   -1    0    0  501    0  0.00000000000E+00 -0.00000000000E+00 -0.14768078928E+03  0.14768078928E+03  0.00000000000E+00 0. -1.
         24    1    1    2    0    0  0.13285463600E+02  0.34322336121E+02  0.23444238295E+02  0.91495216069E+02  0.80419002446E+02 0.  1.
        -24    1    1    2    0    0 -0.13285463600E+02 -0.34322336121E+02 -0.96450334524E+02  0.13086026625E+03  0.80419002446E+02 0.  1.
<mgrwt>
<rscale>  0 0.88440614E+02</rscale>
<asrwt>0</asrwt>
<pdfrwt beam="1">  1        1 0.22720121E-01 0.88440614E+02</pdfrwt>
<pdfrwt beam="2">  1       -1 0.11488414E-01 0.88440614E+02</pdfrwt>
<totfact> 0.96322377E+03</totfact>
</mgrwt>
</event>
<event>
 4    1  0.6602701E-002  0.8662590E+02  0.7546771E-02  0.1311235E+00
          2   -1    0    0  501    0  0.00000000000E+00  0.00000000000E+00  0.66564719847E+02  0.66564719847E+02  0.00000000000E+00 0. -1.
         -2   -1    0    0    0  501 -0.00000000000E+00 -0.00000000000E+00 -0.11754387097E+03  0.11754387097E+03  0.00000000000E+00 0.  1.
         24    1    1    2    0    0 -0.29473240518E+01  0.32064679279E+02 -0.68664741985E+01  0.86897611006E+02  0.80419002446E+02 0.  0.
        -24    1    1    2    0    0  0.29473240518E+01 -0.32064679279E+02 -0.44112676929E+02  0.97210979815E+02  0.80419002446E+02 0. -1.
<mgrwt>
<rscale>  0 0.86625899E+02</rscale>
<asrwt>0</asrwt>
<pdfrwt beam="1">  1        2 0.10240726E-01 0.86625899E+02</pdfrwt>
<pdfrwt beam="2">  1       -2 0.18083672E-01 0.86625899E+02</pdfrwt>
<totfact> 0.13833564E+04</totfact>
</mgrwt>
</event>
<event>
 4    1  0.6602701E-002  0.1624856E+03  0.7546771E-02  0.1185919E+00
          2   -1    0    0  501    0  0.00000000000E+00  0.00000000000E+00  0.94636389420E+02  0.94636389420E+02  0.00000000000E+00 0. -1.
         -2   -1    0    0    0  501 -0.00000000000E+00 -0.00000000000E+00 -0.35305934629E+03  0.35305934629E+03  0.00000000000E+00 0.  1.
         24    1    1    2    0    0 -0.14082728994E+03 -0.10101686374E+02 -0.26674626926E+02  0.16466062473E+03  0.80419002446E+02 0. -1.
        -24    1    1    2    0    0  0.14082728994E+03  0.10101686374E+02 -0.23174832994E+03  0.28303511098E+03  0.80419002446E+02 0.  1.
<mgrwt>
<rscale>  0 0.16248565E+03</rscale>
<asrwt>0</asrwt>
<pdfrwt beam="1">  1        2 0.14559445E-01 0.16248565E+03</pdfrwt>
<pdfrwt beam="2">  1       -2 0.54316823E-01 0.16248565E+03</pdfrwt>
<totfact> 0.12890535E+03</totfact>
</mgrwt>
</event>
<event>
 4    1  0.6602701E-002  0.1152127E+03  0.7546771E-02  0.1251210E+00
         -1   -1    0    0    0  501 -0.00000000000E+00  0.00000000000E+00  0.80939476944E+01  0.80939476944E+01  0.00000000000E+00 0.  1.
          1   -1    0    0  501    0  0.00000000000E+00 -0.00000000000E+00 -0.19016961323E+04  0.19016961323E+04  0.00000000000E+00 0. -1.
         24    1    1    2    0    0  0.44017879949E+02  0.69779422137E+02 -0.59256264383E+03  0.60365921208E+03  0.80419002446E+02 0. -1.
        -24    1    1    2    0    0 -0.44017879949E+02 -0.69779422137E+02 -0.13010395408E+04  0.13061308679E+04  0.80419002446E+02 0.  0.
<mgrwt>
<rscale>  0 0.11521266E+03</rscale>
<asrwt>0</asrwt>
<pdfrwt beam="1">  1        1 0.29256870E+00 0.11521266E+03</pdfrwt>
<pdfrwt beam="2">  1       -1 0.12452224E-02 0.11521266E+03</pdfrwt>
<totfact> 0.52543783E+03</totfact>
</mgrwt>
</event>
<event>
 4    1  0.6602701E-002  0.1019142E+03  0.7546771E-02  0.1276321E+00
         -1   -1    0    0    0  501 -0.00000000000E+00  0.00000000000E+00  0.47197249779E+03  0.47197249779E+03  0.00000000000E+00 0.  1.
          1   -1    0    0  501    0  0.00000000000E+00 -0.00000000000E+00 -0.86145543967E+02  0.86145543967E+02  0.00000000000E+00 0. -1.
         24    1    1    2    0    0  0.33966373241E+02 -0.52588677836E+02  0.43370469012E+03  0.44551796567E+03  0.80419002446E+02 0.  1.
        -24    1    1    2    0    0 -0.33966373241E+02  0.52588677836E+02 -0.47877736297E+02  0.11260007609E+03  0.80419002446E+02 0. -1.
<mgrwt>
<rscale>  0 0.10191418E+03</rscale>
<asrwt>0</asrwt>
<pdfrwt beam="1">  1        1 0.13253161E-01 0.10191418E+03</pdfrwt>
<pdfrwt beam="2">  1       -1 0.72611152E-01 0.10191418E+03</pdfrwt>
<totfact> 0.85986363E+02</totfact>
</mgrwt>
</event>
<event>
 4    1  0.7143458E-002  0.1009883E+03  0.7546771E-02  0.1278231E+00
          1   -1    0    0  501    0  0.00000000000E+00  0.00000000000E+00  0.34680838153E+03  0.34680838153E+03  0.00000000000E+00 0. -1.
         -1   -1    0    0    0  501 -0.00000000000E+00 -0.00000000000E+00 -0.71027183288E+02  0.71027183288E+02  0.00000000000E+00 0.  1.
         24    1    1    2    0    0  0.60014293615E+02 -0.11389025144E+02 -0.22033677567E+02  0.10336403743E+03  0.80419002446E+02 0.  1.
        -24    1    1    2    0    0 -0.60014293615E+02  0.11389025144E+02  0.29781487581E+03  0.31447152739E+03  0.80419002446E+02 0. -1.
<mgrwt>
<rscale>  0 0.10098832E+03</rscale>
<asrwt>0</asrwt>
<pdfrwt beam="1">  1        1 0.53355135E-01 0.10098832E+03</pdfrwt>
<pdfrwt beam="2">  1       -1 0.10927259E-01 0.10098832E+03</pdfrwt>
<totfact> 0.36763111E+03</totfact>
</mgrwt>
</event>
<event>
 4    1  0.6602701E-002  0.8309693E+02  0.7546771E-02  0.1320486E+00
         -2   -1    0    0    0  501 -0.00000000000E+00  0.00000000000E+00  0.93914926918E+01  0.93914926918E+01  0.00000000000E+00 0.  1.
          2   -1    0    0  501    0  0.00000000000E+00 -0.00000000000E+00 -0.20089834989E+04  0.20089834989E+04  0.00000000000E+00 0. -1.
         24    1    1    2    0    0 -0.16902413414E+02 -0.12336594928E+02 -0.18033644714E+04  0.18052779608E+04  0.80419002446E+02 0.  0.
        -24    1    1    2    0    0  0.16902413414E+02  0.12336594928E+02 -0.19622753482E+03  0.21309703078E+03  0.80419002446E+02 0.  0.
<mgrwt>
<rscale>  0 0.83096926E+02</rscale>
<asrwt>0</asrwt>
<pdfrwt beam="1">  1        2 0.30907444E+00 0.83096926E+02</pdfrwt>
<pdfrwt beam="2">  1       -2 0.14448448E-02 0.83096926E+02</pdfrwt>
<totfact> 0.88708025E+03</totfact>
</mgrwt>
</event>
<event>
 4    1  0.6602701E-002  0.1194139E+03  0.7546771E-02  0.1244067E+00
         -2   -1    0    0    0  501 -0.00000000000E+00  0.00000000000E+00  0.12587177075E+02  0.12587177075E+02  0.00000000000E+00 0.  1.
          2   -1    0    0  501    0  0.00000000000E+00 -0.00000000000E+00 -0.22280796877E+04  0.22280796877E+04  0.00000000000E+00 0. -1.
         24    1    1    2    0    0  0.35163250795E+02 -0.80969135957E+02 -0.18932169928E+04  0.18969792442E+04  0.80419002446E+02 0. -1.
        -24    1    1    2    0    0 -0.35163250795E+02  0.80969135957E+02 -0.32227551780E+03  0.34368762054E+03  0.80419002446E+02 0.  1.
<mgrwt>
<rscale>  0 0.11941386E+03</rscale>
<asrwt>0</asrwt>
<pdfrwt beam="1">  1        2 0.34278132E+00 0.11941386E+03</pdfrwt>
<pdfrwt beam="2">  1       -2 0.19364897E-02 0.11941386E+03</pdfrwt>
<totfact> 0.45497236E+03</totfact>
</mgrwt>
</event>
<event>
 4    1  0.6602701E-002  0.1084604E+03  0.7546771E-02  0.1263448E+00
         -2   -1    0    0    0  501 -0.00000000000E+00  0.00000000000E+00  0.14238238168E+03  0.14238238168E+03  0.00000000000E+00 0.  1.
          2   -1    0    0  501    0  0.00000000000E+00 -0.00000000000E+00 -0.28414659005E+03  0.28414659005E+03  0.00000000000E+00 0. -1.
         24    1    1    2    0    0 -0.38608023151E+02 -0.61691714012E+02 -0.25048497006E+03  0.27295857417E+03  0.80419002446E+02 0. -1.
        -24    1    1    2    0    0  0.38608023151E+02  0.61691714012E+02  0.10872076169E+03  0.15357039756E+03  0.80419002446E+02 0.  1.
<mgrwt>
<rscale>  0 0.10846042E+03</rscale>
<asrwt>0</asrwt>
<pdfrwt beam="1">  1        2 0.43714860E-01 0.10846042E+03</pdfrwt>
<pdfrwt beam="2">  1       -2 0.21904982E-01 0.10846042E+03</pdfrwt>
<totfact> 0.20140996E+03</totfact>
</mgrwt>
</event>
<event>
 4    1  0.6602701E-002  0.8477068E+02  0.7546771E-02  0.1316033E+00
         -3   -1    0    0    0  501 -0.00000000000E+00  0.00000000000E+00  0.73767042882E+02  0.73767042882E+02  0.00000000000E+00 0.  1.
          3   -1    0    0  501    0  0.00000000000E+00 -0.00000000000E+00 -0.11462266658E+03  0.11462266658E+03  0.00000000000E+00 0. -1.
         24    1    1    2    0    0 -0.20737246499E+02  0.16994694273E+02  0.16068076319E+02  0.86280079142E+02  0.80419002446E+02 0.  1.
        -24    1    1    2    0    0  0.20737246499E+02 -0.16994694273E+02 -0.56923700015E+02  0.10210963032E+03  0.80419002446E+02 0. -1.
<mgrwt>
<rscale>  0 0.84770685E+02</rscale>
<asrwt>0</asrwt>
<pdfrwt beam="1">  1        3 0.17634256E-01 0.84770685E+02</pdfrwt>
<pdfrwt beam="2">  1       -3 0.11348776E-01 0.84770685E+02</pdfrwt>
<totfact> 0.34642559E+03</totfact>
</mgrwt>
</event>
<event>
 4    1  0.6602701E-002  0.1138102E+03  0.7546771E-02  0.1253672E+00
          2   -1    0    0  501    0  0.00000000000E+00  0.00000000000E+00  0.11653528521E+03  0.11653528521E+03  0.00000000000E+00 0. -1.
         -2   -1    0    0    0  501 -0.00000000000E+00 -0.00000000000E+00 -0.11393957083E+03  0.11393957083E+03  0.00000000000E+00 0.  1.
         24    1    1    2    0    0  0.74348878296E+02 -0.30947999955E+02  0.19333136014E+02  0.11544054967E+03  0.80419002446E+02 0. -1.
        -24    1    1    2    0    0 -0.74348878296E+02  0.30947999955E+02 -0.16737421629E+02  0.11503430637E+03  0.80419002446E+02 0.  1.
<mgrwt>
<rscale>  0 0.11381015E+03</rscale>
<asrwt>0</asrwt>
<pdfrwt beam="1">  1        2 0.17928505E-01 0.11381015E+03</pdfrwt>
<pdfrwt beam="2">  1       -2 0.17529165E-01 0.11381015E+03</pdfrwt>
<totfact> 0.77433190E+03</totfact>
</mgrwt>
</event>
<event>
 4    1  0.6602701E-002  0.8288785E+02  0.7546771E-02  0.1321050E+00
         -2   -1    0    0    0  501 -0.00000000000E+00  0.00000000000E+00  0.43803579328E+02  0.43803579328E+02  0.00000000000E+00 0.  1.
          2   -1    0    0  501    0  0.00000000000E+00 -0.00000000000E+00 -0.20605990775E+03  0.20605990775E+03  0.00000000000E+00 0. -1.
         24    1    1    2    0    0 -0.16125426862E+02 -0.11964514462E+02 -0.14218328805E+03  0.16457971428E+03  0.80419002446E+02 0. -1.
        -24    1    1    2    0    0  0.16125426862E+02  0.11964514462E+02 -0.20073040367E+02  0.85283772793E+02  0.80419002446E+02 0.  1.
<mgrwt>
<rscale>  0 0.82887846E+02</rscale>
<asrwt>0</asrwt>
<pdfrwt beam="1">  1        2 0.31701524E-01 0.82887846E+02</pdfrwt>
<pdfrwt beam="2">  1       -2 0.67390123E-02 0.82887846E+02</pdfrwt>
<totfact> 0.18086291E+04</totfact>
</mgrwt>
</event>
<event>
 4    1  0.6602701E-002  0.8047282E+02  0.7546771E-02  0.1327715E+00
         -2   -1    0    0    0  501 -0.00000000000E+00  0.00000000000E+00  0.10160784836E+02  0.10160784836E+02  0.00000000000E+00 0.  1.
          2   -1    0    0  501    0  0.00000000000E+00 -0.00000000000E+00 -0.11304224405E+04  0.11304224405E+04  0.00000000000E+00 0. -1.
         24    1    1    2    0    0  0.11693313566E+01 -0.27003733050E+01 -0.93677941037E+03  0.94022951400E+03  0.80419002446E+02 0.  0.
        -24    1    1    2    0    0 -0.11693313566E+01  0.27003733050E+01 -0.18348224526E+03  0.20035371130E+03  0.80419002446E+02 0.  1.
<mgrwt>
<rscale>  0 0.80472823E+02</rscale>
<asrwt>0</asrwt>
<pdfrwt beam="1">  1        2 0.17391116E+00 0.80472823E+02</pdfrwt>
<pdfrwt beam="2">  1       -2 0.15631975E-02 0.80472823E+02</pdfrwt>
<totfact> 0.22279266E+04</totfact>
</mgrwt>
</event>
<event>
 4    1  0.6602701E-002  0.9839176E+02  0.7546771E-02  0.1283715E+00
          2   -1    0    0  501    0  0.00000000000E+00  0.00000000000E+00  0.19172861906E+04  0.19172861906E+04  0.00000000000E+00 0. -1.
         -2   -1    0    0    0  501 -0.00000000000E+00 -0.00000000000E+00 -0.61969332828E+01  0.61969332828E+01  0.00000000000E+00 0.  1.
         24    1    1    2    0    0  0.51839558973E+02  0.22943024224E+02  0.13694232745E+04  0.13729534015E+04  0.80419002446E+02 0. -1.
        -24    1    1    2    0    0 -0.51839558973E+02 -0.22943024224E+02  0.54166598286E+03  0.55052972233E+03  0.80419002446E+02 0.  1.
<mgrwt>
<rscale>  0 0.98391759E+02</rscale>
<asrwt>0</asrwt>
<pdfrwt beam="1">  1        2 0.29496663E+00 0.98391759E+02</pdfrwt>
<pdfrwt beam="2">  1       -2 0.95337588E-03 0.98391759E+02</pdfrwt>
<totfact> 0.17938196E+04</totfact>
</mgrwt>
</event>
<event>
 4    1  0.6602701E-002  0.8335317E+02  0.7546771E-02  0.1319796E+00
         -3   -1    0    0    0  501 -0.00000000000E+00  0.00000000000E+00  0.13161542619E+02  0.13161542619E+02  0.00000000000E+00 0.  1.
          3   -1    0    0  501    0  0.00000000000E+00 -0.00000000000E+00 -0.96982217417E+03  0.96982217417E+03  0.00000000000E+00 0. -1.
         24    1    1    2    0    0  0.88145996698E+01 -0.20070815673E+02 -0.14654919761E+03  0.16859542723E+03  0.80419002446E+02 0.  1.
        -24    1    1    2    0    0 -0.88145996698E+01  0.20070815673E+02 -0.81011143394E+03  0.81438828956E+03  0.80419002446E+02 0.  0.
<mgrwt>
<rscale>  0 0.83353169E+02</rscale>
<asrwt>0</asrwt>
<pdfrwt beam="1">  1        3 0.14920344E+00 0.83353169E+02</pdfrwt>
<pdfrwt beam="2">  1       -3 0.20248524E-02 0.83353169E+02</pdfrwt>
<totfact> 0.69771407E+02</totfact>
</mgrwt>
</event>
<event>
 4    1  0.6602701E-002  0.1059624E+03  0.7546771E-02  0.1268235E+00
          1   -1    0    0  501    0  0.00000000000E+00  0.00000000000E+00  0.16659599264E+03  0.16659599264E+03  0.00000000000E+00 0. -1.
         -1   -1    0    0    0  501 -0.00000000000E+00 -0.00000000000E+00 -0.13888648613E+03  0.13888648613E+03  0.00000000000E+00 0.  1.
         24    1    1    2    0    0  0.21952454119E+02  0.65413318602E+02 -0.95729502520E+02  0.14280114180E+03  0.80419002446E+02 0.  1.
        -24    1    1    2    0    0 -0.21952454119E+02 -0.65413318602E+02  0.12343900904E+03  0.16268133697E+03  0.80419002446E+02 0. -1.
<mgrwt>
<rscale>  0 0.10596239E+03</rscale>
<asrwt>0</asrwt>
<pdfrwt beam="1">  1        1 0.25630153E-01 0.10596239E+03</pdfrwt>
<pdfrwt beam="2">  1       -1 0.21367152E-01 0.10596239E+03</pdfrwt>
<totfact> 0.31915201E+03</totfact>
</mgrwt>
</event>
<event>
 4    1  0.6602701E-002  0.1571764E+03  0.7546771E-02  0.1191922E+00
          2   -1    0    0  501    0  0.00000000000E+00  0.00000000000E+00  0.89709902122E+03  0.89709902122E+03  0.00000000000E+00 0. -1.
         -2   -1    0    0    0  501 -0.00000000000E+00 -0.00000000000E+00 -0.40590714489E+02  0.40590714489E+02  0.00000000000E+00 0.  1.
         24    1    1    2    0    0  0.10151372561E+03 -0.89062652236E+02  0.69412117137E+03  0.71169418222E+03  0.80419002446E+02 0. -1.
        -24    1    1    2    0    0 -0.10151372561E+03  0.89062652236E+02  0.16238713537E+03  0.22599555349E+03  0.80419002446E+02 0.  1.
<mgrwt>
<rscale>  0 0.15717636E+03</rscale>
<asrwt>0</asrwt>
<pdfrwt beam="1">  1        2 0.13801522E+00 0.15717636E+03</pdfrwt>
<pdfrwt beam="2">  1       -2 0.62447260E-02 0.15717636E+03</pdfrwt>
<totfact> 0.41694206E+03</totfact>
</mgrwt>
</event>
<event>
 4    1  0.6602701E-002  0.8469398E+02  0.7546771E-02  0.1316235E+00
         -4   -1    0    0    0  501 -0.00000000000E+00  0.00000000000E+00  0.35313064832E+03  0.35313064832E+03  0.00000000000E+00 0.  1.
          4   -1    0    0  501    0  0.00000000000E+00 -0.00000000000E+00 -0.44647324222E+02  0.44647324222E+02  0.00000000000E+00 0. -1.
         24    1    1    2    0    0  0.25212469249E+02  0.83776683626E+01  0.74083803962E+01  0.85017374620E+02  0.80419002446E+02 0. -1.
        -24    1    1    2    0    0 -0.25212469249E+02 -0.83776683626E+01  0.30107494370E+03  0.31276059792E+03  0.80419002446E+02 0.  1.
<mgrwt>
<rscale>  0 0.84693978E+02</rscale>
<asrwt>0</asrwt>
<pdfrwt beam="1">  1        4 0.68688193E-02 0.84693978E+02</pdfrwt>
<pdfrwt beam="2">  1       -4 0.54327790E-01 0.84693978E+02</pdfrwt>
<totfact> 0.69182876E+02</totfact>
</mgrwt>
</event>
<event>
 4    1  0.6602701E-002  0.8471549E+02  0.7546771E-02  0.1316178E+00
          2   -1    0    0  501    0  0.00000000000E+00  0.00000000000E+00  0.38960887036E+02  0.38960887036E+02  0.00000000000E+00 0. -1.
         -2   -1    0    0    0  501 -0.00000000000E+00 -0.00000000000E+00 -0.29503563940E+03  0.29503563940E+03  0.00000000000E+00 0.  1.
         24    1    1    2    0    0 -0.11668977537E+02 -0.23944390218E+02 -0.25682526599E+02  0.88522917860E+02  0.80419002446E+02 0. -1.
        -24    1    1    2    0    0  0.11668977537E+02  0.23944390218E+02 -0.23039222576E+03  0.24547360857E+03  0.80419002446E+02 0.  1.
<mgrwt>
<rscale>  0 0.84715493E+02</rscale>
<asrwt>0</asrwt>
<pdfrwt beam="1">  1        2 0.59939826E-02 0.84715493E+02</pdfrwt>
<pdfrwt beam="2">  1       -2 0.45390098E-01 0.84715493E+02</pdfrwt>
<totfact> 0.52451064E+03</totfact>
</mgrwt>
</event>
<event>
 4    1  0.6602701E-002  0.8834784E+02  0.7546771E-02  0.1306903E+00
          4   -1    0    0  501    0  0.00000000000E+00  0.00000000000E+00  0.86722218593E+01  0.86722218593E+01  0.00000000000E+00 0. -1.
         -4   -1    0    0    0  501 -0.00000000000E+00 -0.00000000000E+00 -0.15971573881E+04  0.15971573881E+04  0.00000000000E+00 0.  1.
         24    1    1    2    0    0  0.20808363210E+02  0.30085506170E+02 -0.26378734299E+03  0.27818897163E+03  0.80419002446E+02 0. -1.
        -24    1    1    2    0    0 -0.20808363210E+02 -0.30085506170E+02 -0.13246978232E+04  0.13276406383E+04  0.80419002446E+02 0.  1.
<mgrwt>
<rscale>  0 0.88347844E+02</rscale>
<asrwt>0</asrwt>
<pdfrwt beam="1">  1        4 0.13341874E-02 0.88347844E+02</pdfrwt>
<pdfrwt beam="2">  1       -4 0.24571664E+00 0.88347844E+02</pdfrwt>
<totfact> 0.22982460E+02</totfact>
</mgrwt>
</event>
<event>
 4    1  0.6602701E-002  0.1923671E+03  0.7546771E-02  0.1156344E+00
         -2   -1    0    0    0  501 -0.00000000000E+00  0.00000000000E+00  0.19830482387E+02  0.19830482387E+02  0.00000000000E+00 0.  1.
          2   -1    0    0  501    0  0.00000000000E+00 -0.00000000000E+00 -0.18876391895E+04  0.18876391895E+04  0.00000000000E+00 0. -1.
         24    1    1    2    0    0 -0.12118420515E+03 -0.12590583621E+03 -0.10358492148E+04  0.10535600139E+04  0.80419002446E+02 0. -1.
        -24    1    1    2    0    0  0.12118420515E+03  0.12590583621E+03 -0.83195949232E+03  0.85390965798E+03  0.80419002446E+02 0.  1.
<mgrwt>
<rscale>  0 0.19236712E+03</rscale>
<asrwt>0</asrwt>
<pdfrwt beam="1">  1        2 0.29040595E+00 0.19236712E+03</pdfrwt>
<pdfrwt beam="2">  1       -2 0.30508443E-02 0.19236712E+03</pdfrwt>
<totfact> 0.35133635E+03</totfact>
</mgrwt>
</event>
<event>
 4    1  0.6602701E-002  0.1215330E+03  0.7546771E-02  0.1240589E+00
          2   -1    0    0  501    0  0.00000000000E+00  0.00000000000E+00  0.90659142115E+02  0.90659142115E+02  0.00000000000E+00 0. -1.
         -2   -1    0    0    0  501 -0.00000000000E+00 -0.00000000000E+00 -0.39822746089E+03  0.39822746089E+03  0.00000000000E+00 0.  1.
         24    1    1    2    0    0 -0.90070530969E+02  0.13796654190E+02  0.34117063290E+02  0.12623089233E+03  0.80419002446E+02 0. -1.
        -24    1    1    2    0    0  0.90070530969E+02 -0.13796654190E+02 -0.34168538207E+03  0.36265571068E+03  0.80419002446E+02 0.  1.
<mgrwt>
<rscale>  0 0.12153298E+03</rscale>
<asrwt>0</asrwt>
<pdfrwt beam="1">  1        2 0.13947560E-01 0.12153298E+03</pdfrwt>
<pdfrwt beam="2">  1       -2 0.61265764E-01 0.12153298E+03</pdfrwt>
<totfact> 0.10495818E+03</totfact>
</mgrwt>
</event>
<event>
 4    1  0.6602701E-002  0.1394872E+03  0.7546771E-02  0.1214021E+00
          2   -1    0    0  501    0  0.00000000000E+00  0.00000000000E+00  0.37578163018E+03  0.37578163018E+03  0.00000000000E+00 0. -1.
         -2   -1    0    0    0  501 -0.00000000000E+00 -0.00000000000E+00 -0.27689555585E+03  0.27689555585E+03  0.00000000000E+00 0.  1.
         24    1    1    2    0    0 -0.94086234428E+02  0.64321448343E+02  0.34369305992E+03  0.37091994233E+03  0.80419002446E+02 0. -1.
        -24    1    1    2    0    0  0.94086234428E+02 -0.64321448343E+02 -0.24480698559E+03  0.28175724369E+03  0.80419002446E+02 0.  1.
<mgrwt>
<rscale>  0 0.13948722E+03</rscale>
<asrwt>0</asrwt>
<pdfrwt beam="1">  1        2 0.57812559E-01 0.13948722E+03</pdfrwt>
<pdfrwt beam="2">  1       -2 0.42599316E-01 0.13948722E+03</pdfrwt>
<totfact> 0.45406269E+02</totfact>
</mgrwt>
</event>
<event>
 4    1  0.6602701E-002  0.2032402E+03  0.7546771E-02  0.1147034E+00
         -2   -1    0    0    0  501 -0.00000000000E+00  0.00000000000E+00  0.14655066340E+02  0.14655066340E+02  0.00000000000E+00 0.  1.
          2   -1    0    0  501    0  0.00000000000E+00 -0.00000000000E+00 -0.31034307933E+04  0.31034307933E+04  0.00000000000E+00 0. -1.
         24    1    1    2    0    0  0.37372707642E+02  0.18287328409E+03 -0.10720630684E+04  0.10911580069E+04  0.80419002446E+02 0.  1.
        -24    1    1    2    0    0 -0.37372707642E+02 -0.18287328409E+03 -0.20167126585E+04  0.20269278528E+04  0.80419002446E+02 0. -1.
<mgrwt>
<rscale>  0 0.20324021E+03</rscale>
<asrwt>0</asrwt>
<pdfrwt beam="1">  1        2 0.47745147E+00 0.20324024E+03</pdfrwt>
<pdfrwt beam="2">  1       -2 0.22546229E-02 0.20324024E+03</pdfrwt>
<totfact> 0.11857585E+03</totfact>
</mgrwt>
</event>
<event>
 4    1  0.6602701E-002  0.8790625E+02  0.7546771E-02  0.1308003E+00
         -1   -1    0    0    0  501 -0.00000000000E+00  0.00000000000E+00  0.86926839380E+02  0.86926839380E+02  0.00000000000E+00 0.  1.
          1   -1    0    0  501    0  0.00000000000E+00 -0.00000000000E+00 -0.12014481487E+03  0.12014481487E+03  0.00000000000E+00 0. -1.
         24    1    1    2    0    0 -0.33832491712E+02  0.10754290458E+02  0.36192982515E+02  0.95065452171E+02  0.80419002446E+02 0.  1.
        -24    1    1    2    0    0  0.33832491712E+02 -0.10754290458E+02 -0.69410958007E+02  0.11200620208E+03  0.80419002446E+02 0. -1.
<mgrwt>
<rscale>  0 0.87906247E+02</rscale>
<asrwt>0</asrwt>
<pdfrwt beam="1">  1        1 0.18483817E-01 0.87906247E+02</pdfrwt>
<pdfrwt beam="2">  1       -1 0.13373360E-01 0.87906247E+02</pdfrwt>
<totfact> 0.98827761E+03</totfact>
</mgrwt>
</event>
<event>
 4    1  0.6602701E-002  0.9468207E+02  0.7546771E-02  0.1291894E+00
          2   -1    0    0  501    0  0.00000000000E+00  0.00000000000E+00  0.16703338170E+03  0.16703338170E+03  0.00000000000E+00 0. -1.
         -2   -1    0    0    0  501 -0.00000000000E+00 -0.00000000000E+00 -0.10885522928E+03  0.10885522928E+03  0.00000000000E+00 0.  1.
         24    1    1    2    0    0  0.12185710242E+02  0.48466352589E+02  0.12730688538E+03  0.15865603640E+03  0.80419002446E+02 0. -1.
        -24    1    1    2    0    0 -0.12185710242E+02 -0.48466352589E+02 -0.69128732965E+02  0.11723257458E+03  0.80419002446E+02 0.  1.
<mgrwt>
<rscale>  0 0.94682072E+02</rscale>
<asrwt>0</asrwt>
<pdfrwt beam="1">  1        2 0.25697443E-01 0.94682072E+02</pdfrwt>
<pdfrwt beam="2">  1       -2 0.16746958E-01 0.94682072E+02</pdfrwt>
<totfact> 0.55139492E+03</totfact>
</mgrwt>
</event>
<event>
 4    1  0.6602701E-002  0.8654036E+02  0.7546771E-02  0.1311453E+00
         -2   -1    0    0    0  501 -0.00000000000E+00  0.00000000000E+00  0.28396352685E+01  0.28396352685E+01  0.00000000000E+00 0.  1.
          2   -1    0    0  501    0  0.00000000000E+00 -0.00000000000E+00 -0.28378029342E+04  0.28378029342E+04  0.00000000000E+00 0. -1.
         24    1    1    2    0    0  0.22806628580E+01 -0.31887557337E+02 -0.17949280499E+04  0.17970130601E+04  0.80419002446E+02 0.  0.
        -24    1    1    2    0    0 -0.22806628580E+01  0.31887557337E+02 -0.10400352490E+04  0.10436295094E+04  0.80419002446E+02 0.  0.
<mgrwt>
<rscale>  0 0.86540359E+02</rscale>
<asrwt>0</asrwt>
<pdfrwt beam="1">  1        2 0.43658786E+00 0.86540359E+02</pdfrwt>
<pdfrwt beam="2">  1       -2 0.43686417E-03 0.86540359E+02</pdfrwt>
<totfact> 0.17716565E+04</totfact>
</mgrwt>
</event>
<event>
 4    1  0.6602701E-002  0.1048296E+03  0.7546771E-02  0.1270456E+00
          1   -1    0    0  501    0  0.00000000000E+00  0.00000000000E+00  0.21477442176E+04  0.21477442176E+04  0.00000000000E+00 0. -1.
         -1   -1    0    0    0  501 -0.00000000000E+00 -0.00000000000E+00 -0.59191966465E+01  0.59191966465E+01  0.00000000000E+00 0.  1.
         24    1    1    2    0    0 -0.64696708016E+02 -0.18340541212E+02  0.67440483842E+03  0.68250358352E+03  0.80419002446E+02 0.  0.
        -24    1    1    2    0    0  0.64696708016E+02  0.18340541212E+02  0.14674201826E+04  0.14711598308E+04  0.80419002446E+02 0.  0.
<mgrwt>
<rscale>  0 0.10482965E+03</rscale>
<asrwt>0</asrwt>
<pdfrwt beam="1">  1        1 0.33042157E+00 0.10482965E+03</pdfrwt>
<pdfrwt beam="2">  1       -1 0.91064735E-03 0.10482965E+03</pdfrwt>
<totfact> 0.57119215E+03</totfact>
</mgrwt>
</event>
<event>
 4    1  0.6602701E-002  0.8286032E+02  0.7546771E-02  0.1321125E+00
         -2   -1    0    0    0  501 -0.00000000000E+00  0.00000000000E+00  0.12624520922E+02  0.12624520922E+02  0.00000000000E+00 0.  1.
          2   -1    0    0  501    0  0.00000000000E+00 -0.00000000000E+00 -0.36665331865E+04  0.36665331865E+04  0.00000000000E+00 0. -1.
         24    1    1    2    0    0 -0.13665359932E+02 -0.14555897275E+02 -0.35246296545E+04  0.35256034992E+04  0.80419002446E+02 0. -1.
        -24    1    1    2    0    0  0.13665359932E+02  0.14555897275E+02 -0.12927901114E+03  0.15355420829E+03  0.80419002446E+02 0.  1.
<mgrwt>
<rscale>  0 0.82860317E+02</rscale>
<asrwt>0</asrwt>
<pdfrwt beam="1">  1        2 0.56408192E+00 0.82860317E+02</pdfrwt>
<pdfrwt beam="2">  1       -2 0.19422343E-02 0.82860317E+02</pdfrwt>
<totfact> 0.68387398E+02</totfact>
</mgrwt>
</event>
<event>
 4    1  0.6602701E-002  0.1632762E+03  0.7546771E-02  0.1185047E+00
         -3   -1    0    0    0  501 -0.00000000000E+00  0.00000000000E+00  0.38121970395E+03  0.38121970395E+03  0.00000000000E+00 0.  1.
          3   -1    0    0  501    0  0.00000000000E+00 -0.00000000000E+00 -0.99116980658E+02  0.99116980658E+02  0.00000000000E+00 0. -1.
         24    1    1    2    0    0  0.14162219960E+03  0.11621529573E+02  0.27137642143E+03  0.31670851809E+03  0.80419002446E+02 0.  1.
        -24    1    1    2    0    0 -0.14162219960E+03 -0.11621529573E+02  0.10726301856E+02  0.16362816651E+03  0.80419002446E+02 0. -1.
<mgrwt>
<rscale>  0 0.16327622E+03</rscale>
<asrwt>0</asrwt>
<pdfrwt beam="1">  1        3 0.15248766E-01 0.16327622E+03</pdfrwt>
<pdfrwt beam="2">  1       -3 0.58649185E-01 0.16327622E+03</pdfrwt>
<totfact> 0.24848302E+02</totfact>
</mgrwt>
</event>
<event>
 4    1  0.6602701E-002  0.1002444E+03  0.7546771E-02  0.1279783E+00
          1   -1    0    0  501    0  0.00000000000E+00  0.00000000000E+00  0.85798286963E+03  0.85798286963E+03  0.00000000000E+00 0. -1.
         -1   -1    0    0    0  501 -0.00000000000E+00 -0.00000000000E+00 -0.14518436197E+02  0.14518436197E+02  0.00000000000E+00 0.  1.
         24    1    1    2    0    0  0.58013959686E+02 -0.14700264264E+02  0.22993941499E+03  0.25084072199E+03  0.80419002446E+02 0.  1.
        -24    1    1    2    0    0 -0.58013959686E+02  0.14700264264E+02  0.61352501844E+03  0.62166058384E+03  0.80419002446E+02 0. -1.
<mgrwt>
<rscale>  0 0.10024437E+03</rscale>
<asrwt>0</asrwt>
<pdfrwt beam="1">  1        1 0.13199733E+00 0.10024437E+03</pdfrwt>
<pdfrwt beam="2">  1       -1 0.22336062E-02 0.10024437E+03</pdfrwt>
<totfact> 0.11303131E+04</totfact>
</mgrwt>
</event>
<event>
 4    1  0.6602701E-002  0.8265736E+02  0.7546771E-02  0.1321675E+00
          2   -1    0    0  501    0  0.00000000000E+00  0.00000000000E+00  0.24983197314E+04  0.24983197314E+04  0.00000000000E+00 0. -1.
         -2   -1    0    0    0  501 -0.00000000000E+00 -0.00000000000E+00 -0.34563913199E+01  0.34563913199E+01  0.00000000000E+00 0.  1.
         24    1    1    2    0    0 -0.22372170796E+01 -0.18974125050E+02  0.18190059441E+04  0.18208829899E+04  0.80419002446E+02 0. -1.
        -24    1    1    2    0    0  0.22372170796E+01  0.18974125050E+02  0.67585739603E+03  0.68089313279E+03  0.80419002446E+02 0.  1.
<mgrwt>
<rscale>  0 0.82657356E+02</rscale>
<asrwt>0</asrwt>
<pdfrwt beam="1">  1        2 0.38435544E+00 0.82657356E+02</pdfrwt>
<pdfrwt beam="2">  1       -2 0.53175451E-03 0.82657356E+02</pdfrwt>
<totfact> 0.20426178E+04</totfact>
</mgrwt>
</event>
<event>
 4    1  0.6602701E-002  0.8835965E+02  0.7546771E-02  0.1306873E+00
         -2   -1    0    0    0  501 -0.00000000000E+00  0.00000000000E+00  0.91276083256E+01  0.91276083256E+01  0.00000000000E+00 0.  1.
          2   -1    0    0  501    0  0.00000000000E+00 -0.00000000000E+00 -0.87951428886E+03  0.87951428886E+03  0.00000000000E+00 0. -1.
         24    1    1    2    0    0  0.98619091697E+01  0.35255564130E+02 -0.50882016480E+03  0.51643527002E+03  0.80419002446E+02 0. -1.
        -24    1    1    2    0    0 -0.98619091697E+01 -0.35255564130E+02 -0.36156651573E+03  0.37220662716E+03  0.80419002446E+02 0.  1.
<mgrwt>
<rscale>  0 0.88359651E+02</rscale>
<asrwt>0</asrwt>
<pdfrwt beam="1">  1        2 0.13530987E+00 0.88359651E+02</pdfrwt>
<pdfrwt beam="2">  1       -2 0.14042476E-02 0.88359651E+02</pdfrwt>
<totfact> 0.36717873E+04</totfact>
</mgrwt>
</event>
<event>
 4    1  0.6602701E-002  0.1032621E+03  0.7546771E-02  0.1273582E+00
          1   -1    0    0  501    0  0.00000000000E+00  0.00000000000E+00  0.24421555643E+03  0.24421555643E+03  0.00000000000E+00 0. -1.
         -1   -1    0    0    0  501 -0.00000000000E+00 -0.00000000000E+00 -0.53425478773E+02  0.53425478773E+02  0.00000000000E+00 0.  1.
         24    1    1    2    0    0  0.55342602521E+02 -0.33660727116E+02  0.31777106340E+02  0.10804095818E+03  0.80419002446E+02 0.  1.
        -24    1    1    2    0    0 -0.55342602521E+02  0.33660727116E+02  0.15901297132E+03  0.18960007702E+03  0.80419002446E+02 0. -1.
<mgrwt>
<rscale>  0 0.10326211E+03</rscale>
<asrwt>0</asrwt>
<pdfrwt beam="1">  1        1 0.37571624E-01 0.10326211E+03</pdfrwt>
<pdfrwt beam="2">  1       -1 0.82193045E-02 0.10326211E+03</pdfrwt>
<totfact> 0.87042348E+03</totfact>
</mgrwt>
</event>
<event>
 4    1  0.6602701E-002  0.9651328E+02  0.7546771E-02  0.1287804E+00
          1   -1    0    0  501    0  0.00000000000E+00  0.00000000000E+00  0.39516270054E+02  0.39516270054E+02  0.00000000000E+00 0. -1.
         -1   -1    0    0    0  501 -0.00000000000E+00 -0.00000000000E+00 -0.24512420094E+03  0.24512420094E+03  0.00000000000E+00 0.  1.
         24    1    1    2    0    0  0.51989503377E+02  0.12028677941E+02 -0.13067878783E+03  0.16245540649E+03  0.80419002446E+02 0. -1.
        -24    1    1    2    0    0 -0.51989503377E+02 -0.12028677941E+02 -0.74929143054E+02  0.12218506450E+03  0.80419002446E+02 0. -1.
<mgrwt>
<rscale>  0 0.96513282E+02</rscale>
<asrwt>0</asrwt>
<pdfrwt beam="1">  1        1 0.60794261E-02 0.96513282E+02</pdfrwt>
<pdfrwt beam="2">  1       -1 0.37711416E-01 0.96513282E+02</pdfrwt>
<totfact> 0.79785925E+03</totfact>
</mgrwt>
</event>
<event>
 4    1  0.6602701E-002  0.1191483E+03  0.7546771E-02  0.1244509E+00
          1   -1    0    0  501    0  0.00000000000E+00  0.00000000000E+00  0.20691927260E+04  0.20691927260E+04  0.00000000000E+00 0. -1.
         -1   -1    0    0    0  501 -0.00000000000E+00 -0.00000000000E+00 -0.10096633649E+02  0.10096633649E+02  0.00000000000E+00 0.  1.
         24    1    1    2    0    0  0.14547172668E+02 -0.86703455965E+02  0.44098977145E+03  0.45680225917E+03  0.80419002446E+02 0.  1.
        -24    1    1    2    0    0 -0.14547172668E+02  0.86703455965E+02  0.16181063209E+04  0.16224871004E+04  0.80419002446E+02 0. -1.
<mgrwt>
<rscale>  0 0.11914833E+03</rscale>
<asrwt>0</asrwt>
<pdfrwt beam="1">  1        1 0.31833700E+00 0.11914833E+03</pdfrwt>
<pdfrwt beam="2">  1       -1 0.15533299E-02 0.11914833E+03</pdfrwt>
<totfact> 0.30048990E+03</totfact>
</mgrwt>
</event>
<event>
 4    1  0.6602701E-002  0.8381267E+02  0.7546771E-02  0.1318567E+00
          2   -1    0    0  501    0  0.00000000000E+00  0.00000000000E+00  0.87981505132E+02  0.87981505132E+02  0.00000000000E+00 0. -1.
         -2   -1    0    0    0  501 -0.00000000000E+00 -0.00000000000E+00 -0.20619996025E+03  0.20619996025E+03  0.00000000000E+00 0.  1.
         24    1    1    2    0    0 -0.21797377326E+02 -0.90676025529E+01  0.56035332758E+02  0.10081925186E+03  0.80419002446E+02 0. -1.
        -24    1    1    2    0    0  0.21797377326E+02  0.90676025529E+01 -0.17425378788E+03  0.19336221352E+03  0.80419002446E+02 0.  1.
<mgrwt>
<rscale>  0 0.83812666E+02</rscale>
<asrwt>0</asrwt>
<pdfrwt beam="1">  1        2 0.13535616E-01 0.83812666E+02</pdfrwt>
<pdfrwt beam="2">  1       -2 0.31723071E-01 0.83812666E+02</pdfrwt>
<totfact> 0.37684378E+03</totfact>
</mgrwt>
</event>
<event>
 4    1  0.6602701E-002  0.8724863E+02  0.7546771E-02  0.1309655E+00
          2   -1    0    0  501    0  0.00000000000E+00  0.00000000000E+00  0.17108787192E+04  0.17108787192E+04  0.00000000000E+00 0. -1.
         -2   -1    0    0    0  501 -0.00000000000E+00 -0.00000000000E+00 -0.48504389265E+01  0.48504389265E+01  0.00000000000E+00 0.  1.
         24    1    1    2    0    0 -0.72050533073E+01 -0.33063500486E+02  0.10996978416E+04  0.11031535100E+04  0.80419002446E+02 0.  1.
        -24    1    1    2    0    0  0.72050533073E+01  0.33063500486E+02  0.60633043864E+03  0.61257564809E+03  0.80419002446E+02 0. -1.
<mgrwt>
<rscale>  0 0.87248632E+02</rscale>
<asrwt>0</asrwt>
<pdfrwt beam="1">  1        2 0.26321163E+00 0.87248632E+02</pdfrwt>
<pdfrwt beam="2">  1       -2 0.74622274E-03 0.87248632E+02</pdfrwt>
<totfact> 0.31921001E+04</totfact>
</mgrwt>
</event>
<event>
 4    1  0.6602701E-002  0.8142441E+02  0.7546771E-02  0.1325057E+00
         -1   -1    0    0    0  501 -0.00000000000E+00  0.00000000000E+00  0.58496347953E+02  0.58496347953E+02  0.00000000000E+00 0.  1.
          1   -1    0    0  501    0  0.00000000000E+00 -0.00000000000E+00 -0.23888673342E+03  0.23888673342E+03  0.00000000000E+00 0. -1.
         24    1    1    2    0    0 -0.31181282262E-01 -0.12756104820E+02  0.17598702223E+02  0.83304558439E+02  0.80419002446E+02 0.  0.
        -24    1    1    2    0    0  0.31181282262E-01  0.12756104820E+02 -0.19798908769E+03  0.21407852293E+03  0.80419002446E+02 0. -1.
<mgrwt>
<rscale>  0 0.81424414E+02</rscale>
<asrwt>0</asrwt>
<pdfrwt beam="1">  1        1 0.36751806E-01 0.81424414E+02</pdfrwt>
<pdfrwt beam="2">  1       -1 0.89994380E-02 0.81424414E+02</pdfrwt>
<totfact> 0.76540523E+03</totfact>
</mgrwt>
</event>
<event>
 4    1  0.6602701E-002  0.1087069E+03  0.7546771E-02  0.1262983E+00
         -3   -1    0    0    0  501 -0.00000000000E+00  0.00000000000E+00  0.29358835957E+02  0.29358835957E+02  0.00000000000E+00 0.  1.
          3   -1    0    0  501    0  0.00000000000E+00 -0.00000000000E+00 -0.10673550611E+04  0.10673550611E+04  0.00000000000E+00 0. -1.
         24    1    1    2    0    0 -0.58297580876E+02  0.44174333213E+02 -0.86215857741E+02  0.13874570167E+03  0.80419002446E+02 0.  1.
        -24    1    1    2    0    0  0.58297580876E+02 -0.44174333213E+02 -0.95178036737E+03  0.95796819536E+03  0.80419002446E+02 0. -1.
<mgrwt>
<rscale>  0 0.10870693E+03</rscale>
<asrwt>0</asrwt>
<pdfrwt beam="1">  1        3 0.16420846E+00 0.10870693E+03</pdfrwt>
<pdfrwt beam="2">  1       -3 0.45167443E-02 0.10870693E+03</pdfrwt>
<totfact> 0.16716497E+02</totfact>
</mgrwt>
</event>
<event>
 4    1  0.6602701E-002  0.1279645E+03  0.7546771E-02  0.1230508E+00
          2   -1    0    0  501    0  0.00000000000E+00  0.00000000000E+00  0.97353935247E+03  0.97353935247E+03  0.00000000000E+00 0. -1.
         -2   -1    0    0    0  501 -0.00000000000E+00 -0.00000000000E+00 -0.19577777204E+03  0.19577777204E+03  0.00000000000E+00 0.  1.
         24    1    1    2    0    0 -0.17480605601E+01  0.99522069139E+02  0.94786035072E+03  0.95645917759E+03  0.80419002446E+02 0. -1.
        -24    1    1    2    0    0  0.17480605601E+01 -0.99522069139E+02 -0.17009877029E+03  0.21285794692E+03  0.80419002446E+02 0.  1.
<mgrwt>
<rscale>  0 0.12796450E+03</rscale>
<asrwt>0</asrwt>
<pdfrwt beam="1">  1        2 0.14977528E+00 0.12796450E+03</pdfrwt>
<pdfrwt beam="2">  1       -2 0.30119658E-01 0.12796450E+03</pdfrwt>
<totfact> 0.28594543E+02</totfact>
</mgrwt>
</event>
<event>
 4    1  0.6602701E-002  0.1243460E+03  0.7546771E-02  0.1236095E+00
         -1   -1    0    0    0  501 -0.00000000000E+00  0.00000000000E+00  0.10318462025E+04  0.10318462025E+04  0.00000000000E+00 0.  1.
          1   -1    0    0  501    0  0.00000000000E+00 -0.00000000000E+00 -0.15887451108E+02  0.15887451108E+02  0.00000000000E+00 0. -1.
         24    1    1    2    0    0  0.64435523818E+02 -0.69590121738E+02  0.63285289587E+03  0.64495327392E+03  0.80419002446E+02 0.  1.
        -24    1    1    2    0    0 -0.64435523818E+02  0.69590121738E+02  0.38310585551E+03  0.40278037968E+03  0.80419002446E+02 0.  0.
<mgrwt>
<rscale>  0 0.12434604E+03</rscale>
<asrwt>0</asrwt>
<pdfrwt beam="1">  1        1 0.24442241E-02 0.12434604E+03</pdfrwt>
<pdfrwt beam="2">  1       -1 0.15874552E+00 0.12434604E+03</pdfrwt>
<totfact> 0.14373920E+03</totfact>
</mgrwt>
</event>
<event>
 4    1  0.6602701E-002  0.1604256E+03  0.7546771E-02  0.1188217E+00
         -1   -1    0    0    0  501 -0.00000000000E+00  0.00000000000E+00  0.12713407525E+02  0.12713407525E+02  0.00000000000E+00 0.  1.
          1   -1    0    0  501    0  0.00000000000E+00 -0.00000000000E+00 -0.20352305589E+04  0.20352305589E+04  0.00000000000E+00 0. -1.
         24    1    1    2    0    0  0.40196560099E+02 -0.13286605165E+03 -0.10861336711E+04  0.10979174462E+04  0.80419002446E+02 0.  0.
        -24    1    1    2    0    0 -0.40196560099E+02  0.13286605165E+03 -0.93638348030E+03  0.95002652029E+03  0.80419002446E+02 0.  0.
<mgrwt>
<rscale>  0 0.16042560E+03</rscale>
<asrwt>0</asrwt>
<pdfrwt beam="1">  1        1 0.31311222E+00 0.16042562E+03</pdfrwt>
<pdfrwt beam="2">  1       -1 0.19559099E-02 0.16042562E+03</pdfrwt>
<totfact> 0.22701618E+03</totfact>
</mgrwt>
</event>
<event>
 4    1  0.6602701E-002  0.1067122E+03  0.7546771E-02  0.1266782E+00
          2   -1    0    0  501    0  0.00000000000E+00  0.00000000000E+00  0.17257718202E+04  0.17257718202E+04  0.00000000000E+00 0. -1.
         -2   -1    0    0    0  501 -0.00000000000E+00 -0.00000000000E+00 -0.69091421505E+01  0.69091421505E+01  0.00000000000E+00 0.  1.
         24    1    1    2    0    0 -0.58418697861E+02  0.38826847616E+02  0.10431339210E+04  0.10485780187E+04  0.80419002446E+02 0. -1.
        -24    1    1    2    0    0  0.58418697861E+02 -0.38826847616E+02  0.67572875707E+03  0.68410294360E+03  0.80419002446E+02 0.  1.
<mgrwt>
<rscale>  0 0.10671216E+03</rscale>
<asrwt>0</asrwt>
<pdfrwt beam="1">  1        2 0.26550301E+00 0.10671216E+03</pdfrwt>
<pdfrwt beam="2">  1       -2 0.10629463E-02 0.10671216E+03</pdfrwt>
<totfact> 0.19288638E+04</totfact>
</mgrwt>
</event>
<event>
 4    1  0.6602701E-002  0.1044522E+03  0.7546771E-02  0.1271203E+00
          1   -1    0    0  501    0  0.00000000000E+00  0.00000000000E+00  0.43203793638E+03  0.43203793638E+03  0.00000000000E+00 0. -1.
         -1   -1    0    0    0  501 -0.00000000000E+00 -0.00000000000E+00 -0.47754073647E+02  0.47754073647E+02  0.00000000000E+00 0.  1.
         24    1    1    2    0    0  0.66468475835E+02  0.49989441075E+01  0.35681372195E+03  0.37178797163E+03  0.80419002446E+02 0. -1.
        -24    1    1    2    0    0 -0.66468475835E+02 -0.49989441075E+01  0.27470140787E+02  0.10800403840E+03  0.80419002446E+02 0.  1.
<mgrwt>
<rscale>  0 0.10445222E+03</rscale>
<asrwt>0</asrwt>
<pdfrwt beam="1">  1        1 0.66467372E-01 0.10445223E+03</pdfrwt>
<pdfrwt beam="2">  1       -1 0.73467809E-02 0.10445223E+03</pdfrwt>
<totfact> 0.50947051E+03</totfact>
</mgrwt>
</event>
<event>
 4    1  0.6602701E-002  0.8662451E+02  0.7546771E-02  0.1311238E+00
          2   -1    0    0  501    0  0.00000000000E+00  0.00000000000E+00  0.22226308333E+04  0.22226308333E+04  0.00000000000E+00 0. -1.
         -2   -1    0    0    0  501 -0.00000000000E+00 -0.00000000000E+00 -0.14633479325E+02  0.14633479325E+02  0.00000000000E+00 0.  1.
         24    1    1    2    0    0  0.24668729428E+02  0.20689211269E+02  0.20851416764E+04  0.20869402522E+04  0.80419002446E+02 0. -1.
        -24    1    1    2    0    0 -0.24668729428E+02 -0.20689211269E+02  0.12285567760E+03  0.15032406044E+03  0.80419002446E+02 0.  1.
<mgrwt>
<rscale>  0 0.86624509E+02</rscale>
<asrwt>0</asrwt>
<pdfrwt beam="1">  1        2 0.34194294E+00 0.86624509E+02</pdfrwt>
<pdfrwt beam="2">  1       -2 0.22513063E-02 0.86624509E+02</pdfrwt>
<totfact> 0.36747082E+03</totfact>
</mgrwt>
</event>
<event>
 4    1  0.6602701E-002  0.1505086E+03  0.7546771E-02  0.1199849E+00
          2   -1    0    0  501    0  0.00000000000E+00  0.00000000000E+00  0.78021499341E+03  0.78021499341E+03  0.00000000000E+00 0. -1.
         -2   -1    0    0    0  501 -0.00000000000E+00 -0.00000000000E+00 -0.51275954243E+02  0.51275954243E+02  0.00000000000E+00 0.  1.
         24    1    1    2    0    0  0.18531471426E+02  0.12586583707E+03  0.63828383312E+03  0.65578890807E+03  0.80419002446E+02 0. -1.
        -24    1    1    2    0    0 -0.18531471426E+02 -0.12586583707E+03  0.90655206050E+02  0.17570203958E+03  0.80419002446E+02 0.  1.
<mgrwt>
<rscale>  0 0.15050861E+03</rscale>
<asrwt>0</asrwt>
<pdfrwt beam="1">  1        2 0.12003307E+00 0.15050861E+03</pdfrwt>
<pdfrwt beam="2">  1       -2 0.78886089E-02 0.15050861E+03</pdfrwt>
<totfact> 0.34738205E+03</totfact>
</mgrwt>
</event>
<event>
 4    1  0.6602701E-002  0.9709492E+02  0.7546771E-02  0.1286526E+00
          2   -1    0    0  501    0  0.00000000000E+00  0.00000000000E+00  0.12247303925E+04  0.12247303925E+04  0.00000000000E+00 0. -1.
         -2   -1    0    0    0  501 -0.00000000000E+00 -0.00000000000E+00 -0.10019584969E+02  0.10019584969E+02  0.00000000000E+00 0.  1.
         24    1    1    2    0    0  0.48351398665E+02  0.24946948119E+02  0.90456204176E+03  0.90975816090E+03  0.80419002446E+02 0.  1.
        -24    1    1    2    0    0 -0.48351398665E+02 -0.24946948119E+02  0.31014876575E+03  0.32499181655E+03  0.80419002446E+02 0.  1.
<mgrwt>
<rscale>  0 0.97094922E+02</rscale>
<asrwt>0</asrwt>
<pdfrwt beam="1">  1        2 0.18841994E+00 0.97094922E+02</pdfrwt>
<pdfrwt beam="2">  1       -2 0.15414756E-02 0.97094922E+02</pdfrwt>
<totfact> 0.20503220E+04</totfact>
</mgrwt>
</event>
<event>
 4    1  0.6602701E-002  0.1941400E+03  0.7546771E-02  0.1154779E+00
          2   -1    0    0  501    0  0.00000000000E+00  0.00000000000E+00  0.36957443016E+03  0.36957443016E+03  0.00000000000E+00 0. -1.
         -2   -1    0    0    0  501 -0.00000000000E+00 -0.00000000000E+00 -0.10480123571E+03  0.10480123571E+03  0.00000000000E+00 0.  1.
         24    1    1    2    0    0 -0.17669642569E+03 -0.12167638724E+01  0.17128169790E+03  0.25889716753E+03  0.80419002446E+02 0. -1.
        -24    1    1    2    0    0  0.17669642569E+03  0.12167638724E+01  0.93491496552E+02  0.21547849834E+03  0.80419002446E+02 0.  1.
<mgrwt>
<rscale>  0 0.19413996E+03</rscale>
<asrwt>0</asrwt>
<pdfrwt beam="1">  1        2 0.56857604E-01 0.19413996E+03</pdfrwt>
<pdfrwt beam="2">  1       -2 0.16123267E-01 0.19413996E+03</pdfrwt>
<totfact> 0.26053498E+03</totfact>
</mgrwt>
</event>
<event>
 4    1  0.6602701E-002  0.9190277E+02  0.7546771E-02  0.1298308E+00
          2   -1    0    0  501    0  0.00000000000E+00  0.00000000000E+00  0.38158838713E+02  0.38158838713E+02  0.00000000000E+00 0. -1.
         -2   -1    0    0    0  501 -0.00000000000E+00 -0.00000000000E+00 -0.45451949801E+03  0.45451949801E+03  0.00000000000E+00 0.  1.
         24    1    1    2    0    0 -0.39493380994E+02 -0.20473804351E+02 -0.31738578877E+02  0.97228890513E+02  0.80419002446E+02 0. -1.
        -24    1    1    2    0    0  0.39493380994E+02  0.20473804351E+02 -0.38462208042E+03  0.39544944621E+03  0.80419002446E+02 0.  1.
<mgrwt>
<rscale>  0 0.91902773E+02</rscale>
<asrwt>0</asrwt>
<pdfrwt beam="1">  1        2 0.58705909E-02 0.91902773E+02</pdfrwt>
<pdfrwt beam="2">  1       -2 0.69926073E-01 0.91902773E+02</pdfrwt>
<totfact> 0.22733697E+03</totfact>
</mgrwt>
</event>
<event>
 4    1  0.6602701E-002  0.8377404E+02  0.7546771E-02  0.1318670E+00
          2   -1    0    0  501    0  0.00000000000E+00  0.00000000000E+00  0.93602849550E+03  0.93602849550E+03  0.00000000000E+00 0. -1.
         -2   -1    0    0    0  501 -0.00000000000E+00 -0.00000000000E+00 -0.34263304498E+02  0.34263304498E+02  0.00000000000E+00 0.  1.
         24    1    1    2    0    0  0.10965757934E+02  0.20751545460E+02  0.87967394401E+03  0.88365396973E+03  0.80419002446E+02 0. -1.
        -24    1    1    2    0    0 -0.10965757934E+02 -0.20751545460E+02  0.22091246988E+02  0.86637830270E+02  0.80419002446E+02 0.  1.
<mgrwt>
<rscale>  0 0.83774044E+02</rscale>
<asrwt>0</asrwt>
<pdfrwt beam="1">  1        2 0.14400436E+00 0.83774044E+02</pdfrwt>
<pdfrwt beam="2">  1       -2 0.52712783E-02 0.83774044E+02</pdfrwt>
<totfact> 0.49608590E+03</totfact>
</mgrwt>
</event>
<event>
 4    1  0.6602701E-002  0.9029668E+02  0.7546771E-02  0.1302135E+00
          1   -1    0    0  501    0  0.00000000000E+00  0.00000000000E+00  0.62723088575E+03  0.62723088575E+03  0.00000000000E+00 0. -1.
         -1   -1    0    0    0  501 -0.00000000000E+00 -0.00000000000E+00 -0.27917403220E+02  0.27917403220E+02  0.00000000000E+00 0.  1.
         24    1    1    2    0    0 -0.37342852562E+02  0.17081735162E+02  0.60198060864E+02  0.10852325465E+03  0.80419002446E+02 0.  1.
        -24    1    1    2    0    0  0.37342852562E+02 -0.17081735162E+02  0.53911542167E+03  0.54662503432E+03  0.80419002446E+02 0. -1.
<mgrwt>
<rscale>  0 0.90296679E+02</rscale>
<asrwt>0</asrwt>
<pdfrwt beam="1">  1        1 0.96497049E-01 0.90296679E+02</pdfrwt>
<pdfrwt beam="2">  1       -1 0.42949856E-02 0.90296679E+02</pdfrwt>
<totfact> 0.68499233E+03</totfact>
</mgrwt>
</event>
<event>
 4    1  0.6602701E-002  0.8534301E+02  0.7546771E-02  0.1314538E+00
          2   -1    0    0  501    0  0.00000000000E+00  0.00000000000E+00  0.44501742189E+03  0.44501742189E+03  0.00000000000E+00 0. -1.
         -2   -1    0    0    0  501 -0.00000000000E+00 -0.00000000000E+00 -0.43391666825E+02  0.43391666825E+02  0.00000000000E+00 0.  1.
         24    1    1    2    0    0  0.27085035043E+02  0.90892340240E+01  0.39353600495E+03  0.40268351896E+03  0.80419002446E+02 0. -1.
        -24    1    1    2    0    0 -0.27085035043E+02 -0.90892340240E+01  0.80897501189E+01  0.85725569755E+02  0.80419002446E+02 0.  1.
<mgrwt>
<rscale>  0 0.85343009E+02</rscale>
<asrwt>0</asrwt>
<pdfrwt beam="1">  1        2 0.68464216E-01 0.85343009E+02</pdfrwt>
<pdfrwt beam="2">  1       -2 0.66756413E-02 0.85343009E+02</pdfrwt>
<totfact> 0.82076606E+03</totfact>
</mgrwt>
</event>
<event>
 4    1  0.6602701E-002  0.8237883E+02  0.7546771E-02  0.1322433E+00
          1   -1    0    0  501    0  0.00000000000E+00  0.00000000000E+00  0.94593908758E+01  0.94593908758E+01  0.00000000000E+00 0. -1.
         -1   -1    0    0    0  501 -0.00000000000E+00 -0.00000000000E+00 -0.94948700198E+03  0.94948700198E+03  0.00000000000E+00 0.  1.
         24    1    1    2    0    0 -0.76682175342E+01 -0.16132393468E+02 -0.70706103480E+03  0.71184378804E+03  0.80419002446E+02 0.  0.
        -24    1    1    2    0    0  0.76682175342E+01  0.16132393468E+02 -0.23296657630E+03  0.24710260482E+03  0.80419002446E+02 0. -1.
<mgrwt>
<rscale>  0 0.82378830E+02</rscale>
<asrwt>0</asrwt>
<pdfrwt beam="1">  1        1 0.14552907E-02 0.82378830E+02</pdfrwt>
<pdfrwt beam="2">  1       -1 0.14607494E+00 0.82378830E+02</pdfrwt>
<totfact> 0.35584293E+03</totfact>
</mgrwt>
</event>
<event>
 4    1  0.6602701E-002  0.8483366E+02  0.7546771E-02  0.1315868E+00
         -1   -1    0    0    0  501 -0.00000000000E+00  0.00000000000E+00  0.13503644058E+04  0.13503644058E+04  0.00000000000E+00 0.  1.
          1   -1    0    0  501    0  0.00000000000E+00 -0.00000000000E+00 -0.78210564049E+01  0.78210564049E+01  0.00000000000E+00 0. -1.
         24    1    1    2    0    0  0.26440831721E+02 -0.55150340450E+01  0.10545664452E+04  0.10579731265E+04  0.80419002446E+02 0.  0.
        -24    1    1    2    0    0 -0.26440831721E+02  0.55150340450E+01  0.28797690423E+03  0.30021233570E+03  0.80419002446E+02 0. -1.
<mgrwt>
<rscale>  0 0.84833656E+02</rscale>
<asrwt>0</asrwt>
<pdfrwt beam="1">  1        1 0.12032405E-02 0.84833656E+02</pdfrwt>
<pdfrwt beam="2">  1       -1 0.20774818E+00 0.84833656E+02</pdfrwt>
<totfact> 0.17467544E+03</totfact>
</mgrwt>
</event>
<event>
 4    1  0.6602701E-002  0.8295314E+02  0.7546771E-02  0.1320874E+00
         -1   -1    0    0    0  501 -0.00000000000E+00  0.00000000000E+00  0.54078113746E+03  0.54078113746E+03  0.00000000000E+00 0.  1.
          1   -1    0    0  501    0  0.00000000000E+00 -0.00000000000E+00 -0.16386988556E+02  0.16386988556E+02  0.00000000000E+00 0. -1.
         24    1    1    2    0    0  0.19162395059E+02 -0.68417618779E+01  0.39389804325E+03  0.40253806220E+03  0.80419002446E+02 0.  0.
        -24    1    1    2    0    0 -0.19162395059E+02  0.68417618779E+01  0.13049610565E+03  0.15463006381E+03  0.80419002446E+02 0. -1.
<mgrwt>
<rscale>  0 0.82953138E+02</rscale>
<asrwt>0</asrwt>
<pdfrwt beam="1">  1        1 0.25210756E-02 0.82953138E+02</pdfrwt>
<pdfrwt beam="2">  1       -1 0.83197085E-01 0.82953138E+02</pdfrwt>
<totfact> 0.59697742E+03</totfact>
</mgrwt>
</event>
<event>
 4    1  0.6602701E-002  0.8315836E+02  0.7546771E-02  0.1320320E+00
          2   -1    0    0  501    0  0.00000000000E+00  0.00000000000E+00  0.13522537265E+04  0.13522537265E+04  0.00000000000E+00 0. -1.
         -2   -1    0    0    0  501 -0.00000000000E+00 -0.00000000000E+00 -0.64211011549E+01  0.64211011549E+01  0.00000000000E+00 0.  1.
         24    1    1    2    0    0 -0.17301598610E+02  0.12196409016E+02  0.97942947116E+03  0.98295340817E+03  0.80419002446E+02 0. -1.
        -24    1    1    2    0    0  0.17301598610E+02 -0.12196409016E+02  0.36640315423E+03  0.37572141953E+03  0.80419002446E+02 0.  1.
<mgrwt>
<rscale>  0 0.83158365E+02</rscale>
<asrwt>0</asrwt>
<pdfrwt beam="1">  1        2 0.20803881E+00 0.83158365E+02</pdfrwt>
<pdfrwt beam="2">  1       -2 0.98786279E-03 0.83158365E+02</pdfrwt>
<totfact> 0.32584165E+04</totfact>
</mgrwt>
</event>
<event>
 4    1  0.6602701E-002  0.1181997E+03  0.7546771E-02  0.1246097E+00
         -1   -1    0    0    0  501 -0.00000000000E+00  0.00000000000E+00  0.34858668138E+03  0.34858668138E+03  0.00000000000E+00 0.  1.
          1   -1    0    0  501    0  0.00000000000E+00 -0.00000000000E+00 -0.51034564625E+02  0.51034564625E+02  0.00000000000E+00 0. -1.
         24    1    1    2    0    0  0.22490498457E+02 -0.83654795344E+02  0.24135128519E+03  0.26874077868E+03  0.80419002446E+02 0.  1.
        -24    1    1    2    0    0 -0.22490498457E+02  0.83654795344E+02  0.56200831558E+02  0.13088046732E+03  0.80419002446E+02 0. -1.
<mgrwt>
<rscale>  0 0.11819968E+03</rscale>
<asrwt>0</asrwt>
<pdfrwt beam="1">  1        1 0.78514717E-02 0.11819968E+03</pdfrwt>
<pdfrwt beam="2">  1       -1 0.53628719E-01 0.11819968E+03</pdfrwt>
<totfact> 0.30718965E+03</totfact>
</mgrwt>
</event>
<event>
 4    1  0.6602701E-002  0.9164233E+02  0.7546771E-02  0.1298923E+00
         -2   -1    0    0    0  501 -0.00000000000E+00  0.00000000000E+00  0.10096104634E+02  0.10096104634E+02  0.00000000000E+00 0.  1.
          2   -1    0    0  501    0  0.00000000000E+00 -0.00000000000E+00 -0.96413039100E+03  0.96413039100E+03  0.00000000000E+00 0. -1.
         24    1    1    2    0    0 -0.42292767529E+02 -0.11933945357E+02 -0.29657783165E+03  0.31041379386E+03  0.80419002446E+02 0.  0.
        -24    1    1    2    0    0  0.42292767529E+02  0.11933945357E+02 -0.65745645471E+03  0.66381270177E+03  0.80419002446E+02 0.  1.
<mgrwt>
<rscale>  0 0.91642323E+02</rscale>
<asrwt>0</asrwt>
<pdfrwt beam="1">  1        2 0.14832772E+00 0.91642334E+02</pdfrwt>
<pdfrwt beam="2">  1       -2 0.15532472E-02 0.91642334E+02</pdfrwt>
<totfact> 0.28335736E+04</totfact>
</mgrwt>
</event>
<event>
 4    1  0.6602701E-002  0.8641162E+02  0.7546771E-02  0.1311782E+00
         -1   -1    0    0    0  501 -0.00000000000E+00  0.00000000000E+00  0.25961144137E+03  0.25961144137E+03  0.00000000000E+00 0.  1.
          1   -1    0    0  501    0  0.00000000000E+00 -0.00000000000E+00 -0.45215997731E+02  0.45215997731E+02  0.00000000000E+00 0. -1.
         24    1    1    2    0    0  0.14744897526E+02  0.27970354273E+02  0.19913941109E+03  0.21707941801E+03  0.80419002446E+02 0.  1.
        -24    1    1    2    0    0 -0.14744897526E+02 -0.27970354273E+02  0.15256032548E+02  0.87748021087E+02  0.80419002446E+02 0. -1.
<mgrwt>
<rscale>  0 0.86411623E+02</rscale>
<asrwt>0</asrwt>
<pdfrwt beam="1">  1        1 0.69563075E-02 0.86411623E+02</pdfrwt>
<pdfrwt beam="2">  1       -1 0.39940221E-01 0.86411623E+02</pdfrwt>
<totfact> 0.59760530E+03</totfact>
</mgrwt>
</event>
<event>
 4    1  0.6602701E-002  0.1024772E+03  0.7546771E-02  0.1275171E+00
          1   -1    0    0  501    0  0.00000000000E+00  0.00000000000E+00  0.10079665954E+03  0.10079665954E+03  0.00000000000E+00 0. -1.
         -1   -1    0    0    0  501 -0.00000000000E+00 -0.00000000000E+00 -0.14813035545E+03  0.14813035545E+03  0.00000000000E+00 0.  1.
         24    1    1    2    0    0 -0.56144955752E+02  0.29700366526E+02 -0.91457901820E+02  0.13735403739E+03  0.80419002446E+02 0.  1.
        -24    1    1    2    0    0  0.56144955752E+02 -0.29700366526E+02  0.44124205905E+02  0.11157297759E+03  0.80419002446E+02 0. -1.
<mgrwt>
<rscale>  0 0.10247724E+03</rscale>
<asrwt>0</asrwt>
<pdfrwt beam="1">  1        1 0.15507178E-01 0.10247724E+03</pdfrwt>
<pdfrwt beam="2">  1       -1 0.22789286E-01 0.10247724E+03</pdfrwt>
<totfact> 0.54115053E+03</totfact>
</mgrwt>
</event>
<event>
 4    1  0.6602701E-002  0.8928484E+02  0.7546771E-02  0.1304593E+00
         -1   -1    0    0    0  501 -0.00000000000E+00  0.00000000000E+00  0.23145742336E+02  0.23145742336E+02  0.00000000000E+00 0.  1.
          1   -1    0    0  501    0  0.00000000000E+00 -0.00000000000E+00 -0.51309053971E+03  0.51309053971E+03  0.00000000000E+00 0. -1.
         24    1    1    2    0    0  0.19215614922E+02  0.33694600071E+02 -0.91244402035E+02  0.12766096815E+03  0.80419002446E+02 0.  1.
        -24    1    1    2    0    0 -0.19215614922E+02 -0.33694600071E+02 -0.39870039534E+03  0.40857531390E+03  0.80419002446E+02 0. -1.
<mgrwt>
<rscale>  0 0.89284836E+02</rscale>
<asrwt>0</asrwt>
<pdfrwt beam="1">  1        1 0.78937008E-01 0.89284836E+02</pdfrwt>
<pdfrwt beam="2">  1       -1 0.35608833E-02 0.89284836E+02</pdfrwt>
<totfact> 0.11712475E+04</totfact>
</mgrwt>
</event>
<event>
 4    1  0.6602701E-002  0.1108291E+03  0.7546771E-02  0.1259042E+00
          1   -1    0    0  501    0  0.00000000000E+00  0.00000000000E+00  0.20585158360E+03  0.20585158360E+03  0.00000000000E+00 0. -1.
         -1   -1    0    0    0  501 -0.00000000000E+00 -0.00000000000E+00 -0.45764833370E+03  0.45764833370E+03  0.00000000000E+00 0.  1.
         24    1    1    2    0    0  0.75887903459E+02  0.75426320338E+01 -0.43526600410E+03  0.44915428916E+03  0.80419002446E+02 0.  1.
        -24    1    1    2    0    0 -0.75887903459E+02 -0.75426320338E+01  0.18346925399E+03  0.21434562814E+03  0.80419002446E+02 0. -1.
<mgrwt>
<rscale>  0 0.11082906E+03</rscale>
<asrwt>0</asrwt>
<pdfrwt beam="1">  1        1 0.31669474E-01 0.11082906E+03</pdfrwt>
<pdfrwt beam="2">  1       -1 0.70407436E-01 0.11082906E+03</pdfrwt>
<totfact> 0.30482459E+02</totfact>
</mgrwt>
</event>
<event>
 4    1  0.6602701E-002  0.8304435E+02  0.7546771E-02  0.1320627E+00
          1   -1    0    0  501    0  0.00000000000E+00  0.00000000000E+00  0.94378153136E+03  0.94378153136E+03  0.00000000000E+00 0. -1.
         -1   -1    0    0    0  501 -0.00000000000E+00 -0.00000000000E+00 -0.78463213874E+01  0.78463213874E+01  0.00000000000E+00 0.  1.
         24    1    1    2    0    0  0.83387535343E+01 -0.18963453736E+02  0.34323982279E+03  0.35314294456E+03  0.80419002446E+02 0.  0.
        -24    1    1    2    0    0 -0.83387535343E+01  0.18963453736E+02  0.59269538718E+03  0.59848490818E+03  0.80419002446E+02 0.  0.
<mgrwt>
<rscale>  0 0.83044346E+02</rscale>
<asrwt>0</asrwt>
<pdfrwt beam="1">  1        1 0.14519707E+00 0.83044346E+02</pdfrwt>
<pdfrwt beam="2">  1       -1 0.12071271E-02 0.83044346E+02</pdfrwt>
<totfact> 0.22984785E+04</totfact>
</mgrwt>
</event>
<event>
 4    1  0.6602701E-002  0.8078638E+02  0.7546771E-02  0.1326835E+00
         -2   -1    0    0    0  501 -0.00000000000E+00  0.00000000000E+00  0.29551091077E+02  0.29551091077E+02  0.00000000000E+00 0.  1.
          2   -1    0    0  501    0  0.00000000000E+00 -0.00000000000E+00 -0.23557556900E+03  0.23557556900E+03  0.00000000000E+00 0. -1.
         24    1    1    2    0    0  0.73107753266E+01  0.24026473299E+01 -0.69872004493E+02  0.10681073502E+03  0.80419002446E+02 0.  1.
        -24    1    1    2    0    0 -0.73107753266E+01 -0.24026473299E+01 -0.13615247343E+03  0.15831592505E+03  0.80419002446E+02 0.  0.
<mgrwt>
<rscale>  0 0.80786371E+02</rscale>
<asrwt>0</asrwt>
<pdfrwt beam="1">  1        2 0.36242395E-01 0.80786381E+02</pdfrwt>
<pdfrwt beam="2">  1       -2 0.45463218E-02 0.80786381E+02</pdfrwt>
<totfact> 0.28140417E+04</totfact>
</mgrwt>
</event>
<event>
 4    1  0.6602701E-002  0.8824252E+02  0.7546771E-02  0.1307164E+00
          2   -1    0    0  501    0  0.00000000000E+00  0.00000000000E+00  0.16142101398E+02  0.16142101398E+02  0.00000000000E+00 0. -1.
         -2   -1    0    0    0  501 -0.00000000000E+00 -0.00000000000E+00 -0.49706980418E+03  0.49706980418E+03  0.00000000000E+00 0.  1.
         24    1    1    2    0    0 -0.36277435172E+02  0.18638085297E+01 -0.19636162143E+03  0.21527802584E+03  0.80419002446E+02 0. -1.
        -24    1    1    2    0    0  0.36277435172E+02 -0.18638085297E+01 -0.28456608136E+03  0.29793387974E+03  0.80419002446E+02 0.  1.
<mgrwt>
<rscale>  0 0.88242518E+02</rscale>
<asrwt>0</asrwt>
<pdfrwt beam="1">  1        2 0.24834008E-02 0.88242518E+02</pdfrwt>
<pdfrwt beam="2">  1       -2 0.76472260E-01 0.88242518E+02</pdfrwt>
<totfact> 0.57760368E+03</totfact>
</mgrwt>
</event>
<event>
 4    1  0.6602701E-002  0.8398719E+02  0.7546771E-02  0.1318103E+00
          2   -1    0    0  501    0  0.00000000000E+00  0.00000000000E+00  0.21293106976E+03  0.21293106976E+03  0.00000000000E+00 0. -1.
         -2   -1    0    0    0  501 -0.00000000000E+00 -0.00000000000E+00 -0.33902135077E+02  0.33902135077E+02  0.00000000000E+00 0.  1.
         24    1    1    2    0    0 -0.19692084134E+02 -0.14101555825E+02  0.10817151295E+03  0.13694861891E+03  0.80419002446E+02 0.  1.
        -24    1    1    2    0    0  0.19692084134E+02  0.14101555825E+02  0.70857421735E+02  0.10988458592E+03  0.80419002446E+02 0.  0.
<mgrwt>
<rscale>  0 0.83987190E+02</rscale>
<asrwt>0</asrwt>
<pdfrwt beam="1">  1        2 0.32758625E-01 0.83987190E+02</pdfrwt>
<pdfrwt beam="2">  1       -2 0.52157132E-02 0.83987190E+02</pdfrwt>
<totfact> 0.25666420E+04</totfact>
</mgrwt>
</event>
<event>
 4    1  0.6602701E-002  0.1140348E+03  0.7546771E-02  0.1253275E+00
         -1   -1    0    0    0  501 -0.00000000000E+00  0.00000000000E+00  0.23269399965E+02  0.23269399965E+02  0.00000000000E+00 0.  1.
          1   -1    0    0  501    0  0.00000000000E+00 -0.00000000000E+00 -0.75097249903E+03  0.75097249903E+03  0.00000000000E+00 0. -1.
         24    1    1    2    0    0  0.40606576188E+02  0.69912997715E+02 -0.16804289663E+03  0.20308213201E+03  0.80419002446E+02 0.  1.
        -24    1    1    2    0    0 -0.40606576188E+02 -0.69912997715E+02 -0.55966020243E+03  0.57115976698E+03  0.80419002446E+02 0. -1.
<mgrwt>
<rscale>  0 0.11403481E+03</rscale>
<asrwt>0</asrwt>
<pdfrwt beam="1">  1        1 0.11553424E+00 0.11403481E+03</pdfrwt>
<pdfrwt beam="2">  1       -1 0.35799075E-02 0.11403481E+03</pdfrwt>
<totfact> 0.70368383E+03</totfact>
</mgrwt>
</event>
<event>
 4    1  0.6602701E-002  0.9004974E+02  0.7546771E-02  0.1302731E+00
         -1   -1    0    0    0  501 -0.00000000000E+00  0.00000000000E+00  0.25683953145E+03  0.25683953145E+03  0.00000000000E+00 0.  1.
          1   -1    0    0  501    0  0.00000000000E+00 -0.00000000000E+00 -0.63385053944E+02  0.63385053944E+02  0.00000000000E+00 0. -1.
         24    1    1    2    0    0 -0.31132259720E+02 -0.25933020454E+02  0.21015868318E+03  0.22863863894E+03  0.80419002446E+02 0.  1.
        -24    1    1    2    0    0  0.31132259720E+02  0.25933020454E+02 -0.16704205681E+02  0.91585946449E+02  0.80419002446E+02 0. -1.
<mgrwt>
<rscale>  0 0.90049737E+02</rscale>
<asrwt>0</asrwt>
<pdfrwt beam="1">  1        1 0.97515469E-02 0.90049737E+02</pdfrwt>
<pdfrwt beam="2">  1       -1 0.39513773E-01 0.90049737E+02</pdfrwt>
<totfact> 0.39087823E+03</totfact>
</mgrwt>
</event>
<event>
 4    1  0.6861044E-002  0.9987502E+02  0.7546771E-02  0.1280559E+00
          1   -1    0    0  501    0  0.00000000000E+00  0.00000000000E+00  0.70206637279E+03  0.70206637279E+03  0.00000000000E+00 0. -1.
         -1   -1    0    0    0  501 -0.00000000000E+00 -0.00000000000E+00 -0.30837151301E+02  0.30837151301E+02  0.00000000000E+00 0.  1.
         24    1    1    2    0    0 -0.22848164711E+02  0.54642154171E+02  0.66514668704E+02  0.11999675308E+03  0.80419002446E+02 0.  1.
        -24    1    1    2    0    0  0.22848164711E+02 -0.54642154171E+02  0.60471455279E+03  0.61290677101E+03  0.80419002446E+02 0. -1.
<mgrwt>
<rscale>  0 0.99875020E+02</rscale>
<asrwt>0</asrwt>
<pdfrwt beam="1">  1        1 0.10801020E+00 0.99875020E+02</pdfrwt>
<pdfrwt beam="2">  1       -1 0.47441777E-02 0.99875020E+02</pdfrwt>
<totfact> 0.50991167E+03</totfact>
</mgrwt>
</event>
<event>
 4    1  0.6602701E-002  0.8233481E+02  0.7546771E-02  0.1322553E+00
         -2   -1    0    0    0  501 -0.00000000000E+00  0.00000000000E+00  0.57424603832E+02  0.57424603832E+02  0.00000000000E+00 0.  1.
          2   -1    0    0  501    0  0.00000000000E+00 -0.00000000000E+00 -0.23393344034E+03  0.23393344034E+03  0.00000000000E+00 0. -1.
         24    1    1    2    0    0 -0.17485353772E+02  0.24631454764E+01 -0.19078656431E+03  0.20779445073E+03  0.80419002446E+02 0.  0.
        -24    1    1    2    0    0  0.17485353772E+02 -0.24631454764E+01  0.14277727801E+02  0.83563593435E+02  0.80419002446E+02 0.  1.
<mgrwt>
<rscale>  0 0.82334808E+02</rscale>
<asrwt>0</asrwt>
<pdfrwt beam="1">  1        2 0.35989759E-01 0.82334808E+02</pdfrwt>
<pdfrwt beam="2">  1       -2 0.88345547E-02 0.82334808E+02</pdfrwt>
<totfact> 0.10472434E+04</totfact>
</mgrwt>
</event>
<event>
 4    1  0.6602701E-002  0.8857115E+02  0.7546771E-02  0.1306349E+00
         -2   -1    0    0    0  501 -0.00000000000E+00  0.00000000000E+00  0.10157967912E+02  0.10157967912E+02  0.00000000000E+00 0.  1.
          2   -1    0    0  501    0  0.00000000000E+00 -0.00000000000E+00 -0.12677637583E+04  0.12677637583E+04  0.00000000000E+00 0. -1.
         24    1    1    2    0    0  0.71100456388E+01  0.36429115364E+02 -0.10282575506E+04  0.10320651334E+04  0.80419002446E+02 0.  0.
        -24    1    1    2    0    0 -0.71100456388E+01 -0.36429115364E+02 -0.22934823974E+03  0.24585659280E+03  0.80419002446E+02 0.  0.
<mgrwt>
<rscale>  0 0.88571153E+02</rscale>
<asrwt>0</asrwt>
<pdfrwt beam="1">  1        2 0.19504050E+00 0.88571153E+02</pdfrwt>
<pdfrwt beam="2">  1       -2 0.15627649E-02 0.88571153E+02</pdfrwt>
<totfact> 0.18929906E+04</totfact>
</mgrwt>
</event>
<event>
 4    1  0.6602701E-002  0.1055606E+03  0.7546771E-02  0.1269019E+00
         -4   -1    0    0    0  501 -0.00000000000E+00  0.00000000000E+00  0.84354329949E+03  0.84354329949E+03  0.00000000000E+00 0.  1.
          4   -1    0    0  501    0  0.00000000000E+00 -0.00000000000E+00 -0.16055899631E+02  0.16055899631E+02  0.00000000000E+00 0. -1.
         24    1    1    2    0    0  0.63636077706E+02 -0.25025452890E+02  0.23278744015E+03  0.25560327056E+03  0.80419002446E+02 0.  0.
        -24    1    1    2    0    0 -0.63636077706E+02  0.25025452890E+02  0.59469995972E+03  0.60399592856E+03  0.80419002446E+02 0.  1.
<mgrwt>
<rscale>  0 0.10556060E+03</rscale>
<asrwt>0</asrwt>
<pdfrwt beam="1">  1        4 0.24701391E-02 0.10556060E+03</pdfrwt>
<pdfrwt beam="2">  1       -4 0.12977586E+00 0.10556060E+03</pdfrwt>
<totfact> 0.53004338E+02</totfact>
</mgrwt>
</event>
<event>
 4    1  0.6602701E-002  0.8944293E+02  0.7546771E-02  0.1304206E+00
          2   -1    0    0  501    0  0.00000000000E+00  0.00000000000E+00  0.74418283682E+03  0.74418283682E+03  0.00000000000E+00 0. -1.
         -2   -1    0    0    0  501 -0.00000000000E+00 -0.00000000000E+00 -0.15339244439E+02  0.15339244439E+02  0.00000000000E+00 0.  1.
         24    1    1    2    0    0 -0.34534690082E+02  0.18443867714E+02  0.57213995841E+03  0.57908908558E+03  0.80419002446E+02 0. -1.
        -24    1    1    2    0    0  0.34534690082E+02 -0.18443867714E+02  0.15670363397E+03  0.18043299568E+03  0.80419002446E+02 0.  1.
<mgrwt>
<rscale>  0 0.89442926E+02</rscale>
<asrwt>0</asrwt>
<pdfrwt beam="1">  1        2 0.11448964E+00 0.89442926E+02</pdfrwt>
<pdfrwt beam="2">  1       -2 0.23598843E-02 0.89442926E+02</pdfrwt>
<totfact> 0.21454162E+04</totfact>
</mgrwt>
</event>
<event>
 4    1  0.6602701E-002  0.1134456E+03  0.7546771E-02  0.1254319E+00
          2   -1    0    0  501    0  0.00000000000E+00  0.00000000000E+00  0.17272436092E+03  0.17272436092E+03  0.00000000000E+00 0. -1.
         -2   -1    0    0    0  501 -0.00000000000E+00 -0.00000000000E+00 -0.85815943147E+02  0.85815943147E+02  0.00000000000E+00 0.  1.
         24    1    1    2    0    0 -0.92326181206E+00  0.80011439128E+02  0.90372770641E+02  0.14504184373E+03  0.80419002446E+02 0. -1.
        -24    1    1    2    0    0  0.92326181206E+00 -0.80011439128E+02 -0.34643528711E+01  0.11349846034E+03  0.80419002446E+02 0.  1.
<mgrwt>
<rscale>  0 0.11344558E+03</rscale>
<asrwt>0</asrwt>
<pdfrwt beam="1">  1        2 0.26572978E-01 0.11344558E+03</pdfrwt>
<pdfrwt beam="2">  1       -2 0.13202453E-01 0.11344558E+03</pdfrwt>
<totfact> 0.79269602E+03</totfact>
</mgrwt>
</event>
<event>
 4    1  0.6602701E-002  0.1358890E+03  0.7546771E-02  0.1218970E+00
          1   -1    0    0  501    0  0.00000000000E+00  0.00000000000E+00  0.22633195604E+03  0.22633195604E+03  0.00000000000E+00 0. -1.
         -1   -1    0    0    0  501 -0.00000000000E+00 -0.00000000000E+00 -0.14074703290E+03  0.14074703290E+03  0.00000000000E+00 0.  1.
         24    1    1    2    0    0 -0.11276984940E+01  0.10953234586E+03 -0.76200934452E+02  0.15579603608E+03  0.80419002446E+02 0.  1.
        -24    1    1    2    0    0  0.11276984940E+01 -0.10953234586E+03  0.16178585760E+03  0.21128295285E+03  0.80419002446E+02 0. -1.
<mgrwt>
<rscale>  0 0.13588901E+03</rscale>
<asrwt>0</asrwt>
<pdfrwt beam="1">  1        1 0.34820301E-01 0.13588901E+03</pdfrwt>
<pdfrwt beam="2">  1       -1 0.21653390E-01 0.13588901E+03</pdfrwt>
<totfact> 0.21612394E+03</totfact>
</mgrwt>
</event>
<event>
 4    1  0.6602701E-002  0.8420542E+02  0.7546771E-02  0.1317524E+00
         -4   -1    0    0    0  501 -0.00000000000E+00  0.00000000000E+00  0.50984942121E+02  0.50984942121E+02  0.00000000000E+00 0.  1.
          4   -1    0    0  501    0  0.00000000000E+00 -0.00000000000E+00 -0.14993489071E+03  0.14993489071E+03  0.00000000000E+00 0. -1.
         24    1    1    2    0    0  0.21237297119E+02 -0.13126849256E+02 -0.76516049007E+02  0.11377723265E+03  0.80419002446E+02 0.  1.
        -24    1    1    2    0    0 -0.21237297119E+02  0.13126849256E+02 -0.22433899578E+02  0.87142600173E+02  0.80419002446E+02 0.  0.
<mgrwt>
<rscale>  0 0.84205421E+02</rscale>
<asrwt>0</asrwt>
<pdfrwt beam="1">  1        4 0.23066906E-01 0.84205421E+02</pdfrwt>
<pdfrwt beam="2">  1       -4 0.78438373E-02 0.84205421E+02</pdfrwt>
<totfact> 0.28755590E+03</totfact>
</mgrwt>
</event>
<event>
 4    1  0.6602701E-002  0.1001208E+03  0.7546771E-02  0.1280042E+00
          1   -1    0    0  501    0  0.00000000000E+00  0.00000000000E+00  0.60280414748E+03  0.60280414748E+03  0.00000000000E+00 0. -1.
         -1   -1    0    0    0  501 -0.00000000000E+00 -0.00000000000E+00 -0.23339779776E+02  0.23339779776E+02  0.00000000000E+00 0.  1.
         24    1    1    2    0    0 -0.19457764427E+02  0.56376980647E+02  0.12186182865E+03  0.15771648544E+03  0.80419002446E+02 0.  1.
        -24    1    1    2    0    0  0.19457764427E+02 -0.56376980647E+02  0.45760253905E+03  0.46842744182E+03  0.80419002446E+02 0. -1.
<mgrwt>
<rscale>  0 0.10012085E+03</rscale>
<asrwt>0</asrwt>
<pdfrwt beam="1">  1        1 0.92739088E-01 0.10012085E+03</pdfrwt>
<pdfrwt beam="2">  1       -1 0.35907358E-02 0.10012085E+03</pdfrwt>
<totfact> 0.94447522E+03</totfact>
</mgrwt>
</event>
<event>
 4    1  0.6602701E-002  0.8495539E+02  0.7546771E-02  0.1315549E+00
          2   -1    0    0  501    0  0.00000000000E+00  0.00000000000E+00  0.42209521730E+03  0.42209521730E+03  0.00000000000E+00 0. -1.
         -2   -1    0    0    0  501 -0.00000000000E+00 -0.00000000000E+00 -0.17099033799E+02  0.17099033799E+02  0.00000000000E+00 0.  1.
         24    1    1    2    0    0 -0.27072068675E+02  0.41600799547E+01  0.20259002287E+03  0.21968189841E+03  0.80419002446E+02 0.  1.
        -24    1    1    2    0    0  0.27072068675E+02 -0.41600799547E+01  0.20240616063E+03  0.21951235269E+03  0.80419002446E+02 0. -1.
<mgrwt>
<rscale>  0 0.84955395E+02</rscale>
<asrwt>0</asrwt>
<pdfrwt beam="1">  1        2 0.64937718E-01 0.84955395E+02</pdfrwt>
<pdfrwt beam="2">  1       -2 0.26306209E-02 0.84955395E+02</pdfrwt>
<totfact> 0.34183486E+04</totfact>
</mgrwt>
</event>
<event>
 4    1  0.6602701E-002  0.8055022E+02  0.7546771E-02  0.1327497E+00
          2   -1    0    0  501    0  0.00000000000E+00  0.00000000000E+00  0.19241740882E+04  0.19241740882E+04  0.00000000000E+00 0. -1.
         -2   -1    0    0    0  501 -0.00000000000E+00 -0.00000000000E+00 -0.51747640692E+01  0.51747640692E+01  0.00000000000E+00 0.  1.
         24    1    1    2    0    0 -0.21051941762E+01 -0.40853066095E+01  0.15288813907E+04  0.15310018433E+04  0.80419002446E+02 0. -1.
        -24    1    1    2    0    0  0.21051941762E+01  0.40853066095E+01  0.39011793345E+03  0.39834700893E+03  0.80419002446E+02 0.  0.
<mgrwt>
<rscale>  0 0.80550217E+02</rscale>
<asrwt>0</asrwt>
<pdfrwt beam="1">  1        2 0.29602621E+00 0.80550217E+02</pdfrwt>
<pdfrwt beam="2">  1       -2 0.79611908E-03 0.80550217E+02</pdfrwt>
<totfact> 0.22667704E+04</totfact>
</mgrwt>
</event>
<event>
 4    1  0.6602701E-002  0.1026237E+03  0.7546771E-02  0.1274873E+00
          3   -1    0    0  501    0  0.00000000000E+00  0.00000000000E+00  0.13406307678E+02  0.13406307678E+02  0.00000000000E+00 0. -1.
         -3   -1    0    0    0  501 -0.00000000000E+00 -0.00000000000E+00 -0.80186507650E+03  0.80186507650E+03  0.00000000000E+00 0.  1.
         24    1    1    2    0    0 -0.62644863422E+02 -0.11833427184E+02 -0.45233501243E+03  0.46383034435E+03  0.80419002446E+02 0.  1.
        -24    1    1    2    0    0  0.62644863422E+02  0.11833427184E+02 -0.33612375639E+03  0.35144103983E+03  0.80419002446E+02 0.  0.
<mgrwt>
<rscale>  0 0.10262371E+03</rscale>
<asrwt>0</asrwt>
<pdfrwt beam="1">  1        3 0.20625091E-02 0.10262371E+03</pdfrwt>
<pdfrwt beam="2">  1       -3 0.12336385E+00 0.10262371E+03</pdfrwt>
<totfact> 0.11079819E+03</totfact>
</mgrwt>
</event>
<event>
 4    1  0.6602701E-002  0.8312585E+02  0.7546771E-02  0.1320408E+00
          3   -1    0    0  501    0  0.00000000000E+00  0.00000000000E+00  0.33507401022E+03  0.33507401022E+03  0.00000000000E+00 0. -1.
         -3   -1    0    0    0  501 -0.00000000000E+00 -0.00000000000E+00 -0.26483035753E+02  0.26483035753E+02  0.00000000000E+00 0.  1.
         24    1    1    2    0    0  0.14246768431E+02  0.15482927967E+02  0.69250465015E+02  0.10819211768E+03  0.80419002446E+02 0.  1.
        -24    1    1    2    0    0 -0.14246768431E+02 -0.15482927967E+02  0.23934050946E+03  0.25336492829E+03  0.80419002446E+02 0. -1.
<mgrwt>
<rscale>  0 0.83125853E+02</rscale>
<asrwt>0</asrwt>
<pdfrwt beam="1">  1        3 0.51549845E-01 0.83125853E+02</pdfrwt>
<pdfrwt beam="2">  1       -3 0.40743134E-02 0.83125853E+02</pdfrwt>
<totfact> 0.24628823E+03</totfact>
</mgrwt>
</event>
<event>
 4    1  0.6602701E-002  0.9024880E+02  0.7546771E-02  0.1302250E+00
          1   -1    0    0  501    0  0.00000000000E+00  0.00000000000E+00  0.30638277845E+03  0.30638277845E+03  0.00000000000E+00 0. -1.
         -1   -1    0    0    0  501 -0.00000000000E+00 -0.00000000000E+00 -0.26853880262E+02  0.26853880262E+02  0.00000000000E+00 0.  1.
         24    1    1    2    0    0  0.16931156466E+02  0.37295612461E+02  0.15647158925E+03  0.18063277932E+03  0.80419002446E+02 0.  0.
        -24    1    1    2    0    0 -0.16931156466E+02 -0.37295612461E+02  0.12305730894E+03  0.15260387940E+03  0.80419002446E+02 0. -1.
<mgrwt>
<rscale>  0 0.90248794E+02</rscale>
<asrwt>0</asrwt>
<pdfrwt beam="1">  1        1 0.47135809E-01 0.90248805E+02</pdfrwt>
<pdfrwt beam="2">  1       -1 0.41313664E-02 0.90248805E+02</pdfrwt>
<totfact> 0.17972789E+04</totfact>
</mgrwt>
</event>
<event>
 4    1  0.6602701E-002  0.8991894E+02  0.7546771E-02  0.1303048E+00
          1   -1    0    0  501    0  0.00000000000E+00  0.00000000000E+00  0.96034683450E+03  0.96034683450E+03  0.00000000000E+00 0. -1.
         -1   -1    0    0    0  501 -0.00000000000E+00 -0.00000000000E+00 -0.11147662236E+02  0.11147662236E+02  0.00000000000E+00 0.  1.
         24    1    1    2    0    0  0.10356533222E+01 -0.40213518546E+02  0.23428941295E+03  0.25095207635E+03  0.80419002446E+02 0.  1.
        -24    1    1    2    0    0 -0.10356533222E+01  0.40213518546E+02  0.71490975932E+03  0.72054242038E+03  0.80419002446E+02 0. -1.
<mgrwt>
<rscale>  0 0.89918939E+02</rscale>
<asrwt>0</asrwt>
<pdfrwt beam="1">  1        1 0.14774560E+00 0.89918939E+02</pdfrwt>
<pdfrwt beam="2">  1       -1 0.17150257E-02 0.89918939E+02</pdfrwt>
<totfact> 0.13686760E+04</totfact>
</mgrwt>
</event>
<event>
 4    1  0.6602701E-002  0.1335571E+03  0.7546771E-02  0.1222271E+00
          4   -1    0    0  501    0  0.00000000000E+00  0.00000000000E+00  0.25199588065E+02  0.25199588065E+02  0.00000000000E+00 0. -1.
         -4   -1    0    0    0  501 -0.00000000000E+00 -0.00000000000E+00 -0.82533758577E+03  0.82533758577E+03  0.00000000000E+00 0.  1.
         24    1    1    2    0    0  0.32244995533E+02 -0.10163928449E+03 -0.56052116246E+03  0.57621304516E+03  0.80419002446E+02 0.  1.
        -24    1    1    2    0    0 -0.32244995533E+02  0.10163928449E+03 -0.23961683525E+03  0.27432412868E+03  0.80419002446E+02 0. -1.
<mgrwt>
<rscale>  0 0.13355712E+03</rscale>
<asrwt>0</asrwt>
<pdfrwt beam="1">  1        4 0.38768589E-02 0.13355714E+03</pdfrwt>
<pdfrwt beam="2">  1       -4 0.12697504E+00 0.13355714E+03</pdfrwt>
<totfact> 0.28917275E+02</totfact>
</mgrwt>
</event>
<event>
 4    1  0.6602701E-002  0.9742434E+02  0.7546771E-02  0.1285807E+00
          2   -1    0    0  501    0  0.00000000000E+00  0.00000000000E+00  0.18430819392E+04  0.18430819392E+04  0.00000000000E+00 0. -1.
         -2   -1    0    0    0  501 -0.00000000000E+00 -0.00000000000E+00 -0.52979426820E+01  0.52979426820E+01  0.00000000000E+00 0.  1.
         24    1    1    2    0    0 -0.49183175380E+02  0.24602866237E+02  0.10734348857E+04  0.10778469073E+04  0.80419002446E+02 0.  0.
        -24    1    1    2    0    0  0.49183175380E+02 -0.24602866237E+02  0.76434911081E+03  0.77053297458E+03  0.80419002446E+02 0.  1.
<mgrwt>
<rscale>  0 0.97424338E+02</rscale>
<asrwt>0</asrwt>
<pdfrwt beam="1">  1        2 0.28355056E+00 0.97424338E+02</pdfrwt>
<pdfrwt beam="2">  1       -2 0.81506958E-03 0.97424338E+02</pdfrwt>
<totfact> 0.24388592E+04</totfact>
</mgrwt>
</event>
<event>
 4    1  0.6602701E-002  0.1103455E+03  0.7546771E-02  0.1259931E+00
          1   -1    0    0  501    0  0.00000000000E+00  0.00000000000E+00  0.11432497623E+03  0.11432497623E+03  0.00000000000E+00 0. -1.
         -1   -1    0    0    0  501 -0.00000000000E+00 -0.00000000000E+00 -0.10822519916E+03  0.10822519916E+03  0.00000000000E+00 0.  1.
         24    1    1    2    0    0 -0.52319678933E+02 -0.54512054987E+02 -0.10980874548E+02  0.11089052486E+03  0.80419002446E+02 0.  0.
        -24    1    1    2    0    0  0.52319678933E+02  0.54512054987E+02  0.17080651615E+02  0.11165965053E+03  0.80419002446E+02 0.  1.
<mgrwt>
<rscale>  0 0.11034550E+03</rscale>
<asrwt>0</asrwt>
<pdfrwt beam="1">  1        1 0.17588458E-01 0.11034550E+03</pdfrwt>
<pdfrwt beam="2">  1       -1 0.16650031E-01 0.11034550E+03</pdfrwt>
<totfact> 0.76374821E+03</totfact>
</mgrwt>
</event>
<event>
 4    1  0.6602701E-002  0.8956340E+02  0.7546771E-02  0.1303912E+00
         -1   -1    0    0    0  501 -0.00000000000E+00  0.00000000000E+00  0.32051664782E+01  0.32051664782E+01  0.00000000000E+00 0.  1.
          1   -1    0    0  501    0  0.00000000000E+00 -0.00000000000E+00 -0.25431632078E+04  0.25431632078E+04  0.00000000000E+00 0. -1.
         24    1    1    2    0    0  0.12019427033E+02 -0.37548845751E+02 -0.14305573609E+04  0.14333582808E+04  0.80419002446E+02 0.  0.
        -24    1    1    2    0    0 -0.12019427033E+02  0.37548845751E+02 -0.11094006804E+04  0.11130100935E+04  0.80419002446E+02 0.  0.
<mgrwt>
<rscale>  0 0.89563388E+02</rscale>
<asrwt>0</asrwt>
<pdfrwt beam="1">  1        1 0.39125649E+00 0.89563399E+02</pdfrwt>
<pdfrwt beam="2">  1       -1 0.49310176E-03 0.89563399E+02</pdfrwt>
<totfact> 0.75273014E+03</totfact>
</mgrwt>
</event>
<event>
 4    1  0.6602701E-002  0.1917094E+03  0.7546771E-02  0.1156929E+00
          3   -1    0    0  501    0  0.00000000000E+00  0.00000000000E+00  0.26539704446E+03  0.26539704446E+03  0.00000000000E+00 0. -1.
         -3   -1    0    0    0  501 -0.00000000000E+00 -0.00000000000E+00 -0.15169713760E+03  0.15169713760E+03  0.00000000000E+00 0.  1.
         24    1    1    2    0    0  0.16655684279E+02  0.17322782767E+03 -0.47051419302E+01  0.19176716719E+03  0.80419002446E+02 0.  1.
        -24    1    1    2    0    0 -0.16655684279E+02 -0.17322782767E+03  0.11840504878E+03  0.22532701487E+03  0.80419002446E+02 0. -1.
<mgrwt>
<rscale>  0 0.19170944E+03</rscale>
<asrwt>0</asrwt>
<pdfrwt beam="1">  1        3 0.40830315E-01 0.19170944E+03</pdfrwt>
<pdfrwt beam="2">  1       -3 0.23338021E-01 0.19170944E+03</pdfrwt>
<totfact> 0.24696600E+02</totfact>
</mgrwt>
</event>
<event>
 4    1  0.6602701E-002  0.8604984E+02  0.7546771E-02  0.1312710E+00
         -2   -1    0    0    0  501 -0.00000000000E+00  0.00000000000E+00  0.17037766502E+02  0.17037766502E+02  0.00000000000E+00 0.  1.
          2   -1    0    0  501    0  0.00000000000E+00 -0.00000000000E+00 -0.11146683121E+04  0.11146683121E+04  0.00000000000E+00 0. -1.
         24    1    1    2    0    0  0.23585135152E+02  0.19521778511E+02 -0.99080057202E+03  0.99453021468E+03  0.80419002446E+02 0. -1.
        -24    1    1    2    0    0 -0.23585135152E+02 -0.19521778511E+02 -0.10682997361E+03  0.13717586395E+03  0.80419002446E+02 0.  1.
<mgrwt>
<rscale>  0 0.86049837E+02</rscale>
<asrwt>0</asrwt>
<pdfrwt beam="1">  1        2 0.17148743E+00 0.86049837E+02</pdfrwt>
<pdfrwt beam="2">  1       -2 0.26211949E-02 0.86049837E+02</pdfrwt>
<totfact> 0.10891511E+04</totfact>
</mgrwt>
</event>
<event>
 4    1  0.6602701E-002  0.1400041E+03  0.7546771E-02  0.1213323E+00
          2   -1    0    0  501    0  0.00000000000E+00  0.00000000000E+00  0.22326145541E+04  0.22326145541E+04  0.00000000000E+00 0. -1.
         -2   -1    0    0    0  501 -0.00000000000E+00 -0.00000000000E+00 -0.60021059060E+02  0.60021059060E+02  0.00000000000E+00 0.  1.
         24    1    1    2    0    0 -0.63466844639E+02  0.95424775116E+02  0.21454640378E+04  0.21500272281E+04  0.80419002446E+02 0. -1.
        -24    1    1    2    0    0  0.63466844639E+02 -0.95424775116E+02  0.27129457181E+02  0.14260838501E+03  0.80419002446E+02 0.  1.
<mgrwt>
<rscale>  0 0.14000409E+03</rscale>
<asrwt>0</asrwt>
<pdfrwt beam="1">  1        2 0.34347910E+00 0.14000409E+03</pdfrwt>
<pdfrwt beam="2">  1       -2 0.92340108E-02 0.14000409E+03</pdfrwt>
<totfact> 0.43772114E+02</totfact>
</mgrwt>
</event>
<event>
 4    1  0.6602701E-002  0.1003842E+03  0.7546771E-02  0.1279490E+00
          1   -1    0    0  501    0  0.00000000000E+00  0.00000000000E+00  0.67031159015E+03  0.67031159015E+03  0.00000000000E+00 0. -1.
         -1   -1    0    0    0  501 -0.00000000000E+00 -0.00000000000E+00 -0.17665727842E+02  0.17665727842E+02  0.00000000000E+00 0.  1.
         24    1    1    2    0    0 -0.11034836705E+02  0.59059343769E+02  0.19353540515E+03  0.21802050984E+03  0.80419002446E+02 0.  1.
        -24    1    1    2    0    0  0.11034836705E+02 -0.59059343769E+02  0.45911045715E+03  0.46995680815E+03  0.80419002446E+02 0. -1.
<mgrwt>
<rscale>  0 0.10038421E+03</rscale>
<asrwt>0</asrwt>
<pdfrwt beam="1">  1        1 0.10312484E+00 0.10038421E+03</pdfrwt>
<pdfrwt beam="2">  1       -1 0.27178048E-02 0.10038421E+03</pdfrwt>
<totfact> 0.12220895E+04</totfact>
</mgrwt>
</event>
<event>
 4    1  0.6602701E-002  0.9328276E+02  0.7546771E-02  0.1295091E+00
         -1   -1    0    0    0  501 -0.00000000000E+00  0.00000000000E+00  0.21765305066E+02  0.21765305066E+02  0.00000000000E+00 0.  1.
          1   -1    0    0  501    0  0.00000000000E+00 -0.00000000000E+00 -0.74035952754E+03  0.74035952754E+03  0.00000000000E+00 0. -1.
         24    1    1    2    0    0  0.16243609030E+02 -0.44391479309E+02 -0.10084857610E+03  0.13737579672E+03  0.80419002446E+02 0.  1.
        -24    1    1    2    0    0 -0.16243609030E+02  0.44391479309E+02 -0.61774564637E+03  0.62474903588E+03  0.80419002446E+02 0. -1.
<mgrwt>
<rscale>  0 0.93282765E+02</rscale>
<asrwt>0</asrwt>
<pdfrwt beam="1">  1        1 0.11390145E+00 0.93282765E+02</pdfrwt>
<pdfrwt beam="2">  1       -1 0.33485089E-02 0.93282765E+02</pdfrwt>
<totfact> 0.78155753E+03</totfact>
</mgrwt>
</event>
<event>
 4    1  0.6602701E-002  0.8884715E+02  0.7546771E-02  0.1305668E+00
         -1   -1    0    0    0  501 -0.00000000000E+00  0.00000000000E+00  0.23897809738E+01  0.23897809738E+01  0.00000000000E+00 0.  1.
          1   -1    0    0  501    0  0.00000000000E+00 -0.00000000000E+00 -0.34864979543E+04  0.34864979543E+04  0.00000000000E+00 0. -1.
         24    1    1    2    0    0 -0.48711145561E+01 -0.37454936761E+02 -0.13420219452E+04  0.13449597457E+04  0.80419002446E+02 0.  1.
        -24    1    1    2    0    0  0.48711145561E+01  0.37454936761E+02 -0.21420862281E+04  0.21439279896E+04  0.80419002446E+02 0. -1.
<mgrwt>
<rscale>  0 0.88847150E+02</rscale>
<asrwt>0</asrwt>
<pdfrwt beam="1">  1        1 0.53638322E+00 0.88847150E+02</pdfrwt>
<pdfrwt beam="2">  1       -1 0.36765935E-03 0.88847150E+02</pdfrwt>
<totfact> 0.25710485E+03</totfact>
</mgrwt>
</event>
<event>
 4    1  0.6602701E-002  0.8303895E+02  0.7546771E-02  0.1320642E+00
          2   -1    0    0  501    0  0.00000000000E+00  0.00000000000E+00  0.21376695226E+04  0.21376695226E+04  0.00000000000E+00 0. -1.
         -2   -1    0    0    0  501 -0.00000000000E+00 -0.00000000000E+00 -0.42437945130E+01  0.42437945130E+01  0.00000000000E+00 0.  1.
         24    1    1    2    0    0 -0.77670781064E+01 -0.19181328994E+02  0.15912667894E+04  0.15934319759E+04  0.80419002446E+02 0. -1.
        -24    1    1    2    0    0  0.77670781064E+01  0.19181328994E+02  0.54215893873E+03  0.54848134123E+03  0.80419002446E+02 0. -1.
<mgrwt>
<rscale>  0 0.83038948E+02</rscale>
<asrwt>0</asrwt>
<pdfrwt beam="1">  1        2 0.32887137E+00 0.83038948E+02</pdfrwt>
<pdfrwt beam="2">  1       -2 0.65289317E-03 0.83038948E+02</pdfrwt>
<totfact> 0.23456658E+04</totfact>
</mgrwt>
</event>
<event>
 4    1  0.6602701E-002  0.1050536E+03  0.7546771E-02  0.1270014E+00
          1   -1    0    0  501    0  0.00000000000E+00  0.00000000000E+00  0.10754703022E+03  0.10754703022E+03  0.00000000000E+00 0. -1.
         -1   -1    0    0    0  501 -0.00000000000E+00 -0.00000000000E+00 -0.10657743477E+03  0.10657743477E+03  0.00000000000E+00 0.  1.
         24    1    1    2    0    0  0.64813425428E+02 -0.19190417296E+02 -0.20150781813E+02  0.10696879075E+03  0.80419002446E+02 0.  1.
        -24    1    1    2    0    0 -0.64813425428E+02  0.19190417296E+02  0.21120377271E+02  0.10715567424E+03  0.80419002446E+02 0. -1.
<mgrwt>
<rscale>  0 0.10505364E+03</rscale>
<asrwt>0</asrwt>
<pdfrwt beam="1">  1        1 0.16545697E-01 0.10505364E+03</pdfrwt>
<pdfrwt beam="2">  1       -1 0.16396528E-01 0.10505364E+03</pdfrwt>
<totfact> 0.84231291E+03</totfact>
</mgrwt>
</event>
<event>
 4    1  0.6602701E-002  0.8121830E+02  0.7546771E-02  0.1325629E+00
          1   -1    0    0  501    0  0.00000000000E+00  0.00000000000E+00  0.13311411349E+04  0.13311411349E+04  0.00000000000E+00 0. -1.
         -1   -1    0    0    0  501 -0.00000000000E+00 -0.00000000000E+00 -0.13468521995E+02  0.13468521995E+02  0.00000000000E+00 0.  1.
         24    1    1    2    0    0  0.10280235119E+02 -0.48489518693E+01  0.12433440235E+03  0.14851079129E+03  0.80419002446E+02 0.  1.
        -24    1    1    2    0    0 -0.10280235119E+02  0.48489518693E+01  0.11933382105E+04  0.11960988656E+04  0.80419002446E+02 0.  0.
<mgrwt>
<rscale>  0 0.81218295E+02</rscale>
<asrwt>0</asrwt>
<pdfrwt beam="1">  1        1 0.20479084E+00 0.81218295E+02</pdfrwt>
<pdfrwt beam="2">  1       -1 0.20720813E-02 0.81218295E+02</pdfrwt>
<totfact> 0.57904903E+03</totfact>
</mgrwt>
</event>
<event>
 4    1  0.6602701E-002  0.9334095E+02  0.7546771E-02  0.1294957E+00
         -1   -1    0    0    0  501 -0.00000000000E+00  0.00000000000E+00  0.17652937603E+02  0.17652937603E+02  0.00000000000E+00 0.  1.
          1   -1    0    0  501    0  0.00000000000E+00 -0.00000000000E+00 -0.50893759478E+03  0.50893759478E+03  0.00000000000E+00 0. -1.
         24    1    1    2    0    0 -0.39278556323E+02 -0.26504940382E+02 -0.19985389981E+03  0.22057677592E+03  0.80419002446E+02 0.  1.
        -24    1    1    2    0    0  0.39278556323E+02  0.26504940382E+02 -0.29143075737E+03  0.30601375647E+03  0.80419002446E+02 0. -1.
<mgrwt>
<rscale>  0 0.93340949E+02</rscale>
<asrwt>0</asrwt>
<pdfrwt beam="1">  1        1 0.78298082E-01 0.93340949E+02</pdfrwt>
<pdfrwt beam="2">  1       -1 0.27158369E-02 0.93340949E+02</pdfrwt>
<totfact> 0.17563652E+04</totfact>
</mgrwt>
</event>
<event>
 4    1  0.6602701E-002  0.9007637E+02  0.7546771E-02  0.1302667E+00
          2   -1    0    0  501    0  0.00000000000E+00  0.00000000000E+00  0.18479868683E+03  0.18479868683E+03  0.00000000000E+00 0. -1.
         -2   -1    0    0    0  501 -0.00000000000E+00 -0.00000000000E+00 -0.15410661652E+03  0.15410661652E+03  0.00000000000E+00 0.  1.
         24    1    1    2    0    0 -0.34501591443E+02 -0.21358288887E+02  0.15864067323E+03  0.18242975490E+03  0.80419002446E+02 0. -1.
        -24    1    1    2    0    0  0.34501591443E+02  0.21358288887E+02 -0.12794860292E+03  0.15647554844E+03  0.80419002446E+02 0.  1.
<mgrwt>
<rscale>  0 0.90076369E+02</rscale>
<asrwt>0</asrwt>
<pdfrwt beam="1">  1        2 0.28430567E-01 0.90076369E+02</pdfrwt>
<pdfrwt beam="2">  1       -2 0.23708710E-01 0.90076369E+02</pdfrwt>
<totfact> 0.27510672E+03</totfact>
</mgrwt>
</event>
<event>
 4    1  0.6602701E-002  0.8758754E+02  0.7546771E-02  0.1308801E+00
          4   -1    0    0  501    0  0.00000000000E+00  0.00000000000E+00  0.35809042637E+03  0.35809042637E+03  0.00000000000E+00 0. -1.
         -4   -1    0    0    0  501 -0.00000000000E+00 -0.00000000000E+00 -0.22996479335E+02  0.22996479335E+02  0.00000000000E+00 0.  1.
         24    1    1    2    0    0  0.34676150181E+02 -0.13879924879E+01  0.21737965019E+03  0.23436187870E+03  0.80419002446E+02 0.  1.
        -24    1    1    2    0    0 -0.34676150181E+02  0.13879924879E+01  0.11771429684E+03  0.14672502700E+03  0.80419002446E+02 0.  0.
<mgrwt>
<rscale>  0 0.87587544E+02</rscale>
<asrwt>0</asrwt>
<pdfrwt beam="1">  1        4 0.55090831E-01 0.87587544E+02</pdfrwt>
<pdfrwt beam="2">  1       -4 0.35379202E-02 0.87587544E+02</pdfrwt>
<totfact> 0.19491465E+03</totfact>
</mgrwt>
</event>
<event>
 4    1  0.6602701E-002  0.8377110E+02  0.7546771E-02  0.1318678E+00
         -1   -1    0    0    0  501 -0.00000000000E+00  0.00000000000E+00  0.32372251122E+02  0.32372251122E+02  0.00000000000E+00 0.  1.
          1   -1    0    0  501    0  0.00000000000E+00 -0.00000000000E+00 -0.29925571202E+03  0.29925571202E+03  0.00000000000E+00 0. -1.
         24    1    1    2    0    0  0.46630171943E+00 -0.23455553077E+02 -0.46391914092E+02  0.95759104293E+02  0.80419002446E+02 0.  1.
        -24    1    1    2    0    0 -0.46630171943E+00  0.23455553077E+02 -0.22049154681E+03  0.23586885885E+03  0.80419002446E+02 0. -1.
<mgrwt>
<rscale>  0 0.83771095E+02</rscale>
<asrwt>0</asrwt>
<pdfrwt beam="1">  1        1 0.46039340E-01 0.83771095E+02</pdfrwt>
<pdfrwt beam="2">  1       -1 0.49803464E-02 0.83771095E+02</pdfrwt>
<totfact> 0.13980974E+04</totfact>
</mgrwt>
</event>
<event>
 4    1  0.6602701E-002  0.1281552E+03  0.7546771E-02  0.1230219E+00
         -1   -1    0    0    0  501 -0.00000000000E+00  0.00000000000E+00  0.52775645080E+02  0.52775645080E+02  0.00000000000E+00 0.  1.
          1   -1    0    0  501    0  0.00000000000E+00 -0.00000000000E+00 -0.40862139777E+03  0.40862139777E+03  0.00000000000E+00 0. -1.
         24    1    1    2    0    0 -0.29027772823E+02  0.95466896976E+02 -0.29056802264E+03  0.31757445071E+03  0.80419002446E+02 0.  1.
        -24    1    1    2    0    0  0.29027772823E+02 -0.95466896976E+02 -0.65277730053E+02  0.14382259214E+03  0.80419002446E+02 0.  0.
<mgrwt>
<rscale>  0 0.12815522E+03</rscale>
<asrwt>0</asrwt>
<pdfrwt beam="1">  1        1 0.62864828E-01 0.12815523E+03</pdfrwt>
<pdfrwt beam="2">  1       -1 0.81193303E-02 0.12815523E+03</pdfrwt>
<totfact> 0.47602403E+03</totfact>
</mgrwt>
</event>
<event>
 4    1  0.6602701E-002  0.8709004E+02  0.7546771E-02  0.1310056E+00
         -1   -1    0    0    0  501 -0.00000000000E+00  0.00000000000E+00  0.72138148389E+01  0.72138148389E+01  0.00000000000E+00 0.  1.
          1   -1    0    0  501    0  0.00000000000E+00 -0.00000000000E+00 -0.10720655607E+04  0.10720655607E+04  0.00000000000E+00 0. -1.
         24    1    1    2    0    0 -0.31457039879E+02 -0.11309714387E+02 -0.60733256254E+03  0.61354503704E+03  0.80419002446E+02 0.  0.
        -24    1    1    2    0    0  0.31457039879E+02  0.11309714387E+02 -0.45751918327E+03  0.46573433845E+03  0.80419002446E+02 0.  0.
<mgrwt>
<rscale>  0 0.87090027E+02</rscale>
<asrwt>0</asrwt>
<pdfrwt beam="1">  1        1 0.16493321E+00 0.87090038E+02</pdfrwt>
<pdfrwt beam="2">  1       -1 0.11098174E-02 0.87090038E+02</pdfrwt>
<totfact> 0.21037269E+04</totfact>
</mgrwt>
</event>
<event>
 4    1  0.6602701E-002  0.1161502E+03  0.7546771E-02  0.1249587E+00
         -2   -1    0    0    0  501 -0.00000000000E+00  0.00000000000E+00  0.71014143483E+02  0.71014143483E+02  0.00000000000E+00 0.  1.
          2   -1    0    0  501    0  0.00000000000E+00 -0.00000000000E+00 -0.24533964295E+03  0.24533964295E+03  0.00000000000E+00 0. -1.
         24    1    1    2    0    0 -0.44822608204E+02  0.70813679146E+02 -0.16230398552E+03  0.19958317321E+03  0.80419002446E+02 0. -1.
        -24    1    1    2    0    0  0.44822608204E+02 -0.70813679146E+02 -0.12021513952E+02  0.11677061322E+03  0.80419002446E+02 0.  1.
<mgrwt>
<rscale>  0 0.11615016E+03</rscale>
<asrwt>0</asrwt>
<pdfrwt beam="1">  1        2 0.37744561E-01 0.11615016E+03</pdfrwt>
<pdfrwt beam="2">  1       -2 0.10925253E-01 0.11615016E+03</pdfrwt>
<totfact> 0.73620512E+03</totfact>
</mgrwt>
</event>
<event>
 4    1  0.6602701E-002  0.1037152E+03  0.7546771E-02  0.1272672E+00
         -3   -1    0    0    0  501 -0.00000000000E+00  0.00000000000E+00  0.21697354314E+04  0.21697354314E+04  0.00000000000E+00 0.  1.
          3   -1    0    0  501    0  0.00000000000E+00 -0.00000000000E+00 -0.54024522579E+01  0.54024522579E+01  0.00000000000E+00 0. -1.
         24    1    1    2    0    0  0.61980083224E+02 -0.21168284237E+02  0.77011040560E+03  0.77706298312E+03  0.80419002446E+02 0.  1.
        -24    1    1    2    0    0 -0.61980083224E+02  0.21168284237E+02  0.13942225735E+04  0.13980749005E+04  0.80419002446E+02 0. -1.
<mgrwt>
<rscale>  0 0.10371521E+03</rscale>
<asrwt>0</asrwt>
<pdfrwt beam="1">  1        3 0.83114823E-03 0.10371523E+03</pdfrwt>
<pdfrwt beam="2">  1       -3 0.33380476E+00 0.10371523E+03</pdfrwt>
<totfact> 0.24541741E+02</totfact>
</mgrwt>
</event>
<event>
 4    1  0.6602701E-002  0.8898717E+02  0.7546771E-02  0.1305323E+00
         -4   -1    0    0    0  501 -0.00000000000E+00  0.00000000000E+00  0.15974285924E+02  0.15974285924E+02  0.00000000000E+00 0.  1.
          4   -1    0    0  501    0  0.00000000000E+00 -0.00000000000E+00 -0.51893776735E+03  0.51893776735E+03  0.00000000000E+00 0. -1.
         24    1    1    2    0    0 -0.38074466196E+02  0.13530453503E+01 -0.19490461293E+03  0.21425806823E+03  0.80419002446E+02 0. -1.
        -24    1    1    2    0    0  0.38074466196E+02 -0.13530453503E+01 -0.30805886850E+03  0.32065398504E+03  0.80419002446E+02 0. -1.
<mgrwt>
<rscale>  0 0.88987154E+02</rscale>
<asrwt>0</asrwt>
<pdfrwt beam="1">  1        4 0.79836575E-01 0.88987165E+02</pdfrwt>
<pdfrwt beam="2">  1       -4 0.24575826E-02 0.88987165E+02</pdfrwt>
<totfact> 0.15702697E+03</totfact>
</mgrwt>
</event>
<event>
 4    1  0.6602701E-002  0.9984851E+02  0.7546771E-02  0.1280615E+00
          1   -1    0    0  501    0  0.00000000000E+00  0.00000000000E+00  0.34326716027E+03  0.34326716027E+03  0.00000000000E+00 0. -1.
         -1   -1    0    0    0  501 -0.00000000000E+00 -0.00000000000E+00 -0.48468101159E+02  0.48468101159E+02  0.00000000000E+00 0.  1.
         24    1    1    2    0    0  0.57226265580E+02 -0.15088523063E+02  0.23403079781E+02  0.10255451769E+03  0.80419002446E+02 0.  1.
        -24    1    1    2    0    0 -0.57226265580E+02  0.15088523063E+02  0.27139597933E+03  0.28918074375E+03  0.80419002446E+02 0. -1.
<mgrwt>
<rscale>  0 0.99848510E+02</rscale>
<asrwt>0</asrwt>
<pdfrwt beam="1">  1        1 0.52810331E-01 0.99848510E+02</pdfrwt>
<pdfrwt beam="2">  1       -1 0.74566311E-02 0.99848510E+02</pdfrwt>
<totfact> 0.66150904E+03</totfact>
</mgrwt>
</event>
<event>
 4    1  0.6602701E-002  0.8874787E+02  0.7546771E-02  0.1305913E+00
          2   -1    0    0  501    0  0.00000000000E+00  0.00000000000E+00  0.82943922559E+03  0.82943922559E+03  0.00000000000E+00 0. -1.
         -2   -1    0    0    0  501 -0.00000000000E+00 -0.00000000000E+00 -0.16855271299E+02  0.16855271299E+02  0.00000000000E+00 0.  1.
         24    1    1    2    0    0 -0.13577290395E+02 -0.34994596360E+02  0.12668548159E+03  0.15467834945E+03  0.80419002446E+02 0.  1.
        -24    1    1    2    0    0  0.13577290395E+02  0.34994596360E+02  0.68589847269E+03  0.69161614743E+03  0.80419002446E+02 0.  0.
<mgrwt>
<rscale>  0 0.88747859E+02</rscale>
<asrwt>0</asrwt>
<pdfrwt beam="1">  1        2 0.12760600E+00 0.88747870E+02</pdfrwt>
<pdfrwt beam="2">  1       -2 0.25931193E-02 0.88747870E+02</pdfrwt>
<totfact> 0.16404963E+04</totfact>
</mgrwt>
</event>
<event>
 4    1  0.6602701E-002  0.8044159E+02  0.7546771E-02  0.1327803E+00
         -2   -1    0    0    0  501 -0.00000000000E+00  0.00000000000E+00  0.11746475363E+03  0.11746475363E+03  0.00000000000E+00 0.  1.
          2   -1    0    0  501    0  0.00000000000E+00 -0.00000000000E+00 -0.28687580093E+03  0.28687580093E+03  0.00000000000E+00 0. -1.
         24    1    1    2    0    0 -0.18635284980E+01  0.40078524677E+00 -0.26643108858E+03  0.27830985302E+03  0.80419002446E+02 0. -1.
        -24    1    1    2    0    0  0.18635284980E+01 -0.40078524677E+00  0.97020041285E+02  0.12603070155E+03  0.80419002446E+02 0.  0.
<mgrwt>
<rscale>  0 0.80441590E+02</rscale>
<asrwt>0</asrwt>
<pdfrwt beam="1">  1        2 0.44134738E-01 0.80441590E+02</pdfrwt>
<pdfrwt beam="2">  1       -2 0.18071501E-01 0.80441590E+02</pdfrwt>
<totfact> 0.27134158E+03</totfact>
</mgrwt>
</event>
<event>
 4    1  0.6602701E-002  0.1506856E+03  0.7546771E-02  0.1199633E+00
          1   -1    0    0  501    0  0.00000000000E+00  0.00000000000E+00  0.29039869433E+03  0.29039869433E+03  0.00000000000E+00 0. -1.
         -1   -1    0    0    0  501 -0.00000000000E+00 -0.00000000000E+00 -0.12260426699E+03  0.12260426699E+03  0.00000000000E+00 0.  1.
         24    1    1    2    0    0  0.55255589221E+02 -0.11482922196E+03 -0.40392095795E+02  0.15600534514E+03  0.80419002446E+02 0.  1.
        -24    1    1    2    0    0 -0.55255589221E+02  0.11482922196E+03  0.20818652313E+03  0.25699761618E+03  0.80419002446E+02 0. -1.
<mgrwt>
<rscale>  0 0.15068559E+03</rscale>
<asrwt>0</asrwt>
<pdfrwt beam="1">  1        1 0.44676722E-01 0.15068559E+03</pdfrwt>
<pdfrwt beam="2">  1       -1 0.18862195E-01 0.15068559E+03</pdfrwt>
<totfact> 0.19890828E+03</totfact>
</mgrwt>
</event>
<event>
 4    1  0.6684512E-002  0.1048470E+03  0.7546771E-02  0.1270421E+00
         -1   -1    0    0    0  501 -0.00000000000E+00  0.00000000000E+00  0.29317866118E+02  0.29317866118E+02  0.00000000000E+00 0.  1.
          1   -1    0    0  501    0  0.00000000000E+00 -0.00000000000E+00 -0.90036675903E+03  0.90036675903E+03  0.00000000000E+00 0. -1.
         24    1    1    2    0    0 -0.21954101869E+02  0.63589993138E+02 -0.80428474027E+02  0.13214244286E+03  0.80419002446E+02 0.  1.
        -24    1    1    2    0    0  0.21954101869E+02 -0.63589993138E+02 -0.79062041889E+03  0.79754218229E+03  0.80419002446E+02 0. -1.
<mgrwt>
<rscale>  0 0.10484696E+03</rscale>
<asrwt>0</asrwt>
<pdfrwt beam="1">  1        1 0.13851794E+00 0.10484696E+03</pdfrwt>
<pdfrwt beam="2">  1       -1 0.45104416E-02 0.10484696E+03</pdfrwt>
<totfact> 0.38000897E+03</totfact>
</mgrwt>
</event>
<event>
 4    1  0.6602701E-002  0.1246333E+03  0.7546771E-02  0.1235644E+00
         -1   -1    0    0    0  501 -0.00000000000E+00  0.00000000000E+00  0.10113959349E+03  0.10113959349E+03  0.00000000000E+00 0.  1.
          1   -1    0    0  501    0  0.00000000000E+00 -0.00000000000E+00 -0.15449704847E+03  0.15449704847E+03  0.00000000000E+00 0. -1.
         24    1    1    2    0    0  0.84740313743E+02  0.43420111036E+02 -0.36503764747E+02  0.12986904023E+03  0.80419002446E+02 0. -1.
        -24    1    1    2    0    0 -0.84740313743E+02 -0.43420111036E+02 -0.16853690236E+02  0.12576760173E+03  0.80419002446E+02 0.  1.
<mgrwt>
<rscale>  0 0.12463325E+03</rscale>
<asrwt>0</asrwt>
<pdfrwt beam="1">  1        1 0.23768777E-01 0.12463326E+03</pdfrwt>
<pdfrwt beam="2">  1       -1 0.15559937E-01 0.12463326E+03</pdfrwt>
<totfact> 0.58568365E+03</totfact>
</mgrwt>
</event>
<event>
 4    1  0.6602701E-002  0.8226850E+02  0.7546771E-02  0.1322734E+00
         -1   -1    0    0    0  501 -0.00000000000E+00  0.00000000000E+00  0.16972047925E+02  0.16972047925E+02  0.00000000000E+00 0.  1.
          1   -1    0    0  501    0  0.00000000000E+00 -0.00000000000E+00 -0.67860138012E+03  0.67860138012E+03  0.00000000000E+00 0. -1.
         24    1    1    2    0    0 -0.15430676821E+02 -0.79234674958E+01 -0.55414439111E+03  0.56021791232E+03  0.80419002446E+02 0.  0.
        -24    1    1    2    0    0  0.15430676821E+02  0.79234674958E+01 -0.10748494109E+03  0.13535551573E+03  0.80419002446E+02 0.  1.
<mgrwt>
<rscale>  0 0.82268492E+02</rscale>
<asrwt>0</asrwt>
<pdfrwt beam="1">  1        1 0.10440021E+00 0.82268502E+02</pdfrwt>
<pdfrwt beam="2">  1       -1 0.26110844E-02 0.82268502E+02</pdfrwt>
<totfact> 0.12517630E+04</totfact>
</mgrwt>
</event>
<event>
 4    1  0.6602701E-002  0.9427590E+02  0.7546771E-02  0.1292815E+00
          1   -1    0    0  501    0  0.00000000000E+00  0.00000000000E+00  0.20577110863E+03  0.20577110863E+03  0.00000000000E+00 0. -1.
         -1   -1    0    0    0  501 -0.00000000000E+00 -0.00000000000E+00 -0.63384127519E+02  0.63384127519E+02  0.00000000000E+00 0.  1.
         24    1    1    2    0    0  0.12389340106E+02 -0.47615469490E+02 -0.47619771022E+01  0.94396086059E+02  0.80419002446E+02 0.  1.
        -24    1    1    2    0    0 -0.12389340106E+02  0.47615469490E+02  0.14714895822E+03  0.17475915010E+03  0.80419002446E+02 0. -1.
<mgrwt>
<rscale>  0 0.94275896E+02</rscale>
<asrwt>0</asrwt>
<pdfrwt beam="1">  1        1 0.31657093E-01 0.94275896E+02</pdfrwt>
<pdfrwt beam="2">  1       -1 0.97514043E-02 0.94275896E+02</pdfrwt>
<totfact> 0.82424488E+03</totfact>
</mgrwt>
</event>
<event>
 4    1  0.6602701E-002  0.8727111E+02  0.7546771E-02  0.1309598E+00
         -2   -1    0    0    0  501 -0.00000000000E+00  0.00000000000E+00  0.40099347782E+03  0.40099347782E+03  0.00000000000E+00 0.  1.
          2   -1    0    0  501    0  0.00000000000E+00 -0.00000000000E+00 -0.29027019266E+02  0.29027019266E+02  0.00000000000E+00 0. -1.
         24    1    1    2    0    0  0.24638889088E+02 -0.23279929347E+02  0.59571938983E+02  0.10566485619E+03  0.80419002446E+02 0.  0.
        -24    1    1    2    0    0 -0.24638889088E+02  0.23279929347E+02  0.31239451957E+03  0.32435564089E+03  0.80419002446E+02 0.  0.
<mgrwt>
<rscale>  0 0.87271106E+02</rscale>
<asrwt>0</asrwt>
<pdfrwt beam="1">  1        2 0.44656956E-02 0.87271106E+02</pdfrwt>
<pdfrwt beam="2">  1       -2 0.61691300E-01 0.87271106E+02</pdfrwt>
<totfact> 0.41758245E+03</totfact>
</mgrwt>
</event>
<event>
 4    1  0.6602701E-002  0.1338049E+03  0.7546771E-02  0.1221917E+00
         -1   -1    0    0    0  501 -0.00000000000E+00  0.00000000000E+00  0.45896837466E+03  0.45896837466E+03  0.00000000000E+00 0.  1.
          1   -1    0    0  501    0  0.00000000000E+00 -0.00000000000E+00 -0.94307849934E+02  0.94307849934E+02  0.00000000000E+00 0. -1.
         24    1    1    2    0    0 -0.10374380282E+03 -0.25956835834E+02  0.39416510841E+03  0.41625699105E+03  0.80419002446E+02 0.  1.
        -24    1    1    2    0    0  0.10374380282E+03  0.25956835834E+02 -0.29504583683E+02  0.13701923355E+03  0.80419002446E+02 0. -1.
<mgrwt>
<rscale>  0 0.13380489E+03</rscale>
<asrwt>0</asrwt>
<pdfrwt beam="1">  1        1 0.14508900E-01 0.13380489E+03</pdfrwt>
<pdfrwt beam="2">  1       -1 0.70610518E-01 0.13380489E+03</pdfrwt>
<totfact> 0.81303741E+02</totfact>
</mgrwt>
</event>
<event>
 4    1  0.6602701E-002  0.3219950E+03  0.7546771E-02  0.1074735E+00
          2   -1    0    0  501    0  0.00000000000E+00  0.00000000000E+00  0.16536518199E+04  0.16536518199E+04  0.00000000000E+00 0. -1.
         -2   -1    0    0    0  501 -0.00000000000E+00 -0.00000000000E+00 -0.83120788276E+02  0.83120788276E+02  0.00000000000E+00 0.  1.
         24    1    1    2    0    0  0.20928564757E+03 -0.23111269756E+03  0.12157077869E+04  0.12576272104E+04  0.80419002446E+02 0. -1.
        -24    1    1    2    0    0 -0.20928564757E+03  0.23111269756E+03  0.35482324469E+03  0.47914539775E+03  0.80419002446E+02 0.  1.
<mgrwt>
<rscale>  0 0.32199500E+03</rscale>
<asrwt>0</asrwt>
<pdfrwt beam="1">  1        2 0.25440795E+00 0.32199500E+03</pdfrwt>
<pdfrwt beam="2">  1       -2 0.12787815E-01 0.32199500E+03</pdfrwt>
<totfact> 0.50188116E+02</totfact>
</mgrwt>
</event>
<event>
 4    1  0.6602701E-002  0.8433214E+02  0.7546771E-02  0.1317188E+00
          2   -1    0    0  501    0  0.00000000000E+00  0.00000000000E+00  0.23322726690E+03  0.23322726690E+03  0.00000000000E+00 0. -1.
         -2   -1    0    0    0  501 -0.00000000000E+00 -0.00000000000E+00 -0.62236937349E+02  0.62236937349E+02  0.00000000000E+00 0.  1.
         24    1    1    2    0    0  0.19098501338E+02 -0.16731460094E+02  0.19100134496E+03  0.20879038350E+03  0.80419002446E+02 0. -1.
        -24    1    1    2    0    0 -0.19098501338E+02  0.16731460094E+02 -0.20011015415E+02  0.86673820745E+02  0.80419002446E+02 0.  1.
<mgrwt>
<rscale>  0 0.84332144E+02</rscale>
<asrwt>0</asrwt>
<pdfrwt beam="1">  1        2 0.35881117E-01 0.84332144E+02</pdfrwt>
<pdfrwt beam="2">  1       -2 0.95749136E-02 0.84332144E+02</pdfrwt>
<totfact> 0.93006869E+03</totfact>
</mgrwt>
</event>
<event>
 4    1  0.6602701E-002  0.8073820E+02  0.7546771E-02  0.1326969E+00
          2   -1    0    0  501    0  0.00000000000E+00  0.00000000000E+00  0.19053623751E+04  0.19053623751E+04  0.00000000000E+00 0. -1.
         -2   -1    0    0    0  501 -0.00000000000E+00 -0.00000000000E+00 -0.36979676933E+01  0.36979676933E+01  0.00000000000E+00 0.  1.
         24    1    1    2    0    0  0.44492390382E+01 -0.56254640248E+01  0.12119597684E+04  0.12146460957E+04  0.80419002446E+02 0.  0.
        -24    1    1    2    0    0 -0.44492390382E+01  0.56254640248E+01  0.68970463896E+03  0.69441424707E+03  0.80419002446E+02 0.  1.
<mgrwt>
<rscale>  0 0.80738204E+02</rscale>
<asrwt>0</asrwt>
<pdfrwt beam="1">  1        2 0.29313189E+00 0.80738204E+02</pdfrwt>
<pdfrwt beam="2">  1       -2 0.56891963E-03 0.80738204E+02</pdfrwt>
<totfact> 0.37109286E+04</totfact>
</mgrwt>
</event>
<event>
 4    1  0.6602701E-002  0.1007175E+03  0.7546771E-02  0.1278794E+00
          2   -1    0    0  501    0  0.00000000000E+00  0.00000000000E+00  0.45254083634E+03  0.45254083634E+03  0.00000000000E+00 0. -1.
         -2   -1    0    0    0  501 -0.00000000000E+00 -0.00000000000E+00 -0.25648478879E+02  0.25648478879E+02  0.00000000000E+00 0.  1.
         24    1    1    2    0    0 -0.11377664160E+02 -0.59559555436E+02  0.29833076077E+03  0.31487338831E+03  0.80419002446E+02 0.  0.
        -24    1    1    2    0    0  0.11377664160E+02  0.59559555436E+02  0.12856159668E+03  0.16331592691E+03  0.80419002446E+02 0. -1.
<mgrwt>
<rscale>  0 0.10071747E+03</rscale>
<asrwt>0</asrwt>
<pdfrwt beam="1">  1        2 0.69621661E-01 0.10071747E+03</pdfrwt>
<pdfrwt beam="2">  1       -2 0.39459201E-02 0.10071747E+03</pdfrwt>
<totfact> 0.17892967E+04</totfact>
</mgrwt>
</event>
<event>
 4    1  0.6602701E-002  0.1085456E+03  0.7546771E-02  0.1263287E+00
         -2   -1    0    0    0  501 -0.00000000000E+00  0.00000000000E+00  0.37465676833E+03  0.37465676833E+03  0.00000000000E+00 0.  1.
          2   -1    0    0  501    0  0.00000000000E+00 -0.00000000000E+00 -0.33716831118E+02  0.33716831118E+02  0.00000000000E+00 0. -1.
         24    1    1    2    0    0  0.32569421334E+02  0.65223923888E+02  0.11750101738E+03  0.15996447260E+03  0.80419002446E+02 0. -1.
        -24    1    1    2    0    0 -0.32569421334E+02 -0.65223923888E+02  0.22343891983E+03  0.24840912685E+03  0.80419002446E+02 0.  0.
<mgrwt>
<rscale>  0 0.10854558E+03</rscale>
<asrwt>0</asrwt>
<pdfrwt beam="1">  1        2 0.51872051E-02 0.10854558E+03</pdfrwt>
<pdfrwt beam="2">  1       -2 0.57639500E-01 0.10854558E+03</pdfrwt>
<totfact> 0.40242080E+03</totfact>
</mgrwt>
</event>
<event>
 4    1  0.6602701E-002  0.1360382E+03  0.7546771E-02  0.1218761E+00
         -2   -1    0    0    0  501 -0.00000000000E+00  0.00000000000E+00  0.16056284840E+03  0.16056284840E+03  0.00000000000E+00 0.  1.
          2   -1    0    0  501    0  0.00000000000E+00 -0.00000000000E+00 -0.12327815563E+03  0.12327815563E+03  0.00000000000E+00 0. -1.
         24    1    1    2    0    0  0.71839132332E+02 -0.82935618645E+02 -0.17553008437E+02  0.13716596456E+03  0.80419002446E+02 0.  0.
        -24    1    1    2    0    0 -0.71839132332E+02  0.82935618645E+02  0.54837701208E+02  0.14667503947E+03  0.80419002446E+02 0.  1.
<mgrwt>
<rscale>  0 0.13603821E+03</rscale>
<asrwt>0</asrwt>
<pdfrwt beam="1">  1        2 0.18965870E-01 0.13603821E+03</pdfrwt>
<pdfrwt beam="2">  1       -2 0.24701977E-01 0.13603821E+03</pdfrwt>
<totfact> 0.41068614E+03</totfact>
</mgrwt>
</event>
<event>
 4    1  0.6602701E-002  0.8043097E+02  0.7546771E-02  0.1327833E+00
          1   -1    0    0  501    0  0.00000000000E+00  0.00000000000E+00  0.22547574096E+03  0.22547574096E+03  0.00000000000E+00 0. -1.
         -1   -1    0    0    0  501 -0.00000000000E+00 -0.00000000000E+00 -0.37979493991E+02  0.37979493991E+02  0.00000000000E+00 0.  1.
         24    1    1    2    0    0  0.13815655204E+01  0.12739132181E+00  0.28604306854E+02  0.85365960879E+02  0.80419002446E+02 0.  0.
        -24    1    1    2    0    0 -0.13815655204E+01 -0.12739132181E+00  0.15889194011E+03  0.17808927407E+03  0.80419002446E+02 0. -1.
<mgrwt>
<rscale>  0 0.80430970E+02</rscale>
<asrwt>0</asrwt>
<pdfrwt beam="1">  1        1 0.34688575E-01 0.80430970E+02</pdfrwt>
<pdfrwt beam="2">  1       -1 0.58429992E-02 0.80430970E+02</pdfrwt>
<totfact> 0.15549375E+04</totfact>
</mgrwt>
</event>
<event>
 4    1  0.6602701E-002  0.8197936E+02  0.7546771E-02  0.1323526E+00
          1   -1    0    0  501    0  0.00000000000E+00  0.00000000000E+00  0.81299640063E+03  0.81299640063E+03  0.00000000000E+00 0. -1.
         -1   -1    0    0    0  501 -0.00000000000E+00 -0.00000000000E+00 -0.17237745115E+02  0.17237745115E+02  0.00000000000E+00 0.  1.
         24    1    1    2    0    0 -0.12269149664E+02  0.10142379224E+02  0.98406590561E+02  0.12807994734E+03  0.80419002446E+02 0.  0.
        -24    1    1    2    0    0  0.12269149664E+02 -0.10142379224E+02  0.69735206495E+03  0.70215419840E+03  0.80419002446E+02 0. -1.
<mgrwt>
<rscale>  0 0.81979362E+02</rscale>
<asrwt>0</asrwt>
<pdfrwt beam="1">  1        1 0.12507634E+00 0.81979362E+02</pdfrwt>
<pdfrwt beam="2">  1       -1 0.26519614E-02 0.81979362E+02</pdfrwt>
<totfact> 0.94469880E+03</totfact>
</mgrwt>
</event>
<event>
 4    1  0.6602701E-002  0.3017785E+03  0.7546771E-02  0.1084355E+00
          2   -1    0    0  501    0  0.00000000000E+00  0.00000000000E+00  0.10103623403E+04  0.10103623403E+04  0.00000000000E+00 0. -1.
         -2   -1    0    0    0  501 -0.00000000000E+00 -0.00000000000E+00 -0.35341648896E+03  0.35341648896E+03  0.00000000000E+00 0.  1.
         24    1    1    2    0    0 -0.18317440148E+03 -0.22594290583E+03  0.91701792659E+03  0.96539740609E+03  0.80419002446E+02 0. -1.
        -24    1    1    2    0    0  0.18317440148E+03  0.22594290583E+03 -0.26007207525E+03  0.39838142317E+03  0.80419002446E+02 0.  1.
<mgrwt>
<rscale>  0 0.30177852E+03</rscale>
<asrwt>0</asrwt>
<pdfrwt beam="1">  1        2 0.15544036E+00 0.30177852E+03</pdfrwt>
<pdfrwt beam="2">  1       -2 0.54371768E-01 0.30177852E+03</pdfrwt>
<totfact> 0.84468088E+01</totfact>
</mgrwt>
</event>
<event>
 4    1  0.6602701E-002  0.8661479E+02  0.7546771E-02  0.1311263E+00
          1   -1    0    0  501    0  0.00000000000E+00  0.00000000000E+00  0.65571404235E+02  0.65571404235E+02  0.00000000000E+00 0. -1.
         -1   -1    0    0    0  501 -0.00000000000E+00 -0.00000000000E+00 -0.13463583485E+03  0.13463583485E+03  0.00000000000E+00 0.  1.
         24    1    1    2    0    0 -0.30662682475E+02  0.97316733791E+01 -0.73329985560E+02  0.11348748081E+03  0.80419002446E+02 0.  1.
        -24    1    1    2    0    0  0.30662682475E+02 -0.97316733791E+01  0.42655549407E+01  0.86719758283E+02  0.80419002446E+02 0. -1.
<mgrwt>
<rscale>  0 0.86614788E+02</rscale>
<asrwt>0</asrwt>
<pdfrwt beam="1">  1        1 0.10087908E-01 0.86614788E+02</pdfrwt>
<pdfrwt beam="2">  1       -1 0.20713205E-01 0.86614788E+02</pdfrwt>
<totfact> 0.10844045E+04</totfact>
</mgrwt>
</event>
<event>
 4    1  0.6602701E-002  0.1115582E+03  0.7546771E-02  0.1257711E+00
          2   -1    0    0  501    0  0.00000000000E+00  0.00000000000E+00  0.27756388490E+04  0.27756388490E+04  0.00000000000E+00 0. -1.
         -2   -1    0    0    0  501 -0.00000000000E+00 -0.00000000000E+00 -0.13039477476E+02  0.13039477476E+02  0.00000000000E+00 0.  1.
         24    1    1    2    0    0 -0.77099061404E+02  0.58094345537E+01  0.25107500972E+04  0.25132272641E+04  0.80419002446E+02 0. -1.
        -24    1    1    2    0    0  0.77099061404E+02 -0.58094345537E+01  0.25184927439E+03  0.27545106237E+03  0.80419002446E+02 0.  1.
<mgrwt>
<rscale>  0 0.11155819E+03</rscale>
<asrwt>0</asrwt>
<pdfrwt beam="1">  1        2 0.42702089E+00 0.11155819E+03</pdfrwt>
<pdfrwt beam="2">  1       -2 0.20060757E-02 0.11155819E+03</pdfrwt>
<totfact> 0.22126117E+03</totfact>
</mgrwt>
</event>
<event>
 4    1  0.6602701E-002  0.8511121E+02  0.7546771E-02  0.1315142E+00
         -1   -1    0    0    0  501 -0.00000000000E+00  0.00000000000E+00  0.14101619260E+03  0.14101619260E+03  0.00000000000E+00 0.  1.
          1   -1    0    0  501    0  0.00000000000E+00 -0.00000000000E+00 -0.67026637929E+02  0.67026637929E+02  0.00000000000E+00 0. -1.
         24    1    1    2    0    0  0.18287100899E+02 -0.21030543609E+02  0.87270295987E+02  0.12190169129E+03  0.80419002446E+02 0.  0.
        -24    1    1    2    0    0 -0.18287100899E+02  0.21030543609E+02 -0.13280741321E+02  0.86141139232E+02  0.80419002446E+02 0.  1.
<mgrwt>
<rscale>  0 0.85111208E+02</rscale>
<asrwt>0</asrwt>
<pdfrwt beam="1">  1        1 0.10311790E-01 0.85111208E+02</pdfrwt>
<pdfrwt beam="2">  1       -1 0.21694799E-01 0.85111208E+02</pdfrwt>
<totfact> 0.97704121E+03</totfact>
</mgrwt>
</event>
<event>
 4    1  0.6602701E-002  0.1398116E+03  0.7546771E-02  0.1213583E+00
          2   -1    0    0  501    0  0.00000000000E+00  0.00000000000E+00  0.35315296929E+03  0.35315296929E+03  0.00000000000E+00 0. -1.
         -2   -1    0    0    0  501 -0.00000000000E+00 -0.00000000000E+00 -0.57745950898E+02  0.57745950898E+02  0.00000000000E+00 0.  1.
         24    1    1    2    0    0  0.10017766879E+03 -0.55177126161E+02  0.18954540997E+03  0.23553080259E+03  0.80419002446E+02 0. -1.
        -24    1    1    2    0    0 -0.10017766879E+03  0.55177126161E+02  0.10586160842E+03  0.17536811759E+03  0.80419002446E+02 0.  0.
<mgrwt>
<rscale>  0 0.13981165E+03</rscale>
<asrwt>0</asrwt>
<pdfrwt beam="1">  1        2 0.54331225E-01 0.13981165E+03</pdfrwt>
<pdfrwt beam="2">  1       -2 0.88839927E-02 0.13981165E+03</pdfrwt>
<totfact> 0.70101217E+03</totfact>
</mgrwt>
</event>
<event>
 4    1  0.6602701E-002  0.1149381E+03  0.7546771E-02  0.1251689E+00
          1   -1    0    0  501    0  0.00000000000E+00  0.00000000000E+00  0.93143933044E+02  0.93143933044E+02  0.00000000000E+00 0. -1.
         -1   -1    0    0    0  501 -0.00000000000E+00 -0.00000000000E+00 -0.14953828743E+03  0.14953828743E+03  0.00000000000E+00 0.  1.
         24    1    1    2    0    0 -0.56229968994E+02  0.59847572421E+02 -0.65080866394E+00  0.11493990101E+03  0.80419002446E+02 0.  1.
        -24    1    1    2    0    0  0.56229968994E+02 -0.59847572421E+02 -0.55743545719E+02  0.12774231946E+03  0.80419002446E+02 0. -1.
<mgrwt>
<rscale>  0 0.11493807E+03</rscale>
<asrwt>0</asrwt>
<pdfrwt beam="1">  1        1 0.14329836E-01 0.11493809E+03</pdfrwt>
<pdfrwt beam="2">  1       -1 0.23005890E-01 0.11493809E+03</pdfrwt>
<totfact> 0.59488285E+03</totfact>
</mgrwt>
</event>
<event>
 4    1  0.6602701E-002  0.9508184E+02  0.7546771E-02  0.1290992E+00
          2   -1    0    0  501    0  0.00000000000E+00  0.00000000000E+00  0.33941256667E+03  0.33941256667E+03  0.00000000000E+00 0. -1.
         -2   -1    0    0    0  501 -0.00000000000E+00 -0.00000000000E+00 -0.38556698065E+02  0.38556698065E+02  0.00000000000E+00 0.  1.
         24    1    1    2    0    0  0.85619697065E+01  0.50000337353E+02  0.25551018229E+03  0.27262797045E+03  0.80419002446E+02 0. -1.
        -24    1    1    2    0    0 -0.85619697065E+01 -0.50000337353E+02  0.45345686313E+02  0.10534129429E+03  0.80419002446E+02 0.  1.
<mgrwt>
<rscale>  0 0.95081844E+02</rscale>
<asrwt>0</asrwt>
<pdfrwt beam="1">  1        2 0.52217316E-01 0.95081844E+02</pdfrwt>
<pdfrwt beam="2">  1       -2 0.59317999E-02 0.95081844E+02</pdfrwt>
<totfact> 0.13156842E+04</totfact>
</mgrwt>
</event>
<event>
 4    1  0.6602701E-002  0.9552095E+02  0.7546771E-02  0.1290007E+00
         -2   -1    0    0    0  501 -0.00000000000E+00  0.00000000000E+00  0.36728707693E+02  0.36728707693E+02  0.00000000000E+00 0.  1.
          2   -1    0    0  501    0  0.00000000000E+00 -0.00000000000E+00 -0.10201404938E+04  0.10201404938E+04  0.00000000000E+00 0. -1.
         24    1    1    2    0    0  0.19746230418E+02  0.47614301004E+02 -0.95131694182E+03  0.95610050466E+03  0.80419002446E+02 0. -1.
        -24    1    1    2    0    0 -0.19746230418E+02 -0.47614301004E+02 -0.32094844287E+02  0.10076869683E+03  0.80419002446E+02 0.  1.
<mgrwt>
<rscale>  0 0.95520947E+02</rscale>
<asrwt>0</asrwt>
<pdfrwt beam="1">  1        2 0.15694468E+00 0.95520947E+02</pdfrwt>
<pdfrwt beam="2">  1       -2 0.56505707E-02 0.95520947E+02</pdfrwt>
<totfact> 0.40107813E+03</totfact>
</mgrwt>
</event>
<event>
 4    1  0.6602701E-002  0.1159254E+03  0.7546771E-02  0.1249974E+00
          2   -1    0    0  501    0  0.00000000000E+00  0.00000000000E+00  0.16739755875E+04  0.16739755875E+04  0.00000000000E+00 0. -1.
         -2   -1    0    0    0  501 -0.00000000000E+00 -0.00000000000E+00 -0.10014579117E+02  0.10014579117E+02  0.00000000000E+00 0.  1.
         24    1    1    2    0    0 -0.72477327308E+02  0.41454909553E+02  0.12069926427E+04  0.12125468766E+04  0.80419002446E+02 0. -1.
        -24    1    1    2    0    0  0.72477327308E+02 -0.41454909553E+02  0.45696836567E+03  0.47144328999E+03  0.80419002446E+02 0.  1.
<mgrwt>
<rscale>  0 0.11592536E+03</rscale>
<asrwt>0</asrwt>
<pdfrwt beam="1">  1        2 0.25753448E+00 0.11592536E+03</pdfrwt>
<pdfrwt beam="2">  1       -2 0.15407058E-02 0.11592536E+03</pdfrwt>
<totfact> 0.12106946E+04</totfact>
</mgrwt>
</event>
<event>
 4    1  0.6602701E-002  0.9644985E+02  0.7546771E-02  0.1287944E+00
          3   -1    0    0  501    0  0.00000000000E+00  0.00000000000E+00  0.12129838244E+04  0.12129838244E+04  0.00000000000E+00 0. -1.
         -3   -1    0    0    0  501 -0.00000000000E+00 -0.00000000000E+00 -0.11522799862E+02  0.11522799862E+02  0.00000000000E+00 0.  1.
         24    1    1    2    0    0  0.53248015197E+02 -0.37960808145E-01  0.95479928643E+03  0.95965840062E+03  0.80419002446E+02 0.  1.
        -24    1    1    2    0    0 -0.53248015197E+02  0.37960808145E-01  0.24666173808E+03  0.26484822361E+03  0.80419002446E+02 0.  0.
<mgrwt>
<rscale>  0 0.96449836E+02</rscale>
<asrwt>0</asrwt>
<pdfrwt beam="1">  1        3 0.18661280E+00 0.96449848E+02</pdfrwt>
<pdfrwt beam="2">  1       -3 0.17727394E-02 0.96449848E+02</pdfrwt>
<totfact> 0.49539453E+02</totfact>
</mgrwt>
</event>
<event>
 4    1  0.6602701E-002  0.1025219E+03  0.7546771E-02  0.1275080E+00
         -2   -1    0    0    0  501 -0.00000000000E+00  0.00000000000E+00  0.12245197373E+02  0.12245197373E+02  0.00000000000E+00 0.  1.
          2   -1    0    0  501    0  0.00000000000E+00 -0.00000000000E+00 -0.86100691084E+03  0.86100691084E+03  0.00000000000E+00 0. -1.
         24    1    1    2    0    0  0.43339117023E+02 -0.46532225498E+02 -0.44860645469E+03  0.46017224408E+03  0.80419002446E+02 0. -1.
        -24    1    1    2    0    0 -0.43339117023E+02  0.46532225498E+02 -0.40015525877E+03  0.41307986413E+03  0.80419002446E+02 0.  0.
<mgrwt>
<rscale>  0 0.10252191E+03</rscale>
<asrwt>0</asrwt>
<pdfrwt beam="1">  1        2 0.13246261E+00 0.10252191E+03</pdfrwt>
<pdfrwt beam="2">  1       -2 0.18838763E-02 0.10252191E+03</pdfrwt>
<totfact> 0.25137890E+04</totfact>
</mgrwt>
</event>
<event>
 4    1  0.6602701E-002  0.8269807E+02  0.7546771E-02  0.1321565E+00
          2   -1    0    0  501    0  0.00000000000E+00  0.00000000000E+00  0.66968944709E+03  0.66968944709E+03  0.00000000000E+00 0. -1.
         -2   -1    0    0    0  501 -0.00000000000E+00 -0.00000000000E+00 -0.19714954754E+02  0.19714954754E+02  0.00000000000E+00 0.  1.
         24    1    1    2    0    0  0.78503636994E+01 -0.17610388786E+02  0.56430341267E+03  0.57033087897E+03  0.80419002446E+02 0. -1.
        -24    1    1    2    0    0 -0.78503636994E+01  0.17610388786E+02  0.85671079660E+02  0.11907352287E+03  0.80419002446E+02 0.  1.
<mgrwt>
<rscale>  0 0.82698065E+02</rscale>
<asrwt>0</asrwt>
<pdfrwt beam="1">  1        2 0.10302913E+00 0.82698065E+02</pdfrwt>
<pdfrwt beam="2">  1       -2 0.30330705E-02 0.82698065E+02</pdfrwt>
<totfact> 0.16754537E+04</totfact>
</mgrwt>
</event>
<event>
 4    1  0.6602701E-002  0.1002643E+03  0.7546771E-02  0.1279741E+00
          2   -1    0    0  501    0  0.00000000000E+00  0.00000000000E+00  0.95102203066E+03  0.95102203066E+03  0.00000000000E+00 0. -1.
         -2   -1    0    0    0  501 -0.00000000000E+00 -0.00000000000E+00 -0.11895261511E+02  0.11895261511E+02  0.00000000000E+00 0.  1.
         24    1    1    2    0    0  0.14198572304E+02 -0.58173073061E+02  0.63022647470E+03  0.63815227905E+03  0.80419002446E+02 0. -1.
        -24    1    1    2    0    0 -0.14198572304E+02  0.58173073061E+02  0.30890029445E+03  0.32476501312E+03  0.80419002446E+02 0.  1.
<mgrwt>
<rscale>  0 0.10026426E+03</rscale>
<asrwt>0</asrwt>
<pdfrwt beam="1">  1        2 0.14631102E+00 0.10026426E+03</pdfrwt>
<pdfrwt beam="2">  1       -2 0.18300410E-02 0.10026426E+03</pdfrwt>
<totfact> 0.23000278E+04</totfact>
</mgrwt>
</event>
<event>
 4    1  0.6602701E-002  0.9907191E+02  0.7546771E-02  0.1282260E+00
         -1   -1    0    0    0  501 -0.00000000000E+00  0.00000000000E+00  0.58414737872E+02  0.58414737872E+02  0.00000000000E+00 0.  1.
          1   -1    0    0  501    0  0.00000000000E+00 -0.00000000000E+00 -0.18860588644E+03  0.18860588644E+03  0.00000000000E+00 0. -1.
         24    1    1    2    0    0 -0.35072550450E+02 -0.46021059505E+02 -0.10589361732E+03  0.14501274377E+03  0.80419002446E+02 0. -1.
        -24    1    1    2    0    0  0.35072550450E+02  0.46021059505E+02 -0.24297531251E+02  0.10200788054E+03  0.80419002446E+02 0.  1.
<mgrwt>
<rscale>  0 0.99071894E+02</rscale>
<asrwt>0</asrwt>
<pdfrwt beam="1">  1        1 0.29016291E-01 0.99071906E+02</pdfrwt>
<pdfrwt beam="2">  1       -1 0.89868826E-02 0.99071906E+02</pdfrwt>
<totfact> 0.10419839E+04</totfact>
</mgrwt>
</event>
<event>
 4    1  0.6602701E-002  0.1011721E+03  0.7546771E-02  0.1277850E+00
          2   -1    0    0  501    0  0.00000000000E+00  0.00000000000E+00  0.85225428923E+03  0.85225428923E+03  0.00000000000E+00 0. -1.
         -2   -1    0    0    0  501 -0.00000000000E+00 -0.00000000000E+00 -0.95584593823E+02  0.95584593823E+02  0.00000000000E+00 0.  1.
         24    1    1    2    0    0  0.15813714697E+02 -0.59316971623E+02  0.82148106479E+03  0.82768770225E+03  0.80419002446E+02 0. -1.
        -24    1    1    2    0    0 -0.15813714697E+02  0.59316971623E+02 -0.64811369375E+02  0.12015118081E+03  0.80419002446E+02 0.  1.
<mgrwt>
<rscale>  0 0.10117209E+03</rscale>
<asrwt>0</asrwt>
<pdfrwt beam="1">  1        2 0.13111604E+00 0.10117209E+03</pdfrwt>
<pdfrwt beam="2">  1       -2 0.14705323E-01 0.10117209E+03</pdfrwt>
<totfact> 0.11538329E+03</totfact>
</mgrwt>
</event>
<event>
 4    1  0.6602701E-002  0.9158679E+02  0.7546771E-02  0.1299054E+00
          2   -1    0    0  501    0  0.00000000000E+00  0.00000000000E+00  0.44112349494E+03  0.44112349494E+03  0.00000000000E+00 0. -1.
         -2   -1    0    0    0  501 -0.00000000000E+00 -0.00000000000E+00 -0.28886271173E+02  0.28886271173E+02  0.00000000000E+00 0.  1.
         24    1    1    2    0    0 -0.15607665060E+02 -0.40955151028E+02  0.34349398775E+03  0.35549438699E+03  0.80419002446E+02 0. -1.
        -24    1    1    2    0    0  0.15607665060E+02  0.40955151028E+02  0.68743236020E+02  0.11451537913E+03  0.80419002446E+02 0.  1.
<mgrwt>
<rscale>  0 0.91586787E+02</rscale>
<asrwt>0</asrwt>
<pdfrwt beam="1">  1        2 0.67865148E-01 0.91586787E+02</pdfrwt>
<pdfrwt beam="2">  1       -2 0.44440421E-02 0.91586787E+02</pdfrwt>
<totfact> 0.15293583E+04</totfact>
</mgrwt>
</event>
<event>
 4    1  0.9499735E-002  0.8052275E+02  0.7546771E-02  0.1327574E+00
          3   -1    0    0  501    0  0.00000000000E+00  0.00000000000E+00  0.25850805083E+03  0.25850805083E+03  0.00000000000E+00 0. -1.
         -3   -1    0    0    0  501 -0.00000000000E+00 -0.00000000000E+00 -0.99869809404E+02  0.99869809404E+02  0.00000000000E+00 0.  1.
         24    1    1    2    0    0  0.40325418690E+01  0.66004345110E+00 -0.75744283502E+02  0.11054912704E+03  0.80419002446E+02 0.  1.
        -24    1    1    2    0    0 -0.40325418690E+01 -0.66004345110E+00  0.23438252493E+03  0.24782873320E+03  0.80419002446E+02 0.  0.
<mgrwt>
<rscale>  0 0.80522748E+02</rscale>
<asrwt>0</asrwt>
<pdfrwt beam="1">  1        3 0.39770469E-01 0.80522748E+02</pdfrwt>
<pdfrwt beam="2">  1       -3 0.15364586E-01 0.80522748E+02</pdfrwt>
<totfact> 0.47735869E+02</totfact>
</mgrwt>
</event>
<event>
 4    1  0.6602701E-002  0.8864978E+02  0.7546771E-02  0.1306155E+00
         -1   -1    0    0    0  501 -0.00000000000E+00  0.00000000000E+00  0.15382383744E+02  0.15382383744E+02  0.00000000000E+00 0.  1.
          1   -1    0    0  501    0  0.00000000000E+00 -0.00000000000E+00 -0.66291280631E+03  0.66291280631E+03  0.00000000000E+00 0. -1.
         24    1    1    2    0    0  0.31932078534E+02 -0.19284948873E+02 -0.16135707718E+03  0.18410564685E+03  0.80419002446E+02 0.  1.
        -24    1    1    2    0    0 -0.31932078534E+02  0.19284948873E+02 -0.48617334539E+03  0.49418954320E+03  0.80419002446E+02 0. -1.
<mgrwt>
<rscale>  0 0.88649776E+02</rscale>
<asrwt>0</asrwt>
<pdfrwt beam="1">  1        1 0.10198657E+00 0.88649776E+02</pdfrwt>
<pdfrwt beam="2">  1       -1 0.23665210E-02 0.88649776E+02</pdfrwt>
<totfact> 0.14981230E+04</totfact>
</mgrwt>
</event>
<event>
 4    1  0.6602701E-002  0.1044726E+03  0.7546771E-02  0.1271162E+00
         -2   -1    0    0    0  501 -0.00000000000E+00  0.00000000000E+00  0.14532013116E+03  0.14532013116E+03  0.00000000000E+00 0.  1.
          2   -1    0    0  501    0  0.00000000000E+00 -0.00000000000E+00 -0.79306187797E+02  0.79306187797E+02  0.00000000000E+00 0. -1.
         24    1    1    2    0    0 -0.11219508960E+02 -0.65737670034E+02  0.71624515855E+01  0.10471788438E+03  0.80419002446E+02 0. -1.
        -24    1    1    2    0    0  0.11219508960E+02  0.65737670034E+02  0.58851491777E+02  0.11990843457E+03  0.80419002446E+02 0.  1.
<mgrwt>
<rscale>  0 0.10447265E+03</rscale>
<asrwt>0</asrwt>
<pdfrwt beam="1">  1        2 0.12200952E-01 0.10447265E+03</pdfrwt>
<pdfrwt beam="2">  1       -2 0.22356943E-01 0.10447265E+03</pdfrwt>
<totfact> 0.79966924E+03</totfact>
</mgrwt>
</event>
<event>
 4    1  0.6602701E-002  0.1060257E+03  0.7546771E-02  0.1268112E+00
          2   -1    0    0  501    0  0.00000000000E+00  0.00000000000E+00  0.65858209279E+03  0.65858209279E+03  0.00000000000E+00 0. -1.
         -2   -1    0    0    0  501 -0.00000000000E+00 -0.00000000000E+00 -0.19680017168E+02  0.19680017168E+02  0.00000000000E+00 0.  1.
         24    1    1    2    0    0  0.67713598973E+02 -0.13751444777E+02  0.44297338993E+03  0.45548531684E+03  0.80419002446E+02 0. -1.
        -24    1    1    2    0    0 -0.67713598973E+02  0.13751444777E+02  0.19592868569E+03  0.22277679311E+03  0.80419002446E+02 0.  1.
<mgrwt>
<rscale>  0 0.10602570E+03</rscale>
<asrwt>0</asrwt>
<pdfrwt beam="1">  1        2 0.10132031E+00 0.10602570E+03</pdfrwt>
<pdfrwt beam="2">  1       -2 0.30276954E-02 0.10602570E+03</pdfrwt>
<totfact> 0.17508186E+04</totfact>
</mgrwt>
</event>
<event>
 4    1  0.9275085E-002  0.9434013E+02  0.7546771E-02  0.1292669E+00
          1   -1    0    0  501    0  0.00000000000E+00  0.00000000000E+00  0.20573136996E+04  0.20573136996E+04  0.00000000000E+00 0. -1.
         -1   -1    0    0    0  501 -0.00000000000E+00 -0.00000000000E+00 -0.18781401601E+02  0.18781401601E+02  0.00000000000E+00 0.  1.
         24    1    1    2    0    0 -0.11925074990E+02 -0.47860595871E+02  0.10858269469E+03  0.14384109841E+03  0.80419002446E+02 0.  1.
        -24    1    1    2    0    0  0.11925074990E+02  0.47860595871E+02  0.19299496033E+04  0.19322540028E+04  0.80419002446E+02 0. -1.
<mgrwt>
<rscale>  0 0.94340129E+02</rscale>
<asrwt>0</asrwt>
<pdfrwt beam="1">  1        1 0.31650962E+00 0.94340129E+02</pdfrwt>
<pdfrwt beam="2">  1       -1 0.28894480E-02 0.94340129E+02</pdfrwt>
<totfact> 0.12543280E+03</totfact>
</mgrwt>
</event>
<event>
 4    1  0.6602701E-002  0.1356043E+03  0.7546771E-02  0.1219369E+00
         -4   -1    0    0    0  501 -0.00000000000E+00  0.00000000000E+00  0.37029235836E+02  0.37029235836E+02  0.00000000000E+00 0.  1.
          4   -1    0    0  501    0  0.00000000000E+00 -0.00000000000E+00 -0.58495445644E+03  0.58495445644E+03  0.00000000000E+00 0. -1.
         24    1    1    2    0    0  0.58062044052E+01  0.10903022930E+03 -0.39483175692E+03  0.41746932240E+03  0.80419002446E+02 0.  1.
        -24    1    1    2    0    0 -0.58062044052E+01 -0.10903022930E+03 -0.15309346368E+03  0.20451436988E+03  0.80419002446E+02 0. -1.
<mgrwt>
<rscale>  0 0.13560427E+03</rscale>
<asrwt>0</asrwt>
<pdfrwt beam="1">  1        4 0.89992994E-01 0.13560427E+03</pdfrwt>
<pdfrwt beam="2">  1       -4 0.56968054E-02 0.13560427E+03</pdfrwt>
<totfact> 0.35081196E+02</totfact>
</mgrwt>
</event>
<event>
 4    1  0.6602701E-002  0.1701204E+03  0.7546771E-02  0.1177722E+00
         -2   -1    0    0    0  501 -0.00000000000E+00  0.00000000000E+00  0.14751809339E+04  0.14751809339E+04  0.00000000000E+00 0.  1.
          2   -1    0    0  501    0  0.00000000000E+00 -0.00000000000E+00 -0.10140380096E+03  0.10140380096E+03  0.00000000000E+00 0. -1.
         24    1    1    2    0    0  0.14973574712E+03  0.72760566932E+01 -0.21053351015E+02  0.17141818605E+03  0.80419002446E+02 0. -1.
        -24    1    1    2    0    0 -0.14973574712E+03 -0.72760566932E+01  0.13948304840E+04  0.14051665488E+04  0.80419002446E+02 0.  1.
<mgrwt>
<rscale>  0 0.17012040E+03</rscale>
<asrwt>0</asrwt>
<pdfrwt beam="1">  1        2 0.15600586E-01 0.17012040E+03</pdfrwt>
<pdfrwt beam="2">  1       -2 0.22695090E+00 0.17012040E+03</pdfrwt>
<totfact> 0.37369258E+01</totfact>
</mgrwt>
</event>
<event>
 4    1  0.6602701E-002  0.1794569E+03  0.7546771E-02  0.1168330E+00
         -2   -1    0    0    0  501 -0.00000000000E+00  0.00000000000E+00  0.42376567443E+03  0.42376567443E+03  0.00000000000E+00 0.  1.
          2   -1    0    0  501    0  0.00000000000E+00 -0.00000000000E+00 -0.74295649189E+03  0.74295649189E+03  0.00000000000E+00 0. -1.
         24    1    1    2    0    0  0.21691420159E+02  0.15895615378E+03 -0.71231592988E+03  0.73457387406E+03  0.80419002446E+02 0. -1.
        -24    1    1    2    0    0 -0.21691420159E+02 -0.15895615378E+03  0.39312511242E+03  0.43214829226E+03  0.80419002446E+02 0.  1.
<mgrwt>
<rscale>  0 0.17945694E+03</rscale>
<asrwt>0</asrwt>
<pdfrwt beam="1">  1        2 0.11430100E+00 0.17945694E+03</pdfrwt>
<pdfrwt beam="2">  1       -2 0.65194720E-01 0.17945694E+03</pdfrwt>
<totfact> 0.89342043E+01</totfact>
</mgrwt>
</event>
<event>
 4    1  0.6602701E-002  0.8050810E+02  0.7546771E-02  0.1327616E+00
         -2   -1    0    0    0  501 -0.00000000000E+00  0.00000000000E+00  0.13048953239E+03  0.13048953239E+03  0.00000000000E+00 0.  1.
          2   -1    0    0  501    0  0.00000000000E+00 -0.00000000000E+00 -0.93606329401E+02  0.93606329401E+02  0.00000000000E+00 0. -1.
         24    1    1    2    0    0 -0.47256738933E-02  0.37865755549E+01 -0.58322443673E+02  0.99413588443E+02  0.80419002446E+02 0.  0.
        -24    1    1    2    0    0  0.47256738933E-02 -0.37865755549E+01  0.95205646667E+02  0.12468227335E+03  0.80419002446E+02 0.  1.
<mgrwt>
<rscale>  0 0.80508100E+02</rscale>
<asrwt>0</asrwt>
<pdfrwt beam="1">  1        2 0.14400974E-01 0.80508100E+02</pdfrwt>
<pdfrwt beam="2">  1       -2 0.20075313E-01 0.80508100E+02</pdfrwt>
<totfact> 0.77138335E+03</totfact>
</mgrwt>
</event>
<event>
 4    1  0.6602701E-002  0.9714012E+02  0.7546771E-02  0.1286427E+00
         -1   -1    0    0    0  501 -0.00000000000E+00  0.00000000000E+00  0.11170854084E+03  0.11170854084E+03  0.00000000000E+00 0.  1.
          1   -1    0    0  501    0  0.00000000000E+00 -0.00000000000E+00 -0.88499242144E+02  0.88499242144E+02  0.00000000000E+00 0. -1.
         24    1    1    2    0    0 -0.42657372769E+02 -0.33901847218E+02  0.32959913486E+02  0.10257952304E+03  0.80419002446E+02 0.  1.
        -24    1    1    2    0    0  0.42657372769E+02  0.33901847218E+02 -0.97506147887E+01  0.97628259943E+02  0.80419002446E+02 0. -1.
<mgrwt>
<rscale>  0 0.97140119E+02</rscale>
<asrwt>0</asrwt>
<pdfrwt beam="1">  1        1 0.13615268E-01 0.97140119E+02</pdfrwt>
<pdfrwt beam="2">  1       -1 0.17185929E-01 0.97140119E+02</pdfrwt>
<totfact> 0.99777925E+03</totfact>
</mgrwt>
</event>
<event>
 4    1  0.6602701E-002  0.1360467E+03  0.7546771E-02  0.1218750E+00
          2   -1    0    0  501    0  0.00000000000E+00  0.00000000000E+00  0.10043646816E+04  0.10043646816E+04  0.00000000000E+00 0. -1.
         -2   -1    0    0    0  501 -0.00000000000E+00 -0.00000000000E+00 -0.19229761065E+02  0.19229761065E+02  0.00000000000E+00 0.  1.
         24    1    1    2    0    0 -0.75030576013E+02 -0.80074362901E+02  0.59705377628E+03  0.61235767216E+03  0.80419002446E+02 0. -1.
        -24    1    1    2    0    0  0.75030576013E+02  0.80074362901E+02  0.38808114421E+03  0.41123677046E+03  0.80419002446E+02 0.  1.
<mgrwt>
<rscale>  0 0.13604671E+03</rscale>
<asrwt>0</asrwt>
<pdfrwt beam="1">  1        2 0.15451760E+00 0.13604671E+03</pdfrwt>
<pdfrwt beam="2">  1       -2 0.29584256E-02 0.13604671E+03</pdfrwt>
<totfact> 0.10870887E+04</totfact>
</mgrwt>
</event>
<event>
 4    1  0.6602701E-002  0.8396340E+02  0.7546771E-02  0.1318166E+00
         -2   -1    0    0    0  501 -0.00000000000E+00  0.00000000000E+00  0.15182426012E+02  0.15182426012E+02  0.00000000000E+00 0.  1.
          2   -1    0    0  501    0  0.00000000000E+00 -0.00000000000E+00 -0.48513809335E+03  0.48513809335E+03  0.00000000000E+00 0. -1.
         24    1    1    2    0    0  0.93866339545E+01  0.22237979813E+02 -0.28677029027E+03  0.29880939071E+03  0.80419002446E+02 0.  0.
        -24    1    1    2    0    0 -0.93866339545E+01 -0.22237979813E+02 -0.18318537706E+03  0.20151112864E+03  0.80419002446E+02 0. -1.
<mgrwt>
<rscale>  0 0.83963400E+02</rscale>
<asrwt>0</asrwt>
<pdfrwt beam="1">  1        2 0.74636620E-01 0.83963400E+02</pdfrwt>
<pdfrwt beam="2">  1       -2 0.23357581E-02 0.83963400E+02</pdfrwt>
<totfact> 0.34946170E+04</totfact>
</mgrwt>
</event>
<event>
 4    1  0.6602701E-002  0.8107070E+02  0.7546771E-02  0.1326040E+00
         -2   -1    0    0    0  501 -0.00000000000E+00  0.00000000000E+00  0.56231792682E+02  0.56231792682E+02  0.00000000000E+00 0.  1.
          2   -1    0    0  501    0  0.00000000000E+00 -0.00000000000E+00 -0.14801679385E+03  0.14801679385E+03  0.00000000000E+00 0. -1.
         24    1    1    2    0    0 -0.22596310864E+01 -0.10006641875E+02  0.94570398772E+00  0.81076193329E+02  0.80419002446E+02 0.  0.
        -24    1    1    2    0    0  0.22596310864E+01  0.10006641875E+02 -0.92730705151E+02  0.12317239320E+03  0.80419002446E+02 0. -1.
<mgrwt>
<rscale>  0 0.81070688E+02</rscale>
<asrwt>0</asrwt>
<pdfrwt beam="1">  1        2 0.22771814E-01 0.81070698E+02</pdfrwt>
<pdfrwt beam="2">  1       -2 0.86510451E-02 0.81070698E+02</pdfrwt>
<totfact> 0.17633280E+04</totfact>
</mgrwt>
</event>
<event>
 4    1  0.6602701E-002  0.1422445E+03  0.7546771E-02  0.1210340E+00
          1   -1    0    0  501    0  0.00000000000E+00  0.00000000000E+00  0.29838498733E+03  0.29838498733E+03  0.00000000000E+00 0. -1.
         -1   -1    0    0    0  501 -0.00000000000E+00 -0.00000000000E+00 -0.70198280117E+02  0.70198280117E+02  0.00000000000E+00 0.  1.
         24    1    1    2    0    0 -0.42340292540E+02  0.10942381308E+03  0.80100732904E+02  0.16324709678E+03  0.80419002446E+02 0. -1.
        -24    1    1    2    0    0  0.42340292540E+02 -0.10942381308E+03  0.14808597431E+03  0.20533617067E+03  0.80419002446E+02 0.  1.
<mgrwt>
<rscale>  0 0.14224446E+03</rscale>
<asrwt>0</asrwt>
<pdfrwt beam="1">  1        1 0.45905382E-01 0.14224446E+03</pdfrwt>
<pdfrwt beam="2">  1       -1 0.10799736E-01 0.14224446E+03</pdfrwt>
<totfact> 0.45927678E+03</totfact>
</mgrwt>
</event>
<event>
 4    1  0.6602701E-002  0.1322928E+03  0.7546771E-02  0.1224093E+00
         -2   -1    0    0    0  501 -0.00000000000E+00  0.00000000000E+00  0.67356935902E+03  0.67356935902E+03  0.00000000000E+00 0.  1.
          2   -1    0    0  501    0  0.00000000000E+00 -0.00000000000E+00 -0.29797604296E+02  0.29797604296E+02  0.00000000000E+00 0. -1.
         24    1    1    2    0    0  0.99836867349E+02  0.32661323844E+02  0.19605596579E+03  0.23651494632E+03  0.80419002446E+02 0. -1.
        -24    1    1    2    0    0 -0.99836867349E+02 -0.32661323844E+02  0.44771578893E+03  0.46685201699E+03  0.80419002446E+02 0.  1.
<mgrwt>
<rscale>  0 0.13229277E+03</rscale>
<asrwt>0</asrwt>
<pdfrwt beam="1">  1        2 0.45842473E-02 0.13229277E+03</pdfrwt>
<pdfrwt beam="2">  1       -2 0.10362604E+00 0.13229277E+03</pdfrwt>
<totfact> 0.13430958E+03</totfact>
</mgrwt>
</event>
<event>
 4    1  0.6602701E-002  0.9220203E+02  0.7546771E-02  0.1297605E+00
         -1   -1    0    0    0  501 -0.00000000000E+00  0.00000000000E+00  0.10192784224E+02  0.10192784224E+02  0.00000000000E+00 0.  1.
          1   -1    0    0  501    0  0.00000000000E+00 -0.00000000000E+00 -0.10634735188E+04  0.10634735188E+04  0.00000000000E+00 0. -1.
         24    1    1    2    0    0  0.12095117842E+02 -0.43447754577E+02 -0.27729456763E+03  0.29222164952E+03  0.80419002446E+02 0.  1.
        -24    1    1    2    0    0 -0.12095117842E+02  0.43447754577E+02 -0.77598616692E+03  0.78144465349E+03  0.80419002446E+02 0. -1.
<mgrwt>
<rscale>  0 0.92202035E+02</rscale>
<asrwt>0</asrwt>
<pdfrwt beam="1">  1        1 0.16361134E+00 0.92202035E+02</pdfrwt>
<pdfrwt beam="2">  1       -1 0.15681204E-02 0.92202035E+02</pdfrwt>
<totfact> 0.13136904E+04</totfact>
</mgrwt>
</event>
<event>
 4    1  0.6602701E-002  0.8162402E+02  0.7546771E-02  0.1324505E+00
         -3   -1    0    0    0  501 -0.00000000000E+00  0.00000000000E+00  0.22079841588E+02  0.22079841588E+02  0.00000000000E+00 0.  1.
          3   -1    0    0  501    0  0.00000000000E+00 -0.00000000000E+00 -0.34746751357E+03  0.34746751357E+03  0.00000000000E+00 0. -1.
         24    1    1    2    0    0  0.13852387532E+02 -0.18372061661E+01 -0.95667041152E+02  0.12575636240E+03  0.80419002446E+02 0.  1.
        -24    1    1    2    0    0 -0.13852387532E+02  0.18372061661E+01 -0.22972063083E+03  0.24379099276E+03  0.80419002446E+02 0. -1.
<mgrwt>
<rscale>  0 0.81624016E+02</rscale>
<asrwt>0</asrwt>
<pdfrwt beam="1">  1        3 0.53456539E-01 0.81624016E+02</pdfrwt>
<pdfrwt beam="2">  1       -3 0.33968988E-02 0.81624016E+02</pdfrwt>
<totfact> 0.30206746E+03</totfact>
</mgrwt>
</event>
<event>
 4    1  0.6602701E-002  0.1265679E+03  0.7546771E-02  0.1232639E+00
          1   -1    0    0  501    0  0.00000000000E+00  0.00000000000E+00  0.16363165874E+04  0.16363165874E+04  0.00000000000E+00 0. -1.
         -1   -1    0    0    0  501 -0.00000000000E+00 -0.00000000000E+00 -0.22071947419E+02  0.22071947419E+02  0.00000000000E+00 0.  1.
         24    1    1    2    0    0 -0.35491884324E+01  0.97671004748E+02  0.18857820618E+03  0.22711489980E+03  0.80419002446E+02 0.  1.
        -24    1    1    2    0    0  0.35491884324E+01 -0.97671004748E+02  0.14256664338E+04  0.14312736351E+04  0.80419002446E+02 0. -1.
<mgrwt>
<rscale>  0 0.12656792E+03</rscale>
<asrwt>0</asrwt>
<pdfrwt beam="1">  1        1 0.25174092E+00 0.12656792E+03</pdfrwt>
<pdfrwt beam="2">  1       -1 0.33956855E-02 0.12656792E+03</pdfrwt>
<totfact> 0.18291694E+03</totfact>
</mgrwt>
</event>
<event>
 4    1  0.6602701E-002  0.8841127E+02  0.7546771E-02  0.1306745E+00
         -1   -1    0    0    0  501 -0.00000000000E+00  0.00000000000E+00  0.16865306000E+02  0.16865306000E+02  0.00000000000E+00 0.  1.
          1   -1    0    0  501    0  0.00000000000E+00 -0.00000000000E+00 -0.50792339711E+03  0.50792339711E+03  0.00000000000E+00 0. -1.
         24    1    1    2    0    0  0.35315335980E+02 -0.10107571900E+02 -0.16790233788E+03  0.18975707361E+03  0.80419002446E+02 0.  1.
        -24    1    1    2    0    0 -0.35315335980E+02  0.10107571900E+02 -0.32315575323E+03  0.33503162950E+03  0.80419002446E+02 0. -1.
<mgrwt>
<rscale>  0 0.88411266E+02</rscale>
<asrwt>0</asrwt>
<pdfrwt beam="1">  1        1 0.78142054E-01 0.88411266E+02</pdfrwt>
<pdfrwt beam="2">  1       -1 0.25946627E-02 0.88411266E+02</pdfrwt>
<totfact> 0.18701552E+04</totfact>
</mgrwt>
</event>
<event>
 4    1  0.6602701E-002  0.8978476E+02  0.7546771E-02  0.1303374E+00
         -4   -1    0    0    0  501 -0.00000000000E+00  0.00000000000E+00  0.80091766340E+02  0.80091766340E+02  0.00000000000E+00 0.  1.
          4   -1    0    0  501    0  0.00000000000E+00 -0.00000000000E+00 -0.26952835271E+03  0.26952835271E+03  0.00000000000E+00 0. -1.
         24    1    1    2    0    0 -0.39277180426E+02 -0.71686681280E+01 -0.23309089868E+03  0.24978524718E+03  0.80419002446E+02 0. -1.
        -24    1    1    2    0    0  0.39277180426E+02  0.71686681280E+01  0.43654312309E+02  0.99834871876E+02  0.80419002446E+02 0.  1.
<mgrwt>
<rscale>  0 0.89784757E+02</rscale>
<asrwt>0</asrwt>
<pdfrwt beam="1">  1        4 0.41465901E-01 0.89784757E+02</pdfrwt>
<pdfrwt beam="2">  1       -4 0.12321810E-01 0.89784757E+02</pdfrwt>
<totfact> 0.45704655E+02</totfact>
</mgrwt>
</event>
<event>
 4    1  0.6602701E-002  0.1134964E+03  0.7546771E-02  0.1254229E+00
         -3   -1    0    0    0  501 -0.00000000000E+00  0.00000000000E+00  0.12476982709E+03  0.12476982709E+03  0.00000000000E+00 0.  1.
          3   -1    0    0  501    0  0.00000000000E+00 -0.00000000000E+00 -0.10731259409E+03  0.10731259409E+03  0.00000000000E+00 0. -1.
         24    1    1    2    0    0 -0.41775062857E+02 -0.68330484429E+02  0.31330324735E+02  0.11774131043E+03  0.80419002446E+02 0.  1.
        -24    1    1    2    0    0  0.41775062857E+02  0.68330484429E+02 -0.13873091740E+02  0.11434111075E+03  0.80419002446E+02 0. -1.
<mgrwt>
<rscale>  0 0.11349637E+03</rscale>
<asrwt>0</asrwt>
<pdfrwt beam="1">  1        3 0.16509630E-01 0.11349637E+03</pdfrwt>
<pdfrwt beam="2">  1       -3 0.19195358E-01 0.11349637E+03</pdfrwt>
<totfact> 0.16874988E+03</totfact>
</mgrwt>
</event>
<event>
 4    1  0.6602701E-002  0.8345980E+02  0.7546771E-02  0.1319510E+00
          1   -1    0    0  501    0  0.00000000000E+00  0.00000000000E+00  0.13578897739E+04  0.13578897739E+04  0.00000000000E+00 0. -1.
         -1   -1    0    0    0  501 -0.00000000000E+00 -0.00000000000E+00 -0.16362934405E+02  0.16362934405E+02  0.00000000000E+00 0.  1.
         24    1    1    2    0    0  0.20884402040E+02 -0.78843641204E+01  0.10144026696E+03  0.13136082049E+03  0.80419002446E+02 0.  1.
        -24    1    1    2    0    0 -0.20884402040E+02  0.78843641204E+01  0.12400865726E+04  0.12428918878E+04  0.80419002446E+02 0. -1.
<mgrwt>
<rscale>  0 0.83459795E+02</rscale>
<asrwt>0</asrwt>
<pdfrwt beam="1">  1        1 0.20890603E+00 0.83459795E+02</pdfrwt>
<pdfrwt beam="2">  1       -1 0.25173756E-02 0.83459795E+02</pdfrwt>
<totfact> 0.42191405E+03</totfact>
</mgrwt>
</event>
<event>
 4    1  0.6602701E-002  0.8319609E+02  0.7546771E-02  0.1320219E+00
         -2   -1    0    0    0  501 -0.00000000000E+00  0.00000000000E+00  0.26195812030E+02  0.26195812030E+02  0.00000000000E+00 0.  1.
          2   -1    0    0  501    0  0.00000000000E+00 -0.00000000000E+00 -0.70687434973E+03  0.70687434973E+03  0.00000000000E+00 0. -1.
         24    1    1    2    0    0  0.35990435597E+01  0.21009996880E+02 -0.63039025052E+03  0.63585647514E+03  0.80419002446E+02 0. -1.
        -24    1    1    2    0    0 -0.35990435597E+01 -0.21009996880E+02 -0.50288287187E+02  0.97213686619E+02  0.80419002446E+02 0.  1.
<mgrwt>
<rscale>  0 0.83196088E+02</rscale>
<asrwt>0</asrwt>
<pdfrwt beam="1">  1        2 0.10874991E+00 0.83196088E+02</pdfrwt>
<pdfrwt beam="2">  1       -2 0.40301246E-02 0.83196088E+02</pdfrwt>
<totfact> 0.10403589E+04</totfact>
</mgrwt>
</event>
<event>
 4    1  0.6602701E-002  0.9096868E+02  0.7546771E-02  0.1300523E+00
          2   -1    0    0  501    0  0.00000000000E+00  0.00000000000E+00  0.51598298195E+03  0.51598298195E+03  0.00000000000E+00 0. -1.
         -2   -1    0    0    0  501 -0.00000000000E+00 -0.00000000000E+00 -0.20854268962E+02  0.20854268962E+02  0.00000000000E+00 0.  1.
         24    1    1    2    0    0  0.42521415755E+02 -0.12116369813E+00  0.37655953193E+03  0.38739176878E+03  0.80419002446E+02 0.  0.
        -24    1    1    2    0    0 -0.42521415755E+02  0.12116369813E+00  0.11856918106E+03  0.14944548214E+03  0.80419002446E+02 0.  0.
<mgrwt>
<rscale>  0 0.90968684E+02</rscale>
<asrwt>0</asrwt>
<pdfrwt beam="1">  1        2 0.79381988E-01 0.90968684E+02</pdfrwt>
<pdfrwt beam="2">  1       -2 0.32083494E-02 0.90968684E+02</pdfrwt>
<totfact> 0.20831093E+04</totfact>
</mgrwt>
</event>
<event>
 4    1  0.6602701E-002  0.9424390E+02  0.7546771E-02  0.1292888E+00
          1   -1    0    0  501    0  0.00000000000E+00  0.00000000000E+00  0.10761797615E+04  0.10761797615E+04  0.00000000000E+00 0. -1.
         -1   -1    0    0    0  501 -0.00000000000E+00 -0.00000000000E+00 -0.84256328769E+01  0.84256328769E+01  0.00000000000E+00 0.  1.
         24    1    1    2    0    0  0.26672029910E+02  0.41271042715E+02  0.45629385438E+03  0.46592487983E+03  0.80419002446E+02 0. -1.
        -24    1    1    2    0    0 -0.26672029910E+02 -0.41271042715E+02  0.61146027421E+03  0.61868051451E+03  0.80419002446E+02 0.  1.
<mgrwt>
<rscale>  0 0.94243897E+02</rscale>
<asrwt>0</asrwt>
<pdfrwt beam="1">  1        1 0.16556601E+00 0.94243897E+02</pdfrwt>
<pdfrwt beam="2">  1       -1 0.12962521E-02 0.94243897E+02</pdfrwt>
<totfact> 0.16891188E+04</totfact>
</mgrwt>
</event>
<event>
 4    1  0.6602701E-002  0.8222897E+02  0.7546771E-02  0.1322842E+00
          2   -1    0    0  501    0  0.00000000000E+00  0.00000000000E+00  0.15127553417E+04  0.15127553417E+04  0.00000000000E+00 0. -1.
         -2   -1    0    0    0  501 -0.00000000000E+00 -0.00000000000E+00 -0.44697367675E+01  0.44697367675E+01  0.00000000000E+00 0.  1.
         24    1    1    2    0    0 -0.16541727774E+02 -0.45557762074E+01  0.75289266899E+03  0.75736977153E+03  0.80419002446E+02 0.  1.
        -24    1    1    2    0    0  0.16541727774E+02  0.45557762074E+01  0.75539293597E+03  0.75985530696E+03  0.80419002446E+02 0. -1.
<mgrwt>
<rscale>  0 0.82228958E+02</rscale>
<asrwt>0</asrwt>
<pdfrwt beam="1">  1        2 0.23273118E+00 0.82228968E+02</pdfrwt>
<pdfrwt beam="2">  1       -2 0.68765302E-03 0.82228968E+02</pdfrwt>
<totfact> 0.44825768E+04</totfact>
</mgrwt>
</event>
<event>
 4    1  0.6602701E-002  0.1881801E+03  0.7546771E-02  0.1160113E+00
          1   -1    0    0  501    0  0.00000000000E+00  0.00000000000E+00  0.22163809326E+03  0.22163809326E+03  0.00000000000E+00 0. -1.
         -1   -1    0    0    0  501 -0.00000000000E+00 -0.00000000000E+00 -0.16036899793E+03  0.16036899793E+03  0.00000000000E+00 0.  1.
         24    1    1    2    0    0  0.14993363754E+03 -0.80401722180E+02  0.18988988644E+02  0.18913574554E+03  0.80419002446E+02 0.  1.
        -24    1    1    2    0    0 -0.14993363754E+03  0.80401722180E+02  0.42280106687E+02  0.19287134565E+03  0.80419002446E+02 0. -1.
<mgrwt>
<rscale>  0 0.18818010E+03</rscale>
<asrwt>0</asrwt>
<pdfrwt beam="1">  1        1 0.34098168E-01 0.18818010E+03</pdfrwt>
<pdfrwt beam="2">  1       -1 0.24672154E-01 0.18818010E+03</pdfrwt>
<totfact> 0.18112395E+03</totfact>
</mgrwt>
</event>
<event>
 4    1  0.8890718E-002  0.8189410E+02  0.7546771E-02  0.1323761E+00
         -1   -1    0    0    0  501 -0.00000000000E+00  0.00000000000E+00  0.20514263853E+02  0.20514263853E+02  0.00000000000E+00 0.  1.
          1   -1    0    0  501    0  0.00000000000E+00 -0.00000000000E+00 -0.12165872338E+04  0.12165872338E+04  0.00000000000E+00 0. -1.
         24    1    1    2    0    0  0.93828741546E+01  0.12304061493E+02 -0.69084724389E+02  0.10714169755E+03  0.80419002446E+02 0.  1.
        -24    1    1    2    0    0 -0.93828741546E+01 -0.12304061493E+02 -0.11269882456E+04  0.11299598001E+04  0.80419002446E+02 0. -1.
<mgrwt>
<rscale>  0 0.81894104E+02</rscale>
<asrwt>0</asrwt>
<pdfrwt beam="1">  1        1 0.18716731E+00 0.81894104E+02</pdfrwt>
<pdfrwt beam="2">  1       -1 0.31560399E-02 0.81894104E+02</pdfrwt>
<totfact> 0.37752469E+03</totfact>
</mgrwt>
</event>
<event>
 4    1  0.6602701E-002  0.1401698E+03  0.7546771E-02  0.1213101E+00
          2   -1    0    0  501    0  0.00000000000E+00  0.00000000000E+00  0.30462108507E+04  0.30462108507E+04  0.00000000000E+00 0. -1.
         -2   -1    0    0    0  501 -0.00000000000E+00 -0.00000000000E+00 -0.64980359583E+01  0.64980359583E+01  0.00000000000E+00 0.  1.
         24    1    1    2    0    0 -0.36113689839E+01  0.11474891991E+03  0.13884036504E+04  0.13954613105E+04  0.80419002446E+02 0. -1.
        -24    1    1    2    0    0  0.36113689839E+01 -0.11474891991E+03  0.16513091644E+04  0.16572475762E+04  0.80419002446E+02 0.  1.
<mgrwt>
<rscale>  0 0.14016982E+03</rscale>
<asrwt>0</asrwt>
<pdfrwt beam="1">  1        2 0.46864668E+00 0.14016983E+03</pdfrwt>
<pdfrwt beam="2">  1       -2 0.99970027E-03 0.14016983E+03</pdfrwt>
<totfact> 0.42142514E+03</totfact>
</mgrwt>
</event>
<event>
 4    1  0.6602701E-002  0.9131477E+02  0.7546771E-02  0.1299699E+00
         -2   -1    0    0    0  501 -0.00000000000E+00  0.00000000000E+00  0.64794939370E+01  0.64794939370E+01  0.00000000000E+00 0.  1.
          2   -1    0    0  501    0  0.00000000000E+00 -0.00000000000E+00 -0.13012728905E+04  0.13012728905E+04  0.00000000000E+00 0. -1.
         24    1    1    2    0    0 -0.28278781795E+02 -0.32733420396E+02 -0.57864771003E+03  0.58580846237E+03  0.80419002446E+02 0.  0.
        -24    1    1    2    0    0  0.28278781795E+02  0.32733420396E+02 -0.71614568652E+03  0.72194392205E+03  0.80419002446E+02 0.  1.
<mgrwt>
<rscale>  0 0.91314754E+02</rscale>
<asrwt>0</asrwt>
<pdfrwt beam="1">  1        2 0.20019616E+00 0.91314766E+02</pdfrwt>
<pdfrwt beam="2">  1       -2 0.99684358E-03 0.91314766E+02</pdfrwt>
<totfact> 0.34509559E+04</totfact>
</mgrwt>
</event>
<event>
 4    1  0.6602701E-002  0.1491323E+03  0.7546771E-02  0.1201543E+00
          2   -1    0    0  501    0  0.00000000000E+00  0.00000000000E+00  0.14846116591E+03  0.14846116591E+03  0.00000000000E+00 0. -1.
         -2   -1    0    0    0  501 -0.00000000000E+00 -0.00000000000E+00 -0.15489979935E+03  0.15489979935E+03  0.00000000000E+00 0.  1.
         24    1    1    2    0    0 -0.12280682396E+03  0.26300664801E+02  0.24285022067E+02  0.15109672145E+03  0.80419002446E+02 0. -1.
        -24    1    1    2    0    0  0.12280682396E+03 -0.26300664801E+02 -0.30723655516E+02  0.15226424381E+03  0.80419002446E+02 0.  1.
<mgrwt>
<rscale>  0 0.14913235E+03</rscale>
<asrwt>0</asrwt>
<pdfrwt beam="1">  1        2 0.22840180E-01 0.14913235E+03</pdfrwt>
<pdfrwt beam="2">  1       -2 0.23830738E-01 0.14913235E+03</pdfrwt>
<totfact> 0.35638450E+03</totfact>
</mgrwt>
</event>
<event>
 4    1  0.6602701E-002  0.1312440E+03  0.7546771E-02  0.1225621E+00
         -2   -1    0    0    0  501 -0.00000000000E+00  0.00000000000E+00  0.19779265323E+02  0.19779265323E+02  0.00000000000E+00 0.  1.
          2   -1    0    0  501    0  0.00000000000E+00 -0.00000000000E+00 -0.16354382593E+04  0.16354382593E+04  0.00000000000E+00 0. -1.
         24    1    1    2    0    0  0.95923493423E+02 -0.39452015859E+02 -0.13737020690E+04  0.13799573792E+04  0.80419002446E+02 0.  0.
        -24    1    1    2    0    0 -0.95923493423E+02  0.39452015859E+02 -0.24195692497E+03  0.27526014539E+03  0.80419002446E+02 0.  1.
<mgrwt>
<rscale>  0 0.13124403E+03</rscale>
<asrwt>0</asrwt>
<pdfrwt beam="1">  1        2 0.25160600E+00 0.13124403E+03</pdfrwt>
<pdfrwt beam="2">  1       -2 0.30429625E-02 0.13124403E+03</pdfrwt>
<totfact> 0.47361082E+03</totfact>
</mgrwt>
</event>
<event>
 4    1  0.6602701E-002  0.9622504E+02  0.7546771E-02  0.1288441E+00
          1   -1    0    0  501    0  0.00000000000E+00  0.00000000000E+00  0.22552534887E+02  0.22552534887E+02  0.00000000000E+00 0. -1.
         -1   -1    0    0    0  501 -0.00000000000E+00 -0.00000000000E+00 -0.44141807893E+03  0.44141807893E+03  0.00000000000E+00 0.  1.
         24    1    1    2    0    0 -0.40187453227E+01  0.52686737390E+02 -0.27076543605E+03  0.28735549398E+03  0.80419002446E+02 0.  1.
        -24    1    1    2    0    0  0.40187453227E+01 -0.52686737390E+02 -0.14810010800E+03  0.17661511984E+03  0.80419002446E+02 0.  0.
<mgrwt>
<rscale>  0 0.96225041E+02</rscale>
<asrwt>0</asrwt>
<pdfrwt beam="1">  1        1 0.34696211E-02 0.96225041E+02</pdfrwt>
<pdfrwt beam="2">  1       -1 0.67910468E-01 0.96225041E+02</pdfrwt>
<totfact> 0.58528545E+03</totfact>
</mgrwt>
</event>
<event>
 4    1  0.6602701E-002  0.1096414E+03  0.7546771E-02  0.1261235E+00
         -2   -1    0    0    0  501 -0.00000000000E+00  0.00000000000E+00  0.16963520208E+02  0.16963520208E+02  0.00000000000E+00 0.  1.
          2   -1    0    0  501    0  0.00000000000E+00 -0.00000000000E+00 -0.84228532595E+03  0.84228532595E+03  0.00000000000E+00 0. -1.
         24    1    1    2    0    0  0.71563450026E+02  0.20801374947E+02 -0.58378688987E+03  0.59399358020E+03  0.80419002446E+02 0. -1.
        -24    1    1    2    0    0 -0.71563450026E+02 -0.20801374947E+02 -0.24153491588E+03  0.26525526596E+03  0.80419002446E+02 0.  0.
<mgrwt>
<rscale>  0 0.10964142E+03</rscale>
<asrwt>0</asrwt>
<pdfrwt beam="1">  1        2 0.12958236E+00 0.10964142E+03</pdfrwt>
<pdfrwt beam="2">  1       -2 0.26097722E-02 0.10964142E+03</pdfrwt>
<totfact> 0.16221329E+04</totfact>
</mgrwt>
</event>
<event>
 4    1  0.6602701E-002  0.1077329E+03  0.7546771E-02  0.1264827E+00
          2   -1    0    0  501    0  0.00000000000E+00  0.00000000000E+00  0.51702877625E+03  0.51702877625E+03  0.00000000000E+00 0. -1.
         -2   -1    0    0    0  501 -0.00000000000E+00 -0.00000000000E+00 -0.29996770041E+02  0.29996770041E+02  0.00000000000E+00 0.  1.
         24    1    1    2    0    0 -0.61083241348E+02  0.37523400060E+02  0.38072155370E+03  0.39567067788E+03  0.80419002446E+02 0. -1.
        -24    1    1    2    0    0  0.61083241348E+02 -0.37523400060E+02  0.10631045251E+03  0.15135486841E+03  0.80419002446E+02 0.  1.
<mgrwt>
<rscale>  0 0.10773293E+03</rscale>
<asrwt>0</asrwt>
<pdfrwt beam="1">  1        2 0.79542882E-01 0.10773293E+03</pdfrwt>
<pdfrwt beam="2">  1       -2 0.46148881E-02 0.10773293E+03</pdfrwt>
<totfact> 0.12359817E+04</totfact>
</mgrwt>
</event>
<event>
 4    1  0.6602701E-002  0.8887367E+02  0.7546771E-02  0.1305602E+00
          1   -1    0    0  501    0  0.00000000000E+00  0.00000000000E+00  0.83227580882E+03  0.83227580882E+03  0.00000000000E+00 0. -1.
         -1   -1    0    0    0  501 -0.00000000000E+00 -0.00000000000E+00 -0.20763631031E+02  0.20763631031E+02  0.00000000000E+00 0.  1.
         24    1    1    2    0    0 -0.30653579628E+02  0.22173670378E+02  0.91478074901E+02  0.12754123939E+03  0.80419002446E+02 0.  0.
        -24    1    1    2    0    0  0.30653579628E+02 -0.22173670378E+02  0.72003410288E+03  0.72549820046E+03  0.80419002446E+02 0. -1.
<mgrwt>
<rscale>  0 0.88873672E+02</rscale>
<asrwt>0</asrwt>
<pdfrwt beam="1">  1        1 0.12804241E+00 0.88873672E+02</pdfrwt>
<pdfrwt beam="2">  1       -1 0.31944054E-02 0.88873672E+02</pdfrwt>
<totfact> 0.70204774E+03</totfact>
</mgrwt>
</event>
<event>
 4    1  0.6602701E-002  0.1359064E+03  0.7546771E-02  0.1218946E+00
         -1   -1    0    0    0  501 -0.00000000000E+00  0.00000000000E+00  0.16324024737E+02  0.16324024737E+02  0.00000000000E+00 0.  1.
          1   -1    0    0  501    0  0.00000000000E+00 -0.00000000000E+00 -0.11587535036E+04  0.11587535036E+04  0.00000000000E+00 0. -1.
         24    1    1    2    0    0  0.10235174517E+03  0.39082697098E+02 -0.66132862966E+03  0.67514895343E+03  0.80419002446E+02 0.  1.
        -24    1    1    2    0    0 -0.10235174517E+03 -0.39082697098E+02 -0.48110084921E+03  0.49992857491E+03  0.80419002446E+02 0. -1.
<mgrwt>
<rscale>  0 0.13590643E+03</rscale>
<asrwt>0</asrwt>
<pdfrwt beam="1">  1        1 0.17826981E+00 0.13590645E+03</pdfrwt>
<pdfrwt beam="2">  1       -1 0.25113878E-02 0.13590645E+03</pdfrwt>
<totfact> 0.58637697E+03</totfact>
</mgrwt>
</event>
<event>
 4    1  0.6602701E-002  0.9737209E+02  0.7546771E-02  0.1285921E+00
          1   -1    0    0  501    0  0.00000000000E+00  0.00000000000E+00  0.71083535944E+03  0.71083535944E+03  0.00000000000E+00 0. -1.
         -1   -1    0    0    0  501 -0.00000000000E+00 -0.00000000000E+00 -0.13340394772E+02  0.13340394772E+02  0.00000000000E+00 0.  1.
         24    1    1    2    0    0 -0.24499574851E+02 -0.49131240775E+02  0.34419294374E+03  0.35770114127E+03  0.80419002446E+02 0.  0.
        -24    1    1    2    0    0  0.24499574851E+02  0.49131240775E+02  0.35330202093E+03  0.36647461295E+03  0.80419002446E+02 0. -1.
<mgrwt>
<rscale>  0 0.97372090E+02</rscale>
<asrwt>0</asrwt>
<pdfrwt beam="1">  1        1 0.10935926E+00 0.97372090E+02</pdfrwt>
<pdfrwt beam="2">  1       -1 0.20523690E-02 0.97372090E+02</pdfrwt>
<totfact> 0.16797938E+04</totfact>
</mgrwt>
</event>
<event>
 4    1  0.6602701E-002  0.9558770E+02  0.7546771E-02  0.1289858E+00
         -2   -1    0    0    0  501 -0.00000000000E+00  0.00000000000E+00  0.38127908260E+02  0.38127908260E+02  0.00000000000E+00 0.  1.
          2   -1    0    0  501    0  0.00000000000E+00 -0.00000000000E+00 -0.28584090467E+03  0.28584090467E+03  0.00000000000E+00 0. -1.
         24    1    1    2    0    0  0.25919944582E+02  0.44698422182E+02 -0.18897910273E+03  0.21177844483E+03  0.80419002446E+02 0. -1.
        -24    1    1    2    0    0 -0.25919944582E+02 -0.44698422182E+02 -0.58733893680E+02  0.11219036810E+03  0.80419002446E+02 0.  1.
<mgrwt>
<rscale>  0 0.95587700E+02</rscale>
<asrwt>0</asrwt>
<pdfrwt beam="1">  1        2 0.43975524E-01 0.95587700E+02</pdfrwt>
<pdfrwt beam="2">  1       -2 0.58658320E-02 0.95587700E+02</pdfrwt>
<totfact> 0.16023367E+04</totfact>
</mgrwt>
</event>
<event>
 4    1  0.6602701E-002  0.8160237E+02  0.7546771E-02  0.1324565E+00
         -1   -1    0    0    0  501 -0.00000000000E+00  0.00000000000E+00  0.18144386496E+02  0.18144386496E+02  0.00000000000E+00 0.  1.
          1   -1    0    0  501    0  0.00000000000E+00 -0.00000000000E+00 -0.57395136341E+03  0.57395136341E+03  0.00000000000E+00 0. -1.
         24    1    1    2    0    0 -0.44903580225E+00  0.13839411959E+02 -0.10013244123E+03  0.12917218237E+03  0.80419002446E+02 0.  1.
        -24    1    1    2    0    0  0.44903580225E+00 -0.13839411959E+02 -0.45567453568E+03  0.46292356754E+03  0.80419002446E+02 0.  0.
<mgrwt>
<rscale>  0 0.81602371E+02</rscale>
<asrwt>0</asrwt>
<pdfrwt beam="1">  1        1 0.88300205E-01 0.81602371E+02</pdfrwt>
<pdfrwt beam="2">  1       -1 0.27914442E-02 0.81602371E+02</pdfrwt>
<totfact> 0.14252175E+04</totfact>
</mgrwt>
</event>
<event>
 4    1  0.6602701E-002  0.1306151E+03  0.7546771E-02  0.1226546E+00
          1   -1    0    0  501    0  0.00000000000E+00  0.00000000000E+00  0.55213505625E+03  0.55213505625E+03  0.00000000000E+00 0. -1.
         -1   -1    0    0    0  501 -0.00000000000E+00 -0.00000000000E+00 -0.31587685733E+02  0.31587685733E+02  0.00000000000E+00 0.  1.
         24    1    1    2    0    0 -0.79675013330E+02  0.65153519751E+02  0.21717196128E+03  0.25342447713E+03  0.80419002446E+02 0.  1.
        -24    1    1    2    0    0  0.79675013330E+02 -0.65153519751E+02  0.30337540923E+03  0.33029826485E+03  0.80419002446E+02 0.  0.
<mgrwt>
<rscale>  0 0.13061510E+03</rscale>
<asrwt>0</asrwt>
<pdfrwt beam="1">  1        1 0.84943848E-01 0.13061510E+03</pdfrwt>
<pdfrwt beam="2">  1       -1 0.48596444E-02 0.13061510E+03</pdfrwt>
<totfact> 0.69441115E+03</totfact>
</mgrwt>
</event>
<event>
 4    1  0.6602701E-002  0.2008013E+03  0.7546771E-02  0.1149065E+00
         -1   -1    0    0    0  501 -0.00000000000E+00  0.00000000000E+00  0.54307169771E+02  0.54307169771E+02  0.00000000000E+00 0.  1.
          1   -1    0    0  501    0  0.00000000000E+00 -0.00000000000E+00 -0.93638518342E+03  0.93638518342E+03  0.00000000000E+00 0. -1.
         24    1    1    2    0    0  0.46692108653E+02 -0.17797134451E+03 -0.21561864352E+03  0.29463972553E+03  0.80419002446E+02 0.  1.
        -24    1    1    2    0    0 -0.46692108653E+02  0.17797134451E+03 -0.66645937014E+03  0.69605262766E+03  0.80419002446E+02 0. -1.
<mgrwt>
<rscale>  0 0.20080132E+03</rscale>
<asrwt>0</asrwt>
<pdfrwt beam="1">  1        1 0.14405926E+00 0.20080132E+03</pdfrwt>
<pdfrwt beam="2">  1       -1 0.83549492E-02 0.20080132E+03</pdfrwt>
<totfact> 0.14398445E+03</totfact>
</mgrwt>
</event>
<event>
 4    1  0.6602701E-002  0.1216212E+03  0.7546771E-02  0.1240446E+00
          1   -1    0    0  501    0  0.00000000000E+00  0.00000000000E+00  0.12140187773E+04  0.12140187773E+04  0.00000000000E+00 0. -1.
         -1   -1    0    0    0  501 -0.00000000000E+00 -0.00000000000E+00 -0.12311703702E+02  0.12311703702E+02  0.00000000000E+00 0.  1.
         24    1    1    2    0    0 -0.85671066087E+02  0.31384161637E+02  0.53842712117E+03  0.55199228069E+03  0.80419002446E+02 0.  1.
        -24    1    1    2    0    0  0.85671066087E+02 -0.31384161637E+02  0.66327995245E+03  0.67433820035E+03  0.80419002446E+02 0.  0.
<mgrwt>
<rscale>  0 0.12162119E+03</rscale>
<asrwt>0</asrwt>
<pdfrwt beam="1">  1        1 0.18677202E+00 0.12162119E+03</pdfrwt>
<pdfrwt beam="2">  1       -1 0.18941092E-02 0.12162119E+03</pdfrwt>
<totfact> 0.80340426E+03</totfact>
</mgrwt>
</event>
<event>
 4    1  0.6602701E-002  0.1024184E+03  0.7546771E-02  0.1275291E+00
         -2   -1    0    0    0  501 -0.00000000000E+00  0.00000000000E+00  0.13563987739E+02  0.13563987739E+02  0.00000000000E+00 0.  1.
          2   -1    0    0  501    0  0.00000000000E+00 -0.00000000000E+00 -0.14218236599E+04  0.14218236599E+04  0.00000000000E+00 0. -1.
         24    1    1    2    0    0 -0.10795783079E+01  0.63412450475E+02 -0.11888233312E+04  0.11932268992E+04  0.80419002446E+02 0. -1.
        -24    1    1    2    0    0  0.10795783079E+01 -0.63412450475E+02 -0.21943634094E+03  0.24216074836E+03  0.80419002446E+02 0.  1.
<mgrwt>
<rscale>  0 0.10241836E+03</rscale>
<asrwt>0</asrwt>
<pdfrwt beam="1">  1        2 0.21874219E+00 0.10241836E+03</pdfrwt>
<pdfrwt beam="2">  1       -2 0.20867665E-02 0.10241836E+03</pdfrwt>
<totfact> 0.10474289E+04</totfact>
</mgrwt>
</event>
<event>
 4    1  0.6602701E-002  0.1487481E+03  0.7546771E-02  0.1202020E+00
         -2   -1    0    0    0  501 -0.00000000000E+00  0.00000000000E+00  0.18578873846E+02  0.18578873846E+02  0.00000000000E+00 0.  1.
          2   -1    0    0  501    0  0.00000000000E+00 -0.00000000000E+00 -0.13177998806E+04  0.13177998806E+04  0.00000000000E+00 0. -1.
         24    1    1    2    0    0 -0.70135814675E-01  0.12513499752E+03 -0.85694324767E+03  0.86975727546E+03  0.80419002446E+02 0. -1.
        -24    1    1    2    0    0  0.70135814675E-01 -0.12513499752E+03 -0.44227775911E+03  0.46662147902E+03  0.80419002446E+02 0.  1.
<mgrwt>
<rscale>  0 0.14874807E+03</rscale>
<asrwt>0</asrwt>
<pdfrwt beam="1">  1        2 0.20273845E+00 0.14874807E+03</pdfrwt>
<pdfrwt beam="2">  1       -2 0.28582881E-02 0.14874807E+03</pdfrwt>
<totfact> 0.76467872E+03</totfact>
</mgrwt>
</event>
<event>
 4    1  0.6602701E-002  0.8951489E+02  0.7546771E-02  0.1304031E+00
          2   -1    0    0  501    0  0.00000000000E+00  0.00000000000E+00  0.67887319554E+03  0.67887319554E+03  0.00000000000E+00 0. -1.
         -2   -1    0    0    0  501 -0.00000000000E+00 -0.00000000000E+00 -0.12062415034E+02  0.12062415034E+02  0.00000000000E+00 0.  1.
         24    1    1    2    0    0  0.33513453262E+02  0.20555888594E+02  0.28276743455E+03  0.29659793341E+03  0.80419002446E+02 0.  0.
        -24    1    1    2    0    0 -0.33513453262E+02 -0.20555888594E+02  0.38404334595E+03  0.39433767716E+03  0.80419002446E+02 0.  1.
<mgrwt>
<rscale>  0 0.89514882E+02</rscale>
<asrwt>0</asrwt>
<pdfrwt beam="1">  1        2 0.10444200E+00 0.89514893E+02</pdfrwt>
<pdfrwt beam="2">  1       -2 0.18557567E-02 0.89514893E+02</pdfrwt>
<totfact> 0.33753437E+04</totfact>
</mgrwt>
</event>
<event>
 4    1  0.6602701E-002  0.8981483E+02  0.7546771E-02  0.1303301E+00
          4   -1    0    0  501    0  0.00000000000E+00  0.00000000000E+00  0.51786825175E+02  0.51786825175E+02  0.00000000000E+00 0. -1.
         -4   -1    0    0    0  501 -0.00000000000E+00 -0.00000000000E+00 -0.16960644131E+03  0.16960644131E+03  0.00000000000E+00 0.  1.
         24    1    1    2    0    0 -0.28013229945E+02  0.28543687738E+02 -0.90530126769E+02  0.12752412701E+03  0.80419002446E+02 0.  0.
        -24    1    1    2    0    0  0.28013229945E+02 -0.28543687738E+02 -0.27289489362E+02  0.93869139474E+02  0.80419002446E+02 0.  0.
<mgrwt>
<rscale>  0 0.89814816E+02</rscale>
<asrwt>0</asrwt>
<pdfrwt beam="1">  1        4 0.79672039E-02 0.89814827E+02</pdfrwt>
<pdfrwt beam="2">  1       -4 0.26093299E-01 0.89814827E+02</pdfrwt>
<totfact> 0.22787905E+03</totfact>
</mgrwt>
</event>
<event>
 4    1  0.6602701E-002  0.8182489E+02  0.7546771E-02  0.1323951E+00
         -2   -1    0    0    0  501 -0.00000000000E+00  0.00000000000E+00  0.93464049930E+01  0.93464049930E+01  0.00000000000E+00 0.  1.
          2   -1    0    0  501    0  0.00000000000E+00 -0.00000000000E+00 -0.72973622488E+03  0.72973622488E+03  0.00000000000E+00 0. -1.
         24    1    1    2    0    0 -0.14590825718E+02 -0.38992826228E+01 -0.41024242091E+03  0.41832302886E+03  0.80419002446E+02 0. -1.
        -24    1    1    2    0    0  0.14590825718E+02  0.38992826228E+01 -0.31014739898E+03  0.32075960102E+03  0.80419002446E+02 0.  1.
<mgrwt>
<rscale>  0 0.81824890E+02</rscale>
<asrwt>0</asrwt>
<pdfrwt beam="1">  1        2 0.11226712E+00 0.81824890E+02</pdfrwt>
<pdfrwt beam="2">  1       -2 0.14379084E-02 0.81824890E+02</pdfrwt>
<totfact> 0.44193991E+04</totfact>
</mgrwt>
</event>
<event>
 4    1  0.6602701E-002  0.1637398E+03  0.7546771E-02  0.1184538E+00
          1   -1    0    0  501    0  0.00000000000E+00  0.00000000000E+00  0.88149287551E+03  0.88149287551E+03  0.00000000000E+00 0. -1.
         -1   -1    0    0    0  501 -0.00000000000E+00 -0.00000000000E+00 -0.32499575890E+02  0.32499575890E+02  0.00000000000E+00 0.  1.
         24    1    1    2    0    0 -0.49364697798E+02 -0.13381570575E+03  0.30876086635E+03  0.34949106574E+03  0.80419002446E+02 0. -1.
        -24    1    1    2    0    0  0.49364697798E+02  0.13381570575E+03  0.54023243327E+03  0.56450138566E+03  0.80419002446E+02 0.  1.
<mgrwt>
<rscale>  0 0.16373983E+03</rscale>
<asrwt>0</asrwt>
<pdfrwt beam="1">  1        1 0.13561427E+00 0.16373983E+03</pdfrwt>
<pdfrwt beam="2">  1       -1 0.49999354E-02 0.16373983E+03</pdfrwt>
<totfact> 0.34277764E+03</totfact>
</mgrwt>
</event>
<event>
 4    1  0.6602701E-002  0.9550955E+02  0.7546771E-02  0.1290033E+00
         -2   -1    0    0    0  501 -0.00000000000E+00  0.00000000000E+00  0.83533783884E+01  0.83533783884E+01  0.00000000000E+00 0.  1.
          2   -1    0    0  501    0  0.00000000000E+00 -0.00000000000E+00 -0.12398966620E+04  0.12398966620E+04  0.00000000000E+00 0. -1.
         24    1    1    2    0    0 -0.17439110073E+02  0.48484379882E+02 -0.83131052038E+03  0.83677909564E+03  0.80419002446E+02 0. -1.
        -24    1    1    2    0    0  0.17439110073E+02 -0.48484379882E+02 -0.40023276322E+03  0.41147094473E+03  0.80419002446E+02 0.  1.
<mgrwt>
<rscale>  0 0.95509547E+02</rscale>
<asrwt>0</asrwt>
<pdfrwt beam="1">  1        2 0.19075318E+00 0.95509547E+02</pdfrwt>
<pdfrwt beam="2">  1       -2 0.12851362E-02 0.95509547E+02</pdfrwt>
<totfact> 0.26047831E+04</totfact>
</mgrwt>
</event>
<event>
 4    1  0.6602701E-002  0.1013293E+03  0.7546771E-02  0.1277525E+00
          2   -1    0    0  501    0  0.00000000000E+00  0.00000000000E+00  0.18280213737E+03  0.18280213737E+03  0.00000000000E+00 0. -1.
         -2   -1    0    0    0  501 -0.00000000000E+00 -0.00000000000E+00 -0.58609909056E+02  0.58609909056E+02  0.00000000000E+00 0.  1.
         24    1    1    2    0    0  0.19257089643E+02  0.58562622362E+02  0.86734219828E+02  0.13338087225E+03  0.80419002446E+02 0. -1.
        -24    1    1    2    0    0 -0.19257089643E+02 -0.58562622362E+02  0.37458008489E+02  0.10803117418E+03  0.80419002446E+02 0.  1.
<mgrwt>
<rscale>  0 0.10132933E+03</rscale>
<asrwt>0</asrwt>
<pdfrwt beam="1">  1        2 0.28123405E-01 0.10132933E+03</pdfrwt>
<pdfrwt beam="2">  1       -2 0.90169092E-02 0.10132933E+03</pdfrwt>
<totfact> 0.13454070E+04</totfact>
</mgrwt>
</event>
<event>
 4    1  0.6602701E-002  0.8801059E+02  0.7546771E-02  0.1307742E+00
          1   -1    0    0  501    0  0.00000000000E+00  0.00000000000E+00  0.10658201583E+04  0.10658201583E+04  0.00000000000E+00 0. -1.
         -1   -1    0    0    0  501 -0.00000000000E+00 -0.00000000000E+00 -0.73887119451E+01  0.73887119451E+01  0.00000000000E+00 0.  1.
         24    1    1    2    0    0 -0.32394089805E+02 -0.15141693978E+02  0.46049054651E+03  0.46882556173E+03  0.80419002446E+02 0.  1.
        -24    1    1    2    0    0  0.32394089805E+02  0.15141693978E+02  0.59794089980E+03  0.60438330847E+03  0.80419002446E+02 0. -1.
<mgrwt>
<rscale>  0 0.88010590E+02</rscale>
<asrwt>0</asrwt>
<pdfrwt beam="1">  1        1 0.16397221E+00 0.88010590E+02</pdfrwt>
<pdfrwt beam="2">  1       -1 0.11367258E-02 0.88010590E+02</pdfrwt>
<totfact> 0.20562779E+04</totfact>
</mgrwt>
</event>
<event>
 4    1  0.6602701E-002  0.2267131E+03  0.7546771E-02  0.1128975E+00
          3   -1    0    0  501    0  0.00000000000E+00  0.00000000000E+00  0.16996009127E+04  0.16996009127E+04  0.00000000000E+00 0. -1.
         -3   -1    0    0    0  501 -0.00000000000E+00 -0.00000000000E+00 -0.56029891401E+02  0.56029891401E+02  0.00000000000E+00 0.  1.
         24    1    1    2    0    0 -0.19808901629E+03 -0.75447835681E+02  0.22625556627E+03  0.32029741102E+03  0.80419002446E+02 0.  1.
        -24    1    1    2    0    0  0.19808901629E+03  0.75447835681E+02  0.14173154550E+04  0.14353333931E+04  0.80419002446E+02 0. -1.
<mgrwt>
<rscale>  0 0.22671315E+03</rscale>
<asrwt>0</asrwt>
<pdfrwt beam="1">  1        3 0.26147702E+00 0.22671315E+03</pdfrwt>
<pdfrwt beam="2">  1       -3 0.86199846E-02 0.22671315E+03</pdfrwt>
<totfact> 0.16730321E+01</totfact>
</mgrwt>
</event>
<event>
 4    1  0.6602701E-002  0.9152965E+02  0.7546771E-02  0.1299189E+00
          4   -1    0    0  501    0  0.00000000000E+00  0.00000000000E+00  0.16822202948E+02  0.16822202948E+02  0.00000000000E+00 0. -1.
         -4   -1    0    0    0  501 -0.00000000000E+00 -0.00000000000E+00 -0.52671015091E+03  0.52671015091E+03  0.00000000000E+00 0.  1.
         24    1    1    2    0    0  0.42396397553E+02  0.10630236451E+02 -0.31837919515E+03  0.33127478672E+03  0.80419002446E+02 0.  0.
        -24    1    1    2    0    0 -0.42396397553E+02 -0.10630236451E+02 -0.19150875281E+03  0.21225756714E+03  0.80419002446E+02 0.  0.
<mgrwt>
<rscale>  0 0.91529637E+02</rscale>
<asrwt>0</asrwt>
<pdfrwt beam="1">  1        4 0.25880315E-02 0.91529649E+02</pdfrwt>
<pdfrwt beam="2">  1       -4 0.81032324E-01 0.91529649E+02</pdfrwt>
<totfact> 0.14137698E+03</totfact>
</mgrwt>
</event>
<event>
 4    1  0.6602701E-002  0.9997544E+02  0.7546771E-02  0.1280348E+00
          2   -1    0    0  501    0  0.00000000000E+00  0.00000000000E+00  0.10177892306E+04  0.10177892306E+04  0.00000000000E+00 0. -1.
         -2   -1    0    0    0  501 -0.00000000000E+00 -0.00000000000E+00 -0.10525432125E+02  0.10525432125E+02  0.00000000000E+00 0.  1.
         24    1    1    2    0    0 -0.25277287524E+02 -0.53748786005E+02  0.63670276515E+03  0.64450407319E+03  0.80419002446E+02 0. -1.
        -24    1    1    2    0    0  0.25277287524E+02  0.53748786005E+02  0.37056103332E+03  0.38381058953E+03  0.80419002446E+02 0.  1.
<mgrwt>
<rscale>  0 0.99975443E+02</rscale>
<asrwt>0</asrwt>
<pdfrwt beam="1">  1        2 0.15658288E+00 0.99975443E+02</pdfrwt>
<pdfrwt beam="2">  1       -2 0.16192981E-02 0.99975443E+02</pdfrwt>
<totfact> 0.25016298E+04</totfact>
</mgrwt>
</event>
<event>
 4    1  0.6602701E-002  0.8057408E+02  0.7546771E-02  0.1327430E+00
          2   -1    0    0  501    0  0.00000000000E+00  0.00000000000E+00  0.85396335729E+03  0.85396335729E+03  0.00000000000E+00 0. -1.
         -2   -1    0    0    0  501 -0.00000000000E+00 -0.00000000000E+00 -0.15871816264E+02  0.15871816264E+02  0.00000000000E+00 0.  1.
         24    1    1    2    0    0  0.47073740301E+01 -0.16755124775E+01  0.73297425610E+03  0.73738961396E+03  0.80419002446E+02 0. -1.
        -24    1    1    2    0    0 -0.47073740301E+01  0.16755124775E+01  0.10511728492E+03  0.13244555959E+03  0.80419002446E+02 0.  0.
<mgrwt>
<rscale>  0 0.80574082E+02</rscale>
<asrwt>0</asrwt>
<pdfrwt beam="1">  1        2 0.13137894E+00 0.80574082E+02</pdfrwt>
<pdfrwt beam="2">  1       -2 0.24418186E-02 0.80574082E+02</pdfrwt>
<totfact> 0.17110993E+04</totfact>
</mgrwt>
</event>
<event>
 4    1  0.1409362E-001  0.9781527E+02  0.7546771E-02  0.1284958E+00
         -1   -1    0    0    0  501 -0.00000000000E+00  0.00000000000E+00  0.10759224090E+03  0.10759224090E+03  0.00000000000E+00 0.  1.
          1   -1    0    0  501    0  0.00000000000E+00 -0.00000000000E+00 -0.82605087099E+03  0.82605087099E+03  0.00000000000E+00 0. -1.
         24    1    1    2    0    0  0.25917571870E+02 -0.49283776050E+02  0.81749595236E+02  0.12747871740E+03  0.80419002446E+02 0.  1.
        -24    1    1    2    0    0 -0.25917571870E+02  0.49283776050E+02 -0.80020822533E+03  0.80616439450E+03  0.80419002446E+02 0. -1.
<mgrwt>
<rscale>  0 0.97815270E+02</rscale>
<asrwt>0</asrwt>
<pdfrwt beam="1">  1        1 0.12708475E+00 0.97815270E+02</pdfrwt>
<pdfrwt beam="2">  1       -1 0.16552653E-01 0.97815270E+02</pdfrwt>
<totfact> 0.61135353E+02</totfact>
</mgrwt>
</event>
<event>
 4    1  0.6602701E-002  0.9714816E+02  0.7546771E-02  0.1286410E+00
         -3   -1    0    0    0  501 -0.00000000000E+00  0.00000000000E+00  0.17712460851E+02  0.17712460851E+02  0.00000000000E+00 0.  1.
          3   -1    0    0  501    0  0.00000000000E+00 -0.00000000000E+00 -0.91393206084E+03  0.91393206084E+03  0.00000000000E+00 0. -1.
         24    1    1    2    0    0 -0.52278709093E+02 -0.15410597259E+02 -0.14730636363E+03  0.17645659708E+03  0.80419002446E+02 0.  1.
        -24    1    1    2    0    0  0.52278709093E+02  0.15410597259E+02 -0.74891323636E+03  0.75518792461E+03  0.80419002446E+02 0. -1.
<mgrwt>
<rscale>  0 0.97148165E+02</rscale>
<asrwt>0</asrwt>
<pdfrwt beam="1">  1        3 0.14060492E+00 0.97148165E+02</pdfrwt>
<pdfrwt beam="2">  1       -3 0.27249943E-02 0.97148165E+02</pdfrwt>
<totfact> 0.52746897E+02</totfact>
</mgrwt>
</event>
<event>
 4    1  0.6602701E-002  0.1108293E+03  0.7546771E-02  0.1259042E+00
         -4   -1    0    0    0  501 -0.00000000000E+00  0.00000000000E+00  0.30307533636E+03  0.30307533636E+03  0.00000000000E+00 0.  1.
          4   -1    0    0  501    0  0.00000000000E+00 -0.00000000000E+00 -0.51838805278E+02  0.51838805278E+02  0.00000000000E+00 0. -1.
         24    1    1    2    0    0 -0.66997842812E+01  0.75967232474E+02  0.42727315634E+02  0.11878024657E+03  0.80419002446E+02 0. -1.
        -24    1    1    2    0    0  0.66997842812E+01 -0.75967232474E+02  0.20850921545E+03  0.23613389507E+03  0.80419002446E+02 0.  1.
<mgrwt>
<rscale>  0 0.11082925E+03</rscale>
<asrwt>0</asrwt>
<pdfrwt beam="1">  1        4 0.79752010E-02 0.11082925E+03</pdfrwt>
<pdfrwt beam="2">  1       -4 0.46626974E-01 0.11082925E+03</pdfrwt>
<totfact> 0.78645096E+02</totfact>
</mgrwt>
</event>
<event>
 4    1  0.6602701E-002  0.8206033E+02  0.7546771E-02  0.1323304E+00
         -2   -1    0    0    0  501 -0.00000000000E+00  0.00000000000E+00  0.35543786160E+01  0.35543786160E+01  0.00000000000E+00 0.  1.
          2   -1    0    0  501    0  0.00000000000E+00 -0.00000000000E+00 -0.23731943943E+04  0.23731943943E+04  0.00000000000E+00 0. -1.
         24    1    1    2    0    0 -0.13921265067E+02 -0.85369702427E+01 -0.17185229154E+04  0.17204810107E+04  0.80419002446E+02 0.  0.
        -24    1    1    2    0    0  0.13921265067E+02  0.85369702427E+01 -0.65111710021E+03  0.65626776214E+03  0.80419002446E+02 0.  0.
<mgrwt>
<rscale>  0 0.82060328E+02</rscale>
<asrwt>0</asrwt>
<pdfrwt beam="1">  1        2 0.36510610E+00 0.82060328E+02</pdfrwt>
<pdfrwt beam="2">  1       -2 0.54682857E-03 0.82060328E+02</pdfrwt>
<totfact> 0.22798740E+04</totfact>
</mgrwt>
</event>
<event>
 4    1  0.6602701E-002  0.8765522E+02  0.7546771E-02  0.1308631E+00
          2   -1    0    0  501    0  0.00000000000E+00  0.00000000000E+00  0.11940992621E+04  0.11940992621E+04  0.00000000000E+00 0. -1.
         -2   -1    0    0    0  501 -0.00000000000E+00 -0.00000000000E+00 -0.20277026988E+02  0.20277026988E+02  0.00000000000E+00 0.  1.
         24    1    1    2    0    0 -0.17523071626E+02  0.30152342760E+02  0.10885933883E+04  0.10921167533E+04  0.80419002446E+02 0. -1.
        -24    1    1    2    0    0  0.17523071626E+02 -0.30152342760E+02  0.85228846852E+02  0.12225953584E+03  0.80419002446E+02 0.  1.
<mgrwt>
<rscale>  0 0.87655221E+02</rscale>
<asrwt>0</asrwt>
<pdfrwt beam="1">  1        2 0.18370752E+00 0.87655221E+02</pdfrwt>
<pdfrwt beam="2">  1       -2 0.31195436E-02 0.87655221E+02</pdfrwt>
<totfact> 0.76614599E+03</totfact>
</mgrwt>
</event>
<event>
 4    1  0.6602701E-002  0.8313456E+02  0.7546771E-02  0.1320384E+00
          1   -1    0    0  501    0  0.00000000000E+00  0.00000000000E+00  0.19899359467E+04  0.19899359467E+04  0.00000000000E+00 0. -1.
         -1   -1    0    0    0  501 -0.00000000000E+00 -0.00000000000E+00 -0.51643061544E+01  0.51643061544E+01  0.00000000000E+00 0.  1.
         24    1    1    2    0    0  0.57096572293E+01  0.20286423540E+02  0.42153844753E+03  0.42965802432E+03  0.80419002446E+02 0.  0.
        -24    1    1    2    0    0 -0.57096572293E+01 -0.20286423540E+02  0.15632331930E+04  0.15654422285E+04  0.80419002446E+02 0. -1.
<mgrwt>
<rscale>  0 0.83134560E+02</rscale>
<asrwt>0</asrwt>
<pdfrwt beam="1">  1        1 0.30614338E+00 0.83134560E+02</pdfrwt>
<pdfrwt beam="2">  1       -1 0.79451023E-03 0.83134560E+02</pdfrwt>
<totfact> 0.86195323E+03</totfact>
</mgrwt>
</event>
<event>
 4    1  0.6602701E-002  0.1039995E+03  0.7546771E-02  0.1272103E+00
          2   -1    0    0  501    0  0.00000000000E+00  0.00000000000E+00  0.10885357688E+04  0.10885357688E+04  0.00000000000E+00 0. -1.
         -2   -1    0    0    0  501 -0.00000000000E+00 -0.00000000000E+00 -0.99375507399E+01  0.99375507399E+01  0.00000000000E+00 0.  1.
         24    1    1    2    0    0 -0.60612877826E+02 -0.25976174571E+02  0.54572536286E+03  0.55554664091E+03  0.80419002446E+02 0. -1.
        -24    1    1    2    0    0  0.60612877826E+02  0.25976174571E+02  0.53287285516E+03  0.54292667859E+03  0.80419002446E+02 0.  0.
<mgrwt>
<rscale>  0 0.10399951E+03</rscale>
<asrwt>0</asrwt>
<pdfrwt beam="1">  1        2 0.16746695E+00 0.10399951E+03</pdfrwt>
<pdfrwt beam="2">  1       -2 0.15288548E-02 0.10399951E+03</pdfrwt>
<totfact> 0.24815886E+04</totfact>
</mgrwt>
</event>
<event>
 4    1  0.6602701E-002  0.8611054E+02  0.7546771E-02  0.1312554E+00
         -2   -1    0    0    0  501 -0.00000000000E+00  0.00000000000E+00  0.18247815915E+02  0.18247815915E+02  0.00000000000E+00 0.  1.
          2   -1    0    0  501    0  0.00000000000E+00 -0.00000000000E+00 -0.69594775453E+03  0.69594775453E+03  0.00000000000E+00 0. -1.
         24    1    1    2    0    0 -0.30681232160E+02 -0.25430267018E+01 -0.10849606800E+03  0.13851504510E+03  0.80419002446E+02 0.  0.
        -24    1    1    2    0    0  0.30681232160E+02  0.25430267018E+01 -0.56920387062E+03  0.57568052535E+03  0.80419002446E+02 0.  0.
<mgrwt>
<rscale>  0 0.86110527E+02</rscale>
<asrwt>0</asrwt>
<pdfrwt beam="1">  1        2 0.10706886E+00 0.86110537E+02</pdfrwt>
<pdfrwt beam="2">  1       -2 0.28073570E-02 0.86110537E+02</pdfrwt>
<totfact> 0.17995748E+04</totfact>
</mgrwt>
</event>
<event>
 4    1  0.6602701E-002  0.1582506E+03  0.7546771E-02  0.1190686E+00
          2   -1    0    0  501    0  0.00000000000E+00  0.00000000000E+00  0.27866320959E+04  0.27866320959E+04  0.00000000000E+00 0. -1.
         -2   -1    0    0    0  501 -0.00000000000E+00 -0.00000000000E+00 -0.12638930497E+02  0.12638930497E+02  0.00000000000E+00 0.  1.
         24    1    1    2    0    0 -0.10086374784E+03  0.91665379037E+02  0.21393562563E+04  0.21452012597E+04  0.80419002446E+02 0.  0.
        -24    1    1    2    0    0  0.10086374784E+03 -0.91665379037E+02  0.63463690909E+03  0.65406976667E+03  0.80419002446E+02 0. -1.
<mgrwt>
<rscale>  0 0.15825060E+03</rscale>
<asrwt>0</asrwt>
<pdfrwt beam="1">  1        2 0.42871214E+00 0.15825060E+03</pdfrwt>
<pdfrwt beam="2">  1       -2 0.19444531E-02 0.15825060E+03</pdfrwt>
<totfact> 0.22655509E+03</totfact>
</mgrwt>
</event>
<event>
 4    1  0.6602701E-002  0.9823810E+02  0.7546771E-02  0.1284045E+00
          3   -1    0    0  501    0  0.00000000000E+00  0.00000000000E+00  0.47084624226E+03  0.47084624226E+03  0.00000000000E+00 0. -1.
         -3   -1    0    0    0  501 -0.00000000000E+00 -0.00000000000E+00 -0.20659003352E+02  0.20659003352E+02  0.00000000000E+00 0.  1.
         24    1    1    2    0    0  0.37956073133E+02  0.41747402582E+02  0.20330129742E+03  0.22579225540E+03  0.80419002446E+02 0.  1.
        -24    1    1    2    0    0 -0.37956073133E+02 -0.41747402582E+02  0.24688594149E+03  0.26571299021E+03  0.80419002446E+02 0.  0.
<mgrwt>
<rscale>  0 0.98238104E+02</rscale>
<asrwt>0</asrwt>
<pdfrwt beam="1">  1        3 0.72437875E-01 0.98238104E+02</pdfrwt>
<pdfrwt beam="2">  1       -3 0.31783086E-02 0.98238104E+02</pdfrwt>
<totfact> 0.18641873E+03</totfact>
</mgrwt>
</event>
<event>
 4    1  0.6602701E-002  0.8184335E+02  0.7546771E-02  0.1323900E+00
         -4   -1    0    0    0  501 -0.00000000000E+00  0.00000000000E+00  0.61754206290E+01  0.61754206290E+01  0.00000000000E+00 0.  1.
          4   -1    0    0  501    0  0.00000000000E+00 -0.00000000000E+00 -0.10893082410E+04  0.10893082410E+04  0.00000000000E+00 0. -1.
         24    1    1    2    0    0 -0.13805717914E+02 -0.63654862182E+01 -0.57728347977E+03  0.58305621447E+03  0.80419002446E+02 0.  1.
        -24    1    1    2    0    0  0.13805717914E+02  0.63654862182E+01 -0.50584934064E+03  0.51242744719E+03  0.80419002446E+02 0.  0.
<mgrwt>
<rscale>  0 0.81843346E+02</rscale>
<asrwt>0</asrwt>
<pdfrwt beam="1">  1        4 0.16758597E+00 0.81843346E+02</pdfrwt>
<pdfrwt beam="2">  1       -4 0.95006422E-03 0.81843346E+02</pdfrwt>
<totfact> 0.11190147E+03</totfact>
</mgrwt>
</event>
<event>
 4    1  0.6602701E-002  0.8194119E+02  0.7546771E-02  0.1323631E+00
         -2   -1    0    0    0  501 -0.00000000000E+00  0.00000000000E+00  0.16672867982E+03  0.16672867982E+03  0.00000000000E+00 0.  1.
          2   -1    0    0  501    0  0.00000000000E+00 -0.00000000000E+00 -0.62936651681E+03  0.62936651681E+03  0.00000000000E+00 0. -1.
         24    1    1    2    0    0  0.12989318738E+02  0.88555039065E+01 -0.61642110863E+03  0.62184350240E+03  0.80419002446E+02 0. -1.
        -24    1    1    2    0    0 -0.12989318738E+02 -0.88555039065E+01  0.15378327164E+03  0.17425169423E+03  0.80419002446E+02 0.  1.
<mgrwt>
<rscale>  0 0.81941188E+02</rscale>
<asrwt>0</asrwt>
<pdfrwt beam="1">  1        2 0.96825617E-01 0.81941188E+02</pdfrwt>
<pdfrwt beam="2">  1       -2 0.25650566E-01 0.81941188E+02</pdfrwt>
<totfact> 0.65134329E+02</totfact>
</mgrwt>
</event>
<event>
 4    1  0.6602701E-002  0.1951433E+03  0.7546771E-02  0.1153903E+00
         -2   -1    0    0    0  501 -0.00000000000E+00  0.00000000000E+00  0.44124606542E+02  0.44124606542E+02  0.00000000000E+00 0.  1.
          2   -1    0    0  501    0  0.00000000000E+00 -0.00000000000E+00 -0.14480701095E+04  0.14480701095E+04  0.00000000000E+00 0. -1.
         24    1    1    2    0    0  0.16807174712E+03 -0.58013544443E+02 -0.22773820309E+03  0.29990930066E+03  0.80419002446E+02 0.  1.
        -24    1    1    2    0    0 -0.16807174712E+03  0.58013544443E+02 -0.11762072998E+04  0.11922854153E+04  0.80419002446E+02 0. -1.
<mgrwt>
<rscale>  0 0.19514330E+03</rscale>
<asrwt>0</asrwt>
<pdfrwt beam="1">  1        2 0.22278001E+00 0.19514333E+03</pdfrwt>
<pdfrwt beam="2">  1       -2 0.67884012E-02 0.19514333E+03</pdfrwt>
<totfact> 0.17833261E+03</totfact>
</mgrwt>
</event>
<event>
 4    1  0.7101662E-002  0.8804069E+02  0.7546771E-02  0.1307667E+00
          1   -1    0    0  501    0  0.00000000000E+00  0.00000000000E+00  0.69273332241E+03  0.69273332241E+03  0.00000000000E+00 0. -1.
         -1   -1    0    0    0  501 -0.00000000000E+00 -0.00000000000E+00 -0.30187364727E+02  0.30187364727E+02  0.00000000000E+00 0.  1.
         24    1    1    2    0    0  0.24690362126E+02  0.25967911189E+02  0.44523013072E+02  0.98658304469E+02  0.80419002446E+02 0.  1.
        -24    1    1    2    0    0 -0.24690362126E+02 -0.25967911189E+02  0.61802294461E+03  0.62426238266E+03  0.80419002446E+02 0. -1.
<mgrwt>
<rscale>  0 0.88040686E+02</rscale>
<asrwt>0</asrwt>
<pdfrwt beam="1">  1        1 0.10657435E+00 0.88040686E+02</pdfrwt>
<pdfrwt beam="2">  1       -1 0.46442105E-02 0.88040686E+02</pdfrwt>
<totfact> 0.53222125E+03</totfact>
</mgrwt>
</event>
<event>
 4    1  0.6602701E-002  0.8576648E+02  0.7546771E-02  0.1313440E+00
          2   -1    0    0  501    0  0.00000000000E+00  0.00000000000E+00  0.23117363568E+04  0.23117363568E+04  0.00000000000E+00 0. -1.
         -2   -1    0    0    0  501 -0.00000000000E+00 -0.00000000000E+00 -0.34355900407E+01  0.34355900407E+01  0.00000000000E+00 0.  1.
         24    1    1    2    0    0  0.20495341585E+02 -0.21647509654E+02  0.14686638291E+04  0.14711659773E+04  0.80419002446E+02 0. -1.
        -24    1    1    2    0    0 -0.20495341585E+02  0.21647509654E+02  0.83963693767E+03  0.84400596962E+03  0.80419002446E+02 0.  1.
<mgrwt>
<rscale>  0 0.85766483E+02</rscale>
<asrwt>0</asrwt>
<pdfrwt beam="1">  1        2 0.35565050E+00 0.85766483E+02</pdfrwt>
<pdfrwt beam="2">  1       -2 0.52855416E-03 0.85766483E+02</pdfrwt>
<totfact> 0.25779519E+04</totfact>
</mgrwt>
</event>
<event>
 4    1  0.6602701E-002  0.8243282E+02  0.7546771E-02  0.1322286E+00
          2   -1    0    0  501    0  0.00000000000E+00  0.00000000000E+00  0.12166269839E+04  0.12166269839E+04  0.00000000000E+00 0. -1.
         -2   -1    0    0    0  501 -0.00000000000E+00 -0.00000000000E+00 -0.92215079631E+01  0.92215079631E+01  0.00000000000E+00 0.  1.
         24    1    1    2    0    0  0.13127392057E+02  0.12474991134E+02  0.98858950434E+03  0.99202035154E+03  0.80419002446E+02 0. -1.
        -24    1    1    2    0    0 -0.13127392057E+02 -0.12474991134E+02  0.21881597159E+03  0.23382814032E+03  0.80419002446E+02 0.  0.
<mgrwt>
<rscale>  0 0.82432820E+02</rscale>
<asrwt>0</asrwt>
<pdfrwt beam="1">  1        2 0.18717326E+00 0.82432820E+02</pdfrwt>
<pdfrwt beam="2">  1       -2 0.14186945E-02 0.82432820E+02</pdfrwt>
<totfact> 0.23002098E+04</totfact>
</mgrwt>
</event>
<event>
 4    1  0.6602701E-002  0.8582000E+02  0.7546771E-02  0.1313302E+00
         -2   -1    0    0    0  501 -0.00000000000E+00  0.00000000000E+00  0.60496397204E+01  0.60496397204E+01  0.00000000000E+00 0.  1.
          2   -1    0    0  501    0  0.00000000000E+00 -0.00000000000E+00 -0.25088082528E+04  0.25088082528E+04  0.00000000000E+00 0. -1.
         24    1    1    2    0    0  0.14067458189E+02 -0.26456830406E+02 -0.21535210451E+04  0.21552303739E+04  0.80419002446E+02 0. -1.
        -24    1    1    2    0    0 -0.14067458189E+02  0.26456830406E+02 -0.34923756805E+03  0.35962751862E+03  0.80419002446E+02 0.  1.
<mgrwt>
<rscale>  0 0.85820005E+02</rscale>
<asrwt>0</asrwt>
<pdfrwt beam="1">  1        2 0.38597044E+00 0.85820005E+02</pdfrwt>
<pdfrwt beam="2">  1       -2 0.93071395E-03 0.85820005E+02</pdfrwt>
<totfact> 0.92006380E+03</totfact>
</mgrwt>
</event>
<event>
 4    1  0.6602701E-002  0.8822561E+02  0.7546771E-02  0.1307206E+00
         -3   -1    0    0    0  501 -0.00000000000E+00  0.00000000000E+00  0.11866309673E+02  0.11866309673E+02  0.00000000000E+00 0.  1.
          3   -1    0    0  501    0  0.00000000000E+00 -0.00000000000E+00 -0.67164515304E+03  0.67164515304E+03  0.00000000000E+00 0. -1.
         24    1    1    2    0    0 -0.35083726140E+02  0.92560791008E+01 -0.27765378660E+03  0.29133380169E+03  0.80419002446E+02 0.  1.
        -24    1    1    2    0    0  0.35083726140E+02 -0.92560791008E+01 -0.38212505677E+03  0.39217766102E+03  0.80419002446E+02 0. -1.
<mgrwt>
<rscale>  0 0.88225613E+02</rscale>
<asrwt>0</asrwt>
<pdfrwt beam="1">  1        3 0.10333006E+00 0.88225613E+02</pdfrwt>
<pdfrwt beam="2">  1       -3 0.18255855E-02 0.88225613E+02</pdfrwt>
<totfact> 0.19520758E+03</totfact>
</mgrwt>
</event>
<event>
 4    1  0.6602701E-002  0.1223651E+03  0.7546771E-02  0.1239246E+00
          3   -1    0    0  501    0  0.00000000000E+00  0.00000000000E+00  0.13393896268E+03  0.13393896268E+03  0.00000000000E+00 0. -1.
         -3   -1    0    0    0  501 -0.00000000000E+00 -0.00000000000E+00 -0.18002110923E+03  0.18002110923E+03  0.00000000000E+00 0.  1.
         24    1    1    2    0    0  0.91265019634E+02 -0.13292325006E+02 -0.11968396293E+03  0.17116499832E+03  0.80419002446E+02 0.  1.
        -24    1    1    2    0    0 -0.91265019634E+02  0.13292325006E+02  0.73601816376E+02  0.14279507359E+03  0.80419002446E+02 0. -1.
<mgrwt>
<rscale>  0 0.12236505E+03</rscale>
<asrwt>0</asrwt>
<pdfrwt beam="1">  1        3 0.20605994E-01 0.12236505E+03</pdfrwt>
<pdfrwt beam="2">  1       -3 0.27695555E-01 0.12236505E+03</pdfrwt>
<totfact> 0.60406676E+02</totfact>
</mgrwt>
</event>
<event>
 4    1  0.6602701E-002  0.2115403E+03  0.7546771E-02  0.1140352E+00
         -2   -1    0    0    0  501 -0.00000000000E+00  0.00000000000E+00  0.13079383900E+03  0.13079383900E+03  0.00000000000E+00 0.  1.
          2   -1    0    0  501    0  0.00000000000E+00 -0.00000000000E+00 -0.39153400016E+03  0.39153400016E+03  0.00000000000E+00 0. -1.
         24    1    1    2    0    0  0.55301146589E+02 -0.18768027312E+03 -0.22313459689E+03  0.30747091898E+03  0.80419002446E+02 0.  0.
        -24    1    1    2    0    0 -0.55301146589E+02  0.18768027312E+03 -0.37605564272E+02  0.21485692019E+03  0.80419002446E+02 0.  0.
<mgrwt>
<rscale>  0 0.21154035E+03</rscale>
<asrwt>0</asrwt>
<pdfrwt beam="1">  1        2 0.60236000E-01 0.21154035E+03</pdfrwt>
<pdfrwt beam="2">  1       -2 0.20122129E-01 0.21154035E+03</pdfrwt>
<totfact> 0.16893225E+03</totfact>
</mgrwt>
</event>
<event>
 4    1  0.6602701E-002  0.1265134E+03  0.7546771E-02  0.1232723E+00
          4   -1    0    0  501    0  0.00000000000E+00  0.00000000000E+00  0.26115965405E+03  0.26115965405E+03  0.00000000000E+00 0. -1.
         -4   -1    0    0    0  501 -0.00000000000E+00 -0.00000000000E+00 -0.11078911980E+03  0.11078911980E+03  0.00000000000E+00 0.  1.
         24    1    1    2    0    0 -0.97005479430E+02 -0.11330117570E+02  0.19949844524E+03  0.23623141242E+03  0.80419002446E+02 0.  1.
        -24    1    1    2    0    0  0.97005479430E+02  0.11330117570E+02 -0.49127910992E+02  0.13571736144E+03  0.80419002446E+02 0. -1.
<mgrwt>
<rscale>  0 0.12651344E+03</rscale>
<asrwt>0</asrwt>
<pdfrwt beam="1">  1        4 0.40178408E-01 0.12651344E+03</pdfrwt>
<pdfrwt beam="2">  1       -4 0.17044480E-01 0.12651344E+03</pdfrwt>
<totfact> 0.29781932E+02</totfact>
</mgrwt>
</event>
<event>
 4    1  0.6602701E-002  0.1211124E+03  0.7546771E-02  0.1241273E+00
         -2   -1    0    0    0  501 -0.00000000000E+00  0.00000000000E+00  0.20392848000E+02  0.20392848000E+02  0.00000000000E+00 0.  1.
          2   -1    0    0  501    0  0.00000000000E+00 -0.00000000000E+00 -0.76731453701E+03  0.76731453701E+03  0.00000000000E+00 0. -1.
         24    1    1    2    0    0  0.31398315870E+02 -0.84941933361E+02 -0.27491975521E+03  0.30041483659E+03  0.80419002446E+02 0.  1.
        -24    1    1    2    0    0 -0.31398315870E+02  0.84941933361E+02 -0.47200193381E+03  0.48729254843E+03  0.80419002446E+02 0. -1.
<mgrwt>
<rscale>  0 0.12111237E+03</rscale>
<asrwt>0</asrwt>
<pdfrwt beam="1">  1        2 0.11804837E+00 0.12111238E+03</pdfrwt>
<pdfrwt beam="2">  1       -2 0.31373617E-02 0.12111238E+03</pdfrwt>
<totfact> 0.14014810E+04</totfact>
</mgrwt>
</event>
<event>
 4    1  0.6602701E-002  0.8123242E+02  0.7546771E-02  0.1325590E+00
          2   -1    0    0  501    0  0.00000000000E+00  0.00000000000E+00  0.12673128007E+03  0.12673128007E+03  0.00000000000E+00 0. -1.
         -2   -1    0    0    0  501 -0.00000000000E+00 -0.00000000000E+00 -0.61585427350E+02  0.61585427350E+02  0.00000000000E+00 0.  1.
         24    1    1    2    0    0  0.10222565291E+02 -0.51951180240E+01  0.69587141398E+02  0.10696296693E+03  0.80419002446E+02 0. -1.
        -24    1    1    2    0    0 -0.10222565291E+02  0.51951180240E+01 -0.44412886763E+01  0.81353740491E+02  0.80419002446E+02 0.  1.
<mgrwt>
<rscale>  0 0.81232420E+02</rscale>
<asrwt>0</asrwt>
<pdfrwt beam="1">  1        2 0.19497120E-01 0.81232420E+02</pdfrwt>
<pdfrwt beam="2">  1       -2 0.94746812E-02 0.81232420E+02</pdfrwt>
<totfact> 0.18207483E+04</totfact>
</mgrwt>
</event>
<event>
 4    1  0.6602701E-002  0.8168850E+02  0.7546771E-02  0.1324327E+00
         -1   -1    0    0    0  501 -0.00000000000E+00  0.00000000000E+00  0.49984674657E+02  0.49984674657E+02  0.00000000000E+00 0.  1.
          1   -1    0    0  501    0  0.00000000000E+00 -0.00000000000E+00 -0.18141175833E+03  0.18141175833E+03  0.00000000000E+00 0. -1.
         24    1    1    2    0    0  0.11457384488E+02 -0.86326476344E+01 -0.62555946180E+01  0.81927667383E+02  0.80419002446E+02 0.  1.
        -24    1    1    2    0    0 -0.11457384488E+02  0.86326476344E+01 -0.12517148905E+03  0.14946876560E+03  0.80419002446E+02 0. -1.
<mgrwt>
<rscale>  0 0.81688495E+02</rscale>
<asrwt>0</asrwt>
<pdfrwt beam="1">  1        1 0.27909501E-01 0.81688495E+02</pdfrwt>
<pdfrwt beam="2">  1       -1 0.76899501E-02 0.81688495E+02</pdfrwt>
<totfact> 0.13545015E+04</totfact>
</mgrwt>
</event>
<event>
 4    1  0.6602701E-002  0.1582792E+03  0.7546771E-02  0.1190653E+00
         -2   -1    0    0    0  501 -0.00000000000E+00  0.00000000000E+00  0.12837408290E+03  0.12837408290E+03  0.00000000000E+00 0.  1.
          2   -1    0    0  501    0  0.00000000000E+00 -0.00000000000E+00 -0.36927950602E+03  0.36927950602E+03  0.00000000000E+00 0. -1.
         24    1    1    2    0    0 -0.96540466103E+02 -0.96254958489E+02 -0.29131838750E+03  0.33153988822E+03  0.80419002446E+02 0. -1.
        -24    1    1    2    0    0  0.96540466103E+02  0.96254958489E+02  0.50412964377E+02  0.16611370070E+03  0.80419002446E+02 0.  1.
<mgrwt>
<rscale>  0 0.15827917E+03</rscale>
<asrwt>0</asrwt>
<pdfrwt beam="1">  1        2 0.56812231E-01 0.15827917E+03</pdfrwt>
<pdfrwt beam="2">  1       -2 0.19749859E-01 0.15827917E+03</pdfrwt>
<totfact> 0.18436784E+03</totfact>
</mgrwt>
</event>
<event>
 4    1  0.6602701E-002  0.8713335E+02  0.7546771E-02  0.1309946E+00
         -3   -1    0    0    0  501 -0.00000000000E+00  0.00000000000E+00  0.98320224991E+01  0.98320224991E+01  0.00000000000E+00 0.  1.
          3   -1    0    0  501    0  0.00000000000E+00 -0.00000000000E+00 -0.77598891944E+03  0.77598891944E+03  0.00000000000E+00 0. -1.
         24    1    1    2    0    0 -0.25175694093E+02  0.22162782588E+02 -0.35559852292E+03  0.36611819124E+03  0.80419002446E+02 0. -1.
        -24    1    1    2    0    0  0.25175694093E+02 -0.22162782588E+02 -0.41055837403E+03  0.41970275070E+03  0.80419002446E+02 0.  1.
<mgrwt>
<rscale>  0 0.87133349E+02</rscale>
<asrwt>0</asrwt>
<pdfrwt beam="1">  1        3 0.11938289E+00 0.87133349E+02</pdfrwt>
<pdfrwt beam="2">  1       -3 0.15126191E-02 0.87133349E+02</pdfrwt>
<totfact> 0.18547480E+03</totfact>
</mgrwt>
</event>
<event>
 4    1  0.6602701E-002  0.8368338E+02  0.7546771E-02  0.1318912E+00
         -1   -1    0    0    0  501 -0.00000000000E+00  0.00000000000E+00  0.93286545000E+01  0.93286545000E+01  0.00000000000E+00 0.  1.
          1   -1    0    0  501    0  0.00000000000E+00 -0.00000000000E+00 -0.96158332127E+03  0.96158332127E+03  0.00000000000E+00 0. -1.
         24    1    1    2    0    0 -0.40504021791E+01  0.22787841904E+02 -0.24877990628E+03  0.26247733087E+03  0.80419002446E+02 0.  1.
        -24    1    1    2    0    0  0.40504021791E+01 -0.22787841904E+02 -0.70347476049E+03  0.70843464490E+03  0.80419002446E+02 0.  0.
<mgrwt>
<rscale>  0 0.83683376E+02</rscale>
<asrwt>0</asrwt>
<pdfrwt beam="1">  1        1 0.14793592E+00 0.83683376E+02</pdfrwt>
<pdfrwt beam="2">  1       -1 0.14351773E-02 0.83683376E+02</pdfrwt>
<totfact> 0.17479566E+04</totfact>
</mgrwt>
</event>
<event>
 4    1  0.6602701E-002  0.1314797E+03  0.7546771E-02  0.1225277E+00
          2   -1    0    0  501    0  0.00000000000E+00  0.00000000000E+00  0.47876153306E+03  0.47876153306E+03  0.00000000000E+00 0. -1.
         -2   -1    0    0    0  501 -0.00000000000E+00 -0.00000000000E+00 -0.11857719507E+03  0.11857719507E+03  0.00000000000E+00 0.  1.
         24    1    1    2    0    0 -0.54683932654E+02 -0.88483628679E+02  0.42917120775E+03  0.44885947305E+03  0.80419002446E+02 0. -1.
        -24    1    1    2    0    0  0.54683932654E+02  0.88483628679E+02 -0.68986869754E+02  0.14847925507E+03  0.80419002446E+02 0.  1.
<mgrwt>
<rscale>  0 0.13147966E+03</rscale>
<asrwt>0</asrwt>
<pdfrwt beam="1">  1        2 0.73655619E-01 0.13147966E+03</pdfrwt>
<pdfrwt beam="2">  1       -2 0.18242646E-01 0.13147966E+03</pdfrwt>
<totfact> 0.15851380E+03</totfact>
</mgrwt>
</event>
<event>
 4    1  0.6602701E-002  0.1102065E+03  0.7546771E-02  0.1260188E+00
         -2   -1    0    0    0  501 -0.00000000000E+00  0.00000000000E+00  0.13269904645E+02  0.13269904645E+02  0.00000000000E+00 0.  1.
          2   -1    0    0  501    0  0.00000000000E+00 -0.00000000000E+00 -0.18525198386E+04  0.18525198386E+04  0.00000000000E+00 0. -1.
         24    1    1    2    0    0 -0.70937081630E+02 -0.25420309582E+02 -0.15831848867E+04  0.15870160249E+04  0.80419002446E+02 0. -1.
        -24    1    1    2    0    0  0.70937081630E+02  0.25420309582E+02 -0.25606504725E+03  0.27877371839E+03  0.80419002446E+02 0.  1.
<mgrwt>
<rscale>  0 0.11020652E+03</rscale>
<asrwt>0</asrwt>
<pdfrwt beam="1">  1        2 0.28500316E+00 0.11020652E+03</pdfrwt>
<pdfrwt beam="2">  1       -2 0.20415230E-02 0.11020652E+03</pdfrwt>
<totfact> 0.65399544E+03</totfact>
</mgrwt>
</event>
<event>
 4    1  0.6602701E-002  0.8715874E+02  0.7546771E-02  0.1309882E+00
         -1   -1    0    0    0  501 -0.00000000000E+00  0.00000000000E+00  0.51307751960E+02  0.51307751960E+02  0.00000000000E+00 0.  1.
          1   -1    0    0  501    0  0.00000000000E+00 -0.00000000000E+00 -0.15537749555E+03  0.15537749555E+03  0.00000000000E+00 0. -1.
         24    1    1    2    0    0  0.31380109178E+02 -0.12029901170E+02 -0.29608701985E+02  0.92050643462E+02  0.80419002446E+02 0. -1.
        -24    1    1    2    0    0 -0.31380109178E+02  0.12029901170E+02 -0.74461041606E+02  0.11463460405E+03  0.80419002446E+02 0. -1.
<mgrwt>
<rscale>  0 0.87158739E+02</rscale>
<asrwt>0</asrwt>
<pdfrwt beam="1">  1        1 0.23904230E-01 0.87158739E+02</pdfrwt>
<pdfrwt beam="2">  1       -1 0.78935004E-02 0.87158739E+02</pdfrwt>
<totfact> 0.15881943E+04</totfact>
</mgrwt>
</event>
<event>
 4    1  0.6602701E-002  0.1010170E+03  0.7546771E-02  0.1278172E+00
         -1   -1    0    0    0  501 -0.00000000000E+00  0.00000000000E+00  0.36559305351E+01  0.36559305351E+01  0.00000000000E+00 0.  1.
          1   -1    0    0  501    0  0.00000000000E+00 -0.00000000000E+00 -0.29589089098E+04  0.29589089098E+04  0.00000000000E+00 0. -1.
         24    1    1    2    0    0  0.42917703469E+02 -0.43534987355E+02 -0.11249734386E+04  0.11294997467E+04  0.80419002446E+02 0. -1.
        -24    1    1    2    0    0 -0.42917703469E+02  0.43534987355E+02 -0.18302795407E+04  0.18330650936E+04  0.80419002446E+02 0.  1.
<mgrwt>
<rscale>  0 0.10101703E+03</rscale>
<asrwt>0</asrwt>
<pdfrwt beam="1">  1        1 0.45521831E+00 0.10101703E+03</pdfrwt>
<pdfrwt beam="2">  1       -1 0.56244893E-03 0.10101703E+03</pdfrwt>
<totfact> 0.33346271E+03</totfact>
</mgrwt>
</event>
<event>
 4    1  0.6602701E-002  0.8243187E+02  0.7546771E-02  0.1322288E+00
          2   -1    0    0  501    0  0.00000000000E+00  0.00000000000E+00  0.12754253612E+04  0.12754253612E+04  0.00000000000E+00 0. -1.
         -2   -1    0    0    0  501 -0.00000000000E+00 -0.00000000000E+00 -0.83574473770E+01  0.83574473770E+01  0.00000000000E+00 0.  1.
         24    1    1    2    0    0 -0.15036586836E+02 -0.10084556420E+02  0.10200183015E+04  0.10233437099E+04  0.80419002446E+02 0.  0.
        -24    1    1    2    0    0  0.15036586836E+02  0.10084556420E+02  0.24704961233E+03  0.26043909869E+03  0.80419002446E+02 0.  1.
<mgrwt>
<rscale>  0 0.82431870E+02</rscale>
<asrwt>0</asrwt>
<pdfrwt beam="1">  1        2 0.19621913E+00 0.82431870E+02</pdfrwt>
<pdfrwt beam="2">  1       -2 0.12857621E-02 0.82431870E+02</pdfrwt>
<totfact> 0.24606616E+04</totfact>
</mgrwt>
</event>
<event>
 4    1  0.6602701E-002  0.8230903E+02  0.7546771E-02  0.1322624E+00
          2   -1    0    0  501    0  0.00000000000E+00  0.00000000000E+00  0.39150784819E+03  0.39150784819E+03  0.00000000000E+00 0. -1.
         -2   -1    0    0    0  501 -0.00000000000E+00 -0.00000000000E+00 -0.17370400828E+02  0.17370400828E+02  0.00000000000E+00 0.  1.
         24    1    1    2    0    0 -0.16919929035E+02  0.46122869978E+01  0.17445829285E+03  0.19290015316E+03  0.80419002446E+02 0.  1.
        -24    1    1    2    0    0  0.16919929035E+02 -0.46122869978E+01  0.19967915451E+03  0.21597809585E+03  0.80419002446E+02 0. -1.
<mgrwt>
<rscale>  0 0.82309020E+02</rscale>
<asrwt>0</asrwt>
<pdfrwt beam="1">  1        2 0.60231970E-01 0.82309031E+02</pdfrwt>
<pdfrwt beam="2">  1       -2 0.26723697E-02 0.82309031E+02</pdfrwt>
<totfact> 0.36024985E+04</totfact>
</mgrwt>
</event>
<event>
 4    1  0.8136744E-002  0.1408724E+03  0.7546771E-02  0.1212160E+00
         -1   -1    0    0    0  501 -0.00000000000E+00  0.00000000000E+00  0.21729794516E+03  0.21729794516E+03  0.00000000000E+00 0.  1.
          1   -1    0    0  501    0  0.00000000000E+00 -0.00000000000E+00 -0.46438781113E+03  0.46438781113E+03  0.00000000000E+00 0. -1.
         24    1    1    2    0    0 -0.11565307568E+03  0.14733741661E+01  0.18195001406E+03  0.23011046981E+03  0.80419002446E+02 0.  1.
        -24    1    1    2    0    0  0.11565307568E+03 -0.14733741661E+01 -0.42903988003E+03  0.45157528647E+03  0.80419002446E+02 0. -1.
<mgrwt>
<rscale>  0 0.14087236E+03</rscale>
<asrwt>0</asrwt>
<pdfrwt beam="1">  1        1 0.71444279E-01 0.14087236E+03</pdfrwt>
<pdfrwt beam="2">  1       -1 0.33430453E-01 0.14087236E+03</pdfrwt>
<totfact> 0.42859393E+02</totfact>
</mgrwt>
</event>
<event>
 4    1  0.6602701E-002  0.8145112E+02  0.7546771E-02  0.1324983E+00
         -1   -1    0    0    0  501 -0.00000000000E+00  0.00000000000E+00  0.35940070997E+02  0.35940070997E+02  0.00000000000E+00 0.  1.
          1   -1    0    0  501    0  0.00000000000E+00 -0.00000000000E+00 -0.25904019106E+03  0.25904019106E+03  0.00000000000E+00 0. -1.
         24    1    1    2    0    0  0.39953789625E+01  0.12292490329E+02 -0.32481534341E+02  0.87688849913E+02  0.80419002446E+02 0.  1.
        -24    1    1    2    0    0 -0.39953789625E+01 -0.12292490329E+02 -0.19061858572E+03  0.20729141214E+03  0.80419002446E+02 0.  0.
<mgrwt>
<rscale>  0 0.81451116E+02</rscale>
<asrwt>0</asrwt>
<pdfrwt beam="1">  1        1 0.39852338E-01 0.81451116E+02</pdfrwt>
<pdfrwt beam="2">  1       -1 0.55292416E-02 0.81451116E+02</pdfrwt>
<totfact> 0.14259433E+04</totfact>
</mgrwt>
</event>
<event>
 4    1  0.6602701E-002  0.9156175E+02  0.7546771E-02  0.1299113E+00
          2   -1    0    0  501    0  0.00000000000E+00  0.00000000000E+00  0.52268156271E+02  0.52268156271E+02  0.00000000000E+00 0. -1.
         -2   -1    0    0    0  501 -0.00000000000E+00 -0.00000000000E+00 -0.27844932478E+03  0.27844932478E+03  0.00000000000E+00 0.  1.
         24    1    1    2    0    0  0.43245434161E+02 -0.67948302161E+01 -0.54205279203E+01  0.91722054985E+02  0.80419002446E+02 0. -1.
        -24    1    1    2    0    0 -0.43245434161E+02  0.67948302161E+01 -0.22076064059E+03  0.23899542607E+03  0.80419002446E+02 0.  1.
<mgrwt>
<rscale>  0 0.91561746E+02</rscale>
<asrwt>0</asrwt>
<pdfrwt beam="1">  1        2 0.80412550E-02 0.91561746E+02</pdfrwt>
<pdfrwt beam="2">  1       -2 0.42838357E-01 0.91561746E+02</pdfrwt>
<totfact> 0.40791999E+03</totfact>
</mgrwt>
</event>
<event>
 4    1  0.6602701E-002  0.8119861E+02  0.7546771E-02  0.1325684E+00
          2   -1    0    0  501    0  0.00000000000E+00  0.00000000000E+00  0.31943578597E+03  0.31943578597E+03  0.00000000000E+00 0. -1.
         -2   -1    0    0    0  501 -0.00000000000E+00 -0.00000000000E+00 -0.55439713962E+02  0.55439713962E+02  0.00000000000E+00 0.  1.
         24    1    1    2    0    0 -0.98998887007E+01 -0.52905864578E+01  0.28050035923E+03  0.29201655019E+03  0.80419002446E+02 0.  0.
        -24    1    1    2    0    0  0.98998887007E+01  0.52905864578E+01 -0.16504287223E+02  0.82858949743E+02  0.80419002446E+02 0.  1.
<mgrwt>
<rscale>  0 0.81198609E+02</rscale>
<asrwt>0</asrwt>
<pdfrwt beam="1">  1        2 0.49143966E-01 0.81198609E+02</pdfrwt>
<pdfrwt beam="2">  1       -2 0.85291869E-02 0.81198609E+02</pdfrwt>
<totfact> 0.79748926E+03</totfact>
</mgrwt>
</event>
<event>
 4    1  0.6602701E-002  0.9768507E+02  0.7546771E-02  0.1285241E+00
         -1   -1    0    0    0  501 -0.00000000000E+00  0.00000000000E+00  0.31001148754E+03  0.31001148754E+03  0.00000000000E+00 0.  1.
          1   -1    0    0  501    0  0.00000000000E+00 -0.00000000000E+00 -0.30847688434E+02  0.30847688434E+02  0.00000000000E+00 0. -1.
         24    1    1    2    0    0  0.54029493914E+02 -0.12488644737E+02  0.13163941480E+03  0.16392468985E+03  0.80419002446E+02 0. -1.
        -24    1    1    2    0    0 -0.54029493914E+02  0.12488644737E+02  0.14752438431E+03  0.17693448612E+03  0.80419002446E+02 0.  1.
<mgrwt>
<rscale>  0 0.97685059E+02</rscale>
<asrwt>0</asrwt>
<pdfrwt beam="1">  1        1 0.47457984E-02 0.97685071E+02</pdfrwt>
<pdfrwt beam="2">  1       -1 0.47694073E-01 0.97685071E+02</pdfrwt>
<totfact> 0.73877414E+03</totfact>
</mgrwt>
</event>
<event>
 4    1  0.6602701E-002  0.1137476E+03  0.7546771E-02  0.1253783E+00
          1   -1    0    0  501    0  0.00000000000E+00  0.00000000000E+00  0.11914043652E+02  0.11914043652E+02  0.00000000000E+00 0. -1.
         -1   -1    0    0    0  501 -0.00000000000E+00 -0.00000000000E+00 -0.10972200279E+04  0.10972200279E+04  0.00000000000E+00 0.  1.
         24    1    1    2    0    0 -0.51986449105E+02  0.61389867986E+02 -0.59875947842E+03  0.60946815810E+03  0.80419002446E+02 0.  0.
        -24    1    1    2    0    0  0.51986449105E+02 -0.61389867986E+02 -0.48654650583E+03  0.49966591346E+03  0.80419002446E+02 0. -1.
<mgrwt>
<rscale>  0 0.11374763E+03</rscale>
<asrwt>0</asrwt>
<pdfrwt beam="1">  1        1 0.18329299E-02 0.11374763E+03</pdfrwt>
<pdfrwt beam="2">  1       -1 0.16880307E+00 0.11374763E+03</pdfrwt>
<totfact> 0.18081884E+03</totfact>
</mgrwt>
</event>
<event>
 4    1  0.6602701E-002  0.8371179E+02  0.7546771E-02  0.1318836E+00
         -2   -1    0    0    0  501 -0.00000000000E+00  0.00000000000E+00  0.24939553600E+01  0.24939553600E+01  0.00000000000E+00 0.  1.
          2   -1    0    0  501    0  0.00000000000E+00 -0.00000000000E+00 -0.49866262555E+04  0.49866262555E+04  0.00000000000E+00 0. -1.
         24    1    1    2    0    0  0.77293164795E+00 -0.23234680287E+02 -0.41402153635E+04  0.41410615692E+04  0.80419002446E+02 0. -1.
        -24    1    1    2    0    0 -0.77293164795E+00  0.23234680287E+02 -0.84391693662E+03  0.84805864164E+03  0.80419002446E+02 0.  1.
<mgrwt>
<rscale>  0 0.83711790E+02</rscale>
<asrwt>0</asrwt>
<pdfrwt beam="1">  1        2 0.76717339E+00 0.83711790E+02</pdfrwt>
<pdfrwt beam="2">  1       -2 0.38368538E-03 0.83711790E+02</pdfrwt>
<totfact> 0.49900352E+02</totfact>
</mgrwt>
</event>
<event>
 4    1  0.6602701E-002  0.8577668E+02  0.7546771E-02  0.1313414E+00
          1   -1    0    0  501    0  0.00000000000E+00  0.00000000000E+00  0.27512368788E+03  0.27512368788E+03  0.00000000000E+00 0. -1.
         -1   -1    0    0    0  501 -0.00000000000E+00 -0.00000000000E+00 -0.28556732413E+02  0.28556732413E+02  0.00000000000E+00 0.  1.
         24    1    1    2    0    0 -0.73754736775E+01  0.28914101242E+02  0.85017173290E+02  0.12077068589E+03  0.80419002446E+02 0.  1.
        -24    1    1    2    0    0  0.73754736775E+01 -0.28914101242E+02  0.16154978218E+03  0.18290973440E+03  0.80419002446E+02 0.  1.
<mgrwt>
<rscale>  0 0.85776680E+02</rscale>
<asrwt>0</asrwt>
<pdfrwt beam="1">  1        1 0.42326719E-01 0.85776680E+02</pdfrwt>
<pdfrwt beam="2">  1       -1 0.43933436E-02 0.85776680E+02</pdfrwt>
<totfact> 0.18637839E+04</totfact>
</mgrwt>
</event>
<event>
 4    1  0.6602701E-002  0.8180745E+02  0.7546771E-02  0.1323999E+00
         -2   -1    0    0    0  501 -0.00000000000E+00  0.00000000000E+00  0.46704079188E+02  0.46704079188E+02  0.00000000000E+00 0.  1.
          2   -1    0    0  501    0  0.00000000000E+00 -0.00000000000E+00 -0.18168467975E+03  0.18168467975E+03  0.00000000000E+00 0. -1.
         24    1    1    2    0    0  0.66408228357E+01 -0.13458929151E+02 -0.11998228989E+03  0.14521779899E+03  0.80419002446E+02 0. -1.
        -24    1    1    2    0    0 -0.66408228357E+01  0.13458929151E+02 -0.14998310677E+02  0.83170959952E+02  0.80419002446E+02 0. -1.
<mgrwt>
<rscale>  0 0.81807452E+02</rscale>
<asrwt>0</asrwt>
<pdfrwt beam="1">  1        2 0.27951490E-01 0.81807452E+02</pdfrwt>
<pdfrwt beam="2">  1       -2 0.71852429E-02 0.81807452E+02</pdfrwt>
<totfact> 0.18749376E+04</totfact>
</mgrwt>
</event>
<event>
 4    1  0.6602701E-002  0.1290240E+03  0.7546771E-02  0.1228911E+00
          1   -1    0    0  501    0  0.00000000000E+00  0.00000000000E+00  0.70617109981E+02  0.70617109981E+02  0.00000000000E+00 0. -1.
         -1   -1    0    0    0  501 -0.00000000000E+00 -0.00000000000E+00 -0.26076881821E+03  0.26076881821E+03  0.00000000000E+00 0.  1.
         24    1    1    2    0    0 -0.88353335332E+02 -0.48720382522E+02 -0.14640990099E+03  0.19514882167E+03  0.80419002446E+02 0.  1.
        -24    1    1    2    0    0  0.88353335332E+02  0.48720382522E+02 -0.43741807236E+02  0.13623710652E+03  0.80419002446E+02 0. -1.
<mgrwt>
<rscale>  0 0.12902404E+03</rscale>
<asrwt>0</asrwt>
<pdfrwt beam="1">  1        1 0.10864171E-01 0.12902404E+03</pdfrwt>
<pdfrwt beam="2">  1       -1 0.40118280E-01 0.12902404E+03</pdfrwt>
<totfact> 0.33788279E+03</totfact>
</mgrwt>
</event>
<event>
 4    1  0.6602701E-002  0.8577891E+02  0.7546771E-02  0.1313408E+00
         -1   -1    0    0    0  501 -0.00000000000E+00  0.00000000000E+00  0.21371705070E+04  0.21371705070E+04  0.00000000000E+00 0.  1.
          1   -1    0    0  501    0  0.00000000000E+00 -0.00000000000E+00 -0.69328808941E+01  0.69328808941E+01  0.00000000000E+00 0. -1.
         24    1    1    2    0    0  0.24252581389E+02  0.17395887656E+02  0.18257456719E+04  0.18277596338E+04  0.80419002446E+02 0.  0.
        -24    1    1    2    0    0 -0.24252581389E+02 -0.17395887656E+02  0.30449195426E+03  0.31634375412E+03  0.80419002446E+02 0. -1.
<mgrwt>
<rscale>  0 0.85778905E+02</rscale>
<asrwt>0</asrwt>
<pdfrwt beam="1">  1        1 0.10665988E-02 0.85778905E+02</pdfrwt>
<pdfrwt beam="2">  1       -1 0.32879494E+00 0.85778905E+02</pdfrwt>
<totfact> 0.37355417E+02</totfact>
</mgrwt>
</event>
<event>
 4    1  0.6602701E-002  0.1096326E+03  0.7546771E-02  0.1261252E+00
         -1   -1    0    0    0  501 -0.00000000000E+00  0.00000000000E+00  0.24893729447E+02  0.24893729447E+02  0.00000000000E+00 0.  1.
          1   -1    0    0  501    0  0.00000000000E+00 -0.00000000000E+00 -0.48822606653E+03  0.48822606653E+03  0.00000000000E+00 0. -1.
         24    1    1    2    0    0 -0.68209494644E+02  0.29992574330E+02 -0.20468050745E+03  0.23219262641E+03  0.80419002446E+02 0. -1.
        -24    1    1    2    0    0  0.68209494644E+02 -0.29992574330E+02 -0.25865182964E+03  0.28092716957E+03  0.80419002446E+02 0.  0.
<mgrwt>
<rscale>  0 0.10963259E+03</rscale>
<asrwt>0</asrwt>
<pdfrwt beam="1">  1        1 0.75111701E-01 0.10963259E+03</pdfrwt>
<pdfrwt beam="2">  1       -1 0.38298046E-02 0.10963259E+03</pdfrwt>
<totfact> 0.11427324E+04</totfact>
</mgrwt>
</event>
<event>
 4    1  0.6602701E-002  0.1206988E+03  0.7546771E-02  0.1241949E+00
          3   -1    0    0  501    0  0.00000000000E+00  0.00000000000E+00  0.88453780442E+03  0.88453780442E+03  0.00000000000E+00 0. -1.
         -3   -1    0    0    0  501 -0.00000000000E+00 -0.00000000000E+00 -0.17077125124E+02  0.17077125124E+02  0.00000000000E+00 0.  1.
         24    1    1    2    0    0  0.85192685451E+02  0.29037617581E+02  0.34871811885E+03  0.36901560842E+03  0.80419002446E+02 0.  1.
        -24    1    1    2    0    0 -0.85192685451E+02 -0.29037617581E+02  0.51874256045E+03  0.53259932113E+03  0.80419002446E+02 0. -1.
<mgrwt>
<rscale>  0 0.12069877E+03</rscale>
<asrwt>0</asrwt>
<pdfrwt beam="1">  1        3 0.13608270E+00 0.12069877E+03</pdfrwt>
<pdfrwt beam="2">  1       -3 0.26272507E-02 0.12069877E+03</pdfrwt>
<totfact> 0.62486579E+02</totfact>
</mgrwt>
</event>
<event>
 4    1  0.6602701E-002  0.3009322E+03  0.7546771E-02  0.1084776E+00
          2   -1    0    0  501    0  0.00000000000E+00  0.00000000000E+00  0.81168730450E+03  0.81168730450E+03  0.00000000000E+00 0. -1.
         -2   -1    0    0    0  501 -0.00000000000E+00 -0.00000000000E+00 -0.11665369246E+03  0.11665369246E+03  0.00000000000E+00 0.  1.
         24    1    1    2    0    0 -0.18372250954E+03  0.22436357650E+03  0.44441270137E+03  0.53671485918E+03  0.80419002446E+02 0. -1.
        -24    1    1    2    0    0  0.18372250954E+03 -0.22436357650E+03  0.25062091067E+03  0.39162613778E+03  0.80419002446E+02 0.  1.
<mgrwt>
<rscale>  0 0.30093220E+03</rscale>
<asrwt>0</asrwt>
<pdfrwt beam="1">  1        2 0.12487497E+00 0.30093220E+03</pdfrwt>
<pdfrwt beam="2">  1       -2 0.17946722E-01 0.30093220E+03</pdfrwt>
<totfact> 0.88273339E+02</totfact>
</mgrwt>
</event>
<event>
 4    1  0.6602701E-002  0.9538300E+02  0.7546771E-02  0.1290316E+00
         -1   -1    0    0    0  501 -0.00000000000E+00  0.00000000000E+00  0.16694707417E+02  0.16694707417E+02  0.00000000000E+00 0.  1.
          1   -1    0    0  501    0  0.00000000000E+00 -0.00000000000E+00 -0.55001502892E+03  0.55001502892E+03  0.00000000000E+00 0. -1.
         24    1    1    2    0    0  0.38595038121E+02  0.33780522382E+02 -0.23949043021E+03  0.25778592432E+03  0.80419002446E+02 0.  1.
        -24    1    1    2    0    0 -0.38595038121E+02 -0.33780522382E+02 -0.29382989129E+03  0.30892381201E+03  0.80419002446E+02 0.  0.
<mgrwt>
<rscale>  0 0.95383000E+02</rscale>
<asrwt>0</asrwt>
<pdfrwt beam="1">  1        1 0.84617687E-01 0.95383000E+02</pdfrwt>
<pdfrwt beam="2">  1       -1 0.25684168E-02 0.95383000E+02</pdfrwt>
<totfact> 0.17236899E+04</totfact>
</mgrwt>
</event>
<event>
 4    1  0.6602701E-002  0.9143354E+02  0.7546771E-02  0.1299417E+00
         -2   -1    0    0    0  501 -0.00000000000E+00  0.00000000000E+00  0.49609201035E+01  0.49609201035E+01  0.00000000000E+00 0.  1.
          2   -1    0    0  501    0  0.00000000000E+00 -0.00000000000E+00 -0.19273273634E+04  0.19273273634E+04  0.00000000000E+00 0. -1.
         24    1    1    2    0    0 -0.43043735962E+02  0.63330909970E+01 -0.61873404630E+03  0.62545336137E+03  0.80419002446E+02 0. -1.
        -24    1    1    2    0    0  0.43043735962E+02 -0.63330909970E+01 -0.13036323970E+04  0.13068349221E+04  0.80419002446E+02 0.  0.
<mgrwt>
<rscale>  0 0.91433524E+02</rscale>
<asrwt>0</asrwt>
<pdfrwt beam="1">  1        2 0.29651237E+00 0.91433535E+02</pdfrwt>
<pdfrwt beam="2">  1       -2 0.76321728E-03 0.91433535E+02</pdfrwt>
<totfact> 0.24172443E+04</totfact>
</mgrwt>
</event>
<event>
 4    1  0.6602701E-002  0.1475366E+03  0.7546771E-02  0.1203533E+00
         -1   -1    0    0    0  501 -0.00000000000E+00  0.00000000000E+00  0.35192269175E+03  0.35192269175E+03  0.00000000000E+00 0.  1.
          1   -1    0    0  501    0  0.00000000000E+00 -0.00000000000E+00 -0.70708362626E+02  0.70708362626E+02  0.00000000000E+00 0. -1.
         24    1    1    2    0    0 -0.10580349686E+03 -0.64073731183E+02  0.21539475227E+03  0.26107841396E+03  0.80419002446E+02 0.  1.
        -24    1    1    2    0    0  0.10580349686E+03  0.64073731183E+02  0.65819576862E+02  0.16155264043E+03  0.80419002446E+02 0. -1.
<mgrwt>
<rscale>  0 0.14753657E+03</rscale>
<asrwt>0</asrwt>
<pdfrwt beam="1">  1        1 0.10878210E-01 0.14753657E+03</pdfrwt>
<pdfrwt beam="2">  1       -1 0.54141952E-01 0.14753657E+03</pdfrwt>
<totfact> 0.19774660E+03</totfact>
</mgrwt>
</event>
<event>
 4    1  0.6602701E-002  0.8371464E+02  0.7546771E-02  0.1318829E+00
          3   -1    0    0  501    0  0.00000000000E+00  0.00000000000E+00  0.10799576484E+04  0.10799576484E+04  0.00000000000E+00 0. -1.
         -3   -1    0    0    0  501 -0.00000000000E+00 -0.00000000000E+00 -0.72794063494E+01  0.72794063494E+01  0.00000000000E+00 0.  1.
         24    1    1    2    0    0 -0.13717312539E+02 -0.18781897416E+02  0.35723878802E+03  0.36691646454E+03  0.80419002446E+02 0.  1.
        -24    1    1    2    0    0  0.13717312539E+02  0.18781897416E+02  0.71543945399E+03  0.72032059016E+03  0.80419002446E+02 0. -1.
<mgrwt>
<rscale>  0 0.83714636E+02</rscale>
<asrwt>0</asrwt>
<pdfrwt beam="1">  1        3 0.16614720E+00 0.83714636E+02</pdfrwt>
<pdfrwt beam="2">  1       -3 0.11199095E-02 0.83714636E+02</pdfrwt>
<totfact> 0.12948158E+03</totfact>
</mgrwt>
</event>
<event>
 4    1  0.6602701E-002  0.9964151E+02  0.7546771E-02  0.1281052E+00
          1   -1    0    0  501    0  0.00000000000E+00  0.00000000000E+00  0.38419384053E+02  0.38419384053E+02  0.00000000000E+00 0. -1.
         -1   -1    0    0    0  501 -0.00000000000E+00 -0.00000000000E+00 -0.41781364256E+03  0.41781364256E+03  0.00000000000E+00 0.  1.
         24    1    1    2    0    0  0.20269407789E+02 -0.55230108876E+02 -0.33059279474E+03  0.34528253027E+03  0.80419002446E+02 0.  1.
        -24    1    1    2    0    0 -0.20269407789E+02  0.55230108876E+02 -0.48801463760E+02  0.11095049634E+03  0.80419002446E+02 0. -1.
<mgrwt>
<rscale>  0 0.99641506E+02</rscale>
<asrwt>0</asrwt>
<pdfrwt beam="1">  1        1 0.59106742E-02 0.99641506E+02</pdfrwt>
<pdfrwt beam="2">  1       -1 0.64279025E-01 0.99641506E+02</pdfrwt>
<totfact> 0.31655345E+03</totfact>
</mgrwt>
</event>
<event>
 4    1  0.6602701E-002  0.8413289E+02  0.7546771E-02  0.1317716E+00
         -1   -1    0    0    0  501 -0.00000000000E+00  0.00000000000E+00  0.15288959125E+02  0.15288959125E+02  0.00000000000E+00 0.  1.
          1   -1    0    0  501    0  0.00000000000E+00 -0.00000000000E+00 -0.48318581969E+03  0.48318581969E+03  0.00000000000E+00 0. -1.
         24    1    1    2    0    0 -0.21490106126E+02  0.12218788886E+02 -0.28492783352E+03  0.29708956517E+03  0.80419002446E+02 0.  0.
        -24    1    1    2    0    0  0.21490106126E+02 -0.12218788886E+02 -0.18296902704E+03  0.20138521364E+03  0.80419002446E+02 0.  0.
<mgrwt>
<rscale>  0 0.84132878E+02</rscale>
<asrwt>0</asrwt>
<pdfrwt beam="1">  1        1 0.74336277E-01 0.84132889E+02</pdfrwt>
<pdfrwt beam="2">  1       -1 0.23521477E-02 0.84132889E+02</pdfrwt>
<totfact> 0.22822576E+04</totfact>
</mgrwt>
</event>
<event>
 4    1  0.6602701E-002  0.8396570E+02  0.7546771E-02  0.1318160E+00
          1   -1    0    0  501    0  0.00000000000E+00  0.00000000000E+00  0.33496570252E+03  0.33496570252E+03  0.00000000000E+00 0. -1.
         -1   -1    0    0    0  501 -0.00000000000E+00 -0.00000000000E+00 -0.49754751771E+02  0.49754751771E+02  0.00000000000E+00 0.  1.
         24    1    1    2    0    0 -0.24005653193E+02 -0.25983253329E+01 -0.35088254431E+01  0.84038981967E+02  0.80419002446E+02 0.  0.
        -24    1    1    2    0    0  0.24005653193E+02  0.25983253329E+01  0.28871977619E+03  0.30068147232E+03  0.80419002446E+02 0. -1.
<mgrwt>
<rscale>  0 0.83965699E+02</rscale>
<asrwt>0</asrwt>
<pdfrwt beam="1">  1        1 0.51533184E-01 0.83965699E+02</pdfrwt>
<pdfrwt beam="2">  1       -1 0.76545774E-02 0.83965699E+02</pdfrwt>
<totfact> 0.64729523E+03</totfact>
</mgrwt>
</event>
<event>
 4    1  0.6602701E-002  0.9900324E+02  0.7546771E-02  0.1282406E+00
          2   -1    0    0  501    0  0.00000000000E+00  0.00000000000E+00  0.98495366467E+03  0.98495366467E+03  0.00000000000E+00 0. -1.
         -2   -1    0    0    0  501 -0.00000000000E+00 -0.00000000000E+00 -0.99862802316E+01  0.99862802316E+01  0.00000000000E+00 0.  1.
         24    1    1    2    0    0 -0.56163930324E+02 -0.13417682908E+02  0.45807007865E+03  0.46864681178E+03  0.80419002446E+02 0. -1.
        -24    1    1    2    0    0  0.56163930324E+02  0.13417682908E+02  0.51689730579E+03  0.52629313312E+03  0.80419002446E+02 0.  1.
<mgrwt>
<rscale>  0 0.99003231E+02</rscale>
<asrwt>0</asrwt>
<pdfrwt beam="1">  1        2 0.15153126E+00 0.99003243E+02</pdfrwt>
<pdfrwt beam="2">  1       -2 0.15363516E-02 0.99003243E+02</pdfrwt>
<totfact> 0.28174733E+04</totfact>
</mgrwt>
</event>
<event>
 4    1  0.6602701E-002  0.8200692E+02  0.7546771E-02  0.1323451E+00
         -3   -1    0    0    0  501 -0.00000000000E+00  0.00000000000E+00  0.94922898717E+01  0.94922898717E+01  0.00000000000E+00 0.  1.
          3   -1    0    0  501    0  0.00000000000E+00 -0.00000000000E+00 -0.83298293214E+03  0.83298293214E+03  0.00000000000E+00 0. -1.
         24    1    1    2    0    0 -0.15978952893E+02 -0.16097766418E+01 -0.24889368422E+03  0.26205571986E+03  0.80419002446E+02 0.  1.
        -24    1    1    2    0    0  0.15978952893E+02  0.16097766418E+01 -0.57459695805E+03  0.58041950215E+03  0.80419002446E+02 0. -1.
<mgrwt>
<rscale>  0 0.82006916E+02</rscale>
<asrwt>0</asrwt>
<pdfrwt beam="1">  1        3 0.12815116E+00 0.82006916E+02</pdfrwt>
<pdfrwt beam="2">  1       -3 0.14603529E-02 0.82006916E+02</pdfrwt>
<totfact> 0.16351691E+03</totfact>
</mgrwt>
</event>
<event>
 4    1  0.6602701E-002  0.8743071E+02  0.7546771E-02  0.1309196E+00
          1   -1    0    0  501    0  0.00000000000E+00  0.00000000000E+00  0.24656767499E+03  0.24656767499E+03  0.00000000000E+00 0. -1.
         -1   -1    0    0    0  501 -0.00000000000E+00 -0.00000000000E+00 -0.33706946931E+02  0.33706946931E+02  0.00000000000E+00 0.  1.
         24    1    1    2    0    0 -0.22162611507E+02 -0.26186415975E+02  0.14612777397E+03  0.17028638234E+03  0.80419002446E+02 0. -1.
        -24    1    1    2    0    0  0.22162611507E+02  0.26186415975E+02  0.66732954089E+02  0.10998823958E+03  0.80419002446E+02 0. -1.
<mgrwt>
<rscale>  0 0.87430702E+02</rscale>
<asrwt>0</asrwt>
<pdfrwt beam="1">  1        1 0.37933487E-01 0.87430713E+02</pdfrwt>
<pdfrwt beam="2">  1       -1 0.51856843E-02 0.87430713E+02</pdfrwt>
<totfact> 0.16755802E+04</totfact>
</mgrwt>
</event>
<event>
 4    1  0.6602701E-002  0.9776863E+02  0.7546771E-02  0.1285059E+00
          1   -1    0    0  501    0  0.00000000000E+00  0.00000000000E+00  0.44267167739E+03  0.44267167739E+03  0.00000000000E+00 0. -1.
         -1   -1    0    0    0  501 -0.00000000000E+00 -0.00000000000E+00 -0.25968536167E+02  0.25968536167E+02  0.00000000000E+00 0.  1.
         24    1    1    2    0    0  0.29231536836E+02  0.47297006927E+02  0.11217025921E+03  0.14879809345E+03  0.80419002446E+02 0. -1.
        -24    1    1    2    0    0 -0.29231536836E+02 -0.47297006927E+02  0.30453288202E+03  0.31984212010E+03  0.80419002446E+02 0.  1.
<mgrwt>
<rscale>  0 0.97768633E+02</rscale>
<asrwt>0</asrwt>
<pdfrwt beam="1">  1        1 0.68103329E-01 0.97768633E+02</pdfrwt>
<pdfrwt beam="2">  1       -1 0.39951597E-02 0.97768633E+02</pdfrwt>
<totfact> 0.12057983E+04</totfact>
</mgrwt>
</event>
<event>
 4    1  0.6602701E-002  0.9005977E+02  0.7546771E-02  0.1302707E+00
         -2   -1    0    0    0  501 -0.00000000000E+00  0.00000000000E+00  0.52030048819E+02  0.52030048819E+02  0.00000000000E+00 0.  1.
          2   -1    0    0  501    0  0.00000000000E+00 -0.00000000000E+00 -0.19845330607E+03  0.19845330607E+03  0.00000000000E+00 0. -1.
         24    1    1    2    0    0 -0.25290826582E+02 -0.31684695848E+02 -0.13121553439E+03  0.15914860439E+03  0.80419002446E+02 0. -1.
        -24    1    1    2    0    0  0.25290826582E+02  0.31684695848E+02 -0.15207722866E+02  0.91334750502E+02  0.80419002446E+02 0.  1.
<mgrwt>
<rscale>  0 0.90059768E+02</rscale>
<asrwt>0</asrwt>
<pdfrwt beam="1">  1        2 0.30531278E-01 0.90059768E+02</pdfrwt>
<pdfrwt beam="2">  1       -2 0.80046228E-02 0.90059768E+02</pdfrwt>
<totfact> 0.14625698E+04</totfact>
</mgrwt>
</event>
<event>
 4    1  0.6602701E-002  0.8440209E+02  0.7546771E-02  0.1317004E+00
          3   -1    0    0  501    0  0.00000000000E+00  0.00000000000E+00  0.10250573261E+03  0.10250573261E+03  0.00000000000E+00 0. -1.
         -3   -1    0    0    0  501 -0.00000000000E+00 -0.00000000000E+00 -0.83500111733E+02  0.83500111733E+02  0.00000000000E+00 0.  1.
         24    1    1    2    0    0 -0.18315199402E+02 -0.17917889342E+02 -0.28584881363E+02  0.89111215257E+02  0.80419002446E+02 0.  1.
        -24    1    1    2    0    0  0.18315199402E+02  0.17917889342E+02  0.47590502237E+02  0.96894629083E+02  0.80419002446E+02 0. -1.
<mgrwt>
<rscale>  0 0.84402093E+02</rscale>
<asrwt>0</asrwt>
<pdfrwt beam="1">  1        3 0.15770113E-01 0.84402093E+02</pdfrwt>
<pdfrwt beam="2">  1       -3 0.12846171E-01 0.84402093E+02</pdfrwt>
<totfact> 0.34103931E+03</totfact>
</mgrwt>
</event>
<event>
 4    1  0.6602701E-002  0.1696927E+03  0.7546771E-02  0.1178169E+00
         -1   -1    0    0    0  501 -0.00000000000E+00  0.00000000000E+00  0.50068004143E+03  0.50068004143E+03  0.00000000000E+00 0.  1.
          1   -1    0    0  501    0  0.00000000000E+00 -0.00000000000E+00 -0.63424177723E+02  0.63424177723E+02  0.00000000000E+00 0. -1.
         24    1    1    2    0    0 -0.14240001518E+03  0.45284040974E+02  0.30473483167E+03  0.34879641953E+03  0.80419002446E+02 0.  1.
        -24    1    1    2    0    0  0.14240001518E+03 -0.45284040974E+02  0.13252103204E+03  0.21530779962E+03  0.80419002446E+02 0. -1.
<mgrwt>
<rscale>  0 0.16969274E+03</rscale>
<asrwt>0</asrwt>
<pdfrwt beam="1">  1        1 0.97575661E-02 0.16969274E+03</pdfrwt>
<pdfrwt beam="2">  1       -1 0.77027696E-01 0.16969274E+03</pdfrwt>
<totfact> 0.11572328E+03</totfact>
</mgrwt>
</event>
<event>
 4    1  0.6602701E-002  0.8483614E+02  0.7546771E-02  0.1315862E+00
         -2   -1    0    0    0  501 -0.00000000000E+00  0.00000000000E+00  0.14331237946E+03  0.14331237946E+03  0.00000000000E+00 0.  1.
          2   -1    0    0  501    0  0.00000000000E+00 -0.00000000000E+00 -0.54713828174E+02  0.54713828174E+02  0.00000000000E+00 0. -1.
         24    1    1    2    0    0  0.20871482176E+02 -0.17156104805E+02  0.72674935062E+02  0.11170860683E+03  0.80419002446E+02 0.  1.
        -24    1    1    2    0    0 -0.20871482176E+02  0.17156104805E+02  0.15923616228E+02  0.86317600803E+02  0.80419002446E+02 0. -1.
<mgrwt>
<rscale>  0 0.84836127E+02</rscale>
<asrwt>0</asrwt>
<pdfrwt beam="1">  1        2 0.84175121E-02 0.84836138E+02</pdfrwt>
<pdfrwt beam="2">  1       -2 0.22048058E-01 0.84836138E+02</pdfrwt>
<totfact> 0.12580375E+04</totfact>
</mgrwt>
</event>
<event>
 4    1  0.6602701E-002  0.8926862E+02  0.7546771E-02  0.1304633E+00
         -2   -1    0    0    0  501 -0.00000000000E+00  0.00000000000E+00  0.41348887405E+01  0.41348887405E+01  0.00000000000E+00 0.  1.
          2   -1    0    0  501    0  0.00000000000E+00 -0.00000000000E+00 -0.40207764260E+04  0.40207764260E+04  0.00000000000E+00 0. -1.
         24    1    1    2    0    0  0.16432711838E+02 -0.35094669927E+02 -0.34604743492E+04  0.34616255730E+04  0.80419002446E+02 0. -1.
        -24    1    1    2    0    0 -0.16432711838E+02  0.35094669927E+02 -0.55616718802E+03  0.56328574175E+03  0.80419002446E+02 0.  1.
<mgrwt>
<rscale>  0 0.89268616E+02</rscale>
<asrwt>0</asrwt>
<pdfrwt beam="1">  1        2 0.61858104E+00 0.89268616E+02</pdfrwt>
<pdfrwt beam="2">  1       -2 0.63613667E-03 0.89268616E+02</pdfrwt>
<totfact> 0.18663970E+03</totfact>
</mgrwt>
</event>
<event>
 4    1  0.6602701E-002  0.8189204E+02  0.7546771E-02  0.1323766E+00
         -1   -1    0    0    0  501 -0.00000000000E+00  0.00000000000E+00  0.55011226497E+01  0.55011226497E+01  0.00000000000E+00 0.  1.
          1   -1    0    0  501    0  0.00000000000E+00 -0.00000000000E+00 -0.13742649091E+04  0.13742649091E+04  0.00000000000E+00 0. -1.
         24    1    1    2    0    0 -0.57114935963E+01  0.14368918643E+02 -0.91621017061E+03  0.91986269610E+03  0.80419002446E+02 0.  0.
        -24    1    1    2    0    0  0.57114935963E+01 -0.14368918643E+02 -0.45255361580E+03  0.45990333562E+03  0.80419002446E+02 0.  1.
<mgrwt>
<rscale>  0 0.81892030E+02</rscale>
<asrwt>0</asrwt>
<pdfrwt beam="1">  1        1 0.21142546E+00 0.81892040E+02</pdfrwt>
<pdfrwt beam="2">  1       -1 0.84632622E-03 0.81892040E+02</pdfrwt>
<totfact> 0.19240783E+04</totfact>
</mgrwt>
</event>
<event>
 4    1  0.6602701E-002  0.1171654E+03  0.7546771E-02  0.1247848E+00
         -1   -1    0    0    0  501 -0.00000000000E+00  0.00000000000E+00  0.25235096664E+02  0.25235096664E+02  0.00000000000E+00 0.  1.
          1   -1    0    0  501    0  0.00000000000E+00 -0.00000000000E+00 -0.54399411705E+03  0.54399411705E+03  0.00000000000E+00 0. -1.
         24    1    1    2    0    0 -0.68866887555E+02 -0.50178460358E+02 -0.25926849718E+03  0.28451343671E+03  0.80419002446E+02 0. -1.
        -24    1    1    2    0    0  0.68866887555E+02  0.50178460358E+02 -0.25949052321E+03  0.28471577700E+03  0.80419002446E+02 0.  1.
<mgrwt>
<rscale>  0 0.11716545E+03</rscale>
<asrwt>0</asrwt>
<pdfrwt beam="1">  1        1 0.83691389E-01 0.11716545E+03</pdfrwt>
<pdfrwt beam="2">  1       -1 0.38823232E-02 0.11716545E+03</pdfrwt>
<totfact> 0.97778386E+03</totfact>
</mgrwt>
</event>
<event>
 4    1  0.7324524E-002  0.8296170E+02  0.7546771E-02  0.1320851E+00
          1   -1    0    0  501    0  0.00000000000E+00  0.00000000000E+00  0.47081645862E+03  0.47081645862E+03  0.00000000000E+00 0. -1.
         -1   -1    0    0    0  501 -0.00000000000E+00 -0.00000000000E+00 -0.49235291014E+02  0.49235291014E+02  0.00000000000E+00 0.  1.
         24    1    1    2    0    0 -0.18353097309E+02 -0.88652198336E+01 -0.72420645472E+01  0.83277198301E+02  0.80419002446E+02 0.  1.
        -24    1    1    2    0    0  0.18353097309E+02  0.88652198336E+01  0.42882323215E+03  0.43677455133E+03  0.80419002446E+02 0.  0.
<mgrwt>
<rscale>  0 0.82961704E+02</rscale>
<asrwt>0</asrwt>
<pdfrwt beam="1">  1        1 0.72433298E-01 0.82961704E+02</pdfrwt>
<pdfrwt beam="2">  1       -1 0.75746605E-02 0.82961704E+02</pdfrwt>
<totfact> 0.43066047E+03</totfact>
</mgrwt>
</event>
<event>
 4    1  0.6602701E-002  0.8494577E+02  0.7546771E-02  0.1315574E+00
         -2   -1    0    0    0  501 -0.00000000000E+00  0.00000000000E+00  0.76188084962E+02  0.76188084962E+02  0.00000000000E+00 0.  1.
          2   -1    0    0  501    0  0.00000000000E+00 -0.00000000000E+00 -0.13754328589E+03  0.13754328589E+03  0.00000000000E+00 0. -1.
         24    1    1    2    0    0 -0.45246863615E+01  0.26983240686E+02 -0.90313610028E+02  0.12398520950E+03  0.80419002446E+02 0.  0.
        -24    1    1    2    0    0  0.45246863615E+01 -0.26983240686E+02  0.28958409102E+02  0.89746161348E+02  0.80419002446E+02 0.  0.
<mgrwt>
<rscale>  0 0.84945771E+02</rscale>
<asrwt>0</asrwt>
<pdfrwt beam="1">  1        2 0.21160505E-01 0.84945771E+02</pdfrwt>
<pdfrwt beam="2">  1       -2 0.11721244E-01 0.84945771E+02</pdfrwt>
<totfact> 0.11988648E+04</totfact>
</mgrwt>
</event>
<event>
 4    1  0.6602701E-002  0.1063343E+03  0.7546771E-02  0.1267513E+00
         -1   -1    0    0    0  501 -0.00000000000E+00  0.00000000000E+00  0.39402567236E+03  0.39402567236E+03  0.00000000000E+00 0.  1.
          1   -1    0    0  501    0  0.00000000000E+00 -0.00000000000E+00 -0.16271563258E+03  0.16271563258E+03  0.00000000000E+00 0. -1.
         24    1    1    2    0    0  0.83060585719E+01 -0.69070809681E+02  0.36828967606E+03  0.38333310424E+03  0.80419002446E+02 0.  1.
        -24    1    1    2    0    0 -0.83060585719E+01  0.69070809681E+02 -0.13697963629E+03  0.17340820070E+03  0.80419002446E+02 0. -1.
<mgrwt>
<rscale>  0 0.10633430E+03</rscale>
<asrwt>0</asrwt>
<pdfrwt beam="1">  1        1 0.25033174E-01 0.10633430E+03</pdfrwt>
<pdfrwt beam="2">  1       -1 0.60619334E-01 0.10633430E+03</pdfrwt>
<totfact> 0.54441463E+02</totfact>
</mgrwt>
</event>
<event>
 4    1  0.6602701E-002  0.9516664E+02  0.7546771E-02  0.1290801E+00
         -1   -1    0    0    0  501 -0.00000000000E+00  0.00000000000E+00  0.57096053412E+02  0.57096053412E+02  0.00000000000E+00 0.  1.
          1   -1    0    0  501    0  0.00000000000E+00 -0.00000000000E+00 -0.24082878698E+03  0.24082878698E+03  0.00000000000E+00 0. -1.
         24    1    1    2    0    0  0.48764005424E+02 -0.14544605481E+02 -0.48348847914E+01  0.95289379465E+02  0.80419002446E+02 0.  1.
        -24    1    1    2    0    0 -0.48764005424E+02  0.14544605481E+02 -0.17889784878E+03  0.20263546093E+03  0.80419002446E+02 0. -1.
<mgrwt>
<rscale>  0 0.95166642E+02</rscale>
<asrwt>0</asrwt>
<pdfrwt beam="1">  1        1 0.37050583E-01 0.95166642E+02</pdfrwt>
<pdfrwt beam="2">  1       -1 0.87840081E-02 0.95166642E+02</pdfrwt>
<totfact> 0.79615837E+03</totfact>
</mgrwt>
</event>
<event>
 4    1  0.6602701E-002  0.9597571E+02  0.7546771E-02  0.1288994E+00
         -1   -1    0    0    0  501 -0.00000000000E+00  0.00000000000E+00  0.39895298713E+02  0.39895298713E+02  0.00000000000E+00 0.  1.
          1   -1    0    0  501    0  0.00000000000E+00 -0.00000000000E+00 -0.36879294574E+03  0.36879294574E+03  0.00000000000E+00 0. -1.
         24    1    1    2    0    0 -0.38973889516E+02  0.35002245568E+02 -0.39491675488E+02  0.10378308940E+03  0.80419002446E+02 0.  1.
        -24    1    1    2    0    0  0.38973889516E+02 -0.35002245568E+02 -0.28940597154E+03  0.30490515505E+03  0.80419002446E+02 0. -1.
<mgrwt>
<rscale>  0 0.95975712E+02</rscale>
<asrwt>0</asrwt>
<pdfrwt beam="1">  1        1 0.56737377E-01 0.95975712E+02</pdfrwt>
<pdfrwt beam="2">  1       -1 0.61377382E-02 0.95975712E+02</pdfrwt>
<totfact> 0.80584875E+03</totfact>
</mgrwt>
</event>
<event>
 4    1  0.6602701E-002  0.9183408E+02  0.7546771E-02  0.1298470E+00
          1   -1    0    0  501    0  0.00000000000E+00  0.00000000000E+00  0.64097608408E+03  0.64097608408E+03  0.00000000000E+00 0. -1.
         -1   -1    0    0    0  501 -0.00000000000E+00 -0.00000000000E+00 -0.17787565717E+02  0.17787565717E+02  0.00000000000E+00 0.  1.
         24    1    1    2    0    0  0.44008657628E+02  0.54332860882E+01  0.14354155306E+03  0.17040444816E+03  0.80419002446E+02 0.  1.
        -24    1    1    2    0    0 -0.44008657628E+02 -0.54332860882E+01  0.47964696530E+03  0.48835920163E+03  0.80419002446E+02 0. -1.
<mgrwt>
<rscale>  0 0.91834081E+02</rscale>
<asrwt>0</asrwt>
<pdfrwt beam="1">  1        1 0.98611687E-01 0.91834081E+02</pdfrwt>
<pdfrwt beam="2">  1       -1 0.27365491E-02 0.91834081E+02</pdfrwt>
<totfact> 0.12778231E+04</totfact>
</mgrwt>
</event>
<event>
 4    1  0.6602701E-002  0.1059484E+03  0.7546771E-02  0.1268262E+00
         -1   -1    0    0    0  501 -0.00000000000E+00  0.00000000000E+00  0.42503290224E+01  0.42503290224E+01  0.00000000000E+00 0.  1.
          1   -1    0    0  501    0  0.00000000000E+00 -0.00000000000E+00 -0.26729941892E+04  0.26729941892E+04  0.00000000000E+00 0. -1.
         24    1    1    2    0    0 -0.56022010383E+02 -0.40241538872E+02 -0.11878900763E+04  0.11926055074E+04  0.80419002446E+02 0.  0.
        -24    1    1    2    0    0  0.56022010383E+02  0.40241538872E+02 -0.14808537840E+04  0.14846390108E+04  0.80419002446E+02 0.  1.
<mgrwt>
<rscale>  0 0.10594840E+03</rscale>
<asrwt>0</asrwt>
<pdfrwt beam="1">  1        1 0.41122999E+00 0.10594840E+03</pdfrwt>
<pdfrwt beam="2">  1       -1 0.65389659E-03 0.10594840E+03</pdfrwt>
<totfact> 0.41879151E+03</totfact>
</mgrwt>
</event>
<event>
 4    1  0.6602701E-002  0.9654504E+02  0.7546771E-02  0.1287734E+00
         -2   -1    0    0    0  501 -0.00000000000E+00  0.00000000000E+00  0.62330718243E+01  0.62330718243E+01  0.00000000000E+00 0.  1.
          2   -1    0    0  501    0  0.00000000000E+00 -0.00000000000E+00 -0.15377934418E+04  0.15377934418E+04  0.00000000000E+00 0. -1.
         24    1    1    2    0    0 -0.38729648883E+02 -0.36793248318E+02 -0.89395938481E+03  0.89915756487E+03  0.80419002446E+02 0. -1.
        -24    1    1    2    0    0  0.38729648883E+02  0.36793248318E+02 -0.63760098515E+03  0.64486894873E+03  0.80419002446E+02 0.  1.
<mgrwt>
<rscale>  0 0.96545040E+02</rscale>
<asrwt>0</asrwt>
<pdfrwt beam="1">  1        2 0.23658333E+00 0.96545040E+02</pdfrwt>
<pdfrwt beam="2">  1       -2 0.95893527E-03 0.96545040E+02</pdfrwt>
<totfact> 0.27621336E+04</totfact>
</mgrwt>
</event>
<event>
 4    1  0.6602701E-002  0.1354484E+03  0.7546771E-02  0.1219588E+00
          2   -1    0    0  501    0  0.00000000000E+00  0.00000000000E+00  0.67382102931E+03  0.67382102931E+03  0.00000000000E+00 0.  1.
         -2   -1    0    0    0  501 -0.00000000000E+00 -0.00000000000E+00 -0.29954647637E+02  0.29954647637E+02  0.00000000000E+00 0. -1.
         24    1    1    2    0    0 -0.90058018556E+02 -0.61389078814E+02  0.42811443095E+03  0.44903034156E+03  0.80419002446E+02 0.  0.
        -24    1    1    2    0    0  0.90058018556E+02  0.61389078814E+02  0.21575195073E+03  0.25474533538E+03  0.80419002446E+02 0.  0.
<mgrwt>
<rscale>  0 0.13544845E+03</rscale>
<asrwt>0</asrwt>
<pdfrwt beam="1">  1        2 0.10366476E+00 0.13544845E+03</pdfrwt>
<pdfrwt beam="2">  1       -2 0.46084078E-02 0.13544845E+03</pdfrwt>
<totfact> 0.93328300E+03</totfact>
</mgrwt>
</event>
<event>
 4    1  0.6602701E-002  0.2264309E+03  0.7546771E-02  0.1129177E+00
         -3   -1    0    0    0  501 -0.00000000000E+00  0.00000000000E+00  0.17426259616E+03  0.17426259616E+03  0.00000000000E+00 0.  1.
          3   -1    0    0  501    0  0.00000000000E+00 -0.00000000000E+00 -0.33340994563E+03  0.33340994563E+03  0.00000000000E+00 0. -1.
         24    1    1    2    0    0 -0.21093885452E+03 -0.17565100952E+02  0.74566403135E+01  0.22655363726E+03  0.80419002446E+02 0. -1.
        -24    1    1    2    0    0  0.21093885452E+03  0.17565100952E+02 -0.16660398978E+03  0.28111890453E+03  0.80419002446E+02 0.  1.
<mgrwt>
<rscale>  0 0.22643089E+03</rscale>
<asrwt>0</asrwt>
<pdfrwt beam="1">  1        3 0.51293837E-01 0.22643089E+03</pdfrwt>
<pdfrwt beam="2">  1       -3 0.26809630E-01 0.22643089E+03</pdfrwt>
<totfact> 0.12397159E+02</totfact>
</mgrwt>
</event>
<event>
 4    1  0.6602701E-002  0.1143545E+03  0.7546771E-02  0.1252712E+00
         -1   -1    0    0    0  501 -0.00000000000E+00  0.00000000000E+00  0.24856012793E+02  0.24856012793E+02  0.00000000000E+00 0.  1.
          1   -1    0    0  501    0  0.00000000000E+00 -0.00000000000E+00 -0.60859247888E+03  0.60859247888E+03  0.00000000000E+00 0. -1.
         24    1    1    2    0    0  0.75786240923E+02 -0.29430789728E+02 -0.40846989030E+03  0.42417519132E+03  0.80419002446E+02 0. -1.
        -24    1    1    2    0    0 -0.75786240923E+02  0.29430789728E+02 -0.17526657578E+03  0.20927330035E+03  0.80419002446E+02 0.  1.
<mgrwt>
<rscale>  0 0.11435447E+03</rscale>
<asrwt>0</asrwt>
<pdfrwt beam="1">  1        1 0.93629609E-01 0.11435448E+03</pdfrwt>
<pdfrwt beam="2">  1       -1 0.38240021E-02 0.11435448E+03</pdfrwt>
<totfact> 0.85879561E+03</totfact>
</mgrwt>
</event>
<event>
 4    1  0.6602701E-002  0.9036118E+02  0.7546771E-02  0.1301979E+00
          2   -1    0    0  501    0  0.00000000000E+00  0.00000000000E+00  0.82522922118E+03  0.82522922118E+03  0.00000000000E+00 0. -1.
         -2   -1    0    0    0  501 -0.00000000000E+00 -0.00000000000E+00 -0.29819295307E+02  0.29819295307E+02  0.00000000000E+00 0.  1.
         24    1    1    2    0    0  0.12301871903E+02  0.39326727181E+02  0.74717517060E+03  0.75261934538E+03  0.80419002446E+02 0. -1.
        -24    1    1    2    0    0 -0.12301871903E+02 -0.39326727181E+02  0.48234755272E+02  0.10242917111E+03  0.80419002446E+02 0.  1.
<mgrwt>
<rscale>  0 0.90361183E+02</rscale>
<asrwt>0</asrwt>
<pdfrwt beam="1">  1        2 0.12695832E+00 0.90361183E+02</pdfrwt>
<pdfrwt beam="2">  1       -2 0.45875845E-02 0.90361183E+02</pdfrwt>
<totfact> 0.71812812E+03</totfact>
</mgrwt>
</event>
<event>
 4    1  0.6602701E-002  0.1416196E+03  0.7546771E-02  0.1211166E+00
          2   -1    0    0  501    0  0.00000000000E+00  0.00000000000E+00  0.31591916730E+03  0.31591916730E+03  0.00000000000E+00 0. -1.
         -2   -1    0    0    0  501 -0.00000000000E+00 -0.00000000000E+00 -0.71123958124E+02  0.71123958124E+02  0.00000000000E+00 0.  1.
         24    1    1    2    0    0  0.30427511794E+02 -0.11253026597E+03  0.18581962910E+03  0.23363442543E+03  0.80419002446E+02 0. -1.
        -24    1    1    2    0    0 -0.30427511794E+02  0.11253026597E+03  0.58975580079E+02  0.15340869999E+03  0.80419002446E+02 0.  1.
<mgrwt>
<rscale>  0 0.14161960E+03</rscale>
<asrwt>0</asrwt>
<pdfrwt beam="1">  1        2 0.48602948E-01 0.14161960E+03</pdfrwt>
<pdfrwt beam="2">  1       -2 0.10942148E-01 0.14161960E+03</pdfrwt>
<totfact> 0.56924427E+03</totfact>
</mgrwt>
</event>
<event>
 4    1  0.6602701E-002  0.9401392E+02  0.7546771E-02  0.1293413E+00
          2   -1    0    0  501    0  0.00000000000E+00  0.00000000000E+00  0.39510511715E+03  0.39510511715E+03  0.00000000000E+00 0. -1.
         -2   -1    0    0    0  501 -0.00000000000E+00 -0.00000000000E+00 -0.22518874661E+02  0.22518874661E+02  0.00000000000E+00 0.  1.
         24    1    1    2    0    0  0.44311602249E+01 -0.48495005514E+02  0.20325471707E+03  0.22394440540E+03  0.80419002446E+02 0. -1.
        -24    1    1    2    0    0 -0.44311602249E+01  0.48495005514E+02  0.16933152542E+03  0.19367958642E+03  0.80419002446E+02 0.  1.
<mgrwt>
<rscale>  0 0.94013918E+02</rscale>
<asrwt>0</asrwt>
<pdfrwt beam="1">  1        2 0.60785398E-01 0.94013918E+02</pdfrwt>
<pdfrwt beam="2">  1       -2 0.34644425E-02 0.94013918E+02</pdfrwt>
<totfact> 0.24843617E+04</totfact>
</mgrwt>
</event>
<event>
 4    1  0.6602701E-002  0.1121202E+03  0.7546771E-02  0.1256693E+00
         -2   -1    0    0    0  501 -0.00000000000E+00  0.00000000000E+00  0.48462194765E+02  0.48462194765E+02  0.00000000000E+00 0.  1.
          2   -1    0    0  501    0  0.00000000000E+00 -0.00000000000E+00 -0.82315852215E+03  0.82315852215E+03  0.00000000000E+00 0. -1.
         24    1    1    2    0    0 -0.64778856568E+02  0.43673941720E+02 -0.74801289197E+03  0.75636910034E+03  0.80419002446E+02 0. -1.
        -24    1    1    2    0    0  0.64778856568E+02 -0.43673941720E+02 -0.26683435418E+02  0.11525161658E+03  0.80419002446E+02 0.  1.
<mgrwt>
<rscale>  0 0.11212016E+03</rscale>
<asrwt>0</asrwt>
<pdfrwt beam="1">  1        2 0.12663977E+00 0.11212016E+03</pdfrwt>
<pdfrwt beam="2">  1       -2 0.74557221E-02 0.11212016E+03</pdfrwt>
<totfact> 0.35088932E+03</totfact>
</mgrwt>
</event>
<event>
 4    1  0.6602701E-002  0.8162392E+02  0.7546771E-02  0.1324505E+00
         -2   -1    0    0    0  501 -0.00000000000E+00  0.00000000000E+00  0.59969550767E+01  0.59969550767E+01  0.00000000000E+00 0.  1.
          2   -1    0    0  501    0  0.00000000000E+00 -0.00000000000E+00 -0.17539669637E+04  0.17539669637E+04  0.00000000000E+00 0. -1.
         24    1    1    2    0    0  0.10847673498E+02 -0.88077883366E+01 -0.14067871345E+04  0.14091531169E+04  0.80419002446E+02 0. -1.
        -24    1    1    2    0    0 -0.10847673498E+02  0.88077883366E+01 -0.34118287415E+03  0.35081080189E+03  0.80419002446E+02 0.  1.
<mgrwt>
<rscale>  0 0.81623925E+02</rscale>
<asrwt>0</asrwt>
<pdfrwt beam="1">  1        2 0.26984105E+00 0.81623925E+02</pdfrwt>
<pdfrwt beam="2">  1       -2 0.92260854E-03 0.81623925E+02</pdfrwt>
<totfact> 0.22415156E+04</totfact>
</mgrwt>
</event>
<event>
 4    1  0.6602701E-002  0.1326038E+03  0.7546771E-02  0.1223643E+00
         -2   -1    0    0    0  501 -0.00000000000E+00  0.00000000000E+00  0.34702687368E+03  0.34702687368E+03  0.00000000000E+00 0.  1.
          2   -1    0    0  501    0  0.00000000000E+00 -0.00000000000E+00 -0.14093202051E+03  0.14093202051E+03  0.00000000000E+00 0. -1.
         24    1    1    2    0    0  0.46988777632E+02  0.94385381940E+02 -0.92207299336E+02  0.16151144713E+03  0.80419002446E+02 0. -1.
        -24    1    1    2    0    0 -0.46988777632E+02 -0.94385381940E+02  0.29830215251E+03  0.32644744706E+03  0.80419002446E+02 0.  1.
<mgrwt>
<rscale>  0 0.13260378E+03</rscale>
<asrwt>0</asrwt>
<pdfrwt beam="1">  1        2 0.21681849E-01 0.13260378E+03</pdfrwt>
<pdfrwt beam="2">  1       -2 0.53388750E-01 0.13260378E+03</pdfrwt>
<totfact> 0.83893703E+02</totfact>
</mgrwt>
</event>
<event>
 4    1  0.6602701E-002  0.9828741E+02  0.7546771E-02  0.1283939E+00
         -2   -1    0    0    0  501 -0.00000000000E+00  0.00000000000E+00  0.12035385216E+02  0.12035385216E+02  0.00000000000E+00 0.  1.
          2   -1    0    0  501    0  0.00000000000E+00 -0.00000000000E+00 -0.12696706343E+04  0.12696706343E+04  0.00000000000E+00 0. -1.
         24    1    1    2    0    0 -0.50737789412E+02 -0.24877228118E+02 -0.10174801487E+04  0.10222163512E+04  0.80419002446E+02 0. -1.
        -24    1    1    2    0    0  0.50737789412E+02  0.24877228118E+02 -0.24015510031E+03  0.25948966822E+03  0.80419002446E+02 0.  1.
<mgrwt>
<rscale>  0 0.98287414E+02</rscale>
<asrwt>0</asrwt>
<pdfrwt beam="1">  1        2 0.19533391E+00 0.98287414E+02</pdfrwt>
<pdfrwt beam="2">  1       -2 0.18515981E-02 0.98287414E+02</pdfrwt>
<totfact> 0.14925758E+04</totfact>
</mgrwt>
</event>
<event>
 4    1  0.6602701E-002  0.1293917E+03  0.7546771E-02  0.1228361E+00
          2   -1    0    0  501    0  0.00000000000E+00  0.00000000000E+00  0.25564346843E+03  0.25564346843E+03  0.00000000000E+00 0. -1.
         -2   -1    0    0    0  501 -0.00000000000E+00 -0.00000000000E+00 -0.14665266716E+03  0.14665266716E+03  0.00000000000E+00 0.  1.
         24    1    1    2    0    0 -0.10127506027E+03  0.42832036348E+01  0.20413546901E+03  0.24168882748E+03  0.80419002446E+02 0. -1.
        -24    1    1    2    0    0  0.10127506027E+03 -0.42832036348E+01 -0.95144667743E+02  0.16060730811E+03  0.80419002446E+02 0.  1.
<mgrwt>
<rscale>  0 0.12939165E+03</rscale>
<asrwt>0</asrwt>
<pdfrwt beam="1">  1        2 0.39329764E-01 0.12939165E+03</pdfrwt>
<pdfrwt beam="2">  1       -2 0.22561949E-01 0.12939165E+03</pdfrwt>
<totfact> 0.21564075E+03</totfact>
</mgrwt>
</event>
<event>
 4    1  0.6602701E-002  0.1001280E+03  0.7546771E-02  0.1280027E+00
         -2   -1    0    0    0  501 -0.00000000000E+00  0.00000000000E+00  0.44482437159E+01  0.44482437159E+01  0.00000000000E+00 0.  1.
          2   -1    0    0  501    0  0.00000000000E+00 -0.00000000000E+00 -0.30838816508E+04  0.30838816508E+04  0.00000000000E+00 0. -1.
         24    1    1    2    0    0  0.23340283610E+02 -0.54896467885E+02 -0.73859939997E+03  0.74535540557E+03  0.80419002446E+02 0.  0.
        -24    1    1    2    0    0 -0.23340283610E+02  0.54896467885E+02 -0.23408340071E+04  0.23429744889E+04  0.80419002446E+02 0.  0.
<mgrwt>
<rscale>  0 0.10012797E+03</rscale>
<asrwt>0</asrwt>
<pdfrwt beam="1">  1        2 0.47444407E+00 0.10012798E+03</pdfrwt>
<pdfrwt beam="2">  1       -2 0.68434412E-03 0.10012798E+03</pdfrwt>
<totfact> 0.68706038E+03</totfact>
</mgrwt>
</event>
<event>
 4    1  0.6602701E-002  0.9001054E+02  0.7546771E-02  0.1302826E+00
         -2   -1    0    0    0  501 -0.00000000000E+00  0.00000000000E+00  0.74440273092E+01  0.74440273092E+01  0.00000000000E+00 0.  1.
          2   -1    0    0  501    0  0.00000000000E+00 -0.00000000000E+00 -0.12068140706E+04  0.12068140706E+04  0.00000000000E+00 0. -1.
         24    1    1    2    0    0  0.38831914391E+02  0.11258763890E+02 -0.40948598713E+03  0.41926205046E+03  0.80419002446E+02 0. -1.
        -24    1    1    2    0    0 -0.38831914391E+02 -0.11258763890E+02 -0.78988405612E+03  0.79499604742E+03  0.80419002446E+02 0.  1.
<mgrwt>
<rscale>  0 0.90010529E+02</rscale>
<asrwt>0</asrwt>
<pdfrwt beam="1">  1        2 0.18566368E+00 0.90010540E+02</pdfrwt>
<pdfrwt beam="2">  1       -2 0.11452351E-02 0.90010540E+02</pdfrwt>
<totfact> 0.31805197E+04</totfact>
</mgrwt>
</event>
<event>
 4    1  0.6602701E-002  0.8218830E+02  0.7546771E-02  0.1322954E+00
          1   -1    0    0  501    0  0.00000000000E+00  0.00000000000E+00  0.17946132304E+04  0.17946132304E+04  0.00000000000E+00 0. -1.
         -1   -1    0    0    0  501 -0.00000000000E+00 -0.00000000000E+00 -0.45158794079E+01  0.45158794079E+01  0.00000000000E+00 0.  1.
         24    1    1    2    0    0  0.47794304214E+01  0.16274339577E+02  0.12621086739E+04  0.12647818854E+04  0.80419002446E+02 0. -1.
        -24    1    1    2    0    0 -0.47794304214E+01 -0.16274339577E+02  0.52798867714E+03  0.53434722441E+03  0.80419002446E+02 0.  0.
<mgrwt>
<rscale>  0 0.82188288E+02</rscale>
<asrwt>0</asrwt>
<pdfrwt beam="1">  1        1 0.27609377E+00 0.82188299E+02</pdfrwt>
<pdfrwt beam="2">  1       -1 0.69475211E-03 0.82188299E+02</pdfrwt>
<totfact> 0.13764338E+04</totfact>
</mgrwt>
</event>
<event>
 4    1  0.7719218E-002  0.1032809E+03  0.7546771E-02  0.1273544E+00
          1   -1    0    0  501    0  0.00000000000E+00  0.00000000000E+00  0.23216687678E+04  0.23216687678E+04  0.00000000000E+00 0. -1.
         -1   -1    0    0    0  501 -0.00000000000E+00 -0.00000000000E+00 -0.96753763377E+01  0.96753763377E+01  0.00000000000E+00 0.  1.
         24    1    1    2    0    0 -0.63374904143E+02 -0.13540447702E+02  0.31127976283E+03  0.32796650576E+03  0.80419002446E+02 0.  1.
        -24    1    1    2    0    0  0.63374904143E+02  0.13540447702E+02  0.20007136286E+04  0.20033776384E+04  0.80419002446E+02 0. -1.
<mgrwt>
<rscale>  0 0.10328087E+03</rscale>
<asrwt>0</asrwt>
<pdfrwt beam="1">  1        1 0.35717937E+00 0.10328087E+03</pdfrwt>
<pdfrwt beam="2">  1       -1 0.14885213E-02 0.10328087E+03</pdfrwt>
<totfact> 0.22048240E+03</totfact>
</mgrwt>
</event>
<event>
 4    1  0.6602701E-002  0.1512037E+03  0.7546771E-02  0.1199002E+00
          2   -1    0    0  501    0  0.00000000000E+00  0.00000000000E+00  0.56227734641E+03  0.56227734641E+03  0.00000000000E+00 0. -1.
         -2   -1    0    0    0  501 -0.00000000000E+00 -0.00000000000E+00 -0.42448717564E+02  0.42448717564E+02  0.00000000000E+00 0.  1.
         24    1    1    2    0    0  0.12789116059E+03 -0.62609969293E+01  0.32197088957E+03  0.35570749040E+03  0.80419002446E+02 0. -1.
        -24    1    1    2    0    0 -0.12789116059E+03  0.62609969293E+01  0.19785773928E+03  0.24901857358E+03  0.80419002446E+02 0.  1.
<mgrwt>
<rscale>  0 0.15120372E+03</rscale>
<asrwt>0</asrwt>
<pdfrwt beam="1">  1        2 0.86504202E-01 0.15120372E+03</pdfrwt>
<pdfrwt beam="2">  1       -2 0.65305723E-02 0.15120372E+03</pdfrwt>
<totfact> 0.68277948E+03</totfact>
</mgrwt>
</event>
<event>
 4    1  0.6602701E-002  0.1830437E+03  0.7546771E-02  0.1164889E+00
          2   -1    0    0  501    0  0.00000000000E+00  0.00000000000E+00  0.56577643118E+03  0.56577643118E+03  0.00000000000E+00 0. -1.
         -2   -1    0    0    0  501 -0.00000000000E+00 -0.00000000000E+00 -0.65923224724E+02  0.65923224724E+02  0.00000000000E+00 0.  1.
         24    1    1    2    0    0  0.14447829605E+03 -0.78509938170E+02  0.35064738964E+03  0.39554847521E+03  0.80419002446E+02 0.  0.
        -24    1    1    2    0    0 -0.14447829605E+03  0.78509938170E+02  0.14920581681E+03  0.23615118070E+03  0.80419002446E+02 0. -1.
<mgrwt>
<rscale>  0 0.18304372E+03</rscale>
<asrwt>0</asrwt>
<pdfrwt beam="1">  1        2 0.87042525E-01 0.18304372E+03</pdfrwt>
<pdfrwt beam="2">  1       -2 0.10142035E-01 0.18304372E+03</pdfrwt>
<totfact> 0.34494066E+03</totfact>
</mgrwt>
</event>
<event>
 4    1  0.6602701E-002  0.1007839E+03  0.7546771E-02  0.1278656E+00
          1   -1    0    0  501    0  0.00000000000E+00  0.00000000000E+00  0.17771701892E+03  0.17771701892E+03  0.00000000000E+00 0. -1.
         -1   -1    0    0    0  501 -0.00000000000E+00 -0.00000000000E+00 -0.90211021202E+02  0.90211021202E+02  0.00000000000E+00 0.  1.
         24    1    1    2    0    0  0.10482385955E+02  0.59835642853E+02 -0.37340164334E+02  0.10747878115E+03  0.80419002446E+02 0.  1.
        -24    1    1    2    0    0 -0.10482385955E+02 -0.59835642853E+02  0.12484616205E+03  0.16044925897E+03  0.80419002446E+02 0. -1.
<mgrwt>
<rscale>  0 0.10078393E+03</rscale>
<asrwt>0</asrwt>
<pdfrwt beam="1">  1        1 0.27341080E-01 0.10078393E+03</pdfrwt>
<pdfrwt beam="2">  1       -1 0.13878619E-01 0.10078393E+03</pdfrwt>
<totfact> 0.57902313E+03</totfact>
</mgrwt>
</event>
<event>
 4    1  0.6602701E-002  0.1036269E+03  0.7546771E-02  0.1272849E+00
          2   -1    0    0  501    0  0.00000000000E+00  0.00000000000E+00  0.33024018484E+03  0.33024018484E+03  0.00000000000E+00 0. -1.
         -2   -1    0    0    0  501 -0.00000000000E+00 -0.00000000000E+00 -0.44438005160E+02  0.44438005160E+02  0.00000000000E+00 0.  1.
         24    1    1    2    0    0 -0.57894608781E+02 -0.30323876184E+02  0.23992996826E+03  0.26135211653E+03  0.80419002446E+02 0. -1.
        -24    1    1    2    0    0  0.57894608781E+02  0.30323876184E+02  0.45872211420E+02  0.11332607347E+03  0.80419002446E+02 0.  1.
<mgrwt>
<rscale>  0 0.10362692E+03</rscale>
<asrwt>0</asrwt>
<pdfrwt beam="1">  1        2 0.50806181E-01 0.10362692E+03</pdfrwt>
<pdfrwt beam="2">  1       -2 0.68366164E-02 0.10362692E+03</pdfrwt>
<totfact> 0.11011195E+04</totfact>
</mgrwt>
</event>
<event>
 4    1  0.6602701E-002  0.8714030E+02  0.7546771E-02  0.1309928E+00
         -3   -1    0    0    0  501 -0.00000000000E+00  0.00000000000E+00  0.82380612442E+01  0.82380612442E+01  0.00000000000E+00 0.  1.
          3   -1    0    0  501    0  0.00000000000E+00 -0.00000000000E+00 -0.92538952614E+03  0.92538952614E+03  0.00000000000E+00 0. -1.
         24    1    1    2    0    0  0.32293412453E+02  0.91294997225E+01 -0.48785351430E+03  0.49557489810E+03  0.80419002446E+02 0.  1.
        -24    1    1    2    0    0 -0.32293412453E+02 -0.91294997225E+01 -0.42929795059E+03  0.43805268929E+03  0.80419002446E+02 0.  0.
<mgrwt>
<rscale>  0 0.87140290E+02</rscale>
<asrwt>0</asrwt>
<pdfrwt beam="1">  1        3 0.14236768E+00 0.87140301E+02</pdfrwt>
<pdfrwt beam="2">  1       -3 0.12673935E-02 0.87140301E+02</pdfrwt>
<totfact> 0.15904875E+03</totfact>
</mgrwt>
</event>
<event>
 4    1  0.6602701E-002  0.8404725E+02  0.7546771E-02  0.1317943E+00
          2   -1    0    0  501    0  0.00000000000E+00  0.00000000000E+00  0.28338951009E+04  0.28338951009E+04  0.00000000000E+00 0. -1.
         -2   -1    0    0    0  501 -0.00000000000E+00 -0.00000000000E+00 -0.35656376105E+01  0.35656376105E+01  0.00000000000E+00 0.  1.
         24    1    1    2    0    0 -0.13206133560E+02 -0.20550477751E+02  0.21934277129E+04  0.21950373737E+04  0.80419002446E+02 0.  0.
        -24    1    1    2    0    0  0.13206133560E+02  0.20550477751E+02  0.63690175031E+03  0.64242336477E+03  0.80419002446E+02 0.  1.
<mgrwt>
<rscale>  0 0.84047249E+02</rscale>
<asrwt>0</asrwt>
<pdfrwt beam="1">  1        2 0.43598206E+00 0.84047249E+02</pdfrwt>
<pdfrwt beam="2">  1       -2 0.54856190E-03 0.84047249E+02</pdfrwt>
<totfact> 0.12936630E+04</totfact>
</mgrwt>
</event>
<event>
 4    1  0.6602701E-002  0.8097882E+02  0.7546771E-02  0.1326296E+00
         -1   -1    0    0    0  501 -0.00000000000E+00  0.00000000000E+00  0.92264918385E+02  0.92264918385E+02  0.00000000000E+00 0.  1.
          1   -1    0    0  501    0  0.00000000000E+00 -0.00000000000E+00 -0.83823056015E+02  0.83823056015E+02  0.00000000000E+00 0. -1.
         24    1    1    2    0    0 -0.24135524546E+01 -0.91939501628E+01  0.38558482471E+02  0.89690169360E+02  0.80419002446E+02 0.  0.
        -24    1    1    2    0    0  0.24135524546E+01  0.91939501628E+01 -0.30116620100E+02  0.86397805040E+02  0.80419002446E+02 0. -1.
<mgrwt>
<rscale>  0 0.80978824E+02</rscale>
<asrwt>0</asrwt>
<pdfrwt beam="1">  1        1 0.12895855E-01 0.80978824E+02</pdfrwt>
<pdfrwt beam="2">  1       -1 0.14194603E-01 0.80978824E+02</pdfrwt>
<totfact> 0.14142243E+04</totfact>
</mgrwt>
</event>
<event>
 4    1  0.6602701E-002  0.8141474E+02  0.7546771E-02  0.1325084E+00
          1   -1    0    0  501    0  0.00000000000E+00  0.00000000000E+00  0.15422841305E+03  0.15422841305E+03  0.00000000000E+00 0. -1.
         -1   -1    0    0    0  501 -0.00000000000E+00 -0.00000000000E+00 -0.83571505395E+02  0.83571505395E+02  0.00000000000E+00 0.  1.
         24    1    1    2    0    0  0.93833989496E+01  0.85495591535E+01 -0.47538864813E+02  0.94277795687E+02  0.80419002446E+02 0.  0.
        -24    1    1    2    0    0 -0.93833989496E+01 -0.85495591535E+01  0.11819577247E+03  0.14352212276E+03  0.80419002446E+02 0. -1.
<mgrwt>
<rscale>  0 0.81414735E+02</rscale>
<asrwt>0</asrwt>
<pdfrwt beam="1">  1        1 0.23727448E-01 0.81414735E+02</pdfrwt>
<pdfrwt beam="2">  1       -1 0.12857155E-01 0.81414735E+02</pdfrwt>
<totfact> 0.76305605E+03</totfact>
</mgrwt>
</event>
<event>
 4    1  0.6602701E-002  0.8552046E+02  0.7546771E-02  0.1314077E+00
          1   -1    0    0  501    0  0.00000000000E+00  0.00000000000E+00  0.48102414746E+02  0.48102414746E+02  0.00000000000E+00 0. -1.
         -1   -1    0    0    0  501 -0.00000000000E+00 -0.00000000000E+00 -0.15355534467E+03  0.15355534467E+03  0.00000000000E+00 0.  1.
         24    1    1    2    0    0  0.28562630902E+02  0.55412101317E+01 -0.42727591894E+02  0.95600167140E+02  0.80419002446E+02 0.  1.
        -24    1    1    2    0    0 -0.28562630902E+02 -0.55412101317E+01 -0.62725338029E+02  0.10605759227E+03  0.80419002446E+02 0. -1.
<mgrwt>
<rscale>  0 0.85520446E+02</rscale>
<asrwt>0</asrwt>
<pdfrwt beam="1">  1        1 0.74003715E-02 0.85520457E+02</pdfrwt>
<pdfrwt beam="2">  1       -1 0.23623899E-01 0.85520457E+02</pdfrwt>
<totfact> 0.13194539E+04</totfact>
</mgrwt>
</event>
<event>
 4    1  0.7224324E-002  0.9019917E+02  0.7546771E-02  0.1302370E+00
          1   -1    0    0  501    0  0.00000000000E+00  0.00000000000E+00  0.20283110297E+04  0.20283110297E+04  0.00000000000E+00 0. -1.
         -1   -1    0    0    0  501 -0.00000000000E+00 -0.00000000000E+00 -0.42259941090E+01  0.42259941090E+01  0.00000000000E+00 0.  1.
         24    1    1    2    0    0 -0.29443096026E+02  0.28315680028E+02  0.78290779979E+03  0.78808661488E+03  0.80419002446E+02 0.  0.
        -24    1    1    2    0    0  0.29443096026E+02 -0.28315680028E+02  0.12411772358E+04  0.12444504089E+04  0.80419002446E+02 0. -1.
<mgrwt>
<rscale>  0 0.90199166E+02</rscale>
<asrwt>0</asrwt>
<pdfrwt beam="1">  1        1 0.31204707E+00 0.90199166E+02</pdfrwt>
<pdfrwt beam="2">  1       -1 0.65015456E-03 0.90199166E+02</pdfrwt>
<totfact> 0.10849025E+04</totfact>
</mgrwt>
</event>
<event>
 4    1  0.6602701E-002  0.9897104E+02  0.7546771E-02  0.1282475E+00
          1   -1    0    0  501    0  0.00000000000E+00  0.00000000000E+00  0.28283898952E+03  0.28283898952E+03  0.00000000000E+00 0. -1.
         -1   -1    0    0    0  501 -0.00000000000E+00 -0.00000000000E+00 -0.37926748873E+02  0.37926748873E+02  0.00000000000E+00 0.  1.
         24    1    1    2    0    0  0.32167038899E+02  0.47888740074E+02  0.75184594758E+02  0.12428993950E+03  0.80419002446E+02 0.  1.
        -24    1    1    2    0    0 -0.32167038899E+02 -0.47888740074E+02  0.16972764588E+03  0.19647579889E+03  0.80419002446E+02 0. -1.
<mgrwt>
<rscale>  0 0.98971035E+02</rscale>
<asrwt>0</asrwt>
<pdfrwt beam="1">  1        1 0.43513689E-01 0.98971035E+02</pdfrwt>
<pdfrwt beam="2">  1       -1 0.58348846E-02 0.98971035E+02</pdfrwt>
<totfact> 0.12060815E+04</totfact>
</mgrwt>
</event>
<event>
 4    1  0.6602701E-002  0.1471813E+03  0.7546771E-02  0.1203980E+00
         -2   -1    0    0    0  501 -0.00000000000E+00  0.00000000000E+00  0.98736941812E+02  0.98736941812E+02  0.00000000000E+00 0.  1.
          2   -1    0    0  501    0  0.00000000000E+00 -0.00000000000E+00 -0.93818832394E+03  0.93818832394E+03  0.00000000000E+00 0. -1.
         24    1    1    2    0    0 -0.11217154130E+03 -0.51114327206E+02 -0.87353626209E+03  0.88584871522E+03  0.80419002446E+02 0. -1.
        -24    1    1    2    0    0  0.11217154130E+03  0.51114327206E+02  0.34084879960E+02  0.15107655053E+03  0.80419002446E+02 0.  1.
<mgrwt>
<rscale>  0 0.14718133E+03</rscale>
<asrwt>0</asrwt>
<pdfrwt beam="1">  1        2 0.14433666E+00 0.14718133E+03</pdfrwt>
<pdfrwt beam="2">  1       -2 0.15190299E-01 0.14718133E+03</pdfrwt>
<totfact> 0.96748695E+02</totfact>
</mgrwt>
</event>
<event>
 4    1  0.6602701E-002  0.9105202E+02  0.7546771E-02  0.1300324E+00
         -1   -1    0    0    0  501 -0.00000000000E+00  0.00000000000E+00  0.25078398656E+03  0.25078398656E+03  0.00000000000E+00 0.  1.
          1   -1    0    0  501    0  0.00000000000E+00 -0.00000000000E+00 -0.40115938297E+02  0.40115938297E+02  0.00000000000E+00 0. -1.
         24    1    1    2    0    0  0.44522695195E+01  0.42466833758E+02  0.16634212260E+03  0.18963167557E+03  0.80419002446E+02 0.  1.
        -24    1    1    2    0    0 -0.44522695195E+01 -0.42466833758E+02  0.44325925659E+02  0.10126824929E+03  0.80419002446E+02 0. -1.
<mgrwt>
<rscale>  0 0.91052022E+02</rscale>
<asrwt>0</asrwt>
<pdfrwt beam="1">  1        1 0.61716829E-02 0.91052022E+02</pdfrwt>
<pdfrwt beam="2">  1       -1 0.38582151E-01 0.91052022E+02</pdfrwt>
<totfact> 0.74787823E+03</totfact>
</mgrwt>
</event>
<event>
 4    1  0.6602701E-002  0.8758398E+02  0.7546771E-02  0.1308810E+00
         -1   -1    0    0    0  501 -0.00000000000E+00  0.00000000000E+00  0.13245628427E+02  0.13245628427E+02  0.00000000000E+00 0.  1.
          1   -1    0    0  501    0  0.00000000000E+00 -0.00000000000E+00 -0.70209303031E+03  0.70209303031E+03  0.00000000000E+00 0. -1.
         24    1    1    2    0    0  0.34248140157E+02 -0.55499709739E+01 -0.19474155911E+03  0.21353039147E+03  0.80419002446E+02 0.  1.
        -24    1    1    2    0    0 -0.34248140157E+02  0.55499709739E+01 -0.49410584277E+03  0.50180826727E+03  0.80419002446E+02 0. -1.
<mgrwt>
<rscale>  0 0.87583978E+02</rscale>
<asrwt>0</asrwt>
<pdfrwt beam="1">  1        1 0.10801431E+00 0.87583978E+02</pdfrwt>
<pdfrwt beam="2">  1       -1 0.20377891E-02 0.87583978E+02</pdfrwt>
<totfact> 0.17104837E+04</totfact>
</mgrwt>
</event>
<event>
 4    1  0.6602701E-002  0.1012182E+03  0.7546771E-02  0.1277755E+00
         -4   -1    0    0    0  501 -0.00000000000E+00  0.00000000000E+00  0.22190398356E+03  0.22190398356E+03  0.00000000000E+00 0.  1.
          4   -1    0    0  501    0  0.00000000000E+00 -0.00000000000E+00 -0.61759368106E+02  0.61759368106E+02  0.00000000000E+00 0. -1.
         24    1    1    2    0    0 -0.50131943815E+01 -0.61259847956E+02  0.88119518390E+01  0.10160102135E+03  0.80419002446E+02 0. -1.
        -24    1    1    2    0    0  0.50131943815E+01  0.61259847956E+02  0.15133266362E+03  0.18206233032E+03  0.80419002446E+02 0.  1.
<mgrwt>
<rscale>  0 0.10121817E+03</rscale>
<asrwt>0</asrwt>
<pdfrwt beam="1">  1        4 0.95014414E-02 0.10121817E+03</pdfrwt>
<pdfrwt beam="2">  1       -4 0.34139074E-01 0.10121817E+03</pdfrwt>
<totfact> 0.10602345E+03</totfact>
</mgrwt>
</event>
<event>
 4    1  0.6602701E-002  0.9838871E+02  0.7546771E-02  0.1283721E+00
          2   -1    0    0  501    0  0.00000000000E+00  0.00000000000E+00  0.46795216481E+03  0.46795216481E+03  0.00000000000E+00 0. -1.
         -2   -1    0    0    0  501 -0.00000000000E+00 -0.00000000000E+00 -0.22288258896E+02  0.22288258896E+02  0.00000000000E+00 0.  1.
         24    1    1    2    0    0 -0.85086628138E+01 -0.56042171203E+02  0.28854117976E+03  0.30485463859E+03  0.80419002446E+02 0. -1.
        -24    1    1    2    0    0  0.85086628138E+01  0.56042171203E+02  0.15712272615E+03  0.18538578512E+03  0.80419002446E+02 0.  0.
<mgrwt>
<rscale>  0 0.98388710E+02</rscale>
<asrwt>0</asrwt>
<pdfrwt beam="1">  1        2 0.71992634E-01 0.98388710E+02</pdfrwt>
<pdfrwt beam="2">  1       -2 0.34289632E-02 0.98388710E+02</pdfrwt>
<totfact> 0.21168512E+04</totfact>
</mgrwt>
</event>
<event>
 4    1  0.6602701E-002  0.9266168E+02  0.7546771E-02  0.1296531E+00
          1   -1    0    0  501    0  0.00000000000E+00  0.00000000000E+00  0.87338723558E+02  0.87338723558E+02  0.00000000000E+00 0. -1.
         -1   -1    0    0    0  501 -0.00000000000E+00 -0.00000000000E+00 -0.24413902302E+03  0.24413902302E+03  0.00000000000E+00 0.  1.
         24    1    1    2    0    0  0.33326761685E+02  0.31753703348E+02 -0.20649426643E+03  0.22633176697E+03  0.80419002446E+02 0.  1.
        -24    1    1    2    0    0 -0.33326761685E+02 -0.31753703348E+02  0.49693966961E+02  0.10514597961E+03  0.80419002446E+02 0. -1.
<mgrwt>
<rscale>  0 0.92661679E+02</rscale>
<asrwt>0</asrwt>
<pdfrwt beam="1">  1        1 0.13436727E-01 0.92661679E+02</pdfrwt>
<pdfrwt beam="2">  1       -1 0.37559849E-01 0.92661679E+02</pdfrwt>
<totfact> 0.28172201E+03</totfact>
</mgrwt>
</event>
<event>
 4    1  0.6602701E-002  0.1008987E+03  0.7546771E-02  0.1278417E+00
          2   -1    0    0  501    0  0.00000000000E+00  0.00000000000E+00  0.14922513865E+04  0.14922513865E+04  0.00000000000E+00 0. -1.
         -2   -1    0    0    0  501 -0.00000000000E+00 -0.00000000000E+00 -0.99538210077E+02  0.99538210077E+02  0.00000000000E+00 0.  1.
         24    1    1    2    0    0 -0.20284456437E+02  0.57461898961E+02  0.14644922903E+04  0.14679639686E+04  0.80419002446E+02 0. -1.
        -24    1    1    2    0    0  0.20284456437E+02 -0.57461898961E+02 -0.71779113822E+02  0.12382562796E+03  0.80419002446E+02 0.  1.
<mgrwt>
<rscale>  0 0.10089869E+03</rscale>
<asrwt>0</asrwt>
<pdfrwt beam="1">  1        2 0.22957712E+00 0.10089869E+03</pdfrwt>
<pdfrwt beam="2">  1       -2 0.15313572E-01 0.10089869E+03</pdfrwt>
<totfact> 0.47387145E+02</totfact>
</mgrwt>
</event>
<event>
 4    1  0.6602701E-002  0.9435338E+02  0.7546771E-02  0.1292639E+00
          2   -1    0    0  501    0  0.00000000000E+00  0.00000000000E+00  0.10644705456E+03  0.10644705456E+03  0.00000000000E+00 0. -1.
         -2   -1    0    0    0  501 -0.00000000000E+00 -0.00000000000E+00 -0.84304272571E+02  0.84304272571E+02  0.00000000000E+00 0.  1.
         24    1    1    2    0    0  0.49207926594E+02  0.37316172663E+01  0.19577596524E+02  0.96363080312E+02  0.80419002446E+02 0. -1.
        -24    1    1    2    0    0 -0.49207926594E+02 -0.37316172663E+01  0.25651854661E+01  0.94388246821E+02  0.80419002446E+02 0.  0.
<mgrwt>
<rscale>  0 0.94353383E+02</rscale>
<asrwt>0</asrwt>
<pdfrwt beam="1">  1        2 0.16376470E-01 0.94353383E+02</pdfrwt>
<pdfrwt beam="2">  1       -2 0.12969888E-01 0.94353383E+02</pdfrwt>
<totfact> 0.13773651E+04</totfact>
</mgrwt>
</event>
<event>
 4    1  0.6602701E-002  0.8409787E+02  0.7546771E-02  0.1317809E+00
          1   -1    0    0  501    0  0.00000000000E+00  0.00000000000E+00  0.10258540384E+04  0.10258540384E+04  0.00000000000E+00 0. -1.
         -1   -1    0    0    0  501 -0.00000000000E+00 -0.00000000000E+00 -0.13791830454E+02  0.13791830454E+02  0.00000000000E+00 0.  1.
         24    1    1    2    0    0  0.18236499762E+02  0.16512591343E+02  0.13841529624E+03  0.16196063035E+03  0.80419002446E+02 0.  0.
        -24    1    1    2    0    0 -0.18236499762E+02 -0.16512591343E+02  0.87364691174E+03  0.87768523853E+03  0.80419002446E+02 0.  0.
<mgrwt>
<rscale>  0 0.84097869E+02</rscale>
<asrwt>0</asrwt>
<pdfrwt beam="1">  1        1 0.15782364E+00 0.84097869E+02</pdfrwt>
<pdfrwt beam="2">  1       -1 0.21218209E-02 0.84097869E+02</pdfrwt>
<totfact> 0.90228396E+03</totfact>
</mgrwt>
</event>
<event>
 4    1  0.6602701E-002  0.9180923E+02  0.7546771E-02  0.1298529E+00
          2   -1    0    0  501    0  0.00000000000E+00  0.00000000000E+00  0.16806428602E+04  0.16806428602E+04  0.00000000000E+00 0. -1.
         -2   -1    0    0    0  501 -0.00000000000E+00 -0.00000000000E+00 -0.58516467924E+01  0.58516467924E+01  0.00000000000E+00 0.  1.
         24    1    1    2    0    0  0.43784978979E+02  0.66776160389E+01  0.51860269596E+03  0.52666658063E+03  0.80419002446E+02 0. -1.
        -24    1    1    2    0    0 -0.43784978979E+02 -0.66776160389E+01  0.11561885175E+04  0.11598279264E+04  0.80419002446E+02 0.  0.
<mgrwt>
<rscale>  0 0.91809221E+02</rscale>
<asrwt>0</asrwt>
<pdfrwt beam="1">  1        2 0.25856006E+00 0.91809232E+02</pdfrwt>
<pdfrwt beam="2">  1       -2 0.90025469E-03 0.91809232E+02</pdfrwt>
<totfact> 0.25470171E+04</totfact>
</mgrwt>
</event>
<event>
 4    1  0.6602701E-002  0.2526625E+03  0.7546771E-02  0.1111634E+00
          2   -1    0    0  501    0  0.00000000000E+00  0.00000000000E+00  0.17122977716E+03  0.17122977716E+03  0.00000000000E+00 0. -1.
         -2   -1    0    0    0  501 -0.00000000000E+00 -0.00000000000E+00 -0.71680884000E+03  0.71680884000E+03  0.00000000000E+00 0.  1.
         24    1    1    2    0    0  0.23538362095E+03 -0.44336188959E+02  0.34799325059E+02  0.25504775169E+03  0.80419002446E+02 0. -1.
        -24    1    1    2    0    0 -0.23538362095E+03  0.44336188959E+02 -0.58037838790E+03  0.63299086546E+03  0.80419002446E+02 0.  1.
<mgrwt>
<rscale>  0 0.25266255E+03</rscale>
<asrwt>0</asrwt>
<pdfrwt beam="1">  1        2 0.26343043E-01 0.25266255E+03</pdfrwt>
<pdfrwt beam="2">  1       -2 0.11027828E+00 0.25266255E+03</pdfrwt>
<totfact> 0.13895082E+02</totfact>
</mgrwt>
</event>
<event>
 4    1  0.6602701E-002  0.9017745E+02  0.7546771E-02  0.1302423E+00
         -2   -1    0    0    0  501 -0.00000000000E+00  0.00000000000E+00  0.92708475291E+01  0.92708475291E+01  0.00000000000E+00 0.  1.
          2   -1    0    0  501    0  0.00000000000E+00 -0.00000000000E+00 -0.12425359374E+04  0.12425359374E+04  0.00000000000E+00 0. -1.
         24    1    1    2    0    0  0.45685923359E+01  0.40544845011E+02 -0.95604332288E+03  0.96028683615E+03  0.80419002446E+02 0.  0.
        -24    1    1    2    0    0 -0.45685923359E+01 -0.40544845011E+02 -0.27722176702E+03  0.29151994882E+03  0.80419002446E+02 0. -1.
<mgrwt>
<rscale>  0 0.90177450E+02</rscale>
<asrwt>0</asrwt>
<pdfrwt beam="1">  1        2 0.19115929E+00 0.90177450E+02</pdfrwt>
<pdfrwt beam="2">  1       -2 0.14262849E-02 0.90177450E+02</pdfrwt>
<totfact> 0.22275778E+04</totfact>
</mgrwt>
</event>
<event>
 4    1  0.6602701E-002  0.1174515E+03  0.7546771E-02  0.1247362E+00
          4   -1    0    0  501    0  0.00000000000E+00  0.00000000000E+00  0.79371703809E+01  0.79371703809E+01  0.00000000000E+00 0. -1.
         -4   -1    0    0    0  501 -0.00000000000E+00 -0.00000000000E+00 -0.17904811760E+04  0.17904811760E+04  0.00000000000E+00 0.  1.
         24    1    1    2    0    0  0.58419145382E+02 -0.62568599015E+02 -0.10452138858E+04  0.10517922367E+04  0.80419002446E+02 0. -1.
        -24    1    1    2    0    0 -0.58419145382E+02  0.62568599015E+02 -0.73733011974E+03  0.74662610962E+03  0.80419002446E+02 0.  1.
<mgrwt>
<rscale>  0 0.11745146E+03</rscale>
<asrwt>0</asrwt>
<pdfrwt beam="1">  1        4 0.12211019E-02 0.11745148E+03</pdfrwt>
<pdfrwt beam="2">  1       -4 0.27545892E+00 0.11745148E+03</pdfrwt>
<totfact> 0.18643345E+02</totfact>
</mgrwt>
</event>
<event>
 4    1  0.6602701E-002  0.8880967E+02  0.7546771E-02  0.1305760E+00
         -2   -1    0    0    0  501 -0.00000000000E+00  0.00000000000E+00  0.10018374299E+03  0.10018374299E+03  0.00000000000E+00 0.  1.
          2   -1    0    0  501    0  0.00000000000E+00 -0.00000000000E+00 -0.20758341670E+03  0.20758341670E+03  0.00000000000E+00 0. -1.
         24    1    1    2    0    0  0.27903066513E+01 -0.37578664381E+02 -0.17494072479E+03  0.19619229081E+03  0.80419002446E+02 0. -1.
        -24    1    1    2    0    0 -0.27903066513E+01  0.37578664381E+02  0.67541051083E+02  0.11157486887E+03  0.80419002446E+02 0.  1.
<mgrwt>
<rscale>  0 0.88809672E+02</rscale>
<asrwt>0</asrwt>
<pdfrwt beam="1">  1        2 0.31935910E-01 0.88809672E+02</pdfrwt>
<pdfrwt beam="2">  1       -2 0.15412884E-01 0.88809672E+02</pdfrwt>
<totfact> 0.49752866E+03</totfact>
</mgrwt>
</event>
<event>
 4    1  0.6602701E-002  0.9497503E+02  0.7546771E-02  0.1291232E+00
         -2   -1    0    0    0  501 -0.00000000000E+00  0.00000000000E+00  0.45869491766E+02  0.45869491766E+02  0.00000000000E+00 0.  1.
          2   -1    0    0  501    0  0.00000000000E+00 -0.00000000000E+00 -0.22859265805E+03  0.22859265805E+03  0.00000000000E+00 0. -1.
         24    1    1    2    0    0 -0.32073773171E+02  0.39042467948E+02 -0.14265996277E+03  0.17138296928E+03  0.80419002446E+02 0. -1.
        -24    1    1    2    0    0  0.32073773171E+02 -0.39042467948E+02 -0.40063203515E+02  0.10307918053E+03  0.80419002446E+02 0.  1.
<mgrwt>
<rscale>  0 0.94975035E+02</rscale>
<asrwt>0</asrwt>
<pdfrwt beam="1">  1        2 0.35168102E-01 0.94975035E+02</pdfrwt>
<pdfrwt beam="2">  1       -2 0.70568448E-02 0.94975035E+02</pdfrwt>
<totfact> 0.15327249E+04</totfact>
</mgrwt>
</event>
<event>
 4    1  0.6602701E-002  0.8986406E+02  0.7546771E-02  0.1303181E+00
         -2   -1    0    0    0  501 -0.00000000000E+00  0.00000000000E+00  0.22146970714E+02  0.22146970714E+02  0.00000000000E+00 0.  1.
          2   -1    0    0  501    0  0.00000000000E+00 -0.00000000000E+00 -0.67159604569E+03  0.67159604569E+03  0.00000000000E+00 0. -1.
         24    1    1    2    0    0  0.22224850048E+02 -0.33382482744E+02 -0.55923192839E+03  0.56640612620E+03  0.80419002446E+02 0. -1.
        -24    1    1    2    0    0 -0.22224850048E+02  0.33382482744E+02 -0.90217146588E+02  0.12733689020E+03  0.80419002446E+02 0.  1.
<mgrwt>
<rscale>  0 0.89864064E+02</rscale>
<asrwt>0</asrwt>
<pdfrwt beam="1">  1        2 0.10332245E+00 0.89864064E+02</pdfrwt>
<pdfrwt beam="2">  1       -2 0.34072268E-02 0.89864064E+02</pdfrwt>
<totfact> 0.14203891E+04</totfact>
</mgrwt>
</event>
<event>
 4    1  0.6602701E-002  0.9691344E+02  0.7546771E-02  0.1286924E+00
          2   -1    0    0  501    0  0.00000000000E+00  0.00000000000E+00  0.31317789713E+02  0.31317789713E+02  0.00000000000E+00 0. -1.
         -2   -1    0    0    0  501 -0.00000000000E+00 -0.00000000000E+00 -0.41144797423E+03  0.41144797423E+03  0.00000000000E+00 0.  1.
         24    1    1    2    0    0  0.39794211409E+02 -0.36625384345E+02 -0.74794940283E+02  0.12241934931E+03  0.80419002446E+02 0. -1.
        -24    1    1    2    0    0 -0.39794211409E+02  0.36625384345E+02 -0.30533524423E+03  0.32034641463E+03  0.80419002446E+02 0.  1.
<mgrwt>
<rscale>  0 0.96913436E+02</rscale>
<asrwt>0</asrwt>
<pdfrwt beam="1">  1        2 0.48181216E-02 0.96913436E+02</pdfrwt>
<pdfrwt beam="2">  1       -2 0.63299686E-01 0.96913436E+02</pdfrwt>
<totfact> 0.36216896E+03</totfact>
</mgrwt>
</event>
<event>
 4    1  0.6602701E-002  0.9513637E+02  0.7546771E-02  0.1290869E+00
          2   -1    0    0  501    0  0.00000000000E+00  0.00000000000E+00  0.24261258228E+04  0.24261258228E+04  0.00000000000E+00 0. -1.
         -2   -1    0    0    0  501 -0.00000000000E+00 -0.00000000000E+00 -0.40437745843E+01  0.40437745843E+01  0.00000000000E+00 0.  1.
         24    1    1    2    0    0 -0.22473063949E+02 -0.45592439552E+02  0.87289784873E+03  0.87806695612E+03  0.80419002446E+02 0.  0.
        -24    1    1    2    0    0  0.22473063949E+02  0.45592439552E+02  0.15491841995E+04  0.15521026413E+04  0.80419002446E+02 0.  0.
<mgrwt>
<rscale>  0 0.95136362E+02</rscale>
<asrwt>0</asrwt>
<pdfrwt beam="1">  1        2 0.37324896E+00 0.95136374E+02</pdfrwt>
<pdfrwt beam="2">  1       -2 0.62212111E-03 0.95136374E+02</pdfrwt>
<totfact> 0.17998368E+04</totfact>
</mgrwt>
</event>
<event>
 4    1  0.6602701E-002  0.8341612E+02  0.7546771E-02  0.1319627E+00
          3   -1    0    0  501    0  0.00000000000E+00  0.00000000000E+00  0.28235057492E+03  0.28235057492E+03  0.00000000000E+00 0. -1.
         -3   -1    0    0    0  501 -0.00000000000E+00 -0.00000000000E+00 -0.54003419263E+02  0.54003419263E+02  0.00000000000E+00 0.  1.
         24    1    1    2    0    0 -0.12376379082E+02 -0.18380935175E+02 -0.98286947457E+01  0.83993170745E+02  0.80419002446E+02 0.  1.
        -24    1    1    2    0    0  0.12376379082E+02  0.18380935175E+02  0.23817585040E+03  0.25236082344E+03  0.80419002446E+02 0.  0.
<mgrwt>
<rscale>  0 0.83416122E+02</rscale>
<asrwt>0</asrwt>
<pdfrwt beam="1">  1        3 0.43438549E-01 0.83416122E+02</pdfrwt>
<pdfrwt beam="2">  1       -3 0.83082185E-02 0.83416122E+02</pdfrwt>
<totfact> 0.11190414E+03</totfact>
</mgrwt>
</event>
<event>
 4    1  0.6602701E-002  0.9007609E+02  0.7546771E-02  0.1302668E+00
          1   -1    0    0  501    0  0.00000000000E+00  0.00000000000E+00  0.16052615412E+03  0.16052615412E+03  0.00000000000E+00 0. -1.
         -1   -1    0    0    0  501 -0.00000000000E+00 -0.00000000000E+00 -0.54309176757E+02  0.54309176757E+02  0.00000000000E+00 0.  1.
         24    1    1    2    0    0 -0.10749757260E+01  0.40562674970E+02  0.24826673325E+02  0.93434821326E+02  0.80419002446E+02 0.  1.
        -24    1    1    2    0    0  0.10749757260E+01 -0.40562674970E+02  0.81390304040E+02  0.12140050955E+03  0.80419002446E+02 0. -1.
<mgrwt>
<rscale>  0 0.90076091E+02</rscale>
<asrwt>0</asrwt>
<pdfrwt beam="1">  1        1 0.24696331E-01 0.90076091E+02</pdfrwt>
<pdfrwt beam="2">  1       -1 0.83552580E-02 0.90076091E+02</pdfrwt>
<totfact> 0.14060633E+04</totfact>
</mgrwt>
</event>
<event>
 4    1  0.6602701E-002  0.8332346E+02  0.7546771E-02  0.1319876E+00
          3   -1    0    0  501    0  0.00000000000E+00  0.00000000000E+00  0.18148369600E+03  0.18148369600E+03  0.00000000000E+00 0. -1.
         -3   -1    0    0    0  501 -0.00000000000E+00 -0.00000000000E+00 -0.67291877697E+02  0.67291877697E+02  0.00000000000E+00 0.  1.
         24    1    1    2    0    0  0.27550530408E+01  0.21633139045E+02 -0.24612282391E+02  0.86882469009E+02  0.80419002446E+02 0.  1.
        -24    1    1    2    0    0 -0.27550530408E+01 -0.21633139045E+02  0.13880410070E+03  0.16189310469E+03  0.80419002446E+02 0. -1.
<mgrwt>
<rscale>  0 0.83323460E+02</rscale>
<asrwt>0</asrwt>
<pdfrwt beam="1">  1        3 0.27920568E-01 0.83323460E+02</pdfrwt>
<pdfrwt beam="2">  1       -3 0.10352597E-01 0.83323460E+02</pdfrwt>
<totfact> 0.17861446E+03</totfact>
</mgrwt>
</event>
<event>
 4    1  0.6602701E-002  0.9392761E+02  0.7546771E-02  0.1293610E+00
         -1   -1    0    0    0  501 -0.00000000000E+00  0.00000000000E+00  0.42768194305E+01  0.42768194305E+01  0.00000000000E+00 0.  1.
          1   -1    0    0  501    0  0.00000000000E+00 -0.00000000000E+00 -0.20715628526E+04  0.20715628526E+04  0.00000000000E+00 0. -1.
         24    1    1    2    0    0  0.48072266971E+02  0.66508100869E+01 -0.11009959196E+04  0.11049952068E+04  0.80419002446E+02 0.  1.
        -24    1    1    2    0    0 -0.48072266971E+02 -0.66508100869E+01 -0.96629011357E+03  0.97084446523E+03  0.80419002446E+02 0. -1.
<mgrwt>
<rscale>  0 0.93927601E+02</rscale>
<asrwt>0</asrwt>
<pdfrwt beam="1">  1        1 0.31870132E+00 0.93927613E+02</pdfrwt>
<pdfrwt beam="2">  1       -1 0.65797358E-03 0.93927613E+02</pdfrwt>
<totfact> 0.10042837E+04</totfact>
</mgrwt>
</event>
<event>
 4    1  0.6602701E-002  0.1041574E+03  0.7546771E-02  0.1271789E+00
         -1   -1    0    0    0  501 -0.00000000000E+00  0.00000000000E+00  0.18769914552E+03  0.18769914552E+03  0.00000000000E+00 0.  1.
          1   -1    0    0  501    0  0.00000000000E+00 -0.00000000000E+00 -0.85249003368E+02  0.85249003368E+02  0.00000000000E+00 0. -1.
         24    1    1    2    0    0  0.66149652544E+02  0.24008265573E+01  0.12866759602E+03  0.16554185791E+03  0.80419002446E+02 0.  1.
        -24    1    1    2    0    0 -0.66149652544E+02 -0.24008265573E+01 -0.26217453869E+02  0.10740629098E+03  0.80419002446E+02 0. -1.
<mgrwt>
<rscale>  0 0.10415736E+03</rscale>
<asrwt>0</asrwt>
<pdfrwt beam="1">  1        1 0.13115231E-01 0.10415736E+03</pdfrwt>
<pdfrwt beam="2">  1       -1 0.28876792E-01 0.10415736E+03</pdfrwt>
<totfact> 0.45633378E+03</totfact>
</mgrwt>
</event>
<event>
 4    1  0.8003782E-002  0.9895951E+02  0.7546771E-02  0.1282499E+00
          1   -1    0    0  501    0  0.00000000000E+00  0.00000000000E+00  0.74313070121E+03  0.74313070121E+03  0.00000000000E+00 0. -1.
         -1   -1    0    0    0  501 -0.00000000000E+00 -0.00000000000E+00 -0.50045119365E+02  0.50045119365E+02  0.00000000000E+00 0.  1.
         24    1    1    2    0    0  0.29436028992E+02 -0.49591227496E+02  0.61517385004E+01  0.99150539526E+02  0.80419002446E+02 0.  1.
        -24    1    1    2    0    0 -0.29436028992E+02  0.49591227496E+02  0.68693384335E+03  0.69402528105E+03  0.80419002446E+02 0. -1.
<mgrwt>
<rscale>  0 0.98959515E+02</rscale>
<asrwt>0</asrwt>
<pdfrwt beam="1">  1        1 0.11432779E+00 0.98959515E+02</pdfrwt>
<pdfrwt beam="2">  1       -1 0.76992497E-02 0.98959515E+02</pdfrwt>
<totfact> 0.22975701E+03</totfact>
</mgrwt>
</event>
<event>
 4    1  0.6602701E-002  0.1062547E+03  0.7546771E-02  0.1267667E+00
          1   -1    0    0  501    0  0.00000000000E+00  0.00000000000E+00  0.11065676380E+02  0.11065676380E+02  0.00000000000E+00 0. -1.
         -1   -1    0    0    0  501 -0.00000000000E+00 -0.00000000000E+00 -0.13019889439E+04  0.13019889439E+04  0.00000000000E+00 0.  1.
         24    1    1    2    0    0  0.36312380505E+00 -0.69445735131E+02 -0.95084936157E+03  0.95676777033E+03  0.80419002446E+02 0.  1.
        -24    1    1    2    0    0 -0.36312380505E+00  0.69445735131E+02 -0.34007390597E+03  0.35628684998E+03  0.80419002446E+02 0. -1.
<mgrwt>
<rscale>  0 0.10625468E+03</rscale>
<asrwt>0</asrwt>
<pdfrwt beam="1">  1        1 0.17024118E-02 0.10625468E+03</pdfrwt>
<pdfrwt beam="2">  1       -1 0.20030598E+00 0.10625468E+03</pdfrwt>
<totfact> 0.12221038E+03</totfact>
</mgrwt>
</event>
<event>
 4    1  0.6602701E-002  0.1186985E+03  0.7546771E-02  0.1245260E+00
         -1   -1    0    0    0  501 -0.00000000000E+00  0.00000000000E+00  0.56903669961E+02  0.56903669961E+02  0.00000000000E+00 0.  1.
          1   -1    0    0  501    0  0.00000000000E+00 -0.00000000000E+00 -0.29823309539E+03  0.29823309539E+03  0.00000000000E+00 0. -1.
         24    1    1    2    0    0 -0.84583994989E+02 -0.21625722962E+02 -0.47499336472E+02  0.12784962660E+03  0.80419002446E+02 0.  1.
        -24    1    1    2    0    0  0.84583994989E+02  0.21625722962E+02 -0.19383008896E+03  0.22728713875E+03  0.80419002446E+02 0. -1.
<mgrwt>
<rscale>  0 0.11869853E+03</rscale>
<asrwt>0</asrwt>
<pdfrwt beam="1">  1        1 0.45882014E-01 0.11869853E+03</pdfrwt>
<pdfrwt beam="2">  1       -1 0.87544109E-02 0.11869853E+03</pdfrwt>
<totfact> 0.62576091E+03</totfact>
</mgrwt>
</event>
<event>
 4    1  0.6602701E-002  0.8547053E+02  0.7546771E-02  0.1314207E+00
         -1   -1    0    0    0  501 -0.00000000000E+00  0.00000000000E+00  0.30471556547E+02  0.30471556547E+02  0.00000000000E+00 0.  1.
          1   -1    0    0  501    0  0.00000000000E+00 -0.00000000000E+00 -0.31954608436E+03  0.31954608436E+03  0.00000000000E+00 0. -1.
         24    1    1    2    0    0  0.28380485122E+02  0.57047693803E+01 -0.57076222707E+02  0.10277600636E+03  0.80419002446E+02 0.  1.
        -24    1    1    2    0    0 -0.28380485122E+02 -0.57047693803E+01 -0.23199830510E+03  0.24724163455E+03  0.80419002446E+02 0. -1.
<mgrwt>
<rscale>  0 0.85470535E+02</rscale>
<asrwt>0</asrwt>
<pdfrwt beam="1">  1        1 0.49160936E-01 0.85470535E+02</pdfrwt>
<pdfrwt beam="2">  1       -1 0.46879318E-02 0.85470535E+02</pdfrwt>
<totfact> 0.14125224E+04</totfact>
</mgrwt>
</event>
<event>
 4    1  0.6602701E-002  0.9391036E+02  0.7546771E-02  0.1293649E+00
          1   -1    0    0  501    0  0.00000000000E+00  0.00000000000E+00  0.33941753144E+03  0.33941753144E+03  0.00000000000E+00 0. -1.
         -1   -1    0    0    0  501 -0.00000000000E+00 -0.00000000000E+00 -0.27369922289E+02  0.27369922289E+02  0.00000000000E+00 0.  1.
         24    1    1    2    0    0 -0.26370659224E+02  0.40700425183E+02  0.19730412640E+03  0.21851331888E+03  0.80419002446E+02 0. -1.
        -24    1    1    2    0    0  0.26370659224E+02 -0.40700425183E+02  0.11474348275E+03  0.14827413485E+03  0.80419002446E+02 0.  1.
<mgrwt>
<rscale>  0 0.93910353E+02</rscale>
<asrwt>0</asrwt>
<pdfrwt beam="1">  1        1 0.52218079E-01 0.93910365E+02</pdfrwt>
<pdfrwt beam="2">  1       -1 0.42107575E-02 0.93910365E+02</pdfrwt>
<totfact> 0.15482026E+04</totfact>
</mgrwt>
</event>
<event>
 4    1  0.6602701E-002  0.1003862E+03  0.7546771E-02  0.1279486E+00
          1   -1    0    0  501    0  0.00000000000E+00  0.00000000000E+00  0.66041249849E+02  0.66041249849E+02  0.00000000000E+00 0. -1.
         -1   -1    0    0    0  501 -0.00000000000E+00 -0.00000000000E+00 -0.27440839513E+03  0.27440839513E+03  0.00000000000E+00 0.  1.
         24    1    1    2    0    0  0.37640400624E+02 -0.46833548921E+02 -0.21760007193E+03  0.23963970523E+03  0.80419002446E+02 0.  1.
        -24    1    1    2    0    0 -0.37640400624E+02  0.46833548921E+02  0.92329266485E+01  0.10080993975E+03  0.80419002446E+02 0. -1.
<mgrwt>
<rscale>  0 0.10038624E+03</rscale>
<asrwt>0</asrwt>
<pdfrwt beam="1">  1        1 0.10160192E-01 0.10038624E+03</pdfrwt>
<pdfrwt beam="2">  1       -1 0.42216676E-01 0.10038624E+03</pdfrwt>
<totfact> 0.33241477E+03</totfact>
</mgrwt>
</event>
<event>
 4    1  0.6602701E-002  0.8059661E+02  0.7546771E-02  0.1327367E+00
         -1   -1    0    0    0  501 -0.00000000000E+00  0.00000000000E+00  0.70062479806E+01  0.70062479806E+01  0.00000000000E+00 0.  1.
          1   -1    0    0  501    0  0.00000000000E+00 -0.00000000000E+00 -0.13111262336E+04  0.13111262336E+04  0.00000000000E+00 0. -1.
         24    1    1    2    0    0 -0.11684486225E+01  0.52181439395E+01 -0.10087259125E+04  0.10119405994E+04  0.80419002446E+02 0. -1.
        -24    1    1    2    0    0  0.11684486225E+01 -0.52181439395E+01 -0.29539407312E+03  0.30619188214E+03  0.80419002446E+02 0.  1.
<mgrwt>
<rscale>  0 0.80596600E+02</rscale>
<asrwt>0</asrwt>
<pdfrwt beam="1">  1        1 0.20171150E+00 0.80596610E+02</pdfrwt>
<pdfrwt beam="2">  1       -1 0.10778855E-02 0.80596610E+02</pdfrwt>
<totfact> 0.15034400E+04</totfact>
</mgrwt>
</event>
<event>
 4    1  0.6602701E-002  0.1130391E+03  0.7546771E-02  0.1255043E+00
          2   -1    0    0  501    0  0.00000000000E+00  0.00000000000E+00  0.41212464078E+03  0.41212464078E+03  0.00000000000E+00 0. -1.
         -2   -1    0    0    0  501 -0.00000000000E+00 -0.00000000000E+00 -0.31083053175E+02  0.31083053175E+02  0.00000000000E+00 0.  1.
         24    1    1    2    0    0  0.40066461954E+02  0.68595259767E+02  0.20163896253E+03  0.23116253632E+03  0.80419002446E+02 0.  0.
        -24    1    1    2    0    0 -0.40066461954E+02 -0.68595259767E+02  0.17940262508E+03  0.21204515763E+03  0.80419002446E+02 0.  0.
<mgrwt>
<rscale>  0 0.11303914E+03</rscale>
<asrwt>0</asrwt>
<pdfrwt beam="1">  1        2 0.63403787E-01 0.11303914E+03</pdfrwt>
<pdfrwt beam="2">  1       -2 0.47820085E-02 0.11303914E+03</pdfrwt>
<totfact> 0.15027308E+04</totfact>
</mgrwt>
</event>
<event>
 4    1  0.6602701E-002  0.1116642E+03  0.7546771E-02  0.1257519E+00
          4   -1    0    0  501    0  0.00000000000E+00  0.00000000000E+00  0.23056968563E+03  0.23056968563E+03  0.00000000000E+00 0. -1.
         -4   -1    0    0    0  501 -0.00000000000E+00 -0.00000000000E+00 -0.66194876318E+02  0.66194876318E+02  0.00000000000E+00 0.  1.
         24    1    1    2    0    0 -0.15378489807E+02  0.75928724225E+02  0.14566997420E+03  0.18354461705E+03  0.80419002446E+02 0. -1.
        -24    1    1    2    0    0  0.15378489807E+02 -0.75928724225E+02  0.18704835111E+02  0.11321994490E+03  0.80419002446E+02 0.  1.
<mgrwt>
<rscale>  0 0.11166416E+03</rscale>
<asrwt>0</asrwt>
<pdfrwt beam="1">  1        4 0.35472259E-01 0.11166416E+03</pdfrwt>
<pdfrwt beam="2">  1       -4 0.10183827E-01 0.11166416E+03</pdfrwt>
<totfact> 0.89739938E+02</totfact>
</mgrwt>
</event>
<event>
 4    1  0.6602701E-002  0.1230456E+03  0.7546771E-02  0.1238156E+00
         -1   -1    0    0    0  501 -0.00000000000E+00  0.00000000000E+00  0.40420481105E+03  0.40420481105E+03  0.00000000000E+00 0.  1.
          1   -1    0    0  501    0  0.00000000000E+00 -0.00000000000E+00 -0.44403114628E+02  0.44403114628E+02  0.00000000000E+00 0. -1.
         24    1    1    2    0    0  0.42688740522E+02 -0.82768813312E+02  0.26861793723E+03  0.29545865562E+03  0.80419002446E+02 0.  1.
        -24    1    1    2    0    0 -0.42688740522E+02  0.82768813312E+02  0.91183759190E+02  0.15314927006E+03  0.80419002446E+02 0. -1.
<mgrwt>
<rscale>  0 0.12304561E+03</rscale>
<asrwt>0</asrwt>
<pdfrwt beam="1">  1        1 0.68312487E-02 0.12304561E+03</pdfrwt>
<pdfrwt beam="2">  1       -1 0.62185353E-01 0.12304561E+03</pdfrwt>
<totfact> 0.28107397E+03</totfact>
</mgrwt>
</event>
<event>
 4    1  0.6602701E-002  0.1208754E+03  0.7546771E-02  0.1241660E+00
         -2   -1    0    0    0  501 -0.00000000000E+00  0.00000000000E+00  0.23699692903E+04  0.23699692903E+04  0.00000000000E+00 0.  1.
          2   -1    0    0  501    0  0.00000000000E+00 -0.00000000000E+00 -0.82101627221E+01  0.82101627221E+01  0.00000000000E+00 0. -1.
         24    1    1    2    0    0 -0.85287371603E+02 -0.29490814263E+02  0.58740417150E+03  0.59971203133E+03  0.80419002446E+02 0. -1.
        -24    1    1    2    0    0  0.85287371603E+02  0.29490814263E+02  0.17743549560E+04  0.17784674216E+04  0.80419002446E+02 0.  1.
<mgrwt>
<rscale>  0 0.12087539E+03</rscale>
<asrwt>0</asrwt>
<pdfrwt beam="1">  1        2 0.12631039E-02 0.12087539E+03</pdfrwt>
<pdfrwt beam="2">  1       -2 0.36461011E+00 0.12087539E+03</pdfrwt>
<totfact> 0.15736727E+02</totfact>
</mgrwt>
</event>
<event>
 4    1  0.6602701E-002  0.8791230E+02  0.7546771E-02  0.1307988E+00
         -1   -1    0    0    0  501 -0.00000000000E+00  0.00000000000E+00  0.10626483169E+02  0.10626483169E+02  0.00000000000E+00 0.  1.
          1   -1    0    0  501    0  0.00000000000E+00 -0.00000000000E+00 -0.89957375578E+03  0.89957375578E+03  0.00000000000E+00 0. -1.
         24    1    1    2    0    0  0.32066813172E+02 -0.15266848806E+02 -0.24531176568E+03  0.26058863274E+03  0.80419002446E+02 0.  1.
        -24    1    1    2    0    0 -0.32066813172E+02  0.15266848806E+02 -0.64363550694E+03  0.64961160621E+03  0.80419002446E+02 0. -1.
<mgrwt>
<rscale>  0 0.87912304E+02</rscale>
<asrwt>0</asrwt>
<pdfrwt beam="1">  1        1 0.13839600E+00 0.87912304E+02</pdfrwt>
<pdfrwt beam="2">  1       -1 0.16348431E-02 0.87912304E+02</pdfrwt>
<totfact> 0.16226605E+04</totfact>
</mgrwt>
</event>
<event>
 4    1  0.6602701E-002  0.9216699E+02  0.7546771E-02  0.1297687E+00
         -1   -1    0    0    0  501 -0.00000000000E+00  0.00000000000E+00  0.17699347761E+02  0.17699347761E+02  0.00000000000E+00 0.  1.
          1   -1    0    0  501    0  0.00000000000E+00 -0.00000000000E+00 -0.53037660015E+03  0.53037660015E+03  0.00000000000E+00 0. -1.
         24    1    1    2    0    0 -0.77996332355E+01  0.44347495825E+02 -0.34083944260E+03  0.35308111851E+03  0.80419002446E+02 0. -1.
        -24    1    1    2    0    0  0.77996332355E+01 -0.44347495825E+02 -0.17183780979E+03  0.19499482940E+03  0.80419002446E+02 0.  1.
<mgrwt>
<rscale>  0 0.92166983E+02</rscale>
<asrwt>0</asrwt>
<pdfrwt beam="1">  1        1 0.81596383E-01 0.92166994E+02</pdfrwt>
<pdfrwt beam="2">  1       -1 0.27229771E-02 0.92166994E+02</pdfrwt>
<totfact> 0.16566925E+04</totfact>
</mgrwt>
</event>
<event>
 4    1  0.6602701E-002  0.1178317E+03  0.7546771E-02  0.1246717E+00
          2   -1    0    0  501    0  0.00000000000E+00  0.00000000000E+00  0.14568703717E+03  0.14568703717E+03  0.00000000000E+00 0. -1.
         -2   -1    0    0    0  501 -0.00000000000E+00 -0.00000000000E+00 -0.13837068189E+03  0.13837068189E+03  0.00000000000E+00 0.  1.
         24    1    1    2    0    0  0.56041429125E+01  0.85940054491E+02  0.82896202678E+02  0.14406976003E+03  0.80419002446E+02 0. -1.
        -24    1    1    2    0    0 -0.56041429125E+01 -0.85940054491E+02 -0.75579847396E+02  0.13998795902E+03  0.80419002446E+02 0.  1.
<mgrwt>
<rscale>  0 0.11783172E+03</rscale>
<asrwt>0</asrwt>
<pdfrwt beam="1">  1        2 0.22413390E-01 0.11783172E+03</pdfrwt>
<pdfrwt beam="2">  1       -2 0.21287797E-01 0.11783172E+03</pdfrwt>
<totfact> 0.43581419E+03</totfact>
</mgrwt>
</event>
<event>
 4    1  0.6602701E-002  0.8422973E+02  0.7546771E-02  0.1317459E+00
          1   -1    0    0  501    0  0.00000000000E+00  0.00000000000E+00  0.10099617698E+04  0.10099617698E+04  0.00000000000E+00 0. -1.
         -1   -1    0    0    0  501 -0.00000000000E+00 -0.00000000000E+00 -0.91600931883E+01  0.91600931883E+01  0.00000000000E+00 0.  1.
         24    1    1    2    0    0 -0.12251993483E+02  0.21847579122E+02  0.74643112356E+03  0.75116846728E+03  0.80419002446E+02 0. -1.
        -24    1    1    2    0    0  0.12251993483E+02 -0.21847579122E+02  0.25437055300E+03  0.26795339566E+03  0.80419002446E+02 0.  0.
<mgrwt>
<rscale>  0 0.84229720E+02</rscale>
<asrwt>0</asrwt>
<pdfrwt beam="1">  1        1 0.15537865E+00 0.84229731E+02</pdfrwt>
<pdfrwt beam="2">  1       -1 0.14092459E-02 0.84229731E+02</pdfrwt>
<totfact> 0.16559521E+04</totfact>
</mgrwt>
</event>
<event>
 4    1  0.6602701E-002  0.9123681E+02  0.7546771E-02  0.1299884E+00
          2   -1    0    0  501    0  0.00000000000E+00  0.00000000000E+00  0.38105567441E+03  0.38105567441E+03  0.00000000000E+00 0. -1.
         -2   -1    0    0    0  501 -0.00000000000E+00 -0.00000000000E+00 -0.27109748110E+02  0.27109748110E+02  0.00000000000E+00 0.  1.
         24    1    1    2    0    0  0.40097572936E+02 -0.15783694042E+02  0.26690880478E+03  0.28207173977E+03  0.80419002446E+02 0. -1.
        -24    1    1    2    0    0 -0.40097572936E+02  0.15783694042E+02  0.87037121523E+02  0.12609368275E+03  0.80419002446E+02 0.  1.
<mgrwt>
<rscale>  0 0.91236814E+02</rscale>
<asrwt>0</asrwt>
<pdfrwt beam="1">  1        2 0.58623946E-01 0.91236814E+02</pdfrwt>
<pdfrwt beam="2">  1       -2 0.41707308E-02 0.91236814E+02</pdfrwt>
<totfact> 0.19594019E+04</totfact>
</mgrwt>
</event>
<event>
 4    1  0.6602701E-002  0.1208655E+03  0.7546771E-02  0.1241676E+00
          4   -1    0    0  501    0  0.00000000000E+00  0.00000000000E+00  0.21294637740E+03  0.21294637740E+03  0.00000000000E+00 0. -1.
         -4   -1    0    0    0  501 -0.00000000000E+00 -0.00000000000E+00 -0.70771270840E+02  0.70771270840E+02  0.00000000000E+00 0.  1.
         24    1    1    2    0    0 -0.89423701031E+02 -0.12027014370E+02  0.95925989664E+02  0.15430573168E+03  0.80419002446E+02 0.  1.
        -24    1    1    2    0    0  0.89423701031E+02  0.12027014370E+02  0.46249116896E+02  0.12941191656E+03  0.80419002446E+02 0. -1.
<mgrwt>
<rscale>  0 0.12086548E+03</rscale>
<asrwt>0</asrwt>
<pdfrwt beam="1">  1        4 0.32760981E-01 0.12086548E+03</pdfrwt>
<pdfrwt beam="2">  1       -4 0.10887888E-01 0.12086548E+03</pdfrwt>
<totfact> 0.95003715E+02</totfact>
</mgrwt>
</event>
<event>
 4    1  0.6602701E-002  0.9380508E+02  0.7546771E-02  0.1293890E+00
          1   -1    0    0  501    0  0.00000000000E+00  0.00000000000E+00  0.88281847621E+02  0.88281847621E+02  0.00000000000E+00 0. -1.
         -1   -1    0    0    0  501 -0.00000000000E+00 -0.00000000000E+00 -0.99716701493E+02  0.99716701493E+02  0.00000000000E+00 0.  1.
         24    1    1    2    0    0 -0.40937458206E+02 -0.25618385114E+02 -0.76656553532E+01  0.94117773915E+02  0.80419002446E+02 0.  0.
        -24    1    1    2    0    0  0.40937458206E+02  0.25618385114E+02 -0.37691985194E+01  0.93880775200E+02  0.80419002446E+02 0.  1.
<mgrwt>
<rscale>  0 0.93805080E+02</rscale>
<asrwt>0</asrwt>
<pdfrwt beam="1">  1        1 0.13581823E-01 0.93805080E+02</pdfrwt>
<pdfrwt beam="2">  1       -1 0.15341031E-01 0.93805080E+02</pdfrwt>
<totfact> 0.11912920E+04</totfact>
</mgrwt>
</event>
<event>
 4    1  0.6602701E-002  0.9137208E+02  0.7546771E-02  0.1299563E+00
         -2   -1    0    0    0  501 -0.00000000000E+00  0.00000000000E+00  0.16373452495E+02  0.16373452495E+02  0.00000000000E+00 0.  1.
          2   -1    0    0  501    0  0.00000000000E+00 -0.00000000000E+00 -0.51240122941E+03  0.51240122941E+03  0.00000000000E+00 0. -1.
         24    1    1    2    0    0  0.28010492677E+02  0.33121729665E+02 -0.22954854287E+03  0.24706555034E+03  0.80419002446E+02 0. -1.
        -24    1    1    2    0    0 -0.28010492677E+02 -0.33121729665E+02 -0.26647923404E+03  0.28170913156E+03  0.80419002446E+02 0.  0.
<mgrwt>
<rscale>  0 0.91372067E+02</rscale>
<asrwt>0</asrwt>
<pdfrwt beam="1">  1        2 0.78830952E-01 0.91372079E+02</pdfrwt>
<pdfrwt beam="2">  1       -2 0.25189929E-02 0.91372079E+02</pdfrwt>
<totfact> 0.29832547E+04</totfact>
</mgrwt>
</event>
<event>
 4    1  0.6602701E-002  0.1462459E+03  0.7546771E-02  0.1205163E+00
          1   -1    0    0  501    0  0.00000000000E+00  0.00000000000E+00  0.86385876456E+02  0.86385876456E+02  0.00000000000E+00 0. -1.
         -1   -1    0    0    0  501 -0.00000000000E+00 -0.00000000000E+00 -0.91434037361E+03  0.91434037361E+03  0.00000000000E+00 0.  1.
         24    1    1    2    0    0 -0.68823712716E+02  0.10091551160E+03 -0.84125921374E+03  0.85387641060E+03  0.80419002446E+02 0.  1.
        -24    1    1    2    0    0  0.68823712716E+02 -0.10091551160E+03  0.13304716588E+02  0.14684983947E+03  0.80419002446E+02 0. -1.
<mgrwt>
<rscale>  0 0.14624589E+03</rscale>
<asrwt>0</asrwt>
<pdfrwt beam="1">  1        1 0.13290135E-01 0.14624589E+03</pdfrwt>
<pdfrwt beam="2">  1       -1 0.14066775E+00 0.14624589E+03</pdfrwt>
<totfact> 0.19830428E+02</totfact>
</mgrwt>
</event>
<event>
 4    1  0.6602701E-002  0.1014341E+03  0.7546771E-02  0.1277309E+00
         -2   -1    0    0    0  501 -0.00000000000E+00  0.00000000000E+00  0.12450842027E+02  0.12450842027E+02  0.00000000000E+00 0.  1.
          2   -1    0    0  501    0  0.00000000000E+00 -0.00000000000E+00 -0.83168254819E+03  0.83168254819E+03  0.00000000000E+00 0. -1.
         24    1    1    2    0    0  0.60618190193E+02 -0.12127901497E+02 -0.44338326352E+03  0.45483797698E+03  0.80419002446E+02 0. -1.
        -24    1    1    2    0    0 -0.60618190193E+02  0.12127901497E+02 -0.37584844264E+03  0.38929541324E+03  0.80419002446E+02 0.  1.
<mgrwt>
<rscale>  0 0.10143405E+03</rscale>
<asrwt>0</asrwt>
<pdfrwt beam="1">  1        2 0.12795116E+00 0.10143405E+03</pdfrwt>
<pdfrwt beam="2">  1       -2 0.19155142E-02 0.10143405E+03</pdfrwt>
<totfact> 0.25609061E+04</totfact>
</mgrwt>
</event>
<event>
 4    1  0.6602701E-002  0.1045414E+03  0.7546771E-02  0.1271026E+00
         -2   -1    0    0    0  501 -0.00000000000E+00  0.00000000000E+00  0.11786577232E+03  0.11786577232E+03  0.00000000000E+00 0.  1.
          2   -1    0    0  501    0  0.00000000000E+00 -0.00000000000E+00 -0.10339108910E+03  0.10339108910E+03  0.00000000000E+00 0. -1.
         24    1    1    2    0    0 -0.66341877267E+02 -0.77736334143E+01  0.42773028452E+02  0.11295318487E+03  0.80419002446E+02 0.  1.
        -24    1    1    2    0    0  0.66341877267E+02  0.77736334143E+01 -0.28298345229E+02  0.10830367654E+03  0.80419002446E+02 0. -1.
<mgrwt>
<rscale>  0 0.10454134E+03</rscale>
<asrwt>0</asrwt>
<pdfrwt beam="1">  1        2 0.15906321E-01 0.10454136E+03</pdfrwt>
<pdfrwt beam="2">  1       -2 0.18133196E-01 0.10454136E+03</pdfrwt>
<totfact> 0.83381765E+03</totfact>
</mgrwt>
</event>
<event>
 4    1  0.6602701E-002  0.1011604E+03  0.7546771E-02  0.1277875E+00
         -2   -1    0    0    0  501 -0.00000000000E+00  0.00000000000E+00  0.68933646792E+01  0.68933646792E+01  0.00000000000E+00 0.  1.
          2   -1    0    0  501    0  0.00000000000E+00 -0.00000000000E+00 -0.15213269610E+04  0.15213269610E+04  0.00000000000E+00 0. -1.
         24    1    1    2    0    0 -0.14005371918E+02 -0.59749981154E+02 -0.87604884247E+03  0.88187017244E+03  0.80419002446E+02 0. -1.
        -24    1    1    2    0    0  0.14005371918E+02  0.59749981154E+02 -0.63838475388E+03  0.64635015327E+03  0.80419002446E+02 0.  1.
<mgrwt>
<rscale>  0 0.10116040E+03</rscale>
<asrwt>0</asrwt>
<pdfrwt beam="1">  1        2 0.23405031E+00 0.10116040E+03</pdfrwt>
<pdfrwt beam="2">  1       -2 0.10605176E-02 0.10116040E+03</pdfrwt>
<totfact> 0.24498827E+04</totfact>
</mgrwt>
</event>
<event>
 4    1  0.6602701E-002  0.9121597E+02  0.7546771E-02  0.1299933E+00
         -2   -1    0    0    0  501 -0.00000000000E+00  0.00000000000E+00  0.67102649385E+01  0.67102649385E+01  0.00000000000E+00 0.  1.
          2   -1    0    0  501    0  0.00000000000E+00 -0.00000000000E+00 -0.16780171013E+04  0.16780171013E+04  0.00000000000E+00 0. -1.
         24    1    1    2    0    0  0.86557295235E+01  0.42168883823E+02 -0.12660558982E+04  0.12693375791E+04  0.80419002446E+02 0. -1.
        -24    1    1    2    0    0 -0.86557295235E+01 -0.42168883823E+02 -0.40525093816E+03  0.41538978713E+03  0.80419002446E+02 0.  1.
<mgrwt>
<rscale>  0 0.91215966E+02</rscale>
<asrwt>0</asrwt>
<pdfrwt beam="1">  1        2 0.25815668E+00 0.91215966E+02</pdfrwt>
<pdfrwt beam="2">  1       -2 0.10323476E-02 0.91215966E+02</pdfrwt>
<totfact> 0.21038846E+04</totfact>
</mgrwt>
</event>
<event>
 4    1  0.6602701E-002  0.1036248E+03  0.7546771E-02  0.1272853E+00
          2   -1    0    0  501    0  0.00000000000E+00  0.00000000000E+00  0.86041692352E+02  0.86041692352E+02  0.00000000000E+00 0. -1.
         -2   -1    0    0    0  501 -0.00000000000E+00 -0.00000000000E+00 -0.14461495222E+03  0.14461495222E+03  0.00000000000E+00 0.  1.
         24    1    1    2    0    0  0.27598201393E+02 -0.59238635956E+02  0.13402224004E+02  0.10448785706E+03  0.80419002446E+02 0. -1.
        -24    1    1    2    0    0 -0.27598201393E+02  0.59238635956E+02 -0.71975483875E+02  0.12616878752E+03  0.80419002446E+02 0.  1.
<mgrwt>
<rscale>  0 0.10362477E+03</rscale>
<asrwt>0</asrwt>
<pdfrwt beam="1">  1        2 0.13237183E-01 0.10362477E+03</pdfrwt>
<pdfrwt beam="2">  1       -2 0.22248454E-01 0.10362477E+03</pdfrwt>
<totfact> 0.73160363E+03</totfact>
</mgrwt>
</event>
<event>
 4    1  0.8436802E-002  0.8058307E+02  0.7546771E-02  0.1327405E+00
         -1   -1    0    0    0  501 -0.00000000000E+00  0.00000000000E+00  0.14882698525E+02  0.14882698525E+02  0.00000000000E+00 0.  1.
          1   -1    0    0  501    0  0.00000000000E+00 -0.00000000000E+00 -0.10247886596E+04  0.10247886596E+04  0.00000000000E+00 0. -1.
         24    1    1    2    0    0 -0.13773489697E+01  0.49515169263E+01 -0.11103091214E+03  0.13719145022E+03  0.80419002446E+02 0.  1.
        -24    1    1    2    0    0  0.13773489697E+01 -0.49515169263E+01 -0.89887504889E+03  0.90247990786E+03  0.80419002446E+02 0.  0.
<mgrwt>
<rscale>  0 0.80583066E+02</rscale>
<asrwt>0</asrwt>
<pdfrwt beam="1">  1        1 0.15765982E+00 0.80583066E+02</pdfrwt>
<pdfrwt beam="2">  1       -1 0.22896455E-02 0.80583066E+02</pdfrwt>
<totfact> 0.80860724E+03</totfact>
</mgrwt>
</event>
<event>
 4    1  0.6602701E-002  0.8112801E+02  0.7546771E-02  0.1325880E+00
         -1   -1    0    0    0  501 -0.00000000000E+00  0.00000000000E+00  0.72331207299E+01  0.72331207299E+01  0.00000000000E+00 0.  1.
          1   -1    0    0  501    0  0.00000000000E+00 -0.00000000000E+00 -0.15480064735E+04  0.15480064735E+04  0.00000000000E+00 0. -1.
         24    1    1    2    0    0 -0.11709553436E+01  0.10637994482E+02 -0.27114409492E+03  0.28302097842E+03  0.80419002446E+02 0.  1.
        -24    1    1    2    0    0  0.11709553436E+01 -0.10637994482E+02 -0.12696292579E+04  0.12722186158E+04  0.80419002446E+02 0.  0.
<mgrwt>
<rscale>  0 0.81128010E+02</rscale>
<asrwt>0</asrwt>
<pdfrwt beam="1">  1        1 0.23815501E+00 0.81128010E+02</pdfrwt>
<pdfrwt beam="2">  1       -1 0.11127870E-02 0.81128010E+02</pdfrwt>
<totfact> 0.10136700E+04</totfact>
</mgrwt>
</event>
<event>
 4    1  0.6602701E-002  0.9964029E+02  0.7546771E-02  0.1281054E+00
         -2   -1    0    0    0  501 -0.00000000000E+00  0.00000000000E+00  0.63174945692E+01  0.63174945692E+01  0.00000000000E+00 0.  1.
          2   -1    0    0  501    0  0.00000000000E+00 -0.00000000000E+00 -0.16065198660E+04  0.16065198660E+04  0.00000000000E+00 0. -1.
         24    1    1    2    0    0  0.37075606444E+02  0.45676753227E+02 -0.68110324257E+03  0.68835296860E+03  0.80419002446E+02 0.  0.
        -24    1    1    2    0    0 -0.37075606444E+02 -0.45676753227E+02 -0.91909912885E+03  0.92448439197E+03  0.80419002446E+02 0.  0.
<mgrwt>
<rscale>  0 0.99640277E+02</rscale>
<asrwt>0</asrwt>
<pdfrwt beam="1">  1        2 0.24715706E+00 0.99640290E+02</pdfrwt>
<pdfrwt beam="2">  1       -2 0.97192161E-03 0.99640290E+02</pdfrwt>
<totfact> 0.25061481E+04</totfact>
</mgrwt>
</event>
<event>
 4    1  0.6602701E-002  0.9315404E+02  0.7546771E-02  0.1295389E+00
         -2   -1    0    0    0  501 -0.00000000000E+00  0.00000000000E+00  0.13988509606E+03  0.13988509606E+03  0.00000000000E+00 0.  1.
          2   -1    0    0  501    0  0.00000000000E+00 -0.00000000000E+00 -0.62733779840E+02  0.62733779840E+02  0.00000000000E+00 0. -1.
         24    1    1    2    0    0 -0.29151053066E+02  0.36887330190E+02  0.27878100316E+02  0.97236122172E+02  0.80419002446E+02 0. -1.
        -24    1    1    2    0    0  0.29151053066E+02 -0.36887330190E+02  0.49273215902E+02  0.10538275373E+03  0.80419002446E+02 0.  1.
<mgrwt>
<rscale>  0 0.93154039E+02</rscale>
<asrwt>0</asrwt>
<pdfrwt beam="1">  1        2 0.96513507E-02 0.93154039E+02</pdfrwt>
<pdfrwt beam="2">  1       -2 0.21520784E-01 0.93154039E+02</pdfrwt>
<totfact> 0.11195149E+04</totfact>
</mgrwt>
</event>
<event>
 4    1  0.6602701E-002  0.9118755E+02  0.7546771E-02  0.1300001E+00
         -2   -1    0    0    0  501 -0.00000000000E+00  0.00000000000E+00  0.24654519395E+02  0.24654519395E+02  0.00000000000E+00 0.  1.
          2   -1    0    0  501    0  0.00000000000E+00 -0.00000000000E+00 -0.14442740057E+04  0.14442740057E+04  0.00000000000E+00 0. -1.
         24    1    1    2    0    0 -0.43587423344E+01 -0.42766269872E+02 -0.13528245232E+04  0.13558943023E+04  0.80419002446E+02 0. -1.
        -24    1    1    2    0    0  0.43587423344E+01  0.42766269872E+02 -0.66794963108E+02  0.11303422280E+03  0.80419002446E+02 0.  1.
<mgrwt>
<rscale>  0 0.91187545E+02</rscale>
<asrwt>0</asrwt>
<pdfrwt beam="1">  1        2 0.22219605E+00 0.91187545E+02</pdfrwt>
<pdfrwt beam="2">  1       -2 0.37930022E-02 0.91187545E+02</pdfrwt>
<totfact> 0.42574130E+03</totfact>
</mgrwt>
</event>
<event>
 4    1  0.6602701E-002  0.9952167E+02  0.7546771E-02  0.1281305E+00
         -3   -1    0    0    0  501 -0.00000000000E+00  0.00000000000E+00  0.61863497140E+02  0.61863497140E+02  0.00000000000E+00 0.  1.
          3   -1    0    0  501    0  0.00000000000E+00 -0.00000000000E+00 -0.19167092848E+03  0.19167092848E+03  0.00000000000E+00 0. -1.
         24    1    1    2    0    0 -0.58373733398E+02 -0.54634045184E+01 -0.11634940232E+03  0.15310695906E+03  0.80419002446E+02 0.  0.
        -24    1    1    2    0    0  0.58373733398E+02  0.54634045184E+01 -0.13458029024E+02  0.10042746656E+03  0.80419002446E+02 0.  0.
<mgrwt>
<rscale>  0 0.99521656E+02</rscale>
<asrwt>0</asrwt>
<pdfrwt beam="1">  1        3 0.29487835E-01 0.99521668E+02</pdfrwt>
<pdfrwt beam="2">  1       -3 0.95174611E-02 0.99521668E+02</pdfrwt>
<totfact> 0.19228381E+03</totfact>
</mgrwt>
</event>
<event>
 4    1  0.6602701E-002  0.1003968E+03  0.7546771E-02  0.1279464E+00
         -1   -1    0    0    0  501 -0.00000000000E+00  0.00000000000E+00  0.14919707578E+03  0.14919707578E+03  0.00000000000E+00 0.  1.
          1   -1    0    0  501    0  0.00000000000E+00 -0.00000000000E+00 -0.11131152745E+03  0.11131152745E+03  0.00000000000E+00 0. -1.
         24    1    1    2    0    0 -0.37441813757E+02 -0.47015095975E+02  0.10060594868E+03  0.14213050880E+03  0.80419002446E+02 0.  1.
        -24    1    1    2    0    0  0.37441813757E+02  0.47015095975E+02 -0.62720400356E+02  0.11837809443E+03  0.80419002446E+02 0. -1.
<mgrwt>
<rscale>  0 0.10039684E+03</rscale>
<asrwt>0</asrwt>
<pdfrwt beam="1">  1        1 0.17124850E-01 0.10039684E+03</pdfrwt>
<pdfrwt beam="2">  1       -1 0.22953396E-01 0.10039684E+03</pdfrwt>
<totfact> 0.47058840E+03</totfact>
</mgrwt>
</event>
<event>
 4    1  0.6602701E-002  0.9337668E+02  0.7546771E-02  0.1294875E+00
          1   -1    0    0  501    0  0.00000000000E+00  0.00000000000E+00  0.68769706249E+02  0.68769706249E+02  0.00000000000E+00 0. -1.
         -1   -1    0    0    0  501 -0.00000000000E+00 -0.00000000000E+00 -0.13332739839E+03  0.13332739839E+03  0.00000000000E+00 0.  1.
         24    1    1    2    0    0  0.47434149719E+02 -0.14088697390E+01 -0.99005621572E+01  0.93900056224E+02  0.80419002446E+02 0.  1.
        -24    1    1    2    0    0 -0.47434149719E+02  0.14088697390E+01 -0.54657129987E+02  0.10819704842E+03  0.80419002446E+02 0. -1.
<mgrwt>
<rscale>  0 0.93376665E+02</rscale>
<asrwt>0</asrwt>
<pdfrwt beam="1">  1        1 0.10579955E-01 0.93376677E+02</pdfrwt>
<pdfrwt beam="2">  1       -1 0.20511908E-01 0.93376677E+02</pdfrwt>
<totfact> 0.10426324E+04</totfact>
</mgrwt>
</event>
<event>
 4    1  0.6602701E-002  0.8204108E+02  0.7546771E-02  0.1323357E+00
          2   -1    0    0  501    0  0.00000000000E+00  0.00000000000E+00  0.17295318525E+04  0.17295318525E+04  0.00000000000E+00 0. -1.
         -2   -1    0    0    0  501 -0.00000000000E+00 -0.00000000000E+00 -0.40388430292E+01  0.40388430292E+01  0.00000000000E+00 0.  1.
         24    1    1    2    0    0 -0.14423047236E+02 -0.74497285213E+01  0.10282173634E+04  0.10314851841E+04  0.80419002446E+02 0. -1.
        -24    1    1    2    0    0  0.14423047236E+02  0.74497285213E+01  0.69727564610E+03  0.70208551142E+03  0.80419002446E+02 0.  1.
<mgrwt>
<rscale>  0 0.82041079E+02</rscale>
<asrwt>0</asrwt>
<pdfrwt beam="1">  1        2 0.26608123E+00 0.82041079E+02</pdfrwt>
<pdfrwt beam="2">  1       -2 0.62136185E-03 0.82041079E+02</pdfrwt>
<totfact> 0.40193321E+04</totfact>
</mgrwt>
</event>
<event>
 4    1  0.6602701E-002  0.8210609E+02  0.7546771E-02  0.1323179E+00
          2   -1    0    0  501    0  0.00000000000E+00  0.00000000000E+00  0.38367730149E+04  0.38367730149E+04  0.00000000000E+00 0. -1.
         -2   -1    0    0    0  501 -0.00000000000E+00 -0.00000000000E+00 -0.37296308296E+01  0.37296308296E+01  0.00000000000E+00 0.  1.
         24    1    1    2    0    0  0.15947435223E+02  0.44578910795E+01  0.33130261980E+04  0.33140434514E+04  0.80419002446E+02 0.  0.
        -24    1    1    2    0    0 -0.15947435223E+02 -0.44578910795E+01  0.52001718609E+03  0.52645919430E+03  0.80419002446E+02 0.  1.
<mgrwt>
<rscale>  0 0.82106086E+02</rscale>
<asrwt>0</asrwt>
<pdfrwt beam="1">  1        2 0.59026962E+00 0.82106086E+02</pdfrwt>
<pdfrwt beam="2">  1       -2 0.57379243E-03 0.82106086E+02</pdfrwt>
<totfact> 0.29364618E+03</totfact>
</mgrwt>
</event>
<event>
 4    1  0.6602701E-002  0.8493168E+02  0.7546771E-02  0.1315611E+00
          1   -1    0    0  501    0  0.00000000000E+00  0.00000000000E+00  0.17032040733E+03  0.17032040733E+03  0.00000000000E+00 0. -1.
         -1   -1    0    0    0  501 -0.00000000000E+00 -0.00000000000E+00 -0.11232679828E+03  0.11232679828E+03  0.00000000000E+00 0.  1.
         24    1    1    2    0    0  0.27007107257E+02  0.40975801465E+01 -0.82546678421E+02  0.11843708912E+03  0.80419002446E+02 0.  0.
        -24    1    1    2    0    0 -0.27007107257E+02 -0.40975801465E+01  0.14054028747E+03  0.16421011650E+03  0.80419002446E+02 0. -1.
<mgrwt>
<rscale>  0 0.84931678E+02</rscale>
<asrwt>0</asrwt>
<pdfrwt beam="1">  1        1 0.26203140E-01 0.84931678E+02</pdfrwt>
<pdfrwt beam="2">  1       -1 0.17281046E-01 0.84931678E+02</pdfrwt>
<totfact> 0.42871736E+03</totfact>
</mgrwt>
</event>
<event>
 4    1  0.6602701E-002  0.8814375E+02  0.7546771E-02  0.1307410E+00
          2   -1    0    0  501    0  0.00000000000E+00  0.00000000000E+00  0.65430389668E+03  0.65430389668E+03  0.00000000000E+00 0. -1.
         -2   -1    0    0    0  501 -0.00000000000E+00 -0.00000000000E+00 -0.20241541724E+02  0.20241541724E+02  0.00000000000E+00 0.  1.
         24    1    1    2    0    0 -0.49841195979E+01  0.35738829411E+02  0.53387833232E+03  0.54110571523E+03  0.80419002446E+02 0. -1.
        -24    1    1    2    0    0  0.49841195979E+01 -0.35738829411E+02  0.10018402264E+03  0.13343972318E+03  0.80419002446E+02 0.  1.
<mgrwt>
<rscale>  0 0.88143754E+02</rscale>
<asrwt>0</asrwt>
<pdfrwt beam="1">  1        2 0.10066212E+00 0.88143754E+02</pdfrwt>
<pdfrwt beam="2">  1       -2 0.31140838E-02 0.88143754E+02</pdfrwt>
<totfact> 0.16657198E+04</totfact>
</mgrwt>
</event>
<event>
 4    1  0.6602701E-002  0.9940156E+02  0.7546771E-02  0.1281559E+00
         -2   -1    0    0    0  501 -0.00000000000E+00  0.00000000000E+00  0.28129942179E+02  0.28129942179E+02  0.00000000000E+00 0.  1.
          2   -1    0    0  501    0  0.00000000000E+00 -0.00000000000E+00 -0.15159005366E+04  0.15159005366E+04  0.00000000000E+00 0. -1.
         24    1    1    2    0    0 -0.56224578664E+02  0.15882397377E+02 -0.14205727952E+04  0.14240462550E+04  0.80419002446E+02 0. -1.
        -24    1    1    2    0    0  0.56224578664E+02 -0.15882397377E+02 -0.67197799187E+02  0.11998422381E+03  0.80419002446E+02 0.  1.
<mgrwt>
<rscale>  0 0.99401558E+02</rscale>
<asrwt>0</asrwt>
<pdfrwt beam="1">  1        2 0.23321550E+00 0.99401558E+02</pdfrwt>
<pdfrwt beam="2">  1       -2 0.43276828E-02 0.99401558E+02</pdfrwt>
<totfact> 0.32277950E+03</totfact>
</mgrwt>
</event>
<event>
 4    1  0.6602701E-002  0.1278352E+03  0.7546771E-02  0.1230704E+00
          1   -1    0    0  501    0  0.00000000000E+00  0.00000000000E+00  0.75416063718E+03  0.75416063718E+03  0.00000000000E+00 0. -1.
         -1   -1    0    0    0  501 -0.00000000000E+00 -0.00000000000E+00 -0.21817490392E+02  0.21817490392E+02  0.00000000000E+00 0.  1.
         24    1    1    2    0    0  0.12862735696E+02 -0.98535093403E+02  0.33415210274E+03  0.35777011938E+03  0.80419002446E+02 0. -1.
        -24    1    1    2    0    0 -0.12862735696E+02  0.98535093403E+02  0.39819104405E+03  0.41820800819E+03  0.80419002446E+02 0.  0.
<mgrwt>
<rscale>  0 0.12783517E+03</rscale>
<asrwt>0</asrwt>
<pdfrwt beam="1">  1        1 0.11602469E+00 0.12783517E+03</pdfrwt>
<pdfrwt beam="2">  1       -1 0.33565376E-02 0.12783517E+03</pdfrwt>
<totfact> 0.77333375E+03</totfact>
</mgrwt>
</event>
<event>
 4    1  0.6602701E-002  0.9983845E+02  0.7546771E-02  0.1280636E+00
          1   -1    0    0  501    0  0.00000000000E+00  0.00000000000E+00  0.72682066693E+02  0.72682066693E+02  0.00000000000E+00 0. -1.
         -1   -1    0    0    0  501 -0.00000000000E+00 -0.00000000000E+00 -0.14303704170E+03  0.14303704170E+03  0.00000000000E+00 0.  1.
         24    1    1    2    0    0 -0.56019705535E+02  0.19033835367E+02 -0.13279458051E+02  0.10071769585E+03  0.80419002446E+02 0.  1.
        -24    1    1    2    0    0  0.56019705535E+02 -0.19033835367E+02 -0.57075516961E+02  0.11500141255E+03  0.80419002446E+02 0. -1.
<mgrwt>
<rscale>  0 0.99838433E+02</rscale>
<asrwt>0</asrwt>
<pdfrwt beam="1">  1        1 0.11181857E-01 0.99838446E+02</pdfrwt>
<pdfrwt beam="2">  1       -1 0.22005698E-01 0.99838446E+02</pdfrwt>
<totfact> 0.87204938E+03</totfact>
</mgrwt>
</event>
<event>
 4    1  0.6602701E-002  0.9624540E+02  0.7546771E-02  0.1288396E+00
         -2   -1    0    0    0  501 -0.00000000000E+00  0.00000000000E+00  0.24324377832E+02  0.24324377832E+02  0.00000000000E+00 0.  1.
          2   -1    0    0  501    0  0.00000000000E+00 -0.00000000000E+00 -0.10593951826E+04  0.10593951826E+04  0.00000000000E+00 0. -1.
         24    1    1    2    0    0 -0.41455150427E+01 -0.52714095047E+02 -0.95120335866E+03  0.95606014800E+03  0.80419002446E+02 0. -1.
        -24    1    1    2    0    0  0.41455150427E+01  0.52714095047E+02 -0.83867446109E+02  0.12765941243E+03  0.80419002446E+02 0.  1.
<mgrwt>
<rscale>  0 0.96245400E+02</rscale>
<asrwt>0</asrwt>
<pdfrwt beam="1">  1        2 0.16298387E+00 0.96245400E+02</pdfrwt>
<pdfrwt beam="2">  1       -2 0.37422120E-02 0.96245400E+02</pdfrwt>
<totfact> 0.70139529E+03</totfact>
</mgrwt>
</event>
<event>
 4    1  0.6602701E-002  0.9684177E+02  0.7546771E-02  0.1287081E+00
          2   -1    0    0  501    0  0.00000000000E+00  0.00000000000E+00  0.15006977502E+03  0.15006977502E+03  0.00000000000E+00 0. -1.
         -2   -1    0    0    0  501 -0.00000000000E+00 -0.00000000000E+00 -0.77082838932E+02  0.77082838932E+02  0.00000000000E+00 0.  1.
         24    1    1    2    0    0 -0.52568852091E+02  0.12150214151E+02  0.85905465893E+02  0.12945299123E+03  0.80419002446E+02 0. -1.
        -24    1    1    2    0    0  0.52568852091E+02 -0.12150214151E+02 -0.12918529801E+02  0.97699622725E+02  0.80419002446E+02 0.  1.
<mgrwt>
<rscale>  0 0.96841767E+02</rscale>
<asrwt>0</asrwt>
<pdfrwt beam="1">  1        2 0.23087658E-01 0.96841767E+02</pdfrwt>
<pdfrwt beam="2">  1       -2 0.11858898E-01 0.96841767E+02</pdfrwt>
<totfact> 0.10824665E+04</totfact>
</mgrwt>
</event>
<event>
 4    1  0.6602701E-002  0.9113624E+02  0.7546771E-02  0.1300123E+00
         -1   -1    0    0    0  501 -0.00000000000E+00  0.00000000000E+00  0.66376464626E+01  0.66376464626E+01  0.00000000000E+00 0.  1.
          1   -1    0    0  501    0  0.00000000000E+00 -0.00000000000E+00 -0.26481678367E+04  0.26481678367E+04  0.00000000000E+00 0. -1.
         24    1    1    2    0    0  0.40924131679E+02 -0.12799001727E+02 -0.35670386134E+03  0.36816227353E+03  0.80419002446E+02 0.  1.
        -24    1    1    2    0    0 -0.40924131679E+02  0.12799001727E+02 -0.22848263289E+04  0.22866432096E+04  0.80419002446E+02 0. -1.
<mgrwt>
<rscale>  0 0.91136244E+02</rscale>
<asrwt>0</asrwt>
<pdfrwt beam="1">  1        1 0.40741028E+00 0.91136244E+02</pdfrwt>
<pdfrwt beam="2">  1       -1 0.10211768E-02 0.91136244E+02</pdfrwt>
<totfact> 0.23153648E+03</totfact>
</mgrwt>
</event>
<event>
 4    1  0.6602701E-002  0.8772707E+02  0.7546771E-02  0.1308451E+00
          1   -1    0    0  501    0  0.00000000000E+00  0.00000000000E+00  0.10580344048E+03  0.10580344048E+03  0.00000000000E+00 0. -1.
         -1   -1    0    0    0  501 -0.00000000000E+00 -0.00000000000E+00 -0.75839142556E+02  0.75839142556E+02  0.00000000000E+00 0.  1.
         24    1    1    2    0    0  0.13861417050E+02 -0.32197578556E+02 -0.33802821836E+01  0.87792170548E+02  0.80419002446E+02 0.  0.
        -24    1    1    2    0    0 -0.13861417050E+02  0.32197578556E+02  0.33344580111E+02  0.93850412490E+02  0.80419002446E+02 0.  1.
<mgrwt>
<rscale>  0 0.87727071E+02</rscale>
<asrwt>0</asrwt>
<pdfrwt beam="1">  1        1 0.16277452E-01 0.87727071E+02</pdfrwt>
<pdfrwt beam="2">  1       -1 0.11667560E-01 0.87727071E+02</pdfrwt>
<totfact> 0.14297720E+04</totfact>
</mgrwt>
</event>
<event>
 4    1  0.6602701E-002  0.9186878E+02  0.7546771E-02  0.1298388E+00
         -2   -1    0    0    0  501 -0.00000000000E+00  0.00000000000E+00  0.26319478468E+02  0.26319478468E+02  0.00000000000E+00 0.  1.
          2   -1    0    0  501    0  0.00000000000E+00 -0.00000000000E+00 -0.32282421922E+03  0.32282421922E+03  0.00000000000E+00 0. -1.
         24    1    1    2    0    0  0.44319752918E+02  0.29009672031E+01 -0.16251229812E+03  0.18668186603E+03  0.80419002446E+02 0.  1.
        -24    1    1    2    0    0 -0.44319752918E+02 -0.29009672031E+01 -0.13399244263E+03  0.16246183166E+03  0.80419002446E+02 0.  0.
<mgrwt>
<rscale>  0 0.91868776E+02</rscale>
<asrwt>0</asrwt>
<pdfrwt beam="1">  1        2 0.49665263E-01 0.91868776E+02</pdfrwt>
<pdfrwt beam="2">  1       -2 0.40491507E-02 0.91868776E+02</pdfrwt>
<totfact> 0.24367077E+04</totfact>
</mgrwt>
</event>
<event>
 4    1  0.7054336E-002  0.8413235E+02  0.7546771E-02  0.1317717E+00
          1   -1    0    0  501    0  0.00000000000E+00  0.00000000000E+00  0.22228726685E+04  0.22228726685E+04  0.00000000000E+00 0. -1.
         -1   -1    0    0    0  501 -0.00000000000E+00 -0.00000000000E+00 -0.78065256694E+01  0.78065256694E+01  0.00000000000E+00 0.  1.
         24    1    1    2    0    0 -0.12879156078E+02  0.21098904578E+02  0.24930114780E+03  0.26311464171E+03  0.80419002446E+02 0.  1.
        -24    1    1    2    0    0  0.12879156078E+02 -0.21098904578E+02  0.19657649950E+04  0.19675645524E+04  0.80419002446E+02 0. -1.
<mgrwt>
<rscale>  0 0.84132350E+02</rscale>
<asrwt>0</asrwt>
<pdfrwt beam="1">  1        1 0.34197991E+00 0.84132350E+02</pdfrwt>
<pdfrwt beam="2">  1       -1 0.12010057E-02 0.84132350E+02</pdfrwt>
<totfact> 0.34449878E+03</totfact>
</mgrwt>
</event>
<event>
 4    1  0.6602701E-002  0.8151047E+02  0.7546771E-02  0.1324819E+00
          2   -1    0    0  501    0  0.00000000000E+00  0.00000000000E+00  0.20168508249E+03  0.20168508249E+03  0.00000000000E+00 0. -1.
         -2   -1    0    0    0  501 -0.00000000000E+00 -0.00000000000E+00 -0.49241244268E+02  0.49241244268E+02  0.00000000000E+00 0.  1.
         24    1    1    2    0    0 -0.38028629409E+01 -0.12738847289E+02  0.14840450265E+03  0.16931583611E+03  0.80419002446E+02 0. -1.
        -24    1    1    2    0    0  0.38028629409E+01  0.12738847289E+02  0.40393355678E+01  0.81610490643E+02  0.80419002446E+02 0.  0.
<mgrwt>
<rscale>  0 0.81510465E+02</rscale>
<asrwt>0</asrwt>
<pdfrwt beam="1">  1        2 0.31028474E-01 0.81510465E+02</pdfrwt>
<pdfrwt beam="2">  1       -2 0.75755761E-02 0.81510465E+02</pdfrwt>
<totfact> 0.15474136E+04</totfact>
</mgrwt>
</event>
<event>
 4    1  0.6602701E-002  0.1503326E+03  0.7546771E-02  0.1200065E+00
          3   -1    0    0  501    0  0.00000000000E+00  0.00000000000E+00  0.12853217084E+02  0.12853217084E+02  0.00000000000E+00 0. -1.
         -3   -1    0    0    0  501 -0.00000000000E+00 -0.00000000000E+00 -0.24571991477E+04  0.24571991477E+04  0.00000000000E+00 0.  1.
         24    1    1    2    0    0 -0.11226673040E+03  0.59404199793E+02 -0.18808329176E+04  0.18868313008E+04  0.80419002446E+02 0.  1.
        -24    1    1    2    0    0  0.11226673040E+03 -0.59404199793E+02 -0.56351301299E+03  0.58322106398E+03  0.80419002446E+02 0. -1.
<mgrwt>
<rscale>  0 0.15033261E+03</rscale>
<asrwt>0</asrwt>
<pdfrwt beam="1">  1        3 0.19774194E-02 0.15033261E+03</pdfrwt>
<pdfrwt beam="2">  1       -3 0.37803037E+00 0.15033261E+03</pdfrwt>
<totfact> 0.40385405E+01</totfact>
</mgrwt>
</event>
<event>
 4    1  0.6602701E-002  0.9510110E+02  0.7546771E-02  0.1290949E+00
         -2   -1    0    0    0  501 -0.00000000000E+00  0.00000000000E+00  0.10928722942E+03  0.10928722942E+03  0.00000000000E+00 0.  1.
          2   -1    0    0  501    0  0.00000000000E+00 -0.00000000000E+00 -0.37446752189E+03  0.37446752189E+03  0.00000000000E+00 0. -1.
         24    1    1    2    0    0 -0.27120859611E+02 -0.42912255203E+02 -0.34607381459E+03  0.35890291692E+03  0.80419002446E+02 0. -1.
        -24    1    1    2    0    0  0.27120859611E+02  0.42912255203E+02  0.80893522122E+02  0.12485183438E+03  0.80419002446E+02 0.  1.
<mgrwt>
<rscale>  0 0.95101097E+02</rscale>
<asrwt>0</asrwt>
<pdfrwt beam="1">  1        2 0.57610388E-01 0.95101097E+02</pdfrwt>
<pdfrwt beam="2">  1       -2 0.16813420E-01 0.95101097E+02</pdfrwt>
<totfact> 0.23323316E+03</totfact>
</mgrwt>
</event>
<event>
 4    1  0.6602701E-002  0.1339292E+03  0.7546771E-02  0.1221739E+00
         -2   -1    0    0    0  501 -0.00000000000E+00  0.00000000000E+00  0.33953085493E+02  0.33953085493E+02  0.00000000000E+00 0.  1.
          2   -1    0    0  501    0  0.00000000000E+00 -0.00000000000E+00 -0.14134084464E+04  0.14134084464E+04  0.00000000000E+00 0. -1.
         24    1    1    2    0    0  0.10248284812E+03 -0.31097916625E+02 -0.12624105732E+04  0.12694949728E+04  0.80419002446E+02 0. -1.
        -24    1    1    2    0    0 -0.10248284812E+03  0.31097916625E+02 -0.11704478773E+03  0.17786655916E+03  0.80419002446E+02 0.  1.
<mgrwt>
<rscale>  0 0.13392920E+03</rscale>
<asrwt>0</asrwt>
<pdfrwt beam="1">  1        2 0.21744745E+00 0.13392920E+03</pdfrwt>
<pdfrwt beam="2">  1       -2 0.52235518E-02 0.13392920E+03</pdfrwt>
<totfact> 0.27684753E+03</totfact>
</mgrwt>
</event>
<event>
 4    1  0.6602701E-002  0.8150517E+02  0.7546771E-02  0.1324833E+00
         -1   -1    0    0    0  501 -0.00000000000E+00  0.00000000000E+00  0.75914023308E+03  0.75914023308E+03  0.00000000000E+00 0.  1.
          1   -1    0    0  501    0  0.00000000000E+00 -0.00000000000E+00 -0.43526564099E+02  0.43526564099E+02  0.00000000000E+00 0. -1.
         24    1    1    2    0    0  0.25721850667E+01 -0.13010042653E+02  0.71653574349E+03  0.72115640814E+03  0.80419002446E+02 0.  1.
        -24    1    1    2    0    0 -0.25721850667E+01  0.13010042653E+02 -0.92207450952E+00  0.81510389041E+02  0.80419002446E+02 0.  0.
<mgrwt>
<rscale>  0 0.81505173E+02</rscale>
<asrwt>0</asrwt>
<pdfrwt beam="1">  1        1 0.66963950E-02 0.81505173E+02</pdfrwt>
<pdfrwt beam="2">  1       -1 0.11679080E+00 0.81505173E+02</pdfrwt>
<totfact> 0.76351659E+02</totfact>
</mgrwt>
</event>
<event>
 4    1  0.6602701E-002  0.8341955E+02  0.7546771E-02  0.1319618E+00
          2   -1    0    0  501    0  0.00000000000E+00  0.00000000000E+00  0.37600534169E+04  0.37600534169E+04  0.00000000000E+00 0. -1.
         -2   -1    0    0    0  501 -0.00000000000E+00 -0.00000000000E+00 -0.72707855174E+01  0.72707855174E+01  0.00000000000E+00 0.  1.
         24    1    1    2    0    0 -0.22142424688E+02 -0.11484611609E+01  0.35027428836E+04  0.35037360818E+04  0.80419002446E+02 0. -1.
        -24    1    1    2    0    0  0.22142424688E+02  0.11484611609E+01  0.25003974772E+03  0.26358812061E+03  0.80419002446E+02 0.  1.
<mgrwt>
<rscale>  0 0.83419553E+02</rscale>
<asrwt>0</asrwt>
<pdfrwt beam="1">  1        2 0.57846820E+00 0.83419553E+02</pdfrwt>
<pdfrwt beam="2">  1       -2 0.11185854E-02 0.83419553E+02</pdfrwt>
<totfact> 0.12962784E+03</totfact>
</mgrwt>
</event>
<event>
 4    1  0.6602701E-002  0.8685928E+02  0.7546771E-02  0.1310641E+00
         -1   -1    0    0    0  501 -0.00000000000E+00  0.00000000000E+00  0.14710289872E+03  0.14710289872E+03  0.00000000000E+00 0.  1.
          1   -1    0    0  501    0  0.00000000000E+00 -0.00000000000E+00 -0.62756601836E+02  0.62756601836E+02  0.00000000000E+00 0. -1.
         24    1    1    2    0    0 -0.25867656387E+02  0.20203531826E+02  0.87030575265E+02  0.12295875459E+03  0.80419002446E+02 0.  1.
        -24    1    1    2    0    0  0.25867656387E+02 -0.20203531826E+02 -0.26842783769E+01  0.86900745969E+02  0.80419002446E+02 0. -1.
<mgrwt>
<rscale>  0 0.86859279E+02</rscale>
<asrwt>0</asrwt>
<pdfrwt beam="1">  1        1 0.96548618E-02 0.86859279E+02</pdfrwt>
<pdfrwt beam="2">  1       -1 0.22631215E-01 0.86859279E+02</pdfrwt>
<totfact> 0.99716054E+03</totfact>
</mgrwt>
</event>
<event>
 4    1  0.6602701E-002  0.8804980E+02  0.7546771E-02  0.1307644E+00
          2   -1    0    0  501    0  0.00000000000E+00  0.00000000000E+00  0.12585051956E+03  0.12585051956E+03  0.00000000000E+00 0. -1.
         -2   -1    0    0    0  501 -0.00000000000E+00 -0.00000000000E+00 -0.70112029900E+02  0.70112029900E+02  0.00000000000E+00 0.  1.
         24    1    1    2    0    0 -0.27275288375E+02  0.23272506462E+02  0.62003260604E+02  0.10769016293E+03  0.80419002446E+02 0. -1.
        -24    1    1    2    0    0  0.27275288375E+02 -0.23272506462E+02 -0.62647709469E+01  0.88272386522E+02  0.80419002446E+02 0.  1.
<mgrwt>
<rscale>  0 0.88049798E+02</rscale>
<asrwt>0</asrwt>
<pdfrwt beam="1">  1        2 0.19361618E-01 0.88049798E+02</pdfrwt>
<pdfrwt beam="2">  1       -2 0.10786466E-01 0.88049798E+02</pdfrwt>
<totfact> 0.15134407E+04</totfact>
</mgrwt>
</event>
<event>
 4    1  0.6602701E-002  0.9167986E+02  0.7546771E-02  0.1298834E+00
          2   -1    0    0  501    0  0.00000000000E+00  0.00000000000E+00  0.53040981064E+03  0.53040981064E+03  0.00000000000E+00 0. -1.
         -2   -1    0    0    0  501 -0.00000000000E+00 -0.00000000000E+00 -0.16109853830E+02  0.16109853830E+02  0.00000000000E+00 0.  1.
         24    1    1    2    0    0 -0.41658513447E+02 -0.14231948148E+02  0.29208099457E+03  0.30613151330E+03  0.80419002446E+02 0. -1.
        -24    1    1    2    0    0  0.41658513447E+02  0.14231948148E+02  0.22221896224E+03  0.24038815117E+03  0.80419002446E+02 0.  1.
<mgrwt>
<rscale>  0 0.91679856E+02</rscale>
<asrwt>0</asrwt>
<pdfrwt beam="1">  1        2 0.81601496E-01 0.91679856E+02</pdfrwt>
<pdfrwt beam="2">  1       -2 0.24784395E-02 0.91679856E+02</pdfrwt>
<totfact> 0.29424357E+04</totfact>
</mgrwt>
</event>
<event>
 4    1  0.6602701E-002  0.1055686E+03  0.7546771E-02  0.1269003E+00
          1   -1    0    0  501    0  0.00000000000E+00  0.00000000000E+00  0.89071200215E+03  0.89071200215E+03  0.00000000000E+00 0. -1.
         -1   -1    0    0    0  501 -0.00000000000E+00 -0.00000000000E+00 -0.13202084487E+02  0.13202084487E+02  0.00000000000E+00 0.  1.
         24    1    1    2    0    0  0.63544800344E+02  0.25289765917E+02  0.33543669121E+03  0.35165679814E+03  0.80419002446E+02 0.  1.
        -24    1    1    2    0    0 -0.63544800344E+02 -0.25289765917E+02  0.54207322645E+03  0.55225728850E+03  0.80419002446E+02 0. -1.
<mgrwt>
<rscale>  0 0.10556860E+03</rscale>
<asrwt>0</asrwt>
<pdfrwt beam="1">  1        1 0.13703257E+00 0.10556860E+03</pdfrwt>
<pdfrwt beam="2">  1       -1 0.20310906E-02 0.10556860E+03</pdfrwt>
<totfact> 0.12268204E+04</totfact>
</mgrwt>
</event>
<event>
 4    1  0.6602701E-002  0.1865304E+03  0.7546771E-02  0.1161628E+00
          1   -1    0    0  501    0  0.00000000000E+00  0.00000000000E+00  0.73307412462E+03  0.73307412462E+03  0.00000000000E+00 0. -1.
         -1   -1    0    0    0  501 -0.00000000000E+00 -0.00000000000E+00 -0.80746512433E+02  0.80746512433E+02  0.00000000000E+00 0.  1.
         24    1    1    2    0    0 -0.13818501869E+03  0.96079528373E+02  0.64915119517E+02  0.19750332620E+03  0.80419002446E+02 0. -1.
        -24    1    1    2    0    0  0.13818501869E+03 -0.96079528373E+02  0.58741249267E+03  0.61631731085E+03  0.80419002446E+02 0.  1.
<mgrwt>
<rscale>  0 0.18653040E+03</rscale>
<asrwt>0</asrwt>
<pdfrwt beam="1">  1        1 0.11278063E+00 0.18653040E+03</pdfrwt>
<pdfrwt beam="2">  1       -1 0.12422541E-01 0.18653040E+03</pdfrwt>
<totfact> 0.11423601E+03</totfact>
</mgrwt>
</event>
<event>
 4    1  0.6602701E-002  0.1503860E+03  0.7546771E-02  0.1199999E+00
          1   -1    0    0  501    0  0.00000000000E+00  0.00000000000E+00  0.33249194260E+02  0.33249194260E+02  0.00000000000E+00 0. -1.
         -1   -1    0    0    0  501 -0.00000000000E+00 -0.00000000000E+00 -0.80912638111E+03  0.80912638111E+03  0.00000000000E+00 0.  1.
         24    1    1    2    0    0  0.12108670698E+02 -0.12649948754E+03 -0.55606884693E+03  0.57604558737E+03  0.80419002446E+02 0.  1.
        -24    1    1    2    0    0 -0.12108670698E+02  0.12649948754E+03 -0.21980833992E+03  0.26632998800E+03  0.80419002446E+02 0. -1.
<mgrwt>
<rscale>  0 0.15038602E+03</rscale>
<asrwt>0</asrwt>
<pdfrwt beam="1">  1        1 0.51152606E-02 0.15038602E+03</pdfrwt>
<pdfrwt beam="2">  1       -1 0.12448098E+00 0.15038602E+03</pdfrwt>
<totfact> 0.96307933E+02</totfact>
</mgrwt>
</event>
<event>
 4    1  0.6602701E-002  0.8667209E+02  0.7546771E-02  0.1311117E+00
         -2   -1    0    0    0  501 -0.00000000000E+00  0.00000000000E+00  0.17879802223E+02  0.17879802223E+02  0.00000000000E+00 0.  1.
          2   -1    0    0  501    0  0.00000000000E+00 -0.00000000000E+00 -0.42755392228E+03  0.42755392228E+03  0.00000000000E+00 0. -1.
         24    1    1    2    0    0 -0.27462217508E+02 -0.17048814490E+02 -0.23416154303E+03  0.24968716357E+03  0.80419002446E+02 0. -1.
        -24    1    1    2    0    0  0.27462217508E+02  0.17048814490E+02 -0.17551257703E+03  0.19574656093E+03  0.80419002446E+02 0.  0.
<mgrwt>
<rscale>  0 0.86672091E+02</rscale>
<asrwt>0</asrwt>
<pdfrwt beam="1">  1        2 0.65777524E-01 0.86672091E+02</pdfrwt>
<pdfrwt beam="2">  1       -2 0.27507389E-02 0.86672091E+02</pdfrwt>
<totfact> 0.31688691E+04</totfact>
</mgrwt>
</event>
<event>
 4    1  0.6602701E-002  0.1344821E+03  0.7546771E-02  0.1220953E+00
          2   -1    0    0  501    0  0.00000000000E+00  0.00000000000E+00  0.99207933931E+03  0.99207933931E+03  0.00000000000E+00 0. -1.
         -2   -1    0    0    0  501 -0.00000000000E+00 -0.00000000000E+00 -0.24270376616E+02  0.24270376616E+02  0.00000000000E+00 0.  1.
         24    1    1    2    0    0 -0.86253791927E+02  0.64641246527E+02  0.73742525856E+03  0.74958751010E+03  0.80419002446E+02 0. -1.
        -24    1    1    2    0    0  0.86253791927E+02 -0.64641246527E+02  0.23038370413E+03  0.26676220583E+03  0.80419002446E+02 0.  1.
<mgrwt>
<rscale>  0 0.13448206E+03</rscale>
<asrwt>0</asrwt>
<pdfrwt beam="1">  1        2 0.15262756E+00 0.13448206E+03</pdfrwt>
<pdfrwt beam="2">  1       -2 0.37339049E-02 0.13448206E+03</pdfrwt>
<totfact> 0.78380211E+03</totfact>
</mgrwt>
</event>
<event>
 4    1  0.6602701E-002  0.1302502E+03  0.7546771E-02  0.1227085E+00
         -2   -1    0    0    0  501 -0.00000000000E+00  0.00000000000E+00  0.67283518732E+02  0.67283518732E+02  0.00000000000E+00 0.  1.
          2   -1    0    0  501    0  0.00000000000E+00 -0.00000000000E+00 -0.36157529425E+03  0.36157529425E+03  0.00000000000E+00 0. -1.
         24    1    1    2    0    0 -0.67166561913E+02  0.77372782736E+02 -0.26511178516E+03  0.29538004186E+03  0.80419002446E+02 0. -1.
        -24    1    1    2    0    0  0.67166561913E+02 -0.77372782736E+02 -0.29179990360E+02  0.13347877112E+03  0.80419002446E+02 0.  1.
<mgrwt>
<rscale>  0 0.13025018E+03</rscale>
<asrwt>0</asrwt>
<pdfrwt beam="1">  1        2 0.55626968E-01 0.13025018E+03</pdfrwt>
<pdfrwt beam="2">  1       -2 0.10351311E-01 0.13025018E+03</pdfrwt>
<totfact> 0.53584591E+03</totfact>
</mgrwt>
</event>
<event>
 4    1  0.6602701E-002  0.8118321E+02  0.7546771E-02  0.1325727E+00
         -1   -1    0    0    0  501 -0.00000000000E+00  0.00000000000E+00  0.94792848892E+01  0.94792848892E+01  0.00000000000E+00 0.  1.
          1   -1    0    0  501    0  0.00000000000E+00 -0.00000000000E+00 -0.13528523935E+04  0.13528523935E+04  0.00000000000E+00 0. -1.
         24    1    1    2    0    0 -0.10804902348E+02  0.25983608411E+01 -0.19678787017E+03  0.21287597139E+03  0.80419002446E+02 0.  0.
        -24    1    1    2    0    0  0.10804902348E+02 -0.25983608411E+01 -0.11465852384E+04  0.11494557070E+04  0.80419002446E+02 0. -1.
<mgrwt>
<rscale>  0 0.81183209E+02</rscale>
<asrwt>0</asrwt>
<pdfrwt beam="1">  1        1 0.20813111E+00 0.81183209E+02</pdfrwt>
<pdfrwt beam="2">  1       -1 0.14583517E-02 0.81183209E+02</pdfrwt>
<totfact> 0.92252331E+03</totfact>
</mgrwt>
</event>
<event>
 4    1  0.6602701E-002  0.1737712E+03  0.7546771E-02  0.1173971E+00
         -1   -1    0    0    0  501 -0.00000000000E+00  0.00000000000E+00  0.16678758562E+03  0.16678758562E+03  0.00000000000E+00 0.  1.
          1   -1    0    0  501    0  0.00000000000E+00 -0.00000000000E+00 -0.18140833176E+03  0.18140833176E+03  0.00000000000E+00 0. -1.
         24    1    1    2    0    0 -0.15391582387E+03  0.62565433432E+01  0.45640864370E+00  0.17377183153E+03  0.80419002446E+02 0. -1.
        -24    1    1    2    0    0  0.15391582387E+03 -0.62565433432E+01 -0.15077154787E+02  0.17442408584E+03  0.80419002446E+02 0.  1.
<mgrwt>
<rscale>  0 0.17377123E+03</rscale>
<asrwt>0</asrwt>
<pdfrwt beam="1">  1        1 0.27908974E-01 0.17377123E+03</pdfrwt>
<pdfrwt beam="2">  1       -1 0.25659629E-01 0.17377123E+03</pdfrwt>
<totfact> 0.21761056E+03</totfact>
</mgrwt>
</event>
<event>
 4    1  0.6602701E-002  0.9523386E+02  0.7546771E-02  0.1290650E+00
          4   -1    0    0  501    0  0.00000000000E+00  0.00000000000E+00  0.53465557464E+02  0.53465557464E+02  0.00000000000E+00 0. -1.
         -4   -1    0    0    0  501 -0.00000000000E+00 -0.00000000000E+00 -0.35575821758E+03  0.35575821758E+03  0.00000000000E+00 0.  1.
         24    1    1    2    0    0 -0.50850262295E+02 -0.40649195128E+01 -0.31480231468E+01  0.95285879070E+02  0.80419002446E+02 0.  0.
        -24    1    1    2    0    0  0.50850262295E+02  0.40649195128E+01 -0.29914463697E+03  0.31393789597E+03  0.80419002446E+02 0.  0.
<mgrwt>
<rscale>  0 0.95233863E+02</rscale>
<asrwt>0</asrwt>
<pdfrwt beam="1">  1        4 0.82254704E-02 0.95233863E+02</pdfrwt>
<pdfrwt beam="2">  1       -4 0.54732033E-01 0.95233863E+02</pdfrwt>
<totfact> 0.52183066E+02</totfact>
</mgrwt>
</event>
<event>
 4    1  0.6602701E-002  0.8854351E+02  0.7546771E-02  0.1306418E+00
         -3   -1    0    0    0  501 -0.00000000000E+00  0.00000000000E+00  0.73100135305E+03  0.73100135305E+03  0.00000000000E+00 0.  1.
          3   -1    0    0  501    0  0.00000000000E+00 -0.00000000000E+00 -0.11121430018E+02  0.11121430018E+02  0.00000000000E+00 0. -1.
         24    1    1    2    0    0  0.27702365060E+02 -0.24603185339E+02  0.43000083395E+03  0.43902240365E+03  0.80419002446E+02 0.  0.
        -24    1    1    2    0    0 -0.27702365060E+02  0.24603185339E+02  0.28987908908E+03  0.30310037941E+03  0.80419002446E+02 0.  0.
<mgrwt>
<rscale>  0 0.88543513E+02</rscale>
<asrwt>0</asrwt>
<pdfrwt beam="1">  1        3 0.17109898E-02 0.88543513E+02</pdfrwt>
<pdfrwt beam="2">  1       -3 0.11246171E+00 0.88543513E+02</pdfrwt>
<totfact> 0.17711735E+03</totfact>
</mgrwt>
</event>
<event>
 4    1  0.7238324E-002  0.9225478E+02  0.7546771E-02  0.1297481E+00
         -1   -1    0    0    0  501 -0.00000000000E+00  0.00000000000E+00  0.20242716885E+02  0.20242716885E+02  0.00000000000E+00 0.  1.
          1   -1    0    0  501    0  0.00000000000E+00 -0.00000000000E+00 -0.19067439713E+04  0.19067439713E+04  0.00000000000E+00 0. -1.
         24    1    1    2    0    0 -0.18218721102E+02 -0.41373977178E+02 -0.92591325627E+02  0.13070614875E+03  0.80419002446E+02 0.  1.
        -24    1    1    2    0    0  0.18218721102E+02  0.41373977178E+02 -0.17939099288E+04  0.17962805394E+04  0.80419002446E+02 0. -1.
<mgrwt>
<rscale>  0 0.92254776E+02</rscale>
<asrwt>0</asrwt>
<pdfrwt beam="1">  1        1 0.29334523E+00 0.92254776E+02</pdfrwt>
<pdfrwt beam="2">  1       -1 0.31142641E-02 0.92254776E+02</pdfrwt>
<totfact> 0.13996110E+03</totfact>
</mgrwt>
</event>
<event>
 4    1  0.6602701E-002  0.1045945E+03  0.7546771E-02  0.1270921E+00
          2   -1    0    0  501    0  0.00000000000E+00  0.00000000000E+00  0.21447960627E+04  0.21447960627E+04  0.00000000000E+00 0. -1.
         -2   -1    0    0    0  501 -0.00000000000E+00 -0.00000000000E+00 -0.52284147051E+01  0.52284147051E+01  0.00000000000E+00 0.  1.
         24    1    1    2    0    0 -0.46481053725E+02 -0.48086480315E+02  0.90178465701E+03  0.90783015014E+03  0.80419002446E+02 0.  0.
        -24    1    1    2    0    0  0.46481053725E+02  0.48086480315E+02  0.12377829910E+04  0.12421943273E+04  0.80419002446E+02 0.  1.
<mgrwt>
<rscale>  0 0.10459453E+03</rscale>
<asrwt>0</asrwt>
<pdfrwt beam="1">  1        2 0.32996792E+00 0.10459455E+03</pdfrwt>
<pdfrwt beam="2">  1       -2 0.80437320E-03 0.10459455E+03</pdfrwt>
<totfact> 0.17561984E+04</totfact>
</mgrwt>
</event>
<event>
 4    1  0.6602701E-002  0.8148032E+02  0.7546771E-02  0.1324902E+00
         -3   -1    0    0    0  501 -0.00000000000E+00  0.00000000000E+00  0.30814032622E+02  0.30814032622E+02  0.00000000000E+00 0.  1.
          3   -1    0    0  501    0  0.00000000000E+00 -0.00000000000E+00 -0.33695743231E+03  0.33695743231E+03  0.00000000000E+00 0. -1.
         24    1    1    2    0    0  0.93516008965E+01  0.91855187011E+01 -0.42650433224E+02  0.91967937901E+02  0.80419002446E+02 0.  0.
        -24    1    1    2    0    0 -0.93516008965E+01 -0.91855187011E+01 -0.26349296646E+03  0.27580352703E+03  0.80419002446E+02 0. -1.
<mgrwt>
<rscale>  0 0.81480318E+02</rscale>
<asrwt>0</asrwt>
<pdfrwt beam="1">  1        3 0.51839610E-01 0.81480318E+02</pdfrwt>
<pdfrwt beam="2">  1       -3 0.47406200E-02 0.81480318E+02</pdfrwt>
<totfact> 0.19168058E+03</totfact>
</mgrwt>
</event>
<event>
 4    1  0.6602701E-002  0.8574928E+02  0.7546771E-02  0.1313485E+00
          2   -1    0    0  501    0  0.00000000000E+00  0.00000000000E+00  0.32428121655E+04  0.32428121655E+04  0.00000000000E+00 0. -1.
         -2   -1    0    0    0  501 -0.00000000000E+00 -0.00000000000E+00 -0.23776545075E+01  0.23776545075E+01  0.00000000000E+00 0.  1.
         24    1    1    2    0    0 -0.18931296166E+01 -0.29700824114E+02  0.19695349509E+04  0.19714007359E+04  0.80419002446E+02 0.  0.
        -24    1    1    2    0    0  0.18931296166E+01  0.29700824114E+02  0.12708995602E+04  0.12737890841E+04  0.80419002446E+02 0.  0.
<mgrwt>
<rscale>  0 0.85749279E+02</rscale>
<asrwt>0</asrwt>
<pdfrwt beam="1">  1        2 0.49889064E+00 0.85749279E+02</pdfrwt>
<pdfrwt beam="2">  1       -2 0.36579560E-03 0.85749279E+02</pdfrwt>
<totfact> 0.13294452E+04</totfact>
</mgrwt>
</event>
<event>
 4    1  0.6602701E-002  0.9015436E+02  0.7546771E-02  0.1302478E+00
          3   -1    0    0  501    0  0.00000000000E+00  0.00000000000E+00  0.39624870088E+02  0.39624870088E+02  0.00000000000E+00 0. -1.
         -3   -1    0    0    0  501 -0.00000000000E+00 -0.00000000000E+00 -0.86774807469E+03  0.86774807469E+03  0.00000000000E+00 0.  1.
         24    1    1    2    0    0 -0.34703599777E+02  0.21360064200E+02 -0.81051695961E+03  0.81551551178E+03  0.80419002446E+02 0.  1.
        -24    1    1    2    0    0  0.34703599777E+02 -0.21360064200E+02 -0.17606244989E+02  0.91857432998E+02  0.80419002446E+02 0. -1.
<mgrwt>
<rscale>  0 0.90154357E+02</rscale>
<asrwt>0</asrwt>
<pdfrwt beam="1">  1        3 0.60961345E-02 0.90154357E+02</pdfrwt>
<pdfrwt beam="2">  1       -3 0.13349969E+00 0.90154357E+02</pdfrwt>
<totfact> 0.16848233E+02</totfact>
</mgrwt>
</event>
<event>
 4    1  0.6602701E-002  0.8951303E+02  0.7546771E-02  0.1304035E+00
          1   -1    0    0  501    0  0.00000000000E+00  0.00000000000E+00  0.18131502301E+03  0.18131502301E+03  0.00000000000E+00 0. -1.
         -1   -1    0    0    0  501 -0.00000000000E+00 -0.00000000000E+00 -0.73007625318E+02  0.73007625318E+02  0.00000000000E+00 0.  1.
         24    1    1    2    0    0  0.19387036940E+02  0.34198087273E+02 -0.25735624674E+02  0.93139168486E+02  0.80419002446E+02 0.  1.
        -24    1    1    2    0    0 -0.19387036940E+02 -0.34198087273E+02  0.13404302237E+03  0.16118347984E+03  0.80419002446E+02 0. -1.
<mgrwt>
<rscale>  0 0.89513029E+02</rscale>
<asrwt>0</asrwt>
<pdfrwt beam="1">  1        1 0.27894619E-01 0.89513029E+02</pdfrwt>
<pdfrwt beam="2">  1       -1 0.11231942E-01 0.89513029E+02</pdfrwt>
<totfact> 0.77404045E+03</totfact>
</mgrwt>
</event>
<event>
 4    1  0.6602701E-002  0.9433586E+02  0.7546771E-02  0.1292679E+00
          1   -1    0    0  501    0  0.00000000000E+00  0.00000000000E+00  0.22611624224E+02  0.22611624224E+02  0.00000000000E+00 0. -1.
         -1   -1    0    0    0  501 -0.00000000000E+00 -0.00000000000E+00 -0.61822232544E+03  0.61822232544E+03  0.00000000000E+00 0.  1.
         24    1    1    2    0    0 -0.39645743481E+02  0.29330064086E+02 -0.49095715796E+03  0.49993818072E+03  0.80419002446E+02 0.  1.
        -24    1    1    2    0    0  0.39645743481E+02 -0.29330064086E+02 -0.10465354325E+03  0.14089576894E+03  0.80419002446E+02 0. -1.
<mgrwt>
<rscale>  0 0.94335855E+02</rscale>
<asrwt>0</asrwt>
<pdfrwt beam="1">  1        1 0.34787115E-02 0.94335855E+02</pdfrwt>
<pdfrwt beam="2">  1       -1 0.95111126E-01 0.94335855E+02</pdfrwt>
<totfact> 0.29346794E+03</totfact>
</mgrwt>
</event>
<event>
 4    1  0.6602701E-002  0.8598390E+02  0.7546771E-02  0.1312879E+00
         -2   -1    0    0    0  501 -0.00000000000E+00  0.00000000000E+00  0.57709333876E+02  0.57709333876E+02  0.00000000000E+00 0.  1.
          2   -1    0    0  501    0  0.00000000000E+00 -0.00000000000E+00 -0.13555258685E+03  0.13555258685E+03  0.00000000000E+00 0. -1.
         24    1    1    2    0    0  0.12449074559E+02 -0.27767523214E+02 -0.61561805395E+02  0.10575011414E+03  0.80419002446E+02 0. -1.
        -24    1    1    2    0    0 -0.12449074559E+02  0.27767523214E+02 -0.16281447582E+02  0.87511806590E+02  0.80419002446E+02 0.  1.
<mgrwt>
<rscale>  0 0.85983898E+02</rscale>
<asrwt>0</asrwt>
<pdfrwt beam="1">  1        2 0.20854244E-01 0.85983898E+02</pdfrwt>
<pdfrwt beam="2">  1       -2 0.88783591E-02 0.85983898E+02</pdfrwt>
<totfact> 0.18793454E+04</totfact>
</mgrwt>
</event>
<event>
 4    1  0.6602701E-002  0.8259176E+02  0.7546771E-02  0.1321853E+00
          2   -1    0    0  501    0  0.00000000000E+00  0.00000000000E+00  0.16282329761E+03  0.16282329761E+03  0.00000000000E+00 0. -1.
         -2   -1    0    0    0  501 -0.00000000000E+00 -0.00000000000E+00 -0.50956791346E+02  0.50956791346E+02  0.00000000000E+00 0.  1.
         24    1    1    2    0    0 -0.17962818959E+02 -0.56143256618E+01  0.10101029450E+03  0.13047788727E+03  0.80419002446E+02 0. -1.
        -24    1    1    2    0    0  0.17962818959E+02  0.56143256618E+01  0.10856211765E+02  0.83302201687E+02  0.80419002446E+02 0.  1.
<mgrwt>
<rscale>  0 0.82591764E+02</rscale>
<asrwt>0</asrwt>
<pdfrwt beam="1">  1        2 0.25049738E-01 0.82591764E+02</pdfrwt>
<pdfrwt beam="2">  1       -2 0.78395064E-02 0.82591764E+02</pdfrwt>
<totfact> 0.18509162E+04</totfact>
</mgrwt>
</event>
<event>
 4    1  0.6602701E-002  0.1375624E+03  0.7546771E-02  0.1216647E+00
         -1   -1    0    0    0  501 -0.00000000000E+00  0.00000000000E+00  0.11655550222E+02  0.11655550222E+02  0.00000000000E+00 0.  1.
          1   -1    0    0  501    0  0.00000000000E+00 -0.00000000000E+00 -0.28949107821E+04  0.28949107821E+04  0.00000000000E+00 0. -1.
         24    1    1    2    0    0  0.73487453534E+02 -0.83998808742E+02 -0.47853893555E+03  0.49791860227E+03  0.80419002446E+02 0.  1.
        -24    1    1    2    0    0 -0.73487453534E+02  0.83998808742E+02 -0.24047162963E+04  0.24086477301E+04  0.80419002446E+02 0. -1.
<mgrwt>
<rscale>  0 0.13756243E+03</rscale>
<asrwt>0</asrwt>
<pdfrwt beam="1">  1        1 0.44537107E+00 0.13756243E+03</pdfrwt>
<pdfrwt beam="2">  1       -1 0.17931608E-02 0.13756243E+03</pdfrwt>
<totfact> 0.70645425E+02</totfact>
</mgrwt>
</event>
<event>
 4    1  0.6602701E-002  0.2059958E+03  0.7546771E-02  0.1144777E+00
          1   -1    0    0  501    0  0.00000000000E+00  0.00000000000E+00  0.22913591004E+03  0.22913591004E+03  0.00000000000E+00 0. -1.
         -1   -1    0    0    0  501 -0.00000000000E+00 -0.00000000000E+00 -0.47541456276E+03  0.47541456276E+03  0.00000000000E+00 0.  1.
         24    1    1    2    0    0  0.17369922173E+03  0.76129104436E+02 -0.39837898350E+03  0.44848644419E+03  0.80419002446E+02 0.  1.
        -24    1    1    2    0    0 -0.17369922173E+03 -0.76129104436E+02  0.15210033078E+03  0.25606402861E+03  0.80419002446E+02 0. -1.
<mgrwt>
<rscale>  0 0.20599582E+03</rscale>
<asrwt>0</asrwt>
<pdfrwt beam="1">  1        1 0.35251679E-01 0.20599582E+03</pdfrwt>
<pdfrwt beam="2">  1       -1 0.73140701E-01 0.20599582E+03</pdfrwt>
<totfact> 0.24506028E+02</totfact>
</mgrwt>
</event>
<event>
 4    1  0.6602701E-002  0.1287663E+03  0.7546771E-02  0.1229298E+00
         -1   -1    0    0    0  501 -0.00000000000E+00  0.00000000000E+00  0.42619277120E+02  0.42619277120E+02  0.00000000000E+00 0.  1.
          1   -1    0    0  501    0  0.00000000000E+00 -0.00000000000E+00 -0.76424332061E+03  0.76424332061E+03  0.00000000000E+00 0. -1.
         24    1    1    2    0    0  0.59780217351E+01 -0.10038828917E+03 -0.78138612163E+02  0.15062006510E+03  0.80419002446E+02 0.  1.
        -24    1    1    2    0    0 -0.59780217351E+01  0.10038828917E+03 -0.64348543133E+03  0.65624253263E+03  0.80419002446E+02 0. -1.
<mgrwt>
<rscale>  0 0.12876630E+03</rscale>
<asrwt>0</asrwt>
<pdfrwt beam="1">  1        1 0.11757588E+00 0.12876630E+03</pdfrwt>
<pdfrwt beam="2">  1       -1 0.65568126E-02 0.12876630E+03</pdfrwt>
<totfact> 0.28266385E+03</totfact>
</mgrwt>
</event>
<event>
 4    1  0.6602701E-002  0.9055870E+02  0.7546771E-02  0.1301504E+00
         -4   -1    0    0    0  501 -0.00000000000E+00  0.00000000000E+00  0.35007120589E+03  0.35007120589E+03  0.00000000000E+00 0.  1.
          4   -1    0    0  501    0  0.00000000000E+00 -0.00000000000E+00 -0.35495091364E+02  0.35495091364E+02  0.00000000000E+00 0. -1.
         24    1    1    2    0    0  0.58694626776E+01 -0.41221486384E+02  0.44875045441E+02  0.10106753776E+03  0.80419002446E+02 0. -1.
        -24    1    1    2    0    0 -0.58694626776E+01  0.41221486384E+02  0.26970106908E+03  0.28449875949E+03  0.80419002446E+02 0.  1.
<mgrwt>
<rscale>  0 0.90558696E+02</rscale>
<asrwt>0</asrwt>
<pdfrwt beam="1">  1        4 0.54607835E-02 0.90558696E+02</pdfrwt>
<pdfrwt beam="2">  1       -4 0.53857106E-01 0.90558696E+02</pdfrwt>
<totfact> 0.10365191E+03</totfact>
</mgrwt>
</event>
<event>
 4    1  0.6602701E-002  0.9158641E+02  0.7546771E-02  0.1299055E+00
         -2   -1    0    0    0  501 -0.00000000000E+00  0.00000000000E+00  0.92552558993E+02  0.92552558993E+02  0.00000000000E+00 0.  1.
          2   -1    0    0  501    0  0.00000000000E+00 -0.00000000000E+00 -0.11567239139E+03  0.11567239139E+03  0.00000000000E+00 0. -1.
         24    1    1    2    0    0 -0.42113864111E+02  0.12135562847E+02  0.36882220096E+02  0.98733801454E+02  0.80419002446E+02 0.  1.
        -24    1    1    2    0    0  0.42113864111E+02 -0.12135562847E+02 -0.60002052494E+02  0.10949114893E+03  0.80419002446E+02 0. -1.
<mgrwt>
<rscale>  0 0.91586394E+02</rscale>
<asrwt>0</asrwt>
<pdfrwt beam="1">  1        2 0.17795752E-01 0.91586405E+02</pdfrwt>
<pdfrwt beam="2">  1       -2 0.14238855E-01 0.91586405E+02</pdfrwt>
<totfact> 0.10758287E+04</totfact>
</mgrwt>
</event>
<event>
 4    1  0.6602701E-002  0.8202674E+02  0.7546771E-02  0.1323396E+00
          2   -1    0    0  501    0  0.00000000000E+00  0.00000000000E+00  0.15631055842E+04  0.15631055842E+04  0.00000000000E+00 0. -1.
         -2   -1    0    0    0  501 -0.00000000000E+00 -0.00000000000E+00 -0.25208090162E+02  0.25208090162E+02  0.00000000000E+00 0.  1.
         24    1    1    2    0    0  0.16051219375E+02 -0.18785822938E+01  0.14921293304E+04  0.14943822554E+04  0.80419002446E+02 0. -1.
        -24    1    1    2    0    0 -0.16051219375E+02  0.18785822938E+01  0.45768163715E+02  0.93931419020E+02  0.80419002446E+02 0.  1.
<mgrwt>
<rscale>  0 0.82026744E+02</rscale>
<asrwt>0</asrwt>
<pdfrwt beam="1">  1        2 0.24047771E+00 0.82026744E+02</pdfrwt>
<pdfrwt beam="2">  1       -2 0.38781689E-02 0.82026744E+02</pdfrwt>
<totfact> 0.35744799E+03</totfact>
</mgrwt>
</event>
<event>
 4    1  0.6602701E-002  0.1048709E+03  0.7546771E-02  0.1270374E+00
          2   -1    0    0  501    0  0.00000000000E+00  0.00000000000E+00  0.94162093089E+03  0.94162093089E+03  0.00000000000E+00 0. -1.
         -2   -1    0    0    0  501 -0.00000000000E+00 -0.00000000000E+00 -0.30248517525E+02  0.30248517525E+02  0.00000000000E+00 0.  1.
         24    1    1    2    0    0  0.43385710570E+02 -0.51462282093E+02  0.83641643669E+03  0.84296521747E+03  0.80419002446E+02 0. -1.
        -24    1    1    2    0    0 -0.43385710570E+02  0.51462282093E+02  0.74955976677E+02  0.12890423094E+03  0.80419002446E+02 0.  1.
<mgrwt>
<rscale>  0 0.10487088E+03</rscale>
<asrwt>0</asrwt>
<pdfrwt beam="1">  1        2 0.14486474E+00 0.10487088E+03</pdfrwt>
<pdfrwt beam="2">  1       -2 0.46536188E-02 0.10487088E+03</pdfrwt>
<totfact> 0.59903521E+03</totfact>
</mgrwt>
</event>
<event>
 4    1  0.6602701E-002  0.1132361E+03  0.7546771E-02  0.1254692E+00
         -2   -1    0    0    0  501 -0.00000000000E+00  0.00000000000E+00  0.39327908086E+02  0.39327908086E+02  0.00000000000E+00 0.  1.
          2   -1    0    0  501    0  0.00000000000E+00 -0.00000000000E+00 -0.14443204897E+04  0.14443204897E+04  0.00000000000E+00 0. -1.
         24    1    1    2    0    0  0.15395988377E+02  0.78218660473E+02 -0.13552432837E+04  0.13599657236E+04  0.80419002446E+02 0. -1.
        -24    1    1    2    0    0 -0.15395988377E+02 -0.78218660473E+02 -0.49749297908E+02  0.12368267422E+03  0.80419002446E+02 0.  1.
<mgrwt>
<rscale>  0 0.11323609E+03</rscale>
<asrwt>0</asrwt>
<pdfrwt beam="1">  1        2 0.22220311E+00 0.11323609E+03</pdfrwt>
<pdfrwt beam="2">  1       -2 0.60504487E-02 0.11323609E+03</pdfrwt>
<totfact> 0.21339044E+03</totfact>
</mgrwt>
</event>
<event>
 4    1  0.6602701E-002  0.1945938E+03  0.7546771E-02  0.1154382E+00
         -2   -1    0    0    0  501 -0.00000000000E+00  0.00000000000E+00  0.17456137650E+02  0.17456137650E+02  0.00000000000E+00 0.  1.
          2   -1    0    0  501    0  0.00000000000E+00 -0.00000000000E+00 -0.24542790473E+04  0.24542790473E+04  0.00000000000E+00 0. -1.
         24    1    1    2    0    0  0.13881171005E+02 -0.17665460514E+03 -0.16395775571E+04  0.16510848913E+04  0.80419002446E+02 0. -1.
        -24    1    1    2    0    0 -0.13881171005E+02  0.17665460514E+03 -0.79724535255E+03  0.82065029370E+03  0.80419002446E+02 0.  1.
<mgrwt>
<rscale>  0 0.19459381E+03</rscale>
<asrwt>0</asrwt>
<pdfrwt beam="1">  1        2 0.37758132E+00 0.19459381E+03</pdfrwt>
<pdfrwt beam="2">  1       -2 0.26855601E-02 0.19459381E+03</pdfrwt>
<totfact> 0.21370520E+03</totfact>
</mgrwt>
</event>
<event>
 4    1  0.6602701E-002  0.9615636E+02  0.7546771E-02  0.1288593E+00
         -1   -1    0    0    0  501 -0.00000000000E+00  0.00000000000E+00  0.43693446812E+02  0.43693446812E+02  0.00000000000E+00 0.  1.
          1   -1    0    0  501    0  0.00000000000E+00 -0.00000000000E+00 -0.42032129854E+03  0.42032129854E+03  0.00000000000E+00 0. -1.
         24    1    1    2    0    0 -0.20867141875E+02  0.48408595890E+02 -0.24827284778E+02  0.99309817188E+02  0.80419002446E+02 0.  1.
        -24    1    1    2    0    0  0.20867141875E+02 -0.48408595890E+02 -0.35180056695E+03  0.36470492817E+03  0.80419002446E+02 0. -1.
<mgrwt>
<rscale>  0 0.96156361E+02</rscale>
<asrwt>0</asrwt>
<pdfrwt beam="1">  1        1 0.64664816E-01 0.96156361E+02</pdfrwt>
<pdfrwt beam="2">  1       -1 0.67220686E-02 0.96156361E+02</pdfrwt>
<totfact> 0.59872553E+03</totfact>
</mgrwt>
</event>
<event>
 4    1  0.6602701E-002  0.1086340E+03  0.7546771E-02  0.1263121E+00
         -1   -1    0    0    0  501 -0.00000000000E+00  0.00000000000E+00  0.48478291472E+03  0.48478291472E+03  0.00000000000E+00 0.  1.
          1   -1    0    0  501    0  0.00000000000E+00 -0.00000000000E+00 -0.37890025923E+02  0.37890025923E+02  0.00000000000E+00 0. -1.
         24    1    1    2    0    0  0.62325223734E+02 -0.38074884497E+02  0.67185504837E+02  0.12773111742E+03  0.80419002446E+02 0. -1.
        -24    1    1    2    0    0 -0.62325223734E+02  0.38074884497E+02  0.37970738396E+03  0.39494182323E+03  0.80419002446E+02 0.  1.
<mgrwt>
<rscale>  0 0.10863402E+03</rscale>
<asrwt>0</asrwt>
<pdfrwt beam="1">  1        1 0.58292351E-02 0.10863403E+03</pdfrwt>
<pdfrwt beam="2">  1       -1 0.74581982E-01 0.10863403E+03</pdfrwt>
<totfact> 0.24247127E+03</totfact>
</mgrwt>
</event>
<event>
 4    1  0.6602701E-002  0.1824226E+03  0.7546771E-02  0.1165479E+00
         -2   -1    0    0    0  501 -0.00000000000E+00  0.00000000000E+00  0.67088140637E+02  0.67088140637E+02  0.00000000000E+00 0.  1.
          2   -1    0    0  501    0  0.00000000000E+00 -0.00000000000E+00 -0.49904954000E+03  0.49904954000E+03  0.00000000000E+00 0. -1.
         24    1    1    2    0    0 -0.16102419753E+03  0.29698283385E+02 -0.19397650172E+03  0.26627970144E+03  0.80419002446E+02 0. -1.
        -24    1    1    2    0    0  0.16102419753E+03 -0.29698283385E+02 -0.23798489764E+03  0.29985797919E+03  0.80419002446E+02 0.  0.
<mgrwt>
<rscale>  0 0.18242260E+03</rscale>
<asrwt>0</asrwt>
<pdfrwt beam="1">  1        2 0.76776849E-01 0.18242262E+03</pdfrwt>
<pdfrwt beam="2">  1       -2 0.10321253E-01 0.18242262E+03</pdfrwt>
<totfact> 0.38617927E+03</totfact>
</mgrwt>
</event>
<event>
 4    1  0.1632567E-001  0.1008253E+03  0.7546771E-02  0.1278570E+00
         -1   -1    0    0    0  501 -0.00000000000E+00  0.00000000000E+00  0.21049754819E+03  0.21049754819E+03  0.00000000000E+00 0.  1.
          1   -1    0    0  501    0  0.00000000000E+00 -0.00000000000E+00 -0.30875658117E+04  0.30875658117E+04  0.00000000000E+00 0. -1.
         24    1    1    2    0    0  0.26743994480E+02 -0.54619490481E+02  0.19755012679E+03  0.22179224182E+03  0.80419002446E+02 0.  1.
        -24    1    1    2    0    0 -0.26743994480E+02  0.54619490481E+02 -0.30746183903E+04  0.30762711180E+04  0.80419002446E+02 0. -1.
<mgrwt>
<rscale>  0 0.10082532E+03</rscale>
<asrwt>0</asrwt>
<pdfrwt beam="1">  1        1 0.47501009E+00 0.10082532E+03</pdfrwt>
<pdfrwt beam="2">  1       -1 0.32384241E-01 0.10082532E+03</pdfrwt>
<totfact> 0.66332480E+00</totfact>
</mgrwt>
</event>
<event>
 4    1  0.6751523E-002  0.9738652E+02  0.7546771E-02  0.1285890E+00
         -1   -1    0    0    0  501 -0.00000000000E+00  0.00000000000E+00  0.55102403837E+01  0.55102403837E+01  0.00000000000E+00 0.  1.
          1   -1    0    0  501    0  0.00000000000E+00 -0.00000000000E+00 -0.23268199670E+04  0.23268199670E+04  0.00000000000E+00 0. -1.
         24    1    1    2    0    0 -0.18091095897E+02 -0.51861640770E+02 -0.56569900337E+03  0.57402046645E+03  0.80419002446E+02 0.  1.
        -24    1    1    2    0    0  0.18091095897E+02  0.51861640770E+02 -0.17556107232E+04  0.17583097409E+04  0.80419002446E+02 0. -1.
<mgrwt>
<rscale>  0 0.97386516E+02</rscale>
<asrwt>0</asrwt>
<pdfrwt beam="1">  1        1 0.35797179E+00 0.97386516E+02</pdfrwt>
<pdfrwt beam="2">  1       -1 0.84773049E-03 0.97386516E+02</pdfrwt>
<totfact> 0.48546066E+03</totfact>
</mgrwt>
</event>
<event>
 4    1  0.6602701E-002  0.8177675E+02  0.7546771E-02  0.1324084E+00
         -1   -1    0    0    0  501 -0.00000000000E+00  0.00000000000E+00  0.77864434425E+01  0.77864434425E+01  0.00000000000E+00 0.  1.
          1   -1    0    0  501    0  0.00000000000E+00 -0.00000000000E+00 -0.86584846580E+03  0.86584846580E+03  0.00000000000E+00 0. -1.
         24    1    1    2    0    0 -0.14108550006E+02  0.46010384798E+01 -0.38977717056E+03  0.39826332920E+03  0.80419002446E+02 0.  1.
        -24    1    1    2    0    0  0.14108550006E+02 -0.46010384798E+01 -0.46828485180E+03  0.47537158005E+03  0.80419002446E+02 0. -1.
<mgrwt>
<rscale>  0 0.81776749E+02</rscale>
<asrwt>0</asrwt>
<pdfrwt beam="1">  1        1 0.13320741E+00 0.81776749E+02</pdfrwt>
<pdfrwt beam="2">  1       -1 0.11979148E-02 0.81776749E+02</pdfrwt>
<totfact> 0.26545881E+04</totfact>
</mgrwt>
</event>
<event>
 4    1  0.6602701E-002  0.9811396E+02  0.7546771E-02  0.1284313E+00
          2   -1    0    0  501    0  0.00000000000E+00  0.00000000000E+00  0.29613572411E+04  0.29613572411E+04  0.00000000000E+00 0. -1.
         -2   -1    0    0    0  501 -0.00000000000E+00 -0.00000000000E+00 -0.35619583935E+01  0.35619583935E+01  0.00000000000E+00 0.  1.
         24    1    1    2    0    0  0.48875874478E+02  0.27753943616E+02  0.19171567077E+04  0.19196656455E+04  0.80419002446E+02 0. -1.
        -24    1    1    2    0    0 -0.48875874478E+02 -0.27753943616E+02  0.10406385750E+04  0.10452535541E+04  0.80419002446E+02 0.  1.
<mgrwt>
<rscale>  0 0.98113956E+02</rscale>
<asrwt>0</asrwt>
<pdfrwt beam="1">  1        2 0.45559145E+00 0.98113956E+02</pdfrwt>
<pdfrwt beam="2">  1       -2 0.54799597E-03 0.98113956E+02</pdfrwt>
<totfact> 0.11043205E+04</totfact>
</mgrwt>
</event>
<event>
 4    1  0.6602701E-002  0.8433528E+02  0.7546771E-02  0.1317180E+00
          2   -1    0    0  501    0  0.00000000000E+00  0.00000000000E+00  0.13822711721E+04  0.13822711721E+04  0.00000000000E+00 0. -1.
         -2   -1    0    0    0  501 -0.00000000000E+00 -0.00000000000E+00 -0.61458057868E+01  0.61458057868E+01  0.00000000000E+00 0.  1.
         24    1    1    2    0    0  0.23353234715E+02 -0.99924964573E+01  0.96813660611E+03  0.97180292631E+03  0.80419002446E+02 0.  0.
        -24    1    1    2    0    0 -0.23353234715E+02  0.99924964573E+01  0.40798876018E+03  0.41661405155E+03  0.80419002446E+02 0. -1.
<mgrwt>
<rscale>  0 0.84335280E+02</rscale>
<asrwt>0</asrwt>
<pdfrwt beam="1">  1        2 0.21265686E+00 0.84335280E+02</pdfrwt>
<pdfrwt beam="2">  1       -2 0.94550968E-03 0.84335280E+02</pdfrwt>
<totfact> 0.33483901E+04</totfact>
</mgrwt>
</event>
<event>
 4    1  0.6602701E-002  0.1008933E+03  0.7546771E-02  0.1278429E+00
         -2   -1    0    0    0  501 -0.00000000000E+00  0.00000000000E+00  0.13457328066E+03  0.13457328066E+03  0.00000000000E+00 0.  1.
          2   -1    0    0  501    0  0.00000000000E+00 -0.00000000000E+00 -0.75645171576E+02  0.75645171576E+02  0.00000000000E+00 0. -1.
         24    1    1    2    0    0  0.37077786635E+02 -0.48347529843E+02  0.30086546550E+02  0.10528372211E+03  0.80419002446E+02 0.  1.
        -24    1    1    2    0    0 -0.37077786635E+02  0.48347529843E+02  0.28841562538E+02  0.10493473013E+03  0.80419002446E+02 0. -1.
<mgrwt>
<rscale>  0 0.10089333E+03</rscale>
<asrwt>0</asrwt>
<pdfrwt beam="1">  1        2 0.11637719E-01 0.10089334E+03</pdfrwt>
<pdfrwt beam="2">  1       -2 0.20703582E-01 0.10089334E+03</pdfrwt>
<totfact> 0.96093152E+03</totfact>
</mgrwt>
</event>
<event>
 4    1  0.6602701E-002  0.1728403E+03  0.7546771E-02  0.1174918E+00
          2   -1    0    0  501    0  0.00000000000E+00  0.00000000000E+00  0.81167769208E+03  0.81167769208E+03  0.00000000000E+00 0. -1.
         -2   -1    0    0    0  501 -0.00000000000E+00 -0.00000000000E+00 -0.76405956957E+02  0.76405956957E+02  0.00000000000E+00 0.  1.
         24    1    1    2    0    0  0.12884290151E+03 -0.82498762501E+02  0.68731434321E+03  0.70871345509E+03  0.80419002446E+02 0. -1.
        -24    1    1    2    0    0 -0.12884290151E+03  0.82498762501E+02  0.47957391912E+02  0.17937019395E+03  0.80419002446E+02 0.  1.
<mgrwt>
<rscale>  0 0.17284026E+03</rscale>
<asrwt>0</asrwt>
<pdfrwt beam="1">  1        2 0.12487349E+00 0.17284026E+03</pdfrwt>
<pdfrwt beam="2">  1       -2 0.11754763E-01 0.17284026E+03</pdfrwt>
<totfact> 0.17707839E+03</totfact>
</mgrwt>
</event>
<event>
 4    1  0.6602701E-002  0.1034986E+03  0.7546771E-02  0.1273106E+00
         -1   -1    0    0    0  501 -0.00000000000E+00  0.00000000000E+00  0.85295174695E+02  0.85295174695E+02  0.00000000000E+00 0.  1.
          1   -1    0    0  501    0  0.00000000000E+00 -0.00000000000E+00 -0.12567473340E+03  0.12567473340E+03  0.00000000000E+00 0. -1.
         24    1    1    2    0    0  0.19488839189E+02 -0.62168485232E+02 -0.17400144316E+02  0.10495101898E+03  0.80419002446E+02 0.  0.
        -24    1    1    2    0    0 -0.19488839189E+02  0.62168485232E+02 -0.22979414393E+02  0.10601888912E+03  0.80419002446E+02 0. -1.
<mgrwt>
<rscale>  0 0.10349856E+03</rscale>
<asrwt>0</asrwt>
<pdfrwt beam="1">  1        1 0.19334574E-01 0.10349856E+03</pdfrwt>
<pdfrwt beam="2">  1       -1 0.13122335E-01 0.10349856E+03</pdfrwt>
<totfact> 0.97567470E+03</totfact>
</mgrwt>
</event>
<event>
 4    1  0.6602701E-002  0.8243821E+02  0.7546771E-02  0.1322271E+00
         -2   -1    0    0    0  501 -0.00000000000E+00  0.00000000000E+00  0.12599566364E+02  0.12599566364E+02  0.00000000000E+00 0.  1.
          2   -1    0    0  501    0  0.00000000000E+00 -0.00000000000E+00 -0.98400852213E+03  0.98400852213E+03  0.00000000000E+00 0. -1.
         24    1    1    2    0    0  0.17380470433E+02 -0.51732384573E+01 -0.82066187370E+03  0.82479207686E+03  0.80419002446E+02 0. -1.
        -24    1    1    2    0    0 -0.17380470433E+02  0.51732384573E+01 -0.15074708206E+03  0.17181601163E+03  0.80419002446E+02 0.  0.
<mgrwt>
<rscale>  0 0.82438214E+02</rscale>
<asrwt>0</asrwt>
<pdfrwt beam="1">  1        2 0.15138598E+00 0.82438214E+02</pdfrwt>
<pdfrwt beam="2">  1       -2 0.19383941E-02 0.82438214E+02</pdfrwt>
<totfact> 0.19897373E+04</totfact>
</mgrwt>
</event>
<event>
 4    1  0.6602701E-002  0.8226446E+02  0.7546771E-02  0.1322745E+00
          3   -1    0    0  501    0  0.00000000000E+00  0.00000000000E+00  0.16343701714E+03  0.16343701714E+03  0.00000000000E+00 0. -1.
         -3   -1    0    0    0  501 -0.00000000000E+00 -0.00000000000E+00 -0.53795650753E+02  0.53795650753E+02  0.00000000000E+00 0.  1.
         24    1    1    2    0    0 -0.17284155738E+02  0.12178979161E+01  0.26972446077E+01  0.82308665387E+02  0.80419002446E+02 0.  0.
        -24    1    1    2    0    0  0.17284155738E+02 -0.12178979161E+01  0.10694412178E+03  0.13492400251E+03  0.80419002446E+02 0. -1.
<mgrwt>
<rscale>  0 0.82264459E+02</rscale>
<asrwt>0</asrwt>
<pdfrwt beam="1">  1        3 0.25144156E-01 0.82264459E+02</pdfrwt>
<pdfrwt beam="2">  1       -3 0.82762540E-02 0.82264459E+02</pdfrwt>
<totfact> 0.30932960E+03</totfact>
</mgrwt>
</event>
<event>
 4    1  0.6602701E-002  0.8938587E+02  0.7546771E-02  0.1304346E+00
         -1   -1    0    0    0  501 -0.00000000000E+00  0.00000000000E+00  0.64197702269E+01  0.64197702269E+01  0.00000000000E+00 0.  1.
          1   -1    0    0  501    0  0.00000000000E+00 -0.00000000000E+00 -0.14847672751E+04  0.14847672751E+04  0.00000000000E+00 0. -1.
         24    1    1    2    0    0  0.31740953714E+01  0.38891369376E+02 -0.10390626229E+04  0.10429002655E+04  0.80419002446E+02 0.  0.
        -24    1    1    2    0    0 -0.31740953714E+01 -0.38891369376E+02 -0.43928488195E+03  0.44828677981E+03  0.80419002446E+02 0.  0.
<mgrwt>
<rscale>  0 0.89385857E+02</rscale>
<asrwt>0</asrwt>
<pdfrwt beam="1">  1        1 0.22842588E+00 0.89385868E+02</pdfrwt>
<pdfrwt beam="2">  1       -1 0.98765634E-03 0.89385868E+02</pdfrwt>
<totfact> 0.13235836E+04</totfact>
</mgrwt>
</event>
<event>
 4    1  0.6602701E-002  0.1014412E+03  0.7546771E-02  0.1277294E+00
         -1   -1    0    0    0  501 -0.00000000000E+00  0.00000000000E+00  0.47140617529E+01  0.47140617529E+01  0.00000000000E+00 0.  1.
          1   -1    0    0  501    0  0.00000000000E+00 -0.00000000000E+00 -0.21872577210E+04  0.21872577210E+04  0.00000000000E+00 0. -1.
         24    1    1    2    0    0 -0.45108960856E+02 -0.42288140579E+02 -0.10423469514E+04  0.10472714492E+04  0.80419002446E+02 0. -1.
        -24    1    1    2    0    0  0.45108960856E+02  0.42288140579E+02 -0.11401967078E+04  0.11447003335E+04  0.80419002446E+02 0.  0.
<mgrwt>
<rscale>  0 0.10144122E+03</rscale>
<asrwt>0</asrwt>
<pdfrwt beam="1">  1        1 0.33650012E+00 0.10144122E+03</pdfrwt>
<pdfrwt beam="2">  1       -1 0.72524256E-03 0.10144122E+03</pdfrwt>
<totfact> 0.74279298E+03</totfact>
</mgrwt>
</event>
<event>
 4    1  0.6602701E-002  0.1021793E+03  0.7546771E-02  0.1275779E+00
         -1   -1    0    0    0  501 -0.00000000000E+00  0.00000000000E+00  0.87199402960E+02  0.87199402960E+02  0.00000000000E+00 0.  1.
          1   -1    0    0  501    0  0.00000000000E+00 -0.00000000000E+00 -0.12218494153E+03  0.12218494153E+03  0.00000000000E+00 0. -1.
         24    1    1    2    0    0 -0.43217400264E+02  0.45887200769E+02 -0.32325205798E+02  0.10717048924E+03  0.80419002446E+02 0.  1.
        -24    1    1    2    0    0  0.43217400264E+02 -0.45887200769E+02 -0.26603327725E+01  0.10221385525E+03  0.80419002446E+02 0. -1.
<mgrwt>
<rscale>  0 0.10217924E+03</rscale>
<asrwt>0</asrwt>
<pdfrwt beam="1">  1        1 0.18797683E-01 0.10217925E+03</pdfrwt>
<pdfrwt beam="2">  1       -1 0.13415293E-01 0.10217925E+03</pdfrwt>
<totfact> 0.97607554E+03</totfact>
</mgrwt>
</event>
<event>
 4    1  0.6602701E-002  0.9027566E+02  0.7546771E-02  0.1302186E+00
          3   -1    0    0  501    0  0.00000000000E+00  0.00000000000E+00  0.19178677014E+02  0.19178677014E+02  0.00000000000E+00 0. -1.
         -3   -1    0    0    0  501 -0.00000000000E+00 -0.00000000000E+00 -0.55765176312E+03  0.55765176312E+03  0.00000000000E+00 0.  1.
         24    1    1    2    0    0  0.38279463713E+02  0.14736385790E+02 -0.40993821194E+03  0.41976068417E+03  0.80419002446E+02 0.  0.
        -24    1    1    2    0    0 -0.38279463713E+02 -0.14736385790E+02 -0.12853487416E+03  0.15706975596E+03  0.80419002446E+02 0.  0.
<mgrwt>
<rscale>  0 0.90275658E+02</rscale>
<asrwt>0</asrwt>
<pdfrwt beam="1">  1        3 0.29505658E-02 0.90275658E+02</pdfrwt>
<pdfrwt beam="2">  1       -3 0.85792575E-01 0.90275658E+02</pdfrwt>
<totfact> 0.14278465E+03</totfact>
</mgrwt>
</event>
<event>
 4    1  0.6602701E-002  0.9133038E+02  0.7546771E-02  0.1299662E+00
         -2   -1    0    0    0  501 -0.00000000000E+00  0.00000000000E+00  0.16164349778E+03  0.16164349778E+03  0.00000000000E+00 0.  1.
          2   -1    0    0  501    0  0.00000000000E+00 -0.00000000000E+00 -0.32557583480E+03  0.32557583480E+03  0.00000000000E+00 0. -1.
         24    1    1    2    0    0  0.20997687103E+02  0.37856560476E+02 -0.30543782042E+03  0.31880009431E+03  0.80419002446E+02 0. -1.
        -24    1    1    2    0    0 -0.20997687103E+02 -0.37856560476E+02  0.14150548340E+03  0.16841923827E+03  0.80419002446E+02 0.  1.
<mgrwt>
<rscale>  0 0.91330378E+02</rscale>
<asrwt>0</asrwt>
<pdfrwt beam="1">  1        2 0.50088590E-01 0.91330378E+02</pdfrwt>
<pdfrwt beam="2">  1       -2 0.24868231E-01 0.91330378E+02</pdfrwt>
<totfact> 0.13954942E+03</totfact>
</mgrwt>
</event>
<event>
 4    1  0.6602701E-002  0.9635825E+02  0.7546771E-02  0.1288146E+00
          2   -1    0    0  501    0  0.00000000000E+00  0.00000000000E+00  0.56219639420E+03  0.56219639420E+03  0.00000000000E+00 0. -1.
         -2   -1    0    0    0  501 -0.00000000000E+00 -0.00000000000E+00 -0.35987123352E+02  0.35987123352E+02  0.00000000000E+00 0.  1.
         24    1    1    2    0    0 -0.36409335554E+02 -0.38627156971E+02  0.48310975450E+03  0.49262556553E+03  0.80419002446E+02 0. -1.
        -24    1    1    2    0    0  0.36409335554E+02  0.38627156971E+02  0.43099516354E+02  0.10555795202E+03  0.80419002446E+02 0.  1.
<mgrwt>
<rscale>  0 0.96358253E+02</rscale>
<asrwt>0</asrwt>
<pdfrwt beam="1">  1        2 0.86491746E-01 0.96358253E+02</pdfrwt>
<pdfrwt beam="2">  1       -2 0.55364809E-02 0.96358253E+02</pdfrwt>
<totfact> 0.85191909E+03</totfact>
</mgrwt>
</event>
<event>
 4    1  0.6602701E-002  0.1138183E+03  0.7546771E-02  0.1253658E+00
          2   -1    0    0  501    0  0.00000000000E+00  0.00000000000E+00  0.86728439536E+02  0.86728439536E+02  0.00000000000E+00 0. -1.
         -2   -1    0    0    0  501 -0.00000000000E+00 -0.00000000000E+00 -0.15129489768E+03  0.15129489768E+03  0.00000000000E+00 0.  1.
         24    1    1    2    0    0  0.13943882136E+01  0.80532229248E+02 -0.18858174034E+02  0.11536997421E+03  0.80419002446E+02 0.  1.
        -24    1    1    2    0    0 -0.13943882136E+01 -0.80532229248E+02 -0.45708284106E+02  0.12265336300E+03  0.80419002446E+02 0. -1.
<mgrwt>
<rscale>  0 0.11381828E+03</rscale>
<asrwt>0</asrwt>
<pdfrwt beam="1">  1        2 0.13342837E-01 0.11381828E+03</pdfrwt>
<pdfrwt beam="2">  1       -2 0.23276138E-01 0.11381828E+03</pdfrwt>
<totfact> 0.67596873E+03</totfact>
</mgrwt>
</event>
<event>
 4    1  0.6602701E-002  0.1579263E+03  0.7546771E-02  0.1191058E+00
          2   -1    0    0  501    0  0.00000000000E+00  0.00000000000E+00  0.44751295755E+03  0.44751295755E+03  0.00000000000E+00 0. -1.
         -2   -1    0    0    0  501 -0.00000000000E+00 -0.00000000000E+00 -0.14084337586E+03  0.14084337586E+03  0.00000000000E+00 0.  1.
         24    1    1    2    0    0 -0.13105967445E+03  0.36012114297E+02  0.38201911910E+03  0.41337553623E+03  0.80419002446E+02 0. -1.
        -24    1    1    2    0    0  0.13105967445E+03 -0.36012114297E+02 -0.75349537403E+02  0.17498079718E+03  0.80419002446E+02 0.  1.
<mgrwt>
<rscale>  0 0.15792633E+03</rscale>
<asrwt>0</asrwt>
<pdfrwt beam="1">  1        2 0.68848147E-01 0.15792633E+03</pdfrwt>
<pdfrwt beam="2">  1       -2 0.21668212E-01 0.15792633E+03</pdfrwt>
<totfact> 0.12797758E+03</totfact>
</mgrwt>
</event>
<event>
 4    1  0.6602701E-002  0.1259432E+03  0.7546771E-02  0.1233602E+00
         -2   -1    0    0    0  501 -0.00000000000E+00  0.00000000000E+00  0.95106216720E+02  0.95106216720E+02  0.00000000000E+00 0.  1.
          2   -1    0    0  501    0  0.00000000000E+00 -0.00000000000E+00 -0.17289825618E+03  0.17289825618E+03  0.00000000000E+00 0. -1.
         24    1    1    2    0    0  0.65128303933E+02  0.71782907308E+02 -0.64106102383E+02  0.14131981486E+03  0.80419002446E+02 0.  0.
        -24    1    1    2    0    0 -0.65128303933E+02 -0.71782907308E+02 -0.13685937076E+02  0.12668465804E+03  0.80419002446E+02 0.  1.
<mgrwt>
<rscale>  0 0.12594323E+03</rscale>
<asrwt>0</asrwt>
<pdfrwt beam="1">  1        2 0.26599732E-01 0.12594323E+03</pdfrwt>
<pdfrwt beam="2">  1       -2 0.14631726E-01 0.12594323E+03</pdfrwt>
<totfact> 0.67588467E+03</totfact>
</mgrwt>
</event>
<event>
 4    1  0.6602701E-002  0.8723237E+02  0.7546771E-02  0.1309696E+00
         -4   -1    0    0    0  501 -0.00000000000E+00  0.00000000000E+00  0.18650014221E+03  0.18650014221E+03  0.00000000000E+00 0.  1.
          4   -1    0    0  501    0  0.00000000000E+00 -0.00000000000E+00 -0.44783756486E+02  0.44783756486E+02  0.00000000000E+00 0. -1.
         24    1    1    2    0    0 -0.12805517227E+02 -0.31277601348E+02  0.36374024844E+02  0.94512196331E+02  0.80419002446E+02 0.  0.
        -24    1    1    2    0    0  0.12805517227E+02  0.31277601348E+02  0.10534236088E+03  0.13677170236E+03  0.80419002446E+02 0. -1.
<mgrwt>
<rscale>  0 0.87232365E+02</rscale>
<asrwt>0</asrwt>
<pdfrwt beam="1">  1        4 0.68898088E-02 0.87232365E+02</pdfrwt>
<pdfrwt beam="2">  1       -4 0.28692329E-01 0.87232365E+02</pdfrwt>
<totfact> 0.24041255E+03</totfact>
</mgrwt>
</event>
<event>
 4    1  0.6602701E-002  0.1348797E+03  0.7546771E-02  0.1220390E+00
         -2   -1    0    0    0  501 -0.00000000000E+00  0.00000000000E+00  0.21419158697E+03  0.21419158697E+03  0.00000000000E+00 0.  1.
          2   -1    0    0  501    0  0.00000000000E+00 -0.00000000000E+00 -0.33397615198E+03  0.33397615198E+03  0.00000000000E+00 0. -1.
         24    1    1    2    0    0 -0.65645546552E+02  0.86116023473E+02 -0.29657178757E+03  0.32580262187E+03  0.80419002446E+02 0. -1.
        -24    1    1    2    0    0  0.65645546552E+02 -0.86116023473E+02  0.17678722256E+03  0.22236511708E+03  0.80419002446E+02 0.  1.
<mgrwt>
<rscale>  0 0.13487966E+03</rscale>
<asrwt>0</asrwt>
<pdfrwt beam="1">  1        2 0.51380946E-01 0.13487966E+03</pdfrwt>
<pdfrwt beam="2">  1       -2 0.32952552E-01 0.13487966E+03</pdfrwt>
<totfact> 0.83183752E+02</totfact>
</mgrwt>
</event>
<event>
 4    1  0.6602701E-002  0.1310932E+03  0.7546771E-02  0.1225843E+00
         -2   -1    0    0    0  501 -0.00000000000E+00  0.00000000000E+00  0.62160938776E+02  0.62160938776E+02  0.00000000000E+00 0.  1.
          2   -1    0    0  501    0  0.00000000000E+00 -0.00000000000E+00 -0.27672562710E+03  0.27672562710E+03  0.00000000000E+00 0. -1.
         24    1    1    2    0    0  0.71148871722E+02 -0.75206697013E+02 -0.10209854402E+03  0.16616118039E+03  0.80419002446E+02 0.  1.
        -24    1    1    2    0    0 -0.71148871722E+02  0.75206697013E+02 -0.11246614430E+03  0.17272538549E+03  0.80419002446E+02 0. -1.
<mgrwt>
<rscale>  0 0.13109321E+03</rscale>
<asrwt>0</asrwt>
<pdfrwt beam="1">  1        2 0.42573173E-01 0.13109323E+03</pdfrwt>
<pdfrwt beam="2">  1       -2 0.95632214E-02 0.13109323E+03</pdfrwt>
<totfact> 0.80576364E+03</totfact>
</mgrwt>
</event>
<event>
 4    1  0.6602701E-002  0.8484956E+02  0.7546771E-02  0.1315826E+00
         -2   -1    0    0    0  501 -0.00000000000E+00  0.00000000000E+00  0.69319811883E+01  0.69319811883E+01  0.00000000000E+00 0.  1.
          2   -1    0    0  501    0  0.00000000000E+00 -0.00000000000E+00 -0.12753989030E+04  0.12753989030E+04  0.00000000000E+00 0. -1.
         24    1    1    2    0    0 -0.35099895769E+01 -0.26831185941E+02 -0.91051451414E+03  0.91445947366E+03  0.80419002446E+02 0. -1.
        -24    1    1    2    0    0  0.35099895769E+01  0.26831185941E+02 -0.35795240764E+03  0.36787141049E+03  0.80419002446E+02 0.  1.
<mgrwt>
<rscale>  0 0.84849564E+02</rscale>
<asrwt>0</asrwt>
<pdfrwt beam="1">  1        2 0.19621514E+00 0.84849564E+02</pdfrwt>
<pdfrwt beam="2">  1       -2 0.10664591E-02 0.84849564E+02</pdfrwt>
<totfact> 0.32152009E+04</totfact>
</mgrwt>
</event>
<event>
 4    1  0.6602701E-002  0.9186849E+02  0.7546771E-02  0.1298389E+00
          2   -1    0    0  501    0  0.00000000000E+00  0.00000000000E+00  0.10078530597E+04  0.10078530597E+04  0.00000000000E+00 0. -1.
         -2   -1    0    0    0  501 -0.00000000000E+00 -0.00000000000E+00 -0.98904227013E+01  0.98904227013E+01  0.00000000000E+00 0.  1.
         24    1    1    2    0    0  0.26531707651E+02 -0.35618409885E+02  0.69823343272E+03  0.70425119464E+03  0.80419002446E+02 0. -1.
        -24    1    1    2    0    0 -0.26531707651E+02  0.35618409885E+02  0.29972920433E+03  0.31349228781E+03  0.80419002446E+02 0.  1.
<mgrwt>
<rscale>  0 0.91868485E+02</rscale>
<asrwt>0</asrwt>
<pdfrwt beam="1">  1        2 0.15505424E+00 0.91868485E+02</pdfrwt>
<pdfrwt beam="2">  1       -2 0.15216043E-02 0.91868485E+02</pdfrwt>
<totfact> 0.27502422E+04</totfact>
</mgrwt>
</event>
<event>
 4    1  0.6602701E-002  0.8093009E+02  0.7546771E-02  0.1326433E+00
         -1   -1    0    0    0  501 -0.00000000000E+00  0.00000000000E+00  0.14131022376E+02  0.14131022376E+02  0.00000000000E+00 0.  1.
          1   -1    0    0  501    0  0.00000000000E+00 -0.00000000000E+00 -0.53128606631E+03  0.53128606631E+03  0.00000000000E+00 0. -1.
         24    1    1    2    0    0  0.65613297743E+01 -0.62777062914E+01 -0.35599045005E+03  0.36507379682E+03  0.80419002446E+02 0. -1.
        -24    1    1    2    0    0 -0.65613297743E+01  0.62777062914E+01 -0.16116459389E+03  0.18034329187E+03  0.80419002446E+02 0.  0.
<mgrwt>
<rscale>  0 0.80930082E+02</rscale>
<asrwt>0</asrwt>
<pdfrwt beam="1">  1        1 0.81736303E-01 0.80930093E+02</pdfrwt>
<pdfrwt beam="2">  1       -1 0.21740038E-02 0.80930093E+02</pdfrwt>
<totfact> 0.22514167E+04</totfact>
</mgrwt>
</event>
<event>
 4    1  0.6602701E-002  0.1152314E+03  0.7546771E-02  0.1251178E+00
         -1   -1    0    0    0  501 -0.00000000000E+00  0.00000000000E+00  0.11453457665E+03  0.11453457665E+03  0.00000000000E+00 0.  1.
          1   -1    0    0  501    0  0.00000000000E+00 -0.00000000000E+00 -0.26203487466E+03  0.26203487466E+03  0.00000000000E+00 0. -1.
         24    1    1    2    0    0 -0.80327261298E+02  0.18936739220E+02  0.66842985122E+02  0.13321512532E+03  0.80419002446E+02 0.  1.
        -24    1    1    2    0    0  0.80327261298E+02 -0.18936739220E+02 -0.21434328313E+03  0.24335432598E+03  0.80419002446E+02 0. -1.
<mgrwt>
<rscale>  0 0.11523144E+03</rscale>
<asrwt>0</asrwt>
<pdfrwt beam="1">  1        1 0.40313057E-01 0.11523144E+03</pdfrwt>
<pdfrwt beam="2">  1       -1 0.17620704E-01 0.11523144E+03</pdfrwt>
<totfact> 0.24910022E+03</totfact>
</mgrwt>
</event>
<event>
 4    1  0.6602701E-002  0.8652400E+02  0.7546771E-02  0.1311495E+00
         -2   -1    0    0    0  501 -0.00000000000E+00  0.00000000000E+00  0.13712557111E+02  0.13712557111E+02  0.00000000000E+00 0.  1.
          2   -1    0    0  501    0  0.00000000000E+00 -0.00000000000E+00 -0.54857475987E+03  0.54857475987E+03  0.00000000000E+00 0. -1.
         24    1    1    2    0    0 -0.30613135034E+02 -0.90566392919E+01 -0.28686952793E+03  0.29963399133E+03  0.80419002446E+02 0. -1.
        -24    1    1    2    0    0  0.30613135034E+02  0.90566392919E+01 -0.24799267483E+03  0.26265332565E+03  0.80419002446E+02 0.  0.
<mgrwt>
<rscale>  0 0.86524001E+02</rscale>
<asrwt>0</asrwt>
<pdfrwt beam="1">  1        2 0.84396099E-01 0.86524001E+02</pdfrwt>
<pdfrwt beam="2">  1       -2 0.21096246E-02 0.86524001E+02</pdfrwt>
<totfact> 0.35537928E+04</totfact>
</mgrwt>
</event>
<event>
 4    1  0.6602701E-002  0.9741595E+02  0.7546771E-02  0.1285826E+00
         -2   -1    0    0    0  501 -0.00000000000E+00  0.00000000000E+00  0.27453695984E+02  0.27453695984E+02  0.00000000000E+00 0.  1.
          2   -1    0    0  501    0  0.00000000000E+00 -0.00000000000E+00 -0.36882429979E+03  0.36882429979E+03  0.00000000000E+00 0. -1.
         24    1    1    2    0    0 -0.12435495514E+02 -0.53553799917E+02 -0.22033239470E+03  0.24090710065E+03  0.80419002446E+02 0. -1.
        -24    1    1    2    0    0  0.12435495514E+02  0.53553799917E+02 -0.12103820910E+03  0.15537089512E+03  0.80419002446E+02 0.  1.
<mgrwt>
<rscale>  0 0.97415948E+02</rscale>
<asrwt>0</asrwt>
<pdfrwt beam="1">  1        2 0.56742203E-01 0.97415948E+02</pdfrwt>
<pdfrwt beam="2">  1       -2 0.42236453E-02 0.97415948E+02</pdfrwt>
<totfact> 0.20034593E+04</totfact>
</mgrwt>
</event>
<event>
 4    1  0.6602701E-002  0.8869679E+02  0.7546771E-02  0.1306039E+00
          1   -1    0    0  501    0  0.00000000000E+00  0.00000000000E+00  0.18024906472E+03  0.18024906472E+03  0.00000000000E+00 0. -1.
         -1   -1    0    0    0  501 -0.00000000000E+00 -0.00000000000E+00 -0.81587001242E+02  0.81587001242E+02  0.00000000000E+00 0.  1.
         24    1    1    2    0    0  0.37202346928E+02  0.39862051663E+01 -0.39946945340E+02  0.97277329553E+02  0.80419002446E+02 0.  1.
        -24    1    1    2    0    0 -0.37202346928E+02 -0.39862051663E+01  0.13860900882E+03  0.16455873641E+03  0.80419002446E+02 0. -1.
<mgrwt>
<rscale>  0 0.88696789E+02</rscale>
<asrwt>0</asrwt>
<pdfrwt beam="1">  1        1 0.27730625E-01 0.88696789E+02</pdfrwt>
<pdfrwt beam="2">  1       -1 0.12551846E-01 0.88696789E+02</pdfrwt>
<totfact> 0.65769246E+03</totfact>
</mgrwt>
</event>
<event>
 4    1  0.6602701E-002  0.1292393E+03  0.7546771E-02  0.1228589E+00
         -1   -1    0    0    0  501 -0.00000000000E+00  0.00000000000E+00  0.10509715901E+03  0.10509715901E+03  0.00000000000E+00 0.  1.
          1   -1    0    0  501    0  0.00000000000E+00 -0.00000000000E+00 -0.17394180499E+03  0.17394180499E+03  0.00000000000E+00 0. -1.
         24    1    1    2    0    0 -0.66338374303E+02  0.76385910351E+02  0.65687234725E+01  0.12940614857E+03  0.80419002446E+02 0. -1.
        -24    1    1    2    0    0  0.66338374303E+02 -0.76385910351E+02 -0.75413369458E+02  0.14963281543E+03  0.80419002446E+02 0.  1.
<mgrwt>
<rscale>  0 0.12923933E+03</rscale>
<asrwt>0</asrwt>
<pdfrwt beam="1">  1        1 0.26760278E-01 0.12923933E+03</pdfrwt>
<pdfrwt beam="2">  1       -1 0.16168794E-01 0.12923933E+03</pdfrwt>
<totfact> 0.47647898E+03</totfact>
</mgrwt>
</event>
<event>
 4    1  0.6602701E-002  0.1006536E+03  0.7546771E-02  0.1278928E+00
          1   -1    0    0  501    0  0.00000000000E+00  0.00000000000E+00  0.33095747727E+03  0.33095747727E+03  0.00000000000E+00 0. -1.
         -1   -1    0    0    0  501 -0.00000000000E+00 -0.00000000000E+00 -0.10994032693E+03  0.10994032693E+03  0.00000000000E+00 0.  1.
         24    1    1    2    0    0  0.60153114542E+02  0.67473868064E+01 -0.76751265809E+02  0.12657763300E+03  0.80419002446E+02 0.  1.
        -24    1    1    2    0    0 -0.60153114542E+02 -0.67473868064E+01  0.29776841615E+03  0.31432017121E+03  0.80419002446E+02 0. -1.
<mgrwt>
<rscale>  0 0.10065357E+03</rscale>
<asrwt>0</asrwt>
<pdfrwt beam="1">  1        1 0.50916534E-01 0.10065357E+03</pdfrwt>
<pdfrwt beam="2">  1       -1 0.16913897E-01 0.10065357E+03</pdfrwt>
<totfact> 0.19832271E+03</totfact>
</mgrwt>
</event>
<event>
 4    1  0.6602701E-002  0.1089266E+03  0.7546771E-02  0.1262571E+00
         -1   -1    0    0    0  501 -0.00000000000E+00  0.00000000000E+00  0.14834862011E+02  0.14834862011E+02  0.00000000000E+00 0.  1.
          1   -1    0    0  501    0  0.00000000000E+00 -0.00000000000E+00 -0.85561515165E+03  0.85561515165E+03  0.00000000000E+00 0. -1.
         24    1    1    2    0    0 -0.67424824175E+02 -0.29183559248E+02 -0.30923499573E+03  0.32785863658E+03  0.80419002446E+02 0.  1.
        -24    1    1    2    0    0  0.67424824175E+02  0.29183559248E+02 -0.53154529391E+03  0.54259137707E+03  0.80419002446E+02 0. -1.
<mgrwt>
<rscale>  0 0.10892659E+03</rscale>
<asrwt>0</asrwt>
<pdfrwt beam="1">  1        1 0.13163311E+00 0.10892659E+03</pdfrwt>
<pdfrwt beam="2">  1       -1 0.22822864E-02 0.10892659E+03</pdfrwt>
<totfact> 0.11070592E+04</totfact>
</mgrwt>
</event>
<event>
 4    1  0.6602701E-002  0.8176249E+02  0.7546771E-02  0.1324123E+00
          3   -1    0    0  501    0  0.00000000000E+00  0.00000000000E+00  0.29036621468E+03  0.29036621468E+03  0.00000000000E+00 0. -1.
         -3   -1    0    0    0  501 -0.00000000000E+00 -0.00000000000E+00 -0.38072257657E+02  0.38072257657E+02  0.00000000000E+00 0.  1.
         24    1    1    2    0    0 -0.10985368123E+02 -0.98595070068E+01  0.22900056635E+02  0.84908873149E+02  0.80419002446E+02 0.  1.
        -24    1    1    2    0    0  0.10985368123E+02  0.98595070068E+01  0.22939390038E+03  0.24352959918E+03  0.80419002446E+02 0. -1.
<mgrwt>
<rscale>  0 0.81762486E+02</rscale>
<asrwt>0</asrwt>
<pdfrwt beam="1">  1        3 0.44671724E-01 0.81762486E+02</pdfrwt>
<pdfrwt beam="2">  1       -3 0.58572706E-02 0.81762486E+02</pdfrwt>
<totfact> 0.18430203E+03</totfact>
</mgrwt>
</event>
<event>
 4    1  0.6602701E-002  0.1133246E+03  0.7546771E-02  0.1254534E+00
          2   -1    0    0  501    0  0.00000000000E+00  0.00000000000E+00  0.47804209661E+03  0.47804209661E+03  0.00000000000E+00 0. -1.
         -2   -1    0    0    0  501 -0.00000000000E+00 -0.00000000000E+00 -0.67155720513E+02  0.67155720513E+02  0.00000000000E+00 0.  1.
         24    1    1    2    0    0  0.43341784857E+02  0.67057719566E+02  0.41659103949E+03  0.43172972819E+03  0.80419002446E+02 0. -1.
        -24    1    1    2    0    0 -0.43341784857E+02 -0.67057719566E+02 -0.57046633872E+01  0.11346808894E+03  0.80419002446E+02 0.  1.
<mgrwt>
<rscale>  0 0.11332460E+03</rscale>
<asrwt>0</asrwt>
<pdfrwt beam="1">  1        2 0.73544936E-01 0.11332460E+03</pdfrwt>
<pdfrwt beam="2">  1       -2 0.10331650E-01 0.11332460E+03</pdfrwt>
<totfact> 0.39568379E+03</totfact>
</mgrwt>
</event>
<event>
 4    1  0.6602701E-002  0.9449626E+02  0.7546771E-02  0.1292315E+00
         -1   -1    0    0    0  501 -0.00000000000E+00  0.00000000000E+00  0.13751157319E+02  0.13751157319E+02  0.00000000000E+00 0.  1.
          1   -1    0    0  501    0  0.00000000000E+00 -0.00000000000E+00 -0.19621490687E+04  0.19621490687E+04  0.00000000000E+00 0. -1.
         24    1    1    2    0    0  0.49571944578E+02 -0.22248053156E+01 -0.16609843504E+03  0.19109744511E+03  0.80419002446E+02 0.  1.
        -24    1    1    2    0    0 -0.49571944578E+02  0.22248053156E+01 -0.17822994764E+04  0.17848027810E+04  0.80419002446E+02 0. -1.
<mgrwt>
<rscale>  0 0.94496261E+02</rscale>
<asrwt>0</asrwt>
<pdfrwt beam="1">  1        1 0.30186909E+00 0.94496261E+02</pdfrwt>
<pdfrwt beam="2">  1       -1 0.21155626E-02 0.94496261E+02</pdfrwt>
<totfact> 0.22513528E+03</totfact>
</mgrwt>
</event>
<event>
 4    1  0.6602701E-002  0.8413212E+02  0.7546771E-02  0.1317718E+00
          1   -1    0    0  501    0  0.00000000000E+00  0.00000000000E+00  0.46554780342E+03  0.46554780342E+03  0.00000000000E+00 0. -1.
         -1   -1    0    0    0  501 -0.00000000000E+00 -0.00000000000E+00 -0.18751202053E+02  0.18751202053E+02  0.00000000000E+00 0.  1.
         24    1    1    2    0    0 -0.32415208411E+01  0.24504889316E+02  0.11807879672E+03  0.14498556910E+03  0.80419002446E+02 0.  1.
        -24    1    1    2    0    0  0.32415208411E+01 -0.24504889316E+02  0.32871780465E+03  0.33931343638E+03  0.80419002446E+02 0. -1.
<mgrwt>
<rscale>  0 0.84132116E+02</rscale>
<asrwt>0</asrwt>
<pdfrwt beam="1">  1        1 0.71622731E-01 0.84132116E+02</pdfrwt>
<pdfrwt beam="2">  1       -1 0.28848006E-02 0.84132116E+02</pdfrwt>
<totfact> 0.17860767E+04</totfact>
</mgrwt>
</event>
<event>
 4    1  0.6602701E-002  0.1078087E+03  0.7546771E-02  0.1264683E+00
         -2   -1    0    0    0  501 -0.00000000000E+00  0.00000000000E+00  0.45358067709E+02  0.45358067709E+02  0.00000000000E+00 0.  1.
          2   -1    0    0  501    0  0.00000000000E+00 -0.00000000000E+00 -0.25927946858E+03  0.25927946858E+03  0.00000000000E+00 0. -1.
         24    1    1    2    0    0  0.56486794045E+02  0.44325295806E+02 -0.12344326558E+03  0.16389309175E+03  0.80419002446E+02 0.  1.
        -24    1    1    2    0    0 -0.56486794045E+02 -0.44325295806E+02 -0.90478135283E+02  0.14074444454E+03  0.80419002446E+02 0. -1.
<mgrwt>
<rscale>  0 0.10780865E+03</rscale>
<asrwt>0</asrwt>
<pdfrwt beam="1">  1        2 0.39889149E-01 0.10780865E+03</pdfrwt>
<pdfrwt beam="2">  1       -2 0.69781642E-02 0.10780865E+03</pdfrwt>
<totfact> 0.13812175E+04</totfact>
</mgrwt>
</event>
<event>
 4    1  0.6602701E-002  0.9343356E+02  0.7546771E-02  0.1294744E+00
          1   -1    0    0  501    0  0.00000000000E+00  0.00000000000E+00  0.17874866166E+04  0.17874866166E+04  0.00000000000E+00 0. -1.
         -1   -1    0    0    0  501 -0.00000000000E+00 -0.00000000000E+00 -0.84774164644E+01  0.84774164644E+01  0.00000000000E+00 0.  1.
         24    1    1    2    0    0 -0.28169476466E+02  0.38328769504E+02  0.30485148616E+03  0.31884833157E+03  0.80419002446E+02 0.  1.
        -24    1    1    2    0    0  0.28169476466E+02 -0.38328769504E+02  0.14741577140E+04  0.14771157015E+04  0.80419002446E+02 0. -1.
<mgrwt>
<rscale>  0 0.93433559E+02</rscale>
<asrwt>0</asrwt>
<pdfrwt beam="1">  1        1 0.27499764E+00 0.93433559E+02</pdfrwt>
<pdfrwt beam="2">  1       -1 0.13042193E-02 0.93433559E+02</pdfrwt>
<totfact> 0.57657422E+03</totfact>
</mgrwt>
</event>
<event>
 4    1  0.6602701E-002  0.8602011E+02  0.7546771E-02  0.1312786E+00
         -1   -1    0    0    0  501 -0.00000000000E+00  0.00000000000E+00  0.13236123821E+02  0.13236123821E+02  0.00000000000E+00 0.  1.
          1   -1    0    0  501    0  0.00000000000E+00 -0.00000000000E+00 -0.58787000894E+03  0.58787000894E+03  0.00000000000E+00 0. -1.
         24    1    1    2    0    0  0.30445790476E+02  0.23016852116E+01 -0.22075306250E+03  0.23692060795E+03  0.80419002446E+02 0.  1.
        -24    1    1    2    0    0 -0.30445790476E+02 -0.23016852116E+01 -0.35388082262E+03  0.36418552481E+03  0.80419002446E+02 0. -1.
<mgrwt>
<rscale>  0 0.86020113E+02</rscale>
<asrwt>0</asrwt>
<pdfrwt beam="1">  1        1 0.90441533E-01 0.86020113E+02</pdfrwt>
<pdfrwt beam="2">  1       -1 0.20363269E-02 0.86020113E+02</pdfrwt>
<totfact> 0.21782024E+04</totfact>
</mgrwt>
</event>
<event>
 4    1  0.6602701E-002  0.9635239E+02  0.7546771E-02  0.1288159E+00
          2   -1    0    0  501    0  0.00000000000E+00  0.00000000000E+00  0.21595869469E+04  0.21595869469E+04  0.00000000000E+00 0. -1.
         -2   -1    0    0    0  501 -0.00000000000E+00 -0.00000000000E+00 -0.53062132129E+01  0.53062132129E+01  0.00000000000E+00 0.  1.
         24    1    1    2    0    0 -0.59720644979E+01  0.52734261973E+02  0.15487718858E+04  0.15517661351E+04  0.80419002446E+02 0. -1.
        -24    1    1    2    0    0  0.59720644979E+01 -0.52734261973E+02  0.60550884794E+03  0.61312702504E+03  0.80419002446E+02 0.  1.
<mgrwt>
<rscale>  0 0.96352394E+02</rscale>
<asrwt>0</asrwt>
<pdfrwt beam="1">  1        2 0.33224344E+00 0.96352394E+02</pdfrwt>
<pdfrwt beam="2">  1       -2 0.81634222E-03 0.96352394E+02</pdfrwt>
<totfact> 0.16834910E+04</totfact>
</mgrwt>
</event>
<event>
 4    1  0.6602701E-002  0.8610364E+02  0.7546771E-02  0.1312571E+00
          2   -1    0    0  501    0  0.00000000000E+00  0.00000000000E+00  0.87636217775E+03  0.87636217775E+03  0.00000000000E+00 0. -1.
         -2   -1    0    0    0  501 -0.00000000000E+00 -0.00000000000E+00 -0.12501463932E+02  0.12501463932E+02  0.00000000000E+00 0.  1.
         24    1    1    2    0    0  0.18273369559E+02 -0.24752883567E+02  0.68463051622E+03  0.69002375392E+03  0.80419002446E+02 0. -1.
        -24    1    1    2    0    0 -0.18273369559E+02  0.24752883567E+02  0.17923019760E+03  0.19883988777E+03  0.80419002446E+02 0.  1.
<mgrwt>
<rscale>  0 0.86103642E+02</rscale>
<asrwt>0</asrwt>
<pdfrwt beam="1">  1        2 0.13482490E+00 0.86103642E+02</pdfrwt>
<pdfrwt beam="2">  1       -2 0.19233028E-02 0.86103642E+02</pdfrwt>
<totfact> 0.23478137E+04</totfact>
</mgrwt>
</event>
<event>
 4    1  0.6602701E-002  0.9513920E+02  0.7546771E-02  0.1290863E+00
          1   -1    0    0  501    0  0.00000000000E+00  0.00000000000E+00  0.59845241181E+02  0.59845241181E+02  0.00000000000E+00 0. -1.
         -1   -1    0    0    0  501 -0.00000000000E+00 -0.00000000000E+00 -0.21343609876E+03  0.21343609876E+03  0.00000000000E+00 0.  1.
         24    1    1    2    0    0  0.30698427024E+02  0.40519842069E+02 -0.15055188452E+03  0.17809361839E+03  0.80419002446E+02 0.  1.
        -24    1    1    2    0    0 -0.30698427024E+02 -0.40519842069E+02 -0.30389730577E+01  0.95187721554E+02  0.80419002446E+02 0. -1.
<mgrwt>
<rscale>  0 0.95139198E+02</rscale>
<asrwt>0</asrwt>
<pdfrwt beam="1">  1        1 0.92069603E-02 0.95139198E+02</pdfrwt>
<pdfrwt beam="2">  1       -1 0.32836322E-01 0.95139198E+02</pdfrwt>
<totfact> 0.58049705E+03</totfact>
</mgrwt>
</event>
<event>
 4    1  0.6602701E-002  0.9643975E+02  0.7546771E-02  0.1287966E+00
         -1   -1    0    0    0  501 -0.00000000000E+00  0.00000000000E+00  0.68319026253E+02  0.68319026253E+02  0.00000000000E+00 0.  1.
          1   -1    0    0  501    0  0.00000000000E+00 -0.00000000000E+00 -0.21963097856E+03  0.21963097856E+03  0.00000000000E+00 0. -1.
         24    1    1    2    0    0 -0.49215468446E+02  0.20279216401E+02  0.13115314164E+02  0.97327469772E+02  0.80419002446E+02 0.  1.
        -24    1    1    2    0    0  0.49215468446E+02 -0.20279216401E+02 -0.16442726647E+03  0.19062253504E+03  0.80419002446E+02 0. -1.
<mgrwt>
<rscale>  0 0.96439748E+02</rscale>
<asrwt>0</asrwt>
<pdfrwt beam="1">  1        1 0.33789381E-01 0.96439748E+02</pdfrwt>
<pdfrwt beam="2">  1       -1 0.10510619E-01 0.96439748E+02</pdfrwt>
<totfact> 0.68053933E+03</totfact>
</mgrwt>
</event>
<event>
 4    1  0.6602701E-002  0.8163488E+02  0.7546771E-02  0.1324475E+00
          2   -1    0    0  501    0  0.00000000000E+00  0.00000000000E+00  0.14777822004E+03  0.14777822004E+03  0.00000000000E+00 0. -1.
         -2   -1    0    0    0  501 -0.00000000000E+00 -0.00000000000E+00 -0.64408049112E+02  0.64408049112E+02  0.00000000000E+00 0.  1.
         24    1    1    2    0    0 -0.49940823885E+01  0.13118539510E+02  0.99778628711E+02  0.12891868615E+03  0.80419002446E+02 0.  0.
        -24    1    1    2    0    0  0.49940823885E+01 -0.13118539510E+02 -0.16408457780E+02  0.83267583001E+02  0.80419002446E+02 0.  1.
<mgrwt>
<rscale>  0 0.81634875E+02</rscale>
<asrwt>0</asrwt>
<pdfrwt beam="1">  1        2 0.22735111E-01 0.81634875E+02</pdfrwt>
<pdfrwt beam="2">  1       -2 0.99089306E-02 0.81634875E+02</pdfrwt>
<totfact> 0.14341008E+04</totfact>
</mgrwt>
</event>
<event>
 4    1  0.6602701E-002  0.8149850E+02  0.7546771E-02  0.1324852E+00
         -1   -1    0    0    0  501 -0.00000000000E+00  0.00000000000E+00  0.60304665760E+03  0.60304665760E+03  0.00000000000E+00 0.  1.
          1   -1    0    0  501    0  0.00000000000E+00 -0.00000000000E+00 -0.11903149054E+02  0.11903149054E+02  0.00000000000E+00 0. -1.
         24    1    1    2    0    0 -0.74925349915E+01  0.10892701029E+02  0.37960403371E+03  0.38825407581E+03  0.80419002446E+02 0.  1.
        -24    1    1    2    0    0  0.74925349915E+01 -0.10892701029E+02  0.21153947483E+03  0.22669573085E+03  0.80419002446E+02 0. -1.
<mgrwt>
<rscale>  0 0.81498497E+02</rscale>
<asrwt>0</asrwt>
<pdfrwt beam="1">  1        1 0.18312542E-02 0.81498497E+02</pdfrwt>
<pdfrwt beam="2">  1       -1 0.92776385E-01 0.81498497E+02</pdfrwt>
<totfact> 0.73683517E+03</totfact>
</mgrwt>
</event>
<event>
 4    1  0.6602701E-002  0.8478159E+02  0.7546771E-02  0.1316005E+00
         -1   -1    0    0    0  501 -0.00000000000E+00  0.00000000000E+00  0.10401866725E+02  0.10401866725E+02  0.00000000000E+00 0.  1.
          1   -1    0    0  501    0  0.00000000000E+00 -0.00000000000E+00 -0.84539977284E+03  0.84539977284E+03  0.00000000000E+00 0. -1.
         24    1    1    2    0    0 -0.11770788051E+02  0.24127707435E+02 -0.60035323179E+03  0.60631008287E+03  0.80419002446E+02 0.  0.
        -24    1    1    2    0    0  0.11770788051E+02 -0.24127707435E+02 -0.23464467433E+03  0.24949155669E+03  0.80419002446E+02 0.  0.
<mgrwt>
<rscale>  0 0.84781575E+02</rscale>
<asrwt>0</asrwt>
<pdfrwt beam="1">  1        1 0.13006154E+00 0.84781586E+02</pdfrwt>
<pdfrwt beam="2">  1       -1 0.16002867E-02 0.84781586E+02</pdfrwt>
<totfact> 0.18344372E+04</totfact>
</mgrwt>
</event>
<event>
 4    1  0.6602701E-002  0.8418245E+02  0.7546771E-02  0.1317584E+00
          2   -1    0    0  501    0  0.00000000000E+00  0.00000000000E+00  0.13748158925E+02  0.13748158925E+02  0.00000000000E+00 0. -1.
         -2   -1    0    0    0  501 -0.00000000000E+00 -0.00000000000E+00 -0.87422800871E+03  0.87422800871E+03  0.00000000000E+00 0.  1.
         24    1    1    2    0    0 -0.24791522691E+02  0.22022743624E+01 -0.14581792305E+03  0.16837325276E+03  0.80419002446E+02 0. -1.
        -24    1    1    2    0    0  0.24791522691E+02 -0.22022743624E+01 -0.71466192674E+03  0.71960291487E+03  0.80419002446E+02 0.  1.
<mgrwt>
<rscale>  0 0.84182454E+02</rscale>
<asrwt>0</asrwt>
<pdfrwt beam="1">  1        2 0.21151013E-02 0.84182454E+02</pdfrwt>
<pdfrwt beam="2">  1       -2 0.13449662E+00 0.84182454E+02</pdfrwt>
<totfact> 0.19546316E+03</totfact>
</mgrwt>
</event>
<event>
 4    1  0.6602701E-002  0.8532795E+02  0.7546771E-02  0.1314577E+00
         -4   -1    0    0    0  501 -0.00000000000E+00  0.00000000000E+00  0.47976434314E+02  0.47976434314E+02  0.00000000000E+00 0.  1.
          4   -1    0    0  501    0  0.00000000000E+00 -0.00000000000E+00 -0.17126085623E+03  0.17126085623E+03  0.00000000000E+00 0. -1.
         24    1    1    2    0    0  0.19962871674E+02 -0.20374588904E+02 -0.24651450253E+02  0.88817509943E+02  0.80419002446E+02 0.  1.
        -24    1    1    2    0    0 -0.19962871674E+02  0.20374588904E+02 -0.98632971660E+02  0.13041978060E+03  0.80419002446E+02 0. -1.
<mgrwt>
<rscale>  0 0.85327943E+02</rscale>
<asrwt>0</asrwt>
<pdfrwt beam="1">  1        4 0.26347825E-01 0.85327954E+02</pdfrwt>
<pdfrwt beam="2">  1       -4 0.73809897E-02 0.85327954E+02</pdfrwt>
<totfact> 0.25011093E+03</totfact>
</mgrwt>
</event>
<event>
 4    1  0.6602701E-002  0.1370989E+03  0.7546771E-02  0.1217287E+00
          1   -1    0    0  501    0  0.00000000000E+00  0.00000000000E+00  0.19539250376E+04  0.19539250376E+04  0.00000000000E+00 0. -1.
         -1   -1    0    0    0  501 -0.00000000000E+00 -0.00000000000E+00 -0.10133148453E+02  0.10133148453E+02  0.00000000000E+00 0.  1.
         24    1    1    2    0    0  0.91850381170E+02 -0.62389191145E+02  0.75083498255E+03  0.76324916683E+03  0.80419002446E+02 0.  1.
        -24    1    1    2    0    0 -0.91850381170E+02  0.62389191145E+02  0.11929569066E+04  0.12008090192E+04  0.80419002446E+02 0. -1.
<mgrwt>
<rscale>  0 0.13709894E+03</rscale>
<asrwt>0</asrwt>
<pdfrwt beam="1">  1        1 0.30060355E+00 0.13709894E+03</pdfrwt>
<pdfrwt beam="2">  1       -1 0.15589475E-02 0.13709894E+03</pdfrwt>
<totfact> 0.35439466E+03</totfact>
</mgrwt>
</event>
<event>
 4    1  0.6602701E-002  0.8094242E+02  0.7546771E-02  0.1326398E+00
          2   -1    0    0  501    0  0.00000000000E+00  0.00000000000E+00  0.70354256359E+02  0.70354256359E+02  0.00000000000E+00 0. -1.
         -2   -1    0    0    0  501 -0.00000000000E+00 -0.00000000000E+00 -0.20549591488E+03  0.20549591488E+03  0.00000000000E+00 0.  1.
         24    1    1    2    0    0 -0.37143624201E+00 -0.91826544301E+01  0.34422181310E+02  0.87957726368E+02  0.80419002446E+02 0. -1.
        -24    1    1    2    0    0  0.37143624201E+00  0.91826544301E+01 -0.16956383983E+03  0.18789244487E+03  0.80419002446E+02 0.  0.
<mgrwt>
<rscale>  0 0.80942418E+02</rscale>
<asrwt>0</asrwt>
<pdfrwt beam="1">  1        2 0.10823732E-01 0.80942418E+02</pdfrwt>
<pdfrwt beam="2">  1       -2 0.31614756E-01 0.80942418E+02</pdfrwt>
<totfact> 0.49254803E+03</totfact>
</mgrwt>
</event>
<event>
 4    1  0.6602701E-002  0.8417424E+02  0.7546771E-02  0.1317606E+00
          1   -1    0    0  501    0  0.00000000000E+00  0.00000000000E+00  0.44167884768E+02  0.44167884768E+02  0.00000000000E+00 0. -1.
         -1   -1    0    0    0  501 -0.00000000000E+00 -0.00000000000E+00 -0.21854080330E+03  0.21854080330E+03  0.00000000000E+00 0.  1.
         24    1    1    2    0    0  0.93220815105E+01  0.23047449035E+02 -0.15492772107E+03  0.17631761347E+03  0.80419002446E+02 0.  1.
        -24    1    1    2    0    0 -0.93220815105E+01 -0.23047449035E+02 -0.19445197461E+02  0.86391074593E+02  0.80419002446E+02 0. -1.
<mgrwt>
<rscale>  0 0.84174236E+02</rscale>
<asrwt>0</asrwt>
<pdfrwt beam="1">  1        1 0.67950592E-02 0.84174236E+02</pdfrwt>
<pdfrwt beam="2">  1       -1 0.33621662E-01 0.84174236E+02</pdfrwt>
<totfact> 0.82528507E+03</totfact>
</mgrwt>
</event>
<event>
 4    1  0.6602701E-002  0.8457080E+02  0.7546771E-02  0.1316559E+00
          1   -1    0    0  501    0  0.00000000000E+00  0.00000000000E+00  0.61403449521E+03  0.61403449521E+03  0.00000000000E+00 0. -1.
         -1   -1    0    0    0  501 -0.00000000000E+00 -0.00000000000E+00 -0.12852465942E+02  0.12852465942E+02  0.00000000000E+00 0.  1.
         24    1    1    2    0    0  0.25108547592E+02  0.73868201665E+01  0.20463349778E+03  0.22142061477E+03  0.80419002446E+02 0.  1.
        -24    1    1    2    0    0 -0.25108547592E+02 -0.73868201665E+01  0.39654853148E+03  0.40546634638E+03  0.80419002446E+02 0. -1.
<mgrwt>
<rscale>  0 0.84570800E+02</rscale>
<asrwt>0</asrwt>
<pdfrwt beam="1">  1        1 0.94466823E-01 0.84570800E+02</pdfrwt>
<pdfrwt beam="2">  1       -1 0.19773029E-02 0.84570800E+02</pdfrwt>
<totfact> 0.21391745E+04</totfact>
</mgrwt>
</event>
<event>
 4    1  0.6602701E-002  0.9285000E+02  0.7546771E-02  0.1296093E+00
          1   -1    0    0  501    0  0.00000000000E+00  0.00000000000E+00  0.86250891031E+02  0.86250891031E+02  0.00000000000E+00 0. -1.
         -1   -1    0    0    0  501 -0.00000000000E+00 -0.00000000000E+00 -0.13102254671E+03  0.13102254671E+03  0.00000000000E+00 0.  1.
         24    1    1    2    0    0 -0.15709155181E+02  0.43670681633E+02 -0.75286849594E+02  0.11953757429E+03  0.80419002446E+02 0.  1.
        -24    1    1    2    0    0  0.15709155181E+02 -0.43670681633E+02  0.30515193915E+02  0.97735863453E+02  0.80419002446E+02 0. -1.
<mgrwt>
<rscale>  0 0.92849997E+02</rscale>
<asrwt>0</asrwt>
<pdfrwt beam="1">  1        1 0.13269368E-01 0.92849997E+02</pdfrwt>
<pdfrwt beam="2">  1       -1 0.20157315E-01 0.92849997E+02</pdfrwt>
<totfact> 0.79849400E+03</totfact>
</mgrwt>
</event>
<event>
 4    1  0.6602701E-002  0.9009413E+02  0.7546771E-02  0.1302624E+00
          2   -1    0    0  501    0  0.00000000000E+00  0.00000000000E+00  0.26606986194E+03  0.26606986194E+03  0.00000000000E+00 0. -1.
         -2   -1    0    0    0  501 -0.00000000000E+00 -0.00000000000E+00 -0.32639073399E+02  0.32639073399E+02  0.00000000000E+00 0.  1.
         24    1    1    2    0    0 -0.16950392966E+02  0.36910971627E+02  0.15488927708E+03  0.17918604788E+03  0.80419002446E+02 0. -1.
        -24    1    1    2    0    0  0.16950392966E+02 -0.36910971627E+02  0.78541511461E+02  0.11952288745E+03  0.80419002446E+02 0.  1.
<mgrwt>
<rscale>  0 0.90094126E+02</rscale>
<asrwt>0</asrwt>
<pdfrwt beam="1">  1        2 0.40933823E-01 0.90094126E+02</pdfrwt>
<pdfrwt beam="2">  1       -2 0.50213961E-02 0.90094126E+02</pdfrwt>
<totfact> 0.21651326E+04</totfact>
</mgrwt>
</event>
<event>
 4    1  0.8193425E-002  0.9509332E+02  0.7546771E-02  0.1290966E+00
         -1   -1    0    0    0  501 -0.00000000000E+00  0.00000000000E+00  0.82574040992E+02  0.82574040992E+02  0.00000000000E+00 0.  1.
          1   -1    0    0  501    0  0.00000000000E+00 -0.00000000000E+00 -0.49152944963E+03  0.49152944963E+03  0.00000000000E+00 0. -1.
         24    1    1    2    0    0 -0.47378050356E+02 -0.18189125739E+02  0.48584780013E+02  0.10678586402E+03  0.80419002446E+02 0.  1.
        -24    1    1    2    0    0  0.47378050356E+02  0.18189125739E+02 -0.45754018865E+03  0.46731762661E+03  0.80419002446E+02 0. -1.
<mgrwt>
<rscale>  0 0.95093322E+02</rscale>
<asrwt>0</asrwt>
<pdfrwt beam="1">  1        1 0.75619914E-01 0.95093322E+02</pdfrwt>
<pdfrwt beam="2">  1       -1 0.12703699E-01 0.95093322E+02</pdfrwt>
<totfact> 0.18814506E+03</totfact>
</mgrwt>
</event>
<event>
 4    1  0.6602701E-002  0.8326830E+02  0.7546771E-02  0.1320024E+00
          2   -1    0    0  501    0  0.00000000000E+00  0.00000000000E+00  0.24928347178E+02  0.24928347178E+02  0.00000000000E+00 0. -1.
         -2   -1    0    0    0  501 -0.00000000000E+00 -0.00000000000E+00 -0.49052635174E+03  0.49052635174E+03  0.00000000000E+00 0.  1.
         24    1    1    2    0    0  0.21568951932E+02 -0.10838534398E+01 -0.63212609752E+02  0.10454398314E+03  0.80419002446E+02 0. -1.
        -24    1    1    2    0    0 -0.21568951932E+02  0.10838534398E+01 -0.40238539481E+03  0.41091071577E+03  0.80419002446E+02 0.  1.
<mgrwt>
<rscale>  0 0.83268304E+02</rscale>
<asrwt>0</asrwt>
<pdfrwt beam="1">  1        2 0.38351302E-02 0.83268304E+02</pdfrwt>
<pdfrwt beam="2">  1       -2 0.75465596E-01 0.83268304E+02</pdfrwt>
<totfact> 0.33246446E+03</totfact>
</mgrwt>
</event>
<event>
 4    1  0.6602701E-002  0.1010534E+03  0.7546771E-02  0.1278096E+00
         -2   -1    0    0    0  501 -0.00000000000E+00  0.00000000000E+00  0.17881153158E+02  0.17881153158E+02  0.00000000000E+00 0.  1.
          2   -1    0    0  501    0  0.00000000000E+00 -0.00000000000E+00 -0.72645577530E+03  0.72645577530E+03  0.00000000000E+00 0. -1.
         24    1    1    2    0    0  0.60503528002E+02  0.91596782565E+01 -0.52639852042E+03  0.53601044286E+03  0.80419002446E+02 0. -1.
        -24    1    1    2    0    0 -0.60503528002E+02 -0.91596782565E+01 -0.18217610173E+03  0.20832648560E+03  0.80419002446E+02 0.  1.
<mgrwt>
<rscale>  0 0.10105341E+03</rscale>
<asrwt>0</asrwt>
<pdfrwt beam="1">  1        2 0.11176241E+00 0.10105341E+03</pdfrwt>
<pdfrwt beam="2">  1       -2 0.27509471E-02 0.10105341E+03</pdfrwt>
<totfact> 0.17876681E+04</totfact>
</mgrwt>
</event>
<event>
 4    1  0.6602701E-002  0.8557141E+02  0.7546771E-02  0.1313945E+00
         -1   -1    0    0    0  501 -0.00000000000E+00  0.00000000000E+00  0.11269795967E+02  0.11269795967E+02  0.00000000000E+00 0.  1.
          1   -1    0    0  501    0  0.00000000000E+00 -0.00000000000E+00 -0.65311278670E+03  0.65311278670E+03  0.00000000000E+00 0. -1.
         24    1    1    2    0    0 -0.54062236983E+01 -0.28740555755E+02 -0.34478546760E+03  0.35524566349E+03  0.80419002446E+02 0. -1.
        -24    1    1    2    0    0  0.54062236983E+01  0.28740555755E+02 -0.29705752313E+03  0.30913691918E+03  0.80419002446E+02 0. -1.
<mgrwt>
<rscale>  0 0.85571401E+02</rscale>
<asrwt>0</asrwt>
<pdfrwt beam="1">  1        1 0.10047888E+00 0.85571411E+02</pdfrwt>
<pdfrwt beam="2">  1       -1 0.17338150E-02 0.85571411E+02</pdfrwt>
<totfact> 0.23744018E+04</totfact>
</mgrwt>
</event>
<event>
 4    1  0.6602701E-002  0.1432710E+03  0.7546771E-02  0.1208994E+00
         -1   -1    0    0    0  501 -0.00000000000E+00  0.00000000000E+00  0.25580492626E+02  0.25580492626E+02  0.00000000000E+00 0.  1.
          1   -1    0    0  501    0  0.00000000000E+00 -0.00000000000E+00 -0.10430063950E+04  0.10430063950E+04  0.00000000000E+00 0. -1.
         24    1    1    2    0    0  0.28868369103E+02 -0.11500419119E+03 -0.76531645616E+03  0.77861148255E+03  0.80419002446E+02 0.  0.
        -24    1    1    2    0    0 -0.28868369103E+02  0.11500419119E+03 -0.25210944617E+03  0.28997540504E+03  0.80419002446E+02 0.  0.
<mgrwt>
<rscale>  0 0.14327096E+03</rscale>
<asrwt>0</asrwt>
<pdfrwt beam="1">  1        1 0.16046252E+00 0.14327098E+03</pdfrwt>
<pdfrwt beam="2">  1       -1 0.39354604E-02 0.14327098E+03</pdfrwt>
<totfact> 0.36810278E+03</totfact>
</mgrwt>
</event>
<event>
 4    1  0.6602701E-002  0.8987758E+02  0.7546771E-02  0.1303148E+00
         -1   -1    0    0    0  501 -0.00000000000E+00  0.00000000000E+00  0.35350252588E+02  0.35350252588E+02  0.00000000000E+00 0.  1.
          1   -1    0    0  501    0  0.00000000000E+00 -0.00000000000E+00 -0.27531830726E+03  0.27531830726E+03  0.00000000000E+00 0. -1.
         24    1    1    2    0    0  0.11911568126E+02 -0.38325897310E+02 -0.18403112779E+03  0.20480583929E+03  0.80419002446E+02 0.  0.
        -24    1    1    2    0    0 -0.11911568126E+02  0.38325897310E+02 -0.55936926887E+02  0.10586272056E+03  0.80419002446E+02 0.  0.
<mgrwt>
<rscale>  0 0.89877571E+02</rscale>
<asrwt>0</asrwt>
<pdfrwt beam="1">  1        1 0.42356663E-01 0.89877583E+02</pdfrwt>
<pdfrwt beam="2">  1       -1 0.54385003E-02 0.89877583E+02</pdfrwt>
<totfact> 0.13700410E+04</totfact>
</mgrwt>
</event>
<event>
 4    1  0.6602701E-002  0.1035617E+03  0.7546771E-02  0.1272980E+00
          1   -1    0    0  501    0  0.00000000000E+00  0.00000000000E+00  0.20954249514E+03  0.20954249514E+03  0.00000000000E+00 0. -1.
         -1   -1    0    0    0  501 -0.00000000000E+00 -0.00000000000E+00 -0.53127310138E+02  0.53127310138E+02  0.00000000000E+00 0.  1.
         24    1    1    2    0    0 -0.61079545011E+02  0.22958714321E+02  0.53083198957E+02  0.11637377431E+03  0.80419002446E+02 0.  1.
        -24    1    1    2    0    0  0.61079545011E+02 -0.22958714321E+02  0.10333198604E+03  0.14629603097E+03  0.80419002446E+02 0. -1.
<mgrwt>
<rscale>  0 0.10356172E+03</rscale>
<asrwt>0</asrwt>
<pdfrwt beam="1">  1        1 0.32237306E-01 0.10356172E+03</pdfrwt>
<pdfrwt beam="2">  1       -1 0.81734325E-02 0.10356172E+03</pdfrwt>
<totfact> 0.10596007E+04</totfact>
</mgrwt>
</event>
<event>
 4    1  0.6602701E-002  0.9513269E+02  0.7546771E-02  0.1290878E+00
         -3   -1    0    0    0  501 -0.00000000000E+00  0.00000000000E+00  0.22504132100E+03  0.22504132100E+03  0.00000000000E+00 0.  1.
          3   -1    0    0  501    0  0.00000000000E+00 -0.00000000000E+00 -0.53467708083E+02  0.53467708083E+02  0.00000000000E+00 0. -1.
         24    1    1    2    0    0 -0.50567002743E+02 -0.50980761938E+01  0.15511372243E+03  0.18196289454E+03  0.80419002446E+02 0.  1.
        -24    1    1    2    0    0  0.50567002743E+02  0.50980761938E+01  0.16459890490E+02  0.96546134550E+02  0.80419002446E+02 0. -1.
<mgrwt>
<rscale>  0 0.95132687E+02</rscale>
<asrwt>0</asrwt>
<pdfrwt beam="1">  1        3 0.82258013E-02 0.95132687E+02</pdfrwt>
<pdfrwt beam="2">  1       -3 0.34621741E-01 0.95132687E+02</pdfrwt>
<totfact> 0.17947473E+03</totfact>
</mgrwt>
</event>
<event>
 4    1  0.6602701E-002  0.1023012E+03  0.7546771E-02  0.1275530E+00
         -1   -1    0    0    0  501 -0.00000000000E+00  0.00000000000E+00  0.11660023520E+04  0.11660023520E+04  0.00000000000E+00 0.  1.
          1   -1    0    0  501    0  0.00000000000E+00 -0.00000000000E+00 -0.31957355885E+02  0.31957355885E+02  0.00000000000E+00 0. -1.
         24    1    1    2    0    0 -0.25944878182E+02  0.57664444040E+02  0.10749697819E+04  0.10798266401E+04  0.80419002446E+02 0.  1.
        -24    1    1    2    0    0  0.25944878182E+02 -0.57664444040E+02  0.59075214257E+02  0.11813306778E+03  0.80419002446E+02 0. -1.
<mgrwt>
<rscale>  0 0.10230123E+03</rscale>
<asrwt>0</asrwt>
<pdfrwt beam="1">  1        1 0.49165172E-02 0.10230123E+03</pdfrwt>
<pdfrwt beam="2">  1       -1 0.17938495E+00 0.10230123E+03</pdfrwt>
<totfact> 0.39190905E+02</totfact>
</mgrwt>
</event>
<event>
 4    1  0.6602701E-002  0.8388948E+02  0.7546771E-02  0.1318362E+00
          1   -1    0    0  501    0  0.00000000000E+00  0.00000000000E+00  0.13581106483E+02  0.13581106483E+02  0.00000000000E+00 0. -1.
         -1   -1    0    0    0  501 -0.00000000000E+00 -0.00000000000E+00 -0.15354984559E+04  0.15354984559E+04  0.00000000000E+00 0.  1.
         24    1    1    2    0    0 -0.21949301757E+02  0.94051603259E+01 -0.13914043953E+04  0.13939310012E+04  0.80419002446E+02 0.  1.
        -24    1    1    2    0    0  0.21949301757E+02 -0.94051603259E+01 -0.13051295407E+03  0.15514856114E+03  0.80419002446E+02 0. -1.
<mgrwt>
<rscale>  0 0.83889480E+02</rscale>
<asrwt>0</asrwt>
<pdfrwt beam="1">  1        1 0.20894017E-02 0.83889480E+02</pdfrwt>
<pdfrwt beam="2">  1       -1 0.23623045E+00 0.83889480E+02</pdfrwt>
<totfact> 0.54041322E+02</totfact>
</mgrwt>
</event>
<event>
 4    1  0.6602701E-002  0.1322782E+03  0.7546771E-02  0.1224114E+00
         -2   -1    0    0    0  501 -0.00000000000E+00  0.00000000000E+00  0.29222917939E+02  0.29222917939E+02  0.00000000000E+00 0.  1.
          2   -1    0    0  501    0  0.00000000000E+00 -0.00000000000E+00 -0.85001921795E+03  0.85001921795E+03  0.00000000000E+00 0. -1.
         24    1    1    2    0    0 -0.55468007486E+02  0.89183008047E+02 -0.64941296405E+03  0.66274785749E+03  0.80419002446E+02 0. -1.
        -24    1    1    2    0    0  0.55468007486E+02 -0.89183008047E+02 -0.17138333596E+03  0.21649427839E+03  0.80419002446E+02 0.  1.
<mgrwt>
<rscale>  0 0.13227821E+03</rscale>
<asrwt>0</asrwt>
<pdfrwt beam="1">  1        2 0.13077218E+00 0.13227821E+03</pdfrwt>
<pdfrwt beam="2">  1       -2 0.44958338E-02 0.13227821E+03</pdfrwt>
<totfact> 0.72853526E+03</totfact>
</mgrwt>
</event>
<event>
 4    1  0.6602701E-002  0.1005039E+03  0.7546771E-02  0.1279240E+00
          2   -1    0    0  501    0  0.00000000000E+00  0.00000000000E+00  0.94288905267E+03  0.94288905267E+03  0.00000000000E+00 0. -1.
         -2   -1    0    0    0  501 -0.00000000000E+00 -0.00000000000E+00 -0.14534326610E+02  0.14534326610E+02  0.00000000000E+00 0.  1.
         24    1    1    2    0    0  0.28837625411E+02  0.52935939005E+02  0.70964351856E+03  0.71672516467E+03  0.80419002446E+02 0. -1.
        -24    1    1    2    0    0 -0.28837625411E+02 -0.52935939005E+02  0.21871120750E+03  0.24069821461E+03  0.80419002446E+02 0.  1.
<mgrwt>
<rscale>  0 0.10050392E+03</rscale>
<asrwt>0</asrwt>
<pdfrwt beam="1">  1        2 0.14505981E+00 0.10050392E+03</pdfrwt>
<pdfrwt beam="2">  1       -2 0.22360510E-02 0.10050392E+03</pdfrwt>
<totfact> 0.17432747E+04</totfact>
</mgrwt>
</event>
<event>
 4    1  0.6602701E-002  0.9000458E+02  0.7546771E-02  0.1302841E+00
         -1   -1    0    0    0  501 -0.00000000000E+00  0.00000000000E+00  0.36888429013E+01  0.36888429013E+01  0.00000000000E+00 0.  1.
          1   -1    0    0  501    0  0.00000000000E+00 -0.00000000000E+00 -0.23277068009E+04  0.23277068009E+04  0.00000000000E+00 0. -1.
         24    1    1    2    0    0 -0.17420425043E+02  0.36471042652E+02 -0.88475995511E+03  0.88932615068E+03  0.80419002446E+02 0.  1.
        -24    1    1    2    0    0  0.17420425043E+02 -0.36471042652E+02 -0.14392580029E+04  0.14420694932E+04  0.80419002446E+02 0. -1.
<mgrwt>
<rscale>  0 0.90004578E+02</rscale>
<asrwt>0</asrwt>
<pdfrwt beam="1">  1        1 0.35810907E+00 0.90004578E+02</pdfrwt>
<pdfrwt beam="2">  1       -1 0.56751377E-03 0.90004578E+02</pdfrwt>
<totfact> 0.84976225E+03</totfact>
</mgrwt>
</event>
<event>
 4    1  0.6602701E-002  0.1349632E+03  0.7546771E-02  0.1220272E+00
         -2   -1    0    0    0  501 -0.00000000000E+00  0.00000000000E+00  0.12461670207E+02  0.12461670207E+02  0.00000000000E+00 0.  1.
          2   -1    0    0  501    0  0.00000000000E+00 -0.00000000000E+00 -0.18766048032E+04  0.18766048032E+04  0.00000000000E+00 0. -1.
         24    1    1    2    0    0 -0.29158479749E+02 -0.10439167191E+03 -0.13762036771E+04  0.13828057039E+04  0.80419002446E+02 0. -1.
        -24    1    1    2    0    0  0.29158479749E+02  0.10439167191E+03 -0.48793945598E+03  0.50626076952E+03  0.80419002446E+02 0.  1.
<mgrwt>
<rscale>  0 0.13496316E+03</rscale>
<asrwt>0</asrwt>
<pdfrwt beam="1">  1        2 0.28870823E+00 0.13496316E+03</pdfrwt>
<pdfrwt beam="2">  1       -2 0.19171813E-02 0.13496316E+03</pdfrwt>
<totfact> 0.70009455E+03</totfact>
</mgrwt>
</event>
<event>
 4    1  0.6602701E-002  0.8341161E+02  0.7546771E-02  0.1319639E+00
         -1   -1    0    0    0  501 -0.00000000000E+00  0.00000000000E+00  0.10276818303E+02  0.10276818303E+02  0.00000000000E+00 0.  1.
          1   -1    0    0  501    0  0.00000000000E+00 -0.00000000000E+00 -0.97702005899E+03  0.97702005899E+03  0.00000000000E+00 0. -1.
         24    1    1    2    0    0  0.19475272067E+02  0.10535368740E+02 -0.20982281502E+03  0.22579439735E+03  0.80419002446E+02 0.  1.
        -24    1    1    2    0    0 -0.19475272067E+02 -0.10535368740E+02 -0.75692042567E+03  0.76150247995E+03  0.80419002446E+02 0. -1.
<mgrwt>
<rscale>  0 0.83411607E+02</rscale>
<asrwt>0</asrwt>
<pdfrwt beam="1">  1        1 0.15031079E+00 0.83411607E+02</pdfrwt>
<pdfrwt beam="2">  1       -1 0.15810488E-02 0.83411607E+02</pdfrwt>
<totfact> 0.14847601E+04</totfact>
</mgrwt>
</event>
<event>
 4    1  0.6602701E-002  0.1119185E+03  0.7546771E-02  0.1257058E+00
         -2   -1    0    0    0  501 -0.00000000000E+00  0.00000000000E+00  0.24862686225E+03  0.24862686225E+03  0.00000000000E+00 0.  1.
          2   -1    0    0  501    0  0.00000000000E+00 -0.00000000000E+00 -0.72413677723E+02  0.72413677723E+02  0.00000000000E+00 0. -1.
         24    1    1    2    0    0  0.76197085541E+02 -0.15891532591E+02 -0.43876594675E+00  0.11191936885E+03  0.80419002446E+02 0.  0.
        -24    1    1    2    0    0 -0.76197085541E+02  0.15891532591E+02  0.17665195047E+03  0.20912117113E+03  0.80419002446E+02 0.  1.
<mgrwt>
<rscale>  0 0.11191851E+03</rscale>
<asrwt>0</asrwt>
<pdfrwt beam="1">  1        2 0.11140566E-01 0.11191851E+03</pdfrwt>
<pdfrwt beam="2">  1       -2 0.38250286E-01 0.11191851E+03</pdfrwt>
<totfact> 0.34396648E+03</totfact>
</mgrwt>
</event>
<event>
 4    1  0.6602701E-002  0.8054592E+02  0.7546771E-02  0.1327509E+00
         -2   -1    0    0    0  501 -0.00000000000E+00  0.00000000000E+00  0.41980396792E+02  0.41980396792E+02  0.00000000000E+00 0.  1.
          2   -1    0    0  501    0  0.00000000000E+00 -0.00000000000E+00 -0.33918547564E+03  0.33918547564E+03  0.00000000000E+00 0. -1.
         24    1    1    2    0    0  0.20153546275E+01 -0.40456206078E+01 -0.28921858801E+03  0.30022497615E+03  0.80419002446E+02 0.  0.
        -24    1    1    2    0    0 -0.20153546275E+01  0.40456206078E+01 -0.79864908383E+01  0.80940896280E+02  0.80419002446E+02 0.  0.
<mgrwt>
<rscale>  0 0.80545916E+02</rscale>
<asrwt>0</asrwt>
<pdfrwt beam="1">  1        2 0.52182383E-01 0.80545916E+02</pdfrwt>
<pdfrwt beam="2">  1       -2 0.64585223E-02 0.80545916E+02</pdfrwt>
<totfact> 0.11412164E+04</totfact>
</mgrwt>
</event>
<event>
 4    1  0.6602701E-002  0.1320121E+03  0.7546771E-02  0.1224500E+00
          1   -1    0    0  501    0  0.00000000000E+00  0.00000000000E+00  0.14211873435E+04  0.14211873435E+04  0.00000000000E+00 0. -1.
         -1   -1    0    0    0  501 -0.00000000000E+00 -0.00000000000E+00 -0.18147049197E+02  0.18147049197E+02  0.00000000000E+00 0.  1.
         24    1    1    2    0    0  0.99809115019E+02 -0.31593146931E+02  0.29170492246E+03  0.32018582748E+03  0.80419002446E+02 0. -1.
        -24    1    1    2    0    0 -0.99809115019E+02  0.31593146931E+02  0.11113353718E+04  0.11191485652E+04  0.80419002446E+02 0.  1.
<mgrwt>
<rscale>  0 0.13201213E+03</rscale>
<asrwt>0</asrwt>
<pdfrwt beam="1">  1        1 0.21864412E+00 0.13201213E+03</pdfrwt>
<pdfrwt beam="2">  1       -1 0.27918548E-02 0.13201213E+03</pdfrwt>
<totfact> 0.33503978E+03</totfact>
</mgrwt>
</event>
<event>
 4    1  0.6602701E-002  0.8588600E+02  0.7546771E-02  0.1313132E+00
         -1   -1    0    0    0  501 -0.00000000000E+00  0.00000000000E+00  0.86096243041E+02  0.86096243041E+02  0.00000000000E+00 0.  1.
          1   -1    0    0  501    0  0.00000000000E+00 -0.00000000000E+00 -0.13500263360E+03  0.13500263360E+03  0.00000000000E+00 0. -1.
         24    1    1    2    0    0  0.30140576585E+02 -0.85682683911E+00  0.42369654907E+02  0.95768429664E+02  0.80419002446E+02 0.  1.
        -24    1    1    2    0    0 -0.30140576585E+02  0.85682683911E+00 -0.91276045467E+02  0.12533044698E+03  0.80419002446E+02 0. -1.
<mgrwt>
<rscale>  0 0.85885997E+02</rscale>
<asrwt>0</asrwt>
<pdfrwt beam="1">  1        1 0.20769636E-01 0.85885997E+02</pdfrwt>
<pdfrwt beam="2">  1       -1 0.13245576E-01 0.85885997E+02</pdfrwt>
<totfact> 0.86452734E+03</totfact>
</mgrwt>
</event>
<event>
 4    1  0.6602701E-002  0.8370967E+02  0.7546771E-02  0.1318842E+00
         -4   -1    0    0    0  501 -0.00000000000E+00  0.00000000000E+00  0.14154320175E+03  0.14154320175E+03  0.00000000000E+00 0.  1.
          4   -1    0    0  501    0  0.00000000000E+00 -0.00000000000E+00 -0.56486411512E+02  0.56486411512E+02  0.00000000000E+00 0. -1.
         24    1    1    2    0    0  0.16652535493E+02  0.16210690067E+02  0.77224907184E+01  0.84065130869E+02  0.80419002446E+02 0. -1.
        -24    1    1    2    0    0 -0.16652535493E+02 -0.16210690067E+02  0.77334299521E+02  0.11396448239E+03  0.80419002446E+02 0.  1.
<mgrwt>
<rscale>  0 0.83709673E+02</rscale>
<asrwt>0</asrwt>
<pdfrwt beam="1">  1        4 0.86902172E-02 0.83709673E+02</pdfrwt>
<pdfrwt beam="2">  1       -4 0.21775877E-01 0.83709673E+02</pdfrwt>
<totfact> 0.26915431E+03</totfact>
</mgrwt>
</event>
<event>
 4    1  0.6602701E-002  0.8378850E+02  0.7546771E-02  0.1318631E+00
          2   -1    0    0  501    0  0.00000000000E+00  0.00000000000E+00  0.27767278357E+04  0.27767278357E+04  0.00000000000E+00 0. -1.
         -2   -1    0    0    0  501 -0.00000000000E+00 -0.00000000000E+00 -0.10849849015E+02  0.10849849015E+02  0.00000000000E+00 0.  1.
         24    1    1    2    0    0 -0.22813933662E+02 -0.57289455235E+01  0.26035750023E+04  0.26049228981E+04  0.80419002446E+02 0.  0.
        -24    1    1    2    0    0  0.22813933662E+02  0.57289455235E+01  0.16230298438E+03  0.18265478663E+03  0.80419002446E+02 0.  1.
<mgrwt>
<rscale>  0 0.83788498E+02</rscale>
<asrwt>0</asrwt>
<pdfrwt beam="1">  1        2 0.42718833E+00 0.83788498E+02</pdfrwt>
<pdfrwt beam="2">  1       -2 0.16692098E-02 0.83788498E+02</pdfrwt>
<totfact> 0.28889421E+03</totfact>
</mgrwt>
</event>
<event>
 4    1  0.6602701E-002  0.9574671E+02  0.7546771E-02  0.1289503E+00
          2   -1    0    0  501    0  0.00000000000E+00  0.00000000000E+00  0.77419222731E+03  0.77419222731E+03  0.00000000000E+00 0. -1.
         -2   -1    0    0    0  501 -0.00000000000E+00 -0.00000000000E+00 -0.16494461737E+02  0.16494461737E+02  0.00000000000E+00 0.  1.
         24    1    1    2    0    0  0.49096272017E+02  0.17022705611E+02  0.58882990087E+03  0.59656356287E+03  0.80419002446E+02 0. -1.
        -24    1    1    2    0    0 -0.49096272017E+02 -0.17022705611E+02  0.16886786470E+03  0.19412312617E+03  0.80419002446E+02 0.  1.
<mgrwt>
<rscale>  0 0.95746710E+02</rscale>
<asrwt>0</asrwt>
<pdfrwt beam="1">  1        2 0.11910647E+00 0.95746710E+02</pdfrwt>
<pdfrwt beam="2">  1       -2 0.25376101E-02 0.95746710E+02</pdfrwt>
<totfact> 0.18536546E+04</totfact>
</mgrwt>
</event>
<event>
 4    1  0.6602701E-002  0.1386400E+03  0.7546771E-02  0.1215171E+00
         -1   -1    0    0    0  501 -0.00000000000E+00  0.00000000000E+00  0.10132316603E+04  0.10132316603E+04  0.00000000000E+00 0.  1.
          1   -1    0    0  501    0  0.00000000000E+00 -0.00000000000E+00 -0.19944264745E+02  0.19944264745E+02  0.00000000000E+00 0. -1.
         24    1    1    2    0    0 -0.87318156502E+02 -0.71619726046E+02  0.61081612329E+03  0.62635245513E+03  0.80419002446E+02 0.  1.
        -24    1    1    2    0    0  0.87318156502E+02  0.71619726046E+02  0.38247127222E+03  0.40682346987E+03  0.80419002446E+02 0. -1.
<mgrwt>
<rscale>  0 0.13864004E+03</rscale>
<asrwt>0</asrwt>
<pdfrwt beam="1">  1        1 0.30683492E-02 0.13864004E+03</pdfrwt>
<pdfrwt beam="2">  1       -1 0.15588175E+00 0.13864004E+03</pdfrwt>
<totfact> 0.11053093E+03</totfact>
</mgrwt>
</event>
<event>
 4    1  0.6602701E-002  0.8094401E+02  0.7546771E-02  0.1326394E+00
          1   -1    0    0  501    0  0.00000000000E+00  0.00000000000E+00  0.66603093208E+02  0.66603093208E+02  0.00000000000E+00 0. -1.
         -1   -1    0    0    0  501 -0.00000000000E+00 -0.00000000000E+00 -0.10163141210E+03  0.10163141210E+03  0.00000000000E+00 0.  1.
         24    1    1    2    0    0  0.68779331004E+01 -0.61164073358E+01 -0.32576339795E+02  0.87253368251E+02  0.80419002446E+02 0.  1.
        -24    1    1    2    0    0 -0.68779331004E+01  0.61164073358E+01 -0.24519790921E+01  0.80981137052E+02  0.80419002446E+02 0.  0.
<mgrwt>
<rscale>  0 0.80944008E+02</rscale>
<asrwt>0</asrwt>
<pdfrwt beam="1">  1        1 0.10246630E-01 0.80944008E+02</pdfrwt>
<pdfrwt beam="2">  1       -1 0.15635602E-01 0.80944008E+02</pdfrwt>
<totfact> 0.16403565E+04</totfact>
</mgrwt>
</event>
<event>
 4    1  0.6602701E-002  0.8434609E+02  0.7546771E-02  0.1317151E+00
          2   -1    0    0  501    0  0.00000000000E+00  0.00000000000E+00  0.13323961641E+04  0.13323961641E+04  0.00000000000E+00 0. -1.
         -2   -1    0    0    0  501 -0.00000000000E+00 -0.00000000000E+00 -0.15398911218E+02  0.15398911218E+02  0.00000000000E+00 0.  1.
         24    1    1    2    0    0 -0.24685661689E+02 -0.61372073254E+01  0.12031720872E+04  0.12061249249E+04  0.80419002446E+02 0. -1.
        -24    1    1    2    0    0  0.24685661689E+02  0.61372073254E+01  0.11382516564E+03  0.14167015033E+03  0.80419002446E+02 0.  1.
<mgrwt>
<rscale>  0 0.84346092E+02</rscale>
<asrwt>0</asrwt>
<pdfrwt beam="1">  1        2 0.20498394E+00 0.84346092E+02</pdfrwt>
<pdfrwt beam="2">  1       -2 0.23690643E-02 0.84346092E+02</pdfrwt>
<totfact> 0.96091794E+03</totfact>
</mgrwt>
</event>
<event>
 4    1  0.6602701E-002  0.8584683E+02  0.7546771E-02  0.1313233E+00
         -2   -1    0    0    0  501 -0.00000000000E+00  0.00000000000E+00  0.87402925602E+02  0.87402925602E+02  0.00000000000E+00 0.  1.
          2   -1    0    0  501    0  0.00000000000E+00 -0.00000000000E+00 -0.84470055259E+02  0.84470055259E+02  0.00000000000E+00 0. -1.
         24    1    1    2    0    0  0.23716649351E+02  0.18438499679E+02  0.51078820497E+01  0.85998628711E+02  0.80419002446E+02 0.  1.
        -24    1    1    2    0    0 -0.23716649351E+02 -0.18438499679E+02 -0.21750117058E+01  0.85874352150E+02  0.80419002446E+02 0. -1.
<mgrwt>
<rscale>  0 0.85846814E+02</rscale>
<asrwt>0</asrwt>
<pdfrwt beam="1">  1        2 0.12995393E-01 0.85846825E+02</pdfrwt>
<pdfrwt beam="2">  1       -2 0.13446604E-01 0.85846825E+02</pdfrwt>
<totfact> 0.16832747E+04</totfact>
</mgrwt>
</event>
<event>
 4    1  0.6602701E-002  0.8633090E+02  0.7546771E-02  0.1311988E+00
         -2   -1    0    0    0  501 -0.00000000000E+00  0.00000000000E+00  0.12918800959E+03  0.12918800959E+03  0.00000000000E+00 0.  1.
          2   -1    0    0  501    0  0.00000000000E+00 -0.00000000000E+00 -0.13597401496E+03  0.13597401496E+03  0.00000000000E+00 0. -1.
         24    1    1    2    0    0 -0.16618744155E+02 -0.26638802396E+02 -0.10399029828E+03  0.13515549023E+03  0.80419002446E+02 0. -1.
        -24    1    1    2    0    0  0.16618744155E+02  0.26638802396E+02  0.97204292905E+02  0.13000653431E+03  0.80419002446E+02 0.  1.
<mgrwt>
<rscale>  0 0.86330901E+02</rscale>
<asrwt>0</asrwt>
<pdfrwt beam="1">  1        2 0.20919079E-01 0.86330901E+02</pdfrwt>
<pdfrwt beam="2">  1       -2 0.19875078E-01 0.86330901E+02</pdfrwt>
<totfact> 0.51688394E+03</totfact>
</mgrwt>
</event>
<event>
 4    1  0.6602701E-002  0.9181087E+02  0.7546771E-02  0.1298525E+00
          2   -1    0    0  501    0  0.00000000000E+00  0.00000000000E+00  0.12491037912E+04  0.12491037912E+04  0.00000000000E+00 0. -1.
         -2   -1    0    0    0  501 -0.00000000000E+00 -0.00000000000E+00 -0.72304920031E+01  0.72304920031E+01  0.00000000000E+00 0.  1.
         24    1    1    2    0    0 -0.43110171845E+02  0.10175114073E+02  0.78316778384E+03  0.78853092105E+03  0.80419002446E+02 0. -1.
        -24    1    1    2    0    0  0.43110171845E+02 -0.10175114073E+02  0.45870551539E+03  0.46780336218E+03  0.80419002446E+02 0.  1.
<mgrwt>
<rscale>  0 0.91810870E+02</rscale>
<asrwt>0</asrwt>
<pdfrwt beam="1">  1        2 0.19216964E+00 0.91810870E+02</pdfrwt>
<pdfrwt beam="2">  1       -2 0.11123844E-02 0.91810870E+02</pdfrwt>
<totfact> 0.31508889E+04</totfact>
</mgrwt>
</event>
<event>
 4    1  0.6602701E-002  0.2742111E+03  0.7546771E-02  0.1098893E+00
         -1   -1    0    0    0  501 -0.00000000000E+00  0.00000000000E+00  0.79751341721E+02  0.79751341721E+02  0.00000000000E+00 0.  1.
          1   -1    0    0  501    0  0.00000000000E+00 -0.00000000000E+00 -0.28162131776E+04  0.28162131776E+04  0.00000000000E+00 0. -1.
         24    1    1    2    0    0  0.24313742946E+03 -0.98023950532E+02 -0.18724660070E+03  0.33204368675E+03  0.80419002446E+02 0.  1.
        -24    1    1    2    0    0 -0.24313742946E+03  0.98023950532E+02 -0.25492152352E+04  0.25639208326E+04  0.80419002446E+02 0. -1.
<mgrwt>
<rscale>  0 0.27421109E+03</rscale>
<asrwt>0</asrwt>
<pdfrwt beam="1">  1        1 0.43326357E+00 0.27421109E+03</pdfrwt>
<pdfrwt beam="2">  1       -1 0.12269437E-01 0.27421109E+03</pdfrwt>
<totfact> 0.43017858E+01</totfact>
</mgrwt>
</event>
<event>
 4    1  0.6602701E-002  0.9710276E+02  0.7546771E-02  0.1286509E+00
          1   -1    0    0  501    0  0.00000000000E+00  0.00000000000E+00  0.76558611423E+03  0.76558611423E+03  0.00000000000E+00 0. -1.
         -1   -1    0    0    0  501 -0.00000000000E+00 -0.00000000000E+00 -0.13119233305E+02  0.13119233305E+02  0.00000000000E+00 0.  1.
         24    1    1    2    0    0 -0.51269472695E+02  0.18252955001E+02  0.27989169052E+03  0.29625715784E+03  0.80419002446E+02 0.  0.
        -24    1    1    2    0    0  0.51269472695E+02 -0.18252955001E+02  0.47257519040E+03  0.48244818969E+03  0.80419002446E+02 0.  1.
<mgrwt>
<rscale>  0 0.97102756E+02</rscale>
<asrwt>0</asrwt>
<pdfrwt beam="1">  1        1 0.11778244E+00 0.97102756E+02</pdfrwt>
<pdfrwt beam="2">  1       -1 0.20183442E-02 0.97102756E+02</pdfrwt>
<totfact> 0.15459729E+04</totfact>
</mgrwt>
</event>
<event>
 4    1  0.6602701E-002  0.1007818E+03  0.7546771E-02  0.1278661E+00
         -2   -1    0    0    0  501 -0.00000000000E+00  0.00000000000E+00  0.28732198420E+02  0.28732198420E+02  0.00000000000E+00 0.  1.
          2   -1    0    0  501    0  0.00000000000E+00 -0.00000000000E+00 -0.70066488231E+03  0.70066488231E+03  0.00000000000E+00 0. -1.
         24    1    1    2    0    0 -0.60718863158E+02 -0.17227637954E+01 -0.59267698120E+03  0.60118463741E+03  0.80419002446E+02 0. -1.
        -24    1    1    2    0    0  0.60718863158E+02  0.17227637954E+01 -0.79255702685E+02  0.12821244331E+03  0.80419002446E+02 0.  1.
<mgrwt>
<rscale>  0 0.10078177E+03</rscale>
<asrwt>0</asrwt>
<pdfrwt beam="1">  1        2 0.10779460E+00 0.10078177E+03</pdfrwt>
<pdfrwt beam="2">  1       -2 0.44203383E-02 0.10078177E+03</pdfrwt>
<totfact> 0.93026207E+03</totfact>
</mgrwt>
</event>
<event>
 4    1  0.6602701E-002  0.1084900E+03  0.7546771E-02  0.1263392E+00
          2   -1    0    0  501    0  0.00000000000E+00  0.00000000000E+00  0.12957550522E+03  0.12957550522E+03  0.00000000000E+00 0. -1.
         -2   -1    0    0    0  501 -0.00000000000E+00 -0.00000000000E+00 -0.10253977861E+03  0.10253977861E+03  0.00000000000E+00 0.  1.
         24    1    1    2    0    0  0.67390823849E+02 -0.27592307462E+02 -0.25692168963E+02  0.11149063669E+03  0.80419002446E+02 0. -1.
        -24    1    1    2    0    0 -0.67390823849E+02  0.27592307462E+02  0.52727895571E+02  0.12062464713E+03  0.80419002446E+02 0. -1.
<mgrwt>
<rscale>  0 0.10848999E+03</rscale>
<asrwt>0</asrwt>
<pdfrwt beam="1">  1        2 0.19934693E-01 0.10849000E+03</pdfrwt>
<pdfrwt beam="2">  1       -2 0.15775350E-01 0.10849000E+03</pdfrwt>
<totfact> 0.81368674E+03</totfact>
</mgrwt>
</event>
<event>
 4    1  0.6602701E-002  0.8318226E+02  0.7546771E-02  0.1320256E+00
          2   -1    0    0  501    0  0.00000000000E+00  0.00000000000E+00  0.64858607164E+03  0.64858607164E+03  0.00000000000E+00 0. -1.
         -2   -1    0    0    0  501 -0.00000000000E+00 -0.00000000000E+00 -0.16325925919E+02  0.16325925919E+02  0.00000000000E+00 0.  1.
         24    1    1    2    0    0 -0.19752884042E+02  0.78673546449E+01  0.51184040158E+03  0.51855557498E+03  0.80419002446E+02 0. -1.
        -24    1    1    2    0    0  0.19752884042E+02 -0.78673546449E+01  0.12041974414E+03  0.14635642258E+03  0.80419002446E+02 0.  1.
<mgrwt>
<rscale>  0 0.83182256E+02</rscale>
<asrwt>0</asrwt>
<pdfrwt beam="1">  1        2 0.99782453E-01 0.83182256E+02</pdfrwt>
<pdfrwt beam="2">  1       -2 0.25116814E-02 0.83182256E+02</pdfrwt>
<totfact> 0.22841518E+04</totfact>
</mgrwt>
</event>
<event>
 4    1  0.6602701E-002  0.8469551E+02  0.7546771E-02  0.1316231E+00
          2   -1    0    0  501    0  0.00000000000E+00  0.00000000000E+00  0.59507602131E+03  0.59507602131E+03  0.00000000000E+00 0. -1.
         -2   -1    0    0    0  501 -0.00000000000E+00 -0.00000000000E+00 -0.12306455248E+02  0.12306455248E+02  0.00000000000E+00 0.  1.
         24    1    1    2    0    0 -0.12840819229E+02 -0.23264282837E+02  0.33484064866E+03  0.34538614541E+03  0.80419002446E+02 0. -1.
        -24    1    1    2    0    0  0.12840819229E+02  0.23264282837E+02  0.24792891740E+03  0.26199633114E+03  0.80419002446E+02 0.  1.
<mgrwt>
<rscale>  0 0.84695510E+02</rscale>
<asrwt>0</asrwt>
<pdfrwt beam="1">  1        2 0.91550135E-01 0.84695510E+02</pdfrwt>
<pdfrwt beam="2">  1       -2 0.18933013E-02 0.84695510E+02</pdfrwt>
<totfact> 0.37841705E+04</totfact>
</mgrwt>
</event>
<event>
 4    1  0.6602701E-002  0.1714864E+03  0.7546771E-02  0.1176307E+00
          2   -1    0    0  501    0  0.00000000000E+00  0.00000000000E+00  0.18792547352E+04  0.18792547352E+04  0.00000000000E+00 0. -1.
         -2   -1    0    0    0  501 -0.00000000000E+00 -0.00000000000E+00 -0.18099452790E+02  0.18099452790E+02  0.00000000000E+00 0.  1.
         24    1    1    2    0    0  0.10135124542E+03  0.11255356771E+03  0.12796773215E+04  0.12911164330E+04  0.80419002446E+02 0. -1.
        -24    1    1    2    0    0 -0.10135124542E+03 -0.11255356771E+03  0.58147796098E+03  0.60623775502E+03  0.80419002446E+02 0.  1.
<mgrwt>
<rscale>  0 0.17148643E+03</rscale>
<asrwt>0</asrwt>
<pdfrwt beam="1">  1        2 0.28911596E+00 0.17148643E+03</pdfrwt>
<pdfrwt beam="2">  1       -2 0.27845327E-02 0.17148643E+03</pdfrwt>
<totfact> 0.40597447E+03</totfact>
</mgrwt>
</event>
<event>
 4    1  0.6602701E-002  0.8293567E+02  0.7546771E-02  0.1320921E+00
          1   -1    0    0  501    0  0.00000000000E+00  0.00000000000E+00  0.73860801018E+03  0.73860801018E+03  0.00000000000E+00 0. -1.
         -1   -1    0    0    0  501 -0.00000000000E+00 -0.00000000000E+00 -0.14422806864E+02  0.14422806864E+02  0.00000000000E+00 0.  1.
         24    1    1    2    0    0 -0.15876440571E+02  0.12611403898E+02  0.13797334210E+03  0.16098126586E+03  0.80419002446E+02 0.  1.
        -24    1    1    2    0    0  0.15876440571E+02 -0.12611403898E+02  0.58621186122E+03  0.59204955118E+03  0.80419002446E+02 0. -1.
<mgrwt>
<rscale>  0 0.82935667E+02</rscale>
<asrwt>0</asrwt>
<pdfrwt beam="1">  1        1 0.11363197E+00 0.82935667E+02</pdfrwt>
<pdfrwt beam="2">  1       -1 0.22188939E-02 0.82935667E+02</pdfrwt>
<totfact> 0.14029579E+04</totfact>
</mgrwt>
</event>
<event>
 4    1  0.6602701E-002  0.9655786E+02  0.7546771E-02  0.1287705E+00
         -1   -1    0    0    0  501 -0.00000000000E+00  0.00000000000E+00  0.98282846835E+02  0.98282846835E+02  0.00000000000E+00 0.  1.
          1   -1    0    0  501    0  0.00000000000E+00 -0.00000000000E+00 -0.14655975858E+03  0.14655975858E+03  0.00000000000E+00 0. -1.
         24    1    1    2    0    0  0.81235578347E+01  0.52822455610E+02  0.48569288765E+02  0.10808513207E+03  0.80419002446E+02 0.  1.
        -24    1    1    2    0    0 -0.81235578347E+01 -0.52822455610E+02 -0.96846200512E+02  0.13675747335E+03  0.80419002446E+02 0. -1.
<mgrwt>
<rscale>  0 0.96557858E+02</rscale>
<asrwt>0</asrwt>
<pdfrwt beam="1">  1        1 0.22547655E-01 0.96557858E+02</pdfrwt>
<pdfrwt beam="2">  1       -1 0.15120438E-01 0.96557858E+02</pdfrwt>
<totfact> 0.64225748E+03</totfact>
</mgrwt>
</event>
<event>
 4    1  0.6602701E-002  0.8472608E+02  0.7546771E-02  0.1316150E+00
         -3   -1    0    0    0  501 -0.00000000000E+00  0.00000000000E+00  0.42120051500E+01  0.42120051500E+01  0.00000000000E+00 0.  1.
          3   -1    0    0  501    0  0.00000000000E+00 -0.00000000000E+00 -0.17809326732E+04  0.17809326732E+04  0.00000000000E+00 0. -1.
         24    1    1    2    0    0 -0.22496888584E+02 -0.14324199978E+02 -0.70320571686E+03  0.70829145758E+03  0.80419002446E+02 0.  1.
        -24    1    1    2    0    0  0.22496888584E+02  0.14324199978E+02 -0.10735149511E+04  0.10768532207E+04  0.80419002446E+02 0. -1.
<mgrwt>
<rscale>  0 0.84726080E+02</rscale>
<asrwt>0</asrwt>
<pdfrwt beam="1">  1        3 0.27399011E+00 0.84726080E+02</pdfrwt>
<pdfrwt beam="2">  1       -3 0.64799968E-03 0.84726080E+02</pdfrwt>
<totfact> 0.71037699E+02</totfact>
</mgrwt>
</event>
<event>
 4    1  0.6602701E-002  0.9118231E+02  0.7546771E-02  0.1300014E+00
          2   -1    0    0  501    0  0.00000000000E+00  0.00000000000E+00  0.25049432432E+03  0.25049432432E+03  0.00000000000E+00 0. -1.
         -2   -1    0    0    0  501 -0.00000000000E+00 -0.00000000000E+00 -0.37736893587E+02  0.37736893587E+02  0.00000000000E+00 0.  1.
         24    1    1    2    0    0  0.36532266183E+02 -0.22636055071E+02  0.15639677550E+03  0.18103636320E+03  0.80419002446E+02 0. -1.
        -24    1    1    2    0    0 -0.36532266183E+02  0.22636055071E+02  0.56360655232E+02  0.10719485470E+03  0.80419002446E+02 0.  1.
<mgrwt>
<rscale>  0 0.91182309E+02</rscale>
<asrwt>0</asrwt>
<pdfrwt beam="1">  1        2 0.38537587E-01 0.91182309E+02</pdfrwt>
<pdfrwt beam="2">  1       -2 0.58056761E-02 0.91182309E+02</pdfrwt>
<totfact> 0.18600537E+04</totfact>
</mgrwt>
</event>
<event>
 4    1  0.6602701E-002  0.1010641E+03  0.7546771E-02  0.1278074E+00
         -1   -1    0    0    0  501 -0.00000000000E+00  0.00000000000E+00  0.33074406877E+03  0.33074406877E+03  0.00000000000E+00 0.  1.
          1   -1    0    0  501    0  0.00000000000E+00 -0.00000000000E+00 -0.51693911022E+02  0.51693911022E+02  0.00000000000E+00 0. -1.
         24    1    1    2    0    0 -0.44055817764E+02 -0.42494974895E+02  0.26085557325E+03  0.27974914481E+03  0.80419002446E+02 0.  1.
        -24    1    1    2    0    0  0.44055817764E+02  0.42494974895E+02  0.18194584492E+02  0.10268883498E+03  0.80419002446E+02 0. -1.
<mgrwt>
<rscale>  0 0.10106411E+03</rscale>
<asrwt>0</asrwt>
<pdfrwt beam="1">  1        1 0.79529096E-02 0.10106411E+03</pdfrwt>
<pdfrwt beam="2">  1       -1 0.50883702E-01 0.10106411E+03</pdfrwt>
<totfact> 0.32932185E+03</totfact>
</mgrwt>
</event>
<event>
 4    1  0.6602701E-002  0.1014088E+03  0.7546771E-02  0.1277361E+00
         -2   -1    0    0    0  501 -0.00000000000E+00  0.00000000000E+00  0.20383589153E+02  0.20383589153E+02  0.00000000000E+00 0.  1.
          2   -1    0    0  501    0  0.00000000000E+00 -0.00000000000E+00 -0.51887002912E+03  0.51887002912E+03  0.00000000000E+00 0. -1.
         24    1    1    2    0    0 -0.33579152773E+02 -0.51855270755E+02 -0.29409674753E+03  0.31108944287E+03  0.80419002446E+02 0. -1.
        -24    1    1    2    0    0  0.33579152773E+02  0.51855270755E+02 -0.20438969244E+03  0.22816417540E+03  0.80419002446E+02 0.  0.
<mgrwt>
<rscale>  0 0.10140880E+03</rscale>
<asrwt>0</asrwt>
<pdfrwt beam="1">  1        2 0.79826146E-01 0.10140880E+03</pdfrwt>
<pdfrwt beam="2">  1       -2 0.31359373E-02 0.10140880E+03</pdfrwt>
<totfact> 0.21634762E+04</totfact>
</mgrwt>
</event>
<event>
 4    1  0.6602701E-002  0.1943342E+03  0.7546771E-02  0.1154609E+00
          2   -1    0    0  501    0  0.00000000000E+00  0.00000000000E+00  0.14682099182E+04  0.14682099182E+04  0.00000000000E+00 0. -1.
         -2   -1    0    0    0  501 -0.00000000000E+00 -0.00000000000E+00 -0.25732492800E+02  0.25732492800E+02  0.00000000000E+00 0.  1.
         24    1    1    2    0    0 -0.81525001076E+02  0.15701028824E+03  0.73608715912E+03  0.76130813616E+03  0.80419002446E+02 0. -1.
        -24    1    1    2    0    0  0.81525001076E+02 -0.15701028824E+03  0.70639026627E+03  0.73263427483E+03  0.80419002446E+02 0.  1.
<mgrwt>
<rscale>  0 0.19433418E+03</rscale>
<asrwt>0</asrwt>
<pdfrwt beam="1">  1        2 0.22587838E+00 0.19433418E+03</pdfrwt>
<pdfrwt beam="2">  1       -2 0.39588462E-02 0.19433418E+03</pdfrwt>
<totfact> 0.39453314E+03</totfact>
</mgrwt>
</event>
<event>
 4    1  0.6602701E-002  0.1039650E+03  0.7546771E-02  0.1272172E+00
          2   -1    0    0  501    0  0.00000000000E+00  0.00000000000E+00  0.26111263800E+02  0.26111263800E+02  0.00000000000E+00 0. -1.
         -2   -1    0    0    0  501 -0.00000000000E+00 -0.00000000000E+00 -0.41860398595E+03  0.41860398595E+03  0.00000000000E+00 0.  1.
         24    1    1    2    0    0 -0.58920693371E+02 -0.29493269991E+02 -0.17279676097E+03  0.20166169106E+03  0.80419002446E+02 0. -1.
        -24    1    1    2    0    0  0.58920693371E+02  0.29493269991E+02 -0.21969596117E+03  0.24305355869E+03  0.80419002446E+02 0.  0.
<mgrwt>
<rscale>  0 0.10396498E+03</rscale>
<asrwt>0</asrwt>
<pdfrwt beam="1">  1        2 0.40171179E-02 0.10396498E+03</pdfrwt>
<pdfrwt beam="2">  1       -2 0.64400607E-01 0.10396498E+03</pdfrwt>
<totfact> 0.44568657E+03</totfact>
</mgrwt>
</event>
<event>
 4    1  0.6602701E-002  0.1129291E+03  0.7546771E-02  0.1255240E+00
         -1   -1    0    0    0  501 -0.00000000000E+00  0.00000000000E+00  0.13344994768E+02  0.13344994768E+02  0.00000000000E+00 0.  1.
          1   -1    0    0  501    0  0.00000000000E+00 -0.00000000000E+00 -0.13742594922E+04  0.13742594922E+04  0.00000000000E+00 0. -1.
         24    1    1    2    0    0  0.12985516769E+02  0.78212129862E+02 -0.29753344014E+03  0.31824381354E+03  0.80419002446E+02 0.  1.
        -24    1    1    2    0    0 -0.12985516769E+02 -0.78212129862E+02 -0.10633810572E+04  0.10693606734E+04  0.80419002446E+02 0. -1.
<mgrwt>
<rscale>  0 0.11292908E+03</rscale>
<asrwt>0</asrwt>
<pdfrwt beam="1">  1        1 0.21142456E+00 0.11292908E+03</pdfrwt>
<pdfrwt beam="2">  1       -1 0.20530759E-02 0.11292908E+03</pdfrwt>
<totfact> 0.55787934E+03</totfact>
</mgrwt>
</event>
<event>
 4    1  0.6602701E-002  0.8056420E+02  0.7546771E-02  0.1327458E+00
         -2   -1    0    0    0  501 -0.00000000000E+00  0.00000000000E+00  0.16758583927E+02  0.16758583927E+02  0.00000000000E+00 0.  1.
          2   -1    0    0  501    0  0.00000000000E+00 -0.00000000000E+00 -0.59062833672E+03  0.59062833672E+03  0.00000000000E+00 0. -1.
         24    1    1    2    0    0  0.37051879958E+01  0.31056776817E+01 -0.46512264459E+03  0.47204837053E+03  0.80419002446E+02 0. -1.
        -24    1    1    2    0    0 -0.37051879958E+01 -0.31056776817E+01 -0.10874710820E+03  0.13533855012E+03  0.80419002446E+02 0.  0.
<mgrwt>
<rscale>  0 0.80564196E+02</rscale>
<asrwt>0</asrwt>
<pdfrwt beam="1">  1        2 0.90865892E-01 0.80564196E+02</pdfrwt>
<pdfrwt beam="2">  1       -2 0.25782439E-02 0.80564196E+02</pdfrwt>
<totfact> 0.24351842E+04</totfact>
</mgrwt>
</event>
<event>
 4    1  0.6602701E-002  0.8571564E+02  0.7546771E-02  0.1313572E+00
         -2   -1    0    0    0  501 -0.00000000000E+00  0.00000000000E+00  0.36304379456E+02  0.36304379456E+02  0.00000000000E+00 0.  1.
          2   -1    0    0  501    0  0.00000000000E+00 -0.00000000000E+00 -0.58678132964E+03  0.58678132964E+03  0.00000000000E+00 0. -1.
         24    1    1    2    0    0  0.27356094675E+02  0.11471669976E+02 -0.52739707920E+03  0.53431718130E+03  0.80419002446E+02 0. -1.
        -24    1    1    2    0    0 -0.27356094675E+02 -0.11471669976E+02 -0.23079870981E+02  0.88768527794E+02  0.80419002446E+02 0.  1.
<mgrwt>
<rscale>  0 0.85715641E+02</rscale>
<asrwt>0</asrwt>
<pdfrwt beam="1">  1        2 0.90274053E-01 0.85715641E+02</pdfrwt>
<pdfrwt beam="2">  1       -2 0.55852890E-02 0.85715641E+02</pdfrwt>
<totfact> 0.79511372E+03</totfact>
</mgrwt>
</event>
<event>
 4    1  0.6602701E-002  0.2366493E+03  0.7546771E-02  0.1122045E+00
         -2   -1    0    0    0  501 -0.00000000000E+00  0.00000000000E+00  0.24403074147E+03  0.24403074147E+03  0.00000000000E+00 0.  1.
          2   -1    0    0  501    0  0.00000000000E+00 -0.00000000000E+00 -0.52150098821E+03  0.52150098821E+03  0.00000000000E+00 0. -1.
         24    1    1    2    0    0 -0.20660333107E+03 -0.82769079773E+02 -0.42515585060E+03  0.48658028138E+03  0.80419002446E+02 0. -1.
        -24    1    1    2    0    0  0.20660333107E+03  0.82769079773E+02  0.14768560385E+03  0.27895144831E+03  0.80419002446E+02 0.  1.
<mgrwt>
<rscale>  0 0.23664926E+03</rscale>
<asrwt>0</asrwt>
<pdfrwt beam="1">  1        2 0.80230922E-01 0.23664926E+03</pdfrwt>
<pdfrwt beam="2">  1       -2 0.37543191E-01 0.23664926E+03</pdfrwt>
<totfact> 0.40245434E+02</totfact>
</mgrwt>
</event>
<event>
 4    1  0.6602701E-002  0.8098886E+02  0.7546771E-02  0.1326268E+00
          4   -1    0    0  501    0  0.00000000000E+00  0.00000000000E+00  0.31837462682E+02  0.31837462682E+02  0.00000000000E+00 0. -1.
         -4   -1    0    0    0  501 -0.00000000000E+00 -0.00000000000E+00 -0.23668973182E+03  0.23668973182E+03  0.00000000000E+00 0.  1.
         24    1    1    2    0    0  0.79143620080E+01 -0.54166298796E+01 -0.15075592465E+03  0.17113311128E+03  0.80419002446E+02 0.  1.
        -24    1    1    2    0    0 -0.79143620080E+01  0.54166298796E+01 -0.54096344492E+02  0.97394083224E+02  0.80419002446E+02 0.  0.
<mgrwt>
<rscale>  0 0.80988855E+02</rscale>
<asrwt>0</asrwt>
<pdfrwt beam="1">  1        4 0.48980714E-02 0.80988865E+02</pdfrwt>
<pdfrwt beam="2">  1       -4 0.36413803E-01 0.80988865E+02</pdfrwt>
<totfact> 0.25961331E+03</totfact>
</mgrwt>
</event>
<event>
 4    1  0.6602701E-002  0.1101091E+03  0.7546771E-02  0.1260368E+00
          1   -1    0    0  501    0  0.00000000000E+00  0.00000000000E+00  0.65258134792E+03  0.65258134792E+03  0.00000000000E+00 0. -1.
         -1   -1    0    0    0  501 -0.00000000000E+00 -0.00000000000E+00 -0.19226053050E+02  0.19226053050E+02  0.00000000000E+00 0.  1.
         24    1    1    2    0    0  0.71327774378E+02  0.23856645272E+02  0.25503306603E+03  0.27778745768E+03  0.80419002446E+02 0.  0.
        -24    1    1    2    0    0 -0.71327774378E+02 -0.23856645272E+02  0.37832222884E+03  0.39401994329E+03  0.80419002446E+02 0. -1.
<mgrwt>
<rscale>  0 0.11010907E+03</rscale>
<asrwt>0</asrwt>
<pdfrwt beam="1">  1        1 0.10039711E+00 0.11010907E+03</pdfrwt>
<pdfrwt beam="2">  1       -1 0.29578548E-02 0.11010907E+03</pdfrwt>
<totfact> 0.11305933E+04</totfact>
</mgrwt>
</event>
<event>
 4    1  0.6602701E-002  0.9418187E+02  0.7546771E-02  0.1293029E+00
         -3   -1    0    0    0  501 -0.00000000000E+00  0.00000000000E+00  0.84219991507E+01  0.84219991507E+01  0.00000000000E+00 0.  1.
          3   -1    0    0  501    0  0.00000000000E+00 -0.00000000000E+00 -0.15066855947E+04  0.15066855947E+04  0.00000000000E+00 0. -1.
         24    1    1    2    0    0  0.46652944133E+02 -0.15050326485E+02 -0.33353336238E+03  0.34657571943E+03  0.80419002446E+02 0.  1.
        -24    1    1    2    0    0 -0.46652944133E+02  0.15050326485E+02 -0.11647302332E+04  0.11685318744E+04  0.80419002446E+02 0. -1.
<mgrwt>
<rscale>  0 0.94181874E+02</rscale>
<asrwt>0</asrwt>
<pdfrwt beam="1">  1        3 0.23179782E+00 0.94181874E+02</pdfrwt>
<pdfrwt beam="2">  1       -3 0.12956920E-02 0.94181874E+02</pdfrwt>
<totfact> 0.43354176E+02</totfact>
</mgrwt>
</event>
<event>
 4    1  0.6602701E-002  0.1051183E+03  0.7546771E-02  0.1269887E+00
         -2   -1    0    0    0  501 -0.00000000000E+00  0.00000000000E+00  0.83970569409E+01  0.83970569409E+01  0.00000000000E+00 0.  1.
          2   -1    0    0  501    0  0.00000000000E+00 -0.00000000000E+00 -0.16108641550E+04  0.16108641550E+04  0.00000000000E+00 0. -1.
         24    1    1    2    0    0  0.67695128176E+02  0.52029974875E-01 -0.11476734396E+04  0.11524774067E+04  0.80419002446E+02 0. -1.
        -24    1    1    2    0    0 -0.67695128176E+02 -0.52029974875E-01 -0.45479365845E+03  0.46678380521E+03  0.80419002446E+02 0.  1.
<mgrwt>
<rscale>  0 0.10511826E+03</rscale>
<asrwt>0</asrwt>
<pdfrwt beam="1">  1        2 0.24782511E+00 0.10511826E+03</pdfrwt>
<pdfrwt beam="2">  1       -2 0.12918557E-02 0.10511826E+03</pdfrwt>
<totfact> 0.16690681E+04</totfact>
</mgrwt>
</event>
<event>
 4    1  0.6602701E-002  0.8410256E+02  0.7546771E-02  0.1317796E+00
          1   -1    0    0  501    0  0.00000000000E+00  0.00000000000E+00  0.21923775018E+03  0.21923775018E+03  0.00000000000E+00 0. -1.
         -1   -1    0    0    0  501 -0.00000000000E+00 -0.00000000000E+00 -0.45975544144E+02  0.45975544144E+02  0.00000000000E+00 0.  1.
         24    1    1    2    0    0  0.24615949638E+02 -0.28079890336E+00  0.14210376129E+02  0.85294633880E+02  0.80419002446E+02 0.  0.
        -24    1    1    2    0    0 -0.24615949638E+02  0.28079890336E+00  0.15905182991E+03  0.17991866045E+03  0.80419002446E+02 0. -1.
<mgrwt>
<rscale>  0 0.84102555E+02</rscale>
<asrwt>0</asrwt>
<pdfrwt beam="1">  1        1 0.33728884E-01 0.84102555E+02</pdfrwt>
<pdfrwt beam="2">  1       -1 0.70731607E-02 0.84102555E+02</pdfrwt>
<totfact> 0.12197314E+04</totfact>
</mgrwt>
</event>
<event>
 4    1  0.6602701E-002  0.8294587E+02  0.7546771E-02  0.1320893E+00
          1   -1    0    0  501    0  0.00000000000E+00  0.00000000000E+00  0.28366423625E+04  0.28366423625E+04  0.00000000000E+00 0. -1.
         -1   -1    0    0    0  501 -0.00000000000E+00 -0.00000000000E+00 -0.26871429661E+01  0.26871429661E+01  0.00000000000E+00 0.  1.
         24    1    1    2    0    0  0.15975545437E+02  0.12553225940E+02  0.97390940909E+03  0.97743519202E+03  0.80419002446E+02 0.  1.
        -24    1    1    2    0    0 -0.15975545437E+02 -0.12553225940E+02  0.18600458105E+04  0.18618943135E+04  0.80419002446E+02 0. -1.
<mgrwt>
<rscale>  0 0.82945871E+02</rscale>
<asrwt>0</asrwt>
<pdfrwt beam="1">  1        1 0.43640412E+00 0.82945871E+02</pdfrwt>
<pdfrwt beam="2">  1       -1 0.41340888E-03 0.82945871E+02</pdfrwt>
<totfact> 0.61705791E+03</totfact>
</mgrwt>
</event>
<event>
 4    1  0.6602701E-002  0.8767315E+02  0.7546771E-02  0.1308586E+00
         -1   -1    0    0    0  501 -0.00000000000E+00  0.00000000000E+00  0.98241987918E+03  0.98241987918E+03  0.00000000000E+00 0.  1.
          1   -1    0    0  501    0  0.00000000000E+00 -0.00000000000E+00 -0.30202475448E+02  0.30202475448E+02  0.00000000000E+00 0. -1.
         24    1    1    2    0    0  0.31031606130E+02  0.16012650234E+02  0.91193178168E+03  0.91613653782E+03  0.80419002446E+02 0.  1.
        -24    1    1    2    0    0 -0.31031606130E+02 -0.16012650234E+02  0.40285622062E+02  0.96485816812E+02  0.80419002446E+02 0. -1.
<mgrwt>
<rscale>  0 0.87673152E+02</rscale>
<asrwt>0</asrwt>
<pdfrwt beam="1">  1        1 0.46465354E-02 0.87673152E+02</pdfrwt>
<pdfrwt beam="2">  1       -1 0.15114150E+00 0.87673152E+02</pdfrwt>
<totfact> 0.66856780E+02</totfact>
</mgrwt>
</event>
<event>
 4    1  0.6602701E-002  0.1183283E+03  0.7546771E-02  0.1245881E+00
         -2   -1    0    0    0  501 -0.00000000000E+00  0.00000000000E+00  0.93228217368E+01  0.93228217368E+01  0.00000000000E+00 0.  1.
          2   -1    0    0  501    0  0.00000000000E+00 -0.00000000000E+00 -0.15818581185E+04  0.15818581185E+04  0.00000000000E+00 0. -1.
         24    1    1    2    0    0  0.40312852766E+02  0.76871593833E+02 -0.96518090073E+03  0.97240719615E+03  0.80419002446E+02 0.  0.
        -24    1    1    2    0    0 -0.40312852766E+02 -0.76871593833E+02 -0.60735439607E+03  0.61877374412E+03  0.80419002446E+02 0.  1.
<mgrwt>
<rscale>  0 0.11832829E+03</rscale>
<asrwt>0</asrwt>
<pdfrwt beam="1">  1        2 0.24336293E+00 0.11832829E+03</pdfrwt>
<pdfrwt beam="2">  1       -2 0.14342794E-02 0.11832829E+03</pdfrwt>
<totfact> 0.14969430E+04</totfact>
</mgrwt>
</event>
<event>
 4    1  0.6602701E-002  0.8284762E+02  0.7546771E-02  0.1321159E+00
          1   -1    0    0  501    0  0.00000000000E+00  0.00000000000E+00  0.51251429839E+02  0.51251429839E+02  0.00000000000E+00 0. -1.
         -1   -1    0    0    0  501 -0.00000000000E+00 -0.00000000000E+00 -0.15009318620E+03  0.15009318620E+03  0.00000000000E+00 0.  1.
         24    1    1    2    0    0  0.18392572921E+02  0.76305879361E+01 -0.82464787065E+02  0.11689383932E+03  0.80419002446E+02 0. -1.
        -24    1    1    2    0    0 -0.18392572921E+02 -0.76305879361E+01 -0.16376969298E+02  0.84450776720E+02  0.80419002446E+02 0.  0.
<mgrwt>
<rscale>  0 0.82847623E+02</rscale>
<asrwt>0</asrwt>
<pdfrwt beam="1">  1        1 0.78848354E-02 0.82847623E+02</pdfrwt>
<pdfrwt beam="2">  1       -1 0.23091259E-01 0.82847623E+02</pdfrwt>
<totfact> 0.12542255E+04</totfact>
</mgrwt>
</event>
<event>
 4    1  0.6602701E-002  0.8306506E+02  0.7546771E-02  0.1320572E+00
          1   -1    0    0  501    0  0.00000000000E+00  0.00000000000E+00  0.25699973664E+02  0.25699973664E+02  0.00000000000E+00 0. -1.
         -1   -1    0    0    0  501 -0.00000000000E+00 -0.00000000000E+00 -0.34221210941E+03  0.34221210941E+03  0.00000000000E+00 0.  1.
         24    1    1    2    0    0 -0.16303751132E+02  0.12914055479E+02 -0.72865608816E+02  0.11049523986E+03  0.80419002446E+02 0. -1.
        -24    1    1    2    0    0  0.16303751132E+02 -0.12914055479E+02 -0.24364652693E+03  0.25741684322E+03  0.80419002446E+02 0.  0.
<mgrwt>
<rscale>  0 0.83065052E+02</rscale>
<asrwt>0</asrwt>
<pdfrwt beam="1">  1        1 0.39538420E-02 0.83065062E+02</pdfrwt>
<pdfrwt beam="2">  1       -1 0.52648018E-01 0.83065062E+02</pdfrwt>
<totfact> 0.77972002E+03</totfact>
</mgrwt>
</event>
<event>
 4    1  0.6602701E-002  0.8716601E+02  0.7546771E-02  0.1309863E+00
          1   -1    0    0  501    0  0.00000000000E+00  0.00000000000E+00  0.92109411393E+03  0.92109411393E+03  0.00000000000E+00 0. -1.
         -1   -1    0    0    0  501 -0.00000000000E+00 -0.00000000000E+00 -0.84506391198E+01  0.84506391198E+01  0.00000000000E+00 0.  1.
         24    1    1    2    0    0 -0.29919213570E+02  0.15347275403E+02  0.38449165866E+03  0.39424833511E+03  0.80419002446E+02 0. -1.
        -24    1    1    2    0    0  0.29919213570E+02 -0.15347275403E+02  0.52815181615E+03  0.53529641794E+03  0.80419002446E+02 0.  0.
<mgrwt>
<rscale>  0 0.87166015E+02</rscale>
<asrwt>0</asrwt>
<pdfrwt beam="1">  1        1 0.14170671E+00 0.87166015E+02</pdfrwt>
<pdfrwt beam="2">  1       -1 0.13000991E-02 0.87166015E+02</pdfrwt>
<totfact> 0.21614359E+04</totfact>
</mgrwt>
</event>
<event>
 4    1  0.6602701E-002  0.8472102E+02  0.7546771E-02  0.1316164E+00
          2   -1    0    0  501    0  0.00000000000E+00  0.00000000000E+00  0.12342221644E+04  0.12342221644E+04  0.00000000000E+00 0. -1.
         -2   -1    0    0    0  501 -0.00000000000E+00 -0.00000000000E+00 -0.19830949448E+02  0.19830949448E+02  0.00000000000E+00 0.  1.
         24    1    1    2    0    0  0.23724980117E+02 -0.12147446177E+02  0.11343250732E+04  0.11374845154E+04  0.80419002446E+02 0. -1.
        -24    1    1    2    0    0 -0.23724980117E+02  0.12147446177E+02  0.80066141686E+02  0.11656859838E+03  0.80419002446E+02 0.  1.
<mgrwt>
<rscale>  0 0.84721019E+02</rscale>
<asrwt>0</asrwt>
<pdfrwt beam="1">  1        2 0.18988027E+00 0.84721019E+02</pdfrwt>
<pdfrwt beam="2">  1       -2 0.30509163E-02 0.84721019E+02</pdfrwt>
<totfact> 0.75148359E+03</totfact>
</mgrwt>
</event>
<event>
 4    1  0.6602701E-002  0.1254952E+03  0.7546771E-02  0.1234297E+00
         -1   -1    0    0    0  501 -0.00000000000E+00  0.00000000000E+00  0.27673878709E+03  0.27673878709E+03  0.00000000000E+00 0.  1.
          1   -1    0    0  501    0  0.00000000000E+00 -0.00000000000E+00 -0.71307680769E+02  0.71307680769E+02  0.00000000000E+00 0. -1.
         24    1    1    2    0    0  0.28131222092E+02 -0.92143733471E+02  0.18091322163E+03  0.22017866152E+03  0.80419002446E+02 0.  1.
        -24    1    1    2    0    0 -0.28131222092E+02  0.92143733471E+02  0.24517884694E+02  0.12786780634E+03  0.80419002446E+02 0. -1.
<mgrwt>
<rscale>  0 0.12549522E+03</rscale>
<asrwt>0</asrwt>
<pdfrwt beam="1">  1        1 0.10970413E-01 0.12549522E+03</pdfrwt>
<pdfrwt beam="2">  1       -1 0.42575198E-01 0.12549522E+03</pdfrwt>
<totfact> 0.29997795E+03</totfact>
</mgrwt>
</event>
<event>
 4    1  0.6602701E-002  0.1305745E+03  0.7546771E-02  0.1226606E+00
          2   -1    0    0  501    0  0.00000000000E+00  0.00000000000E+00  0.39393313776E+03  0.39393313776E+03  0.00000000000E+00 0. -1.
         -2   -1    0    0    0  501 -0.00000000000E+00 -0.00000000000E+00 -0.11577395282E+03  0.11577395282E+03  0.00000000000E+00 0.  1.
         24    1    1    2    0    0  0.26624379985E+02  0.99366153638E+02  0.34074620865E+03  0.36490777569E+03  0.80419002446E+02 0. -1.
        -24    1    1    2    0    0 -0.26624379985E+02 -0.99366153638E+02 -0.62587023714E+02  0.14479931488E+03  0.80419002446E+02 0.  1.
<mgrwt>
<rscale>  0 0.13057452E+03</rscale>
<asrwt>0</asrwt>
<pdfrwt beam="1">  1        2 0.60605097E-01 0.13057452E+03</pdfrwt>
<pdfrwt beam="2">  1       -2 0.17811378E-01 0.13057452E+03</pdfrwt>
<totfact> 0.20345940E+03</totfact>
</mgrwt>
</event>
<event>
 4    1  0.6602701E-002  0.9029880E+02  0.7546771E-02  0.1302130E+00
         -2   -1    0    0    0  501 -0.00000000000E+00  0.00000000000E+00  0.20863810718E+03  0.20863810718E+03  0.00000000000E+00 0.  1.
          2   -1    0    0  501    0  0.00000000000E+00 -0.00000000000E+00 -0.39690040288E+02  0.39690040288E+02  0.00000000000E+00 0. -1.
         24    1    1    2    0    0 -0.15510253852E+02  0.38027434041E+02  0.99849734924E+02  0.13462480913E+03  0.80419002446E+02 0.  0.
        -24    1    1    2    0    0  0.15510253852E+02 -0.38027434041E+02  0.69098331971E+02  0.11370333834E+03  0.80419002446E+02 0.  0.
<mgrwt>
<rscale>  0 0.90298791E+02</rscale>
<asrwt>0</asrwt>
<pdfrwt beam="1">  1        2 0.61061602E-02 0.90298803E+02</pdfrwt>
<pdfrwt beam="2">  1       -2 0.32098170E-01 0.90298803E+02</pdfrwt>
<totfact> 0.98190619E+03</totfact>
</mgrwt>
</event>
<event>
 4    1  0.6602701E-002  0.1099782E+03  0.7546771E-02  0.1260610E+00
          1   -1    0    0  501    0  0.00000000000E+00  0.00000000000E+00  0.16710163761E+03  0.16710163761E+03  0.00000000000E+00 0. -1.
         -1   -1    0    0    0  501 -0.00000000000E+00 -0.00000000000E+00 -0.13284626644E+03  0.13284626644E+03  0.00000000000E+00 0.  1.
         24    1    1    2    0    0 -0.20616909260E+02  0.72131369383E+02 -0.84051070685E+02  0.13841889262E+03  0.80419002446E+02 0.  1.
        -24    1    1    2    0    0  0.20616909260E+02 -0.72131369383E+02  0.11830644185E+03  0.16152901143E+03  0.80419002446E+02 0. -1.
<mgrwt>
<rscale>  0 0.10997821E+03</rscale>
<asrwt>0</asrwt>
<pdfrwt beam="1">  1        1 0.25707944E-01 0.10997821E+03</pdfrwt>
<pdfrwt beam="2">  1       -1 0.20437887E-01 0.10997821E+03</pdfrwt>
<totfact> 0.34216556E+03</totfact>
</mgrwt>
</event>
<event>
 4    1  0.1006365E-001  0.9318545E+02  0.7546771E-02  0.1295316E+00
         -1   -1    0    0    0  501 -0.00000000000E+00  0.00000000000E+00  0.37894059449E+01  0.37894059449E+01  0.00000000000E+00 0.  1.
          1   -1    0    0  501    0  0.00000000000E+00 -0.00000000000E+00 -0.31671286339E+04  0.31671286339E+04  0.00000000000E+00 0. -1.
         24    1    1    2    0    0 -0.39562987839E+02  0.25516300102E+02 -0.74803573992E+03  0.75381761436E+03  0.80419002446E+02 0.  1.
        -24    1    1    2    0    0  0.39562987839E+02 -0.25516300102E+02 -0.24153034880E+04  0.24171004255E+04  0.80419002446E+02 0. -1.
<mgrwt>
<rscale>  0 0.93185447E+02</rscale>
<asrwt>0</asrwt>
<pdfrwt beam="1">  1        1 0.48724956E+00 0.93185447E+02</pdfrwt>
<pdfrwt beam="2">  1       -1 0.58298672E-03 0.93185447E+02</pdfrwt>
<totfact> 0.22805442E+03</totfact>
</mgrwt>
</event>
<event>
 4    1  0.6602701E-002  0.1199919E+03  0.7546771E-02  0.1243110E+00
          2   -1    0    0  501    0  0.00000000000E+00  0.00000000000E+00  0.14202143664E+03  0.14202143664E+03  0.00000000000E+00 0. -1.
         -2   -1    0    0    0  501 -0.00000000000E+00 -0.00000000000E+00 -0.23895761900E+03  0.23895761900E+03  0.00000000000E+00 0.  1.
         24    1    1    2    0    0 -0.32321456019E+02  0.82982878773E+02  0.96071052252E+02  0.15371303693E+03  0.80419002446E+02 0. -1.
        -24    1    1    2    0    0  0.32321456019E+02 -0.82982878773E+02 -0.19300723461E+03  0.22726601870E+03  0.80419002446E+02 0.  1.
<mgrwt>
<rscale>  0 0.11999188E+03</rscale>
<asrwt>0</asrwt>
<pdfrwt beam="1">  1        2 0.21849452E-01 0.11999188E+03</pdfrwt>
<pdfrwt beam="2">  1       -2 0.36762710E-01 0.11999188E+03</pdfrwt>
<totfact> 0.17019631E+03</totfact>
</mgrwt>
</event>
<event>
 4    1  0.6602701E-002  0.1382392E+03  0.7546771E-02  0.1215718E+00
          2   -1    0    0  501    0  0.00000000000E+00  0.00000000000E+00  0.47726654546E+03  0.47726654546E+03  0.00000000000E+00 0. -1.
         -2   -1    0    0    0  501 -0.00000000000E+00 -0.00000000000E+00 -0.43959469355E+02  0.43959469355E+02  0.00000000000E+00 0.  1.
         24    1    1    2    0    0  0.11193555068E+03 -0.10644285032E+02  0.29446525286E+03  0.32529966093E+03  0.80419002446E+02 0.  0.
        -24    1    1    2    0    0 -0.11193555068E+03  0.10644285032E+02  0.13884182325E+03  0.19592635389E+03  0.80419002446E+02 0.  1.
<mgrwt>
<rscale>  0 0.13823923E+03</rscale>
<asrwt>0</asrwt>
<pdfrwt beam="1">  1        2 0.73425619E-01 0.13823923E+03</pdfrwt>
<pdfrwt beam="2">  1       -2 0.67629956E-02 0.13823923E+03</pdfrwt>
<totfact> 0.77204230E+03</totfact>
</mgrwt>
</event>
<event>
 4    1  0.6816135E-002  0.9065655E+02  0.7546771E-02  0.1301270E+00
          1   -1    0    0  501    0  0.00000000000E+00  0.00000000000E+00  0.16507306401E+03  0.16507306401E+03  0.00000000000E+00 0. -1.
         -1   -1    0    0    0  501 -0.00000000000E+00 -0.00000000000E+00 -0.26704979576E+03  0.26704979576E+03  0.00000000000E+00 0.  1.
         24    1    1    2    0    0  0.11649584491E+02 -0.40195542671E+02 -0.24587097686E+03  0.26205180344E+03  0.80419002446E+02 0.  1.
        -24    1    1    2    0    0 -0.11649584491E+02  0.40195542671E+02  0.14389424512E+03  0.17007105633E+03  0.80419002446E+02 0. -1.
<mgrwt>
<rscale>  0 0.90656552E+02</rscale>
<asrwt>0</asrwt>
<pdfrwt beam="1">  1        1 0.25395856E-01 0.90656552E+02</pdfrwt>
<pdfrwt beam="2">  1       -1 0.41084584E-01 0.90656552E+02</pdfrwt>
<totfact> 0.10789133E+03</totfact>
</mgrwt>
</event>
<event>
 4    1  0.6602701E-002  0.1141509E+03  0.7546771E-02  0.1253070E+00
          1   -1    0    0  501    0  0.00000000000E+00  0.00000000000E+00  0.32970072945E+03  0.32970072945E+03  0.00000000000E+00 0. -1.
         -1   -1    0    0    0  501 -0.00000000000E+00 -0.00000000000E+00 -0.43927421758E+02  0.43927421758E+02  0.00000000000E+00 0.  1.
         24    1    1    2    0    0  0.32390031682E+02 -0.74257024780E+02  0.83725730258E+02  0.14156423893E+03  0.80419002446E+02 0.  1.
        -24    1    1    2    0    0 -0.32390031682E+02  0.74257024780E+02  0.20204757744E+03  0.23206391228E+03  0.80419002446E+02 0. -1.
<mgrwt>
<rscale>  0 0.11415093E+03</rscale>
<asrwt>0</asrwt>
<pdfrwt beam="1">  1        1 0.50723187E-01 0.11415093E+03</pdfrwt>
<pdfrwt beam="2">  1       -1 0.67580651E-02 0.11415093E+03</pdfrwt>
<totfact> 0.81296020E+03</totfact>
</mgrwt>
</event>
<event>
 4    1  0.6602701E-002  0.8797374E+02  0.7546771E-02  0.1307834E+00
         -2   -1    0    0    0  501 -0.00000000000E+00  0.00000000000E+00  0.12338539899E+02  0.12338539899E+02  0.00000000000E+00 0.  1.
          2   -1    0    0  501    0  0.00000000000E+00 -0.00000000000E+00 -0.62727955123E+03  0.62727955123E+03  0.00000000000E+00 0. -1.
         24    1    1    2    0    0 -0.30610032697E+02 -0.18308039106E+02 -0.30535265144E+03  0.31777290019E+03  0.80419002446E+02 0. -1.
        -24    1    1    2    0    0  0.30610032697E+02  0.18308039106E+02 -0.30958835989E+03  0.32184519094E+03  0.80419002446E+02 0.  1.
<mgrwt>
<rscale>  0 0.87973725E+02</rscale>
<asrwt>0</asrwt>
<pdfrwt beam="1">  1        2 0.96504567E-01 0.87973736E+02</pdfrwt>
<pdfrwt beam="2">  1       -2 0.18982365E-02 0.87973736E+02</pdfrwt>
<totfact> 0.35693792E+04</totfact>
</mgrwt>
</event>
<event>
 4    1  0.6602701E-002  0.8597654E+02  0.7546771E-02  0.1312898E+00
          2   -1    0    0  501    0  0.00000000000E+00  0.00000000000E+00  0.87546222112E+03  0.87546222112E+03  0.00000000000E+00 0. -1.
         -2   -1    0    0    0  501 -0.00000000000E+00 -0.00000000000E+00 -0.20695011988E+02  0.20695011988E+02  0.00000000000E+00 0.  1.
         24    1    1    2    0    0  0.29128987794E+02  0.87321659001E+01  0.77214309935E+03  0.77691500853E+03  0.80419002446E+02 0. -1.
        -24    1    1    2    0    0 -0.29128987794E+02 -0.87321659001E+01  0.82624109789E+02  0.11924222458E+03  0.80419002446E+02 0.  1.
<mgrwt>
<rscale>  0 0.85976535E+02</rscale>
<asrwt>0</asrwt>
<pdfrwt beam="1">  1        2 0.13468647E+00 0.85976535E+02</pdfrwt>
<pdfrwt beam="2">  1       -2 0.31838487E-02 0.85976535E+02</pdfrwt>
<totfact> 0.11357282E+04</totfact>
</mgrwt>
</event>
<event>
 4    1  0.6602701E-002  0.1640536E+03  0.7546771E-02  0.1184195E+00
         -2   -1    0    0    0  501 -0.00000000000E+00  0.00000000000E+00  0.48884761359E+03  0.48884761359E+03  0.00000000000E+00 0.  1.
          2   -1    0    0  501    0  0.00000000000E+00 -0.00000000000E+00 -0.73743651670E+02  0.73743651670E+02  0.00000000000E+00 0. -1.
         24    1    1    2    0    0 -0.32886202449E+02 -0.13915764506E+03  0.65943861602E+02  0.17681108938E+03  0.80419002446E+02 0.  0.
        -24    1    1    2    0    0  0.32886202449E+02  0.13915764506E+03  0.34916010032E+03  0.38578017588E+03  0.80419002446E+02 0.  1.
<mgrwt>
<rscale>  0 0.16405355E+03</rscale>
<asrwt>0</asrwt>
<pdfrwt beam="1">  1        2 0.11345178E-01 0.16405355E+03</pdfrwt>
<pdfrwt beam="2">  1       -2 0.75207323E-01 0.16405355E+03</pdfrwt>
<totfact> 0.88086968E+02</totfact>
</mgrwt>
</event>
<event>
 4    1  0.6602701E-002  0.1185719E+03  0.7546771E-02  0.1245472E+00
         -3   -1    0    0    0  501 -0.00000000000E+00  0.00000000000E+00  0.73401789369E+02  0.73401789369E+02  0.00000000000E+00 0.  1.
          3   -1    0    0  501    0  0.00000000000E+00 -0.00000000000E+00 -0.34381366963E+03  0.34381366963E+03  0.00000000000E+00 0. -1.
         24    1    1    2    0    0 -0.14490765189E+02 -0.85919103721E+02  0.36239389148E+01  0.11862724623E+03  0.80419002446E+02 0.  1.
        -24    1    1    2    0    0  0.14490765189E+02  0.85919103721E+02 -0.27403581918E+03  0.29858821277E+03  0.80419002446E+02 0. -1.
<mgrwt>
<rscale>  0 0.11857188E+03</rscale>
<asrwt>0</asrwt>
<pdfrwt beam="1">  1        3 0.52894410E-01 0.11857188E+03</pdfrwt>
<pdfrwt beam="2">  1       -3 0.11292583E-01 0.11857188E+03</pdfrwt>
<totfact> 0.48831693E+02</totfact>
</mgrwt>
</event>
<event>
 4    1  0.6602701E-002  0.9040261E+02  0.7546771E-02  0.1301880E+00
         -2   -1    0    0    0  501 -0.00000000000E+00  0.00000000000E+00  0.20367972140E+02  0.20367972140E+02  0.00000000000E+00 0.  1.
          2   -1    0    0  501    0  0.00000000000E+00 -0.00000000000E+00 -0.44965447410E+03  0.44965447410E+03  0.00000000000E+00 0. -1.
         24    1    1    2    0    0  0.33087999885E+02  0.24710315524E+02 -0.29175059373E+03  0.30543582031E+03  0.80419002446E+02 0. -1.
        -24    1    1    2    0    0 -0.33087999885E+02 -0.24710315524E+02 -0.13753590823E+03  0.16458662594E+03  0.80419002446E+02 0.  1.
<mgrwt>
<rscale>  0 0.90402607E+02</rscale>
<asrwt>0</asrwt>
<pdfrwt beam="1">  1        2 0.69177611E-01 0.90402607E+02</pdfrwt>
<pdfrwt beam="2">  1       -2 0.31335342E-02 0.90402607E+02</pdfrwt>
<totfact> 0.24979995E+04</totfact>
</mgrwt>
</event>
<event>
 4    1  0.6602701E-002  0.8674154E+02  0.7546771E-02  0.1310940E+00
         -2   -1    0    0    0  501 -0.00000000000E+00  0.00000000000E+00  0.79382373643E+02  0.79382373643E+02  0.00000000000E+00 0.  1.
          2   -1    0    0  501    0  0.00000000000E+00 -0.00000000000E+00 -0.23223042576E+03  0.23223042576E+03  0.00000000000E+00 0. -1.
         24    1    1    2    0    0 -0.32035334073E+01  0.32351458117E+02 -0.19628950355E+03  0.21460117574E+03  0.80419002446E+02 0. -1.
        -24    1    1    2    0    0  0.32035334073E+01 -0.32351458117E+02  0.43441451437E+02  0.97011623664E+02  0.80419002446E+02 0.  1.
<mgrwt>
<rscale>  0 0.86741544E+02</rscale>
<asrwt>0</asrwt>
<pdfrwt beam="1">  1        2 0.35727758E-01 0.86741544E+02</pdfrwt>
<pdfrwt beam="2">  1       -2 0.12212673E-01 0.86741544E+02</pdfrwt>
<totfact> 0.64016762E+03</totfact>
</mgrwt>
</event>
<event>
 4    1  0.6602701E-002  0.9168303E+02  0.7546771E-02  0.1298826E+00
          1   -1    0    0  501    0  0.00000000000E+00  0.00000000000E+00  0.50895180885E+03  0.50895180885E+03  0.00000000000E+00 0. -1.
         -1   -1    0    0    0  501 -0.00000000000E+00 -0.00000000000E+00 -0.20953853702E+02  0.20953853702E+02  0.00000000000E+00 0.  1.
         24    1    1    2    0    0  0.36990599646E+02  0.23880056068E+02  0.12206355514E+03  0.15266069890E+03  0.80419002446E+02 0.  1.
        -24    1    1    2    0    0 -0.36990599646E+02 -0.23880056068E+02  0.36593440001E+03  0.37724496366E+03  0.80419002446E+02 0. -1.
<mgrwt>
<rscale>  0 0.91683027E+02</rscale>
<asrwt>0</asrwt>
<pdfrwt beam="1">  1        1 0.78300269E-01 0.91683027E+02</pdfrwt>
<pdfrwt beam="2">  1       -1 0.32236702E-02 0.91683027E+02</pdfrwt>
<totfact> 0.13697434E+04</totfact>
</mgrwt>
</event>
<event>
 4    1  0.6602701E-002  0.9730297E+02  0.7546771E-02  0.1286072E+00
         -1   -1    0    0    0  501 -0.00000000000E+00  0.00000000000E+00  0.17680087825E+02  0.17680087825E+02  0.00000000000E+00 0.  1.
          1   -1    0    0  501    0  0.00000000000E+00 -0.00000000000E+00 -0.55181410115E+03  0.55181410115E+03  0.00000000000E+00 0. -1.
         24    1    1    2    0    0  0.29407235698E+02 -0.46215381659E+02 -0.31601241827E+03  0.33065346130E+03  0.80419002446E+02 0.  1.
        -24    1    1    2    0    0 -0.29407235698E+02  0.46215381659E+02 -0.21812159505E+03  0.23884072767E+03  0.80419002446E+02 0. -1.
<mgrwt>
<rscale>  0 0.97302956E+02</rscale>
<asrwt>0</asrwt>
<pdfrwt beam="1">  1        1 0.84894471E-01 0.97302969E+02</pdfrwt>
<pdfrwt beam="2">  1       -1 0.27200137E-02 0.97302969E+02</pdfrwt>
<totfact> 0.15833416E+04</totfact>
</mgrwt>
</event>
<event>
 4    1  0.6602701E-002  0.8196275E+02  0.7546771E-02  0.1323572E+00
         -1   -1    0    0    0  501 -0.00000000000E+00  0.00000000000E+00  0.15578690440E+03  0.15578690440E+03  0.00000000000E+00 0.  1.
          1   -1    0    0  501    0  0.00000000000E+00 -0.00000000000E+00 -0.81764791445E+02  0.81764791445E+02  0.00000000000E+00 0. -1.
         24    1    1    2    0    0 -0.15830580988E+02  0.25679002044E+00 -0.44642959287E+02  0.93332111322E+02  0.80419002446E+02 0.  0.
        -24    1    1    2    0    0  0.15830580988E+02 -0.25679002044E+00  0.11866507224E+03  0.14421958452E+03  0.80419002446E+02 0.  1.
<mgrwt>
<rscale>  0 0.81962741E+02</rscale>
<asrwt>0</asrwt>
<pdfrwt beam="1">  1        1 0.12579199E-01 0.81962751E+02</pdfrwt>
<pdfrwt beam="2">  1       -1 0.23967216E-01 0.81962751E+02</pdfrwt>
<totfact> 0.64124889E+03</totfact>
</mgrwt>
</event>
<event>
 4    1  0.6602701E-002  0.8406979E+02  0.7546771E-02  0.1317883E+00
         -2   -1    0    0    0  501 -0.00000000000E+00  0.00000000000E+00  0.52255583264E+02  0.52255583264E+02  0.00000000000E+00 0.  1.
          2   -1    0    0  501    0  0.00000000000E+00 -0.00000000000E+00 -0.46933632349E+03  0.46933632349E+03  0.00000000000E+00 0. -1.
         24    1    1    2    0    0  0.23741816908E+02  0.60695247540E+01 -0.42857250218E+03  0.43674033312E+03  0.80419002446E+02 0. -1.
        -24    1    1    2    0    0 -0.23741816908E+02 -0.60695247540E+01  0.11491761949E+02  0.84851573633E+02  0.80419002446E+02 0.  1.
<mgrwt>
<rscale>  0 0.84069786E+02</rscale>
<asrwt>0</asrwt>
<pdfrwt beam="1">  1        2 0.72205588E-01 0.84069786E+02</pdfrwt>
<pdfrwt beam="2">  1       -2 0.80393206E-02 0.84069786E+02</pdfrwt>
<totfact> 0.58444851E+03</totfact>
</mgrwt>
</event>
<event>
 4    1  0.6602701E-002  0.8701816E+02  0.7546771E-02  0.1310238E+00
          1   -1    0    0  501    0  0.00000000000E+00  0.00000000000E+00  0.13400780713E+04  0.13400780713E+04  0.00000000000E+00 0. -1.
         -1   -1    0    0    0  501 -0.00000000000E+00 -0.00000000000E+00 -0.13922660136E+02  0.13922660136E+02  0.00000000000E+00 0.  1.
         24    1    1    2    0    0  0.14373661144E+02 -0.29972348944E+02  0.14123897868E+03  0.16589336602E+03  0.80419002446E+02 0.  1.
        -24    1    1    2    0    0 -0.14373661144E+02  0.29972348944E+02  0.11849164324E+04  0.11881073654E+04  0.80419002446E+02 0. -1.
<mgrwt>
<rscale>  0 0.87018158E+02</rscale>
<asrwt>0</asrwt>
<pdfrwt beam="1">  1        1 0.20616576E+00 0.87018158E+02</pdfrwt>
<pdfrwt beam="2">  1       -1 0.21419488E-02 0.87018158E+02</pdfrwt>
<totfact> 0.54672821E+03</totfact>
</mgrwt>
</event>
<event>
 4    1  0.6602701E-002  0.8210322E+02  0.7546771E-02  0.1323187E+00
         -2   -1    0    0    0  501 -0.00000000000E+00  0.00000000000E+00  0.67995815332E+02  0.67995815332E+02  0.00000000000E+00 0.  1.
          2   -1    0    0  501    0  0.00000000000E+00 -0.00000000000E+00 -0.16800619253E+03  0.16800619253E+03  0.00000000000E+00 0. -1.
         24    1    1    2    0    0  0.16506156148E+02  0.11265907904E+01 -0.12555507707E+03  0.15001671817E+03  0.80419002446E+02 0. -1.
        -24    1    1    2    0    0 -0.16506156148E+02 -0.11265907904E+01  0.25544699873E+02  0.85985289693E+02  0.80419002446E+02 0.  1.
<mgrwt>
<rscale>  0 0.82103218E+02</rscale>
<asrwt>0</asrwt>
<pdfrwt beam="1">  1        2 0.25847106E-01 0.82103218E+02</pdfrwt>
<pdfrwt beam="2">  1       -2 0.10460895E-01 0.82103218E+02</pdfrwt>
<totfact> 0.11470535E+04</totfact>
</mgrwt>
</event>
<event>
 4    1  0.6602701E-002  0.1141357E+03  0.7546771E-02  0.1253097E+00
         -3   -1    0    0    0  501 -0.00000000000E+00  0.00000000000E+00  0.16219129792E+02  0.16219129792E+02  0.00000000000E+00 0.  1.
          3   -1    0    0  501    0  0.00000000000E+00 -0.00000000000E+00 -0.11277548575E+04  0.11277548575E+04  0.00000000000E+00 0. -1.
         24    1    1    2    0    0  0.59101734505E+02 -0.55378019703E+02 -0.24891291722E+03  0.27383315431E+03  0.80419002446E+02 0.  1.
        -24    1    1    2    0    0 -0.59101734505E+02  0.55378019703E+02 -0.86262281047E+03  0.87014083296E+03  0.80419002446E+02 0. -1.
<mgrwt>
<rscale>  0 0.11413569E+03</rscale>
<asrwt>0</asrwt>
<pdfrwt beam="1">  1        3 0.17350081E+00 0.11413569E+03</pdfrwt>
<pdfrwt beam="2">  1       -3 0.24952499E-02 0.11413569E+03</pdfrwt>
<totfact> 0.36582667E+02</totfact>
</mgrwt>
</event>
<event>
 4    1  0.6602701E-002  0.8385090E+02  0.7546771E-02  0.1318465E+00
          3   -1    0    0  501    0  0.00000000000E+00  0.00000000000E+00  0.96383842621E+02  0.96383842621E+02  0.00000000000E+00 0. -1.
         -3   -1    0    0    0  501 -0.00000000000E+00 -0.00000000000E+00 -0.10246907091E+03  0.10246907091E+03  0.00000000000E+00 0.  1.
         24    1    1    2    0    0 -0.14028251745E+02 -0.19156341717E+02 -0.56409801347E+02  0.10105958103E+03  0.80419002446E+02 0.  1.
        -24    1    1    2    0    0  0.14028251745E+02  0.19156341717E+02  0.50324573055E+02  0.97793332506E+02  0.80419002446E+02 0. -1.
<mgrwt>
<rscale>  0 0.83850899E+02</rscale>
<asrwt>0</asrwt>
<pdfrwt beam="1">  1        3 0.14828284E-01 0.83850899E+02</pdfrwt>
<pdfrwt beam="2">  1       -3 0.15764472E-01 0.83850899E+02</pdfrwt>
<totfact> 0.26783151E+03</totfact>
</mgrwt>
</event>
<event>
 4    1  0.6602701E-002  0.1371033E+03  0.7546771E-02  0.1217281E+00
         -2   -1    0    0    0  501 -0.00000000000E+00  0.00000000000E+00  0.46798642621E+03  0.46798642621E+03  0.00000000000E+00 0.  1.
          2   -1    0    0  501    0  0.00000000000E+00 -0.00000000000E+00 -0.42085982501E+02  0.42085982501E+02  0.00000000000E+00 0. -1.
         24    1    1    2    0    0 -0.97335946477E+02 -0.53439717055E+02  0.15848210735E+03  0.20955639847E+03  0.80419002446E+02 0.  1.
        -24    1    1    2    0    0  0.97335946477E+02  0.53439717055E+02  0.26741833636E+03  0.30051601024E+03  0.80419002446E+02 0. -1.
<mgrwt>
<rscale>  0 0.13710327E+03</rscale>
<asrwt>0</asrwt>
<pdfrwt beam="1">  1        2 0.64747669E-02 0.13710327E+03</pdfrwt>
<pdfrwt beam="2">  1       -2 0.71997908E-01 0.13710327E+03</pdfrwt>
<totfact> 0.19346114E+03</totfact>
</mgrwt>
</event>
<event>
 4    1  0.6602701E-002  0.8082735E+02  0.7546771E-02  0.1326720E+00
         -2   -1    0    0    0  501 -0.00000000000E+00  0.00000000000E+00  0.63706590153E+01  0.63706590153E+01  0.00000000000E+00 0.  1.
          2   -1    0    0  501    0  0.00000000000E+00 -0.00000000000E+00 -0.24416468368E+04  0.24416468368E+04  0.00000000000E+00 0. -1.
         24    1    1    2    0    0 -0.69534166605E+00 -0.80846416604E+01 -0.21498152179E+04  0.21513341284E+04  0.80419002446E+02 0. -1.
        -24    1    1    2    0    0  0.69534166605E+00  0.80846416604E+01 -0.28546095989E+03  0.29668336742E+03  0.80419002446E+02 0.  0.
<mgrwt>
<rscale>  0 0.80827352E+02</rscale>
<asrwt>0</asrwt>
<pdfrwt beam="1">  1        2 0.37563864E+00 0.80827352E+02</pdfrwt>
<pdfrwt beam="2">  1       -2 0.98009964E-03 0.80827352E+02</pdfrwt>
<totfact> 0.92546524E+03</totfact>
</mgrwt>
</event>
<event>
 4    1  0.6602701E-002  0.1092274E+03  0.7546771E-02  0.1262007E+00
         -1   -1    0    0    0  501 -0.00000000000E+00  0.00000000000E+00  0.10598387216E+04  0.10598387216E+04  0.00000000000E+00 0.  1.
          1   -1    0    0  501    0  0.00000000000E+00 -0.00000000000E+00 -0.11293643691E+02  0.11293643691E+02  0.00000000000E+00 0. -1.
         24    1    1    2    0    0  0.68938458948E+02  0.26662429265E+02  0.49376883806E+03  0.50570572238E+03  0.80419002446E+02 0.  0.
        -24    1    1    2    0    0 -0.68938458948E+02 -0.26662429265E+02  0.55477623989E+03  0.56542664295E+03  0.80419002446E+02 0. -1.
<mgrwt>
<rscale>  0 0.10922736E+03</rscale>
<asrwt>0</asrwt>
<pdfrwt beam="1">  1        1 0.17374845E-02 0.10922737E+03</pdfrwt>
<pdfrwt beam="2">  1       -1 0.16305203E+00 0.10922737E+03</pdfrwt>
<totfact> 0.21343561E+03</totfact>
</mgrwt>
</event>
<event>
 4    1  0.6602701E-002  0.8193732E+02  0.7546771E-02  0.1323642E+00
          1   -1    0    0  501    0  0.00000000000E+00  0.00000000000E+00  0.13274833477E+03  0.13274833477E+03  0.00000000000E+00 0. -1.
         -1   -1    0    0    0  501 -0.00000000000E+00 -0.00000000000E+00 -0.22231524575E+03  0.22231524575E+03  0.00000000000E+00 0.  1.
         24    1    1    2    0    0  0.79932453972E+01  0.13513548781E+02 -0.20082051929E+03  0.21689307249E+03  0.80419002446E+02 0.  1.
        -24    1    1    2    0    0 -0.79932453972E+01 -0.13513548781E+02  0.11125360831E+03  0.13817050803E+03  0.80419002446E+02 0. -1.
<mgrwt>
<rscale>  0 0.81937317E+02</rscale>
<asrwt>0</asrwt>
<pdfrwt beam="1">  1        1 0.20422821E-01 0.81937317E+02</pdfrwt>
<pdfrwt beam="2">  1       -1 0.34202345E-01 0.81937317E+02</pdfrwt>
<totfact> 0.19293197E+03</totfact>
</mgrwt>
</event>
<event>
 4    1  0.6602701E-002  0.1044082E+03  0.7546771E-02  0.1271290E+00
         -2   -1    0    0    0  501 -0.00000000000E+00  0.00000000000E+00  0.12557765214E+03  0.12557765214E+03  0.00000000000E+00 0.  1.
          2   -1    0    0  501    0  0.00000000000E+00 -0.00000000000E+00 -0.87551234358E+02  0.87551234358E+02  0.00000000000E+00 0. -1.
         24    1    1    2    0    0  0.65715652266E+02 -0.10737674138E+02  0.28836116349E+02  0.10831704464E+03  0.80419002446E+02 0. -1.
        -24    1    1    2    0    0 -0.65715652266E+02  0.10737674138E+02  0.91903014304E+01  0.10481184186E+03  0.80419002446E+02 0. -1.
<mgrwt>
<rscale>  0 0.10440816E+03</rscale>
<asrwt>0</asrwt>
<pdfrwt beam="1">  1        2 0.13469421E-01 0.10440817E+03</pdfrwt>
<pdfrwt beam="2">  1       -2 0.19319639E-01 0.10440817E+03</pdfrwt>
<totfact> 0.91046812E+03</totfact>
</mgrwt>
</event>
<event>
 4    1  0.6602701E-002  0.9102614E+02  0.7546771E-02  0.1300386E+00
         -1   -1    0    0    0  501 -0.00000000000E+00  0.00000000000E+00  0.31731029389E+01  0.31731029389E+01  0.00000000000E+00 0.  1.
          1   -1    0    0  501    0  0.00000000000E+00 -0.00000000000E+00 -0.26113071368E+04  0.26113071368E+04  0.00000000000E+00 0. -1.
         24    1    1    2    0    0  0.12851558234E+02 -0.40661776487E+02 -0.12978438941E+04  0.13010321026E+04  0.80419002446E+02 0. -1.
        -24    1    1    2    0    0 -0.12851558234E+02  0.40661776487E+02 -0.13102901397E+04  0.13134481371E+04  0.80419002446E+02 0.  1.
<mgrwt>
<rscale>  0 0.91026142E+02</rscale>
<asrwt>0</asrwt>
<pdfrwt beam="1">  1        1 0.40174023E+00 0.91026142E+02</pdfrwt>
<pdfrwt beam="2">  1       -1 0.48816887E-03 0.91026142E+02</pdfrwt>
<totfact> 0.68993644E+03</totfact>
</mgrwt>
</event>
<event>
 4    1  0.6602701E-002  0.9832776E+02  0.7546771E-02  0.1283852E+00
         -2   -1    0    0    0  501 -0.00000000000E+00  0.00000000000E+00  0.31853901108E+03  0.31853901108E+03  0.00000000000E+00 0.  1.
          2   -1    0    0  501    0  0.00000000000E+00 -0.00000000000E+00 -0.43098532544E+02  0.43098532544E+02  0.00000000000E+00 0. -1.
         24    1    1    2    0    0  0.56537894785E+02  0.21446098583E+01  0.39385837548E+02  0.10592258046E+03  0.80419002446E+02 0. -1.
        -24    1    1    2    0    0 -0.56537894785E+02 -0.21446098583E+01  0.23605464099E+03  0.25571496316E+03  0.80419002446E+02 0.  1.
<mgrwt>
<rscale>  0 0.98327762E+02</rscale>
<asrwt>0</asrwt>
<pdfrwt beam="1">  1        2 0.66305437E-02 0.98327762E+02</pdfrwt>
<pdfrwt beam="2">  1       -2 0.49006000E-01 0.98327762E+02</pdfrwt>
<totfact> 0.40292276E+03</totfact>
</mgrwt>
</event>
<event>
 4    1  0.1118055E-001  0.1024200E+03  0.7546771E-02  0.1275288E+00
          1   -1    0    0  501    0  0.00000000000E+00  0.00000000000E+00  0.62346652426E+03  0.62346652426E+03  0.00000000000E+00 0. -1.
         -1   -1    0    0    0  501 -0.00000000000E+00 -0.00000000000E+00 -0.11351372285E+03  0.11351372285E+03  0.00000000000E+00 0.  1.
         24    1    1    2    0    0 -0.61683205882E+02 -0.14758811255E+02 -0.85110155881E+02  0.13316754479E+03  0.80419002446E+02 0.  1.
        -24    1    1    2    0    0  0.61683205882E+02  0.14758811255E+02  0.59506295728E+03  0.60381270232E+03  0.80419002446E+02 0. -1.
<mgrwt>
<rscale>  0 0.10242000E+03</rscale>
<asrwt>0</asrwt>
<pdfrwt beam="1">  1        1 0.95917925E-01 0.10242000E+03</pdfrwt>
<pdfrwt beam="2">  1       -1 0.17463650E-01 0.10242000E+03</pdfrwt>
<totfact> 0.83999063E+02</totfact>
</mgrwt>
</event>
<event>
 4    1  0.6602701E-002  0.8637734E+02  0.7546771E-02  0.1311869E+00
         -2   -1    0    0    0  501 -0.00000000000E+00  0.00000000000E+00  0.29120423311E+02  0.29120423311E+02  0.00000000000E+00 0.  1.
          2   -1    0    0  501    0  0.00000000000E+00 -0.00000000000E+00 -0.47924718306E+03  0.47924718306E+03  0.00000000000E+00 0. -1.
         24    1    1    2    0    0 -0.22873392962E+02  0.21694154416E+02 -0.39846508216E+03  0.40771983776E+03  0.80419002446E+02 0. -1.
        -24    1    1    2    0    0  0.22873392962E+02 -0.21694154416E+02 -0.51661677581E+02  0.10064776861E+03  0.80419002446E+02 0.  1.
<mgrwt>
<rscale>  0 0.86377337E+02</rscale>
<asrwt>0</asrwt>
<pdfrwt beam="1">  1        2 0.73730327E-01 0.86377337E+02</pdfrwt>
<pdfrwt beam="2">  1       -2 0.44800657E-02 0.86377337E+02</pdfrwt>
<totfact> 0.13757673E+04</totfact>
</mgrwt>
</event>
<event>
 4    1  0.6602701E-002  0.8787047E+02  0.7546771E-02  0.1308092E+00
         -2   -1    0    0    0  501 -0.00000000000E+00  0.00000000000E+00  0.18342181778E+02  0.18342181778E+02  0.00000000000E+00 0.  1.
          2   -1    0    0  501    0  0.00000000000E+00 -0.00000000000E+00 -0.85990146521E+03  0.85990146521E+03  0.00000000000E+00 0. -1.
         24    1    1    2    0    0 -0.32973084919E+02  0.12914279639E+02 -0.73451743570E+03  0.73975474466E+03  0.80419002446E+02 0. -1.
        -24    1    1    2    0    0  0.32973084919E+02 -0.12914279639E+02 -0.10704184774E+03  0.13848890233E+03  0.80419002446E+02 0.  1.
<mgrwt>
<rscale>  0 0.87870467E+02</rscale>
<asrwt>0</asrwt>
<pdfrwt beam="1">  1        2 0.13229249E+00 0.87870467E+02</pdfrwt>
<pdfrwt beam="2">  1       -2 0.28218750E-02 0.87870467E+02</pdfrwt>
<totfact> 0.13865543E+04</totfact>
</mgrwt>
</event>
<event>
 4    1  0.6602701E-002  0.8150115E+02  0.7546771E-02  0.1324845E+00
         -2   -1    0    0    0  501 -0.00000000000E+00  0.00000000000E+00  0.82251550287E+02  0.82251550287E+02  0.00000000000E+00 0.  1.
          2   -1    0    0  501    0  0.00000000000E+00 -0.00000000000E+00 -0.85675527538E+02  0.85675527538E+02  0.00000000000E+00 0. -1.
         24    1    1    2    0    0  0.13055092630E+02  0.21878841945E+01 -0.21828523253E+02  0.84373708361E+02  0.80419002446E+02 0.  0.
        -24    1    1    2    0    0 -0.13055092630E+02 -0.21878841945E+01  0.18404546003E+02  0.83553369464E+02  0.80419002446E+02 0.  1.
<mgrwt>
<rscale>  0 0.81501155E+02</rscale>
<asrwt>0</asrwt>
<pdfrwt beam="1">  1        2 0.13180850E-01 0.81501155E+02</pdfrwt>
<pdfrwt beam="2">  1       -2 0.12654085E-01 0.81501155E+02</pdfrwt>
<totfact> 0.18127728E+04</totfact>
</mgrwt>
</event>
<event>
 4    1  0.6602701E-002  0.8724480E+02  0.7546771E-02  0.1309664E+00
         -2   -1    0    0    0  501 -0.00000000000E+00  0.00000000000E+00  0.12177477572E+03  0.12177477572E+03  0.00000000000E+00 0.  1.
          2   -1    0    0  501    0  0.00000000000E+00 -0.00000000000E+00 -0.63830669551E+02  0.63830669551E+02  0.00000000000E+00 0. -1.
         24    1    1    2    0    0  0.16036106891E+01 -0.33791523071E+02  0.15603043761E+02  0.88629055776E+02  0.80419002446E+02 0. -1.
        -24    1    1    2    0    0 -0.16036106891E+01  0.33791523071E+02  0.42341062405E+02  0.96976389491E+02  0.80419002446E+02 0.  1.
<mgrwt>
<rscale>  0 0.87244797E+02</rscale>
<asrwt>0</asrwt>
<pdfrwt beam="1">  1        2 0.98201030E-02 0.87244797E+02</pdfrwt>
<pdfrwt beam="2">  1       -2 0.18734581E-01 0.87244797E+02</pdfrwt>
<totfact> 0.13736706E+04</totfact>
</mgrwt>
</event>
<event>
 4    1  0.6602701E-002  0.8271818E+02  0.7546771E-02  0.1321510E+00
          1   -1    0    0  501    0  0.00000000000E+00  0.00000000000E+00  0.64222000315E+03  0.64222000315E+03  0.00000000000E+00 0. -1.
         -1   -1    0    0    0  501 -0.00000000000E+00 -0.00000000000E+00 -0.10916552098E+02  0.10916552098E+02  0.00000000000E+00 0.  1.
         24    1    1    2    0    0  0.15533888621E+02 -0.11566150608E+02  0.36628475526E+03  0.37550874215E+03  0.80419002446E+02 0. -1.
        -24    1    1    2    0    0 -0.15533888621E+02  0.11566150608E+02  0.26501869578E+03  0.27762781310E+03  0.80419002446E+02 0. -1.
<mgrwt>
<rscale>  0 0.82718167E+02</rscale>
<asrwt>0</asrwt>
<pdfrwt beam="1">  1        1 0.98803048E-01 0.82718178E+02</pdfrwt>
<pdfrwt beam="2">  1       -1 0.16794701E-02 0.82718178E+02</pdfrwt>
<totfact> 0.25328109E+04</totfact>
</mgrwt>
</event>
<event>
 4    1  0.6602701E-002  0.8728275E+02  0.7546771E-02  0.1309569E+00
         -1   -1    0    0    0  501 -0.00000000000E+00  0.00000000000E+00  0.11718756247E+02  0.11718756247E+02  0.00000000000E+00 0.  1.
          1   -1    0    0  501    0  0.00000000000E+00 -0.00000000000E+00 -0.12638755942E+04  0.12638755942E+04  0.00000000000E+00 0. -1.
         24    1    1    2    0    0 -0.18283784129E+01 -0.33877998543E+02 -0.18161315703E+03  0.20149842807E+03  0.80419002446E+02 0.  1.
        -24    1    1    2    0    0  0.18283784129E+01  0.33877998543E+02 -0.10705436809E+04  0.10740959224E+04  0.80419002446E+02 0. -1.
<mgrwt>
<rscale>  0 0.87282746E+02</rscale>
<asrwt>0</asrwt>
<pdfrwt beam="1">  1        1 0.19444240E+00 0.87282746E+02</pdfrwt>
<pdfrwt beam="2">  1       -1 0.18028856E-02 0.87282746E+02</pdfrwt>
<totfact> 0.78429899E+03</totfact>
</mgrwt>
</event>
<event>
 4    1  0.6602701E-002  0.8426245E+02  0.7546771E-02  0.1317373E+00
         -1   -1    0    0    0  501 -0.00000000000E+00  0.00000000000E+00  0.38826331869E+03  0.38826331869E+03  0.00000000000E+00 0.  1.
          1   -1    0    0  501    0  0.00000000000E+00 -0.00000000000E+00 -0.28341963816E+02  0.28341963816E+02  0.00000000000E+00 0. -1.
         24    1    1    2    0    0  0.23270189734E+01  0.25050533003E+02  0.30403179167E+03  0.31549245715E+03  0.80419002446E+02 0.  1.
        -24    1    1    2    0    0 -0.23270189734E+01 -0.25050533003E+02  0.55889563203E+02  0.10111282535E+03  0.80419002446E+02 0. -1.
<mgrwt>
<rscale>  0 0.84262448E+02</rscale>
<asrwt>0</asrwt>
<pdfrwt beam="1">  1        1 0.43603024E-02 0.84262448E+02</pdfrwt>
<pdfrwt beam="2">  1       -1 0.59732814E-01 0.84262448E+02</pdfrwt>
<totfact> 0.54160785E+03</totfact>
</mgrwt>
</event>
<event>
 4    1  0.6602701E-002  0.1931541E+03  0.7546771E-02  0.1155647E+00
         -2   -1    0    0    0  501 -0.00000000000E+00  0.00000000000E+00  0.12498802340E+03  0.12498802340E+03  0.00000000000E+00 0.  1.
          2   -1    0    0  501    0  0.00000000000E+00 -0.00000000000E+00 -0.52765426230E+03  0.52765426230E+03  0.00000000000E+00 0. -1.
         24    1    1    2    0    0 -0.14539270801E+03 -0.98500036616E+02 -0.41638219672E+03  0.45900179353E+03  0.80419002446E+02 0. -1.
        -24    1    1    2    0    0  0.14539270801E+03  0.98500036616E+02  0.13715957825E+02  0.19364049217E+03  0.80419002446E+02 0.  1.
<mgrwt>
<rscale>  0 0.19315412E+03</rscale>
<asrwt>0</asrwt>
<pdfrwt beam="1">  1        2 0.81177579E-01 0.19315412E+03</pdfrwt>
<pdfrwt beam="2">  1       -2 0.19228927E-01 0.19315412E+03</pdfrwt>
<totfact> 0.13124199E+03</totfact>
</mgrwt>
</event>
<event>
 4    1  0.6602701E-002  0.1541568E+03  0.7546771E-02  0.1195456E+00
          1   -1    0    0  501    0  0.00000000000E+00  0.00000000000E+00  0.67327922253E+02  0.67327922253E+02  0.00000000000E+00 0. -1.
         -1   -1    0    0    0  501 -0.00000000000E+00 -0.00000000000E+00 -0.35884969524E+03  0.35884969524E+03  0.00000000000E+00 0.  1.
         24    1    1    2    0    0 -0.30266166778E+02  0.12798844158E+03 -0.11846970819E+03  0.19442060010E+03  0.80419002446E+02 0. -1.
        -24    1    1    2    0    0  0.30266166778E+02 -0.12798844158E+03 -0.17305206480E+03  0.23175701740E+03  0.80419002446E+02 0.  1.
<mgrwt>
<rscale>  0 0.15415675E+03</rscale>
<asrwt>0</asrwt>
<pdfrwt beam="1">  1        1 0.10358142E-01 0.15415677E+03</pdfrwt>
<pdfrwt beam="2">  1       -1 0.55207645E-01 0.15415677E+03</pdfrwt>
<totfact> 0.20384846E+03</totfact>
</mgrwt>
</event>
<event>
 4    1  0.6602701E-002  0.1087991E+03  0.7546771E-02  0.1262810E+00
         -2   -1    0    0    0  501 -0.00000000000E+00  0.00000000000E+00  0.17295662967E+02  0.17295662967E+02  0.00000000000E+00 0.  1.
          2   -1    0    0  501    0  0.00000000000E+00 -0.00000000000E+00 -0.18394233980E+04  0.18394233980E+04  0.00000000000E+00 0. -1.
         24    1    1    2    0    0 -0.58457552261E+02  0.44189768163E+02 -0.16467114488E+04  0.16503017398E+04  0.80419002446E+02 0. -1.
        -24    1    1    2    0    0  0.58457552261E+02 -0.44189768163E+02 -0.17541628630E+03  0.20641732117E+03  0.80419002446E+02 0.  1.
<mgrwt>
<rscale>  0 0.10879907E+03</rscale>
<asrwt>0</asrwt>
<pdfrwt beam="1">  1        2 0.28298808E+00 0.10879907E+03</pdfrwt>
<pdfrwt beam="2">  1       -2 0.26608725E-02 0.10879907E+03</pdfrwt>
<totfact> 0.45209701E+03</totfact>
</mgrwt>
</event>
<event>
 4    1  0.6602701E-002  0.1272836E+03  0.7546771E-02  0.1231543E+00
          2   -1    0    0  501    0  0.00000000000E+00  0.00000000000E+00  0.65393270395E+03  0.65393270395E+03  0.00000000000E+00 0. -1.
         -2   -1    0    0    0  501 -0.00000000000E+00 -0.00000000000E+00 -0.24808819884E+02  0.24808819884E+02  0.00000000000E+00 0.  1.
         24    1    1    2    0    0  0.98216187062E+02  0.93526982440E+01  0.30201069414E+03  0.32773704047E+03  0.80419002446E+02 0. -1.
        -24    1    1    2    0    0 -0.98216187062E+02 -0.93526982440E+01  0.32711318993E+03  0.35100448337E+03  0.80419002446E+02 0.  0.
<mgrwt>
<rscale>  0 0.12728359E+03</rscale>
<asrwt>0</asrwt>
<pdfrwt beam="1">  1        2 0.10060502E+00 0.12728361E+03</pdfrwt>
<pdfrwt beam="2">  1       -2 0.38167420E-02 0.12728361E+03</pdfrwt>
<totfact> 0.12740000E+04</totfact>
</mgrwt>
</event>
<event>
 4    1  0.6602701E-002  0.8483777E+02  0.7546771E-02  0.1315857E+00
          1   -1    0    0  501    0  0.00000000000E+00  0.00000000000E+00  0.43855260817E+03  0.43855260817E+03  0.00000000000E+00 0. -1.
         -1   -1    0    0    0  501 -0.00000000000E+00 -0.00000000000E+00 -0.56093492022E+02  0.56093492022E+02  0.00000000000E+00 0.  1.
         24    1    1    2    0    0 -0.21584489940E+02 -0.16258552017E+02 -0.16789599937E+02  0.86483162177E+02  0.80419002446E+02 0.  1.
        -24    1    1    2    0    0  0.21584489940E+02  0.16258552017E+02  0.39924871608E+03  0.40816293801E+03  0.80419002446E+02 0. -1.
<mgrwt>
<rscale>  0 0.84837767E+02</rscale>
<asrwt>0</asrwt>
<pdfrwt beam="1">  1        1 0.67469630E-01 0.84837767E+02</pdfrwt>
<pdfrwt beam="2">  1       -1 0.86297683E-02 0.84837767E+02</pdfrwt>
<totfact> 0.38831165E+03</totfact>
</mgrwt>
</event>
<event>
 4    1  0.6602701E-002  0.8945990E+02  0.7546771E-02  0.1304165E+00
          1   -1    0    0  501    0  0.00000000000E+00  0.00000000000E+00  0.85967891027E+03  0.85967891027E+03  0.00000000000E+00 0. -1.
         -1   -1    0    0    0  501 -0.00000000000E+00 -0.00000000000E+00 -0.16681409272E+02  0.16681409272E+02  0.00000000000E+00 0.  1.
         24    1    1    2    0    0  0.16360507084E+02  0.35611688294E+02  0.13020580006E+03  0.15797665922E+03  0.80419002446E+02 0.  1.
        -24    1    1    2    0    0 -0.16360507084E+02 -0.35611688294E+02  0.71279170094E+03  0.71838366032E+03  0.80419002446E+02 0. -1.
<mgrwt>
<rscale>  0 0.89459904E+02</rscale>
<asrwt>0</asrwt>
<pdfrwt beam="1">  1        1 0.13225826E+00 0.89459904E+02</pdfrwt>
<pdfrwt beam="2">  1       -1 0.25663713E-02 0.89459904E+02</pdfrwt>
<totfact> 0.91598079E+03</totfact>
</mgrwt>
</event>
<event>
 4    1  0.6602701E-002  0.8437948E+02  0.7546771E-02  0.1317063E+00
          2   -1    0    0  501    0  0.00000000000E+00  0.00000000000E+00  0.40424036726E+03  0.40424036726E+03  0.00000000000E+00 0. -1.
         -2   -1    0    0    0  501 -0.00000000000E+00 -0.00000000000E+00 -0.54927736657E+02  0.54927736657E+02  0.00000000000E+00 0.  1.
         24    1    1    2    0    0 -0.14319234268E+02  0.21157496885E+02  0.36388453514E+03  0.37353962442E+03  0.80419002446E+02 0. -1.
        -24    1    1    2    0    0  0.14319234268E+02 -0.21157496885E+02 -0.14571904536E+02  0.85628479495E+02  0.80419002446E+02 0.  1.
<mgrwt>
<rscale>  0 0.84379477E+02</rscale>
<asrwt>0</asrwt>
<pdfrwt beam="1">  1        2 0.62190824E-01 0.84379477E+02</pdfrwt>
<pdfrwt beam="2">  1       -2 0.84504213E-02 0.84379477E+02</pdfrwt>
<totfact> 0.63442761E+03</totfact>
</mgrwt>
</event>
<event>
 4    1  0.6602701E-002  0.2113103E+03  0.7546771E-02  0.1140533E+00
          1   -1    0    0  501    0  0.00000000000E+00  0.00000000000E+00  0.51286104748E+03  0.51286104748E+03  0.00000000000E+00 0. -1.
         -1   -1    0    0    0  501 -0.00000000000E+00 -0.00000000000E+00 -0.13187223299E+03  0.13187223299E+03  0.00000000000E+00 0.  1.
         24    1    1    2    0    0  0.17991713061E+03  0.76253866183E+02  0.25846142254E+01  0.21132610388E+03  0.80419002446E+02 0.  1.
        -24    1    1    2    0    0 -0.17991713061E+03 -0.76253866183E+02  0.37840420026E+03  0.43340717660E+03  0.80419002446E+02 0. -1.
<mgrwt>
<rscale>  0 0.21131030E+03</rscale>
<asrwt>0</asrwt>
<pdfrwt beam="1">  1        1 0.78901699E-01 0.21131030E+03</pdfrwt>
<pdfrwt beam="2">  1       -1 0.20288036E-01 0.21131030E+03</pdfrwt>
<totfact> 0.86172726E+02</totfact>
</mgrwt>
</event>
<event>
 4    1  0.6602701E-002  0.9433216E+02  0.7546771E-02  0.1292687E+00
          2   -1    0    0  501    0  0.00000000000E+00  0.00000000000E+00  0.21318692248E+04  0.21318692248E+04  0.00000000000E+00 0. -1.
         -2   -1    0    0    0  501 -0.00000000000E+00 -0.00000000000E+00 -0.45987501140E+01  0.45987501140E+01  0.00000000000E+00 0.  1.
         24    1    1    2    0    0 -0.49263825921E+02  0.21013507944E+01  0.13882595883E+04  0.13914608297E+04  0.80419002446E+02 0. -1.
        -24    1    1    2    0    0  0.49263825921E+02 -0.21013507944E+01  0.73901088639E+03  0.74500714518E+03  0.80419002446E+02 0.  1.
<mgrwt>
<rscale>  0 0.94332159E+02</rscale>
<asrwt>0</asrwt>
<pdfrwt beam="1">  1        2 0.32797909E+00 0.94332159E+02</pdfrwt>
<pdfrwt beam="2">  1       -2 0.70750172E-03 0.94332159E+02</pdfrwt>
<totfact> 0.21256086E+04</totfact>
</mgrwt>
</event>
<event>
 4    1  0.6602701E-002  0.1293370E+03  0.7546771E-02  0.1228443E+00
         -2   -1    0    0    0  501 -0.00000000000E+00  0.00000000000E+00  0.11513856821E+03  0.11513856821E+03  0.00000000000E+00 0.  1.
          2   -1    0    0  501    0  0.00000000000E+00 -0.00000000000E+00 -0.40943534759E+03  0.40943534759E+03  0.00000000000E+00 0. -1.
         24    1    1    2    0    0  0.93936846359E+02  0.37903963390E+02 -0.35782122834E+03  0.38047876281E+03  0.80419002446E+02 0. -1.
        -24    1    1    2    0    0 -0.93936846359E+02 -0.37903963390E+02  0.63524448961E+02  0.14409515299E+03  0.80419002446E+02 0.  1.
<mgrwt>
<rscale>  0 0.12933699E+03</rscale>
<asrwt>0</asrwt>
<pdfrwt beam="1">  1        2 0.62990052E-01 0.12933699E+03</pdfrwt>
<pdfrwt beam="2">  1       -2 0.17713626E-01 0.12933699E+03</pdfrwt>
<totfact> 0.19697879E+03</totfact>
</mgrwt>
</event>
<event>
 4    1  0.6602701E-002  0.1013413E+03  0.7546771E-02  0.1277500E+00
          1   -1    0    0  501    0  0.00000000000E+00  0.00000000000E+00  0.38001123817E+03  0.38001123817E+03  0.00000000000E+00 0. -1.
         -1   -1    0    0    0  501 -0.00000000000E+00 -0.00000000000E+00 -0.35930759772E+02  0.35930759772E+02  0.00000000000E+00 0.  1.
         24    1    1    2    0    0 -0.59443753522E+01  0.61380060241E+02  0.68504948822E+02  0.12232330670E+03  0.80419002446E+02 0.  1.
        -24    1    1    2    0    0  0.59443753522E+01 -0.61380060241E+02  0.27557552957E+03  0.29361869124E+03  0.80419002446E+02 0. -1.
<mgrwt>
<rscale>  0 0.10134132E+03</rscale>
<asrwt>0</asrwt>
<pdfrwt beam="1">  1        1 0.58463265E-01 0.10134132E+03</pdfrwt>
<pdfrwt beam="2">  1       -1 0.55278095E-02 0.10134132E+03</pdfrwt>
<totfact> 0.90995236E+03</totfact>
</mgrwt>
</event>
<event>
 4    1  0.6602701E-002  0.1267528E+03  0.7546771E-02  0.1232355E+00
          2   -1    0    0  501    0  0.00000000000E+00  0.00000000000E+00  0.11944971057E+04  0.11944971057E+04  0.00000000000E+00 0. -1.
         -2   -1    0    0    0  501 -0.00000000000E+00 -0.00000000000E+00 -0.15012024637E+02  0.15012024637E+02  0.00000000000E+00 0.  1.
         24    1    1    2    0    0 -0.94571666115E+02  0.25598147107E+02  0.78480294491E+03  0.79497291995E+03  0.80419002446E+02 0.  0.
        -24    1    1    2    0    0  0.94571666115E+02 -0.25598147107E+02  0.39468213620E+03  0.41453621042E+03  0.80419002446E+02 0.  1.
<mgrwt>
<rscale>  0 0.12675283E+03</rscale>
<asrwt>0</asrwt>
<pdfrwt beam="1">  1        2 0.18376871E+00 0.12675283E+03</pdfrwt>
<pdfrwt beam="2">  1       -2 0.23095432E-02 0.12675283E+03</pdfrwt>
<totfact> 0.12102030E+04</totfact>
</mgrwt>
</event>
<event>
 4    1  0.6602701E-002  0.8657763E+02  0.7546771E-02  0.1311358E+00
         -1   -1    0    0    0  501 -0.00000000000E+00  0.00000000000E+00  0.17963725459E+02  0.17963725459E+02  0.00000000000E+00 0.  1.
          1   -1    0    0  501    0  0.00000000000E+00 -0.00000000000E+00 -0.45024583047E+03  0.45024583047E+03  0.00000000000E+00 0. -1.
         24    1    1    2    0    0  0.20220221079E+02 -0.24892015930E+02 -0.15278367143E+03  0.17560904307E+03  0.80419002446E+02 0.  0.
        -24    1    1    2    0    0 -0.20220221079E+02  0.24892015930E+02 -0.27949843358E+03  0.29260051286E+03  0.80419002446E+02 0.  0.
<mgrwt>
<rscale>  0 0.86577628E+02</rscale>
<asrwt>0</asrwt>
<pdfrwt beam="1">  1        1 0.69268588E-01 0.86577628E+02</pdfrwt>
<pdfrwt beam="2">  1       -1 0.27636501E-02 0.86577628E+02</pdfrwt>
<totfact> 0.19872274E+04</totfact>
</mgrwt>
</event>
<event>
 4    1  0.6602701E-002  0.1710485E+03  0.7546771E-02  0.1176759E+00
          2   -1    0    0  501    0  0.00000000000E+00  0.00000000000E+00  0.64693948365E+02  0.64693948365E+02  0.00000000000E+00 0. -1.
         -2   -1    0    0    0  501 -0.00000000000E+00 -0.00000000000E+00 -0.47672770199E+03  0.47672770199E+03  0.00000000000E+00 0.  1.
         24    1    1    2    0    0  0.10625836172E+03 -0.10723585678E+03 -0.14467026991E+03  0.22402471151E+03  0.80419002446E+02 0. -1.
        -24    1    1    2    0    0 -0.10625836172E+03  0.10723585678E+03 -0.26736348372E+03  0.31739693885E+03  0.80419002446E+02 0.  1.
<mgrwt>
<rscale>  0 0.17104849E+03</rscale>
<asrwt>0</asrwt>
<pdfrwt beam="1">  1        2 0.99529155E-02 0.17104849E+03</pdfrwt>
<pdfrwt beam="2">  1       -2 0.73342720E-01 0.17104849E+03</pdfrwt>
<totfact> 0.10934010E+03</totfact>
</mgrwt>
</event>
<event>
 4    1  0.6602701E-002  0.9781528E+02  0.7546771E-02  0.1284958E+00
          2   -1    0    0  501    0  0.00000000000E+00  0.00000000000E+00  0.35954262477E+04  0.35954262477E+04  0.00000000000E+00 0. -1.
         -2   -1    0    0    0  501 -0.00000000000E+00 -0.00000000000E+00 -0.37064625819E+01  0.37064625819E+01  0.00000000000E+00 0.  1.
         24    1    1    2    0    0  0.52866514285E+02  0.17485572737E+02  0.27515545887E+04  0.27532926623E+04  0.80419002446E+02 0. -1.
        -24    1    1    2    0    0 -0.52866514285E+02 -0.17485572737E+02  0.84016519648E+03  0.84584004807E+03  0.80419002446E+02 0.  1.
<mgrwt>
<rscale>  0 0.97815283E+02</rscale>
<asrwt>0</asrwt>
<pdfrwt beam="1">  1        2 0.55313971E+00 0.97815283E+02</pdfrwt>
<pdfrwt beam="2">  1       -2 0.57022789E-03 0.97815283E+02</pdfrwt>
<totfact> 0.43001757E+03</totfact>
</mgrwt>
</event>
<event>
 4    1  0.6602701E-002  0.9619917E+02  0.7546771E-02  0.1288498E+00
         -1   -1    0    0    0  501 -0.00000000000E+00  0.00000000000E+00  0.15097992127E+03  0.15097992127E+03  0.00000000000E+00 0.  1.
          1   -1    0    0  501    0  0.00000000000E+00 -0.00000000000E+00 -0.61363894929E+02  0.61363894929E+02  0.00000000000E+00 0. -1.
         24    1    1    2    0    0 -0.35063502181E+02  0.39466642774E+02  0.48371208775E+02  0.10767569303E+03  0.80419002446E+02 0.  1.
        -24    1    1    2    0    0  0.35063502181E+02 -0.39466642774E+02  0.41244817568E+02  0.10466812317E+03  0.80419002446E+02 0. -1.
<mgrwt>
<rscale>  0 0.96199174E+02</rscale>
<asrwt>0</asrwt>
<pdfrwt beam="1">  1        1 0.94405993E-02 0.96199174E+02</pdfrwt>
<pdfrwt beam="2">  1       -1 0.23227680E-01 0.96199174E+02</pdfrwt>
<totfact> 0.99455223E+03</totfact>
</mgrwt>
</event>
<event>
 4    1  0.6602701E-002  0.8428196E+02  0.7546771E-02  0.1317321E+00
         -2   -1    0    0    0  501 -0.00000000000E+00  0.00000000000E+00  0.59710930945E+03  0.59710930945E+03  0.00000000000E+00 0.  1.
          2   -1    0    0  501    0  0.00000000000E+00 -0.00000000000E+00 -0.28682663510E+02  0.28682663510E+02  0.00000000000E+00 0. -1.
         24    1    1    2    0    0  0.14508342402E+02 -0.20633498276E+02  0.44844648616E+02  0.95469847147E+02  0.80419002446E+02 0. -1.
        -24    1    1    2    0    0 -0.14508342402E+02  0.20633498276E+02  0.52358199733E+03  0.53032212582E+03  0.80419002446E+02 0.  1.
<mgrwt>
<rscale>  0 0.84281963E+02</rscale>
<asrwt>0</asrwt>
<pdfrwt beam="1">  1        2 0.44127179E-02 0.84281963E+02</pdfrwt>
<pdfrwt beam="2">  1       -2 0.91862961E-01 0.84281963E+02</pdfrwt>
<totfact> 0.18032853E+03</totfact>
</mgrwt>
</event>
<event>
 4    1  0.6602701E-002  0.8524969E+02  0.7546771E-02  0.1314781E+00
         -2   -1    0    0    0  501 -0.00000000000E+00  0.00000000000E+00  0.56861408193E+02  0.56861408193E+02  0.00000000000E+00 0.  1.
          2   -1    0    0  501    0  0.00000000000E+00 -0.00000000000E+00 -0.24322692267E+03  0.24322692267E+03  0.00000000000E+00 0. -1.
         24    1    1    2    0    0  0.97481363705E+01 -0.26556880943E+02 -0.19654127346E+03  0.21423347594E+03  0.80419002446E+02 0. -1.
        -24    1    1    2    0    0 -0.97481363705E+01  0.26556880943E+02  0.10175758980E+02  0.85854854920E+02  0.80419002446E+02 0.  1.
<mgrwt>
<rscale>  0 0.85249692E+02</rscale>
<asrwt>0</asrwt>
<pdfrwt beam="1">  1        2 0.37419527E-01 0.85249692E+02</pdfrwt>
<pdfrwt beam="2">  1       -2 0.87479088E-02 0.85249692E+02</pdfrwt>
<totfact> 0.10238187E+04</totfact>
</mgrwt>
</event>
<event>
 4    1  0.6602701E-002  0.9360786E+02  0.7546771E-02  0.1294343E+00
          2   -1    0    0  501    0  0.00000000000E+00  0.00000000000E+00  0.13683211239E+04  0.13683211239E+04  0.00000000000E+00 0. -1.
         -2   -1    0    0    0  501 -0.00000000000E+00 -0.00000000000E+00 -0.90112249492E+01  0.90112249492E+01  0.00000000000E+00 0.  1.
         24    1    1    2    0    0 -0.39242805519E+02  0.27481209419E+02  0.10501003593E+04  0.10542642910E+04  0.80419002446E+02 0. -1.
        -24    1    1    2    0    0  0.39242805519E+02 -0.27481209419E+02  0.30920953962E+03  0.32306805785E+03  0.80419002446E+02 0.  1.
<mgrwt>
<rscale>  0 0.93607855E+02</rscale>
<asrwt>0</asrwt>
<pdfrwt beam="1">  1        2 0.21051078E+00 0.93607855E+02</pdfrwt>
<pdfrwt beam="2">  1       -2 0.13863434E-02 0.93607855E+02</pdfrwt>
<totfact> 0.19959734E+04</totfact>
</mgrwt>
</event>
<event>
 4    1  0.6602701E-002  0.8577197E+02  0.7546771E-02  0.1313426E+00
          2   -1    0    0  501    0  0.00000000000E+00  0.00000000000E+00  0.92901602346E+03  0.92901602346E+03  0.00000000000E+00 0. -1.
         -2   -1    0    0    0  501 -0.00000000000E+00 -0.00000000000E+00 -0.30994696285E+02  0.30994696285E+02  0.00000000000E+00 0.  1.
         24    1    1    2    0    0 -0.14498649451E+02 -0.26065393629E+02  0.86318222090E+03  0.86743321243E+03  0.80419002446E+02 0. -1.
        -24    1    1    2    0    0  0.14498649451E+02  0.26065393629E+02  0.34839106268E+02  0.92577507316E+02  0.80419002446E+02 0.  1.
<mgrwt>
<rscale>  0 0.85771974E+02</rscale>
<asrwt>0</asrwt>
<pdfrwt beam="1">  1        2 0.14292552E+00 0.85771974E+02</pdfrwt>
<pdfrwt beam="2">  1       -2 0.47684155E-02 0.85771974E+02</pdfrwt>
<totfact> 0.58197704E+03</totfact>
</mgrwt>
</event>
<event>
 4    1  0.6602701E-002  0.8135391E+02  0.7546771E-02  0.1325253E+00
          2   -1    0    0  501    0  0.00000000000E+00  0.00000000000E+00  0.32374827214E+02  0.32374827214E+02  0.00000000000E+00 0. -1.
         -2   -1    0    0    0  501 -0.00000000000E+00 -0.00000000000E+00 -0.21485626837E+03  0.21485626837E+03  0.00000000000E+00 0.  1.
         24    1    1    2    0    0 -0.12464008456E+01  0.12234727006E+02 -0.64012632033E+02  0.10351847697E+03  0.80419002446E+02 0. -1.
        -24    1    1    2    0    0  0.12464008456E+01 -0.12234727006E+02 -0.11846880913E+03  0.14371261862E+03  0.80419002446E+02 0.  1.
<mgrwt>
<rscale>  0 0.81353906E+02</rscale>
<asrwt>0</asrwt>
<pdfrwt beam="1">  1        2 0.49807425E-02 0.81353906E+02</pdfrwt>
<pdfrwt beam="2">  1       -2 0.33054811E-01 0.81353906E+02</pdfrwt>
<totfact> 0.11944199E+04</totfact>
</mgrwt>
</event>
<event>
 4    1  0.8142865E-002  0.9367005E+02  0.7546771E-02  0.1294200E+00
          3   -1    0    0  501    0  0.00000000000E+00  0.00000000000E+00  0.87895785143E+03  0.87895785143E+03  0.00000000000E+00 0. -1.
         -3   -1    0    0    0  501 -0.00000000000E+00 -0.00000000000E+00 -0.23169866064E+02  0.23169866064E+02  0.00000000000E+00 0.  1.
         24    1    1    2    0    0  0.42983222510E+02  0.21431403127E+02  0.87597465457E+02  0.12824739516E+03  0.80419002446E+02 0.  1.
        -24    1    1    2    0    0 -0.42983222510E+02 -0.21431403127E+02  0.76819051991E+03  0.77388032233E+03  0.80419002446E+02 0. -1.
<mgrwt>
<rscale>  0 0.93670051E+02</rscale>
<asrwt>0</asrwt>
<pdfrwt beam="1">  1        3 0.13522426E+00 0.93670051E+02</pdfrwt>
<pdfrwt beam="2">  1       -3 0.35645955E-02 0.93670051E+02</pdfrwt>
<totfact> 0.38137631E+02</totfact>
</mgrwt>
</event>
<event>
 4    1  0.6602701E-002  0.1127350E+03  0.7546771E-02  0.1255587E+00
         -2   -1    0    0    0  501 -0.00000000000E+00  0.00000000000E+00  0.36483590688E+03  0.36483590688E+03  0.00000000000E+00 0.  1.
          2   -1    0    0  501    0  0.00000000000E+00 -0.00000000000E+00 -0.34986585078E+02  0.34986585078E+02  0.00000000000E+00 0. -1.
         24    1    1    2    0    0  0.74214144371E+02 -0.27096417451E+02  0.15177926493E+03  0.18906643351E+03  0.80419002446E+02 0.  1.
        -24    1    1    2    0    0 -0.74214144371E+02  0.27096417451E+02  0.17807005687E+03  0.21075605844E+03  0.80419002446E+02 0. -1.
<mgrwt>
<rscale>  0 0.11273496E+03</rscale>
<asrwt>0</asrwt>
<pdfrwt beam="1">  1        2 0.53825518E-02 0.11273496E+03</pdfrwt>
<pdfrwt beam="2">  1       -2 0.56128598E-01 0.11273496E+03</pdfrwt>
<totfact> 0.40604164E+03</totfact>
</mgrwt>
</event>
<event>
 4    1  0.6602701E-002  0.8127933E+02  0.7546771E-02  0.1325460E+00
          2   -1    0    0  501    0  0.00000000000E+00  0.00000000000E+00  0.27848508603E+03  0.27848508603E+03  0.00000000000E+00 0. -1.
         -2   -1    0    0    0  501 -0.00000000000E+00 -0.00000000000E+00 -0.36716567959E+02  0.36716567959E+02  0.00000000000E+00 0.  1.
         24    1    1    2    0    0 -0.56241701539E+01 -0.10367339795E+02  0.21464089755E+03  0.22951480101E+03  0.80419002446E+02 0. -1.
        -24    1    1    2    0    0  0.56241701539E+01  0.10367339795E+02  0.27127620515E+02  0.85686852979E+02  0.80419002446E+02 0.  1.
<mgrwt>
<rscale>  0 0.81279327E+02</rscale>
<asrwt>0</asrwt>
<pdfrwt beam="1">  1        2 0.42843858E-01 0.81279327E+02</pdfrwt>
<pdfrwt beam="2">  1       -2 0.56487029E-02 0.81279327E+02</pdfrwt>
<totfact> 0.17136195E+04</totfact>
</mgrwt>
</event>
<event>
 4    1  0.6602701E-002  0.1015638E+03  0.7546771E-02  0.1277041E+00
         -3   -1    0    0    0  501 -0.00000000000E+00  0.00000000000E+00  0.25873225790E+04  0.25873225790E+04  0.00000000000E+00 0.  1.
          3   -1    0    0  501    0  0.00000000000E+00 -0.00000000000E+00 -0.43908227614E+01  0.43908227614E+01  0.00000000000E+00 0. -1.
         24    1    1    2    0    0 -0.39993945032E+02 -0.47418124162E+02  0.16845376843E+04  0.16875966402E+04  0.80419002446E+02 0.  1.
        -24    1    1    2    0    0  0.39993945032E+02  0.47418124162E+02  0.89839407192E+03  0.90411676157E+03  0.80419002446E+02 0. -1.
<mgrwt>
<rscale>  0 0.10156382E+03</rscale>
<asrwt>0</asrwt>
<pdfrwt beam="1">  1        3 0.67551326E-03 0.10156382E+03</pdfrwt>
<pdfrwt beam="2">  1       -3 0.39804841E+00 0.10156382E+03</pdfrwt>
<totfact> 0.15473542E+02</totfact>
</mgrwt>
</event>
<event>
 4    1  0.6602701E-002  0.8760603E+02  0.7546771E-02  0.1308755E+00
         -3   -1    0    0    0  501 -0.00000000000E+00  0.00000000000E+00  0.45113738411E+01  0.45113738411E+01  0.00000000000E+00 0.  1.
          3   -1    0    0  501    0  0.00000000000E+00 -0.00000000000E+00 -0.31337979459E+04  0.31337979459E+04  0.00000000000E+00 0. -1.
         24    1    1    2    0    0  0.25828338802E+02 -0.23248583358E+02 -0.50370485067E+03  0.51126645915E+03  0.80419002446E+02 0.  1.
        -24    1    1    2    0    0 -0.25828338802E+02  0.23248583358E+02 -0.26255817214E+04  0.26270428606E+04  0.80419002446E+02 0. -1.
<mgrwt>
<rscale>  0 0.87606025E+02</rscale>
<asrwt>0</asrwt>
<pdfrwt beam="1">  1        3 0.48212207E+00 0.87606025E+02</pdfrwt>
<pdfrwt beam="2">  1       -3 0.69405851E-03 0.87606025E+02</pdfrwt>
<totfact> 0.59556721E+01</totfact>
</mgrwt>
</event>
<event>
 4    1  0.6602701E-002  0.8452347E+02  0.7546771E-02  0.1316683E+00
         -4   -1    0    0    0  501 -0.00000000000E+00  0.00000000000E+00  0.63327120578E+03  0.63327120578E+03  0.00000000000E+00 0.  1.
          4   -1    0    0  501    0  0.00000000000E+00 -0.00000000000E+00 -0.29159238391E+02  0.29159238391E+02  0.00000000000E+00 0. -1.
         24    1    1    2    0    0 -0.15766982191E+02  0.20697923962E+02  0.42710260603E+02  0.94701552780E+02  0.80419002446E+02 0. -1.
        -24    1    1    2    0    0  0.15766982191E+02 -0.20697923962E+02  0.56140170678E+03  0.56772889139E+03  0.80419002446E+02 0.  1.
<mgrwt>
<rscale>  0 0.84523474E+02</rscale>
<asrwt>0</asrwt>
<pdfrwt beam="1">  1        4 0.44860371E-02 0.84523474E+02</pdfrwt>
<pdfrwt beam="2">  1       -4 0.97426329E-01 0.84523474E+02</pdfrwt>
<totfact> 0.38939534E+02</totfact>
</mgrwt>
</event>
<event>
 4    1  0.7488096E-002  0.8897729E+02  0.7546771E-02  0.1305347E+00
         -1   -1    0    0    0  501 -0.00000000000E+00  0.00000000000E+00  0.76693694399E+02  0.76693694399E+02  0.00000000000E+00 0.  1.
          1   -1    0    0  501    0  0.00000000000E+00 -0.00000000000E+00 -0.55698124457E+03  0.55698124457E+03  0.00000000000E+00 0. -1.
         24    1    1    2    0    0  0.30443921703E+02  0.22867210111E+02  0.45829857132E+02  0.10008662961E+03  0.80419002446E+02 0.  1.
        -24    1    1    2    0    0 -0.30443921703E+02 -0.22867210111E+02 -0.52611740730E+03  0.53358830936E+03  0.80419002446E+02 0. -1.
<mgrwt>
<rscale>  0 0.88977287E+02</rscale>
<asrwt>0</asrwt>
<pdfrwt beam="1">  1        1 0.85689422E-01 0.88977287E+02</pdfrwt>
<pdfrwt beam="2">  1       -1 0.11799030E-01 0.88977287E+02</pdfrwt>
<totfact> 0.17871938E+03</totfact>
</mgrwt>
</event>
<event>
 4    1  0.6602701E-002  0.9760580E+02  0.7546771E-02  0.1285413E+00
          2   -1    0    0  501    0  0.00000000000E+00  0.00000000000E+00  0.11955719457E+03  0.11955719457E+03  0.00000000000E+00 0. -1.
         -2   -1    0    0    0  501 -0.00000000000E+00 -0.00000000000E+00 -0.16643446394E+03  0.16643446394E+03  0.00000000000E+00 0.  1.
         24    1    1    2    0    0 -0.54678549072E+02 -0.83625577086E+01  0.79798423655E+02  0.12607410707E+03  0.80419002446E+02 0. -1.
        -24    1    1    2    0    0  0.54678549072E+02  0.83625577086E+01 -0.12667569303E+03  0.15991755144E+03  0.80419002446E+02 0.  1.
<mgrwt>
<rscale>  0 0.97605799E+02</rscale>
<asrwt>0</asrwt>
<pdfrwt beam="1">  1        2 0.18393415E-01 0.97605799E+02</pdfrwt>
<pdfrwt beam="2">  1       -2 0.25605302E-01 0.97605799E+02</pdfrwt>
<totfact> 0.39103318E+03</totfact>
</mgrwt>
</event>
<event>
 4    1  0.6602701E-002  0.1531659E+03  0.7546771E-02  0.1196636E+00
          2   -1    0    0  501    0  0.00000000000E+00  0.00000000000E+00  0.38705684108E+03  0.38705684108E+03  0.00000000000E+00 0. -1.
         -2   -1    0    0    0  501 -0.00000000000E+00 -0.00000000000E+00 -0.74442716191E+02  0.74442716191E+02  0.00000000000E+00 0.  1.
         24    1    1    2    0    0 -0.12938853825E+03  0.15848001284E+02  0.56841297369E+02  0.16337289254E+03  0.80419002446E+02 0.  1.
        -24    1    1    2    0    0  0.12938853825E+03 -0.15848001284E+02  0.25577282753E+03  0.29812666474E+03  0.80419002446E+02 0. -1.
<mgrwt>
<rscale>  0 0.15316584E+03</rscale>
<asrwt>0</asrwt>
<pdfrwt beam="1">  1        2 0.59547205E-01 0.15316586E+03</pdfrwt>
<pdfrwt beam="2">  1       -2 0.11452726E-01 0.15316586E+03</pdfrwt>
<totfact> 0.42823120E+03</totfact>
</mgrwt>
</event>
<event>
 4    1  0.6602701E-002  0.9341464E+02  0.7546771E-02  0.1294787E+00
          2   -1    0    0  501    0  0.00000000000E+00  0.00000000000E+00  0.13976062395E+04  0.13976062395E+04  0.00000000000E+00 0. -1.
         -2   -1    0    0    0  501 -0.00000000000E+00 -0.00000000000E+00 -0.65170577501E+01  0.65170577501E+01  0.00000000000E+00 0.  1.
         24    1    1    2    0    0  0.16293857552E+02 -0.44649629752E+02  0.83931861401E+03  0.84450105448E+03  0.80419002446E+02 0. -1.
        -24    1    1    2    0    0 -0.16293857552E+02  0.44649629752E+02  0.55177056776E+03  0.55962224279E+03  0.80419002446E+02 0.  0.
<mgrwt>
<rscale>  0 0.93414641E+02</rscale>
<asrwt>0</asrwt>
<pdfrwt beam="1">  1        2 0.21501611E+00 0.93414641E+02</pdfrwt>
<pdfrwt beam="2">  1       -2 0.10026254E-02 0.93414641E+02</pdfrwt>
<totfact> 0.30534093E+04</totfact>
</mgrwt>
</event>
<event>
 4    1  0.6602701E-002  0.8172887E+02  0.7546771E-02  0.1324216E+00
         -4   -1    0    0    0  501 -0.00000000000E+00  0.00000000000E+00  0.11638351291E+03  0.11638351291E+03  0.00000000000E+00 0.  1.
          4   -1    0    0  501    0  0.00000000000E+00 -0.00000000000E+00 -0.72870482097E+02  0.72870482097E+02  0.00000000000E+00 0. -1.
         24    1    1    2    0    0 -0.10750904193E+02 -0.98392317639E+01 -0.21853702667E+02  0.84600193246E+02  0.80419002446E+02 0.  0.
        -24    1    1    2    0    0  0.10750904193E+02  0.98392317639E+01  0.65366733480E+02  0.10465380176E+03  0.80419002446E+02 0.  1.
<mgrwt>
<rscale>  0 0.81728871E+02</rscale>
<asrwt>0</asrwt>
<pdfrwt beam="1">  1        4 0.11210843E-01 0.81728871E+02</pdfrwt>
<pdfrwt beam="2">  1       -4 0.17905156E-01 0.81728871E+02</pdfrwt>
<totfact> 0.24773348E+03</totfact>
</mgrwt>
</event>
<event>
 4    1  0.6602701E-002  0.1012889E+03  0.7546771E-02  0.1277609E+00
         -2   -1    0    0    0  501 -0.00000000000E+00  0.00000000000E+00  0.37601199049E+01  0.37601199049E+01  0.00000000000E+00 0.  1.
          2   -1    0    0  501    0  0.00000000000E+00 -0.00000000000E+00 -0.36129187844E+04  0.36129187844E+04  0.00000000000E+00 0. -1.
         24    1    1    2    0    0 -0.41655448968E+02  0.45354694367E+02 -0.26992905275E+04  0.27011902548E+04  0.80419002446E+02 0. -1.
        -24    1    1    2    0    0  0.41655448968E+02 -0.45354694367E+02 -0.90986813699E+03  0.91548864951E+03  0.80419002446E+02 0.  1.
<mgrwt>
<rscale>  0 0.10128890E+03</rscale>
<asrwt>0</asrwt>
<pdfrwt beam="1">  1        2 0.55583285E+00 0.10128890E+03</pdfrwt>
<pdfrwt beam="2">  1       -2 0.57848083E-03 0.10128890E+03</pdfrwt>
<totfact> 0.41017500E+03</totfact>
</mgrwt>
</event>
<event>
 4    1  0.6602701E-002  0.1066051E+03  0.7546771E-02  0.1266989E+00
          1   -1    0    0  501    0  0.00000000000E+00  0.00000000000E+00  0.30995315773E+04  0.30995315773E+04  0.00000000000E+00 0. -1.
         -1   -1    0    0    0  501 -0.00000000000E+00 -0.00000000000E+00 -0.12747462940E+02  0.12747462940E+02  0.00000000000E+00 0.  1.
         24    1    1    2    0    0  0.69148508096E+02 -0.10766108881E+02  0.22998001196E+03  0.25348658175E+03  0.80419002446E+02 0.  1.
        -24    1    1    2    0    0 -0.69148508096E+02  0.10766108881E+02  0.28568041024E+04  0.28587924585E+04  0.80419002446E+02 0. -1.
<mgrwt>
<rscale>  0 0.10660507E+03</rscale>
<asrwt>0</asrwt>
<pdfrwt beam="1">  1        1 0.47685041E+00 0.10660507E+03</pdfrwt>
<pdfrwt beam="2">  1       -1 0.19611506E-02 0.10660507E+03</pdfrwt>
<totfact> 0.45448862E+02</totfact>
</mgrwt>
</event>
<event>
 4    1  0.6602701E-002  0.8271675E+02  0.7546771E-02  0.1321514E+00
         -3   -1    0    0    0  501 -0.00000000000E+00  0.00000000000E+00  0.26624835985E+02  0.26624835985E+02  0.00000000000E+00 0.  1.
          3   -1    0    0  501    0  0.00000000000E+00 -0.00000000000E+00 -0.42328950337E+03  0.42328950337E+03  0.00000000000E+00 0. -1.
         24    1    1    2    0    0 -0.36951505300E+01  0.19005034530E+02 -0.57325850924E+02  0.10063952809E+03  0.80419002446E+02 0.  1.
        -24    1    1    2    0    0  0.36951505300E+01 -0.19005034530E+02 -0.33933881646E+03  0.34927481127E+03  0.80419002446E+02 0. -1.
<mgrwt>
<rscale>  0 0.82716754E+02</rscale>
<asrwt>0</asrwt>
<pdfrwt beam="1">  1        3 0.65121456E-01 0.82716754E+02</pdfrwt>
<pdfrwt beam="2">  1       -3 0.40961290E-02 0.82716754E+02</pdfrwt>
<totfact> 0.15210323E+03</totfact>
</mgrwt>
</event>
<event>
 4    1  0.6602701E-002  0.1975081E+03  0.7546771E-02  0.1151859E+00
          2   -1    0    0  501    0  0.00000000000E+00  0.00000000000E+00  0.36607652950E+04  0.36607652950E+04  0.00000000000E+00 0. -1.
         -2   -1    0    0    0  501 -0.00000000000E+00 -0.00000000000E+00 -0.18545491438E+02  0.18545491438E+02  0.00000000000E+00 0.  1.
         24    1    1    2    0    0 -0.81688738625E+02  0.16083895394E+03  0.30209942902E+04  0.30274437958E+04  0.80419002446E+02 0. -1.
        -24    1    1    2    0    0  0.81688738625E+02 -0.16083895394E+03  0.62122551332E+03  0.65186699063E+03  0.80419002446E+02 0.  1.
<mgrwt>
<rscale>  0 0.19750806E+03</rscale>
<asrwt>0</asrwt>
<pdfrwt beam="1">  1        2 0.56319409E+00 0.19750806E+03</pdfrwt>
<pdfrwt beam="2">  1       -2 0.28531554E-02 0.19750806E+03</pdfrwt>
<totfact> 0.36980912E+02</totfact>
</mgrwt>
</event>
<event>
 4    1  0.6602701E-002  0.1303183E+03  0.7546771E-02  0.1226984E+00
          1   -1    0    0  501    0  0.00000000000E+00  0.00000000000E+00  0.74498014887E+02  0.74498014887E+02  0.00000000000E+00 0. -1.
         -1   -1    0    0    0  501 -0.00000000000E+00 -0.00000000000E+00 -0.33901127383E+03  0.33901127383E+03  0.00000000000E+00 0.  1.
         24    1    1    2    0    0  0.64945083611E+02 -0.79358508989E+02 -0.25058870632E+03  0.28244920344E+03  0.80419002446E+02 0.  1.
        -24    1    1    2    0    0 -0.64945083611E+02  0.79358508989E+02 -0.13924552629E+02  0.13106008528E+03  0.80419002446E+02 0. -1.
<mgrwt>
<rscale>  0 0.13031827E+03</rscale>
<asrwt>0</asrwt>
<pdfrwt beam="1">  1        1 0.11461233E-01 0.13031827E+03</pdfrwt>
<pdfrwt beam="2">  1       -1 0.52155581E-01 0.13031827E+03</pdfrwt>
<totfact> 0.19679952E+03</totfact>
</mgrwt>
</event>
<event>
 4    1  0.6602701E-002  0.9253740E+02  0.7546771E-02  0.1296821E+00
         -2   -1    0    0    0  501 -0.00000000000E+00  0.00000000000E+00  0.29352701562E+03  0.29352701562E+03  0.00000000000E+00 0.  1.
          2   -1    0    0  501    0  0.00000000000E+00 -0.00000000000E+00 -0.78037918528E+02  0.78037918528E+02  0.00000000000E+00 0. -1.
         24    1    1    2    0    0  0.38039633994E+02  0.25474330719E+02 -0.39266118297E+02  0.10052362548E+03  0.80419002446E+02 0. -1.
        -24    1    1    2    0    0 -0.38039633994E+02 -0.25474330719E+02  0.25475521539E+03  0.27104130867E+03  0.80419002446E+02 0.  1.
<mgrwt>
<rscale>  0 0.92537405E+02</rscale>
<asrwt>0</asrwt>
<pdfrwt beam="1">  1        2 0.12005834E-01 0.92537405E+02</pdfrwt>
<pdfrwt beam="2">  1       -2 0.45158002E-01 0.92537405E+02</pdfrwt>
<totfact> 0.22683410E+03</totfact>
</mgrwt>
</event>
<event>
 4    1  0.6602701E-002  0.8692675E+02  0.7546771E-02  0.1310469E+00
          1   -1    0    0  501    0  0.00000000000E+00  0.00000000000E+00  0.76890309669E+03  0.76890309669E+03  0.00000000000E+00 0. -1.
         -1   -1    0    0    0  501 -0.00000000000E+00 -0.00000000000E+00 -0.13075568055E+02  0.13075568055E+02  0.00000000000E+00 0.  1.
         24    1    1    2    0    0  0.74007411315E+00  0.32992369348E+02  0.18303750680E+03  0.20263017790E+03  0.80419002446E+02 0.  0.
        -24    1    1    2    0    0 -0.74007411315E+00 -0.32992369348E+02  0.57279002183E+03  0.57934848684E+03  0.80419002446E+02 0.  1.
<mgrwt>
<rscale>  0 0.86926751E+02</rscale>
<asrwt>0</asrwt>
<pdfrwt beam="1">  1        1 0.11829275E+00 0.86926751E+02</pdfrwt>
<pdfrwt beam="2">  1       -1 0.20116264E-02 0.86926751E+02</pdfrwt>
<totfact> 0.15289694E+04</totfact>
</mgrwt>
</event>
<event>
 4    1  0.6602701E-002  0.9119249E+02  0.7546771E-02  0.1299989E+00
         -1   -1    0    0    0  501 -0.00000000000E+00  0.00000000000E+00  0.18650564010E+02  0.18650564010E+02  0.00000000000E+00 0.  1.
          1   -1    0    0  501    0  0.00000000000E+00 -0.00000000000E+00 -0.47965616609E+03  0.47965616609E+03  0.00000000000E+00 0. -1.
         24    1    1    2    0    0 -0.24627964433E+02  0.35246520442E+02 -0.16439495160E+03  0.18799406879E+03  0.80419002446E+02 0.  1.
        -24    1    1    2    0    0  0.24627964433E+02 -0.35246520442E+02 -0.29661065048E+03  0.31031266130E+03  0.80419002446E+02 0.  0.
<mgrwt>
<rscale>  0 0.91192488E+02</rscale>
<asrwt>0</asrwt>
<pdfrwt beam="1">  1        1 0.73793244E-01 0.91192488E+02</pdfrwt>
<pdfrwt beam="2">  1       -1 0.28693180E-02 0.91192488E+02</pdfrwt>
<totfact> 0.17470929E+04</totfact>
</mgrwt>
</event>
<event>
 4    1  0.6602701E-002  0.8771560E+02  0.7546771E-02  0.1308480E+00
         -1   -1    0    0    0  501 -0.00000000000E+00  0.00000000000E+00  0.23528743859E+03  0.23528743859E+03  0.00000000000E+00 0.  1.
          1   -1    0    0  501    0  0.00000000000E+00 -0.00000000000E+00 -0.93571500308E+02  0.93571500308E+02  0.00000000000E+00 0. -1.
         24    1    1    2    0    0 -0.14652536172E+01 -0.34995201710E+02  0.20347916023E+03  0.22158022410E+03  0.80419002446E+02 0.  1.
        -24    1    1    2    0    0  0.14652536172E+01  0.34995201710E+02 -0.61763221940E+02  0.10727871480E+03  0.80419002446E+02 0. -1.
<mgrwt>
<rscale>  0 0.87715603E+02</rscale>
<asrwt>0</asrwt>
<pdfrwt beam="1">  1        1 0.14395615E-01 0.87715603E+02</pdfrwt>
<pdfrwt beam="2">  1       -1 0.36198067E-01 0.87715603E+02</pdfrwt>
<totfact> 0.27377488E+03</totfact>
</mgrwt>
</event>
<event>
 4    1  0.6602701E-002  0.1384018E+03  0.7546771E-02  0.1215496E+00
          2   -1    0    0  501    0  0.00000000000E+00  0.00000000000E+00  0.96257947424E+03  0.96257947424E+03  0.00000000000E+00 0. -1.
         -2   -1    0    0    0  501 -0.00000000000E+00 -0.00000000000E+00 -0.48248109387E+02  0.48248109387E+02  0.00000000000E+00 0.  1.
         24    1    1    2    0    0 -0.72046117584E+02  0.86586321467E+02  0.84457604086E+03  0.85584095419E+03  0.80419002446E+02 0. -1.
        -24    1    1    2    0    0  0.72046117584E+02 -0.86586321467E+02  0.69755323996E+02  0.15498662944E+03  0.80419002446E+02 0.  1.
<mgrwt>
<rscale>  0 0.13840177E+03</rscale>
<asrwt>0</asrwt>
<pdfrwt beam="1">  1        2 0.14808914E+00 0.13840177E+03</pdfrwt>
<pdfrwt beam="2">  1       -2 0.74227868E-02 0.13840177E+03</pdfrwt>
<totfact> 0.29029204E+03</totfact>
</mgrwt>
</event>
<event>
 4    1  0.6602701E-002  0.9621639E+02  0.7546771E-02  0.1288460E+00
          1   -1    0    0  501    0  0.00000000000E+00  0.00000000000E+00  0.36317626852E+03  0.36317626852E+03  0.00000000000E+00 0. -1.
         -1   -1    0    0    0  501 -0.00000000000E+00 -0.00000000000E+00 -0.25507385318E+02  0.25507385318E+02  0.00000000000E+00 0.  1.
         24    1    1    2    0    0  0.52821602019E+02 -0.50230497906E+00  0.17381617332E+03  0.19866970582E+03  0.80419002446E+02 0.  1.
        -24    1    1    2    0    0 -0.52821602019E+02  0.50230497906E+00  0.16385270988E+03  0.19001394802E+03  0.80419002446E+02 0. -1.
<mgrwt>
<rscale>  0 0.96216382E+02</rscale>
<asrwt>0</asrwt>
<pdfrwt beam="1">  1        1 0.55873268E-01 0.96216394E+02</pdfrwt>
<pdfrwt beam="2">  1       -1 0.39242134E-02 0.96216394E+02</pdfrwt>
<totfact> 0.15817978E+04</totfact>
</mgrwt>
</event>
<event>
 4    1  0.6602701E-002  0.1069064E+03  0.7546771E-02  0.1266408E+00
         -1   -1    0    0    0  501 -0.00000000000E+00  0.00000000000E+00  0.15245681568E+03  0.15245681568E+03  0.00000000000E+00 0.  1.
          1   -1    0    0  501    0  0.00000000000E+00 -0.00000000000E+00 -0.12776151307E+03  0.12776151307E+03  0.00000000000E+00 0. -1.
         24    1    1    2    0    0  0.62956293717E+02 -0.31595275352E+02  0.10241510170E+03  0.14804669991E+03  0.80419002446E+02 0.  1.
        -24    1    1    2    0    0 -0.62956293717E+02  0.31595275352E+02 -0.77719799097E+02  0.13217162884E+03  0.80419002446E+02 0. -1.
<mgrwt>
<rscale>  0 0.10690637E+03</rscale>
<asrwt>0</asrwt>
<pdfrwt beam="1">  1        1 0.19655618E-01 0.10690637E+03</pdfrwt>
<pdfrwt beam="2">  1       -1 0.23454895E-01 0.10690637E+03</pdfrwt>
<totfact> 0.38315998E+03</totfact>
</mgrwt>
</event>
<event>
 4    1  0.6602701E-002  0.1964083E+03  0.7546771E-02  0.1152805E+00
         -1   -1    0    0    0  501 -0.00000000000E+00  0.00000000000E+00  0.72496158865E+02  0.72496158865E+02  0.00000000000E+00 0.  1.
          1   -1    0    0  501    0  0.00000000000E+00 -0.00000000000E+00 -0.10155459032E+04  0.10155459032E+04  0.00000000000E+00 0. -1.
         24    1    1    2    0    0  0.17847738210E+03  0.15962759269E+02 -0.96177236460E+02  0.21869216349E+03  0.80419002446E+02 0.  1.
        -24    1    1    2    0    0 -0.17847738210E+03 -0.15962759269E+02 -0.84687250791E+03  0.86934989861E+03  0.80419002446E+02 0. -1.
<mgrwt>
<rscale>  0 0.19640825E+03</rscale>
<asrwt>0</asrwt>
<pdfrwt beam="1">  1        1 0.15623782E+00 0.19640825E+03</pdfrwt>
<pdfrwt beam="2">  1       -1 0.11153256E-01 0.19640825E+03</pdfrwt>
<totfact> 0.80537755E+02</totfact>
</mgrwt>
</event>
<event>
 4    1  0.6602701E-002  0.8787178E+02  0.7546771E-02  0.1308089E+00
          2   -1    0    0  501    0  0.00000000000E+00  0.00000000000E+00  0.10606459055E+04  0.10606459055E+04  0.00000000000E+00 0. -1.
         -2   -1    0    0    0  501 -0.00000000000E+00 -0.00000000000E+00 -0.76872410889E+01  0.76872410889E+01  0.00000000000E+00 0.  1.
         24    1    1    2    0    0  0.15172132035E+02  0.32000631410E+02  0.64943357254E+03  0.65535136767E+03  0.80419002446E+02 0. -1.
        -24    1    1    2    0    0 -0.15172132035E+02 -0.32000631410E+02  0.40352509188E+03  0.41298177893E+03  0.80419002446E+02 0.  1.
<mgrwt>
<rscale>  0 0.87871781E+02</rscale>
<asrwt>0</asrwt>
<pdfrwt beam="1">  1        2 0.16317618E+00 0.87871781E+02</pdfrwt>
<pdfrwt beam="2">  1       -2 0.11826533E-02 0.87871781E+02</pdfrwt>
<totfact> 0.36538424E+04</totfact>
</mgrwt>
</event>
<event>
 4    1  0.6602701E-002  0.9796725E+02  0.7546771E-02  0.1284630E+00
          1   -1    0    0  501    0  0.00000000000E+00  0.00000000000E+00  0.40555925825E+03  0.40555925825E+03  0.00000000000E+00 0. -1.
         -1   -1    0    0    0  501 -0.00000000000E+00 -0.00000000000E+00 -0.23980838626E+02  0.23980838626E+02  0.00000000000E+00 0.  1.
         24    1    1    2    0    0 -0.34037538024E+02  0.44405088698E+02  0.16614375451E+03  0.19287646050E+03  0.80419002446E+02 0.  1.
        -24    1    1    2    0    0  0.34037538024E+02 -0.44405088698E+02  0.21543466511E+03  0.23666363637E+03  0.80419002446E+02 0. -1.
<mgrwt>
<rscale>  0 0.97967249E+02</rscale>
<asrwt>0</asrwt>
<pdfrwt beam="1">  1        1 0.62393727E-01 0.97967249E+02</pdfrwt>
<pdfrwt beam="2">  1       -1 0.36893601E-02 0.97967249E+02</pdfrwt>
<totfact> 0.15112328E+04</totfact>
</mgrwt>
</event>
<event>
 4    1  0.6602701E-002  0.9471379E+02  0.7546771E-02  0.1291822E+00
          2   -1    0    0  501    0  0.00000000000E+00  0.00000000000E+00  0.14676343144E+03  0.14676343144E+03  0.00000000000E+00 0. -1.
         -2   -1    0    0    0  501 -0.00000000000E+00 -0.00000000000E+00 -0.11902620868E+03  0.11902620868E+03  0.00000000000E+00 0.  1.
         24    1    1    2    0    0  0.65717743086E+01 -0.49601393516E+02  0.10655927552E+03  0.14256781408E+03  0.80419002446E+02 0. -1.
        -24    1    1    2    0    0 -0.65717743086E+01  0.49601393516E+02 -0.78822052768E+02  0.12322182604E+03  0.80419002446E+02 0.  1.
<mgrwt>
<rscale>  0 0.94713792E+02</rscale>
<asrwt>0</asrwt>
<pdfrwt beam="1">  1        2 0.22578989E-01 0.94713792E+02</pdfrwt>
<pdfrwt beam="2">  1       -2 0.18311724E-01 0.94713792E+02</pdfrwt>
<totfact> 0.54832806E+03</totfact>
</mgrwt>
</event>
<event>
 4    1  0.6602701E-002  0.1049444E+03  0.7546771E-02  0.1270229E+00
         -2   -1    0    0    0  501 -0.00000000000E+00  0.00000000000E+00  0.13098028931E+02  0.13098028931E+02  0.00000000000E+00 0.  1.
          2   -1    0    0  501    0  0.00000000000E+00 -0.00000000000E+00 -0.84543957477E+03  0.84543957477E+03  0.00000000000E+00 0. -1.
         24    1    1    2    0    0  0.38217768163E+02 -0.55547383220E+02 -0.44783894114E+03  0.45997069770E+03  0.80419002446E+02 0.  1.
        -24    1    1    2    0    0 -0.38217768163E+02  0.55547383220E+02 -0.38450260470E+03  0.39856690600E+03  0.80419002446E+02 0. -1.
<mgrwt>
<rscale>  0 0.10494439E+03</rscale>
<asrwt>0</asrwt>
<pdfrwt beam="1">  1        2 0.13006760E+00 0.10494439E+03</pdfrwt>
<pdfrwt beam="2">  1       -2 0.20150818E-02 0.10494439E+03</pdfrwt>
<totfact> 0.23394720E+04</totfact>
</mgrwt>
</event>
<event>
 4    1  0.6602701E-002  0.1097384E+03  0.7546771E-02  0.1261055E+00
         -2   -1    0    0    0  501 -0.00000000000E+00  0.00000000000E+00  0.39582448795E+02  0.39582448795E+02  0.00000000000E+00 0.  1.
          2   -1    0    0  501    0  0.00000000000E+00 -0.00000000000E+00 -0.35520564233E+03  0.35520564233E+03  0.00000000000E+00 0. -1.
         24    1    1    2    0    0 -0.64210644761E+02 -0.38109004782E+02 -0.83039815325E+02  0.13761587855E+03  0.80419002446E+02 0.  0.
        -24    1    1    2    0    0  0.64210644761E+02  0.38109004782E+02 -0.23258337821E+03  0.25717221258E+03  0.80419002446E+02 0.  0.
<mgrwt>
<rscale>  0 0.10973843E+03</rscale>
<asrwt>0</asrwt>
<pdfrwt beam="1">  1        2 0.54647023E-01 0.10973844E+03</pdfrwt>
<pdfrwt beam="2">  1       -2 0.60896074E-02 0.10973844E+03</pdfrwt>
<totfact> 0.12209253E+04</totfact>
</mgrwt>
</event>
<event>
 4    1  0.6602701E-002  0.9049400E+02  0.7546771E-02  0.1301660E+00
          1   -1    0    0  501    0  0.00000000000E+00  0.00000000000E+00  0.29408898417E+03  0.29408898417E+03  0.00000000000E+00 0. -1.
         -1   -1    0    0    0  501 -0.00000000000E+00 -0.00000000000E+00 -0.29684549906E+02  0.29684549906E+02  0.00000000000E+00 0.  1.
         24    1    1    2    0    0 -0.37884873774E+02 -0.16931770001E+02  0.91912070492E+02  0.12898446865E+03  0.80419002446E+02 0.  1.
        -24    1    1    2    0    0  0.37884873774E+02  0.16931770001E+02  0.17249236377E+03  0.19478906543E+03  0.80419002446E+02 0. -1.
<mgrwt>
<rscale>  0 0.90494002E+02</rscale>
<asrwt>0</asrwt>
<pdfrwt beam="1">  1        1 0.45244457E-01 0.90494002E+02</pdfrwt>
<pdfrwt beam="2">  1       -1 0.45668540E-02 0.90494002E+02</pdfrwt>
<totfact> 0.16333631E+04</totfact>
</mgrwt>
</event>
<event>
 4    1  0.6602701E-002  0.9512106E+02  0.7546771E-02  0.1290904E+00
          1   -1    0    0  501    0  0.00000000000E+00  0.00000000000E+00  0.10160284204E+02  0.10160284204E+02  0.00000000000E+00 0. -1.
         -1   -1    0    0    0  501 -0.00000000000E+00 -0.00000000000E+00 -0.10134650917E+04  0.10134650917E+04  0.00000000000E+00 0.  1.
         24    1    1    2    0    0  0.89219890108E+01  0.50011977444E+02 -0.67991016117E+03  0.68653174945E+03  0.80419002446E+02 0.  1.
        -24    1    1    2    0    0 -0.89219890108E+01 -0.50011977444E+02 -0.32339464636E+03  0.33709362649E+03  0.80419002446E+02 0. -1.
<mgrwt>
<rscale>  0 0.95121058E+02</rscale>
<asrwt>0</asrwt>
<pdfrwt beam="1">  1        1 0.15631205E-02 0.95121058E+02</pdfrwt>
<pdfrwt beam="2">  1       -1 0.15591772E+00 0.95121058E+02</pdfrwt>
<totfact> 0.27572980E+03</totfact>
</mgrwt>
</event>
<event>
 4    1  0.6602701E-002  0.8805425E+02  0.7546771E-02  0.1307633E+00
         -2   -1    0    0    0  501 -0.00000000000E+00  0.00000000000E+00  0.52589534188E+01  0.52589534188E+01  0.00000000000E+00 0.  1.
          2   -1    0    0  501    0  0.00000000000E+00 -0.00000000000E+00 -0.14892729956E+04  0.14892729956E+04  0.00000000000E+00 0. -1.
         24    1    1    2    0    0 -0.12463056895E+02 -0.33630380009E+02 -0.66720845227E+03  0.67299380754E+03  0.80419002446E+02 0.  1.
        -24    1    1    2    0    0  0.12463056895E+02  0.33630380009E+02 -0.81680558991E+03  0.82153814148E+03  0.80419002446E+02 0. -1.
<mgrwt>
<rscale>  0 0.88054234E+02</rscale>
<asrwt>0</asrwt>
<pdfrwt beam="1">  1        2 0.22911874E+00 0.88054245E+02</pdfrwt>
<pdfrwt beam="2">  1       -2 0.80907041E-03 0.88054245E+02</pdfrwt>
<totfact> 0.36893726E+04</totfact>
</mgrwt>
</event>
<event>
 4    1  0.6602701E-002  0.8836101E+02  0.7546771E-02  0.1306870E+00
         -2   -1    0    0    0  501 -0.00000000000E+00  0.00000000000E+00  0.91562778211E+01  0.91562778211E+01  0.00000000000E+00 0.  1.
          2   -1    0    0  501    0  0.00000000000E+00 -0.00000000000E+00 -0.10664809530E+04  0.10664809530E+04  0.00000000000E+00 0. -1.
         24    1    1    2    0    0 -0.22366428788E+02 -0.28986127539E+02 -0.76944849450E+03  0.77450542565E+03  0.80419002446E+02 0.  1.
        -24    1    1    2    0    0  0.22366428788E+02  0.28986127539E+02 -0.28787618070E+03  0.30113180519E+03  0.80419002446E+02 0.  1.
<mgrwt>
<rscale>  0 0.88361013E+02</rscale>
<asrwt>0</asrwt>
<pdfrwt beam="1">  1        2 0.16407404E+00 0.88361013E+02</pdfrwt>
<pdfrwt beam="2">  1       -2 0.14086577E-02 0.88361013E+02</pdfrwt>
<totfact> 0.28297925E+04</totfact>
</mgrwt>
</event>
<event>
 4    1  0.7037735E-002  0.1144129E+03  0.7546771E-02  0.1252609E+00
         -1   -1    0    0    0  501 -0.00000000000E+00  0.00000000000E+00  0.10373234489E+02  0.10373234489E+02  0.00000000000E+00 0.  1.
          1   -1    0    0  501    0  0.00000000000E+00 -0.00000000000E+00 -0.22675136543E+04  0.22675136543E+04  0.00000000000E+00 0. -1.
         24    1    1    2    0    0 -0.26200159921E+02 -0.77049699864E+02 -0.37010478076E+03  0.38738594363E+03  0.80419002446E+02 0.  1.
        -24    1    1    2    0    0  0.26200159921E+02  0.77049699864E+02 -0.18870356390E+04  0.18905009451E+04  0.80419002446E+02 0. -1.
<mgrwt>
<rscale>  0 0.11441294E+03</rscale>
<asrwt>0</asrwt>
<pdfrwt beam="1">  1        1 0.34884782E+00 0.11441294E+03</pdfrwt>
<pdfrwt beam="2">  1       -1 0.15958842E-02 0.11441294E+03</pdfrwt>
<totfact> 0.21619144E+03</totfact>
</mgrwt>
</event>
<event>
 4    1  0.6602701E-002  0.8250330E+02  0.7546771E-02  0.1322094E+00
          2   -1    0    0  501    0  0.00000000000E+00  0.00000000000E+00  0.71255496288E+02  0.71255496288E+02  0.00000000000E+00 0. -1.
         -2   -1    0    0    0  501 -0.00000000000E+00 -0.00000000000E+00 -0.11186542307E+03  0.11186542307E+03  0.00000000000E+00 0.  1.
         24    1    1    2    0    0  0.51301383714E+01  0.17699166572E+02  0.14687177285E+02  0.83800405417E+02  0.80419002446E+02 0. -1.
        -24    1    1    2    0    0 -0.51301383714E+01 -0.17699166572E+02 -0.55297104067E+02  0.99320513942E+02  0.80419002446E+02 0.  1.
<mgrwt>
<rscale>  0 0.82503302E+02</rscale>
<asrwt>0</asrwt>
<pdfrwt beam="1">  1        2 0.10962384E-01 0.82503302E+02</pdfrwt>
<pdfrwt beam="2">  1       -2 0.17210065E-01 0.82503302E+02</pdfrwt>
<totfact> 0.13755823E+04</totfact>
</mgrwt>
</event>
<event>
 4    1  0.6602701E-002  0.1619319E+03  0.7546771E-02  0.1186533E+00
          2   -1    0    0  501    0  0.00000000000E+00  0.00000000000E+00  0.47856229361E+03  0.47856229361E+03  0.00000000000E+00 0. -1.
         -2   -1    0    0    0  501 -0.00000000000E+00 -0.00000000000E+00 -0.16043141659E+03  0.16043141659E+03  0.00000000000E+00 0.  1.
         24    1    1    2    0    0  0.28864778665E+02  0.13755566851E+03  0.41832359894E+03  0.44857171865E+03  0.80419002446E+02 0. -1.
        -24    1    1    2    0    0 -0.28864778665E+02 -0.13755566851E+03 -0.10019272193E+03  0.19042199155E+03  0.80419002446E+02 0.  1.
<mgrwt>
<rscale>  0 0.16193194E+03</rscale>
<asrwt>0</asrwt>
<pdfrwt beam="1">  1        2 0.73624968E-01 0.16193194E+03</pdfrwt>
<pdfrwt beam="2">  1       -2 0.24681757E-01 0.16193194E+03</pdfrwt>
<totfact> 0.94946029E+02</totfact>
</mgrwt>
</event>
<event>
 4    1  0.6602701E-002  0.9031659E+02  0.7546771E-02  0.1302087E+00
         -1   -1    0    0    0  501 -0.00000000000E+00  0.00000000000E+00  0.27295913971E+02  0.27295913971E+02  0.00000000000E+00 0.  1.
          1   -1    0    0  501    0  0.00000000000E+00 -0.00000000000E+00 -0.89105025969E+03  0.89105025969E+03  0.00000000000E+00 0. -1.
         24    1    1    2    0    0  0.38135452232E+02  0.15347878606E+02 -0.57539425693E+02  0.10708814854E+03  0.80419002446E+02 0.  1.
        -24    1    1    2    0    0 -0.38135452232E+02 -0.15347878606E+02 -0.80621492002E+03  0.81125802512E+03  0.80419002446E+02 0. -1.
<mgrwt>
<rscale>  0 0.90316588E+02</rscale>
<asrwt>0</asrwt>
<pdfrwt beam="1">  1        1 0.13708464E+00 0.90316588E+02</pdfrwt>
<pdfrwt beam="2">  1       -1 0.41993717E-02 0.90316588E+02</pdfrwt>
<totfact> 0.42594477E+03</totfact>
</mgrwt>
</event>
<event>
 4    1  0.6602701E-002  0.8545336E+02  0.7546771E-02  0.1314251E+00
         -1   -1    0    0    0  501 -0.00000000000E+00  0.00000000000E+00  0.27248382717E+02  0.27248382717E+02  0.00000000000E+00 0.  1.
          1   -1    0    0  501    0  0.00000000000E+00 -0.00000000000E+00 -0.32234341578E+03  0.32234341578E+03  0.00000000000E+00 0. -1.
         24    1    1    2    0    0 -0.27822214823E+02  0.78093192892E+01 -0.75770111206E+02  0.11420764778E+03  0.80419002446E+02 0.  0.
        -24    1    1    2    0    0  0.27822214823E+02 -0.78093192892E+01 -0.21932492185E+03  0.23538415071E+03  0.80419002446E+02 0.  0.
<mgrwt>
<rscale>  0 0.85453362E+02</rscale>
<asrwt>0</asrwt>
<pdfrwt beam="1">  1        1 0.49591295E-01 0.85453362E+02</pdfrwt>
<pdfrwt beam="2">  1       -1 0.41920589E-02 0.85453362E+02</pdfrwt>
<totfact> 0.16443517E+04</totfact>
</mgrwt>
</event>
<event>
 4    1  0.6602701E-002  0.8377506E+02  0.7546771E-02  0.1318667E+00
         -2   -1    0    0    0  501 -0.00000000000E+00  0.00000000000E+00  0.10696098038E+04  0.10696098038E+04  0.00000000000E+00 0.  1.
          2   -1    0    0  501    0  0.00000000000E+00 -0.00000000000E+00 -0.83016093013E+01  0.83016093013E+01  0.00000000000E+00 0. -1.
         24    1    1    2    0    0 -0.74628346360E+01 -0.22256466788E+02  0.28390339792E+03  0.29600574237E+03  0.80419002446E+02 0. -1.
        -24    1    1    2    0    0  0.74628346360E+01  0.22256466788E+02  0.77740479663E+03  0.78190567078E+03  0.80419002446E+02 0.  1.
<mgrwt>
<rscale>  0 0.83775057E+02</rscale>
<asrwt>0</asrwt>
<pdfrwt beam="1">  1        2 0.12771715E-02 0.83775057E+02</pdfrwt>
<pdfrwt beam="2">  1       -2 0.16455525E+00 0.83775057E+02</pdfrwt>
<totfact> 0.23233316E+03</totfact>
</mgrwt>
</event>
<event>
 4    1  0.6602701E-002  0.9573061E+02  0.7546771E-02  0.1289539E+00
          2   -1    0    0  501    0  0.00000000000E+00  0.00000000000E+00  0.23289215169E+04  0.23289215169E+04  0.00000000000E+00 0. -1.
         -2   -1    0    0    0  501 -0.00000000000E+00 -0.00000000000E+00 -0.64401365258E+01  0.64401365258E+01  0.00000000000E+00 0.  1.
         24    1    1    2    0    0 -0.42848650090E+02  0.29344957824E+02  0.18895078150E+04  0.18919313234E+04  0.80419002446E+02 0. -1.
        -24    1    1    2    0    0  0.42848650090E+02 -0.29344957824E+02  0.43297356529E+03  0.44343032999E+03  0.80419002446E+02 0.  1.
<mgrwt>
<rscale>  0 0.95730608E+02</rscale>
<asrwt>0</asrwt>
<pdfrwt beam="1">  1        2 0.35829494E+00 0.95730608E+02</pdfrwt>
<pdfrwt beam="2">  1       -2 0.99079210E-03 0.95730608E+02</pdfrwt>
<totfact> 0.10480235E+04</totfact>
</mgrwt>
</event>
<event>
 4    1  0.6602701E-002  0.8703058E+02  0.7546771E-02  0.1310206E+00
         -3   -1    0    0    0  501 -0.00000000000E+00  0.00000000000E+00  0.28907948279E+03  0.28907948279E+03  0.00000000000E+00 0.  1.
          3   -1    0    0  501    0  0.00000000000E+00 -0.00000000000E+00 -0.39461787683E+02  0.39461787683E+02  0.00000000000E+00 0. -1.
         24    1    1    2    0    0 -0.18268434687E+02 -0.27809538978E+02  0.22003312570E+03  0.23661973401E+03  0.80419002446E+02 0.  1.
        -24    1    1    2    0    0  0.18268434687E+02  0.27809538978E+02  0.29584569409E+02  0.91921536462E+02  0.80419002446E+02 0. -1.
<mgrwt>
<rscale>  0 0.87030582E+02</rscale>
<asrwt>0</asrwt>
<pdfrwt beam="1">  1        3 0.60710444E-02 0.87030582E+02</pdfrwt>
<pdfrwt beam="2">  1       -3 0.44473765E-01 0.87030582E+02</pdfrwt>
<totfact> 0.17788277E+03</totfact>
</mgrwt>
</event>
<event>
 4    1  0.6602701E-002  0.9468106E+02  0.7546771E-02  0.1291896E+00
          1   -1    0    0  501    0  0.00000000000E+00  0.00000000000E+00  0.58513105448E+02  0.58513105448E+02  0.00000000000E+00 0. -1.
         -1   -1    0    0    0  501 -0.00000000000E+00 -0.00000000000E+00 -0.51439637045E+03  0.51439637045E+03  0.00000000000E+00 0.  1.
         24    1    1    2    0    0  0.25768476518E+02  0.42816730331E+02 -0.46797726723E+03  0.47745913477E+03  0.80419002446E+02 0.  1.
        -24    1    1    2    0    0 -0.25768476518E+02 -0.42816730331E+02  0.12094002222E+02  0.95450341133E+02  0.80419002446E+02 0. -1.
<mgrwt>
<rscale>  0 0.94681058E+02</rscale>
<asrwt>0</asrwt>
<pdfrwt beam="1">  1        1 0.90020159E-02 0.94681058E+02</pdfrwt>
<pdfrwt beam="2">  1       -1 0.79137906E-01 0.94681058E+02</pdfrwt>
<totfact> 0.11971149E+03</totfact>
</mgrwt>
</event>
<event>
 4    1  0.6602701E-002  0.8215199E+02  0.7546771E-02  0.1323053E+00
         -2   -1    0    0    0  501 -0.00000000000E+00  0.00000000000E+00  0.35113155911E+01  0.35113155911E+01  0.00000000000E+00 0.  1.
          2   -1    0    0  501    0  0.00000000000E+00 -0.00000000000E+00 -0.21079837515E+04  0.21079837515E+04  0.00000000000E+00 0. -1.
         24    1    1    2    0    0  0.15995342309E+02 -0.50874229250E+01 -0.13657793963E+04  0.13682478972E+04  0.80419002446E+02 0.  0.
        -24    1    1    2    0    0 -0.15995342309E+02  0.50874229250E+01 -0.73869303955E+03  0.74324716985E+03  0.80419002446E+02 0.  0.
<mgrwt>
<rscale>  0 0.82151986E+02</rscale>
<asrwt>0</asrwt>
<pdfrwt beam="1">  1        2 0.32430512E+00 0.82151986E+02</pdfrwt>
<pdfrwt beam="2">  1       -2 0.54020253E-03 0.82151986E+02</pdfrwt>
<totfact> 0.31633717E+04</totfact>
</mgrwt>
</event>
<event>
 4    1  0.6602701E-002  0.1283497E+03  0.7546771E-02  0.1229925E+00
         -1   -1    0    0    0  501 -0.00000000000E+00  0.00000000000E+00  0.43403984791E+02  0.43403984791E+02  0.00000000000E+00 0.  1.
          1   -1    0    0  501    0  0.00000000000E+00 -0.00000000000E+00 -0.46100555084E+03  0.46100555084E+03  0.00000000000E+00 0. -1.
         24    1    1    2    0    0 -0.97277056695E+02 -0.23315371751E+02 -0.10278242345E+03  0.16443197634E+03  0.80419002446E+02 0.  1.
        -24    1    1    2    0    0  0.97277056695E+02  0.23315371751E+02 -0.31481914260E+03  0.33997755929E+03  0.80419002446E+02 0. -1.
<mgrwt>
<rscale>  0 0.12834971E+03</rscale>
<asrwt>0</asrwt>
<pdfrwt beam="1">  1        1 0.70923933E-01 0.12834971E+03</pdfrwt>
<pdfrwt beam="2">  1       -1 0.66775359E-02 0.12834971E+03</pdfrwt>
<totfact> 0.54760613E+03</totfact>
</mgrwt>
</event>
<event>
 4    1  0.6602701E-002  0.8359230E+02  0.7546771E-02  0.1319155E+00
         -2   -1    0    0    0  501 -0.00000000000E+00  0.00000000000E+00  0.22765455207E+02  0.22765455207E+02  0.00000000000E+00 0.  1.
          2   -1    0    0  501    0  0.00000000000E+00 -0.00000000000E+00 -0.24844378988E+04  0.24844378988E+04  0.00000000000E+00 0. -1.
         24    1    1    2    0    0  0.18719391234E+02 -0.13039965338E+02 -0.24044472280E+04  0.24058998617E+04  0.80419002446E+02 0. -1.
        -24    1    1    2    0    0 -0.18719391234E+02  0.13039965338E+02 -0.57225215629E+02  0.10130349235E+03  0.80419002446E+02 0.  1.
<mgrwt>
<rscale>  0 0.83592298E+02</rscale>
<asrwt>0</asrwt>
<pdfrwt beam="1">  1        2 0.38222109E+00 0.83592298E+02</pdfrwt>
<pdfrwt beam="2">  1       -2 0.35023788E-02 0.83592298E+02</pdfrwt>
<totfact> 0.14210316E+03</totfact>
</mgrwt>
</event>
<event>
 4    1  0.6602701E-002  0.1262696E+03  0.7546771E-02  0.1233098E+00
         -2   -1    0    0    0  501 -0.00000000000E+00  0.00000000000E+00  0.71108419360E+01  0.71108419360E+01  0.00000000000E+00 0.  1.
          2   -1    0    0  501    0  0.00000000000E+00 -0.00000000000E+00 -0.25528779437E+04  0.25528779437E+04  0.00000000000E+00 0. -1.
         24    1    1    2    0    0  0.63806354487E+02  0.73522404340E+02 -0.17194029101E+04  0.17240331720E+04  0.80419002446E+02 0. -1.
        -24    1    1    2    0    0 -0.63806354487E+02 -0.73522404340E+02 -0.82636419164E+03  0.83595561365E+03  0.80419002446E+02 0.  1.
<mgrwt>
<rscale>  0 0.12626960E+03</rscale>
<asrwt>0</asrwt>
<pdfrwt beam="1">  1        2 0.39275031E+00 0.12626960E+03</pdfrwt>
<pdfrwt beam="2">  1       -2 0.10939761E-02 0.12626960E+03</pdfrwt>
<totfact> 0.69844544E+03</totfact>
</mgrwt>
</event>
<event>
 4    1  0.6602701E-002  0.2050513E+03  0.7546771E-02  0.1145546E+00
          2   -1    0    0  501    0  0.00000000000E+00  0.00000000000E+00  0.30958910340E+03  0.30958910340E+03  0.00000000000E+00 0. -1.
         -2   -1    0    0    0  501 -0.00000000000E+00 -0.00000000000E+00 -0.16744677354E+03  0.16744677354E+03  0.00000000000E+00 0.  1.
         24    1    1    2    0    0  0.16797452601E+03  0.85810180691E+02  0.17474332723E+03  0.26940912172E+03  0.80419002446E+02 0. -1.
        -24    1    1    2    0    0 -0.16797452601E+03 -0.85810180691E+02 -0.32600997366E+02  0.20762675522E+03  0.80419002446E+02 0.  1.
<mgrwt>
<rscale>  0 0.20505132E+03</rscale>
<asrwt>0</asrwt>
<pdfrwt beam="1">  1        2 0.47629093E-01 0.20505132E+03</pdfrwt>
<pdfrwt beam="2">  1       -2 0.25761042E-01 0.20505132E+03</pdfrwt>
<totfact> 0.14149578E+03</totfact>
</mgrwt>
</event>
<event>
 4    1  0.6602701E-002  0.8496187E+02  0.7546771E-02  0.1315532E+00
         -2   -1    0    0    0  501 -0.00000000000E+00  0.00000000000E+00  0.49860478784E+01  0.49860478784E+01  0.00000000000E+00 0.  1.
          2   -1    0    0  501    0  0.00000000000E+00 -0.00000000000E+00 -0.24281298526E+04  0.24281298526E+04  0.00000000000E+00 0. -1.
         24    1    1    2    0    0  0.22467911145E+02  0.15700214547E+02 -0.19846002444E+04  0.19864180451E+04  0.80419002446E+02 0.  1.
        -24    1    1    2    0    0 -0.22467911145E+02 -0.15700214547E+02 -0.43854356026E+03  0.44669785534E+03  0.80419002446E+02 0. -1.
<mgrwt>
<rscale>  0 0.84961872E+02</rscale>
<asrwt>0</asrwt>
<pdfrwt beam="1">  1        2 0.37355830E+00 0.84961872E+02</pdfrwt>
<pdfrwt beam="2">  1       -2 0.76708457E-03 0.84961872E+02</pdfrwt>
<totfact> 0.13306556E+04</totfact>
</mgrwt>
</event>
<event>
 4    1  0.6602701E-002  0.1317336E+03  0.7546771E-02  0.1224906E+00
         -2   -1    0    0    0  501 -0.00000000000E+00  0.00000000000E+00  0.37653860576E+02  0.37653860576E+02  0.00000000000E+00 0.  1.
          2   -1    0    0  501    0  0.00000000000E+00 -0.00000000000E+00 -0.46919892093E+03  0.46919892093E+03  0.00000000000E+00 0. -1.
         24    1    1    2    0    0 -0.82972719246E+02  0.63261812571E+02 -0.18201877890E+03  0.22468774086E+03  0.80419002446E+02 0.  1.
        -24    1    1    2    0    0  0.82972719246E+02 -0.63261812571E+02 -0.24952628146E+03  0.28216504065E+03  0.80419002446E+02 0.  0.
<mgrwt>
<rscale>  0 0.13173363E+03</rscale>
<asrwt>0</asrwt>
<pdfrwt beam="1">  1        2 0.72184450E-01 0.13173365E+03</pdfrwt>
<pdfrwt beam="2">  1       -2 0.57929016E-02 0.13173365E+03</pdfrwt>
<totfact> 0.99204085E+03</totfact>
</mgrwt>
</event>
<event>
 4    1  0.6602701E-002  0.8623020E+02  0.7546771E-02  0.1312246E+00
          2   -1    0    0  501    0  0.00000000000E+00  0.00000000000E+00  0.51273574832E+02  0.51273574832E+02  0.00000000000E+00 0. -1.
         -2   -1    0    0    0  501 -0.00000000000E+00 -0.00000000000E+00 -0.25333651382E+03  0.25333651382E+03  0.00000000000E+00 0.  1.
         24    1    1    2    0    0 -0.31111034146E+02 -0.73099689499E+00 -0.14417361588E+01  0.86242248113E+02  0.80419002446E+02 0. -1.
        -24    1    1    2    0    0  0.31111034146E+02  0.73099689499E+00 -0.20062120283E+03  0.21836784054E+03  0.80419002446E+02 0.  1.
<mgrwt>
<rscale>  0 0.86230196E+02</rscale>
<asrwt>0</asrwt>
<pdfrwt beam="1">  1        2 0.78882423E-02 0.86230196E+02</pdfrwt>
<pdfrwt beam="2">  1       -2 0.38974848E-01 0.86230196E+02</pdfrwt>
<totfact> 0.49663633E+03</totfact>
</mgrwt>
</event>
<event>
 4    1  0.6602701E-002  0.8048865E+02  0.7546771E-02  0.1327670E+00
          1   -1    0    0  501    0  0.00000000000E+00  0.00000000000E+00  0.91688772560E+02  0.91688772560E+02  0.00000000000E+00 0. -1.
         -1   -1    0    0    0  501 -0.00000000000E+00 -0.00000000000E+00 -0.79385527613E+02  0.79385527613E+02  0.00000000000E+00 0.  1.
         24    1    1    2    0    0  0.24197129276E+01  0.23132287969E+01 -0.22212096930E+02  0.83497300810E+02  0.80419002446E+02 0.  0.
        -24    1    1    2    0    0 -0.24197129276E+01 -0.23132287969E+01  0.34515341878E+02  0.87576999363E+02  0.80419002446E+02 0. -1.
<mgrwt>
<rscale>  0 0.80488645E+02</rscale>
<asrwt>0</asrwt>
<pdfrwt beam="1">  1        1 0.14105965E-01 0.80488645E+02</pdfrwt>
<pdfrwt beam="2">  1       -1 0.12213158E-01 0.80488645E+02</pdfrwt>
<totfact> 0.15857708E+04</totfact>
</mgrwt>
</event>
<event>
 4    1  0.6602701E-002  0.2115413E+03  0.7546771E-02  0.1140351E+00
         -1   -1    0    0    0  501 -0.00000000000E+00  0.00000000000E+00  0.89531484430E+02  0.89531484430E+02  0.00000000000E+00 0.  1.
          1   -1    0    0  501    0  0.00000000000E+00 -0.00000000000E+00 -0.49983292978E+03  0.49983292978E+03  0.00000000000E+00 0. -1.
         24    1    1    2    0    0 -0.13822572273E+03  0.13847805908E+03 -0.20372675562E+03  0.29369087521E+03  0.80419002446E+02 0. -1.
        -24    1    1    2    0    0  0.13822572273E+03 -0.13847805908E+03 -0.20657468973E+03  0.29567353900E+03  0.80419002446E+02 0.  1.
<mgrwt>
<rscale>  0 0.21154134E+03</rscale>
<asrwt>0</asrwt>
<pdfrwt beam="1">  1        1 0.76897374E-01 0.21154134E+03</pdfrwt>
<pdfrwt beam="2">  1       -1 0.13774075E-01 0.21154134E+03</pdfrwt>
<totfact> 0.16558267E+03</totfact>
</mgrwt>
</event>
<event>
 4    1  0.6602701E-002  0.1046532E+03  0.7546771E-02  0.1270804E+00
          3   -1    0    0  501    0  0.00000000000E+00  0.00000000000E+00  0.20482029082E+02  0.20482029082E+02  0.00000000000E+00 0. -1.
         -3   -1    0    0    0  501 -0.00000000000E+00 -0.00000000000E+00 -0.61783512316E+03  0.61783512316E+03  0.00000000000E+00 0.  1.
         24    1    1    2    0    0  0.62104229190E+02 -0.25062673626E+02 -0.41573225939E+03  0.42870222806E+03  0.80419002446E+02 0.  1.
        -24    1    1    2    0    0 -0.62104229190E+02  0.25062673626E+02 -0.18162083469E+03  0.20961492418E+03  0.80419002446E+02 0. -1.
<mgrwt>
<rscale>  0 0.10465318E+03</rscale>
<asrwt>0</asrwt>
<pdfrwt beam="1">  1        3 0.31510813E-02 0.10465318E+03</pdfrwt>
<pdfrwt beam="2">  1       -3 0.95051561E-01 0.10465318E+03</pdfrwt>
<totfact> 0.10584087E+03</totfact>
</mgrwt>
</event>
<event>
 4    1  0.6602701E-002  0.1277680E+03  0.7546771E-02  0.1230806E+00
         -2   -1    0    0    0  501 -0.00000000000E+00  0.00000000000E+00  0.18941227828E+03  0.18941227828E+03  0.00000000000E+00 0.  1.
          2   -1    0    0  501    0  0.00000000000E+00 -0.00000000000E+00 -0.37837992653E+03  0.37837992653E+03  0.00000000000E+00 0. -1.
         24    1    1    2    0    0  0.35194600519E+02  0.92837384687E+02 -0.34396116069E+03  0.36692497315E+03  0.80419002446E+02 0. -1.
        -24    1    1    2    0    0 -0.35194600519E+02 -0.92837384687E+02  0.15499351244E+03  0.20086723166E+03  0.80419002446E+02 0.  1.
<mgrwt>
<rscale>  0 0.12776798E+03</rscale>
<asrwt>0</asrwt>
<pdfrwt beam="1">  1        2 0.58212295E-01 0.12776798E+03</pdfrwt>
<pdfrwt beam="2">  1       -2 0.29140351E-01 0.12776798E+03</pdfrwt>
<totfact> 0.90899014E+02</totfact>
</mgrwt>
</event>
<event>
 4    1  0.6602701E-002  0.9704930E+02  0.7546771E-02  0.1286626E+00
         -2   -1    0    0    0  501 -0.00000000000E+00  0.00000000000E+00  0.21843699236E+02  0.21843699236E+02  0.00000000000E+00 0.  1.
          2   -1    0    0  501    0  0.00000000000E+00 -0.00000000000E+00 -0.10175024895E+04  0.10175024895E+04  0.00000000000E+00 0. -1.
         24    1    1    2    0    0  0.43976642874E+02 -0.31896787343E+02 -0.89231464598E+03  0.89757673407E+03  0.80419002446E+02 0. -1.
        -24    1    1    2    0    0 -0.43976642874E+02  0.31896787343E+02 -0.10334414425E+03  0.14176945463E+03  0.80419002446E+02 0.  1.
<mgrwt>
<rscale>  0 0.97049297E+02</rscale>
<asrwt>0</asrwt>
<pdfrwt beam="1">  1        2 0.15653879E+00 0.97049297E+02</pdfrwt>
<pdfrwt beam="2">  1       -2 0.33605703E-02 0.97049297E+02</pdfrwt>
<totfact> 0.86862016E+03</totfact>
</mgrwt>
</event>
<event>
 4    1  0.6602701E-002  0.1082640E+03  0.7546771E-02  0.1263819E+00
         -2   -1    0    0    0  501 -0.00000000000E+00  0.00000000000E+00  0.77579583005E+02  0.77579583005E+02  0.00000000000E+00 0.  1.
          2   -1    0    0  501    0  0.00000000000E+00 -0.00000000000E+00 -0.36117673902E+03  0.36117673902E+03  0.00000000000E+00 0. -1.
         24    1    1    2    0    0 -0.54669734536E+02 -0.47592995140E+02 -0.30911489266E+03  0.32752573316E+03  0.80419002446E+02 0. -1.
        -24    1    1    2    0    0  0.54669734536E+02  0.47592995140E+02  0.25517736652E+02  0.11123058886E+03  0.80419002446E+02 0.  1.
<mgrwt>
<rscale>  0 0.10826398E+03</rscale>
<asrwt>0</asrwt>
<pdfrwt beam="1">  1        2 0.55565653E-01 0.10826398E+03</pdfrwt>
<pdfrwt beam="2">  1       -2 0.11935320E-01 0.10826398E+03</pdfrwt>
<totfact> 0.42384169E+03</totfact>
</mgrwt>
</event>
<event>
 4    1  0.6602701E-002  0.8290065E+02  0.7546771E-02  0.1321016E+00
          1   -1    0    0  501    0  0.00000000000E+00  0.00000000000E+00  0.30898779111E+03  0.30898779111E+03  0.00000000000E+00 0. -1.
         -1   -1    0    0    0  501 -0.00000000000E+00 -0.00000000000E+00 -0.30522816055E+02  0.30522816055E+02  0.00000000000E+00 0.  1.
         24    1    1    2    0    0  0.19060412098E+02  0.64809888008E+01  0.50813283739E+02  0.97234295821E+02  0.80419002446E+02 0.  0.
        -24    1    1    2    0    0 -0.19060412098E+02 -0.64809888008E+01  0.22765169132E+03  0.24227631135E+03  0.80419002446E+02 0. -1.
<mgrwt>
<rscale>  0 0.82900654E+02</rscale>
<asrwt>0</asrwt>
<pdfrwt beam="1">  1        1 0.47536581E-01 0.82900654E+02</pdfrwt>
<pdfrwt beam="2">  1       -1 0.46958181E-02 0.82900654E+02</pdfrwt>
<totfact> 0.14635412E+04</totfact>
</mgrwt>
</event>
<event>
 4    1  0.6602701E-002  0.9131306E+02  0.7546771E-02  0.1299703E+00
          2   -1    0    0  501    0  0.00000000000E+00  0.00000000000E+00  0.17608561570E+04  0.17608561570E+04  0.00000000000E+00 0. -1.
         -2   -1    0    0    0  501 -0.00000000000E+00 -0.00000000000E+00 -0.47525621368E+01  0.47525621368E+01  0.00000000000E+00 0.  1.
         24    1    1    2    0    0  0.42433776548E+02  0.83802474104E+01  0.82474919743E+03  0.82978871320E+03  0.80419002446E+02 0. -1.
        -24    1    1    2    0    0 -0.42433776548E+02 -0.83802474104E+01  0.93135439745E+03  0.93582000596E+03  0.80419002446E+02 0.  0.
<mgrwt>
<rscale>  0 0.91313044E+02</rscale>
<asrwt>0</asrwt>
<pdfrwt beam="1">  1        2 0.27090043E+00 0.91313055E+02</pdfrwt>
<pdfrwt beam="2">  1       -2 0.73116481E-03 0.91313055E+02</pdfrwt>
<totfact> 0.31118749E+04</totfact>
</mgrwt>
</event>
<event>
 4    1  0.6602701E-002  0.1494626E+03  0.7546771E-02  0.1201135E+00
         -2   -1    0    0    0  501 -0.00000000000E+00  0.00000000000E+00  0.14055095138E+02  0.14055095138E+02  0.00000000000E+00 0.  1.
          2   -1    0    0  501    0  0.00000000000E+00 -0.00000000000E+00 -0.18803066422E+04  0.18803066422E+04  0.00000000000E+00 0. -1.
         24    1    1    2    0    0  0.19760407734E+02 -0.12442413381E+03 -0.13056902321E+04  0.13142168911E+04  0.80419002446E+02 0. -1.
        -24    1    1    2    0    0 -0.19760407734E+02  0.12442413381E+03 -0.56056131495E+03  0.58014484619E+03  0.80419002446E+02 0.  1.
<mgrwt>
<rscale>  0 0.14946255E+03</rscale>
<asrwt>0</asrwt>
<pdfrwt beam="1">  1        2 0.28927804E+00 0.14946255E+03</pdfrwt>
<pdfrwt beam="2">  1       -2 0.21623216E-02 0.14946255E+03</pdfrwt>
<totfact> 0.58646101E+03</totfact>
</mgrwt>
</event>
<event>
 4    1  0.6602701E-002  0.1005809E+03  0.7546771E-02  0.1279079E+00
         -1   -1    0    0    0  501 -0.00000000000E+00  0.00000000000E+00  0.49698864749E+02  0.49698864749E+02  0.00000000000E+00 0.  1.
          1   -1    0    0  501    0  0.00000000000E+00 -0.00000000000E+00 -0.37816577756E+03  0.37816577756E+03  0.00000000000E+00 0. -1.
         24    1    1    2    0    0 -0.14162991885E+02  0.58725802968E+02 -0.18865405600E+02  0.10233489022E+03  0.80419002446E+02 0.  1.
        -24    1    1    2    0    0  0.14162991885E+02 -0.58725802968E+02 -0.30960150721E+03  0.32552975209E+03  0.80419002446E+02 0. -1.
<mgrwt>
<rscale>  0 0.10058094E+03</rscale>
<asrwt>0</asrwt>
<pdfrwt beam="1">  1        1 0.58179353E-01 0.10058094E+03</pdfrwt>
<pdfrwt beam="2">  1       -1 0.76459789E-02 0.10058094E+03</pdfrwt>
<totfact> 0.56557778E+03</totfact>
</mgrwt>
</event>
<event>
 4    1  0.6602701E-002  0.8482321E+02  0.7546771E-02  0.1315896E+00
          1   -1    0    0  501    0  0.00000000000E+00  0.00000000000E+00  0.16098062275E+02  0.16098062275E+02  0.00000000000E+00 0. -1.
         -1   -1    0    0    0  501 -0.00000000000E+00 -0.00000000000E+00 -0.63845260431E+03  0.63845260431E+03  0.00000000000E+00 0.  1.
         24    1    1    2    0    0  0.71622044815E+01 -0.26008907668E+02 -0.49041935496E+03  0.49770083396E+03  0.80419002446E+02 0. -1.
        -24    1    1    2    0    0 -0.71622044815E+01  0.26008907668E+02 -0.13193518707E+03  0.15684983262E+03  0.80419002446E+02 0.  0.
<mgrwt>
<rscale>  0 0.84823207E+02</rscale>
<asrwt>0</asrwt>
<pdfrwt beam="1">  1        1 0.24766249E-02 0.84823207E+02</pdfrwt>
<pdfrwt beam="2">  1       -1 0.98223482E-01 0.84823207E+02</pdfrwt>
<totfact> 0.43251520E+03</totfact>
</mgrwt>
</event>
<event>
 4    1  0.6602701E-002  0.1322517E+03  0.7546771E-02  0.1224152E+00
          2   -1    0    0  501    0  0.00000000000E+00  0.00000000000E+00  0.13708513920E+04  0.13708513920E+04  0.00000000000E+00 0. -1.
         -2   -1    0    0    0  501 -0.00000000000E+00 -0.00000000000E+00 -0.12871943953E+02  0.12871943953E+02  0.00000000000E+00 0.  1.
         24    1    1    2    0    0 -0.15821481456E+02 -0.10379286336E+03  0.61414003690E+03  0.62821849594E+03  0.80419002446E+02 0.  1.
        -24    1    1    2    0    0  0.15821481456E+02  0.10379286336E+03  0.74383941117E+03  0.75550484004E+03  0.80419002446E+02 0. -1.
<mgrwt>
<rscale>  0 0.13225165E+03</rscale>
<asrwt>0</asrwt>
<pdfrwt beam="1">  1        2 0.21090010E+00 0.13225166E+03</pdfrwt>
<pdfrwt beam="2">  1       -2 0.19803002E-02 0.13225166E+03</pdfrwt>
<totfact> 0.12177284E+04</totfact>
</mgrwt>
</event>
<event>
 4    1  0.6602701E-002  0.8266909E+02  0.7546771E-02  0.1321643E+00
          3   -1    0    0  501    0  0.00000000000E+00  0.00000000000E+00  0.62695312861E+03  0.62695312861E+03  0.00000000000E+00 0. -1.
         -3   -1    0    0    0  501 -0.00000000000E+00 -0.00000000000E+00 -0.14410814772E+02  0.14410814772E+02  0.00000000000E+00 0.  1.
         24    1    1    2    0    0 -0.18459704904E+02  0.51188448211E+01  0.14800219836E+03  0.16952530770E+03  0.80419002446E+02 0.  1.
        -24    1    1    2    0    0  0.18459704904E+02 -0.51188448211E+01  0.46454011548E+03  0.47183863568E+03  0.80419002446E+02 0. -1.
<mgrwt>
<rscale>  0 0.82669095E+02</rscale>
<asrwt>0</asrwt>
<pdfrwt beam="1">  1        3 0.96454306E-01 0.82669095E+02</pdfrwt>
<pdfrwt beam="2">  1       -3 0.22170489E-02 0.82669095E+02</pdfrwt>
<totfact> 0.16769260E+03</totfact>
</mgrwt>
</event>
<event>
 4    1  0.6602701E-002  0.1030137E+03  0.7546771E-02  0.1274083E+00
          2   -1    0    0  501    0  0.00000000000E+00  0.00000000000E+00  0.29803681092E+03  0.29803681092E+03  0.00000000000E+00 0. -1.
         -2   -1    0    0    0  501 -0.00000000000E+00 -0.00000000000E+00 -0.43280515121E+02  0.43280515121E+02  0.00000000000E+00 0.  1.
         24    1    1    2    0    0  0.19198686102E+02  0.61449347076E+02  0.19924263583E+03  0.22429769435E+03  0.80419002446E+02 0. -1.
        -24    1    1    2    0    0 -0.19198686102E+02 -0.61449347076E+02  0.55513659975E+02  0.11701963170E+03  0.80419002446E+02 0.  1.
<mgrwt>
<rscale>  0 0.10301373E+03</rscale>
<asrwt>0</asrwt>
<pdfrwt beam="1">  1        2 0.45851816E-01 0.10301373E+03</pdfrwt>
<pdfrwt beam="2">  1       -2 0.66585410E-02 0.10301373E+03</pdfrwt>
<totfact> 0.12757508E+04</totfact>
</mgrwt>
</event>
<event>
 4    1  0.6602701E-002  0.1013794E+03  0.7546771E-02  0.1277422E+00
         -2   -1    0    0    0  501 -0.00000000000E+00  0.00000000000E+00  0.15050511380E+03  0.15050511380E+03  0.00000000000E+00 0.  1.
          2   -1    0    0  501    0  0.00000000000E+00 -0.00000000000E+00 -0.77113292210E+02  0.77113292210E+02  0.00000000000E+00 0. -1.
         24    1    1    2    0    0  0.50937652823E+02 -0.34870084059E+02 -0.18042546497E+01  0.10139545614E+03  0.80419002446E+02 0.  0.
        -24    1    1    2    0    0 -0.50937652823E+02  0.34870084059E+02  0.75196076244E+02  0.12622294987E+03  0.80419002446E+02 0.  0.
<mgrwt>
<rscale>  0 0.10137940E+03</rscale>
<asrwt>0</asrwt>
<pdfrwt beam="1">  1        2 0.11863583E-01 0.10137940E+03</pdfrwt>
<pdfrwt beam="2">  1       -2 0.23154633E-01 0.10137940E+03</pdfrwt>
<totfact> 0.77665486E+03</totfact>
</mgrwt>
</event>
<event>
 4    1  0.6602701E-002  0.9891449E+02  0.7546771E-02  0.1282595E+00
          2   -1    0    0  501    0  0.00000000000E+00  0.00000000000E+00  0.56366880462E+02  0.56366880462E+02  0.00000000000E+00 0. -1.
         -2   -1    0    0    0  501 -0.00000000000E+00 -0.00000000000E+00 -0.36932573508E+03  0.36932573508E+03  0.00000000000E+00 0.  1.
         24    1    1    2    0    0 -0.40846887745E+02 -0.40600384157E+02 -0.15231350755E+01  0.98926211526E+02  0.80419002446E+02 0. -1.
        -24    1    1    2    0    0  0.40846887745E+02  0.40600384157E+02 -0.31143571955E+03  0.32676640402E+03  0.80419002446E+02 0.  1.
<mgrwt>
<rscale>  0 0.98914485E+02</rscale>
<asrwt>0</asrwt>
<pdfrwt beam="1">  1        2 0.86718280E-02 0.98914485E+02</pdfrwt>
<pdfrwt beam="2">  1       -2 0.56819343E-01 0.98914485E+02</pdfrwt>
<totfact> 0.21482939E+03</totfact>
</mgrwt>
</event>
<event>
 4    1  0.6602701E-002  0.1983380E+03  0.7546771E-02  0.1151149E+00
         -2   -1    0    0    0  501 -0.00000000000E+00  0.00000000000E+00  0.30815960603E+02  0.30815960603E+02  0.00000000000E+00 0.  1.
          2   -1    0    0  501    0  0.00000000000E+00 -0.00000000000E+00 -0.17947652007E+04  0.17947652007E+04  0.00000000000E+00 0. -1.
         24    1    1    2    0    0  0.94954606942E+02  0.15444857572E+03 -0.13724582991E+04  0.13867154497E+04  0.80419002446E+02 0. -1.
        -24    1    1    2    0    0 -0.94954606942E+02 -0.15444857572E+03 -0.39149094103E+03  0.43886571156E+03  0.80419002446E+02 0.  1.
<mgrwt>
<rscale>  0 0.19833798E+03</rscale>
<asrwt>0</asrwt>
<pdfrwt beam="1">  1        2 0.27611777E+00 0.19833798E+03</pdfrwt>
<pdfrwt beam="2">  1       -2 0.47409162E-02 0.19833798E+03</pdfrwt>
<totfact> 0.20292040E+03</totfact>
</mgrwt>
</event>
<event>
 4    1  0.6602701E-002  0.9553383E+02  0.7546771E-02  0.1289978E+00
         -1   -1    0    0    0  501 -0.00000000000E+00  0.00000000000E+00  0.32431336389E+02  0.32431336389E+02  0.00000000000E+00 0.  1.
          1   -1    0    0  501    0  0.00000000000E+00 -0.00000000000E+00 -0.28221589719E+03  0.28221589719E+03  0.00000000000E+00 0. -1.
         24    1    1    2    0    0  0.51228095244E+02 -0.59312240065E+01 -0.11651920477E+03  0.15067660135E+03  0.80419002446E+02 0.  1.
        -24    1    1    2    0    0 -0.51228095244E+02  0.59312240065E+01 -0.13326535603E+03  0.16397063222E+03  0.80419002446E+02 0. -1.
<mgrwt>
<rscale>  0 0.95533832E+02</rscale>
<asrwt>0</asrwt>
<pdfrwt beam="1">  1        1 0.43417830E-01 0.95533832E+02</pdfrwt>
<pdfrwt beam="2">  1       -1 0.49894364E-02 0.95533832E+02</pdfrwt>
<totfact> 0.15172638E+04</totfact>
</mgrwt>
</event>
<event>
 4    1  0.6602701E-002  0.8042226E+02  0.7546771E-02  0.1327857E+00
          2   -1    0    0  501    0  0.00000000000E+00  0.00000000000E+00  0.13918369862E+04  0.13918369862E+04  0.00000000000E+00 0. -1.
         -2   -1    0    0    0  501 -0.00000000000E+00 -0.00000000000E+00 -0.16583350431E+02  0.16583350431E+02  0.00000000000E+00 0.  1.
         24    1    1    2    0    0  0.29886979670E+00  0.65955310670E+00  0.12850795922E+04  0.12875936077E+04  0.80419002446E+02 0.  0.
        -24    1    1    2    0    0 -0.29886979670E+00 -0.65955310670E+00  0.90174043502E+02  0.12082672887E+03  0.80419002446E+02 0.  1.
<mgrwt>
<rscale>  0 0.80422262E+02</rscale>
<asrwt>0</asrwt>
<pdfrwt beam="1">  1        2 0.21412867E+00 0.80422262E+02</pdfrwt>
<pdfrwt beam="2">  1       -2 0.25512858E-02 0.80422262E+02</pdfrwt>
<totfact> 0.80224737E+03</totfact>
</mgrwt>
</event>
<event>
 4    1  0.6602701E-002  0.8067367E+02  0.7546771E-02  0.1327150E+00
          2   -1    0    0  501    0  0.00000000000E+00  0.00000000000E+00  0.29594629999E+04  0.29594629999E+04  0.00000000000E+00 0. -1.
         -2   -1    0    0    0  501 -0.00000000000E+00 -0.00000000000E+00 -0.23578764096E+02  0.23578764096E+02  0.00000000000E+00 0.  1.
         24    1    1    2    0    0  0.57934383770E+01 -0.27315647279E+01  0.28882057359E+04  0.28893322091E+04  0.80419002446E+02 0. -1.
        -24    1    1    2    0    0 -0.57934383770E+01  0.27315647279E+01  0.47678499820E+02  0.93709554868E+02  0.80419002446E+02 0.  0.
<mgrwt>
<rscale>  0 0.80673672E+02</rscale>
<asrwt>0</asrwt>
<pdfrwt beam="1">  1        2 0.45530171E+00 0.80673672E+02</pdfrwt>
<pdfrwt beam="2">  1       -2 0.36275045E-02 0.80673672E+02</pdfrwt>
<totfact> 0.74852402E+02</totfact>
</mgrwt>
</event>
<event>
 4    1  0.6602701E-002  0.1284483E+03  0.7546771E-02  0.1229777E+00
          2   -1    0    0  501    0  0.00000000000E+00  0.00000000000E+00  0.11034386080E+04  0.11034386080E+04  0.00000000000E+00 0. -1.
         -2   -1    0    0    0  501 -0.00000000000E+00 -0.00000000000E+00 -0.18883715653E+02  0.18883715653E+02  0.00000000000E+00 0.  1.
         24    1    1    2    0    0  0.97944223646E+02  0.20944384000E+02  0.28623149713E+03  0.31373145216E+03  0.80419002446E+02 0.  1.
        -24    1    1    2    0    0 -0.97944223646E+02 -0.20944384000E+02  0.79832339525E+03  0.80859087153E+03  0.80419002446E+02 0. -1.
<mgrwt>
<rscale>  0 0.12844827E+03</rscale>
<asrwt>0</asrwt>
<pdfrwt beam="1">  1        2 0.16975974E+00 0.12844829E+03</pdfrwt>
<pdfrwt beam="2">  1       -2 0.29051879E-02 0.12844829E+03</pdfrwt>
<totfact> 0.97441440E+03</totfact>
</mgrwt>
</event>
<event>
 4    1  0.6602701E-002  0.9122316E+02  0.7546771E-02  0.1299916E+00
          2   -1    0    0  501    0  0.00000000000E+00  0.00000000000E+00  0.66948920478E+03  0.66948920478E+03  0.00000000000E+00 0. -1.
         -2   -1    0    0    0  501 -0.00000000000E+00 -0.00000000000E+00 -0.13003134562E+02  0.13003134562E+02  0.00000000000E+00 0.  1.
         24    1    1    2    0    0 -0.32926499771E+01 -0.42937202326E+02  0.25659191766E+03  0.27232530740E+03  0.80419002446E+02 0. -1.
        -24    1    1    2    0    0  0.32926499771E+01  0.42937202326E+02  0.39989415256E+03  0.41016703194E+03  0.80419002446E+02 0.  0.
<mgrwt>
<rscale>  0 0.91223149E+02</rscale>
<asrwt>0</asrwt>
<pdfrwt beam="1">  1        2 0.10299831E+00 0.91223160E+02</pdfrwt>
<pdfrwt beam="2">  1       -2 0.20004828E-02 0.91223160E+02</pdfrwt>
<totfact> 0.30859848E+04</totfact>
</mgrwt>
</event>
<event>
 4    1  0.6602701E-002  0.1046393E+03  0.7546771E-02  0.1270832E+00
         -2   -1    0    0    0  501 -0.00000000000E+00  0.00000000000E+00  0.57337616837E+02  0.57337616837E+02  0.00000000000E+00 0.  1.
          2   -1    0    0  501    0  0.00000000000E+00 -0.00000000000E+00 -0.43248998657E+03  0.43248998657E+03  0.00000000000E+00 0. -1.
         24    1    1    2    0    0 -0.27385878569E+02 -0.61091607412E+02 -0.37060003827E+03  0.38508930803E+03  0.80419002446E+02 0. -1.
        -24    1    1    2    0    0  0.27385878569E+02  0.61091607412E+02 -0.45523314604E+01  0.10473829537E+03  0.80419002446E+02 0.  1.
<mgrwt>
<rscale>  0 0.10463932E+03</rscale>
<asrwt>0</asrwt>
<pdfrwt beam="1">  1        2 0.66536923E-01 0.10463932E+03</pdfrwt>
<pdfrwt beam="2">  1       -2 0.88211716E-02 0.10463932E+03</pdfrwt>
<totfact> 0.56100837E+03</totfact>
</mgrwt>
</event>
<event>
 4    1  0.6602701E-002  0.8326051E+02  0.7546771E-02  0.1320045E+00
         -2   -1    0    0    0  501 -0.00000000000E+00  0.00000000000E+00  0.13200871561E+02  0.13200871561E+02  0.00000000000E+00 0.  1.
          2   -1    0    0  501    0  0.00000000000E+00 -0.00000000000E+00 -0.10069840138E+04  0.10069840138E+04  0.00000000000E+00 0. -1.
         24    1    1    2    0    0 -0.20805619425E+02  0.56765430962E+01 -0.84974195091E+03  0.85381127659E+03  0.80419002446E+02 0. -1.
        -24    1    1    2    0    0  0.20805619425E+02 -0.56765430962E+01 -0.14404119132E+03  0.16637360876E+03  0.80419002446E+02 0.  1.
<mgrwt>
<rscale>  0 0.83260512E+02</rscale>
<asrwt>0</asrwt>
<pdfrwt beam="1">  1        2 0.15492058E+00 0.83260512E+02</pdfrwt>
<pdfrwt beam="2">  1       -2 0.20309038E-02 0.83260512E+02</pdfrwt>
<totfact> 0.18060589E+04</totfact>
</mgrwt>
</event>
<event>
 4    1  0.6602701E-002  0.1141863E+03  0.7546771E-02  0.1253008E+00
          2   -1    0    0  501    0  0.00000000000E+00  0.00000000000E+00  0.39676115977E+02  0.39676115977E+02  0.00000000000E+00 0. -1.
         -2   -1    0    0    0  501 -0.00000000000E+00 -0.00000000000E+00 -0.34693181978E+03  0.34693181978E+03  0.00000000000E+00 0.  1.
         24    1    1    2    0    0 -0.10043987052E+02  0.80438864215E+02 -0.19803384925E+03  0.22859552480E+03  0.80419002446E+02 0. -1.
        -24    1    1    2    0    0  0.10043987052E+02 -0.80438864215E+02 -0.10922185455E+03  0.15801241096E+03  0.80419002446E+02 0.  0.
<mgrwt>
<rscale>  0 0.11418630E+03</rscale>
<asrwt>0</asrwt>
<pdfrwt beam="1">  1        2 0.61040180E-02 0.11418632E+03</pdfrwt>
<pdfrwt beam="2">  1       -2 0.53374125E-01 0.11418632E+03</pdfrwt>
<totfact> 0.38252576E+03</totfact>
</mgrwt>
</event>
<event>
 4    1  0.6602701E-002  0.8728379E+02  0.7546771E-02  0.1309566E+00
          2   -1    0    0  501    0  0.00000000000E+00  0.00000000000E+00  0.27624440212E+03  0.27624440212E+03  0.00000000000E+00 0. -1.
         -2   -1    0    0    0  501 -0.00000000000E+00 -0.00000000000E+00 -0.27962549026E+02  0.27962549026E+02  0.00000000000E+00 0.  1.
         24    1    1    2    0    0 -0.13152001024E+02 -0.31277298684E+02  0.14196196537E+03  0.16664831265E+03  0.80419002446E+02 0. -1.
        -24    1    1    2    0    0  0.13152001024E+02  0.31277298684E+02  0.10631988772E+03  0.13755863849E+03  0.80419002446E+02 0.  1.
<mgrwt>
<rscale>  0 0.87283793E+02</rscale>
<asrwt>0</asrwt>
<pdfrwt beam="1">  1        2 0.42499137E-01 0.87283793E+02</pdfrwt>
<pdfrwt beam="2">  1       -2 0.43019308E-02 0.87283793E+02</pdfrwt>
<totfact> 0.26076182E+04</totfact>
</mgrwt>
</event>
<event>
 4    1  0.6602701E-002  0.8951555E+02  0.7546771E-02  0.1304029E+00
         -2   -1    0    0    0  501 -0.00000000000E+00  0.00000000000E+00  0.23373146636E+02  0.23373146636E+02  0.00000000000E+00 0.  1.
          2   -1    0    0  501    0  0.00000000000E+00 -0.00000000000E+00 -0.18525500121E+04  0.18525500121E+04  0.00000000000E+00 0. -1.
         24    1    1    2    0    0 -0.55324907719E+01  0.38925693318E+02 -0.17613247217E+04  0.17635979727E+04  0.80419002446E+02 0. -1.
        -24    1    1    2    0    0  0.55324907719E+01 -0.38925693318E+02 -0.67852143791E+02  0.11232518607E+03  0.80419002446E+02 0.  1.
<mgrwt>
<rscale>  0 0.89515552E+02</rscale>
<asrwt>0</asrwt>
<pdfrwt beam="1">  1        2 0.28500769E+00 0.89515552E+02</pdfrwt>
<pdfrwt beam="2">  1       -2 0.35958687E-02 0.89515552E+02</pdfrwt>
<totfact> 0.28618700E+03</totfact>
</mgrwt>
</event>
<event>
 4    1  0.6602701E-002  0.1288286E+03  0.7546771E-02  0.1229204E+00
          1   -1    0    0  501    0  0.00000000000E+00  0.00000000000E+00  0.11754797315E+04  0.11754797315E+04  0.00000000000E+00 0. -1.
         -1   -1    0    0    0  501 -0.00000000000E+00 -0.00000000000E+00 -0.31407262233E+02  0.31407262233E+02  0.00000000000E+00 0.  1.
         24    1    1    2    0    0 -0.74017414385E+02  0.68198258512E+02  0.12432795189E+03  0.17903696734E+03  0.80419002446E+02 0.  1.
        -24    1    1    2    0    0  0.74017414385E+02 -0.68198258512E+02  0.10197445173E+04  0.10278500264E+04  0.80419002446E+02 0. -1.
<mgrwt>
<rscale>  0 0.12882855E+03</rscale>
<asrwt>0</asrwt>
<pdfrwt beam="1">  1        1 0.18084300E+00 0.12882855E+03</pdfrwt>
<pdfrwt beam="2">  1       -1 0.48318874E-02 0.12882855E+03</pdfrwt>
<totfact> 0.21907312E+03</totfact>
</mgrwt>
</event>
<event>
 4    1  0.6602701E-002  0.8472313E+02  0.7546771E-02  0.1316158E+00
         -2   -1    0    0    0  501 -0.00000000000E+00  0.00000000000E+00  0.25078629066E+02  0.25078629066E+02  0.00000000000E+00 0.  1.
          2   -1    0    0  501    0  0.00000000000E+00 -0.00000000000E+00 -0.16545802328E+04  0.16545802328E+04  0.00000000000E+00 0. -1.
         24    1    1    2    0    0 -0.22877594328E+02 -0.13689742591E+02 -0.15784940261E+04  0.15807660800E+04  0.80419002446E+02 0.  0.
        -24    1    1    2    0    0  0.22877594328E+02  0.13689742591E+02 -0.51007577686E+02  0.98892781891E+02  0.80419002446E+02 0.  1.
<mgrwt>
<rscale>  0 0.84723133E+02</rscale>
<asrwt>0</asrwt>
<pdfrwt beam="1">  1        2 0.25455067E+00 0.84723133E+02</pdfrwt>
<pdfrwt beam="2">  1       -2 0.38582527E-02 0.84723133E+02</pdfrwt>
<totfact> 0.32414032E+03</totfact>
</mgrwt>
</event>
<event>
 4    1  0.6602701E-002  0.8982926E+02  0.7546771E-02  0.1303266E+00
          1   -1    0    0  501    0  0.00000000000E+00  0.00000000000E+00  0.11825061250E+03  0.11825061250E+03  0.00000000000E+00 0. -1.
         -1   -1    0    0    0  501 -0.00000000000E+00 -0.00000000000E+00 -0.20839885820E+03  0.20839885820E+03  0.00000000000E+00 0.  1.
         24    1    1    2    0    0 -0.12947982430E+02 -0.37873856758E+02 -0.17901595315E+03  0.20028980681E+03  0.80419002446E+02 0.  1.
        -24    1    1    2    0    0  0.12947982430E+02  0.37873856758E+02  0.88867707453E+02  0.12635966388E+03  0.80419002446E+02 0. -1.
<mgrwt>
<rscale>  0 0.89829256E+02</rscale>
<asrwt>0</asrwt>
<pdfrwt beam="1">  1        1 0.18192402E-01 0.89829256E+02</pdfrwt>
<pdfrwt beam="2">  1       -1 0.32061363E-01 0.89829256E+02</pdfrwt>
<totfact> 0.24992295E+03</totfact>
</mgrwt>
</event>
<event>
 4    1  0.6602701E-002  0.1093866E+03  0.7546771E-02  0.1261710E+00
          1   -1    0    0  501    0  0.00000000000E+00  0.00000000000E+00  0.39647100449E+02  0.39647100449E+02  0.00000000000E+00 0. -1.
         -1   -1    0    0    0  501 -0.00000000000E+00 -0.00000000000E+00 -0.57315841683E+03  0.57315841683E+03  0.00000000000E+00 0.  1.
         24    1    1    2    0    0 -0.73765205670E+02 -0.75442038826E+01 -0.47758359592E+03  0.48995053590E+03  0.80419002446E+02 0.  1.
        -24    1    1    2    0    0  0.73765205670E+02  0.75442038826E+01 -0.55927720460E+02  0.12285498138E+03  0.80419002446E+02 0. -1.
<mgrwt>
<rscale>  0 0.10938664E+03</rscale>
<asrwt>0</asrwt>
<pdfrwt beam="1">  1        1 0.60995539E-02 0.10938664E+03</pdfrwt>
<pdfrwt beam="2">  1       -1 0.88178218E-01 0.10938664E+03</pdfrwt>
<totfact> 0.16201900E+03</totfact>
</mgrwt>
</event>
<event>
 4    1  0.6602701E-002  0.8402091E+02  0.7546771E-02  0.1318013E+00
          2   -1    0    0  501    0  0.00000000000E+00  0.00000000000E+00  0.44095422495E+03  0.44095422495E+03  0.00000000000E+00 0. -1.
         -2   -1    0    0    0  501 -0.00000000000E+00 -0.00000000000E+00 -0.35182507018E+02  0.35182507018E+02  0.00000000000E+00 0.  1.
         24    1    1    2    0    0 -0.77937948069E+01  0.23055458379E+02  0.37863044668E+03  0.38784085461E+03  0.80419002446E+02 0. -1.
        -24    1    1    2    0    0  0.77937948069E+01 -0.23055458379E+02  0.27141271253E+02  0.88295877357E+02  0.80419002446E+02 0.  1.
<mgrwt>
<rscale>  0 0.84020910E+02</rscale>
<asrwt>0</asrwt>
<pdfrwt beam="1">  1        2 0.67839107E-01 0.84020910E+02</pdfrwt>
<pdfrwt beam="2">  1       -2 0.54126937E-02 0.84020910E+02</pdfrwt>
<totfact> 0.11331383E+04</totfact>
</mgrwt>
</event>
<event>
 4    1  0.6602701E-002  0.9580968E+02  0.7546771E-02  0.1289363E+00
         -1   -1    0    0    0  501 -0.00000000000E+00  0.00000000000E+00  0.13591899716E+03  0.13591899716E+03  0.00000000000E+00 0.  1.
          1   -1    0    0  501    0  0.00000000000E+00 -0.00000000000E+00 -0.21706582196E+03  0.21706582196E+03  0.00000000000E+00 0. -1.
         24    1    1    2    0    0  0.44746873218E+02  0.26645740422E+02  0.10591169803E+03  0.14281730245E+03  0.80419002446E+02 0.  1.
        -24    1    1    2    0    0 -0.44746873218E+02 -0.26645740422E+02 -0.18705852283E+03  0.21016751667E+03  0.80419002446E+02 0. -1.
<mgrwt>
<rscale>  0 0.95809676E+02</rscale>
<asrwt>0</asrwt>
<pdfrwt beam="1">  1        1 0.33394742E-01 0.95809676E+02</pdfrwt>
<pdfrwt beam="2">  1       -1 0.20910615E-01 0.95809676E+02</pdfrwt>
<totfact> 0.23709830E+03</totfact>
</mgrwt>
</event>
<event>
 4    1  0.6602701E-002  0.1052043E+03  0.7546771E-02  0.1269718E+00
          2   -1    0    0  501    0  0.00000000000E+00  0.00000000000E+00  0.11175933189E+04  0.11175933189E+04  0.00000000000E+00 0. -1.
         -2   -1    0    0    0  501 -0.00000000000E+00 -0.00000000000E+00 -0.99065672413E+01  0.99065672413E+01  0.00000000000E+00 0.  1.
         24    1    1    2    0    0  0.65199649306E+02  0.18701064515E+02  0.54371547961E+03  0.55380002059E+03  0.80419002446E+02 0. -1.
        -24    1    1    2    0    0 -0.65199649306E+02 -0.18701064515E+02  0.56397127208E+03  0.57369986558E+03  0.80419002446E+02 0.  0.
<mgrwt>
<rscale>  0 0.10520429E+03</rscale>
<asrwt>0</asrwt>
<pdfrwt beam="1">  1        2 0.17193733E+00 0.10520430E+03</pdfrwt>
<pdfrwt beam="2">  1       -2 0.15240882E-02 0.10520430E+03</pdfrwt>
<totfact> 0.24025740E+04</totfact>
</mgrwt>
</event>
<event>
 4    1  0.6602701E-002  0.1273577E+03  0.7546771E-02  0.1231430E+00
          2   -1    0    0  501    0  0.00000000000E+00  0.00000000000E+00  0.15474358922E+03  0.15474358922E+03  0.00000000000E+00 0. -1.
         -2   -1    0    0    0  501 -0.00000000000E+00 -0.00000000000E+00 -0.11609454799E+03  0.11609454799E+03  0.00000000000E+00 0.  1.
         24    1    1    2    0    0  0.61336041116E+02 -0.77399326741E+02 -0.22879469889E+02  0.12939649074E+03  0.80419002446E+02 0.  0.
        -24    1    1    2    0    0 -0.61336041116E+02  0.77399326741E+02  0.61528511120E+02  0.14144164647E+03  0.80419002446E+02 0.  0.
<mgrwt>
<rscale>  0 0.12735771E+03</rscale>
<asrwt>0</asrwt>
<pdfrwt beam="1">  1        2 0.23806706E-01 0.12735772E+03</pdfrwt>
<pdfrwt beam="2">  1       -2 0.17860700E-01 0.12735772E+03</pdfrwt>
<totfact> 0.55047718E+03</totfact>
</mgrwt>
</event>
<event>
 4    1  0.6602701E-002  0.1044038E+03  0.7546771E-02  0.1271299E+00
         -1   -1    0    0    0  501 -0.00000000000E+00  0.00000000000E+00  0.55363678080E+01  0.55363678080E+01  0.00000000000E+00 0.  1.
          1   -1    0    0  501    0  0.00000000000E+00 -0.00000000000E+00 -0.20411996309E+04  0.20411996309E+04  0.00000000000E+00 0. -1.
         24    1    1    2    0    0 -0.53676392453E+02  0.39392728073E+02 -0.12105273737E+04  0.12150212676E+04  0.80419002446E+02 0.  1.
        -24    1    1    2    0    0  0.53676392453E+02 -0.39392728073E+02 -0.82513588933E+03  0.83171473111E+03  0.80419002446E+02 0. -1.
<mgrwt>
<rscale>  0 0.10440384E+03</rscale>
<asrwt>0</asrwt>
<pdfrwt beam="1">  1        1 0.31403071E+00 0.10440385E+03</pdfrwt>
<pdfrwt beam="2">  1       -1 0.85174891E-03 0.10440385E+03</pdfrwt>
<totfact> 0.73291431E+03</totfact>
</mgrwt>
</event>
<event>
 4    1  0.6602701E-002  0.8130828E+02  0.7546771E-02  0.1325379E+00
         -2   -1    0    0    0  501 -0.00000000000E+00  0.00000000000E+00  0.46673080463E+02  0.46673080463E+02  0.00000000000E+00 0.  1.
          2   -1    0    0  501    0  0.00000000000E+00 -0.00000000000E+00 -0.17845352797E+04  0.17845352797E+04  0.00000000000E+00 0. -1.
         24    1    1    2    0    0  0.94321522929E+01 -0.74063807234E+01 -0.17474465421E+04  0.17493371469E+04  0.80419002446E+02 0. -1.
        -24    1    1    2    0    0 -0.94321522929E+01  0.74063807234E+01  0.95843429235E+01  0.81871213231E+02  0.80419002446E+02 0.  1.
<mgrwt>
<rscale>  0 0.81308277E+02</rscale>
<asrwt>0</asrwt>
<pdfrwt beam="1">  1        2 0.27454385E+00 0.81308277E+02</pdfrwt>
<pdfrwt beam="2">  1       -2 0.71804750E-02 0.81308277E+02</pdfrwt>
<totfact> 0.11081933E+03</totfact>
</mgrwt>
</event>
<event>
 4    1  0.6602701E-002  0.9982264E+02  0.7546771E-02  0.1280669E+00
          2   -1    0    0  501    0  0.00000000000E+00  0.00000000000E+00  0.33504469689E+02  0.33504469689E+02  0.00000000000E+00 0. -1.
         -2   -1    0    0    0  501 -0.00000000000E+00 -0.00000000000E+00 -0.52397216463E+03  0.52397216463E+03  0.00000000000E+00 0.  1.
         24    1    1    2    0    0 -0.30575821575E+01 -0.59059247688E+02 -0.61944849713E+02  0.11748073845E+03  0.80419002446E+02 0. -1.
        -24    1    1    2    0    0  0.30575821575E+01  0.59059247688E+02 -0.42852284523E+03  0.43999589587E+03  0.80419002446E+02 0.  1.
<mgrwt>
<rscale>  0 0.99822640E+02</rscale>
<asrwt>0</asrwt>
<pdfrwt beam="1">  1        2 0.51545337E-02 0.99822640E+02</pdfrwt>
<pdfrwt beam="2">  1       -2 0.80611104E-01 0.99822640E+02</pdfrwt>
<totfact> 0.19918775E+03</totfact>
</mgrwt>
</event>
<event>
 4    1  0.6602701E-002  0.9948613E+02  0.7546771E-02  0.1281380E+00
         -3   -1    0    0    0  501 -0.00000000000E+00  0.00000000000E+00  0.12129151540E+02  0.12129151540E+02  0.00000000000E+00 0.  1.
          3   -1    0    0  501    0  0.00000000000E+00 -0.00000000000E+00 -0.88712197822E+03  0.88712197822E+03  0.00000000000E+00 0. -1.
         24    1    1    2    0    0  0.18647232465E+02 -0.55520754783E+02 -0.31019429888E+03  0.32575756707E+03  0.80419002446E+02 0.  1.
        -24    1    1    2    0    0 -0.18647232465E+02  0.55520754783E+02 -0.56479852780E+03  0.57349356269E+03  0.80419002446E+02 0. -1.
<mgrwt>
<rscale>  0 0.99486127E+02</rscale>
<asrwt>0</asrwt>
<pdfrwt beam="1">  1        3 0.13648038E+00 0.99486127E+02</pdfrwt>
<pdfrwt beam="2">  1       -3 0.18660223E-02 0.99486127E+02</pdfrwt>
<totfact> 0.10113163E+03</totfact>
</mgrwt>
</event>
<event>
 4    1  0.6602701E-002  0.1067297E+03  0.7546771E-02  0.1266749E+00
          1   -1    0    0  501    0  0.00000000000E+00  0.00000000000E+00  0.74535977782E+02  0.74535977782E+02  0.00000000000E+00 0. -1.
         -1   -1    0    0    0  501 -0.00000000000E+00 -0.00000000000E+00 -0.16546031409E+03  0.16546031409E+03  0.00000000000E+00 0.  1.
         24    1    1    2    0    0  0.43307263868E+02 -0.55213108397E+02 -0.78618029211E+02  0.13255948444E+03  0.80419002446E+02 0. -1.
        -24    1    1    2    0    0 -0.43307263868E+02  0.55213108397E+02 -0.12306307093E+02  0.10743680743E+03  0.80419002446E+02 0.  1.
<mgrwt>
<rscale>  0 0.10672967E+03</rscale>
<asrwt>0</asrwt>
<pdfrwt beam="1">  1        1 0.11467074E-01 0.10672967E+03</pdfrwt>
<pdfrwt beam="2">  1       -1 0.25455432E-01 0.10672967E+03</pdfrwt>
<totfact> 0.67015366E+03</totfact>
</mgrwt>
</event>
<event>
 4    1  0.6602701E-002  0.9857774E+02  0.7546771E-02  0.1283315E+00
          3   -1    0    0  501    0  0.00000000000E+00  0.00000000000E+00  0.35403906595E+02  0.35403906595E+02  0.00000000000E+00 0. -1.
         -3   -1    0    0    0  501 -0.00000000000E+00 -0.00000000000E+00 -0.27450752647E+03  0.27450752647E+03  0.00000000000E+00 0.  1.
         24    1    1    2    0    0  0.84964993682E+01 -0.56375217022E+02 -0.12117565049E+03  0.15620854593E+03  0.80419002446E+02 0.  1.
        -24    1    1    2    0    0 -0.84964993682E+01  0.56375217022E+02 -0.11792796939E+03  0.15370288714E+03  0.80419002446E+02 0.  0.
<mgrwt>
<rscale>  0 0.98577744E+02</rscale>
<asrwt>0</asrwt>
<pdfrwt beam="1">  1        3 0.54467548E-02 0.98577744E+02</pdfrwt>
<pdfrwt beam="2">  1       -3 0.42231928E-01 0.98577744E+02</pdfrwt>
<totfact> 0.23928360E+03</totfact>
</mgrwt>
</event>
<event>
 4    1  0.6602701E-002  0.1092358E+03  0.7546771E-02  0.1261992E+00
          2   -1    0    0  501    0  0.00000000000E+00  0.00000000000E+00  0.82747822746E+03  0.82747822746E+03  0.00000000000E+00 0. -1.
         -2   -1    0    0    0  501 -0.00000000000E+00 -0.00000000000E+00 -0.33515940154E+02  0.33515940154E+02  0.00000000000E+00 0.  1.
         24    1    1    2    0    0  0.71290315650E+02 -0.19568848398E+02  0.72192766219E+03  0.73014520085E+03  0.80419002446E+02 0. -1.
        -24    1    1    2    0    0 -0.71290315650E+02  0.19568848398E+02  0.72034625112E+02  0.13084896676E+03  0.80419002446E+02 0.  1.
<mgrwt>
<rscale>  0 0.10923582E+03</rscale>
<asrwt>0</asrwt>
<pdfrwt beam="1">  1        2 0.12730433E+00 0.10923582E+03</pdfrwt>
<pdfrwt beam="2">  1       -2 0.51562991E-02 0.10923582E+03</pdfrwt>
<totfact> 0.60801847E+03</totfact>
</mgrwt>
</event>
<event>
 4    1  0.6602701E-002  0.8888528E+02  0.7546771E-02  0.1305574E+00
          4   -1    0    0  501    0  0.00000000000E+00  0.00000000000E+00  0.22378766380E+03  0.22378766380E+03  0.00000000000E+00 0. -1.
         -4   -1    0    0    0  501 -0.00000000000E+00 -0.00000000000E+00 -0.36386418763E+02  0.36386418763E+02  0.00000000000E+00 0.  1.
         24    1    1    2    0    0 -0.36720546778E+02  0.92183346942E+01  0.11613782664E+03  0.14624837429E+03  0.80419002446E+02 0.  1.
        -24    1    1    2    0    0  0.36720546778E+02 -0.92183346942E+01  0.71263418392E+02  0.11392570827E+03  0.80419002446E+02 0. -1.
<mgrwt>
<rscale>  0 0.88885276E+02</rscale>
<asrwt>0</asrwt>
<pdfrwt beam="1">  1        4 0.34428871E-01 0.88885276E+02</pdfrwt>
<pdfrwt beam="2">  1       -4 0.55979107E-02 0.88885276E+02</pdfrwt>
<totfact> 0.23964618E+03</totfact>
</mgrwt>
</event>
<event>
 4    1  0.6602701E-002  0.1078451E+03  0.7546771E-02  0.1264613E+00
         -2   -1    0    0    0  501 -0.00000000000E+00  0.00000000000E+00  0.71321053143E+01  0.71321053143E+01  0.00000000000E+00 0.  1.
          2   -1    0    0  501    0  0.00000000000E+00 -0.00000000000E+00 -0.16316631252E+04  0.16316631252E+04  0.00000000000E+00 0. -1.
         24    1    1    2    0    0 -0.63659702478E+02  0.33328420127E+02 -0.83183246486E+03  0.83879425776E+03  0.80419002446E+02 0. -1.
        -24    1    1    2    0    0  0.63659702478E+02 -0.33328420127E+02 -0.79269855502E+03  0.80000097275E+03  0.80419002446E+02 0.  1.
<mgrwt>
<rscale>  0 0.10784506E+03</rscale>
<asrwt>0</asrwt>
<pdfrwt beam="1">  1        2 0.25102530E+00 0.10784506E+03</pdfrwt>
<pdfrwt beam="2">  1       -2 0.10972461E-02 0.10784506E+03</pdfrwt>
<totfact> 0.20591783E+04</totfact>
</mgrwt>
</event>
<event>
 4    1  0.6602701E-002  0.9531731E+02  0.7546771E-02  0.1290463E+00
          2   -1    0    0  501    0  0.00000000000E+00  0.00000000000E+00  0.18502586153E+04  0.18502586153E+04  0.00000000000E+00 0. -1.
         -2   -1    0    0    0  501 -0.00000000000E+00 -0.00000000000E+00 -0.80503485810E+01  0.80503485810E+01  0.00000000000E+00 0.  1.
         24    1    1    2    0    0  0.41100562346E+02  0.30478135862E+02  0.15013958515E+04  0.15044184563E+04  0.80419002446E+02 0. -1.
        -24    1    1    2    0    0 -0.41100562346E+02 -0.30478135862E+02  0.34081241528E+03  0.35389050758E+03  0.80419002446E+02 0.  1.
<mgrwt>
<rscale>  0 0.95317307E+02</rscale>
<asrwt>0</asrwt>
<pdfrwt beam="1">  1        2 0.28465483E+00 0.95317307E+02</pdfrwt>
<pdfrwt beam="2">  1       -2 0.12385166E-02 0.95317307E+02</pdfrwt>
<totfact> 0.13346452E+04</totfact>
</mgrwt>
</event>
<event>
 4    1  0.6602701E-002  0.8505064E+02  0.7546771E-02  0.1315300E+00
          2   -1    0    0  501    0  0.00000000000E+00  0.00000000000E+00  0.59017515250E+02  0.59017515250E+02  0.00000000000E+00 0. -1.
         -2   -1    0    0    0  501 -0.00000000000E+00 -0.00000000000E+00 -0.19912579076E+03  0.19912579076E+03  0.00000000000E+00 0.  1.
         24    1    1    2    0    0  0.25669134365E+02 -0.10367817148E+02  0.99779339148E+01  0.85633937262E+02  0.80419002446E+02 0. -1.
        -24    1    1    2    0    0 -0.25669134365E+02  0.10367817148E+02 -0.15008620942E+03  0.17250936874E+03  0.80419002446E+02 0.  1.
<mgrwt>
<rscale>  0 0.85050644E+02</rscale>
<asrwt>0</asrwt>
<pdfrwt beam="1">  1        2 0.90796177E-02 0.85050644E+02</pdfrwt>
<pdfrwt beam="2">  1       -2 0.30634737E-01 0.85050644E+02</pdfrwt>
<totfact> 0.64727451E+03</totfact>
</mgrwt>
</event>
<event>
 4    1  0.6890452E-002  0.2264374E+03  0.7546771E-02  0.1129173E+00
          1   -1    0    0  501    0  0.00000000000E+00  0.00000000000E+00  0.17071846747E+04  0.17071846747E+04  0.00000000000E+00 0. -1.
         -1   -1    0    0    0  501 -0.00000000000E+00 -0.00000000000E+00 -0.11075165541E+03  0.11075165541E+03  0.00000000000E+00 0.  1.
         24    1    1    2    0    0  0.20596548275E+03 -0.48835654815E+02  0.22224400715E+02  0.22752547375E+03  0.80419002446E+02 0.  1.
        -24    1    1    2    0    0 -0.20596548275E+03  0.48835654815E+02  0.15742086185E+04  0.15904108563E+04  0.80419002446E+02 0. -1.
<mgrwt>
<rscale>  0 0.22643745E+03</rscale>
<asrwt>0</asrwt>
<pdfrwt beam="1">  1        1 0.26264378E+00 0.22643745E+03</pdfrwt>
<pdfrwt beam="2">  1       -1 0.17038718E-01 0.22643745E+03</pdfrwt>
<totfact> 0.13943980E+02</totfact>
</mgrwt>
</event>
<event>
 4    1  0.6602701E-002  0.1256808E+03  0.7546771E-02  0.1234009E+00
          1   -1    0    0  501    0  0.00000000000E+00  0.00000000000E+00  0.54667356487E+03  0.54667356487E+03  0.00000000000E+00 0. -1.
         -1   -1    0    0    0  501 -0.00000000000E+00 -0.00000000000E+00 -0.47809840106E+02  0.47809840106E+02  0.00000000000E+00 0.  1.
         24    1    1    2    0    0 -0.22767894566E+02  0.93861963515E+02  0.62465993251E+02  0.14034835761E+03  0.80419002446E+02 0.  1.
        -24    1    1    2    0    0  0.22767894566E+02 -0.93861963515E+02  0.43639773151E+03  0.45413504736E+03  0.80419002446E+02 0. -1.
<mgrwt>
<rscale>  0 0.12568079E+03</rscale>
<asrwt>0</asrwt>
<pdfrwt beam="1">  1        1 0.84103621E-01 0.12568079E+03</pdfrwt>
<pdfrwt beam="2">  1       -1 0.73553604E-02 0.12568079E+03</pdfrwt>
<totfact> 0.37907341E+03</totfact>
</mgrwt>
</event>
<event>
 4    1  0.6602701E-002  0.8406423E+02  0.7546771E-02  0.1317898E+00
          1   -1    0    0  501    0  0.00000000000E+00  0.00000000000E+00  0.24301684199E+02  0.24301684199E+02  0.00000000000E+00 0. -1.
         -1   -1    0    0    0  501 -0.00000000000E+00 -0.00000000000E+00 -0.38619511780E+03  0.38619511780E+03  0.00000000000E+00 0.  1.
         24    1    1    2    0    0  0.70489669020E+01  0.23449744114E+02 -0.28295892469E+03  0.29518222753E+03  0.80419002446E+02 0.  1.
        -24    1    1    2    0    0 -0.70489669020E+01 -0.23449744114E+02 -0.78934508909E+02  0.11531457447E+03  0.80419002446E+02 0.  1.
<mgrwt>
<rscale>  0 0.84064228E+02</rscale>
<asrwt>0</asrwt>
<pdfrwt beam="1">  1        1 0.37387209E-02 0.84064228E+02</pdfrwt>
<pdfrwt beam="2">  1       -1 0.59414629E-01 0.84064228E+02</pdfrwt>
<totfact> 0.67377251E+03</totfact>
</mgrwt>
</event>
<event>
 4    1  0.6602701E-002  0.8273586E+02  0.7546771E-02  0.1321462E+00
         -2   -1    0    0    0  501 -0.00000000000E+00  0.00000000000E+00  0.65150900795E+02  0.65150900795E+02  0.00000000000E+00 0.  1.
          2   -1    0    0  501    0  0.00000000000E+00 -0.00000000000E+00 -0.10549944946E+03  0.10549944946E+03  0.00000000000E+00 0. -1.
         24    1    1    2    0    0  0.15226554902E+02  0.12089439794E+02 -0.14712270233E+02  0.84033739525E+02  0.80419002446E+02 0.  0.
        -24    1    1    2    0    0 -0.15226554902E+02 -0.12089439794E+02 -0.25636278436E+02  0.86616610735E+02  0.80419002446E+02 0.  0.
<mgrwt>
<rscale>  0 0.82735846E+02</rscale>
<asrwt>0</asrwt>
<pdfrwt beam="1">  1        2 0.16230684E-01 0.82735856E+02</pdfrwt>
<pdfrwt beam="2">  1       -2 0.10023216E-01 0.82735856E+02</pdfrwt>
<totfact> 0.20570574E+04</totfact>
</mgrwt>
</event>
<event>
 4    1  0.6602701E-002  0.9031440E+02  0.7546771E-02  0.1302092E+00
         -2   -1    0    0    0  501 -0.00000000000E+00  0.00000000000E+00  0.29764936105E+01  0.29764936105E+01  0.00000000000E+00 0.  1.
          2   -1    0    0  501    0  0.00000000000E+00 -0.00000000000E+00 -0.27404511572E+04  0.27404511572E+04  0.00000000000E+00 0. -1.
         24    1    1    2    0    0  0.38848593583E+02  0.13426164334E+02 -0.13762441368E+04  0.13792043413E+04  0.80419002446E+02 0.  1.
        -24    1    1    2    0    0 -0.38848593583E+02 -0.13426164334E+02 -0.13612305267E+04  0.13642233094E+04  0.80419002446E+02 0.  0.
<mgrwt>
<rscale>  0 0.90314401E+02</rscale>
<asrwt>0</asrwt>
<pdfrwt beam="1">  1        2 0.42160590E+00 0.90314401E+02</pdfrwt>
<pdfrwt beam="2">  1       -2 0.45792424E-03 0.90314401E+02</pdfrwt>
<totfact> 0.18785598E+04</totfact>
</mgrwt>
</event>
<event>
 4    1  0.6602701E-002  0.1116421E+03  0.7546771E-02  0.1257559E+00
          1   -1    0    0  501    0  0.00000000000E+00  0.00000000000E+00  0.27619205129E+04  0.27619205129E+04  0.00000000000E+00 0. -1.
         -1   -1    0    0    0  501 -0.00000000000E+00 -0.00000000000E+00 -0.72690865520E+01  0.72690865520E+01  0.00000000000E+00 0.  1.
         24    1    1    2    0    0  0.18752255738E+02 -0.75133827812E+02  0.52472421123E+03  0.53646943341E+03  0.80419002446E+02 0.  1.
        -24    1    1    2    0    0 -0.18752255738E+02  0.75133827812E+02  0.22299272151E+04  0.22327201661E+04  0.80419002446E+02 0. -1.
<mgrwt>
<rscale>  0 0.11164208E+03</rscale>
<asrwt>0</asrwt>
<pdfrwt beam="1">  1        1 0.42491001E+00 0.11164208E+03</pdfrwt>
<pdfrwt beam="2">  1       -1 0.11183232E-02 0.11164208E+03</pdfrwt>
<totfact> 0.17123997E+03</totfact>
</mgrwt>
</event>
<event>
 4    1  0.6602701E-002  0.8292358E+02  0.7546771E-02  0.1320954E+00
          1   -1    0    0  501    0  0.00000000000E+00  0.00000000000E+00  0.13264136350E+04  0.13264136350E+04  0.00000000000E+00 0. -1.
         -1   -1    0    0    0  501 -0.00000000000E+00 -0.00000000000E+00 -0.12149606504E+02  0.12149606504E+02  0.00000000000E+00 0.  1.
         24    1    1    2    0    0 -0.17150957361E+02 -0.10721453050E+02  0.15037153826E+03  0.17172047160E+03  0.80419002446E+02 0.  1.
        -24    1    1    2    0    0  0.17150957361E+02  0.10721453050E+02  0.11638924903E+04  0.11668427699E+04  0.80419002446E+02 0.  0.
<mgrwt>
<rscale>  0 0.82923584E+02</rscale>
<asrwt>0</asrwt>
<pdfrwt beam="1">  1        1 0.20406352E+00 0.82923584E+02</pdfrwt>
<pdfrwt beam="2">  1       -1 0.18691713E-02 0.82923584E+02</pdfrwt>
<totfact> 0.67593593E+03</totfact>
</mgrwt>
</event>
<event>
 4    1  0.6602701E-002  0.8955149E+02  0.7546771E-02  0.1303941E+00
          2   -1    0    0  501    0  0.00000000000E+00  0.00000000000E+00  0.24045462357E+03  0.24045462357E+03  0.00000000000E+00 0. -1.
         -2   -1    0    0    0  501 -0.00000000000E+00 -0.00000000000E+00 -0.73835373899E+02  0.73835373899E+02  0.00000000000E+00 0.  1.
         24    1    1    2    0    0 -0.39040654150E+02  0.52991247466E+01  0.19967145387E+03  0.21883363280E+03  0.80419002446E+02 0. -1.
        -24    1    1    2    0    0  0.39040654150E+02 -0.52991247466E+01 -0.33052204197E+02  0.95456364671E+02  0.80419002446E+02 0.  1.
<mgrwt>
<rscale>  0 0.89551490E+02</rscale>
<asrwt>0</asrwt>
<pdfrwt beam="1">  1        2 0.36993019E-01 0.89551490E+02</pdfrwt>
<pdfrwt beam="2">  1       -2 0.11359288E-01 0.89551490E+02</pdfrwt>
<totfact> 0.69353713E+03</totfact>
</mgrwt>
</event>
<event>
 4    1  0.6602701E-002  0.8902223E+02  0.7546771E-02  0.1305237E+00
          1   -1    0    0  501    0  0.00000000000E+00  0.00000000000E+00  0.32060891151E+03  0.32060891151E+03  0.00000000000E+00 0. -1.
         -1   -1    0    0    0  501 -0.00000000000E+00 -0.00000000000E+00 -0.85502564191E+02  0.85502564191E+02  0.00000000000E+00 0.  1.
         24    1    1    2    0    0  0.25521926123E+02 -0.28396699491E+02 -0.53653512707E+02  0.10394063996E+03  0.80419002446E+02 0.  1.
        -24    1    1    2    0    0 -0.25521926123E+02  0.28396699491E+02  0.28875986002E+03  0.30217083574E+03  0.80419002446E+02 0. -1.
<mgrwt>
<rscale>  0 0.89022229E+02</rscale>
<asrwt>0</asrwt>
<pdfrwt beam="1">  1        1 0.49324447E-01 0.89022229E+02</pdfrwt>
<pdfrwt beam="2">  1       -1 0.13154241E-01 0.89022229E+02</pdfrwt>
<totfact> 0.30288181E+03</totfact>
</mgrwt>
</event>
<event>
 4    1  0.6602701E-002  0.8063157E+02  0.7546771E-02  0.1327269E+00
          2   -1    0    0  501    0  0.00000000000E+00  0.00000000000E+00  0.74464231507E+03  0.74464231507E+03  0.00000000000E+00 0. -1.
         -2   -1    0    0    0  501 -0.00000000000E+00 -0.00000000000E+00 -0.12741865407E+02  0.12741865407E+02  0.00000000000E+00 0.  1.
         24    1    1    2    0    0  0.49850193275E+01 -0.30631673430E+01  0.57841670399E+03  0.58400970267E+03  0.80419002446E+02 0. -1.
        -24    1    1    2    0    0 -0.49850193275E+01  0.30631673430E+01  0.15348374567E+03  0.17337447780E+03  0.80419002446E+02 0.  1.
<mgrwt>
<rscale>  0 0.80631566E+02</rscale>
<asrwt>0</asrwt>
<pdfrwt beam="1">  1        2 0.11456032E+00 0.80631566E+02</pdfrwt>
<pdfrwt beam="2">  1       -2 0.19602876E-02 0.80631566E+02</pdfrwt>
<totfact> 0.27695322E+04</totfact>
</mgrwt>
</event>
<event>
 4    1  0.6602701E-002  0.1144392E+03  0.7546771E-02  0.1252563E+00
          2   -1    0    0  501    0  0.00000000000E+00  0.00000000000E+00  0.12305767670E+04  0.12305767670E+04  0.00000000000E+00 0. -1.
         -2   -1    0    0    0  501 -0.00000000000E+00 -0.00000000000E+00 -0.22039160618E+02  0.22039160618E+02  0.00000000000E+00 0.  1.
         24    1    1    2    0    0 -0.23548853781E+02 -0.77939487169E+02  0.10546502945E+04  0.10608409739E+04  0.80419002446E+02 0. -1.
        -24    1    1    2    0    0  0.23548853781E+02  0.77939487169E+02  0.15388731186E+03  0.19177495373E+03  0.80419002446E+02 0.  1.
<mgrwt>
<rscale>  0 0.11443919E+03</rscale>
<asrwt>0</asrwt>
<pdfrwt beam="1">  1        2 0.18931945E+00 0.11443919E+03</pdfrwt>
<pdfrwt beam="2">  1       -2 0.33906411E-02 0.11443919E+03</pdfrwt>
<totfact> 0.65628926E+03</totfact>
</mgrwt>
</event>
<event>
 4    1  0.6602701E-002  0.1009232E+03  0.7546771E-02  0.1278366E+00
          2   -1    0    0  501    0  0.00000000000E+00  0.00000000000E+00  0.42029454358E+03  0.42029454358E+03  0.00000000000E+00 0. -1.
         -2   -1    0    0    0  501 -0.00000000000E+00 -0.00000000000E+00 -0.28749487848E+02  0.28749487848E+02  0.00000000000E+00 0.  1.
         24    1    1    2    0    0  0.44013368967E+02  0.42203157778E+02  0.28475140664E+03  0.30210736951E+03  0.80419002446E+02 0.  0.
        -24    1    1    2    0    0 -0.44013368967E+02 -0.42203157778E+02  0.10679364908E+03  0.14693666191E+03  0.80419002446E+02 0.  1.
<mgrwt>
<rscale>  0 0.10092323E+03</rscale>
<asrwt>0</asrwt>
<pdfrwt beam="1">  1        2 0.64660694E-01 0.10092323E+03</pdfrwt>
<pdfrwt beam="2">  1       -2 0.44229984E-02 0.10092323E+03</pdfrwt>
<totfact> 0.16358944E+04</totfact>
</mgrwt>
</event>
<event>
 4    1  0.6602701E-002  0.1067646E+03  0.7546771E-02  0.1266681E+00
          2   -1    0    0  501    0  0.00000000000E+00  0.00000000000E+00  0.16491800041E+04  0.16491800041E+04  0.00000000000E+00 0. -1.
         -2   -1    0    0    0  501 -0.00000000000E+00 -0.00000000000E+00 -0.82614209523E+01  0.82614209523E+01  0.00000000000E+00 0.  1.
         24    1    1    2    0    0 -0.37794560430E+02  0.59186405215E+02  0.11554240498E+04  0.11603462458E+04  0.80419002446E+02 0.  1.
        -24    1    1    2    0    0  0.37794560430E+02 -0.59186405215E+02  0.48549453343E+03  0.49709517932E+03  0.80419002446E+02 0.  0.
<mgrwt>
<rscale>  0 0.10676458E+03</rscale>
<asrwt>0</asrwt>
<pdfrwt beam="1">  1        2 0.25371974E+00 0.10676458E+03</pdfrwt>
<pdfrwt beam="2">  1       -2 0.12709892E-02 0.10676458E+03</pdfrwt>
<totfact> 0.16348712E+04</totfact>
</mgrwt>
</event>
<event>
 4    1  0.6602701E-002  0.2262606E+03  0.7546771E-02  0.1129300E+00
         -2   -1    0    0    0  501 -0.00000000000E+00  0.00000000000E+00  0.47843795860E+03  0.47843795860E+03  0.00000000000E+00 0.  1.
          2   -1    0    0  501    0  0.00000000000E+00 -0.00000000000E+00 -0.16461865562E+03  0.16461865562E+03  0.00000000000E+00 0. -1.
         24    1    1    2    0    0  0.18638546321E+03  0.99935598352E+02 -0.33309053810E+02  0.22869930856E+03  0.80419002446E+02 0. -1.
        -24    1    1    2    0    0 -0.18638546321E+03 -0.99935598352E+02  0.34712835679E+03  0.41435730567E+03  0.80419002446E+02 0.  1.
<mgrwt>
<rscale>  0 0.22626065E+03</rscale>
<asrwt>0</asrwt>
<pdfrwt beam="1">  1        2 0.25325947E-01 0.22626065E+03</pdfrwt>
<pdfrwt beam="2">  1       -2 0.73605840E-01 0.22626065E+03</pdfrwt>
<totfact> 0.36391607E+02</totfact>
</mgrwt>
</event>
<event>
 4    1  0.6602701E-002  0.1242625E+03  0.7546771E-02  0.1236226E+00
         -2   -1    0    0    0  501 -0.00000000000E+00  0.00000000000E+00  0.87498414299E+02  0.87498414299E+02  0.00000000000E+00 0.  1.
          2   -1    0    0  501    0  0.00000000000E+00 -0.00000000000E+00 -0.21020497502E+03  0.21020497502E+03  0.00000000000E+00 0. -1.
         24    1    1    2    0    0 -0.52435579184E+02 -0.78895288294E+02 -0.12098102846E+03  0.17342889517E+03  0.80419002446E+02 0. -1.
        -24    1    1    2    0    0  0.52435579184E+02  0.78895288294E+02 -0.17255322624E+01  0.12427449415E+03  0.80419002446E+02 0.  1.
<mgrwt>
<rscale>  0 0.12426251E+03</rscale>
<asrwt>0</asrwt>
<pdfrwt beam="1">  1        2 0.32339227E-01 0.12426251E+03</pdfrwt>
<pdfrwt beam="2">  1       -2 0.13461295E-01 0.12426251E+03</pdfrwt>
<totfact> 0.62548102E+03</totfact>
</mgrwt>
</event>
<event>
 4    1  0.6602701E-002  0.1417239E+03  0.7546771E-02  0.1211028E+00
         -2   -1    0    0    0  501 -0.00000000000E+00  0.00000000000E+00  0.34310210034E+02  0.34310210034E+02  0.00000000000E+00 0.  1.
          2   -1    0    0  501    0  0.00000000000E+00 -0.00000000000E+00 -0.13220693725E+04  0.13220693725E+04  0.00000000000E+00 0. -1.
         24    1    1    2    0    0 -0.11336776056E+03 -0.27680340942E+02 -0.11501195144E+04  0.11588186069E+04  0.80419002446E+02 0.  1.
        -24    1    1    2    0    0  0.11336776056E+03  0.27680340942E+02 -0.13763964807E+03  0.19756097561E+03  0.80419002446E+02 0. -1.
<mgrwt>
<rscale>  0 0.14172391E+03</rscale>
<asrwt>0</asrwt>
<pdfrwt beam="1">  1        2 0.20339527E+00 0.14172391E+03</pdfrwt>
<pdfrwt beam="2">  1       -2 0.52784942E-02 0.14172391E+03</pdfrwt>
<totfact> 0.30502409E+03</totfact>
</mgrwt>
</event>
<event>
 4    1  0.6602701E-002  0.1808808E+03  0.7546771E-02  0.1166953E+00
         -2   -1    0    0    0  501 -0.00000000000E+00  0.00000000000E+00  0.85353983217E+03  0.85353983217E+03  0.00000000000E+00 0.  1.
          2   -1    0    0  501    0  0.00000000000E+00 -0.00000000000E+00 -0.39099571665E+02  0.39099571665E+02  0.00000000000E+00 0. -1.
         24    1    1    2    0    0  0.11845158123E+03 -0.11054343419E+03  0.46975675312E+03  0.50337784119E+03  0.80419002446E+02 0. -1.
        -24    1    1    2    0    0 -0.11845158123E+03  0.11054343419E+03  0.34468350738E+03  0.38926156265E+03  0.80419002446E+02 0.  0.
<mgrwt>
<rscale>  0 0.18088077E+03</rscale>
<asrwt>0</asrwt>
<pdfrwt beam="1">  1        2 0.60153193E-02 0.18088079E+03</pdfrwt>
<pdfrwt beam="2">  1       -2 0.13131381E+00 0.18088079E+03</pdfrwt>
<totfact> 0.54157288E+02</totfact>
</mgrwt>
</event>
<event>
 4    1  0.6602701E-002  0.8960474E+02  0.7546771E-02  0.1303812E+00
          1   -1    0    0  501    0  0.00000000000E+00  0.00000000000E+00  0.27216427202E+03  0.27216427202E+03  0.00000000000E+00 0. -1.
         -1   -1    0    0    0  501 -0.00000000000E+00 -0.00000000000E+00 -0.79988804729E+02  0.79988804729E+02  0.00000000000E+00 0.  1.
         24    1    1    2    0    0  0.38414146608E+02  0.92815562513E+01 -0.43800711456E+02  0.99737215845E+02  0.80419002446E+02 0.  1.
        -24    1    1    2    0    0 -0.38414146608E+02 -0.92815562513E+01  0.23597617874E+03  0.25241586090E+03  0.80419002446E+02 0. -1.
<mgrwt>
<rscale>  0 0.89604743E+02</rscale>
<asrwt>0</asrwt>
<pdfrwt beam="1">  1        1 0.41871426E-01 0.89604743E+02</pdfrwt>
<pdfrwt beam="2">  1       -1 0.12305970E-01 0.89604743E+02</pdfrwt>
<totfact> 0.40981424E+03</totfact>
</mgrwt>
</event>
<event>
 4    1  0.6602701E-002  0.8917217E+02  0.7546771E-02  0.1304869E+00
         -1   -1    0    0    0  501 -0.00000000000E+00  0.00000000000E+00  0.83210415830E+01  0.83210415830E+01  0.00000000000E+00 0.  1.
          1   -1    0    0  501    0  0.00000000000E+00 -0.00000000000E+00 -0.10840119962E+04  0.10840119962E+04  0.00000000000E+00 0. -1.
         24    1    1    2    0    0  0.11886648721E+02 -0.36649246624E+02 -0.34987359952E+03  0.36105845966E+03  0.80419002446E+02 0.  1.
        -24    1    1    2    0    0 -0.11886648721E+02  0.36649246624E+02 -0.72581735509E+03  0.73127457812E+03  0.80419002446E+02 0. -1.
<mgrwt>
<rscale>  0 0.89172169E+02</rscale>
<asrwt>0</asrwt>
<pdfrwt beam="1">  1        1 0.16677103E+00 0.89172169E+02</pdfrwt>
<pdfrwt beam="2">  1       -1 0.12801606E-02 0.89172169E+02</pdfrwt>
<totfact> 0.16901455E+04</totfact>
</mgrwt>
</event>
<event>
 4    1  0.6602701E-002  0.9762628E+02  0.7546771E-02  0.1285368E+00
          1   -1    0    0  501    0  0.00000000000E+00  0.00000000000E+00  0.48398688387E+02  0.48398688387E+02  0.00000000000E+00 0. -1.
         -1   -1    0    0    0  501 -0.00000000000E+00 -0.00000000000E+00 -0.23817165900E+03  0.23817165900E+03  0.00000000000E+00 0.  1.
         24    1    1    2    0    0  0.27966586427E+02  0.47765525667E+02 -0.15451483862E+03  0.18277233573E+03  0.80419002446E+02 0.  1.
        -24    1    1    2    0    0 -0.27966586427E+02 -0.47765525667E+02 -0.35258131991E+02  0.10379801166E+03  0.80419002446E+02 0. -1.
<mgrwt>
<rscale>  0 0.97626284E+02</rscale>
<asrwt>0</asrwt>
<pdfrwt beam="1">  1        1 0.74459523E-02 0.97626284E+02</pdfrwt>
<pdfrwt beam="2">  1       -1 0.36641793E-01 0.97626284E+02</pdfrwt>
<totfact> 0.63970820E+03</totfact>
</mgrwt>
</event>
<event>
 4    1  0.6602701E-002  0.9658211E+02  0.7546771E-02  0.1287652E+00
         -2   -1    0    0    0  501 -0.00000000000E+00  0.00000000000E+00  0.16085621898E+02  0.16085621898E+02  0.00000000000E+00 0.  1.
          2   -1    0    0  501    0  0.00000000000E+00 -0.00000000000E+00 -0.63794961864E+03  0.63794961864E+03  0.00000000000E+00 0. -1.
         24    1    1    2    0    0  0.33005103059E+02 -0.42089792219E+02 -0.40957487509E+03  0.42080836695E+03  0.80419002446E+02 0. -1.
        -24    1    1    2    0    0 -0.33005103059E+02  0.42089792219E+02 -0.21228912165E+03  0.23322687359E+03  0.80419002446E+02 0.  1.
<mgrwt>
<rscale>  0 0.96582107E+02</rscale>
<asrwt>0</asrwt>
<pdfrwt beam="1">  1        2 0.98146094E-01 0.96582107E+02</pdfrwt>
<pdfrwt beam="2">  1       -2 0.24747111E-02 0.96582107E+02</pdfrwt>
<totfact> 0.24137580E+04</totfact>
</mgrwt>
</event>
<event>
 4    1  0.6602701E-002  0.1215731E+03  0.7546771E-02  0.1240524E+00
         -1   -1    0    0    0  501 -0.00000000000E+00  0.00000000000E+00  0.55882377702E+02  0.55882377702E+02  0.00000000000E+00 0.  1.
          1   -1    0    0  501    0  0.00000000000E+00 -0.00000000000E+00 -0.68740532166E+03  0.68740532166E+03  0.00000000000E+00 0. -1.
         24    1    1    2    0    0 -0.58877322252E+02  0.69615069633E+02 -0.24253706414E+02  0.12396876713E+03  0.80419002446E+02 0.  1.
        -24    1    1    2    0    0  0.58877322252E+02 -0.69615069633E+02 -0.60726923755E+03  0.61931893223E+03  0.80419002446E+02 0. -1.
<mgrwt>
<rscale>  0 0.12157308E+03</rscale>
<asrwt>0</asrwt>
<pdfrwt beam="1">  1        1 0.10575466E+00 0.12157308E+03</pdfrwt>
<pdfrwt beam="2">  1       -1 0.85972896E-02 0.12157308E+03</pdfrwt>
<totfact> 0.21893642E+03</totfact>
</mgrwt>
</event>
<event>
 4    1  0.6602701E-002  0.1514960E+03  0.7546771E-02  0.1198647E+00
          2   -1    0    0  501    0  0.00000000000E+00  0.00000000000E+00  0.39757550665E+03  0.39757550665E+03  0.00000000000E+00 0. -1.
         -2   -1    0    0    0  501 -0.00000000000E+00 -0.00000000000E+00 -0.58057034356E+02  0.58057034356E+02  0.00000000000E+00 0.  1.
         24    1    1    2    0    0  0.11793104375E+03  0.50755152958E+02  0.18692329718E+03  0.24060621691E+03  0.80419002446E+02 0. -1.
        -24    1    1    2    0    0 -0.11793104375E+03 -0.50755152958E+02  0.15259517511E+03  0.21502632410E+03  0.80419002446E+02 0.  1.
<mgrwt>
<rscale>  0 0.15149598E+03</rscale>
<asrwt>0</asrwt>
<pdfrwt beam="1">  1        2 0.61165461E-01 0.15149598E+03</pdfrwt>
<pdfrwt beam="2">  1       -2 0.89318517E-02 0.15149598E+03</pdfrwt>
<totfact> 0.61553320E+03</totfact>
</mgrwt>
</event>
<event>
 4    1  0.6602701E-002  0.9143982E+02  0.7546771E-02  0.1299402E+00
          1   -1    0    0  501    0  0.00000000000E+00  0.00000000000E+00  0.11109542958E+03  0.11109542958E+03  0.00000000000E+00 0. -1.
         -1   -1    0    0    0  501 -0.00000000000E+00 -0.00000000000E+00 -0.75509430389E+02  0.75509430389E+02  0.00000000000E+00 0.  1.
         24    1    1    2    0    0  0.29581869782E+02 -0.31920792167E+02  0.12449687394E+02  0.92283447394E+02  0.80419002446E+02 0.  1.
        -24    1    1    2    0    0 -0.29581869782E+02  0.31920792167E+02  0.23136311798E+02  0.94321412576E+02  0.80419002446E+02 0.  0.
<mgrwt>
<rscale>  0 0.91439816E+02</rscale>
<asrwt>0</asrwt>
<pdfrwt beam="1">  1        1 0.17091605E-01 0.91439816E+02</pdfrwt>
<pdfrwt beam="2">  1       -1 0.11616835E-01 0.91439816E+02</pdfrwt>
<totfact> 0.13587067E+04</totfact>
</mgrwt>
</event>
<event>
 4    1  0.6602701E-002  0.8806459E+02  0.7546771E-02  0.1307607E+00
          2   -1    0    0  501    0  0.00000000000E+00  0.00000000000E+00  0.65582116827E+03  0.65582116827E+03  0.00000000000E+00 0. -1.
         -2   -1    0    0    0  501 -0.00000000000E+00 -0.00000000000E+00 -0.23559167026E+02  0.23559167026E+02  0.00000000000E+00 0.  1.
         24    1    1    2    0    0 -0.23114046821E+01 -0.35816376703E+02  0.55586027527E+03  0.56279304989E+03  0.80419002446E+02 0. -1.
        -24    1    1    2    0    0  0.23114046821E+01  0.35816376703E+02  0.76401725981E+02  0.11658728541E+03  0.80419002446E+02 0.  1.
<mgrwt>
<rscale>  0 0.88064586E+02</rscale>
<asrwt>0</asrwt>
<pdfrwt beam="1">  1        2 0.10089555E+00 0.88064586E+02</pdfrwt>
<pdfrwt beam="2">  1       -2 0.36244877E-02 0.88064586E+02</pdfrwt>
<totfact> 0.13312489E+04</totfact>
</mgrwt>
</event>
<event>
 4    1  0.6602701E-002  0.8817942E+02  0.7546771E-02  0.1307321E+00
          3   -1    0    0  501    0  0.00000000000E+00  0.00000000000E+00  0.25721728213E+02  0.25721728213E+02  0.00000000000E+00 0. -1.
         -3   -1    0    0    0  501 -0.00000000000E+00 -0.00000000000E+00 -0.40395206806E+03  0.40395206806E+03  0.00000000000E+00 0.  1.
         24    1    1    2    0    0  0.32084216313E+02 -0.16703190867E+02 -0.29688762888E+03  0.30970610853E+03  0.80419002446E+02 0.  1.
        -24    1    1    2    0    0 -0.32084216313E+02  0.16703190867E+02 -0.81342710963E+02  0.11996768774E+03  0.80419002446E+02 0. -1.
<mgrwt>
<rscale>  0 0.88179416E+02</rscale>
<asrwt>0</asrwt>
<pdfrwt beam="1">  1        3 0.39571886E-02 0.88179416E+02</pdfrwt>
<pdfrwt beam="2">  1       -3 0.62146478E-01 0.88179416E+02</pdfrwt>
<totfact> 0.17883734E+03</totfact>
</mgrwt>
</event>
<event>
 4    1  0.6602701E-002  0.8514908E+02  0.7546771E-02  0.1315043E+00
         -2   -1    0    0    0  501 -0.00000000000E+00  0.00000000000E+00  0.14212667857E+04  0.14212667857E+04  0.00000000000E+00 0.  1.
          2   -1    0    0  501    0  0.00000000000E+00 -0.00000000000E+00 -0.64775944659E+01  0.64775944659E+01  0.00000000000E+00 0. -1.
         24    1    1    2    0    0  0.17484969957E+02 -0.21850066330E+02  0.37834382684E+03  0.38780719029E+03  0.80419002446E+02 0. -1.
        -24    1    1    2    0    0 -0.17484969957E+02  0.21850066330E+02  0.10364453644E+04  0.10399371899E+04  0.80419002446E+02 0.  1.
<mgrwt>
<rscale>  0 0.85149078E+02</rscale>
<asrwt>0</asrwt>
<pdfrwt beam="1">  1        2 0.99655413E-03 0.85149078E+02</pdfrwt>
<pdfrwt beam="2">  1       -2 0.21865618E+00 0.85149078E+02</pdfrwt>
<totfact> 0.14868644E+03</totfact>
</mgrwt>
</event>
<event>
 4    1  0.6602701E-002  0.1008278E+03  0.7546771E-02  0.1278565E+00
         -2   -1    0    0    0  501 -0.00000000000E+00  0.00000000000E+00  0.20557273579E+02  0.20557273579E+02  0.00000000000E+00 0.  1.
          2   -1    0    0  501    0  0.00000000000E+00 -0.00000000000E+00 -0.65970679299E+03  0.65970679299E+03  0.00000000000E+00 0. -1.
         24    1    1    2    0    0  0.39598139144E+02 -0.46162948682E+02 -0.48976822030E+03  0.50003915449E+03  0.80419002446E+02 0.  1.
        -24    1    1    2    0    0 -0.39598139144E+02  0.46162948682E+02 -0.14938129910E+03  0.18022491207E+03  0.80419002446E+02 0.  1.
<mgrwt>
<rscale>  0 0.10082781E+03</rscale>
<asrwt>0</asrwt>
<pdfrwt beam="1">  1        2 0.10149337E+00 0.10082781E+03</pdfrwt>
<pdfrwt beam="2">  1       -2 0.31626570E-02 0.10082781E+03</pdfrwt>
<totfact> 0.16324307E+04</totfact>
</mgrwt>
</event>
<event>
 4    1  0.7226103E-002  0.1176599E+03  0.7546771E-02  0.1247008E+00
         -1   -1    0    0    0  501 -0.00000000000E+00  0.00000000000E+00  0.16210108003E+02  0.16210108003E+02  0.00000000000E+00 0.  1.
          1   -1    0    0  501    0  0.00000000000E+00 -0.00000000000E+00 -0.24567553813E+04  0.24567553813E+04  0.00000000000E+00 0. -1.
         24    1    1    2    0    0  0.61959606327E+02 -0.59478041837E+02 -0.22156754567E+03  0.25087053140E+03  0.80419002446E+02 0.  1.
        -24    1    1    2    0    0 -0.61959606327E+02  0.59478041837E+02 -0.22189777276E+04  0.22220949579E+04  0.80419002446E+02 0. -1.
<mgrwt>
<rscale>  0 0.11765988E+03</rscale>
<asrwt>0</asrwt>
<pdfrwt beam="1">  1        1 0.37796213E+00 0.11765988E+03</pdfrwt>
<pdfrwt beam="2">  1       -1 0.24938644E-02 0.11765988E+03</pdfrwt>
<totfact> 0.86019617E+02</totfact>
</mgrwt>
</event>
<event>
 4    1  0.6602701E-002  0.9362836E+02  0.7546771E-02  0.1294296E+00
          2   -1    0    0  501    0  0.00000000000E+00  0.00000000000E+00  0.69550756193E+02  0.69550756193E+02  0.00000000000E+00 0. -1.
         -2   -1    0    0    0  501 -0.00000000000E+00 -0.00000000000E+00 -0.15783741880E+03  0.15783741880E+03  0.00000000000E+00 0.  1.
         24    1    1    2    0    0 -0.47940986584E+02  0.84629950601E+00  0.68859781229E+01  0.93881239162E+02  0.80419002446E+02 0.  1.
        -24    1    1    2    0    0  0.47940986584E+02 -0.84629950601E+00 -0.95172640732E+02  0.13350693583E+03  0.80419002446E+02 0. -1.
<mgrwt>
<rscale>  0 0.93628363E+02</rscale>
<asrwt>0</asrwt>
<pdfrwt beam="1">  1        2 0.10700116E-01 0.93628363E+02</pdfrwt>
<pdfrwt beam="2">  1       -2 0.24282680E-01 0.93628363E+02</pdfrwt>
<totfact> 0.80425121E+03</totfact>
</mgrwt>
</event>
<event>
 4    1  0.6602701E-002  0.8239698E+02  0.7546771E-02  0.1322384E+00
         -2   -1    0    0    0  501 -0.00000000000E+00  0.00000000000E+00  0.22990418422E+02  0.22990418422E+02  0.00000000000E+00 0.  1.
          2   -1    0    0  501    0  0.00000000000E+00 -0.00000000000E+00 -0.46279676786E+03  0.46279676786E+03  0.00000000000E+00 0. -1.
         24    1    1    2    0    0  0.16915875573E+02 -0.59916445899E+01 -0.36602439374E+03  0.37518411403E+03  0.80419002446E+02 0. -1.
        -24    1    1    2    0    0 -0.16915875573E+02  0.59916445899E+01 -0.73781955696E+02  0.11060307225E+03  0.80419002446E+02 0.  0.
<mgrwt>
<rscale>  0 0.82396982E+02</rscale>
<asrwt>0</asrwt>
<pdfrwt beam="1">  1        2 0.71199496E-01 0.82396982E+02</pdfrwt>
<pdfrwt beam="2">  1       -2 0.35369878E-02 0.82396982E+02</pdfrwt>
<totfact> 0.20106210E+04</totfact>
</mgrwt>
</event>
<event>
 4    1  0.6602701E-002  0.8182909E+02  0.7546771E-02  0.1323939E+00
          1   -1    0    0  501    0  0.00000000000E+00  0.00000000000E+00  0.16092007554E+03  0.16092007554E+03  0.00000000000E+00 0. -1.
         -1   -1    0    0    0  501 -0.00000000000E+00 -0.00000000000E+00 -0.41625852534E+02  0.41625852534E+02  0.00000000000E+00 0.  1.
         24    1    1    2    0    0 -0.15050965221E+02 -0.15009711698E+01  0.57716262110E+02  0.10013574454E+03  0.80419002446E+02 0.  0.
        -24    1    1    2    0    0  0.15050965221E+02  0.15009711698E+01  0.61577960892E+02  0.10241018353E+03  0.80419002446E+02 0. -1.
<mgrwt>
<rscale>  0 0.81829093E+02</rscale>
<asrwt>0</asrwt>
<pdfrwt beam="1">  1        1 0.24756934E-01 0.81829093E+02</pdfrwt>
<pdfrwt beam="2">  1       -1 0.64039774E-02 0.81829093E+02</pdfrwt>
<totfact> 0.20583523E+04</totfact>
</mgrwt>
</event>
<event>
 4    1  0.6602701E-002  0.8267425E+02  0.7546771E-02  0.1321629E+00
          4   -1    0    0  501    0  0.00000000000E+00  0.00000000000E+00  0.40439090776E+02  0.40439090776E+02  0.00000000000E+00 0. -1.
         -4   -1    0    0    0  501 -0.00000000000E+00 -0.00000000000E+00 -0.31708093557E+03  0.31708093557E+03  0.00000000000E+00 0.  1.
         24    1    1    2    0    0 -0.19117343963E+02  0.15303597211E+01 -0.16167682945E+02  0.84240279957E+02  0.80419002446E+02 0. -1.
        -24    1    1    2    0    0  0.19117343963E+02 -0.15303597211E+01 -0.26047416185E+03  0.27327974639E+03  0.80419002446E+02 0.  0.
<mgrwt>
<rscale>  0 0.82674245E+02</rscale>
<asrwt>0</asrwt>
<pdfrwt beam="1">  1        4 0.62213984E-02 0.82674245E+02</pdfrwt>
<pdfrwt beam="2">  1       -4 0.48781684E-01 0.82674245E+02</pdfrwt>
<totfact> 0.10035908E+03</totfact>
</mgrwt>
</event>
<event>
 4    1  0.6602701E-002  0.8313919E+02  0.7546771E-02  0.1320372E+00
         -1   -1    0    0    0  501 -0.00000000000E+00  0.00000000000E+00  0.22768545796E+02  0.22768545796E+02  0.00000000000E+00 0.  1.
          1   -1    0    0  501    0  0.00000000000E+00 -0.00000000000E+00 -0.34575815857E+03  0.34575815857E+03  0.00000000000E+00 0. -1.
         24    1    1    2    0    0 -0.79273664220E+01  0.19546487747E+02 -0.97139339608E+02  0.12785998426E+03  0.80419002446E+02 0.  0.
        -24    1    1    2    0    0  0.79273664220E+01 -0.19546487747E+02 -0.22585027317E+03  0.24066672010E+03  0.80419002446E+02 0. -1.
<mgrwt>
<rscale>  0 0.83139186E+02</rscale>
<asrwt>0</asrwt>
<pdfrwt beam="1">  1        1 0.53193561E-01 0.83139186E+02</pdfrwt>
<pdfrwt beam="2">  1       -1 0.35028533E-02 0.83139186E+02</pdfrwt>
<totfact> 0.19515161E+04</totfact>
</mgrwt>
</event>
<event>
 4    1  0.6602701E-002  0.9490397E+02  0.7546771E-02  0.1291393E+00
          2   -1    0    0  501    0  0.00000000000E+00  0.00000000000E+00  0.28236078908E+03  0.28236078908E+03  0.00000000000E+00 0. -1.
         -2   -1    0    0    0  501 -0.00000000000E+00 -0.00000000000E+00 -0.31909459308E+02  0.31909459308E+02  0.00000000000E+00 0.  1.
         24    1    1    2    0    0  0.38840444201E+02 -0.32108690734E+02  0.12819439908E+03  0.15950099697E+03  0.80419002446E+02 0. -1.
        -24    1    1    2    0    0 -0.38840444201E+02  0.32108690734E+02  0.12225693070E+03  0.15476925142E+03  0.80419002446E+02 0.  1.
<mgrwt>
<rscale>  0 0.94903973E+02</rscale>
<asrwt>0</asrwt>
<pdfrwt beam="1">  1        2 0.43440120E-01 0.94903973E+02</pdfrwt>
<pdfrwt beam="2">  1       -2 0.49091478E-02 0.94903973E+02</pdfrwt>
<totfact> 0.21157041E+04</totfact>
</mgrwt>
</event>
<event>
 4    1  0.6602701E-002  0.1169919E+03  0.7546771E-02  0.1248144E+00
          1   -1    0    0  501    0  0.00000000000E+00  0.00000000000E+00  0.57238782185E+03  0.57238782185E+03  0.00000000000E+00 0. -1.
         -1   -1    0    0    0  501 -0.00000000000E+00 -0.00000000000E+00 -0.23915823802E+02  0.23915823802E+02  0.00000000000E+00 0.  1.
         24    1    1    2    0    0 -0.72029542409E+02 -0.45073675404E+02  0.27061495824E+03  0.29482123868E+03  0.80419002446E+02 0.  0.
        -24    1    1    2    0    0  0.72029542409E+02  0.45073675404E+02  0.27785703980E+03  0.30148240698E+03  0.80419002446E+02 0. -1.
<mgrwt>
<rscale>  0 0.11699191E+03</rscale>
<asrwt>0</asrwt>
<pdfrwt beam="1">  1        1 0.88059655E-01 0.11699191E+03</pdfrwt>
<pdfrwt beam="2">  1       -1 0.36793579E-02 0.11699191E+03</pdfrwt>
<totfact> 0.98829607E+03</totfact>
</mgrwt>
</event>
<event>
 4    1  0.6602701E-002  0.8055109E+02  0.7546771E-02  0.1327495E+00
         -1   -1    0    0    0  501 -0.00000000000E+00  0.00000000000E+00  0.16517457857E+02  0.16517457857E+02  0.00000000000E+00 0.  1.
          1   -1    0    0  501    0  0.00000000000E+00 -0.00000000000E+00 -0.61509745822E+03  0.61509745822E+03  0.00000000000E+00 0. -1.
         24    1    1    2    0    0  0.92998132805E+00  0.45164111808E+01 -0.10944780596E+03  0.13589444808E+03  0.80419002446E+02 0.  1.
        -24    1    1    2    0    0 -0.92998132805E+00 -0.45164111808E+01 -0.48913219440E+03  0.49572046800E+03  0.80419002446E+02 0.  0.
<mgrwt>
<rscale>  0 0.80551094E+02</rscale>
<asrwt>0</asrwt>
<pdfrwt beam="1">  1        1 0.94630391E-01 0.80551094E+02</pdfrwt>
<pdfrwt beam="2">  1       -1 0.25411470E-02 0.80551094E+02</pdfrwt>
<totfact> 0.14850772E+04</totfact>
</mgrwt>
</event>
<event>
 4    1  0.6602701E-002  0.8962539E+02  0.7546771E-02  0.1303761E+00
         -1   -1    0    0    0  501 -0.00000000000E+00  0.00000000000E+00  0.63773545561E+01  0.63773545561E+01  0.00000000000E+00 0.  1.
          1   -1    0    0  501    0  0.00000000000E+00 -0.00000000000E+00 -0.12902678717E+04  0.12902678717E+04  0.00000000000E+00 0. -1.
         24    1    1    2    0    0 -0.17020073487E+02  0.35718493878E+02 -0.54194023966E+03  0.54930131351E+03  0.80419002446E+02 0.  1.
        -24    1    1    2    0    0  0.17020073487E+02 -0.35718493878E+02 -0.74195027752E+03  0.74734391279E+03  0.80419002446E+02 0. -1.
<mgrwt>
<rscale>  0 0.89625385E+02</rscale>
<asrwt>0</asrwt>
<pdfrwt beam="1">  1        1 0.19850285E+00 0.89625385E+02</pdfrwt>
<pdfrwt beam="2">  1       -1 0.98113098E-03 0.89625385E+02</pdfrwt>
<totfact> 0.17860165E+04</totfact>
</mgrwt>
</event>
<event>
 4    1  0.6602701E-002  0.1232007E+03  0.7546771E-02  0.1237908E+00
          2   -1    0    0  501    0  0.00000000000E+00  0.00000000000E+00  0.18431846811E+03  0.18431846811E+03  0.00000000000E+00 0. -1.
         -2   -1    0    0    0  501 -0.00000000000E+00 -0.00000000000E+00 -0.10358418331E+03  0.10358418331E+03  0.00000000000E+00 0.  1.
         24    1    1    2    0    0 -0.81382381521E+02 -0.45695659138E+02 -0.24810581192E+02  0.12567404736E+03  0.80419002446E+02 0.  1.
        -24    1    1    2    0    0  0.81382381521E+02  0.45695659138E+02  0.10554486599E+03  0.16222860406E+03  0.80419002446E+02 0. -1.
<mgrwt>
<rscale>  0 0.12320067E+03</rscale>
<asrwt>0</asrwt>
<pdfrwt beam="1">  1        2 0.28356687E-01 0.12320069E+03</pdfrwt>
<pdfrwt beam="2">  1       -2 0.15936028E-01 0.12320069E+03</pdfrwt>
<totfact> 0.54747690E+03</totfact>
</mgrwt>
</event>
<event>
 4    1  0.6602701E-002  0.1221180E+03  0.7546771E-02  0.1239643E+00
         -1   -1    0    0    0  501 -0.00000000000E+00  0.00000000000E+00  0.87931174813E+01  0.87931174813E+01  0.00000000000E+00 0.  1.
          1   -1    0    0  501    0  0.00000000000E+00 -0.00000000000E+00 -0.17183128338E+04  0.17183128338E+04  0.00000000000E+00 0. -1.
         24    1    1    2    0    0 -0.90614590347E+02  0.15316023047E+02 -0.95324632726E+03  0.96103660749E+03  0.80419002446E+02 0.  1.
        -24    1    1    2    0    0  0.90614590347E+02 -0.15316023047E+02 -0.75627338909E+03  0.76606934383E+03  0.80419002446E+02 0. -1.
<mgrwt>
<rscale>  0 0.12211799E+03</rscale>
<asrwt>0</asrwt>
<pdfrwt beam="1">  1        1 0.26435578E+00 0.12211801E+03</pdfrwt>
<pdfrwt beam="2">  1       -1 0.13527875E-02 0.12211801E+03</pdfrwt>
<totfact> 0.61106260E+03</totfact>
</mgrwt>
</event>
<event>
 4    1  0.6602701E-002  0.1019852E+03  0.7546771E-02  0.1276176E+00
          1   -1    0    0  501    0  0.00000000000E+00  0.00000000000E+00  0.80179896124E+03  0.80179896124E+03  0.00000000000E+00 0. -1.
         -1   -1    0    0    0  501 -0.00000000000E+00 -0.00000000000E+00 -0.17302169215E+02  0.17302169215E+02  0.00000000000E+00 0.  1.
         24    1    1    2    0    0  0.44711681020E+02 -0.43984525539E+02  0.18736517751E+03  0.21332299127E+03  0.80419002446E+02 0.  1.
        -24    1    1    2    0    0 -0.44711681020E+02  0.43984525539E+02  0.59713161452E+03  0.60577813919E+03  0.80419002446E+02 0. -1.
<mgrwt>
<rscale>  0 0.10198524E+03</rscale>
<asrwt>0</asrwt>
<pdfrwt beam="1">  1        1 0.12335366E+00 0.10198524E+03</pdfrwt>
<pdfrwt beam="2">  1       -1 0.26618728E-02 0.10198524E+03</pdfrwt>
<totfact> 0.97441698E+03</totfact>
</mgrwt>
</event>
<event>
 4    1  0.6602701E-002  0.1052921E+03  0.7546771E-02  0.1269545E+00
         -1   -1    0    0    0  501 -0.00000000000E+00  0.00000000000E+00  0.37461196673E+02  0.37461196673E+02  0.00000000000E+00 0.  1.
          1   -1    0    0  501    0  0.00000000000E+00 -0.00000000000E+00 -0.29761779041E+03  0.29761779041E+03  0.00000000000E+00 0. -1.
         24    1    1    2    0    0  0.60932555611E+02  0.30106987189E+02 -0.14264193771E+03  0.17729395184E+03  0.80419002446E+02 0. -1.
        -24    1    1    2    0    0 -0.60932555611E+02 -0.30106987189E+02 -0.11751465602E+03  0.15778503524E+03  0.80419002446E+02 0.  1.
<mgrwt>
<rscale>  0 0.10529210E+03</rscale>
<asrwt>0</asrwt>
<pdfrwt beam="1">  1        1 0.45787349E-01 0.10529211E+03</pdfrwt>
<pdfrwt beam="2">  1       -1 0.57632614E-02 0.10529211E+03</pdfrwt>
<totfact> 0.11603397E+04</totfact>
</mgrwt>
</event>
<event>
 4    1  0.6602701E-002  0.9597570E+02  0.7546771E-02  0.1288994E+00
         -2   -1    0    0    0  501 -0.00000000000E+00  0.00000000000E+00  0.43693452751E+02  0.43693452751E+02  0.00000000000E+00 0.  1.
          2   -1    0    0  501    0  0.00000000000E+00 -0.00000000000E+00 -0.37834904865E+03  0.37834904865E+03  0.00000000000E+00 0. -1.
         24    1    1    2    0    0 -0.15108009484E+02 -0.50158419492E+02 -0.30774763143E+03  0.32236615765E+03  0.80419002446E+02 0. -1.
        -24    1    1    2    0    0  0.15108009484E+02  0.50158419492E+02 -0.26907964470E+02  0.99676343747E+02  0.80419002446E+02 0.  1.
<mgrwt>
<rscale>  0 0.95975700E+02</rscale>
<asrwt>0</asrwt>
<pdfrwt beam="1">  1        2 0.58207546E-01 0.95975700E+02</pdfrwt>
<pdfrwt beam="2">  1       -2 0.67220696E-02 0.95975700E+02</pdfrwt>
<totfact> 0.97301896E+03</totfact>
</mgrwt>
</event>
<event>
 4    1  0.6602701E-002  0.1685138E+03  0.7546771E-02  0.1179407E+00
          2   -1    0    0  501    0  0.00000000000E+00  0.00000000000E+00  0.10065596608E+04  0.10065596608E+04  0.00000000000E+00 0. -1.
         -2   -1    0    0    0  501 -0.00000000000E+00 -0.00000000000E+00 -0.76179686361E+02  0.76179686361E+02  0.00000000000E+00 0.  1.
         24    1    1    2    0    0 -0.75161924707E+02  0.12759454183E+03  0.89477532820E+03  0.91050523664E+03  0.80419002446E+02 0. -1.
        -24    1    1    2    0    0  0.75161924707E+02 -0.12759454183E+03  0.35604646206E+02  0.17223411049E+03  0.80419002446E+02 0.  1.
<mgrwt>
<rscale>  0 0.16851379E+03</rscale>
<asrwt>0</asrwt>
<pdfrwt beam="1">  1        2 0.15485532E+00 0.16851379E+03</pdfrwt>
<pdfrwt beam="2">  1       -2 0.11719952E-01 0.16851379E+03</pdfrwt>
<totfact> 0.13377965E+03</totfact>
</mgrwt>
</event>
<event>
 4    1  0.6602701E-002  0.8420130E+02  0.7546771E-02  0.1317535E+00
          2   -1    0    0  501    0  0.00000000000E+00  0.00000000000E+00  0.16707649032E+04  0.16707649032E+04  0.00000000000E+00 0. -1.
         -2   -1    0    0    0  501 -0.00000000000E+00 -0.00000000000E+00 -0.62183307307E+01  0.62183307307E+01  0.00000000000E+00 0.  1.
         24    1    1    2    0    0  0.16071874877E+02 -0.19087637290E+02  0.13048027041E+04  0.13075167133E+04  0.80419002446E+02 0.  0.
        -24    1    1    2    0    0 -0.16071874877E+02  0.19087637290E+02  0.35974386833E+03  0.36946652056E+03  0.80419002446E+02 0.  0.
<mgrwt>
<rscale>  0 0.84201301E+02</rscale>
<asrwt>0</asrwt>
<pdfrwt beam="1">  1        2 0.25704040E+00 0.84201301E+02</pdfrwt>
<pdfrwt beam="2">  1       -2 0.95666760E-03 0.84201301E+02</pdfrwt>
<totfact> 0.23493627E+04</totfact>
</mgrwt>
</event>
<event>
 4    1  0.6602701E-002  0.1237923E+03  0.7546771E-02  0.1236969E+00
         -2   -1    0    0    0  501 -0.00000000000E+00  0.00000000000E+00  0.88665038798E+01  0.88665038798E+01  0.00000000000E+00 0.  1.
          2   -1    0    0  501    0  0.00000000000E+00 -0.00000000000E+00 -0.19274981173E+04  0.19274981173E+04  0.00000000000E+00 0. -1.
         24    1    1    2    0    0  0.61124671305E+02 -0.71561784286E+02 -0.12705124725E+04  0.12765290726E+04  0.80419002446E+02 0. -1.
        -24    1    1    2    0    0 -0.61124671305E+02  0.71561784286E+02 -0.64811914090E+03  0.65983554858E+03  0.80419002446E+02 0.  1.
<mgrwt>
<rscale>  0 0.12379229E+03</rscale>
<asrwt>0</asrwt>
<pdfrwt beam="1">  1        2 0.29653846E+00 0.12379229E+03</pdfrwt>
<pdfrwt beam="2">  1       -2 0.13640762E-02 0.12379229E+03</pdfrwt>
<totfact> 0.10747915E+04</totfact>
</mgrwt>
</event>
<event>
 4    1  0.6602701E-002  0.8980590E+02  0.7546771E-02  0.1303322E+00
          2   -1    0    0  501    0  0.00000000000E+00  0.00000000000E+00  0.16098592043E+04  0.16098592043E+04  0.00000000000E+00 0. -1.
         -2   -1    0    0    0  501 -0.00000000000E+00 -0.00000000000E+00 -0.55315693580E+01  0.55315693580E+01  0.00000000000E+00 0.  1.
         24    1    1    2    0    0  0.88477406057E+01  0.38982073378E+02  0.10502231104E+04  0.10540558249E+04  0.80419002446E+02 0. -1.
        -24    1    1    2    0    0 -0.88477406057E+01 -0.38982073378E+02  0.55410452461E+03  0.56133494876E+03  0.80419002446E+02 0.  1.
<mgrwt>
<rscale>  0 0.89805905E+02</rscale>
<asrwt>0</asrwt>
<pdfrwt beam="1">  1        2 0.24767027E+00 0.89805905E+02</pdfrwt>
<pdfrwt beam="2">  1       -2 0.85101195E-03 0.89805905E+02</pdfrwt>
<totfact> 0.29887659E+04</totfact>
</mgrwt>
</event>
<event>
 4    1  0.6602701E-002  0.9071488E+02  0.7546771E-02  0.1301130E+00
         -2   -1    0    0    0  501 -0.00000000000E+00  0.00000000000E+00  0.89085741058E+01  0.89085741058E+01  0.00000000000E+00 0.  1.
          2   -1    0    0  501    0  0.00000000000E+00 -0.00000000000E+00 -0.92502987189E+03  0.92502987189E+03  0.00000000000E+00 0. -1.
         24    1    1    2    0    0  0.38964834950E+02  0.15611393569E+02 -0.47551050377E+03  0.48408617944E+03  0.80419002446E+02 0.  1.
        -24    1    1    2    0    0 -0.38964834950E+02 -0.15611393569E+02 -0.44061079401E+03  0.44985226656E+03  0.80419002446E+02 0. -1.
<mgrwt>
<rscale>  0 0.90714883E+02</rscale>
<asrwt>0</asrwt>
<pdfrwt beam="1">  1        2 0.14231228E+00 0.90714883E+02</pdfrwt>
<pdfrwt beam="2">  1       -2 0.13705499E-02 0.90714883E+02</pdfrwt>
<totfact> 0.35725605E+04</totfact>
</mgrwt>
</event>
<event>
 4    1  0.6602701E-002  0.9153908E+02  0.7546771E-02  0.1299167E+00
         -2   -1    0    0    0  501 -0.00000000000E+00  0.00000000000E+00  0.11818090205E+03  0.11818090205E+03  0.00000000000E+00 0.  1.
          2   -1    0    0  501    0  0.00000000000E+00 -0.00000000000E+00 -0.87363021041E+02  0.87363021041E+02  0.00000000000E+00 0. -1.
         24    1    1    2    0    0 -0.30038612056E+02  0.31778357249E+02  0.60018100514E+02  0.10946036062E+03  0.80419002446E+02 0.  0.
        -24    1    1    2    0    0  0.30038612056E+02 -0.31778357249E+02 -0.29200219504E+02  0.96083562471E+02  0.80419002446E+02 0.  0.
<mgrwt>
<rscale>  0 0.91539064E+02</rscale>
<asrwt>0</asrwt>
<pdfrwt beam="1">  1        2 0.13440465E-01 0.91539076E+02</pdfrwt>
<pdfrwt beam="2">  1       -2 0.18181677E-01 0.91539076E+02</pdfrwt>
<totfact> 0.99777803E+03</totfact>
</mgrwt>
</event>
<event>
 4    1  0.6602701E-002  0.9568741E+02  0.7546771E-02  0.1289635E+00
         -3   -1    0    0    0  501 -0.00000000000E+00  0.00000000000E+00  0.12872848211E+03  0.12872848211E+03  0.00000000000E+00 0.  1.
          3   -1    0    0  501    0  0.00000000000E+00 -0.00000000000E+00 -0.71648743842E+02  0.71648743842E+02  0.00000000000E+00 0. -1.
         24    1    1    2    0    0  0.44513007935E+01  0.51662817920E+02  0.19990713834E+02  0.97753288580E+02  0.80419002446E+02 0.  1.
        -24    1    1    2    0    0 -0.44513007935E+01 -0.51662817920E+02  0.37089024437E+02  0.10262393737E+03  0.80419002446E+02 0.  0.
<mgrwt>
<rscale>  0 0.95687403E+02</rscale>
<asrwt>0</asrwt>
<pdfrwt beam="1">  1        3 0.11022884E-01 0.95687415E+02</pdfrwt>
<pdfrwt beam="2">  1       -3 0.19804382E-01 0.95687415E+02</pdfrwt>
<totfact> 0.30517411E+03</totfact>
</mgrwt>
</event>
<event>
 4    1  0.6602701E-002  0.1066093E+03  0.7546771E-02  0.1266981E+00
         -1   -1    0    0    0  501 -0.00000000000E+00  0.00000000000E+00  0.14009463626E+03  0.14009463626E+03  0.00000000000E+00 0.  1.
          1   -1    0    0  501    0  0.00000000000E+00 -0.00000000000E+00 -0.81730721798E+02  0.81730721798E+02  0.00000000000E+00 0. -1.
         24    1    1    2    0    0  0.58178073938E+02 -0.38905397338E+02  0.38710141174E+02  0.11341961565E+03  0.80419002446E+02 0.  1.
        -24    1    1    2    0    0 -0.58178073938E+02  0.38905397338E+02  0.19653773288E+02  0.10840574241E+03  0.80419002446E+02 0. -1.
<mgrwt>
<rscale>  0 0.10660926E+03</rscale>
<asrwt>0</asrwt>
<pdfrwt beam="1">  1        1 0.12573957E-01 0.10660926E+03</pdfrwt>
<pdfrwt beam="2">  1       -1 0.21553021E-01 0.10660926E+03</pdfrwt>
<totfact> 0.77830966E+03</totfact>
</mgrwt>
</event>
<event>
 4    1  0.6602701E-002  0.8516746E+02  0.7546771E-02  0.1314995E+00
          2   -1    0    0  501    0  0.00000000000E+00  0.00000000000E+00  0.83805279372E+02  0.83805279372E+02  0.00000000000E+00 0. -1.
         -2   -1    0    0    0  501 -0.00000000000E+00 -0.00000000000E+00 -0.38200081150E+03  0.38200081150E+03  0.00000000000E+00 0.  1.
         24    1    1    2    0    0  0.86014703554E+01 -0.26688848237E+02  0.55727869937E+02  0.10177962151E+03  0.80419002446E+02 0. -1.
        -24    1    1    2    0    0 -0.86014703554E+01  0.26688848237E+02 -0.35392340207E+03  0.36402646936E+03  0.80419002446E+02 0.  1.
<mgrwt>
<rscale>  0 0.85167458E+02</rscale>
<asrwt>0</asrwt>
<pdfrwt beam="1">  1        2 0.12893120E-01 0.85167458E+02</pdfrwt>
<pdfrwt beam="2">  1       -2 0.58769356E-01 0.85167458E+02</pdfrwt>
<totfact> 0.12338566E+03</totfact>
</mgrwt>
</event>
<event>
 4    1  0.6602701E-002  0.8759402E+02  0.7546771E-02  0.1308785E+00
          1   -1    0    0  501    0  0.00000000000E+00  0.00000000000E+00  0.66095219526E+03  0.66095219526E+03  0.00000000000E+00 0. -1.
         -1   -1    0    0    0  501 -0.00000000000E+00 -0.00000000000E+00 -0.11940716670E+02  0.11940716670E+02  0.00000000000E+00 0.  1.
         24    1    1    2    0    0 -0.72871322651E+01  0.33946876164E+02  0.38061917661E+03  0.39056838870E+03  0.80419002446E+02 0. -1.
        -24    1    1    2    0    0  0.72871322651E+01 -0.33946876164E+02  0.26839230199E+03  0.28232452323E+03  0.80419002446E+02 0.  1.
<mgrwt>
<rscale>  0 0.87594010E+02</rscale>
<asrwt>0</asrwt>
<pdfrwt beam="1">  1        1 0.10168492E+00 0.87594021E+02</pdfrwt>
<pdfrwt beam="2">  1       -1 0.18370339E-02 0.87594021E+02</pdfrwt>
<totfact> 0.21566011E+04</totfact>
</mgrwt>
</event>
<event>
 4    1  0.6602701E-002  0.1358943E+03  0.7546771E-02  0.1218963E+00
         -2   -1    0    0    0  501 -0.00000000000E+00  0.00000000000E+00  0.41564314411E+02  0.41564314411E+02  0.00000000000E+00 0.  1.
          2   -1    0    0  501    0  0.00000000000E+00 -0.00000000000E+00 -0.53551383937E+03  0.53551383937E+03  0.00000000000E+00 0. -1.
         24    1    1    2    0    0 -0.57931875413E+02  0.92972791806E+02 -0.36605406874E+03  0.39046490162E+03  0.80419002446E+02 0. -1.
        -24    1    1    2    0    0  0.57931875413E+02 -0.92972791806E+02 -0.12789545623E+03  0.18661325216E+03  0.80419002446E+02 0.  1.
<mgrwt>
<rscale>  0 0.13589429E+03</rscale>
<asrwt>0</asrwt>
<pdfrwt beam="1">  1        2 0.82386743E-01 0.13589429E+03</pdfrwt>
<pdfrwt beam="2">  1       -2 0.63945100E-02 0.13589429E+03</pdfrwt>
<totfact> 0.74003432E+03</totfact>
</mgrwt>
</event>
<event>
 4    1  0.6602701E-002  0.1229721E+03  0.7546771E-02  0.1238273E+00
         -1   -1    0    0    0  501 -0.00000000000E+00  0.00000000000E+00  0.26401000787E+02  0.26401000787E+02  0.00000000000E+00 0.  1.
          1   -1    0    0  501    0  0.00000000000E+00 -0.00000000000E+00 -0.73461222918E+03  0.73461222918E+03  0.00000000000E+00 0. -1.
         24    1    1    2    0    0  0.70956213010E+02  0.60167662257E+02 -0.17551593033E+03  0.21430816480E+03  0.80419002446E+02 0.  1.
        -24    1    1    2    0    0 -0.70956213010E+02 -0.60167662257E+02 -0.53269529807E+03  0.54670506517E+03  0.80419002446E+02 0. -1.
<mgrwt>
<rscale>  0 0.12297214E+03</rscale>
<asrwt>0</asrwt>
<pdfrwt beam="1">  1        1 0.11301726E+00 0.12297214E+03</pdfrwt>
<pdfrwt beam="2">  1       -1 0.40616925E-02 0.12297214E+03</pdfrwt>
<totfact> 0.60673570E+03</totfact>
</mgrwt>
</event>
<event>
 4    1  0.6602701E-002  0.8075754E+02  0.7546771E-02  0.1326915E+00
         -2   -1    0    0    0  501 -0.00000000000E+00  0.00000000000E+00  0.12668301320E+03  0.12668301320E+03  0.00000000000E+00 0.  1.
          2   -1    0    0  501    0  0.00000000000E+00 -0.00000000000E+00 -0.12957129587E+03  0.12957129587E+03  0.00000000000E+00 0. -1.
         24    1    1    2    0    0 -0.14079716625E+01 -0.72513773053E+01 -0.10091251968E+03  0.12924827829E+03  0.80419002446E+02 0. -1.
        -24    1    1    2    0    0  0.14079716625E+01  0.72513773053E+01  0.98024237021E+02  0.12700603078E+03  0.80419002446E+02 0.  1.
<mgrwt>
<rscale>  0 0.80757543E+02</rscale>
<asrwt>0</asrwt>
<pdfrwt beam="1">  1        2 0.19934046E-01 0.80757543E+02</pdfrwt>
<pdfrwt beam="2">  1       -2 0.19489694E-01 0.80757543E+02</pdfrwt>
<totfact> 0.56047383E+03</totfact>
</mgrwt>
</event>
<event>
 4    1  0.6602701E-002  0.8287895E+02  0.7546771E-02  0.1321074E+00
          2   -1    0    0  501    0  0.00000000000E+00  0.00000000000E+00  0.17881164982E+03  0.17881164982E+03  0.00000000000E+00 0. -1.
         -2   -1    0    0    0  501 -0.00000000000E+00 -0.00000000000E+00 -0.60088489416E+02  0.60088489416E+02  0.00000000000E+00 0.  1.
         24    1    1    2    0    0 -0.19134157462E+02 -0.59653354479E+01 -0.12378622511E+02  0.83798254507E+02  0.80419002446E+02 0.  0.
        -24    1    1    2    0    0  0.19134157462E+02  0.59653354479E+01  0.13110178292E+03  0.15510188473E+03  0.80419002446E+02 0. -1.
<mgrwt>
<rscale>  0 0.82878941E+02</rscale>
<asrwt>0</asrwt>
<pdfrwt beam="1">  1        2 0.27509485E-01 0.82878951E+02</pdfrwt>
<pdfrwt beam="2">  1       -2 0.92443830E-02 0.82878951E+02</pdfrwt>
<totfact> 0.13000538E+04</totfact>
</mgrwt>
</event>
<event>
 4    1  0.6602701E-002  0.8243662E+02  0.7546771E-02  0.1322275E+00
         -2   -1    0    0    0  501 -0.00000000000E+00  0.00000000000E+00  0.12304524508E+03  0.12304524508E+03  0.00000000000E+00 0.  1.
          2   -1    0    0  501    0  0.00000000000E+00 -0.00000000000E+00 -0.65113459527E+02  0.65113459527E+02  0.00000000000E+00 0. -1.
         24    1    1    2    0    0 -0.32306182875E+01  0.17836596066E+02 -0.76873140427E+01  0.82794273989E+02  0.80419002446E+02 0.  0.
        -24    1    1    2    0    0  0.32306182875E+01 -0.17836596066E+02  0.65619099597E+02  0.10536443062E+03  0.80419002446E+02 0.  0.
<mgrwt>
<rscale>  0 0.82436624E+02</rscale>
<asrwt>0</asrwt>
<pdfrwt beam="1">  1        2 0.10017455E-01 0.82436624E+02</pdfrwt>
<pdfrwt beam="2">  1       -2 0.18930038E-01 0.82436624E+02</pdfrwt>
<totfact> 0.13099979E+04</totfact>
</mgrwt>
</event>
<event>
 4    1  0.6602701E-002  0.9146008E+02  0.7546771E-02  0.1299354E+00
         -2   -1    0    0    0  501 -0.00000000000E+00  0.00000000000E+00  0.17409376567E+02  0.17409376567E+02  0.00000000000E+00 0.  1.
          2   -1    0    0  501    0  0.00000000000E+00 -0.00000000000E+00 -0.65888664866E+03  0.65888664866E+03  0.00000000000E+00 0. -1.
         24    1    1    2    0    0  0.19509546354E+02  0.38950060236E+02 -0.49669331917E+03  0.50504375935E+03  0.80419002446E+02 0. -1.
        -24    1    1    2    0    0 -0.19509546354E+02 -0.38950060236E+02 -0.14478395292E+03  0.17125226588E+03  0.80419002446E+02 0.  1.
<mgrwt>
<rscale>  0 0.91460076E+02</rscale>
<asrwt>0</asrwt>
<pdfrwt beam="1">  1        2 0.10136717E+00 0.91460076E+02</pdfrwt>
<pdfrwt beam="2">  1       -2 0.26783659E-02 0.91460076E+02</pdfrwt>
<totfact> 0.20637846E+04</totfact>
</mgrwt>
</event>
<event>
 4    1  0.6602701E-002  0.9432302E+02  0.7546771E-02  0.1292708E+00
          2   -1    0    0  501    0  0.00000000000E+00  0.00000000000E+00  0.42595516831E+02  0.42595516831E+02  0.00000000000E+00 0. -1.
         -2   -1    0    0    0  501 -0.00000000000E+00 -0.00000000000E+00 -0.34474662435E+03  0.34474662435E+03  0.00000000000E+00 0.  1.
         24    1    1    2    0    0 -0.39723321142E+02 -0.29183466830E+02 -0.29487587787E+02  0.98824848933E+02  0.80419002446E+02 0. -1.
        -24    1    1    2    0    0  0.39723321142E+02  0.29183466830E+02 -0.27266351973E+03  0.28851729225E+03  0.80419002446E+02 0.  1.
<mgrwt>
<rscale>  0 0.94323024E+02</rscale>
<asrwt>0</asrwt>
<pdfrwt beam="1">  1        2 0.65531564E-02 0.94323024E+02</pdfrwt>
<pdfrwt beam="2">  1       -2 0.53037943E-01 0.94323024E+02</pdfrwt>
<totfact> 0.34877009E+03</totfact>
</mgrwt>
</event>
<event>
 4    1  0.6602701E-002  0.8985589E+02  0.7546771E-02  0.1303201E+00
          1   -1    0    0  501    0  0.00000000000E+00  0.00000000000E+00  0.28048996388E+03  0.28048996388E+03  0.00000000000E+00 0. -1.
         -1   -1    0    0    0  501 -0.00000000000E+00 -0.00000000000E+00 -0.49429260137E+02  0.49429260137E+02  0.00000000000E+00 0.  1.
         24    1    1    2    0    0 -0.29307926362E+02  0.27347953605E+02  0.89251055226E+01  0.90298054115E+02  0.80419002446E+02 0.  1.
        -24    1    1    2    0    0  0.29307926362E+02 -0.27347953605E+02  0.22213559822E+03  0.23962116990E+03  0.80419002446E+02 0. -1.
<mgrwt>
<rscale>  0 0.89855891E+02</rscale>
<asrwt>0</asrwt>
<pdfrwt beam="1">  1        1 0.43152301E-01 0.89855891E+02</pdfrwt>
<pdfrwt beam="2">  1       -1 0.76045017E-02 0.89855891E+02</pdfrwt>
<totfact> 0.81615508E+03</totfact>
</mgrwt>
</event>
<event>
 4    1  0.6602701E-002  0.9961878E+02  0.7546771E-02  0.1281100E+00
          2   -1    0    0  501    0  0.00000000000E+00  0.00000000000E+00  0.12598528809E+02  0.12598528809E+02  0.00000000000E+00 0. -1.
         -2   -1    0    0    0  501 -0.00000000000E+00 -0.00000000000E+00 -0.79238638443E+03  0.79238638443E+03  0.00000000000E+00 0.  1.
         24    1    1    2    0    0  0.91144581641E+01  0.58082804992E+02 -0.35895112991E+03  0.37251820788E+03  0.80419002446E+02 0.  0.
        -24    1    1    2    0    0 -0.91144581641E+01 -0.58082804992E+02 -0.42083672571E+03  0.43246670536E+03  0.80419002446E+02 0. -1.
<mgrwt>
<rscale>  0 0.99618781E+02</rscale>
<asrwt>0</asrwt>
<pdfrwt beam="1">  1        2 0.19382338E-02 0.99618781E+02</pdfrwt>
<pdfrwt beam="2">  1       -2 0.12190569E+00 0.99618781E+02</pdfrwt>
<totfact> 0.28328732E+03</totfact>
</mgrwt>
</event>
<event>
 4    1  0.6602701E-002  0.1303193E+03  0.7546771E-02  0.1226983E+00
         -1   -1    0    0    0  501 -0.00000000000E+00  0.00000000000E+00  0.77544397460E+03  0.77544397460E+03  0.00000000000E+00 0.  1.
          1   -1    0    0  501    0  0.00000000000E+00 -0.00000000000E+00 -0.39792556454E+02  0.39792556454E+02  0.00000000000E+00 0. -1.
         24    1    1    2    0    0 -0.93284938277E+02  0.42589059880E+02  0.64114785269E+03  0.65425812390E+03  0.80419002446E+02 0.  1.
        -24    1    1    2    0    0  0.93284938277E+02 -0.42589059880E+02  0.94503565459E+02  0.16097840715E+03  0.80419002446E+02 0. -1.
<mgrwt>
<rscale>  0 0.13031931E+03</rscale>
<asrwt>0</asrwt>
<pdfrwt beam="1">  1        1 0.61219324E-02 0.13031931E+03</pdfrwt>
<pdfrwt beam="2">  1       -1 0.11929906E+00 0.13031931E+03</pdfrwt>
<totfact> 0.83083655E+02</totfact>
</mgrwt>
</event>
<event>
 4    1  0.6602701E-002  0.9922412E+02  0.7546771E-02  0.1281936E+00
          4   -1    0    0  501    0  0.00000000000E+00  0.00000000000E+00  0.31197786567E+02  0.31197786567E+02  0.00000000000E+00 0. -1.
         -4   -1    0    0    0  501 -0.00000000000E+00 -0.00000000000E+00 -0.32571413598E+03  0.32571413598E+03  0.00000000000E+00 0.  1.
         24    1    1    2    0    0  0.19974677762E+02  0.54582208778E+02 -0.17873491979E+03  0.20442992142E+03  0.80419002446E+02 0.  1.
        -24    1    1    2    0    0 -0.19974677762E+02 -0.54582208778E+02 -0.11578142963E+03  0.15248200113E+03  0.80419002446E+02 0. -1.
<mgrwt>
<rscale>  0 0.99224108E+02</rscale>
<asrwt>0</asrwt>
<pdfrwt beam="1">  1        4 0.47996595E-02 0.99224121E+02</pdfrwt>
<pdfrwt beam="2">  1       -4 0.50109867E-01 0.99224121E+02</pdfrwt>
<totfact> 0.15083843E+03</totfact>
</mgrwt>
</event>
<event>
 4    1  0.6602701E-002  0.9620122E+02  0.7546771E-02  0.1288493E+00
         -1   -1    0    0    0  501 -0.00000000000E+00  0.00000000000E+00  0.15579474894E+02  0.15579474894E+02  0.00000000000E+00 0.  1.
          1   -1    0    0  501    0  0.00000000000E+00 -0.00000000000E+00 -0.10147741470E+04  0.10147741470E+04  0.00000000000E+00 0. -1.
         24    1    1    2    0    0  0.33557755256E+01 -0.52689631623E+02 -0.16787044067E+03  0.19348167695E+03  0.80419002446E+02 0.  1.
        -24    1    1    2    0    0 -0.33557755256E+01  0.52689631623E+02 -0.83132423147E+03  0.83687194498E+03  0.80419002446E+02 0. -1.
<mgrwt>
<rscale>  0 0.96201219E+02</rscale>
<asrwt>0</asrwt>
<pdfrwt beam="1">  1        1 0.15611918E+00 0.96201219E+02</pdfrwt>
<pdfrwt beam="2">  1       -1 0.23968411E-02 0.96201219E+02</pdfrwt>
<totfact> 0.77848275E+03</totfact>
</mgrwt>
</event>
<event>
 4    1  0.6602701E-002  0.8160846E+02  0.7546771E-02  0.1324548E+00
         -1   -1    0    0    0  501 -0.00000000000E+00  0.00000000000E+00  0.88555630089E+01  0.88555630089E+01  0.00000000000E+00 0.  1.
          1   -1    0    0  501    0  0.00000000000E+00 -0.00000000000E+00 -0.77726184346E+03  0.77726184346E+03  0.00000000000E+00 0. -1.
         24    1    1    2    0    0 -0.80168255721E+01  0.11333782820E+02 -0.31343052921E+03  0.32388059022E+03  0.80419002446E+02 0. -1.
        -24    1    1    2    0    0  0.80168255721E+01 -0.11333782820E+02 -0.45497575124E+03  0.46223681625E+03  0.80419002446E+02 0.  0.
<mgrwt>
<rscale>  0 0.81608456E+02</rscale>
<asrwt>0</asrwt>
<pdfrwt beam="1">  1        1 0.11957870E+00 0.81608456E+02</pdfrwt>
<pdfrwt beam="2">  1       -1 0.13623948E-02 0.81608456E+02</pdfrwt>
<totfact> 0.26002695E+04</totfact>
</mgrwt>
</event>
<event>
 4    1  0.6602701E-002  0.1008591E+03  0.7546771E-02  0.1278500E+00
          2   -1    0    0  501    0  0.00000000000E+00  0.00000000000E+00  0.15655591194E+03  0.15655591194E+03  0.00000000000E+00 0. -1.
         -2   -1    0    0    0  501 -0.00000000000E+00 -0.00000000000E+00 -0.98433335890E+02  0.98433335890E+02  0.00000000000E+00 0.  1.
         24    1    1    2    0    0  0.40390924814E+02  0.45540260304E+02  0.10339039915E+03  0.14443729680E+03  0.80419002446E+02 0.  0.
        -24    1    1    2    0    0 -0.40390924814E+02 -0.45540260304E+02 -0.45267823094E+02  0.11055195104E+03  0.80419002446E+02 0.  0.
<mgrwt>
<rscale>  0 0.10085910E+03</rscale>
<asrwt>0</asrwt>
<pdfrwt beam="1">  1        2 0.24085525E-01 0.10085910E+03</pdfrwt>
<pdfrwt beam="2">  1       -2 0.15143590E-01 0.10085910E+03</pdfrwt>
<totfact> 0.70081468E+03</totfact>
</mgrwt>
</event>
<event>
 4    1  0.6602701E-002  0.9167336E+02  0.7546771E-02  0.1298849E+00
         -1   -1    0    0    0  501 -0.00000000000E+00  0.00000000000E+00  0.51969071219E+02  0.51969071219E+02  0.00000000000E+00 0.  1.
          1   -1    0    0  501    0  0.00000000000E+00 -0.00000000000E+00 -0.16230761810E+03  0.16230761810E+03  0.00000000000E+00 0. -1.
         24    1    1    2    0    0  0.41151922170E+02 -0.15598354030E+02 -0.48677256297E+02  0.10379537842E+03  0.80419002446E+02 0.  1.
        -24    1    1    2    0    0 -0.41151922170E+02  0.15598354030E+02 -0.61661290584E+02  0.11048131090E+03  0.80419002446E+02 0.  0.
<mgrwt>
<rscale>  0 0.91673362E+02</rscale>
<asrwt>0</asrwt>
<pdfrwt beam="1">  1        1 0.24970403E-01 0.91673362E+02</pdfrwt>
<pdfrwt beam="2">  1       -1 0.79952417E-02 0.91673362E+02</pdfrwt>
<totfact> 0.14839369E+04</totfact>
</mgrwt>
</event>
<event>
 4    1  0.6602701E-002  0.8293389E+02  0.7546771E-02  0.1320926E+00
          4   -1    0    0  501    0  0.00000000000E+00  0.00000000000E+00  0.74496132967E+02  0.74496132967E+02  0.00000000000E+00 0. -1.
         -4   -1    0    0    0  501 -0.00000000000E+00 -0.00000000000E+00 -0.92950137622E+02  0.92950137622E+02  0.00000000000E+00 0.  1.
         24    1    1    2    0    0 -0.86222127088E+01 -0.18343080729E+02 -0.16080408656E+02  0.84478439022E+02  0.80419002446E+02 0.  1.
        -24    1    1    2    0    0  0.86222127088E+01  0.18343080729E+02 -0.23735959994E+01  0.82967831567E+02  0.80419002446E+02 0. -1.
<mgrwt>
<rscale>  0 0.82933882E+02</rscale>
<asrwt>0</asrwt>
<pdfrwt beam="1">  1        4 0.11460944E-01 0.82933893E+02</pdfrwt>
<pdfrwt beam="2">  1       -4 0.14300021E-01 0.82933893E+02</pdfrwt>
<totfact> 0.35426307E+03</totfact>
</mgrwt>
</event>
<event>
 4    1  0.6602701E-002  0.8333718E+02  0.7546771E-02  0.1319839E+00
         -4   -1    0    0    0  501 -0.00000000000E+00  0.00000000000E+00  0.25364887112E+03  0.25364887112E+03  0.00000000000E+00 0.  1.
          4   -1    0    0  501    0  0.00000000000E+00 -0.00000000000E+00 -0.43361581509E+02  0.43361581509E+02  0.00000000000E+00 0. -1.
         24    1    1    2    0    0  0.20581290009E+02  0.73675603140E+01  0.14988731644E+02  0.84674367279E+02  0.80419002446E+02 0.  1.
        -24    1    1    2    0    0 -0.20581290009E+02 -0.73675603140E+01  0.19529855797E+03  0.21233608535E+03  0.80419002446E+02 0.  0.
<mgrwt>
<rscale>  0 0.83337185E+02</rscale>
<asrwt>0</asrwt>
<pdfrwt beam="1">  1        4 0.66710127E-02 0.83337185E+02</pdfrwt>
<pdfrwt beam="2">  1       -4 0.39022902E-01 0.83337185E+02</pdfrwt>
<totfact> 0.13954810E+03</totfact>
</mgrwt>
</event>
<event>
 4    1  0.6602701E-002  0.8263751E+02  0.7546771E-02  0.1321729E+00
          1   -1    0    0  501    0  0.00000000000E+00  0.00000000000E+00  0.91977524812E+03  0.91977524812E+03  0.00000000000E+00 0. -1.
         -1   -1    0    0    0  501 -0.00000000000E+00 -0.00000000000E+00 -0.82528445273E+01  0.82528445273E+01  0.00000000000E+00 0.  1.
         24    1    1    2    0    0 -0.10728866004E+02 -0.15704591862E+02  0.30876372200E+03  0.31963102908E+03  0.80419002446E+02 0. -1.
        -24    1    1    2    0    0  0.10728866004E+02  0.15704591862E+02  0.60275868159E+03  0.60839706357E+03  0.80419002446E+02 0. -1.
<mgrwt>
<rscale>  0 0.82637514E+02</rscale>
<asrwt>0</asrwt>
<pdfrwt beam="1">  1        1 0.14150380E+00 0.82637514E+02</pdfrwt>
<pdfrwt beam="2">  1       -1 0.12696691E-02 0.82637514E+02</pdfrwt>
<totfact> 0.22287056E+04</totfact>
</mgrwt>
</event>
<event>
 4    1  0.6602701E-002  0.1011152E+03  0.7546771E-02  0.1277968E+00
          2   -1    0    0  501    0  0.00000000000E+00  0.00000000000E+00  0.36371252221E+02  0.36371252221E+02  0.00000000000E+00 0. -1.
         -2   -1    0    0    0  501 -0.00000000000E+00 -0.00000000000E+00 -0.34859764749E+03  0.34859764749E+03  0.00000000000E+00 0.  1.
         24    1    1    2    0    0  0.48374820819E+02  0.37642228911E+02 -0.71419782677E+02  0.12379443444E+03  0.80419002446E+02 0.  0.
        -24    1    1    2    0    0 -0.48374820819E+02 -0.37642228911E+02 -0.24080661259E+03  0.26117446527E+03  0.80419002446E+02 0.  1.
<mgrwt>
<rscale>  0 0.10111517E+03</rscale>
<asrwt>0</asrwt>
<pdfrwt beam="1">  1        2 0.55955775E-02 0.10111517E+03</pdfrwt>
<pdfrwt beam="2">  1       -2 0.53630405E-01 0.10111517E+03</pdfrwt>
<totfact> 0.41949827E+03</totfact>
</mgrwt>
</event>
<event>
 4    1  0.6602701E-002  0.1200478E+03  0.7546771E-02  0.1243018E+00
          2   -1    0    0  501    0  0.00000000000E+00  0.00000000000E+00  0.14513857780E+03  0.14513857780E+03  0.00000000000E+00 0. -1.
         -2   -1    0    0    0  501 -0.00000000000E+00 -0.00000000000E+00 -0.12333294173E+03  0.12333294173E+03  0.00000000000E+00 0.  1.
         24    1    1    2    0    0  0.78961365415E+02  0.41344301393E+02  0.70165556502E+02  0.13904916310E+03  0.80419002446E+02 0.  1.
        -24    1    1    2    0    0 -0.78961365415E+02 -0.41344301393E+02 -0.48359920424E+02  0.12942235643E+03  0.80419002446E+02 0. -1.
<mgrwt>
<rscale>  0 0.12004776E+03</rscale>
<asrwt>0</asrwt>
<pdfrwt beam="1">  1        2 0.22329012E-01 0.12004776E+03</pdfrwt>
<pdfrwt beam="2">  1       -2 0.18974299E-01 0.12004776E+03</pdfrwt>
<totfact> 0.53211705E+03</totfact>
</mgrwt>
</event>
<event>
 4    1  0.6602701E-002  0.8480009E+02  0.7546771E-02  0.1315956E+00
         -1   -1    0    0    0  501 -0.00000000000E+00  0.00000000000E+00  0.54084080092E+03  0.54084080092E+03  0.00000000000E+00 0.  1.
          1   -1    0    0  501    0  0.00000000000E+00 -0.00000000000E+00 -0.15017026418E+02  0.15017026418E+02  0.00000000000E+00 0. -1.
         24    1    1    2    0    0  0.24541576266E+02  0.11025022443E+02  0.35699830906E+03  0.36693166763E+03  0.80419002446E+02 0.  1.
        -24    1    1    2    0    0 -0.24541576266E+02 -0.11025022443E+02  0.16882546545E+03  0.18892615971E+03  0.80419002446E+02 0. -1.
<mgrwt>
<rscale>  0 0.84800095E+02</rscale>
<asrwt>0</asrwt>
<pdfrwt beam="1">  1        1 0.23103122E-02 0.84800095E+02</pdfrwt>
<pdfrwt beam="2">  1       -1 0.83206262E-01 0.84800095E+02</pdfrwt>
<totfact> 0.67413752E+03</totfact>
</mgrwt>
</event>
<event>
 4    1  0.6602701E-002  0.1011368E+03  0.7546771E-02  0.1277923E+00
          2   -1    0    0  501    0  0.00000000000E+00  0.00000000000E+00  0.87154798305E+03  0.87154798305E+03  0.00000000000E+00 0. -1.
         -2   -1    0    0    0  501 -0.00000000000E+00 -0.00000000000E+00 -0.29238412993E+02  0.29238412993E+02  0.00000000000E+00 0.  1.
         24    1    1    2    0    0  0.34928854931E+02 -0.50412511107E+02  0.76962157709E+03  0.77623838739E+03  0.80419002446E+02 0. -1.
        -24    1    1    2    0    0 -0.34928854931E+02  0.50412511107E+02  0.72687992966E+02  0.12454800865E+03  0.80419002446E+02 0.  1.
<mgrwt>
<rscale>  0 0.10113685E+03</rscale>
<asrwt>0</asrwt>
<pdfrwt beam="1">  1        2 0.13408429E+00 0.10113685E+03</pdfrwt>
<pdfrwt beam="2">  1       -2 0.44982180E-02 0.10113685E+03</pdfrwt>
<totfact> 0.69500000E+03</totfact>
</mgrwt>
</event>
<event>
 4    1  0.6602701E-002  0.8276897E+02  0.7546771E-02  0.1321372E+00
         -1   -1    0    0    0  501 -0.00000000000E+00  0.00000000000E+00  0.60512749427E+03  0.60512749427E+03  0.00000000000E+00 0.  1.
          1   -1    0    0  501    0  0.00000000000E+00 -0.00000000000E+00 -0.17868563642E+02  0.17868563642E+02  0.00000000000E+00 0. -1.
         24    1    1    2    0    0  0.16863193320E+02  0.99558995127E+01  0.48218849786E+03  0.48924068785E+03  0.80419002446E+02 0.  0.
        -24    1    1    2    0    0 -0.16863193320E+02 -0.99558995127E+01  0.10507043276E+03  0.13375537006E+03  0.80419002446E+02 0. -1.
<mgrwt>
<rscale>  0 0.82768975E+02</rscale>
<asrwt>0</asrwt>
<pdfrwt beam="1">  1        1 0.27490103E-02 0.82768975E+02</pdfrwt>
<pdfrwt beam="2">  1       -1 0.93096522E-01 0.82768975E+02</pdfrwt>
<totfact> 0.41960027E+03</totfact>
</mgrwt>
</event>
<event>
 4    1  0.6602701E-002  0.1296270E+03  0.7546771E-02  0.1228010E+00
         -1   -1    0    0    0  501 -0.00000000000E+00  0.00000000000E+00  0.33497208350E+02  0.33497208350E+02  0.00000000000E+00 0.  1.
          1   -1    0    0  501    0  0.00000000000E+00 -0.00000000000E+00 -0.82822750713E+03  0.82822750713E+03  0.00000000000E+00 0. -1.
         24    1    1    2    0    0 -0.92358019597E+02  0.42496211083E+02 -0.12680035171E+03  0.18133250367E+03  0.80419002446E+02 0.  1.
        -24    1    1    2    0    0  0.92358019597E+02 -0.42496211083E+02 -0.66792994707E+03  0.68039221181E+03  0.80419002446E+02 0. -1.
<mgrwt>
<rscale>  0 0.12962696E+03</rscale>
<asrwt>0</asrwt>
<pdfrwt beam="1">  1        1 0.12741961E+00 0.12962696E+03</pdfrwt>
<pdfrwt beam="2">  1       -1 0.51534168E-02 0.12962696E+03</pdfrwt>
<totfact> 0.35841501E+03</totfact>
</mgrwt>
</event>
<event>
 4    1  0.6602701E-002  0.8759696E+02  0.7546771E-02  0.1308778E+00
         -2   -1    0    0    0  501 -0.00000000000E+00  0.00000000000E+00  0.54725433517E+03  0.54725433517E+03  0.00000000000E+00 0.  1.
          2   -1    0    0  501    0  0.00000000000E+00 -0.00000000000E+00 -0.14296136131E+02  0.14296136131E+02  0.00000000000E+00 0. -1.
         24    1    1    2    0    0  0.84285182427E+01  0.33689271981E+02  0.30540853717E+03  0.31772251651E+03  0.80419002446E+02 0.  0.
        -24    1    1    2    0    0 -0.84285182427E+01 -0.33689271981E+02  0.22754966187E+03  0.24382795479E+03  0.80419002446E+02 0.  0.
<mgrwt>
<rscale>  0 0.87596945E+02</rscale>
<asrwt>0</asrwt>
<pdfrwt beam="1">  1        2 0.21994060E-02 0.87596956E+02</pdfrwt>
<pdfrwt beam="2">  1       -2 0.84192958E-01 0.87596956E+02</pdfrwt>
<totfact> 0.55111106E+03</totfact>
</mgrwt>
</event>
<event>
 4    1  0.6602701E-002  0.1074072E+03  0.7546771E-02  0.1265448E+00
          1   -1    0    0  501    0  0.00000000000E+00  0.00000000000E+00  0.34687105876E+02  0.34687105876E+02  0.00000000000E+00 0. -1.
         -1   -1    0    0    0  501 -0.00000000000E+00 -0.00000000000E+00 -0.10720681401E+04  0.10720681401E+04  0.00000000000E+00 0.  1.
         24    1    1    2    0    0  0.92667463810E+01  0.70591978942E+02 -0.97828556637E+03  0.98416409476E+03  0.80419002446E+02 0.  1.
        -24    1    1    2    0    0 -0.92667463810E+01 -0.70591978942E+02 -0.59095467829E+02  0.12259115120E+03  0.80419002446E+02 0. -1.
<mgrwt>
<rscale>  0 0.10740724E+03</rscale>
<asrwt>0</asrwt>
<pdfrwt beam="1">  1        1 0.53364782E-02 0.10740724E+03</pdfrwt>
<pdfrwt beam="2">  1       -1 0.16493355E+00 0.10740724E+03</pdfrwt>
<totfact> 0.44240085E+02</totfact>
</mgrwt>
</event>
<event>
 4    1  0.6602701E-002  0.1556270E+03  0.7546771E-02  0.1193724E+00
         -2   -1    0    0    0  501 -0.00000000000E+00  0.00000000000E+00  0.26204706004E+02  0.26204706004E+02  0.00000000000E+00 0.  1.
          2   -1    0    0  501    0  0.00000000000E+00 -0.00000000000E+00 -0.25595667899E+04  0.25595667899E+04  0.00000000000E+00 0. -1.
         24    1    1    2    0    0  0.11098579679E+03  0.73720502141E+02 -0.23001025064E+04  0.23053614284E+04  0.80419002446E+02 0. -1.
        -24    1    1    2    0    0 -0.11098579679E+03 -0.73720502141E+02 -0.23325957748E+03  0.28041006752E+03  0.80419002446E+02 0.  1.
<mgrwt>
<rscale>  0 0.15562704E+03</rscale>
<asrwt>0</asrwt>
<pdfrwt beam="1">  1        2 0.39377950E+00 0.15562704E+03</pdfrwt>
<pdfrwt beam="2">  1       -2 0.40314933E-02 0.15562704E+03</pdfrwt>
<totfact> 0.10328898E+03</totfact>
</mgrwt>
</event>
<event>
 4    1  0.6602701E-002  0.1760156E+03  0.7546771E-02  0.1171716E+00
          1   -1    0    0  501    0  0.00000000000E+00  0.00000000000E+00  0.28314347744E+03  0.28314347744E+03  0.00000000000E+00 0. -1.
         -1   -1    0    0    0  501 -0.00000000000E+00 -0.00000000000E+00 -0.10949925117E+03  0.10949925117E+03  0.00000000000E+00 0.  1.
         24    1    1    2    0    0  0.14967152612E+03 -0.45964356187E+02  0.81533984792E+02  0.19398271676E+03  0.80419002446E+02 0.  1.
        -24    1    1    2    0    0 -0.14967152612E+03  0.45964356187E+02  0.92110241477E+02  0.19866001185E+03  0.80419002446E+02 0. -1.
<mgrwt>
<rscale>  0 0.17601563E+03</rscale>
<asrwt>0</asrwt>
<pdfrwt beam="1">  1        1 0.43560535E-01 0.17601563E+03</pdfrwt>
<pdfrwt beam="2">  1       -1 0.16846039E-01 0.17601563E+03</pdfrwt>
<totfact> 0.24713902E+03</totfact>
</mgrwt>
</event>
<event>
 4    1  0.6602701E-002  0.1052445E+03  0.7546771E-02  0.1269639E+00
          1   -1    0    0  501    0  0.00000000000E+00  0.00000000000E+00  0.10124749587E+04  0.10124749587E+04  0.00000000000E+00 0. -1.
         -1   -1    0    0    0  501 -0.00000000000E+00 -0.00000000000E+00 -0.11973487904E+02  0.11973487904E+02  0.00000000000E+00 0.  1.
         24    1    1    2    0    0  0.35876405237E+02 -0.57637375373E+02  0.34975701884E+03  0.36524836984E+03  0.80419002446E+02 0.  1.
        -24    1    1    2    0    0 -0.35876405237E+02  0.57637375373E+02  0.65074445191E+03  0.65920007672E+03  0.80419002446E+02 0. -1.
<mgrwt>
<rscale>  0 0.10524447E+03</rscale>
<asrwt>0</asrwt>
<pdfrwt beam="1">  1        1 0.15576531E+00 0.10524447E+03</pdfrwt>
<pdfrwt beam="2">  1       -1 0.18420759E-02 0.10524447E+03</pdfrwt>
<totfact> 0.11459390E+04</totfact>
</mgrwt>
</event>
<event>
 4    1  0.6602701E-002  0.9178053E+02  0.7546771E-02  0.1298596E+00
          2   -1    0    0  501    0  0.00000000000E+00  0.00000000000E+00  0.28234550137E+03  0.28234550137E+03  0.00000000000E+00 0. -1.
         -2   -1    0    0    0  501 -0.00000000000E+00 -0.00000000000E+00 -0.78813964608E+02  0.78813964608E+02  0.00000000000E+00 0.  1.
         24    1    1    2    0    0  0.30792122717E+02 -0.31753659589E+02  0.24412118072E+03  0.26080417280E+03  0.80419002446E+02 0. -1.
        -24    1    1    2    0    0 -0.30792122717E+02  0.31753659589E+02 -0.40589643955E+02  0.10035529318E+03  0.80419002446E+02 0.  1.
<mgrwt>
<rscale>  0 0.91780530E+02</rscale>
<asrwt>0</asrwt>
<pdfrwt beam="1">  1        2 0.43437769E-01 0.91780530E+02</pdfrwt>
<pdfrwt beam="2">  1       -2 0.12125226E-01 0.91780530E+02</pdfrwt>
<totfact> 0.52968836E+03</totfact>
</mgrwt>
</event>
<event>
 4    1  0.6602701E-002  0.1181481E+03  0.7546771E-02  0.1246184E+00
          1   -1    0    0  501    0  0.00000000000E+00  0.00000000000E+00  0.40897991126E+03  0.40897991126E+03  0.00000000000E+00 0. -1.
         -1   -1    0    0    0  501 -0.00000000000E+00 -0.00000000000E+00 -0.35284361340E+02  0.35284361340E+02  0.00000000000E+00 0.  1.
         24    1    1    2    0    0 -0.73495222311E+02  0.45718827241E+02  0.14669038758E+03  0.18835350973E+03  0.80419002446E+02 0.  1.
        -24    1    1    2    0    0  0.73495222311E+02 -0.45718827241E+02  0.22700516234E+03  0.25591076287E+03  0.80419002446E+02 0. -1.
<mgrwt>
<rscale>  0 0.11814811E+03</rscale>
<asrwt>0</asrwt>
<pdfrwt beam="1">  1        1 0.62919983E-01 0.11814811E+03</pdfrwt>
<pdfrwt beam="2">  1       -1 0.54283636E-02 0.11814811E+03</pdfrwt>
<totfact> 0.86263719E+03</totfact>
</mgrwt>
</event>
<event>
 4    1  0.6602701E-002  0.1005875E+03  0.7546771E-02  0.1279065E+00
          2   -1    0    0  501    0  0.00000000000E+00  0.00000000000E+00  0.62311718460E+03  0.62311718460E+03  0.00000000000E+00 0. -1.
         -2   -1    0    0    0  501 -0.00000000000E+00 -0.00000000000E+00 -0.19543955418E+02  0.19543955418E+02  0.00000000000E+00 0.  1.
         24    1    1    2    0    0 -0.89415836767E+01 -0.59755220050E+02  0.43395522293E+03  0.44546042440E+03  0.80419002446E+02 0. -1.
        -24    1    1    2    0    0  0.89415836767E+01  0.59755220050E+02  0.16961800625E+03  0.19720071562E+03  0.80419002446E+02 0.  1.
<mgrwt>
<rscale>  0 0.10058754E+03</rscale>
<asrwt>0</asrwt>
<pdfrwt beam="1">  1        2 0.95864167E-01 0.10058754E+03</pdfrwt>
<pdfrwt beam="2">  1       -2 0.30067629E-02 0.10058754E+03</pdfrwt>
<totfact> 0.18754714E+04</totfact>
</mgrwt>
</event>
<event>
 4    1  0.6602701E-002  0.1040551E+03  0.7546771E-02  0.1271993E+00
          3   -1    0    0  501    0  0.00000000000E+00  0.00000000000E+00  0.10931981143E+04  0.10931981143E+04  0.00000000000E+00 0. -1.
         -3   -1    0    0    0  501 -0.00000000000E+00 -0.00000000000E+00 -0.11265957969E+02  0.11265957969E+02  0.00000000000E+00 0.  1.
         24    1    1    2    0    0  0.47433467747E+02  0.45938047230E+02  0.34898512609E+03  0.36416764303E+03  0.80419002446E+02 0.  1.
        -24    1    1    2    0    0 -0.47433467747E+02 -0.45938047230E+02  0.73294703028E+03  0.74029642928E+03  0.80419002446E+02 0. -1.
<mgrwt>
<rscale>  0 0.10405505E+03</rscale>
<asrwt>0</asrwt>
<pdfrwt beam="1">  1        3 0.16818424E+00 0.10405505E+03</pdfrwt>
<pdfrwt beam="2">  1       -3 0.17332252E-02 0.10405505E+03</pdfrwt>
<totfact> 0.67933436E+02</totfact>
</mgrwt>
</event>
<event>
 4    1  0.6602701E-002  0.8893308E+02  0.7546771E-02  0.1305456E+00
         -2   -1    0    0    0  501 -0.00000000000E+00  0.00000000000E+00  0.53575408679E+01  0.53575408679E+01  0.00000000000E+00 0.  1.
          2   -1    0    0  501    0  0.00000000000E+00 -0.00000000000E+00 -0.15200066605E+04  0.15200066605E+04  0.00000000000E+00 0. -1.
         24    1    1    2    0    0  0.14006165481E+02 -0.35294524872E+02 -0.88672094337E+03  0.89116952569E+03  0.80419002446E+02 0.  0.
        -24    1    1    2    0    0 -0.14006165481E+02  0.35294524872E+02 -0.62792817631E+03  0.63419467572E+03  0.80419002446E+02 0.  1.
<mgrwt>
<rscale>  0 0.88933077E+02</rscale>
<asrwt>0</asrwt>
<pdfrwt beam="1">  1        2 0.23384661E+00 0.88933077E+02</pdfrwt>
<pdfrwt beam="2">  1       -2 0.82423905E-03 0.88933077E+02</pdfrwt>
<totfact> 0.34696609E+04</totfact>
</mgrwt>
</event>
<event>
 4    1  0.6602701E-002  0.9230971E+02  0.7546771E-02  0.1297353E+00
         -2   -1    0    0    0  501 -0.00000000000E+00  0.00000000000E+00  0.37348715834E+01  0.37348715834E+01  0.00000000000E+00 0.  1.
          2   -1    0    0  501    0  0.00000000000E+00 -0.00000000000E+00 -0.22815712387E+04  0.22815712387E+04  0.00000000000E+00 0. -1.
         24    1    1    2    0    0 -0.41782586615E+02 -0.17552270237E+02 -0.11456172770E+04  0.11493302519E+04  0.80419002446E+02 0.  1.
        -24    1    1    2    0    0  0.41782586615E+02  0.17552270237E+02 -0.11322190901E+04  0.11359758584E+04  0.80419002446E+02 0. -1.
<mgrwt>
<rscale>  0 0.92309711E+02</rscale>
<asrwt>0</asrwt>
<pdfrwt beam="1">  1        2 0.35101180E+00 0.92309711E+02</pdfrwt>
<pdfrwt beam="2">  1       -2 0.57459426E-03 0.92309711E+02</pdfrwt>
<totfact> 0.23864339E+04</totfact>
</mgrwt>
</event>
<event>
 4    1  0.6602701E-002  0.1010986E+03  0.7546771E-02  0.1278002E+00
         -1   -1    0    0    0  501 -0.00000000000E+00  0.00000000000E+00  0.90689754995E+02  0.90689754995E+02  0.00000000000E+00 0.  1.
          1   -1    0    0  501    0  0.00000000000E+00 -0.00000000000E+00 -0.18207132912E+03  0.18207132912E+03  0.00000000000E+00 0. -1.
         24    1    1    2    0    0  0.60986947438E+02  0.58575049665E+01  0.38490348664E+02  0.10817782128E+03  0.80419002446E+02 0.  1.
        -24    1    1    2    0    0 -0.60986947438E+02 -0.58575049665E+01 -0.12987192279E+03  0.16458326283E+03  0.80419002446E+02 0. -1.
<mgrwt>
<rscale>  0 0.10109864E+03</rscale>
<asrwt>0</asrwt>
<pdfrwt beam="1">  1        1 0.28010973E-01 0.10109864E+03</pdfrwt>
<pdfrwt beam="2">  1       -1 0.13952270E-01 0.10109864E+03</pdfrwt>
<totfact> 0.55749483E+03</totfact>
</mgrwt>
</event>
<event>
 4    1  0.6602701E-002  0.1234689E+03  0.7546771E-02  0.1237482E+00
         -3   -1    0    0    0  501 -0.00000000000E+00  0.00000000000E+00  0.42106305424E+02  0.42106305424E+02  0.00000000000E+00 0.  1.
          3   -1    0    0  501    0  0.00000000000E+00 -0.00000000000E+00 -0.37320923043E+03  0.37320923043E+03  0.00000000000E+00 0. -1.
         24    1    1    2    0    0  0.93083551514E+02  0.10620606044E+02 -0.12964260110E+03  0.17903006677E+03  0.80419002446E+02 0.  1.
        -24    1    1    2    0    0 -0.93083551514E+02 -0.10620606044E+02 -0.20146032391E+03  0.23628546908E+03  0.80419002446E+02 0. -1.
<mgrwt>
<rscale>  0 0.12346887E+03</rscale>
<asrwt>0</asrwt>
<pdfrwt beam="1">  1        3 0.57416803E-01 0.12346887E+03</pdfrwt>
<pdfrwt beam="2">  1       -3 0.64778933E-02 0.12346887E+03</pdfrwt>
<totfact> 0.10303414E+03</totfact>
</mgrwt>
</event>
<event>
 4    1  0.6602701E-002  0.1291631E+03  0.7546771E-02  0.1228703E+00
          1   -1    0    0  501    0  0.00000000000E+00  0.00000000000E+00  0.46531561625E+03  0.46531561625E+03  0.00000000000E+00 0. -1.
         -1   -1    0    0    0  501 -0.00000000000E+00 -0.00000000000E+00 -0.53171716236E+02  0.53171716236E+02  0.00000000000E+00 0.  1.
         24    1    1    2    0    0 -0.14637003095E+02  0.10000827480E+03  0.58119702617E+02  0.14163690435E+03  0.80419002446E+02 0.  1.
        -24    1    1    2    0    0  0.14637003095E+02 -0.10000827480E+03  0.35402419740E+03  0.37685042814E+03  0.80419002446E+02 0. -1.
<mgrwt>
<rscale>  0 0.12916312E+03</rscale>
<asrwt>0</asrwt>
<pdfrwt beam="1">  1        1 0.71587015E-01 0.12916312E+03</pdfrwt>
<pdfrwt beam="2">  1       -1 0.81802644E-02 0.12916312E+03</pdfrwt>
<totfact> 0.39913031E+03</totfact>
</mgrwt>
</event>
<event>
 4    1  0.6602701E-002  0.1264455E+03  0.7546771E-02  0.1232827E+00
          2   -1    0    0  501    0  0.00000000000E+00  0.00000000000E+00  0.32821987241E+03  0.32821987241E+03  0.00000000000E+00 0. -1.
         -2   -1    0    0    0  501 -0.00000000000E+00 -0.00000000000E+00 -0.73207916642E+02  0.73207916642E+02  0.00000000000E+00 0.  1.
         24    1    1    2    0    0  0.92712646304E+02 -0.30423704150E+02  0.24360797639E+03  0.27446912153E+03  0.80419002446E+02 0. -1.
        -24    1    1    2    0    0 -0.92712646304E+02  0.30423704150E+02  0.11403979379E+02  0.12695866752E+03  0.80419002446E+02 0.  1.
<mgrwt>
<rscale>  0 0.12644545E+03</rscale>
<asrwt>0</asrwt>
<pdfrwt beam="1">  1        2 0.50495364E-01 0.12644545E+03</pdfrwt>
<pdfrwt beam="2">  1       -2 0.11262757E-01 0.12644545E+03</pdfrwt>
<totfact> 0.51872720E+03</totfact>
</mgrwt>
</event>
<event>
 4    1  0.6602701E-002  0.1381961E+03  0.7546771E-02  0.1215777E+00
         -2   -1    0    0    0  501 -0.00000000000E+00  0.00000000000E+00  0.75883542157E+02  0.75883542157E+02  0.00000000000E+00 0.  1.
          2   -1    0    0  501    0  0.00000000000E+00 -0.00000000000E+00 -0.48445300231E+03  0.48445300231E+03  0.00000000000E+00 0. -1.
         24    1    1    2    0    0 -0.82811268601E+02  0.75981823822E+02 -0.10079011539E+02  0.13856314873E+03  0.80419002446E+02 0.  1.
        -24    1    1    2    0    0  0.82811268601E+02 -0.75981823822E+02 -0.39849044862E+03  0.42177339574E+03  0.80419002446E+02 0. -1.
<mgrwt>
<rscale>  0 0.13819611E+03</rscale>
<asrwt>0</asrwt>
<pdfrwt beam="1">  1        2 0.74531232E-01 0.13819613E+03</pdfrwt>
<pdfrwt beam="2">  1       -2 0.11674391E-01 0.13819613E+03</pdfrwt>
<totfact> 0.32440858E+03</totfact>
</mgrwt>
</event>
<event>
 4    1  0.6602701E-002  0.8042390E+02  0.7546771E-02  0.1327853E+00
         -1   -1    0    0    0  501 -0.00000000000E+00  0.00000000000E+00  0.80828114948E+01  0.80828114948E+01  0.00000000000E+00 0.  1.
          1   -1    0    0  501    0  0.00000000000E+00 -0.00000000000E+00 -0.13265644855E+04  0.13265644855E+04  0.00000000000E+00 0. -1.
         24    1    1    2    0    0 -0.75645748948E+00  0.46484635168E+00 -0.23889325587E+03  0.25206743536E+03  0.80419002446E+02 0.  1.
        -24    1    1    2    0    0  0.75645748948E+00 -0.46484635168E+00 -0.10795884181E+04  0.10825798616E+04  0.80419002446E+02 0.  0.
<mgrwt>
<rscale>  0 0.80423904E+02</rscale>
<asrwt>0</asrwt>
<pdfrwt beam="1">  1        1 0.20408700E+00 0.80423904E+02</pdfrwt>
<pdfrwt beam="2">  1       -1 0.12435085E-02 0.80423904E+02</pdfrwt>
<totfact> 0.12009118E+04</totfact>
</mgrwt>
</event>
<event>
 4    1  0.6602701E-002  0.1209877E+03  0.7546771E-02  0.1241477E+00
         -2   -1    0    0    0  501 -0.00000000000E+00  0.00000000000E+00  0.13661264513E+02  0.13661264513E+02  0.00000000000E+00 0.  1.
          2   -1    0    0  501    0  0.00000000000E+00 -0.00000000000E+00 -0.16083933612E+04  0.16083933612E+04  0.00000000000E+00 0. -1.
         24    1    1    2    0    0 -0.70070460380E+02  0.57104538419E+02 -0.12659466290E+04  0.12717149371E+04  0.80419002446E+02 0. -1.
        -24    1    1    2    0    0  0.70070460380E+02 -0.57104538419E+02 -0.32878546770E+03  0.35033968866E+03  0.80419002446E+02 0.  1.
<mgrwt>
<rscale>  0 0.12098766E+03</rscale>
<asrwt>0</asrwt>
<pdfrwt beam="1">  1        2 0.24744515E+00 0.12098766E+03</pdfrwt>
<pdfrwt beam="2">  1       -2 0.21017328E-02 0.12098766E+03</pdfrwt>
<totfact> 0.83701672E+03</totfact>
</mgrwt>
</event>
<event>
 4    1  0.6602701E-002  0.1268676E+03  0.7546771E-02  0.1232179E+00
         -1   -1    0    0    0  501 -0.00000000000E+00  0.00000000000E+00  0.10896205627E+03  0.10896205627E+03  0.00000000000E+00 0.  1.
          1   -1    0    0  501    0  0.00000000000E+00 -0.00000000000E+00 -0.17258972145E+03  0.17258972145E+03  0.00000000000E+00 0. -1.
         24    1    1    2    0    0  0.23802489233E+02 -0.95192569212E+02  0.21629601420E+02  0.12869824917E+03  0.80419002446E+02 0.  1.
        -24    1    1    2    0    0 -0.23802489233E+02  0.95192569212E+02 -0.85257266604E+02  0.15285352855E+03  0.80419002446E+02 0. -1.
<mgrwt>
<rscale>  0 0.12686765E+03</rscale>
<asrwt>0</asrwt>
<pdfrwt beam="1">  1        1 0.26552265E-01 0.12686765E+03</pdfrwt>
<pdfrwt beam="2">  1       -1 0.16763393E-01 0.12686765E+03</pdfrwt>
<totfact> 0.45400536E+03</totfact>
</mgrwt>
</event>
<event>
 4    1  0.6602701E-002  0.8588987E+02  0.7546771E-02  0.1313122E+00
          2   -1    0    0  501    0  0.00000000000E+00  0.00000000000E+00  0.20113148536E+03  0.20113148536E+03  0.00000000000E+00 0. -1.
         -2   -1    0    0    0  501 -0.00000000000E+00 -0.00000000000E+00 -0.38210918847E+02  0.38210918847E+02  0.00000000000E+00 0.  1.
         24    1    1    2    0    0 -0.94455450096E+01 -0.28646726710E+02  0.10543081148E+03  0.13598795989E+03  0.80419002446E+02 0. -1.
        -24    1    1    2    0    0  0.94455450096E+01  0.28646726710E+02  0.57489755031E+02  0.10335444432E+03  0.80419002446E+02 0.  1.
<mgrwt>
<rscale>  0 0.85889867E+02</rscale>
<asrwt>0</asrwt>
<pdfrwt beam="1">  1        2 0.30943305E-01 0.85889867E+02</pdfrwt>
<pdfrwt beam="2">  1       -2 0.58786030E-02 0.85889867E+02</pdfrwt>
<totfact> 0.22873044E+04</totfact>
</mgrwt>
</event>
<event>
 4    1  0.6602701E-002  0.1009779E+03  0.7546771E-02  0.1278253E+00
          1   -1    0    0  501    0  0.00000000000E+00  0.00000000000E+00  0.10973196428E+03  0.10973196428E+03  0.00000000000E+00 0. -1.
         -1   -1    0    0    0  501 -0.00000000000E+00 -0.00000000000E+00 -0.10410941768E+03  0.10410941768E+03  0.00000000000E+00 0.  1.
         24    1    1    2    0    0 -0.58293377546E+02  0.18198784540E+02 -0.32237986064E+02  0.10599913832E+03  0.80419002446E+02 0.  1.
        -24    1    1    2    0    0  0.58293377546E+02 -0.18198784540E+02  0.37860532663E+02  0.10784224364E+03  0.80419002446E+02 0. -1.
<mgrwt>
<rscale>  0 0.10097787E+03</rscale>
<asrwt>0</asrwt>
<pdfrwt beam="1">  1        1 0.16881841E-01 0.10097787E+03</pdfrwt>
<pdfrwt beam="2">  1       -1 0.16016833E-01 0.10097787E+03</pdfrwt>
<totfact> 0.84876898E+03</totfact>
</mgrwt>
</event>
<event>
 4    1  0.6602701E-002  0.8147971E+02  0.7546771E-02  0.1324904E+00
          2   -1    0    0  501    0  0.00000000000E+00  0.00000000000E+00  0.37863176131E+03  0.37863176131E+03  0.00000000000E+00 0. -1.
         -2   -1    0    0    0  501 -0.00000000000E+00 -0.00000000000E+00 -0.85247467461E+02  0.85247467461E+02  0.00000000000E+00 0.  1.
         24    1    1    2    0    0  0.25025850832E+01 -0.12863260640E+02  0.35340696241E+03  0.36267812650E+03  0.80419002446E+02 0. -1.
        -24    1    1    2    0    0 -0.25025850832E+01  0.12863260640E+02 -0.60022668559E+02  0.10120110227E+03  0.80419002446E+02 0.  1.
<mgrwt>
<rscale>  0 0.81479705E+02</rscale>
<asrwt>0</asrwt>
<pdfrwt beam="1">  1        2 0.58251039E-01 0.81479705E+02</pdfrwt>
<pdfrwt beam="2">  1       -2 0.13114995E-01 0.81479705E+02</pdfrwt>
<totfact> 0.34164497E+03</totfact>
</mgrwt>
</event>
<event>
 4    1  0.6602701E-002  0.8940915E+02  0.7546771E-02  0.1304289E+00
          1   -1    0    0  501    0  0.00000000000E+00  0.00000000000E+00  0.12802449113E+03  0.12802449113E+03  0.00000000000E+00 0. -1.
         -1   -1    0    0    0  501 -0.00000000000E+00 -0.00000000000E+00 -0.16872950852E+03  0.16872950852E+03  0.00000000000E+00 0.  1.
         24    1    1    2    0    0 -0.35321793485E+02  0.16707838641E+02 -0.13811687710E+03  0.16453044904E+03  0.80419002446E+02 0.  1.
        -24    1    1    2    0    0  0.35321793485E+02 -0.16707838641E+02  0.97411859720E+02  0.13222355061E+03  0.80419002446E+02 0.  0.
<mgrwt>
<rscale>  0 0.89409155E+02</rscale>
<asrwt>0</asrwt>
<pdfrwt beam="1">  1        1 0.19696076E-01 0.89409155E+02</pdfrwt>
<pdfrwt beam="2">  1       -1 0.25958386E-01 0.89409155E+02</pdfrwt>
<totfact> 0.32052890E+03</totfact>
</mgrwt>
</event>
<event>
 4    1  0.6602701E-002  0.4629328E+03  0.7546771E-02  0.1023934E+00
         -1   -1    0    0    0  501 -0.00000000000E+00  0.00000000000E+00  0.27284463943E+03  0.27284463943E+03  0.00000000000E+00 0.  1.
          1   -1    0    0  501    0  0.00000000000E+00 -0.00000000000E+00 -0.12673664030E+04  0.12673664030E+04  0.00000000000E+00 0. -1.
         24    1    1    2    0    0  0.27583068662E+03 -0.36298339835E+03 -0.22381301941E+02  0.46347346611E+03  0.80419002446E+02 0.  1.
        -24    1    1    2    0    0 -0.27583068662E+03  0.36298339835E+03 -0.97214046161E+03  0.10767375763E+04  0.80419002446E+02 0. -1.
<mgrwt>
<rscale>  0 0.46293275E+03</rscale>
<asrwt>0</asrwt>
<pdfrwt beam="1">  1        1 0.19497944E+00 0.46293275E+03</pdfrwt>
<pdfrwt beam="2">  1       -1 0.41976099E-01 0.46293275E+03</pdfrwt>
<totfact> 0.56623994E+01</totfact>
</mgrwt>
</event>
<event>
 4    1  0.6602701E-002  0.1486825E+03  0.7546771E-02  0.1202101E+00
         -2   -1    0    0    0  501 -0.00000000000E+00  0.00000000000E+00  0.60269800477E+02  0.60269800477E+02  0.00000000000E+00 0.  1.
          2   -1    0    0  501    0  0.00000000000E+00 -0.00000000000E+00 -0.11183944086E+04  0.11183944086E+04  0.00000000000E+00 0. -1.
         24    1    1    2    0    0  0.58269957347E+02  0.11065201683E+03 -0.10121842062E+04  0.10230461085E+04  0.80419002446E+02 0. -1.
        -24    1    1    2    0    0 -0.58269957347E+02 -0.11065201683E+03 -0.45940401898E+02  0.15561810061E+03  0.80419002446E+02 0.  1.
<mgrwt>
<rscale>  0 0.14868246E+03</rscale>
<asrwt>0</asrwt>
<pdfrwt beam="1">  1        2 0.17206069E+00 0.14868246E+03</pdfrwt>
<pdfrwt beam="2">  1       -2 0.92722765E-02 0.14868246E+03</pdfrwt>
<totfact> 0.16663740E+03</totfact>
</mgrwt>
</event>
<event>
 4    1  0.6602701E-002  0.1019939E+03  0.7546771E-02  0.1276158E+00
          3   -1    0    0  501    0  0.00000000000E+00  0.00000000000E+00  0.17203585978E+03  0.17203585978E+03  0.00000000000E+00 0. -1.
         -3   -1    0    0    0  501 -0.00000000000E+00 -0.00000000000E+00 -0.62350553138E+02  0.62350553138E+02  0.00000000000E+00 0.  1.
         24    1    1    2    0    0 -0.62430611907E+02 -0.61615045766E+01  0.34482040816E+02  0.10766509432E+03  0.80419002446E+02 0.  1.
        -24    1    1    2    0    0  0.62430611907E+02  0.61615045766E+01  0.75203265825E+02  0.12672131860E+03  0.80419002446E+02 0. -1.
<mgrwt>
<rscale>  0 0.10199393E+03</rscale>
<asrwt>0</asrwt>
<pdfrwt beam="1">  1        3 0.26467055E-01 0.10199393E+03</pdfrwt>
<pdfrwt beam="2">  1       -3 0.95923928E-02 0.10199393E+03</pdfrwt>
<totfact> 0.23219610E+03</totfact>
</mgrwt>
</event>
<event>
 4    1  0.6602701E-002  0.8265122E+02  0.7546771E-02  0.1321692E+00
         -1   -1    0    0    0  501 -0.00000000000E+00  0.00000000000E+00  0.60086218928E+03  0.60086218928E+03  0.00000000000E+00 0.  1.
          1   -1    0    0  501    0  0.00000000000E+00 -0.00000000000E+00 -0.18781192726E+02  0.18781192726E+02  0.00000000000E+00 0. -1.
         24    1    1    2    0    0  0.29005913651E+01  0.18857129897E+02  0.96404716103E+02  0.12698460544E+03  0.80419002446E+02 0.  0.
        -24    1    1    2    0    0 -0.29005913651E+01 -0.18857129897E+02  0.48567628045E+03  0.49265877656E+03  0.80419002446E+02 0.  1.
<mgrwt>
<rscale>  0 0.82651210E+02</rscale>
<asrwt>0</asrwt>
<pdfrwt beam="1">  1        1 0.28894147E-02 0.82651220E+02</pdfrwt>
<pdfrwt beam="2">  1       -1 0.92440322E-01 0.82651220E+02</pdfrwt>
<totfact> 0.39784801E+03</totfact>
</mgrwt>
</event>
<event>
 4    1  0.6602701E-002  0.2259500E+03  0.7546771E-02  0.1129523E+00
          1   -1    0    0  501    0  0.00000000000E+00  0.00000000000E+00  0.60320658871E+03  0.60320658871E+03  0.00000000000E+00 0. -1.
         -1   -1    0    0    0  501 -0.00000000000E+00 -0.00000000000E+00 -0.90938967715E+02  0.90938967715E+02  0.00000000000E+00 0.  1.
         24    1    1    2    0    0  0.15432258279E+03 -0.14412054864E+03  0.16476575808E+03  0.27964470868E+03  0.80419002446E+02 0. -1.
        -24    1    1    2    0    0 -0.15432258279E+03  0.14412054864E+03  0.34750186292E+03  0.41450084775E+03  0.80419002446E+02 0.  1.
<mgrwt>
<rscale>  0 0.22595001E+03</rscale>
<asrwt>0</asrwt>
<pdfrwt beam="1">  1        1 0.92801011E-01 0.22595001E+03</pdfrwt>
<pdfrwt beam="2">  1       -1 0.13990611E-01 0.22595001E+03</pdfrwt>
<totfact> 0.12535121E+03</totfact>
</mgrwt>
</event>
<event>
 4    1  0.6602701E-002  0.9774506E+02  0.7546771E-02  0.1285111E+00
          2   -1    0    0  501    0  0.00000000000E+00  0.00000000000E+00  0.29094695737E+03  0.29094695737E+03  0.00000000000E+00 0. -1.
         -2   -1    0    0    0  501 -0.00000000000E+00 -0.00000000000E+00 -0.10511667988E+03  0.10511667988E+03  0.00000000000E+00 0.  1.
         24    1    1    2    0    0 -0.53069043012E+02 -0.16448607537E+02  0.25712698083E+03  0.27507886185E+03  0.80419002446E+02 0. -1.
        -24    1    1    2    0    0  0.53069043012E+02  0.16448607537E+02 -0.71296703342E+02  0.12098477540E+03  0.80419002446E+02 0.  1.
<mgrwt>
<rscale>  0 0.97745056E+02</rscale>
<asrwt>0</asrwt>
<pdfrwt beam="1">  1        2 0.44761070E-01 0.97745056E+02</pdfrwt>
<pdfrwt beam="2">  1       -2 0.16171797E-01 0.97745056E+02</pdfrwt>
<totfact> 0.32430671E+03</totfact>
</mgrwt>
</event>
<event>
 4    1  0.6602701E-002  0.9339508E+02  0.7546771E-02  0.1294832E+00
          1   -1    0    0  501    0  0.00000000000E+00  0.00000000000E+00  0.18324756356E+04  0.18324756356E+04  0.00000000000E+00 0. -1.
         -1   -1    0    0    0  501 -0.00000000000E+00 -0.00000000000E+00 -0.52145900585E+01  0.52145900585E+01  0.00000000000E+00 0.  1.
         24    1    1    2    0    0  0.47166388604E+02  0.55458342660E+01  0.64234445994E+03  0.64909864093E+03  0.80419002446E+02 0.  0.
        -24    1    1    2    0    0 -0.47166388604E+02 -0.55458342660E+01  0.11849165856E+04  0.11885915847E+04  0.80419002446E+02 0.  1.
<mgrwt>
<rscale>  0 0.93395077E+02</rscale>
<asrwt>0</asrwt>
<pdfrwt beam="1">  1        1 0.28191881E+00 0.93395077E+02</pdfrwt>
<pdfrwt beam="2">  1       -1 0.80224609E-03 0.93395077E+02</pdfrwt>
<totfact> 0.10731134E+04</totfact>
</mgrwt>
</event>
<event>
 4    1  0.6602701E-002  0.8963128E+02  0.7546771E-02  0.1303747E+00
          2   -1    0    0  501    0  0.00000000000E+00  0.00000000000E+00  0.76014901066E+01  0.76014901066E+01  0.00000000000E+00 0. -1.
         -2   -1    0    0    0  501 -0.00000000000E+00 -0.00000000000E+00 -0.13414039038E+04  0.13414039038E+04  0.00000000000E+00 0.  1.
         24    1    1    2    0    0 -0.14499227820E+02 -0.36828292280E+02 -0.35625007217E+03  0.36735252904E+03  0.80419002446E+02 0. -1.
        -24    1    1    2    0    0  0.14499227820E+02  0.36828292280E+02 -0.97755234149E+03  0.98165286483E+03  0.80419002446E+02 0.  1.
<mgrwt>
<rscale>  0 0.89631282E+02</rscale>
<asrwt>0</asrwt>
<pdfrwt beam="1">  1        2 0.11694595E-02 0.89631282E+02</pdfrwt>
<pdfrwt beam="2">  1       -2 0.20636993E+00 0.89631282E+02</pdfrwt>
<totfact> 0.14210599E+03</totfact>
</mgrwt>
</event>
<event>
 4    1  0.6602701E-002  0.8975441E+02  0.7546771E-02  0.1303448E+00
         -2   -1    0    0    0  501 -0.00000000000E+00  0.00000000000E+00  0.97349930334E+01  0.97349930334E+01  0.00000000000E+00 0.  1.
          2   -1    0    0  501    0  0.00000000000E+00 -0.00000000000E+00 -0.84108896797E+03  0.84108896797E+03  0.00000000000E+00 0. -1.
         24    1    1    2    0    0  0.34976828842E+02 -0.19111747177E+02 -0.46972019566E+03  0.47821848104E+03  0.80419002446E+02 0. -1.
        -24    1    1    2    0    0 -0.34976828842E+02  0.19111747177E+02 -0.36163377928E+03  0.37260547997E+03  0.80419002446E+02 0.  1.
<mgrwt>
<rscale>  0 0.89754406E+02</rscale>
<asrwt>0</asrwt>
<pdfrwt beam="1">  1        2 0.12939829E+00 0.89754406E+02</pdfrwt>
<pdfrwt beam="2">  1       -2 0.14976914E-02 0.89754406E+02</pdfrwt>
<totfact> 0.35491142E+04</totfact>
</mgrwt>
</event>
<event>
 4    1  0.6602701E-002  0.1237244E+03  0.7546771E-02  0.1237076E+00
          3   -1    0    0  501    0  0.00000000000E+00  0.00000000000E+00  0.20245998373E+03  0.20245998373E+03  0.00000000000E+00 0. -1.
         -3   -1    0    0    0  501 -0.00000000000E+00 -0.00000000000E+00 -0.11735553201E+03  0.11735553201E+03  0.00000000000E+00 0.  1.
         24    1    1    2    0    0 -0.58471847031E+02 -0.73631198212E+02 -0.52821723981E+02  0.13452828968E+03  0.80419002446E+02 0.  1.
        -24    1    1    2    0    0  0.58471847031E+02  0.73631198212E+02  0.13792617570E+03  0.18528722606E+03  0.80419002446E+02 0.  0.
<mgrwt>
<rscale>  0 0.12372440E+03</rscale>
<asrwt>0</asrwt>
<pdfrwt beam="1">  1        3 0.31147690E-01 0.12372440E+03</pdfrwt>
<pdfrwt beam="2">  1       -3 0.18054697E-01 0.12372440E+03</pdfrwt>
<totfact> 0.61440990E+02</totfact>
</mgrwt>
</event>
<event>
 4    1  0.6602701E-002  0.1271888E+03  0.7546771E-02  0.1231688E+00
         -1   -1    0    0    0  501 -0.00000000000E+00  0.00000000000E+00  0.61994594166E+02  0.61994594166E+02  0.00000000000E+00 0.  1.
          1   -1    0    0  501    0  0.00000000000E+00 -0.00000000000E+00 -0.43542872546E+03  0.43542872546E+03  0.00000000000E+00 0. -1.
         24    1    1    2    0    0 -0.12353711618E+02 -0.97760770968E+02 -0.29275753118E+02  0.13051462832E+03  0.80419002446E+02 0.  1.
        -24    1    1    2    0    0  0.12353711618E+02  0.97760770968E+02 -0.34415837817E+03  0.36690869130E+03  0.80419002446E+02 0. -1.
<mgrwt>
<rscale>  0 0.12718883E+03</rscale>
<asrwt>0</asrwt>
<pdfrwt beam="1">  1        1 0.66989035E-01 0.12718883E+03</pdfrwt>
<pdfrwt beam="2">  1       -1 0.95376299E-02 0.12718883E+03</pdfrwt>
<totfact> 0.34411867E+03</totfact>
</mgrwt>
</event>
<event>
 4    1  0.6602701E-002  0.1383628E+03  0.7546771E-02  0.1215549E+00
          2   -1    0    0  501    0  0.00000000000E+00  0.00000000000E+00  0.83529412442E+03  0.83529412442E+03  0.00000000000E+00 0. -1.
         -2   -1    0    0    0  501 -0.00000000000E+00 -0.00000000000E+00 -0.23066532079E+02  0.23066532079E+02  0.00000000000E+00 0.  1.
         24    1    1    2    0    0  0.66339875714E+02 -0.90972897287E+02  0.37181215156E+03  0.39672224434E+03  0.80419002446E+02 0.  0.
        -24    1    1    2    0    0 -0.66339875714E+02  0.90972897287E+02  0.44041544078E+03  0.46163841216E+03  0.80419002446E+02 0.  0.
<mgrwt>
<rscale>  0 0.13836281E+03</rscale>
<asrwt>0</asrwt>
<pdfrwt beam="1">  1        2 0.12850677E+00 0.13836283E+03</pdfrwt>
<pdfrwt beam="2">  1       -2 0.35486979E-02 0.13836283E+03</pdfrwt>
<totfact> 0.10612874E+04</totfact>
</mgrwt>
</event>
<event>
 4    1  0.6602701E-002  0.1335634E+03  0.7546771E-02  0.1222262E+00
         -1   -1    0    0    0  501 -0.00000000000E+00  0.00000000000E+00  0.34178348111E+03  0.34178348111E+03  0.00000000000E+00 0.  1.
          1   -1    0    0  501    0  0.00000000000E+00 -0.00000000000E+00 -0.54380065553E+02  0.54380065553E+02  0.00000000000E+00 0. -1.
         24    1    1    2    0    0 -0.10661515929E+03 -0.22743110747E+01  0.18341330950E+03  0.22689121345E+03  0.80419002446E+02 0.  1.
        -24    1    1    2    0    0  0.10661515929E+03  0.22743110747E+01  0.10399010605E+03  0.16927233321E+03  0.80419002446E+02 0.  0.
<mgrwt>
<rscale>  0 0.13356340E+03</rscale>
<asrwt>0</asrwt>
<pdfrwt beam="1">  1        1 0.83661641E-02 0.13356340E+03</pdfrwt>
<pdfrwt beam="2">  1       -1 0.52582073E-01 0.13356340E+03</pdfrwt>
<totfact> 0.29465123E+03</totfact>
</mgrwt>
</event>
<event>
 4    1  0.6602701E-002  0.1011685E+03  0.7546771E-02  0.1277858E+00
         -1   -1    0    0    0  501 -0.00000000000E+00  0.00000000000E+00  0.13447583015E+02  0.13447583015E+02  0.00000000000E+00 0.  1.
          1   -1    0    0  501    0  0.00000000000E+00 -0.00000000000E+00 -0.78085669527E+03  0.78085669527E+03  0.00000000000E+00 0. -1.
         24    1    1    2    0    0  0.56999146939E+02  0.22780485529E+02 -0.32054553937E+03  0.33613168853E+03  0.80419002446E+02 0.  0.
        -24    1    1    2    0    0 -0.56999146939E+02 -0.22780485529E+02 -0.44686357289E+03  0.45817258975E+03  0.80419002446E+02 0. -1.
<mgrwt>
<rscale>  0 0.10116852E+03</rscale>
<asrwt>0</asrwt>
<pdfrwt beam="1">  1        1 0.12013183E+00 0.10116852E+03</pdfrwt>
<pdfrwt beam="2">  1       -1 0.20688584E-02 0.10116852E+03</pdfrwt>
<totfact> 0.14545645E+04</totfact>
</mgrwt>
</event>
<event>
 4    1  0.6602701E-002  0.8699856E+02  0.7546771E-02  0.1310287E+00
          1   -1    0    0  501    0  0.00000000000E+00  0.00000000000E+00  0.12781175232E+02  0.12781175232E+02  0.00000000000E+00 0. -1.
         -1   -1    0    0    0  501 -0.00000000000E+00 -0.00000000000E+00 -0.75565815289E+03  0.75565815289E+03  0.00000000000E+00 0.  1.
         24    1    1    2    0    0  0.22044043179E+02 -0.24811099227E+02 -0.19272892588E+03  0.21145492501E+03  0.80419002446E+02 0. -1.
        -24    1    1    2    0    0 -0.22044043179E+02  0.24811099227E+02 -0.55014805178E+03  0.55698440311E+03  0.80419002446E+02 0.  0.
<mgrwt>
<rscale>  0 0.86998554E+02</rscale>
<asrwt>0</asrwt>
<pdfrwt beam="1">  1        1 0.19663346E-02 0.86998564E+02</pdfrwt>
<pdfrwt beam="2">  1       -1 0.11625510E+00 0.86998564E+02</pdfrwt>
<totfact> 0.40895485E+03</totfact>
</mgrwt>
</event>
<event>
 4    1  0.6602701E-002  0.1276377E+03  0.7546771E-02  0.1231004E+00
          2   -1    0    0  501    0  0.00000000000E+00  0.00000000000E+00  0.30552242124E+04  0.30552242124E+04  0.00000000000E+00 0. -1.
         -2   -1    0    0    0  501 -0.00000000000E+00 -0.00000000000E+00 -0.55900181321E+01  0.55900181321E+01  0.00000000000E+00 0.  1.
         24    1    1    2    0    0 -0.91224972694E+02  0.38757882439E+02  0.18534183958E+04  0.18578081534E+04  0.80419002446E+02 0. -1.
        -24    1    1    2    0    0  0.91224972694E+02 -0.38757882439E+02  0.11962157985E+04  0.12030060771E+04  0.80419002446E+02 0.  1.
<mgrwt>
<rscale>  0 0.12763771E+03</rscale>
<asrwt>0</asrwt>
<pdfrwt beam="1">  1        2 0.47003316E+00 0.12763771E+03</pdfrwt>
<pdfrwt beam="2">  1       -2 0.86000523E-03 0.12763771E+03</pdfrwt>
<totfact> 0.51654923E+03</totfact>
</mgrwt>
</event>
<event>
 4    1  0.6602701E-002  0.1611982E+03  0.7546771E-02  0.1187351E+00
         -2   -1    0    0    0  501 -0.00000000000E+00  0.00000000000E+00  0.11868726291E+03  0.11868726291E+03  0.00000000000E+00 0.  1.
          2   -1    0    0  501    0  0.00000000000E+00 -0.00000000000E+00 -0.21928720521E+03  0.21928720521E+03  0.00000000000E+00 0. -1.
         24    1    1    2    0    0  0.74559532458E+02  0.11814606452E+03 -0.43530488062E+02  0.16697226053E+03  0.80419002446E+02 0.  1.
        -24    1    1    2    0    0 -0.74559532458E+02 -0.11814606452E+03 -0.57069454237E+02  0.17100220759E+03  0.80419002446E+02 0. -1.
<mgrwt>
<rscale>  0 0.16119814E+03</rscale>
<asrwt>0</asrwt>
<pdfrwt beam="1">  1        2 0.33736493E-01 0.16119816E+03</pdfrwt>
<pdfrwt beam="2">  1       -2 0.18259579E-01 0.16119816E+03</pdfrwt>
<totfact> 0.36763513E+03</totfact>
</mgrwt>
</event>
<event>
 4    1  0.6602701E-002  0.8293446E+02  0.7546771E-02  0.1320924E+00
         -2   -1    0    0    0  501 -0.00000000000E+00  0.00000000000E+00  0.59074794347E+01  0.59074794347E+01  0.00000000000E+00 0.  1.
          2   -1    0    0  501    0  0.00000000000E+00 -0.00000000000E+00 -0.11922421794E+04  0.11922421794E+04  0.00000000000E+00 0. -1.
         24    1    1    2    0    0 -0.19263186512E+02  0.63114895543E+01 -0.50146667706E+03  0.50827841722E+03  0.80419002446E+02 0.  0.
        -24    1    1    2    0    0  0.19263186512E+02 -0.63114895543E+01 -0.68486802288E+03  0.68987124159E+03  0.80419002446E+02 0. -1.
<mgrwt>
<rscale>  0 0.82934450E+02</rscale>
<asrwt>0</asrwt>
<pdfrwt beam="1">  1        2 0.18342167E+00 0.82934460E+02</pdfrwt>
<pdfrwt beam="2">  1       -2 0.90884398E-03 0.82934460E+02</pdfrwt>
<totfact> 0.44549360E+04</totfact>
</mgrwt>
</event>
<event>
 4    1  0.6602701E-002  0.1039294E+03  0.7546771E-02  0.1272243E+00
          1   -1    0    0  501    0  0.00000000000E+00  0.00000000000E+00  0.76615336104E+03  0.76615336104E+03  0.00000000000E+00 0. -1.
         -1   -1    0    0    0  501 -0.00000000000E+00 -0.00000000000E+00 -0.16721996993E+02  0.16721996993E+02  0.00000000000E+00 0.  1.
         24    1    1    2    0    0 -0.12151252561E+02 -0.64702818818E+02  0.52977223194E+03  0.53987030053E+03  0.80419002446E+02 0. -1.
        -24    1    1    2    0    0  0.12151252561E+02  0.64702818818E+02  0.21965913211E+03  0.24300505751E+03  0.80419002446E+02 0.  1.
<mgrwt>
<rscale>  0 0.10392943E+03</rscale>
<asrwt>0</asrwt>
<pdfrwt beam="1">  1        1 0.11786972E+00 0.10392944E+03</pdfrwt>
<pdfrwt beam="2">  1       -1 0.25726155E-02 0.10392944E+03</pdfrwt>
<totfact> 0.10960819E+04</totfact>
</mgrwt>
</event>
<event>
 4    1  0.6602701E-002  0.1263394E+03  0.7546771E-02  0.1232991E+00
         -1   -1    0    0    0  501 -0.00000000000E+00  0.00000000000E+00  0.35451851367E+02  0.35451851367E+02  0.00000000000E+00 0.  1.
          1   -1    0    0  501    0  0.00000000000E+00 -0.00000000000E+00 -0.50395953195E+03  0.50395953195E+03  0.00000000000E+00 0. -1.
         24    1    1    2    0    0  0.37378422767E+02 -0.89984863277E+02 -0.14619325020E+03  0.19322035210E+03  0.80419002446E+02 0.  1.
        -24    1    1    2    0    0 -0.37378422767E+02  0.89984863277E+02 -0.32231443038E+03  0.34619103121E+03  0.80419002446E+02 0. -1.
<mgrwt>
<rscale>  0 0.12633938E+03</rscale>
<asrwt>0</asrwt>
<pdfrwt beam="1">  1        1 0.77532232E-01 0.12633938E+03</pdfrwt>
<pdfrwt beam="2">  1       -1 0.54541312E-02 0.12633938E+03</pdfrwt>
<totfact> 0.65886641E+03</totfact>
</mgrwt>
</event>
<event>
 4    1  0.6602701E-002  0.1054795E+03  0.7546771E-02  0.1269178E+00
          1   -1    0    0  501    0  0.00000000000E+00  0.00000000000E+00  0.18694148108E+04  0.18694148108E+04  0.00000000000E+00 0. -1.
         -1   -1    0    0    0  501 -0.00000000000E+00 -0.00000000000E+00 -0.16012596131E+02  0.16012596131E+02  0.00000000000E+00 0.  1.
         24    1    1    2    0    0  0.61257056737E+02  0.30104356428E+02  0.17944319740E+03  0.20814844781E+03  0.80419002446E+02 0.  1.
        -24    1    1    2    0    0 -0.61257056737E+02 -0.30104356428E+02  0.16739590172E+04  0.16772789591E+04  0.80419002446E+02 0. -1.
<mgrwt>
<rscale>  0 0.10547945E+03</rscale>
<asrwt>0</asrwt>
<pdfrwt beam="1">  1        1 0.28760211E+00 0.10547945E+03</pdfrwt>
<pdfrwt beam="2">  1       -1 0.24634778E-02 0.10547945E+03</pdfrwt>
<totfact> 0.20709821E+03</totfact>
</mgrwt>
</event>
<event>
 4    1  0.6602701E-002  0.8093461E+02  0.7546771E-02  0.1326420E+00
          2   -1    0    0  501    0  0.00000000000E+00  0.00000000000E+00  0.12264504013E+03  0.12264504013E+03  0.00000000000E+00 0. -1.
         -2   -1    0    0    0  501 -0.00000000000E+00 -0.00000000000E+00 -0.53439821019E+02  0.53439821019E+02  0.00000000000E+00 0.  1.
         24    1    1    2    0    0 -0.84619291717E+01 -0.34045986466E+01  0.36699424547E+02  0.88866524933E+02  0.80419002446E+02 0.  1.
        -24    1    1    2    0    0  0.84619291717E+01  0.34045986466E+01  0.32505794559E+02  0.87218336212E+02  0.80419002446E+02 0.  0.
<mgrwt>
<rscale>  0 0.80934612E+02</rscale>
<asrwt>0</asrwt>
<pdfrwt beam="1">  1        2 0.18868468E-01 0.80934612E+02</pdfrwt>
<pdfrwt beam="2">  1       -2 0.82215110E-02 0.80934612E+02</pdfrwt>
<totfact> 0.23471577E+04</totfact>
</mgrwt>
</event>
<event>
 4    1  0.6602701E-002  0.8064493E+02  0.7546771E-02  0.1327231E+00
          4   -1    0    0  501    0  0.00000000000E+00  0.00000000000E+00  0.55248052364E+03  0.55248052364E+03  0.00000000000E+00 0. -1.
         -4   -1    0    0    0  501 -0.00000000000E+00 -0.00000000000E+00 -0.17046710047E+02  0.17046710047E+02  0.00000000000E+00 0.  1.
         24    1    1    2    0    0 -0.33884431258E+01 -0.49906447487E+01  0.42612529115E+03  0.43368925256E+03  0.80419002446E+02 0. -1.
        -24    1    1    2    0    0  0.33884431258E+01  0.49906447487E+01  0.10930852245E+03  0.13583798113E+03  0.80419002446E+02 0.  0.
<mgrwt>
<rscale>  0 0.80644926E+02</rscale>
<asrwt>0</asrwt>
<pdfrwt beam="1">  1        4 0.84996990E-01 0.80644926E+02</pdfrwt>
<pdfrwt beam="2">  1       -4 0.26225712E-02 0.80644926E+02</pdfrwt>
<totfact> 0.12065307E+03</totfact>
</mgrwt>
</event>
<event>
 4    1  0.6602701E-002  0.1298198E+03  0.7546771E-02  0.1227723E+00
          1   -1    0    0  501    0  0.00000000000E+00  0.00000000000E+00  0.26952666279E+04  0.26952666279E+04  0.00000000000E+00 0. -1.
         -1   -1    0    0    0  501 -0.00000000000E+00 -0.00000000000E+00 -0.67500505193E+01  0.67500505193E+01  0.00000000000E+00 0.  1.
         24    1    1    2    0    0  0.46596261091E+02 -0.90635342851E+02  0.97760556113E+03  0.98618752072E+03  0.80419002446E+02 0. -1.
        -24    1    1    2    0    0 -0.46596261091E+02  0.90635342851E+02  0.17109110163E+04  0.17158291577E+04  0.80419002446E+02 0.  1.
<mgrwt>
<rscale>  0 0.12981985E+03</rscale>
<asrwt>0</asrwt>
<pdfrwt beam="1">  1        1 0.41465554E+00 0.12981985E+03</pdfrwt>
<pdfrwt beam="2">  1       -1 0.10384715E-02 0.12981985E+03</pdfrwt>
<totfact> 0.21046241E+03</totfact>
</mgrwt>
</event>
<event>
 4    1  0.6602701E-002  0.1075604E+03  0.7546771E-02  0.1265156E+00
         -1   -1    0    0    0  501 -0.00000000000E+00  0.00000000000E+00  0.46345318042E+01  0.46345318042E+01  0.00000000000E+00 0.  1.
          1   -1    0    0  501    0  0.00000000000E+00 -0.00000000000E+00 -0.29271449246E+04  0.29271449246E+04  0.00000000000E+00 0. -1.
         24    1    1    2    0    0 -0.66043688399E+02 -0.27207544079E+02 -0.89887001631E+03  0.90528257545E+03  0.80419002446E+02 0. -1.
        -24    1    1    2    0    0  0.66043688399E+02  0.27207544079E+02 -0.20236403765E+04  0.20264968810E+04  0.80419002446E+02 0.  0.
<mgrwt>
<rscale>  0 0.10756038E+03</rscale>
<asrwt>0</asrwt>
<pdfrwt beam="1">  1        1 0.45033095E+00 0.10756038E+03</pdfrwt>
<pdfrwt beam="2">  1       -1 0.71300337E-03 0.10756038E+03</pdfrwt>
<totfact> 0.25098368E+03</totfact>
</mgrwt>
</event>
<event>
 4    1  0.6602701E-002  0.8292193E+02  0.7546771E-02  0.1320958E+00
         -4   -1    0    0    0  501 -0.00000000000E+00  0.00000000000E+00  0.12053488360E+03  0.12053488360E+03  0.00000000000E+00 0.  1.
          4   -1    0    0  501    0  0.00000000000E+00 -0.00000000000E+00 -0.65229155045E+02  0.65229155045E+02  0.00000000000E+00 0. -1.
         24    1    1    2    0    0 -0.11088874854E+02 -0.16907595776E+02 -0.52450463674E+01  0.83087642921E+02  0.80419002446E+02 0.  0.
        -24    1    1    2    0    0  0.11088874854E+02  0.16907595776E+02  0.60550774919E+02  0.10267639572E+03  0.80419002446E+02 0.  0.
<mgrwt>
<rscale>  0 0.82921927E+02</rscale>
<asrwt>0</asrwt>
<pdfrwt beam="1">  1        4 0.10035255E-01 0.82921927E+02</pdfrwt>
<pdfrwt beam="2">  1       -4 0.18543828E-01 0.82921927E+02</pdfrwt>
<totfact> 0.28150376E+03</totfact>
</mgrwt>
</event>
<event>
 4    1  0.6602701E-002  0.9434036E+02  0.7546771E-02  0.1292669E+00
         -2   -1    0    0    0  501 -0.00000000000E+00  0.00000000000E+00  0.86391354060E+01  0.86391354060E+01  0.00000000000E+00 0.  1.
          2   -1    0    0  501    0  0.00000000000E+00 -0.00000000000E+00 -0.19460127662E+04  0.19460127662E+04  0.00000000000E+00 0. -1.
         24    1    1    2    0    0  0.24942308588E+01  0.49261202123E+02 -0.16391394884E+04  0.16418521144E+04  0.80419002446E+02 0. -1.
        -24    1    1    2    0    0 -0.24942308588E+01 -0.49261202123E+02 -0.29823414237E+03  0.31279978717E+03  0.80419002446E+02 0.  1.
<mgrwt>
<rscale>  0 0.94340358E+02</rscale>
<asrwt>0</asrwt>
<pdfrwt beam="1">  1        2 0.29938640E+00 0.94340358E+02</pdfrwt>
<pdfrwt beam="2">  1       -2 0.13290986E-02 0.94340358E+02</pdfrwt>
<totfact> 0.10799580E+04</totfact>
</mgrwt>
</event>
<event>
 4    1  0.6602701E-002  0.1093407E+03  0.7546771E-02  0.1261796E+00
         -3   -1    0    0    0  501 -0.00000000000E+00  0.00000000000E+00  0.49302793994E+03  0.49302793994E+03  0.00000000000E+00 0.  1.
          3   -1    0    0  501    0  0.00000000000E+00 -0.00000000000E+00 -0.30359270755E+02  0.30359270755E+02  0.00000000000E+00 0. -1.
         24    1    1    2    0    0  0.42004596097E+02  0.61022913405E+02  0.34873763389E+03  0.36547686014E+03  0.80419002446E+02 0.  1.
        -24    1    1    2    0    0 -0.42004596097E+02 -0.61022913405E+02  0.11393103529E+03  0.15791035055E+03  0.80419002446E+02 0. -1.
<mgrwt>
<rscale>  0 0.10934074E+03</rscale>
<asrwt>0</asrwt>
<pdfrwt beam="1">  1        3 0.46706574E-02 0.10934074E+03</pdfrwt>
<pdfrwt beam="2">  1       -3 0.75850446E-01 0.10934074E+03</pdfrwt>
<totfact> 0.94730266E+02</totfact>
</mgrwt>
</event>
<event>
 4    1  0.6602701E-002  0.1194773E+03  0.7546771E-02  0.1243962E+00
          1   -1    0    0  501    0  0.00000000000E+00  0.00000000000E+00  0.18424055967E+04  0.18424055967E+04  0.00000000000E+00 0. -1.
         -1   -1    0    0    0  501 -0.00000000000E+00 -0.00000000000E+00 -0.13401677648E+02  0.13401677648E+02  0.00000000000E+00 0.  1.
         24    1    1    2    0    0 -0.40166340808E+02  0.78703674878E+02  0.31181510726E+03  0.33392136866E+03  0.80419002446E+02 0.  1.
        -24    1    1    2    0    0  0.40166340808E+02 -0.78703674878E+02  0.15171888118E+04  0.15218859057E+04  0.80419002446E+02 0. -1.
<mgrwt>
<rscale>  0 0.11947728E+03</rscale>
<asrwt>0</asrwt>
<pdfrwt beam="1">  1        1 0.28344681E+00 0.11947728E+03</pdfrwt>
<pdfrwt beam="2">  1       -1 0.20617980E-02 0.11947728E+03</pdfrwt>
<totfact> 0.27856396E+03</totfact>
</mgrwt>
</event>
<event>
 4    1  0.6602701E-002  0.8967794E+02  0.7546771E-02  0.1303633E+00
          1   -1    0    0  501    0  0.00000000000E+00  0.00000000000E+00  0.30425762838E+03  0.30425762838E+03  0.00000000000E+00 0. -1.
         -1   -1    0    0    0  501 -0.00000000000E+00 -0.00000000000E+00 -0.41494216912E+02  0.41494216912E+02  0.00000000000E+00 0.  1.
         24    1    1    2    0    0 -0.10421605661E+02 -0.38292379366E+02  0.27225432124E+02  0.93719561943E+02  0.80419002446E+02 0.  1.
        -24    1    1    2    0    0  0.10421605661E+02  0.38292379366E+02  0.23553797934E+03  0.25203228335E+03  0.80419002446E+02 0. -1.
<mgrwt>
<rscale>  0 0.89677936E+02</rscale>
<asrwt>0</asrwt>
<pdfrwt beam="1">  1        1 0.46808864E-01 0.89677936E+02</pdfrwt>
<pdfrwt beam="2">  1       -1 0.63837259E-02 0.89677936E+02</pdfrwt>
<totfact> 0.95778015E+03</totfact>
</mgrwt>
</event>
<event>
 4    1  0.6602701E-002  0.8182434E+02  0.7546771E-02  0.1323953E+00
          1   -1    0    0  501    0  0.00000000000E+00  0.00000000000E+00  0.37604727441E+03  0.37604727441E+03  0.00000000000E+00 0. -1.
         -1   -1    0    0    0  501 -0.00000000000E+00 -0.00000000000E+00 -0.28948018214E+02  0.28948018214E+02  0.00000000000E+00 0.  1.
         24    1    1    2    0    0  0.11448186290E+02  0.98461134440E+01  0.47909761279E+02  0.94818606294E+02  0.80419002446E+02 0.  1.
        -24    1    1    2    0    0 -0.11448186290E+02 -0.98461134440E+01  0.29918949492E+03  0.31017668633E+03  0.80419002446E+02 0. -1.
<mgrwt>
<rscale>  0 0.81824342E+02</rscale>
<asrwt>0</asrwt>
<pdfrwt beam="1">  1        1 0.57853423E-01 0.81824342E+02</pdfrwt>
<pdfrwt beam="2">  1       -1 0.44535415E-02 0.81824342E+02</pdfrwt>
<totfact> 0.12413739E+04</totfact>
</mgrwt>
</event>
<event>
 4    1  0.6602701E-002  0.9348355E+02  0.7546771E-02  0.1294629E+00
          2   -1    0    0  501    0  0.00000000000E+00  0.00000000000E+00  0.73184048441E+02  0.73184048441E+02  0.00000000000E+00 0. -1.
         -2   -1    0    0    0  501 -0.00000000000E+00 -0.00000000000E+00 -0.14302775640E+03  0.14302775640E+03  0.00000000000E+00 0.  1.
         24    1    1    2    0    0  0.41065971878E+02  0.24198006527E+02  0.90044947353E+01  0.93916209708E+02  0.80419002446E+02 0. -1.
        -24    1    1    2    0    0 -0.41065971878E+02 -0.24198006527E+02 -0.78848202692E+02  0.12229559513E+03  0.80419002446E+02 0.  1.
<mgrwt>
<rscale>  0 0.93483547E+02</rscale>
<asrwt>0</asrwt>
<pdfrwt beam="1">  1        2 0.11259084E-01 0.93483547E+02</pdfrwt>
<pdfrwt beam="2">  1       -2 0.22004270E-01 0.93483547E+02</pdfrwt>
<totfact> 0.89538803E+03</totfact>
</mgrwt>
</event>
<event>
 4    1  0.6602701E-002  0.1114192E+03  0.7546771E-02  0.1257964E+00
         -2   -1    0    0    0  501 -0.00000000000E+00  0.00000000000E+00  0.19503572793E+03  0.19503572793E+03  0.00000000000E+00 0.  1.
          2   -1    0    0  501    0  0.00000000000E+00 -0.00000000000E+00 -0.16399966948E+03  0.16399966948E+03  0.00000000000E+00 0. -1.
         24    1    1    2    0    0  0.63565415854E+02  0.43662965719E+02 -0.12490600489E+03  0.16737903895E+03  0.80419002446E+02 0. -1.
        -24    1    1    2    0    0 -0.63565415854E+02 -0.43662965719E+02  0.15594206333E+03  0.19165635846E+03  0.80419002446E+02 0.  1.
<mgrwt>
<rscale>  0 0.11141918E+03</rscale>
<asrwt>0</asrwt>
<pdfrwt beam="1">  1        2 0.25230718E-01 0.11141918E+03</pdfrwt>
<pdfrwt beam="2">  1       -2 0.30005497E-01 0.11141918E+03</pdfrwt>
<totfact> 0.20956678E+03</totfact>
</mgrwt>
</event>
<event>
 4    1  0.6602701E-002  0.8209409E+02  0.7546771E-02  0.1323212E+00
          2   -1    0    0  501    0  0.00000000000E+00  0.00000000000E+00  0.44173910024E+03  0.44173910024E+03  0.00000000000E+00 0. -1.
         -2   -1    0    0    0  501 -0.00000000000E+00 -0.00000000000E+00 -0.29558773835E+02  0.29558773835E+02  0.00000000000E+00 0.  1.
         24    1    1    2    0    0 -0.70191883600E+01  0.14931679493E+02  0.37000685939E+03  0.37900463851E+03  0.80419002446E+02 0. -1.
        -24    1    1    2    0    0  0.70191883600E+01 -0.14931679493E+02  0.42173467017E+02  0.92293235572E+02  0.80419002446E+02 0.  1.
<mgrwt>
<rscale>  0 0.82094092E+02</rscale>
<asrwt>0</asrwt>
<pdfrwt beam="1">  1        2 0.67959857E-01 0.82094092E+02</pdfrwt>
<pdfrwt beam="2">  1       -2 0.45475040E-02 0.82094092E+02</pdfrwt>
<totfact> 0.14608103E+04</totfact>
</mgrwt>
</event>
<event>
 4    1  0.6602701E-002  0.9482400E+02  0.7546771E-02  0.1291573E+00
          2   -1    0    0  501    0  0.00000000000E+00  0.00000000000E+00  0.31101031035E+03  0.31101031035E+03  0.00000000000E+00 0. -1.
         -2   -1    0    0    0  501 -0.00000000000E+00 -0.00000000000E+00 -0.36670657492E+02  0.36670657492E+02  0.00000000000E+00 0.  1.
         24    1    1    2    0    0  0.49797565370E+02  0.66763503794E+01  0.57201920174E+02  0.11074135089E+03  0.80419002446E+02 0.  0.
        -24    1    1    2    0    0 -0.49797565370E+02 -0.66763503794E+01  0.21713773268E+03  0.23693961695E+03  0.80419002446E+02 0. -1.
<mgrwt>
<rscale>  0 0.94823992E+02</rscale>
<asrwt>0</asrwt>
<pdfrwt beam="1">  1        2 0.47847738E-01 0.94824003E+02</pdfrwt>
<pdfrwt beam="2">  1       -2 0.56416398E-02 0.94824003E+02</pdfrwt>
<totfact> 0.15539092E+04</totfact>
</mgrwt>
</event>
<event>
 4    1  0.6602701E-002  0.8043453E+02  0.7546771E-02  0.1327823E+00
         -2   -1    0    0    0  501 -0.00000000000E+00  0.00000000000E+00  0.11944300512E+03  0.11944300512E+03  0.00000000000E+00 0.  1.
          2   -1    0    0  501    0  0.00000000000E+00 -0.00000000000E+00 -0.62324189136E+02  0.62324189136E+02  0.00000000000E+00 0. -1.
         24    1    1    2    0    0 -0.80826520114E+00  0.13581759825E+01 -0.43228838899E+01  0.80550612748E+02  0.80419002446E+02 0. -1.
        -24    1    1    2    0    0  0.80826520114E+00 -0.13581759825E+01  0.61441699875E+02  0.10121658151E+03  0.80419002446E+02 0.  0.
<mgrwt>
<rscale>  0 0.80434532E+02</rscale>
<asrwt>0</asrwt>
<pdfrwt beam="1">  1        2 0.95883368E-02 0.80434532E+02</pdfrwt>
<pdfrwt beam="2">  1       -2 0.18375847E-01 0.80434532E+02</pdfrwt>
<totfact> 0.14470258E+04</totfact>
</mgrwt>
</event>
<event>
 4    1  0.6602701E-002  0.1663180E+03  0.7546771E-02  0.1181743E+00
          3   -1    0    0  501    0  0.00000000000E+00  0.00000000000E+00  0.67505346860E+02  0.67505346860E+02  0.00000000000E+00 0. -1.
         -3   -1    0    0    0  501 -0.00000000000E+00 -0.00000000000E+00 -0.48896682721E+03  0.48896682721E+03  0.00000000000E+00 0.  1.
         24    1    1    2    0    0 -0.13143168811E+03 -0.62611309245E+02 -0.32270728305E+03  0.36304499882E+03  0.80419002446E+02 0.  1.
        -24    1    1    2    0    0  0.13143168811E+03  0.62611309245E+02 -0.98754197297E+02  0.19342717524E+03  0.80419002446E+02 0. -1.
<mgrwt>
<rscale>  0 0.16631801E+03</rscale>
<asrwt>0</asrwt>
<pdfrwt beam="1">  1        3 0.10385438E-01 0.16631801E+03</pdfrwt>
<pdfrwt beam="2">  1       -3 0.75225667E-01 0.16631801E+03</pdfrwt>
<totfact> 0.28225549E+02</totfact>
</mgrwt>
</event>
<event>
 4    1  0.8042763E-002  0.1207340E+03  0.7546771E-02  0.1241891E+00
         -1   -1    0    0    0  501 -0.00000000000E+00  0.00000000000E+00  0.60570078684E+02  0.60570078684E+02  0.00000000000E+00 0.  1.
          1   -1    0    0  501    0  0.00000000000E+00 -0.00000000000E+00 -0.79346555503E+03  0.79346555503E+03  0.00000000000E+00 0. -1.
         24    1    1    2    0    0 -0.78292346667E+02  0.44494980263E+02 -0.10022291076E+02  0.12114931732E+03  0.80419002446E+02 0.  1.
        -24    1    1    2    0    0  0.78292346667E+02 -0.44494980263E+02 -0.72287318527E+03  0.73288631639E+03  0.80419002446E+02 0. -1.
<mgrwt>
<rscale>  0 0.12073405E+03</rscale>
<asrwt>0</asrwt>
<pdfrwt beam="1">  1        1 0.12207161E+00 0.12073405E+03</pdfrwt>
<pdfrwt beam="2">  1       -1 0.93184745E-02 0.12073405E+03</pdfrwt>
<totfact> 0.15734089E+03</totfact>
</mgrwt>
</event>
<event>
 4    1  0.6602701E-002  0.8555605E+02  0.7546771E-02  0.1313985E+00
          2   -1    0    0  501    0  0.00000000000E+00  0.00000000000E+00  0.80653857221E+03  0.80653857221E+03  0.00000000000E+00 0. -1.
         -2   -1    0    0    0  501 -0.00000000000E+00 -0.00000000000E+00 -0.71720900693E+02  0.71720900693E+02  0.00000000000E+00 0.  1.
         24    1    1    2    0    0 -0.23139689614E+02 -0.17809469694E+02  0.77781526532E+03  0.78250650180E+03  0.80419002446E+02 0. -1.
        -24    1    1    2    0    0  0.23139689614E+02  0.17809469694E+02 -0.42997593806E+02  0.95752971096E+02  0.80419002446E+02 0.  1.
<mgrwt>
<rscale>  0 0.85556054E+02</rscale>
<asrwt>0</asrwt>
<pdfrwt beam="1">  1        2 0.12408285E+00 0.85556054E+02</pdfrwt>
<pdfrwt beam="2">  1       -2 0.11033985E-01 0.85556054E+02</pdfrwt>
<totfact> 0.19454318E+03</totfact>
</mgrwt>
</event>
<event>
 4    1  0.6602701E-002  0.8096403E+02  0.7546771E-02  0.1326338E+00
         -2   -1    0    0    0  501 -0.00000000000E+00  0.00000000000E+00  0.14417976818E+02  0.14417976818E+02  0.00000000000E+00 0.  1.
          2   -1    0    0  501    0  0.00000000000E+00 -0.00000000000E+00 -0.11095926068E+04  0.11095926068E+04  0.00000000000E+00 0. -1.
         24    1    1    2    0    0 -0.50683715040E+01 -0.78911726891E+01 -0.97936410045E+03  0.98270505046E+03  0.80419002446E+02 0. -1.
        -24    1    1    2    0    0  0.50683715040E+01  0.78911726891E+01 -0.11581052954E+03  0.14130553316E+03  0.80419002446E+02 0.  1.
<mgrwt>
<rscale>  0 0.80964035E+02</rscale>
<asrwt>0</asrwt>
<pdfrwt beam="1">  1        2 0.17070661E+00 0.80964035E+02</pdfrwt>
<pdfrwt beam="2">  1       -2 0.22181495E-02 0.80964035E+02</pdfrwt>
<totfact> 0.13882987E+04</totfact>
</mgrwt>
</event>
<event>
 4    1  0.6602701E-002  0.9898844E+02  0.7546771E-02  0.1282438E+00
          1   -1    0    0  501    0  0.00000000000E+00  0.00000000000E+00  0.10987847869E+04  0.10987847869E+04  0.00000000000E+00 0. -1.
         -1   -1    0    0    0  501 -0.00000000000E+00 -0.00000000000E+00 -0.12747500133E+02  0.12747500133E+02  0.00000000000E+00 0.  1.
         24    1    1    2    0    0 -0.57183855945E+02 -0.78423127270E+01  0.23839500684E+03  0.25812960018E+03  0.80419002446E+02 0.  1.
        -24    1    1    2    0    0  0.57183855945E+02  0.78423127270E+01  0.84764227991E+03  0.85340268683E+03  0.80419002446E+02 0. -1.
<mgrwt>
<rscale>  0 0.98988440E+02</rscale>
<asrwt>0</asrwt>
<pdfrwt beam="1">  1        1 0.16904374E+00 0.98988440E+02</pdfrwt>
<pdfrwt beam="2">  1       -1 0.19611547E-02 0.98988440E+02</pdfrwt>
<totfact> 0.90667636E+03</totfact>
</mgrwt>
</event>
<event>
 4    1  0.6602701E-002  0.8586499E+02  0.7546771E-02  0.1313186E+00
          1   -1    0    0  501    0  0.00000000000E+00  0.00000000000E+00  0.25229708182E+02  0.25229708182E+02  0.00000000000E+00 0. -1.
         -1   -1    0    0    0  501 -0.00000000000E+00 -0.00000000000E+00 -0.35072142702E+03  0.35072142702E+03  0.00000000000E+00 0.  1.
         24    1    1    2    0    0 -0.29111036723E+02 -0.76241456022E+01 -0.23951353169E+03  0.25443963502E+03  0.80419002446E+02 0.  1.
        -24    1    1    2    0    0  0.29111036723E+02  0.76241456022E+01 -0.85978187147E+02  0.12151150017E+03  0.80419002446E+02 0. -1.
<mgrwt>
<rscale>  0 0.85864987E+02</rscale>
<asrwt>0</asrwt>
<pdfrwt beam="1">  1        1 0.38814937E-02 0.85864987E+02</pdfrwt>
<pdfrwt beam="2">  1       -1 0.53957141E-01 0.85864987E+02</pdfrwt>
<totfact> 0.76690272E+03</totfact>
</mgrwt>
</event>
<event>
 4    1  0.6602701E-002  0.1992721E+03  0.7546771E-02  0.1150355E+00
         -2   -1    0    0    0  501 -0.00000000000E+00  0.00000000000E+00  0.11229561600E+03  0.11229561600E+03  0.00000000000E+00 0.  1.
          2   -1    0    0  501    0  0.00000000000E+00 -0.00000000000E+00 -0.39205919465E+03  0.39205919465E+03  0.00000000000E+00 0. -1.
         24    1    1    2    0    0 -0.33062792108E+02 -0.17930138339E+03 -0.21884939179E+03  0.29598041581E+03  0.80419002446E+02 0. -1.
        -24    1    1    2    0    0  0.33062792108E+02  0.17930138339E+03 -0.60914186871E+02  0.20837439483E+03  0.80419002446E+02 0.  1.
<mgrwt>
<rscale>  0 0.19927205E+03</rscale>
<asrwt>0</asrwt>
<pdfrwt beam="1">  1        2 0.60316798E-01 0.19927205E+03</pdfrwt>
<pdfrwt beam="2">  1       -2 0.17276249E-01 0.19927205E+03</pdfrwt>
<totfact> 0.21802559E+03</totfact>
</mgrwt>
</event>
<event>
 4    1  0.6602701E-002  0.8149277E+02  0.7546771E-02  0.1324868E+00
          2   -1    0    0  501    0  0.00000000000E+00  0.00000000000E+00  0.25803238278E+03  0.25803238278E+03  0.00000000000E+00 0. -1.
         -2   -1    0    0    0  501 -0.00000000000E+00 -0.00000000000E+00 -0.27545001048E+02  0.27545001048E+02  0.00000000000E+00 0.  1.
         24    1    1    2    0    0 -0.34959671230E+01 -0.12713428256E+02  0.78664839357E+02  0.11326617302E+03  0.80419002446E+02 0.  0.
        -24    1    1    2    0    0  0.34959671230E+01  0.12713428256E+02  0.15182254238E+03  0.17231121082E+03  0.80419002446E+02 0.  0.
<mgrwt>
<rscale>  0 0.81492764E+02</rscale>
<asrwt>0</asrwt>
<pdfrwt beam="1">  1        2 0.39697288E-01 0.81492775E+02</pdfrwt>
<pdfrwt beam="2">  1       -2 0.42376926E-02 0.81492775E+02</pdfrwt>
<totfact> 0.28396908E+04</totfact>
</mgrwt>
</event>
<event>
 4    1  0.6602701E-002  0.1218408E+03  0.7546771E-02  0.1240091E+00
          2   -1    0    0  501    0  0.00000000000E+00  0.00000000000E+00  0.58842698514E+03  0.58842698514E+03  0.00000000000E+00 0. -1.
         -2   -1    0    0    0  501 -0.00000000000E+00 -0.00000000000E+00 -0.34377525821E+03  0.34377525821E+03  0.00000000000E+00 0.  1.
         24    1    1    2    0    0  0.99299625209E+01  0.90990990010E+02  0.57099828568E+03  0.58385291181E+03  0.80419002446E+02 0. -1.
        -24    1    1    2    0    0 -0.99299625209E+01 -0.90990990010E+02 -0.32634655876E+03  0.34834933154E+03  0.80419002446E+02 0.  1.
<mgrwt>
<rscale>  0 0.12184080E+03</rscale>
<asrwt>0</asrwt>
<pdfrwt beam="1">  1        2 0.90527228E-01 0.12184080E+03</pdfrwt>
<pdfrwt beam="2">  1       -2 0.52888501E-01 0.12184080E+03</pdfrwt>
<totfact> 0.18273549E+02</totfact>
</mgrwt>
</event>
<event>
 4    1  0.6602701E-002  0.1624869E+03  0.7546771E-02  0.1185917E+00
         -2   -1    0    0    0  501 -0.00000000000E+00  0.00000000000E+00  0.18353804044E+03  0.18353804044E+03  0.00000000000E+00 0.  1.
          2   -1    0    0  501    0  0.00000000000E+00 -0.00000000000E+00 -0.34133128980E+03  0.34133128980E+03  0.00000000000E+00 0. -1.
         24    1    1    2    0    0 -0.70116154988E+02  0.12254998748E+03 -0.27851286284E+03  0.32244597275E+03  0.80419002446E+02 0. -1.
        -24    1    1    2    0    0  0.70116154988E+02 -0.12254998748E+03  0.12071961349E+03  0.20242335749E+03  0.80419002446E+02 0.  1.
<mgrwt>
<rscale>  0 0.16248689E+03</rscale>
<asrwt>0</asrwt>
<pdfrwt beam="1">  1        2 0.52512506E-01 0.16248689E+03</pdfrwt>
<pdfrwt beam="2">  1       -2 0.28236622E-01 0.16248689E+03</pdfrwt>
<totfact> 0.10777377E+03</totfact>
</mgrwt>
</event>
<event>
 4    1  0.6602701E-002  0.9189997E+02  0.7546771E-02  0.1298315E+00
         -1   -1    0    0    0  501 -0.00000000000E+00  0.00000000000E+00  0.45832069097E+02  0.45832069097E+02  0.00000000000E+00 0.  1.
          1   -1    0    0  501    0  0.00000000000E+00 -0.00000000000E+00 -0.18774875245E+03  0.18774875245E+03  0.00000000000E+00 0. -1.
         24    1    1    2    0    0  0.47315766877E+01  0.44226697425E+02 -0.55067224472E+02  0.10713544581E+03  0.80419002446E+02 0.  1.
        -24    1    1    2    0    0 -0.47315766877E+01 -0.44226697425E+02 -0.86849458876E+02  0.12644537573E+03  0.80419002446E+02 0.  0.
<mgrwt>
<rscale>  0 0.91899970E+02</rscale>
<asrwt>0</asrwt>
<pdfrwt beam="1">  1        1 0.28884423E-01 0.91899970E+02</pdfrwt>
<pdfrwt beam="2">  1       -1 0.70510877E-02 0.91899970E+02</pdfrwt>
<totfact> 0.14949928E+04</totfact>
</mgrwt>
</event>
<event>
 4    1  0.6602701E-002  0.1123927E+03  0.7546771E-02  0.1256202E+00
          3   -1    0    0  501    0  0.00000000000E+00  0.00000000000E+00  0.32757020934E+03  0.32757020934E+03  0.00000000000E+00 0. -1.
         -3   -1    0    0    0  501 -0.00000000000E+00 -0.00000000000E+00 -0.51165195764E+02  0.51165195764E+02  0.00000000000E+00 0.  1.
         24    1    1    2    0    0 -0.67186783187E+02 -0.40630539421E+02  0.44221499699E+02  0.12077939211E+03  0.80419002446E+02 0.  1.
        -24    1    1    2    0    0  0.67186783187E+02  0.40630539421E+02  0.23218351388E+03  0.25795601300E+03  0.80419002446E+02 0. -1.
<mgrwt>
<rscale>  0 0.11239271E+03</rscale>
<asrwt>0</asrwt>
<pdfrwt beam="1">  1        3 0.50395416E-01 0.11239271E+03</pdfrwt>
<pdfrwt beam="2">  1       -3 0.78715688E-02 0.11239271E+03</pdfrwt>
<totfact> 0.96384609E+02</totfact>
</mgrwt>
</event>
<event>
 4    1  0.6825494E-002  0.8089335E+02  0.7546771E-02  0.1326535E+00
         -1   -1    0    0    0  501 -0.00000000000E+00  0.00000000000E+00  0.14283118351E+04  0.14283118351E+04  0.00000000000E+00 0.  1.
          1   -1    0    0  501    0  0.00000000000E+00 -0.00000000000E+00 -0.37668421890E+02  0.37668421890E+02  0.00000000000E+00 0. -1.
         24    1    1    2    0    0  0.22278487277E+01 -0.84589648620E+01  0.13822919904E+04  0.13846569540E+04  0.80419002446E+02 0.  1.
        -24    1    1    2    0    0 -0.22278487277E+01  0.84589648620E+01  0.83514227659E+01  0.81323303014E+02  0.80419002446E+02 0. -1.
<mgrwt>
<rscale>  0 0.80893346E+02</rscale>
<asrwt>0</asrwt>
<pdfrwt beam="1">  1        1 0.57951429E-02 0.80893346E+02</pdfrwt>
<pdfrwt beam="2">  1       -1 0.21974024E+00 0.80893346E+02</pdfrwt>
<totfact> 0.17106724E+02</totfact>
</mgrwt>
</event>
<event>
 4    1  0.6602701E-002  0.9020703E+02  0.7546771E-02  0.1302351E+00
          2   -1    0    0  501    0  0.00000000000E+00  0.00000000000E+00  0.12556765217E+04  0.12556765217E+04  0.00000000000E+00 0. -1.
         -2   -1    0    0    0  501 -0.00000000000E+00 -0.00000000000E+00 -0.12943114196E+02  0.12943114196E+02  0.00000000000E+00 0.  1.
         24    1    1    2    0    0 -0.17285148490E+02 -0.37031274815E+02  0.10695843411E+04  0.10733815586E+04  0.80419002446E+02 0. -1.
        -24    1    1    2    0    0  0.17285148490E+02  0.37031274815E+02  0.17314906640E+03  0.19523807728E+03  0.80419002446E+02 0.  1.
<mgrwt>
<rscale>  0 0.90207026E+02</rscale>
<asrwt>0</asrwt>
<pdfrwt beam="1">  1        2 0.19318091E+00 0.90207026E+02</pdfrwt>
<pdfrwt beam="2">  1       -2 0.19912493E-02 0.90207026E+02</pdfrwt>
<totfact> 0.13600885E+04</totfact>
</mgrwt>
</event>
<event>
 4    1  0.6602701E-002  0.1021372E+03  0.7546771E-02  0.1275865E+00
          1   -1    0    0  501    0  0.00000000000E+00  0.00000000000E+00  0.15776209531E+03  0.15776209531E+03  0.00000000000E+00 0. -1.
         -1   -1    0    0    0  501 -0.00000000000E+00 -0.00000000000E+00 -0.24822628437E+03  0.24822628437E+03  0.00000000000E+00 0.  1.
         24    1    1    2    0    0  0.16969366605E+02  0.60636854753E+02 -0.21909876700E+03  0.24173595763E+03  0.80419002446E+02 0.  1.
        -24    1    1    2    0    0 -0.16969366605E+02 -0.60636854753E+02  0.12863457793E+03  0.16425242205E+03  0.80419002446E+02 0. -1.
<mgrwt>
<rscale>  0 0.10213718E+03</rscale>
<asrwt>0</asrwt>
<pdfrwt beam="1">  1        1 0.24271092E-01 0.10213718E+03</pdfrwt>
<pdfrwt beam="2">  1       -1 0.38188659E-01 0.10213718E+03</pdfrwt>
<totfact> 0.13003140E+03</totfact>
</mgrwt>
</event>
<event>
 4    1  0.6602701E-002  0.8428208E+02  0.7546771E-02  0.1317321E+00
         -2   -1    0    0    0  501 -0.00000000000E+00  0.00000000000E+00  0.10472518651E+02  0.10472518651E+02  0.00000000000E+00 0.  1.
          2   -1    0    0  501    0  0.00000000000E+00 -0.00000000000E+00 -0.75816682024E+03  0.75816682024E+03  0.00000000000E+00 0. -1.
         24    1    1    2    0    0 -0.22563602551E+02  0.11275505687E+02 -0.49858661480E+03  0.50566004548E+03  0.80419002446E+02 0. -1.
        -24    1    1    2    0    0  0.22563602551E+02 -0.11275505687E+02 -0.24910768679E+03  0.26297929341E+03  0.80419002446E+02 0.  1.
<mgrwt>
<rscale>  0 0.84282081E+02</rscale>
<asrwt>0</asrwt>
<pdfrwt beam="1">  1        2 0.11664110E+00 0.84282081E+02</pdfrwt>
<pdfrwt beam="2">  1       -2 0.16111561E-02 0.84282081E+02</pdfrwt>
<totfact> 0.36045280E+04</totfact>
</mgrwt>
</event>
<event>
 4    1  0.6602701E-002  0.1186147E+03  0.7546771E-02  0.1245400E+00
         -1   -1    0    0    0  501 -0.00000000000E+00  0.00000000000E+00  0.11260876809E+03  0.11260876809E+03  0.00000000000E+00 0.  1.
          1   -1    0    0  501    0  0.00000000000E+00 -0.00000000000E+00 -0.14009286793E+03  0.14009286793E+03  0.00000000000E+00 0. -1.
         24    1    1    2    0    0 -0.81291215412E+02 -0.31527095159E+02  0.27811225187E+02  0.12183143943E+03  0.80419002446E+02 0.  1.
        -24    1    1    2    0    0  0.81291215412E+02  0.31527095159E+02 -0.55295325031E+02  0.13087019660E+03  0.80419002446E+02 0. -1.
<mgrwt>
<rscale>  0 0.11861465E+03</rscale>
<asrwt>0</asrwt>
<pdfrwt beam="1">  1        1 0.21552749E-01 0.11861465E+03</pdfrwt>
<pdfrwt beam="2">  1       -1 0.17324426E-01 0.11861465E+03</pdfrwt>
<totfact> 0.55750120E+03</totfact>
</mgrwt>
</event>
<event>
 4    1  0.6602701E-002  0.8102300E+02  0.7546771E-02  0.1326173E+00
          1   -1    0    0  501    0  0.00000000000E+00  0.00000000000E+00  0.51480247253E+03  0.51480247253E+03  0.00000000000E+00 0. -1.
         -1   -1    0    0    0  501 -0.00000000000E+00 -0.00000000000E+00 -0.19170311539E+02  0.19170311539E+02  0.00000000000E+00 0.  1.
         24    1    1    2    0    0  0.48726284428E+01 -0.85887985433E+01  0.93330748099E+02  0.12359350494E+03  0.80419002446E+02 0.  0.
        -24    1    1    2    0    0 -0.48726284428E+01  0.85887985433E+01  0.40230141289E+03  0.41037927913E+03  0.80419002446E+02 0. -1.
<mgrwt>
<rscale>  0 0.81022996E+02</rscale>
<asrwt>0</asrwt>
<pdfrwt beam="1">  1        1 0.79200370E-01 0.81022996E+02</pdfrwt>
<pdfrwt beam="2">  1       -1 0.29492791E-02 0.81022996E+02</pdfrwt>
<totfact> 0.15164155E+04</totfact>
</mgrwt>
</event>
<event>
 4    1  0.6602701E-002  0.8777182E+02  0.7546771E-02  0.1308339E+00
         -4   -1    0    0    0  501 -0.00000000000E+00  0.00000000000E+00  0.19414871765E+03  0.19414871765E+03  0.00000000000E+00 0.  1.
          4   -1    0    0  501    0  0.00000000000E+00 -0.00000000000E+00 -0.45701729870E+02  0.45701729870E+02  0.00000000000E+00 0. -1.
         24    1    1    2    0    0  0.30062022655E+02 -0.18246950486E+02  0.30693197993E+02  0.92983680103E+02  0.80419002446E+02 0. -1.
        -24    1    1    2    0    0 -0.30062022655E+02  0.18246950486E+02  0.11775378979E+03  0.14686676742E+03  0.80419002446E+02 0.  1.
<mgrwt>
<rscale>  0 0.87771820E+02</rscale>
<asrwt>0</asrwt>
<pdfrwt beam="1">  1        4 0.70310355E-02 0.87771820E+02</pdfrwt>
<pdfrwt beam="2">  1       -4 0.29869033E-01 0.87771820E+02</pdfrwt>
<totfact> 0.21617395E+03</totfact>
</mgrwt>
</event>
<event>
 4    1  0.6602701E-002  0.8943201E+02  0.7546771E-02  0.1304233E+00
          2   -1    0    0  501    0  0.00000000000E+00  0.00000000000E+00  0.12026546908E+03  0.12026546908E+03  0.00000000000E+00 0. -1.
         -2   -1    0    0    0  501 -0.00000000000E+00 -0.00000000000E+00 -0.67053157071E+02  0.67053157071E+02  0.00000000000E+00 0.  1.
         24    1    1    2    0    0 -0.37403268182E+02 -0.11483220000E+02  0.35085337680E+02  0.96068026350E+02  0.80419002446E+02 0.  1.
        -24    1    1    2    0    0  0.37403268182E+02  0.11483220000E+02  0.18126974333E+02  0.91250599807E+02  0.80419002446E+02 0. -1.
<mgrwt>
<rscale>  0 0.89432012E+02</rscale>
<asrwt>0</asrwt>
<pdfrwt beam="1">  1        2 0.18502380E-01 0.89432012E+02</pdfrwt>
<pdfrwt beam="2">  1       -2 0.10315870E-01 0.89432012E+02</pdfrwt>
<totfact> 0.17103581E+04</totfact>
</mgrwt>
</event>
<event>
 4    1  0.6602701E-002  0.9103399E+02  0.7546771E-02  0.1300367E+00
          2   -1    0    0  501    0  0.00000000000E+00  0.00000000000E+00  0.50605373825E+02  0.50605373825E+02  0.00000000000E+00 0. -1.
         -2   -1    0    0    0  501 -0.00000000000E+00 -0.00000000000E+00 -0.28744589307E+03  0.28744589307E+03  0.00000000000E+00 0.  1.
         24    1    1    2    0    0 -0.21888278925E+02  0.36617955489E+02 -0.75454668428E+01  0.91346162715E+02  0.80419002446E+02 0. -1.
        -24    1    1    2    0    0  0.21888278925E+02 -0.36617955489E+02 -0.22929505241E+03  0.24670510418E+03  0.80419002446E+02 0.  1.
<mgrwt>
<rscale>  0 0.91033990E+02</rscale>
<asrwt>0</asrwt>
<pdfrwt beam="1">  1        2 0.77854422E-02 0.91033990E+02</pdfrwt>
<pdfrwt beam="2">  1       -2 0.44222445E-01 0.91033990E+02</pdfrwt>
<totfact> 0.39945175E+03</totfact>
</mgrwt>
</event>
<event>
 4    1  0.6602701E-002  0.9337578E+02  0.7546771E-02  0.1294877E+00
         -1   -1    0    0    0  501 -0.00000000000E+00  0.00000000000E+00  0.28349685588E+03  0.28349685588E+03  0.00000000000E+00 0.  1.
          1   -1    0    0  501    0  0.00000000000E+00 -0.00000000000E+00 -0.31758779369E+02  0.31758779369E+02  0.00000000000E+00 0. -1.
         24    1    1    2    0    0  0.99561575847E+00  0.47442905041E+02  0.15388792768E+03  0.18000147424E+03  0.80419002446E+02 0.  1.
        -24    1    1    2    0    0 -0.99561575847E+00 -0.47442905041E+02  0.97850148837E+02  0.13525416101E+03  0.80419002446E+02 0. -1.
<mgrwt>
<rscale>  0 0.93375781E+02</rscale>
<asrwt>0</asrwt>
<pdfrwt beam="1">  1        1 0.48859662E-02 0.93375781E+02</pdfrwt>
<pdfrwt beam="2">  1       -1 0.43614899E-01 0.93375781E+02</pdfrwt>
<totfact> 0.82915482E+03</totfact>
</mgrwt>
</event>
<event>
 4    1  0.6602701E-002  0.8576897E+02  0.7546771E-02  0.1313434E+00
         -2   -1    0    0    0  501 -0.00000000000E+00  0.00000000000E+00  0.43920640993E+02  0.43920640993E+02  0.00000000000E+00 0.  1.
          2   -1    0    0  501    0  0.00000000000E+00 -0.00000000000E+00 -0.21346698120E+03  0.21346698120E+03  0.00000000000E+00 0. -1.
         24    1    1    2    0    0 -0.20491325881E+02 -0.21661167120E+02 -0.14449833127E+03  0.16803596130E+03  0.80419002446E+02 0.  0.
        -24    1    1    2    0    0  0.20491325881E+02  0.21661167120E+02 -0.25048008936E+02  0.89351660888E+02  0.80419002446E+02 0.  0.
<mgrwt>
<rscale>  0 0.85768972E+02</rscale>
<asrwt>0</asrwt>
<pdfrwt beam="1">  1        2 0.32841074E-01 0.85768972E+02</pdfrwt>
<pdfrwt beam="2">  1       -2 0.67570217E-02 0.85768972E+02</pdfrwt>
<totfact> 0.17415618E+04</totfact>
</mgrwt>
</event>
<event>
 4    1  0.6602701E-002  0.1002838E+03  0.7546771E-02  0.1279700E+00
         -1   -1    0    0    0  501 -0.00000000000E+00  0.00000000000E+00  0.28986051076E+02  0.28986051076E+02  0.00000000000E+00 0.  1.
          1   -1    0    0  501    0  0.00000000000E+00 -0.00000000000E+00 -0.34999142189E+03  0.34999142189E+03  0.00000000000E+00 0. -1.
         24    1    1    2    0    0  0.59219382566E+02 -0.90932029368E+01 -0.17815410475E+03  0.20444002202E+03  0.80419002446E+02 0.  1.
        -24    1    1    2    0    0 -0.59219382566E+02  0.90932029368E+01 -0.14285126606E+03  0.17453745094E+03  0.80419002446E+02 0. -1.
<mgrwt>
<rscale>  0 0.10028380E+03</rscale>
<asrwt>0</asrwt>
<pdfrwt beam="1">  1        1 0.53844835E-01 0.10028381E+03</pdfrwt>
<pdfrwt beam="2">  1       -1 0.44593924E-02 0.10028381E+03</pdfrwt>
<totfact> 0.13795613E+04</totfact>
</mgrwt>
</event>
<event>
 4    1  0.6602701E-002  0.1566376E+03  0.7546771E-02  0.1192546E+00
          1   -1    0    0  501    0  0.00000000000E+00  0.00000000000E+00  0.56615897330E+03  0.56615897330E+03  0.00000000000E+00 0. -1.
         -1   -1    0    0    0  501 -0.00000000000E+00 -0.00000000000E+00 -0.19014790026E+03  0.19014790026E+03  0.00000000000E+00 0.  1.
         24    1    1    2    0    0 -0.62420565679E+02 -0.11904530158E+03 -0.14427295600E+03  0.21295542406E+03  0.80419002446E+02 0.  1.
        -24    1    1    2    0    0  0.62420565679E+02  0.11904530158E+03  0.52028402904E+03  0.54335144950E+03  0.80419002446E+02 0. -1.
<mgrwt>
<rscale>  0 0.15663757E+03</rscale>
<asrwt>0</asrwt>
<pdfrwt beam="1">  1        1 0.87101380E-01 0.15663757E+03</pdfrwt>
<pdfrwt beam="2">  1       -1 0.29253523E-01 0.15663757E+03</pdfrwt>
<totfact> 0.41338802E+02</totfact>
</mgrwt>
</event>
<event>
 4    1  0.6602701E-002  0.9571294E+02  0.7546771E-02  0.1289578E+00
         -2   -1    0    0    0  501 -0.00000000000E+00  0.00000000000E+00  0.78951814389E+01  0.78951814389E+01  0.00000000000E+00 0.  1.
          2   -1    0    0  501    0  0.00000000000E+00 -0.00000000000E+00 -0.13873505902E+04  0.13873505902E+04  0.00000000000E+00 0. -1.
         24    1    1    2    0    0  0.42460496105E+02 -0.29847225541E+02 -0.97193368122E+03  0.97663506349E+03  0.80419002446E+02 0. -1.
        -24    1    1    2    0    0 -0.42460496105E+02  0.29847225541E+02 -0.40752172758E+03  0.41861070819E+03  0.80419002446E+02 0.  1.
<mgrwt>
<rscale>  0 0.95712938E+02</rscale>
<asrwt>0</asrwt>
<pdfrwt beam="1">  1        2 0.21343860E+00 0.95712938E+02</pdfrwt>
<pdfrwt beam="2">  1       -2 0.12146430E-02 0.95712938E+02</pdfrwt>
<totfact> 0.23589457E+04</totfact>
</mgrwt>
</event>
<event>
 4    1  0.6602701E-002  0.1220918E+03  0.7546771E-02  0.1239686E+00
          1   -1    0    0  501    0  0.00000000000E+00  0.00000000000E+00  0.14429672618E+03  0.14429672618E+03  0.00000000000E+00 0. -1.
         -1   -1    0    0    0  501 -0.00000000000E+00 -0.00000000000E+00 -0.12121675985E+03  0.12121675985E+03  0.00000000000E+00 0.  1.
         24    1    1    2    0    0  0.69902691011E+02  0.59605492339E+02 -0.39493771728E+02  0.12832059417E+03  0.80419002446E+02 0.  1.
        -24    1    1    2    0    0 -0.69902691011E+02 -0.59605492339E+02  0.62573738060E+02  0.13719289186E+03  0.80419002446E+02 0. -1.
<mgrwt>
<rscale>  0 0.12209184E+03</rscale>
<asrwt>0</asrwt>
<pdfrwt beam="1">  1        1 0.22199496E-01 0.12209184E+03</pdfrwt>
<pdfrwt beam="2">  1       -1 0.18648732E-01 0.12209184E+03</pdfrwt>
<totfact> 0.47884209E+03</totfact>
</mgrwt>
</event>
<event>
 4    1  0.6602701E-002  0.8346256E+02  0.7546771E-02  0.1319503E+00
          2   -1    0    0  501    0  0.00000000000E+00  0.00000000000E+00  0.71933788877E+03  0.71933788877E+03  0.00000000000E+00 0. -1.
         -2   -1    0    0    0  501 -0.00000000000E+00 -0.00000000000E+00 -0.97840432702E+01  0.97840432702E+01  0.00000000000E+00 0.  1.
         24    1    1    2    0    0 -0.94109225524E+01 -0.20253842480E+02  0.39165868844E+03  0.40045290333E+03  0.80419002446E+02 0. -1.
        -24    1    1    2    0    0  0.94109225524E+01  0.20253842480E+02  0.31789515706E+03  0.32866902871E+03  0.80419002446E+02 0.  1.
<mgrwt>
<rscale>  0 0.83462564E+02</rscale>
<asrwt>0</asrwt>
<pdfrwt beam="1">  1        2 0.11066733E+00 0.83462564E+02</pdfrwt>
<pdfrwt beam="2">  1       -2 0.15052380E-02 0.83462564E+02</pdfrwt>
<totfact> 0.42211790E+04</totfact>
</mgrwt>
</event>
<event>
 4    1  0.6602701E-002  0.9505660E+02  0.7546771E-02  0.1291049E+00
         -4   -1    0    0    0  501 -0.00000000000E+00  0.00000000000E+00  0.13669456888E+03  0.13669456888E+03  0.00000000000E+00 0.  1.
          4   -1    0    0  501    0  0.00000000000E+00 -0.00000000000E+00 -0.43407163304E+03  0.43407163304E+03  0.00000000000E+00 0. -1.
         24    1    1    2    0    0  0.48468337389E+02  0.14810889239E+02 -0.41144514401E+03  0.42228292015E+03  0.80419002446E+02 0. -1.
        -24    1    1    2    0    0 -0.48468337389E+02 -0.14810889239E+02  0.11406807985E+03  0.14848328176E+03  0.80419002446E+02 0.  1.
<mgrwt>
<rscale>  0 0.95056605E+02</rscale>
<asrwt>0</asrwt>
<pdfrwt beam="1">  1        4 0.66780250E-01 0.95056605E+02</pdfrwt>
<pdfrwt beam="2">  1       -4 0.21029934E-01 0.95056605E+02</pdfrwt>
<totfact> 0.68890407E+01</totfact>
</mgrwt>
</event>
<event>
 4    1  0.6602701E-002  0.9783976E+02  0.7546771E-02  0.1284905E+00
          4   -1    0    0  501    0  0.00000000000E+00  0.00000000000E+00  0.38371623176E+02  0.38371623176E+02  0.00000000000E+00 0. -1.
         -4   -1    0    0    0  501 -0.00000000000E+00 -0.00000000000E+00 -0.26785509021E+03  0.26785509021E+03  0.00000000000E+00 0.  1.
         24    1    1    2    0    0 -0.12667009393E+02 -0.54267385376E+02 -0.74629133465E+02  0.12305334517E+03  0.80419002446E+02 0. -1.
        -24    1    1    2    0    0  0.12667009393E+02  0.54267385376E+02 -0.15485433357E+03  0.18317336821E+03  0.80419002446E+02 0.  1.
<mgrwt>
<rscale>  0 0.97839758E+02</rscale>
<asrwt>0</asrwt>
<pdfrwt beam="1">  1        4 0.59033266E-02 0.97839758E+02</pdfrwt>
<pdfrwt beam="2">  1       -4 0.41208476E-01 0.97839758E+02</pdfrwt>
<totfact> 0.15930185E+03</totfact>
</mgrwt>
</event>
<event>
 4    1  0.6602701E-002  0.1004468E+03  0.7546771E-02  0.1279359E+00
          1   -1    0    0  501    0  0.00000000000E+00  0.00000000000E+00  0.33281085753E+03  0.33281085753E+03  0.00000000000E+00 0. -1.
         -1   -1    0    0    0  501 -0.00000000000E+00 -0.00000000000E+00 -0.30327046399E+02  0.30327046399E+02  0.00000000000E+00 0.  1.
         24    1    1    2    0    0  0.12588258771E+01 -0.60172825931E+02  0.14781246152E+03  0.17871232011E+03  0.80419002446E+02 0. -1.
        -24    1    1    2    0    0 -0.12588258771E+01  0.60172825931E+02  0.15467134961E+03  0.18442558382E+03  0.80419002446E+02 0.  1.
<mgrwt>
<rscale>  0 0.10044685E+03</rscale>
<asrwt>0</asrwt>
<pdfrwt beam="1">  1        1 0.51201668E-01 0.10044685E+03</pdfrwt>
<pdfrwt beam="2">  1       -1 0.46656997E-02 0.10044685E+03</pdfrwt>
<totfact> 0.13741037E+04</totfact>
</mgrwt>
</event>
<event>
 4    1  0.6602701E-002  0.1282151E+03  0.7546771E-02  0.1230128E+00
         -2   -1    0    0    0  501 -0.00000000000E+00  0.00000000000E+00  0.95087990991E+01  0.95087990991E+01  0.00000000000E+00 0.  1.
          2   -1    0    0  501    0  0.00000000000E+00 -0.00000000000E+00 -0.20640770962E+04  0.20640770962E+04  0.00000000000E+00 0. -1.
         24    1    1    2    0    0 -0.99857631212E+02 -0.59773591749E+00 -0.14451241839E+04  0.14508008225E+04  0.80419002446E+02 0. -1.
        -24    1    1    2    0    0  0.99857631212E+02  0.59773591749E+00 -0.60944411329E+03  0.62278507286E+03  0.80419002446E+02 0.  0.
<mgrwt>
<rscale>  0 0.12821513E+03</rscale>
<asrwt>0</asrwt>
<pdfrwt beam="1">  1        2 0.31755080E+00 0.12821513E+03</pdfrwt>
<pdfrwt beam="2">  1       -2 0.14628900E-02 0.12821513E+03</pdfrwt>
<totfact> 0.82880741E+03</totfact>
</mgrwt>
</event>
<event>
 4    1  0.6602701E-002  0.8231362E+02  0.7546771E-02  0.1322611E+00
         -2   -1    0    0    0  501 -0.00000000000E+00  0.00000000000E+00  0.22293995451E+02  0.22293995451E+02  0.00000000000E+00 0.  1.
          2   -1    0    0  501    0  0.00000000000E+00 -0.00000000000E+00 -0.81647254048E+03  0.81647254048E+03  0.00000000000E+00 0. -1.
         24    1    1    2    0    0  0.12353670434E+02  0.12478112021E+02 -0.72937418197E+03  0.73400424367E+03  0.80419002446E+02 0. -1.
        -24    1    1    2    0    0 -0.12353670434E+02 -0.12478112021E+02 -0.64804363057E+02  0.10476229225E+03  0.80419002446E+02 0.  1.
<mgrwt>
<rscale>  0 0.82313622E+02</rscale>
<asrwt>0</asrwt>
<pdfrwt beam="1">  1        2 0.12561116E+00 0.82313622E+02</pdfrwt>
<pdfrwt beam="2">  1       -2 0.34298454E-02 0.82313622E+02</pdfrwt>
<totfact> 0.11078486E+04</totfact>
</mgrwt>
</event>
<event>
 4    1  0.6602701E-002  0.9100671E+02  0.7546771E-02  0.1300432E+00
          2   -1    0    0  501    0  0.00000000000E+00  0.00000000000E+00  0.10885088416E+04  0.10885088416E+04  0.00000000000E+00 0. -1.
         -2   -1    0    0    0  501 -0.00000000000E+00 -0.00000000000E+00 -0.11274986377E+02  0.11274986377E+02  0.00000000000E+00 0.  1.
         24    1    1    2    0    0  0.22896410933E+02  0.35927154461E+02  0.85218215749E+03  0.85702780093E+03  0.80419002446E+02 0. -1.
        -24    1    1    2    0    0 -0.22896410933E+02 -0.35927154461E+02  0.22505169770E+03  0.24275602702E+03  0.80419002446E+02 0.  1.
<mgrwt>
<rscale>  0 0.91006714E+02</rscale>
<asrwt>0</asrwt>
<pdfrwt beam="1">  1        2 0.16746282E+00 0.91006714E+02</pdfrwt>
<pdfrwt beam="2">  1       -2 0.17346141E-02 0.91006714E+02</pdfrwt>
<totfact> 0.20483031E+04</totfact>
</mgrwt>
</event>
<event>
 4    1  0.6602701E-002  0.9439926E+02  0.7546771E-02  0.1292535E+00
          2   -1    0    0  501    0  0.00000000000E+00  0.00000000000E+00  0.64074010693E+02  0.64074010693E+02  0.00000000000E+00 0. -1.
         -2   -1    0    0    0  501 -0.00000000000E+00 -0.00000000000E+00 -0.14938294714E+03  0.14938294714E+03  0.00000000000E+00 0.  1.
         24    1    1    2    0    0  0.19353803883E+02  0.45491037808E+02 -0.14621177070E+02  0.95524860737E+02  0.80419002446E+02 0. -1.
        -24    1    1    2    0    0 -0.19353803883E+02 -0.45491037808E+02 -0.70687759380E+02  0.11793209710E+03  0.80419002446E+02 0.  1.
<mgrwt>
<rscale>  0 0.94399260E+02</rscale>
<asrwt>0</asrwt>
<pdfrwt beam="1">  1        2 0.98575403E-02 0.94399260E+02</pdfrwt>
<pdfrwt beam="2">  1       -2 0.22981991E-01 0.94399260E+02</pdfrwt>
<totfact> 0.97692285E+03</totfact>
</mgrwt>
</event>
<event>
 4    1  0.6602701E-002  0.1036560E+03  0.7546771E-02  0.1272791E+00
         -2   -1    0    0    0  501 -0.00000000000E+00  0.00000000000E+00  0.52380113158E+02  0.52380113158E+02  0.00000000000E+00 0.  1.
          2   -1    0    0  501    0  0.00000000000E+00 -0.00000000000E+00 -0.26965050430E+03  0.26965050430E+03  0.00000000000E+00 0. -1.
         24    1    1    2    0    0 -0.60878399682E+02  0.23899089373E+02 -0.18739894662E+03  0.21415631480E+03  0.80419002446E+02 0. -1.
        -24    1    1    2    0    0  0.60878399682E+02 -0.23899089373E+02 -0.29871444516E+02  0.10787430265E+03  0.80419002446E+02 0.  1.
<mgrwt>
<rscale>  0 0.10365598E+03</rscale>
<asrwt>0</asrwt>
<pdfrwt beam="1">  1        2 0.41484692E-01 0.10365598E+03</pdfrwt>
<pdfrwt beam="2">  1       -2 0.80584791E-02 0.10365598E+03</pdfrwt>
<totfact> 0.10600218E+04</totfact>
</mgrwt>
</event>
<event>
 4    1  0.6602701E-002  0.8623599E+02  0.7546771E-02  0.1312232E+00
          1   -1    0    0  501    0  0.00000000000E+00  0.00000000000E+00  0.36532321416E+03  0.36532321416E+03  0.00000000000E+00 0. -1.
         -1   -1    0    0    0  501 -0.00000000000E+00 -0.00000000000E+00 -0.25539618343E+02  0.25539618343E+02  0.00000000000E+00 0.  1.
         24    1    1    2    0    0  0.11875304716E+02 -0.28782072643E+02  0.81849959326E+02  0.11889517385E+03  0.80419002446E+02 0.  1.
        -24    1    1    2    0    0 -0.11875304716E+02  0.28782072643E+02  0.25793363649E+03  0.27196765865E+03  0.80419002446E+02 0.  1.
<mgrwt>
<rscale>  0 0.86235993E+02</rscale>
<asrwt>0</asrwt>
<pdfrwt beam="1">  1        1 0.56203568E-01 0.86235993E+02</pdfrwt>
<pdfrwt beam="2">  1       -1 0.39291723E-02 0.86235993E+02</pdfrwt>
<totfact> 0.15507420E+04</totfact>
</mgrwt>
</event>
<event>
 4    1  0.6602701E-002  0.9124819E+02  0.7546771E-02  0.1299857E+00
          2   -1    0    0  501    0  0.00000000000E+00  0.00000000000E+00  0.97373503276E+03  0.97373503276E+03  0.00000000000E+00 0. -1.
         -2   -1    0    0    0  501 -0.00000000000E+00 -0.00000000000E+00 -0.28168423482E+02  0.28168423482E+02  0.00000000000E+00 0.  1.
         24    1    1    2    0    0 -0.70746039711E+01  0.42531940790E+02  0.89084232283E+03  0.89550336465E+03  0.80419002446E+02 0. -1.
        -24    1    1    2    0    0  0.70746039711E+01 -0.42531940790E+02  0.54724286454E+02  0.10640009159E+03  0.80419002446E+02 0.  1.
<mgrwt>
<rscale>  0 0.91248189E+02</rscale>
<asrwt>0</asrwt>
<pdfrwt beam="1">  1        2 0.14980536E+00 0.91248189E+02</pdfrwt>
<pdfrwt beam="2">  1       -2 0.43336044E-02 0.91248189E+02</pdfrwt>
<totfact> 0.63224012E+03</totfact>
</mgrwt>
</event>
<event>
 4    1  0.6602701E-002  0.1218406E+03  0.7546771E-02  0.1240091E+00
          1   -1    0    0  501    0  0.00000000000E+00  0.00000000000E+00  0.38368916439E+02  0.38368916439E+02  0.00000000000E+00 0. -1.
         -1   -1    0    0    0  501 -0.00000000000E+00 -0.00000000000E+00 -0.47911353408E+03  0.47911353408E+03  0.00000000000E+00 0.  1.
         24    1    1    2    0    0 -0.64237779650E+02  0.65203024304E+02 -0.33388147230E+03  0.35541803586E+03  0.80419002446E+02 0.  1.
        -24    1    1    2    0    0  0.64237779650E+02 -0.65203024304E+02 -0.10686314534E+03  0.16206441466E+03  0.80419002446E+02 0. -1.
<mgrwt>
<rscale>  0 0.12184064E+03</rscale>
<asrwt>0</asrwt>
<pdfrwt beam="1">  1        1 0.59029101E-02 0.12184064E+03</pdfrwt>
<pdfrwt beam="2">  1       -1 0.73709776E-01 0.12184064E+03</pdfrwt>
<totfact> 0.24556331E+03</totfact>
</mgrwt>
</event>
<event>
 4    1  0.6602701E-002  0.1682709E+03  0.7546771E-02  0.1179663E+00
          1   -1    0    0  501    0  0.00000000000E+00  0.00000000000E+00  0.98558216459E+02  0.98558216459E+02  0.00000000000E+00 0. -1.
         -1   -1    0    0    0  501 -0.00000000000E+00 -0.00000000000E+00 -0.29333123468E+03  0.29333123468E+03  0.00000000000E+00 0.  1.
         24    1    1    2    0    0 -0.98718128116E+02 -0.11001185074E+03 -0.69273516192E+02  0.18197228394E+03  0.80419002446E+02 0. -1.
        -24    1    1    2    0    0  0.98718128116E+02  0.11001185074E+03 -0.12549950203E+03  0.20991716720E+03  0.80419002446E+02 0.  1.
<mgrwt>
<rscale>  0 0.16827091E+03</rscale>
<asrwt>0</asrwt>
<pdfrwt beam="1">  1        1 0.15162802E-01 0.16827093E+03</pdfrwt>
<pdfrwt beam="2">  1       -1 0.45127882E-01 0.16827093E+03</pdfrwt>
<totfact> 0.17930060E+03</totfact>
</mgrwt>
</event>
<event>
 4    1  0.6602701E-002  0.1018926E+03  0.7546771E-02  0.1276366E+00
         -3   -1    0    0    0  501 -0.00000000000E+00  0.00000000000E+00  0.24620664758E+03  0.24620664758E+03  0.00000000000E+00 0.  1.
          3   -1    0    0  501    0  0.00000000000E+00 -0.00000000000E+00 -0.72673904062E+02  0.72673904062E+02  0.00000000000E+00 0. -1.
         24    1    1    2    0    0  0.16098274239E+02  0.60462656247E+02  0.19006605027E+03  0.21565529591E+03  0.80419002446E+02 0.  1.
        -24    1    1    2    0    0 -0.16098274239E+02 -0.60462656247E+02 -0.16533306756E+02  0.10322525573E+03  0.80419002446E+02 0. -1.
<mgrwt>
<rscale>  0 0.10189261E+03</rscale>
<asrwt>0</asrwt>
<pdfrwt beam="1">  1        3 0.11180601E-01 0.10189261E+03</pdfrwt>
<pdfrwt beam="2">  1       -3 0.37877945E-01 0.10189261E+03</pdfrwt>
<totfact> 0.92890124E+02</totfact>
</mgrwt>
</event>
<event>
 4    1  0.6602701E-002  0.1157876E+03  0.7546771E-02  0.1250213E+00
          2   -1    0    0  501    0  0.00000000000E+00  0.00000000000E+00  0.68372240772E+03  0.68372240772E+03  0.00000000000E+00 0. -1.
         -2   -1    0    0    0  501 -0.00000000000E+00 -0.00000000000E+00 -0.20130155744E+02  0.20130155744E+02  0.00000000000E+00 0.  1.
         24    1    1    2    0    0 -0.64035338713E+02  0.53282494538E+02  0.38844924351E+03  0.40533884537E+03  0.80419002446E+02 0. -1.
        -24    1    1    2    0    0  0.64035338713E+02 -0.53282494538E+02  0.27514300847E+03  0.29851371810E+03  0.80419002446E+02 0.  1.
<mgrwt>
<rscale>  0 0.11578758E+03</rscale>
<asrwt>0</asrwt>
<pdfrwt beam="1">  1        2 0.10518805E+00 0.11578758E+03</pdfrwt>
<pdfrwt beam="2">  1       -2 0.30969476E-02 0.11578758E+03</pdfrwt>
<totfact> 0.16335930E+04</totfact>
</mgrwt>
</event>
<event>
 4    1  0.6602701E-002  0.8755977E+02  0.7546771E-02  0.1308871E+00
          2   -1    0    0  501    0  0.00000000000E+00  0.00000000000E+00  0.23713965769E+03  0.23713965769E+03  0.00000000000E+00 0. -1.
         -2   -1    0    0    0  501 -0.00000000000E+00 -0.00000000000E+00 -0.32425443286E+02  0.32425443286E+02  0.00000000000E+00 0.  1.
         24    1    1    2    0    0 -0.31999136621E+02  0.13249473591E+02  0.95042083510E+02  0.12922734574E+03  0.80419002446E+02 0. -1.
        -24    1    1    2    0    0  0.31999136621E+02 -0.13249473591E+02  0.10967213089E+03  0.14033775523E+03  0.80419002446E+02 0. -1.
<mgrwt>
<rscale>  0 0.87559758E+02</rscale>
<asrwt>0</asrwt>
<pdfrwt beam="1">  1        2 0.36483023E-01 0.87559769E+02</pdfrwt>
<pdfrwt beam="2">  1       -2 0.49885299E-02 0.87559769E+02</pdfrwt>
<totfact> 0.24593127E+04</totfact>
</mgrwt>
</event>
<event>
 4    1  0.6602701E-002  0.9249435E+02  0.7546771E-02  0.1296921E+00
          2   -1    0    0  501    0  0.00000000000E+00  0.00000000000E+00  0.18165053535E+04  0.18165053535E+04  0.00000000000E+00 0. -1.
         -2   -1    0    0    0  501 -0.00000000000E+00 -0.00000000000E+00 -0.15282975233E+02  0.15282975233E+02  0.00000000000E+00 0.  1.
         24    1    1    2    0    0 -0.31356941345E+02 -0.33237486087E+02  0.16624200238E+04  0.16649911531E+04  0.80419002446E+02 0. -1.
        -24    1    1    2    0    0  0.31356941345E+02  0.33237486087E+02  0.13880235440E+03  0.16679717562E+03  0.80419002446E+02 0.  1.
<mgrwt>
<rscale>  0 0.92494347E+02</rscale>
<asrwt>0</asrwt>
<pdfrwt beam="1">  1        2 0.27946219E+00 0.92494347E+02</pdfrwt>
<pdfrwt beam="2">  1       -2 0.23512284E-02 0.92494347E+02</pdfrwt>
<totfact> 0.55338985E+03</totfact>
</mgrwt>
</event>
<event>
 4    1  0.6602701E-002  0.1069407E+03  0.7546771E-02  0.1266342E+00
         -1   -1    0    0    0  501 -0.00000000000E+00  0.00000000000E+00  0.66792312787E+01  0.66792312787E+01  0.00000000000E+00 0.  1.
          1   -1    0    0  501    0  0.00000000000E+00 -0.00000000000E+00 -0.19138173003E+04  0.19138173003E+04  0.00000000000E+00 0. -1.
         24    1    1    2    0    0  0.70456738880E+02  0.22242253241E+01 -0.64191313084E+03  0.65076015761E+03  0.80419002446E+02 0.  1.
        -24    1    1    2    0    0 -0.70456738880E+02 -0.22242253241E+01 -0.12652249382E+04  0.12697363740E+04  0.80419002446E+02 0.  0.
<mgrwt>
<rscale>  0 0.10694071E+03</rscale>
<asrwt>0</asrwt>
<pdfrwt beam="1">  1        1 0.29443331E+00 0.10694071E+03</pdfrwt>
<pdfrwt beam="2">  1       -1 0.10275745E-02 0.10694071E+03</pdfrwt>
<totfact> 0.67663247E+03</totfact>
</mgrwt>
</event>
<event>
 4    1  0.6602701E-002  0.1146518E+03  0.7546771E-02  0.1252190E+00
         -1   -1    0    0    0  501 -0.00000000000E+00  0.00000000000E+00  0.11983776624E+03  0.11983776624E+03  0.00000000000E+00 0.  1.
          1   -1    0    0  501    0  0.00000000000E+00 -0.00000000000E+00 -0.11314873193E+03  0.11314873193E+03  0.00000000000E+00 0. -1.
         24    1    1    2    0    0  0.34878043658E+01 -0.81643445491E+02 -0.17022128778E+02  0.11590852339E+03  0.80419002446E+02 0.  1.
        -24    1    1    2    0    0 -0.34878043658E+01  0.81643445491E+02  0.23711163088E+02  0.11707797479E+03  0.80419002446E+02 0. -1.
<mgrwt>
<rscale>  0 0.11465180E+03</rscale>
<asrwt>0</asrwt>
<pdfrwt beam="1">  1        1 0.17407497E-01 0.11465182E+03</pdfrwt>
<pdfrwt beam="2">  1       -1 0.18436580E-01 0.11465182E+03</pdfrwt>
<totfact> 0.66077057E+03</totfact>
</mgrwt>
</event>
<event>
 4    1  0.6602701E-002  0.8175496E+02  0.7546771E-02  0.1324144E+00
          2   -1    0    0  501    0  0.00000000000E+00  0.00000000000E+00  0.41848288326E+03  0.41848288326E+03  0.00000000000E+00 0. -1.
         -2   -1    0    0    0  501 -0.00000000000E+00 -0.00000000000E+00 -0.17015596884E+02  0.17015596884E+02  0.00000000000E+00 0.  1.
         24    1    1    2    0    0  0.83693098362E+01  0.12108359767E+02  0.25466812637E+03  0.26746911647E+03  0.80419002446E+02 0.  0.
        -24    1    1    2    0    0 -0.83693098362E+01 -0.12108359767E+02  0.14679916001E+03  0.16802936367E+03  0.80419002446E+02 0.  1.
<mgrwt>
<rscale>  0 0.81754961E+02</rscale>
<asrwt>0</asrwt>
<pdfrwt beam="1">  1        2 0.64381974E-01 0.81754961E+02</pdfrwt>
<pdfrwt beam="2">  1       -2 0.26177844E-02 0.81754961E+02</pdfrwt>
<totfact> 0.34579064E+04</totfact>
</mgrwt>
</event>
<event>
 4    1  0.6602701E-002  0.8199966E+02  0.7546771E-02  0.1323471E+00
          2   -1    0    0  501    0  0.00000000000E+00  0.00000000000E+00  0.47880455602E+03  0.47880455602E+03  0.00000000000E+00 0. -1.
         -2   -1    0    0    0  501 -0.00000000000E+00 -0.00000000000E+00 -0.14257190228E+02  0.14257190228E+02  0.00000000000E+00 0.  1.
         24    1    1    2    0    0  0.86732950182E+01 -0.13472286659E+02  0.26247730377E+03  0.27498778064E+03  0.80419002446E+02 0. -1.
        -24    1    1    2    0    0 -0.86732950182E+01  0.13472286659E+02  0.20207006202E+03  0.21807396560E+03  0.80419002446E+02 0.  1.
<mgrwt>
<rscale>  0 0.81999662E+02</rscale>
<asrwt>0</asrwt>
<pdfrwt beam="1">  1        2 0.73662227E-01 0.81999662E+02</pdfrwt>
<pdfrwt beam="2">  1       -2 0.21934142E-02 0.81999662E+02</pdfrwt>
<totfact> 0.38683735E+04</totfact>
</mgrwt>
</event>
<event>
 4    1  0.6602701E-002  0.8340486E+02  0.7546771E-02  0.1319657E+00
         -3   -1    0    0    0  501 -0.00000000000E+00  0.00000000000E+00  0.23753205242E+02  0.23753205242E+02  0.00000000000E+00 0.  1.
          3   -1    0    0  501    0  0.00000000000E+00 -0.00000000000E+00 -0.32230343690E+03  0.32230343690E+03  0.00000000000E+00 0. -1.
         24    1    1    2    0    0  0.11277441974E+02 -0.19025620462E+02 -0.96978119975E+02  0.12791061973E+03  0.80419002446E+02 0.  0.
        -24    1    1    2    0    0 -0.11277441974E+02  0.19025620462E+02 -0.20157211168E+03  0.21814602241E+03  0.80419002446E+02 0.  1.
<mgrwt>
<rscale>  0 0.83404861E+02</rscale>
<asrwt>0</asrwt>
<pdfrwt beam="1">  1        3 0.49585140E-01 0.83404861E+02</pdfrwt>
<pdfrwt beam="2">  1       -3 0.36543396E-02 0.83404861E+02</pdfrwt>
<totfact> 0.31482988E+03</totfact>
</mgrwt>
</event>
<event>
 4    1  0.6602701E-002  0.9322524E+02  0.7546771E-02  0.1295224E+00
          1   -1    0    0  501    0  0.00000000000E+00  0.00000000000E+00  0.13063585678E+04  0.13063585678E+04  0.00000000000E+00 0. -1.
         -1   -1    0    0    0  501 -0.00000000000E+00 -0.00000000000E+00 -0.68042043492E+01  0.68042043492E+01  0.00000000000E+00 0.  1.
         24    1    1    2    0    0  0.17142309375E+02  0.43930245025E+02  0.74771948315E+03  0.75350870375E+03  0.80419002446E+02 0. -1.
        -24    1    1    2    0    0 -0.17142309375E+02 -0.43930245025E+02  0.55183488030E+03  0.55965406839E+03  0.80419002446E+02 0.  1.
<mgrwt>
<rscale>  0 0.93225229E+02</rscale>
<asrwt>0</asrwt>
<pdfrwt beam="1">  1        1 0.20097804E+00 0.93225241E+02</pdfrwt>
<pdfrwt beam="2">  1       -1 0.10468017E-02 0.93225241E+02</pdfrwt>
<totfact> 0.15955241E+04</totfact>
</mgrwt>
</event>
<event>
 4    1  0.6602701E-002  0.1348947E+03  0.7546771E-02  0.1220368E+00
          4   -1    0    0  501    0  0.00000000000E+00  0.00000000000E+00  0.16637830541E+03  0.16637830541E+03  0.00000000000E+00 0. -1.
         -4   -1    0    0    0  501 -0.00000000000E+00 -0.00000000000E+00 -0.23445514684E+03  0.23445514684E+03  0.00000000000E+00 0.  1.
         24    1    1    2    0    0  0.38706061963E+02  0.10114940198E+03  0.11235084412E+03  0.17555423346E+03  0.80419002446E+02 0. -1.
        -24    1    1    2    0    0 -0.38706061963E+02 -0.10114940198E+03 -0.18042768555E+03  0.22527921880E+03  0.80419002446E+02 0.  1.
<mgrwt>
<rscale>  0 0.13489469E+03</rscale>
<asrwt>0</asrwt>
<pdfrwt beam="1">  1        4 0.25596662E-01 0.13489469E+03</pdfrwt>
<pdfrwt beam="2">  1       -4 0.36070023E-01 0.13489469E+03</pdfrwt>
<totfact> 0.17839696E+02</totfact>
</mgrwt>
</event>
<event>
 4    1  0.6602701E-002  0.9406121E+02  0.7546771E-02  0.1293305E+00
          2   -1    0    0  501    0  0.00000000000E+00  0.00000000000E+00  0.84322796195E+03  0.84322796195E+03  0.00000000000E+00 0. -1.
         -2   -1    0    0    0  501 -0.00000000000E+00 -0.00000000000E+00 -0.10497874017E+02  0.10497874017E+02  0.00000000000E+00 0.  1.
         24    1    1    2    0    0  0.48497875308E+02 -0.53152873710E+01  0.42608385906E+03  0.43634271747E+03  0.80419002446E+02 0.  1.
        -24    1    1    2    0    0 -0.48497875308E+02  0.53152873710E+01  0.40664622887E+03  0.41738311849E+03  0.80419002446E+02 0. -1.
<mgrwt>
<rscale>  0 0.94061215E+02</rscale>
<asrwt>0</asrwt>
<pdfrwt beam="1">  1        2 0.12972733E+00 0.94061215E+02</pdfrwt>
<pdfrwt beam="2">  1       -2 0.16150582E-02 0.94061215E+02</pdfrwt>
<totfact> 0.31919125E+04</totfact>
</mgrwt>
</event>
<event>
 4    1  0.6602701E-002  0.9816981E+02  0.7546771E-02  0.1284192E+00
          2   -1    0    0  501    0  0.00000000000E+00  0.00000000000E+00  0.69363066553E+03  0.69363066553E+03  0.00000000000E+00 0. -1.
         -2   -1    0    0    0  501 -0.00000000000E+00 -0.00000000000E+00 -0.33295413699E+02  0.33295413699E+02  0.00000000000E+00 0.  1.
         24    1    1    2    0    0 -0.33493469935E+02 -0.45257955546E+02  0.60761756187E+03  0.61549688262E+03  0.80419002446E+02 0. -1.
        -24    1    1    2    0    0  0.33493469935E+02  0.45257955546E+02  0.52717689970E+02  0.11142919662E+03  0.80419002446E+02 0.  1.
<mgrwt>
<rscale>  0 0.98169807E+02</rscale>
<asrwt>0</asrwt>
<pdfrwt beam="1">  1        2 0.10671240E+00 0.98169807E+02</pdfrwt>
<pdfrwt beam="2">  1       -2 0.51223719E-02 0.98169807E+02</pdfrwt>
<totfact> 0.75485113E+03</totfact>
</mgrwt>
</event>
<event>
 4    1  0.6602701E-002  0.1289325E+03  0.7546771E-02  0.1229048E+00
         -2   -1    0    0    0  501 -0.00000000000E+00  0.00000000000E+00  0.27724653970E+02  0.27724653970E+02  0.00000000000E+00 0.  1.
          2   -1    0    0  501    0  0.00000000000E+00 -0.00000000000E+00 -0.61432648483E+03  0.61432648483E+03  0.00000000000E+00 0. -1.
         24    1    1    2    0    0 -0.32497287418E+02  0.95395452726E+02 -0.34301204345E+03  0.36644350723E+03  0.80419002446E+02 0. -1.
        -24    1    1    2    0    0  0.32497287418E+02 -0.95395452726E+02 -0.24358978742E+03  0.27560763157E+03  0.80419002446E+02 0.  1.
<mgrwt>
<rscale>  0 0.12893247E+03</rscale>
<asrwt>0</asrwt>
<pdfrwt beam="1">  1        2 0.94511766E-01 0.12893247E+03</pdfrwt>
<pdfrwt beam="2">  1       -2 0.42653314E-02 0.12893247E+03</pdfrwt>
<totfact> 0.11619167E+04</totfact>
</mgrwt>
</event>
<event>
 4    1  0.6602701E-002  0.1197978E+03  0.7546771E-02  0.1243431E+00
         -2   -1    0    0    0  501 -0.00000000000E+00  0.00000000000E+00  0.11038066081E+03  0.11038066081E+03  0.00000000000E+00 0.  1.
          2   -1    0    0  501    0  0.00000000000E+00 -0.00000000000E+00 -0.22721628224E+03  0.22721628224E+03  0.00000000000E+00 0. -1.
         24    1    1    2    0    0 -0.54628275457E+02  0.70000328854E+02 -0.16881990619E+03  0.20700645207E+03  0.80419002446E+02 0. -1.
        -24    1    1    2    0    0  0.54628275457E+02 -0.70000328854E+02  0.51984284753E+02  0.13059049098E+03  0.80419002446E+02 0.  1.
<mgrwt>
<rscale>  0 0.11979779E+03</rscale>
<asrwt>0</asrwt>
<pdfrwt beam="1">  1        2 0.34956350E-01 0.11979779E+03</pdfrwt>
<pdfrwt beam="2">  1       -2 0.16981640E-01 0.11979779E+03</pdfrwt>
<totfact> 0.39304606E+03</totfact>
</mgrwt>
</event>
<event>
 4    1  0.6602701E-002  0.9738160E+02  0.7546771E-02  0.1285900E+00
          1   -1    0    0  501    0  0.00000000000E+00  0.00000000000E+00  0.32307346422E+03  0.32307346422E+03  0.00000000000E+00 0. -1.
         -1   -1    0    0    0  501 -0.00000000000E+00 -0.00000000000E+00 -0.59865306332E+02  0.59865306332E+02  0.00000000000E+00 0.  1.
         24    1    1    2    0    0  0.51471937219E+02  0.19146805973E+02 -0.50898520577E+01  0.97514527371E+02  0.80419002446E+02 0.  1.
        -24    1    1    2    0    0 -0.51471937219E+02 -0.19146805973E+02  0.26829800994E+03  0.28542424318E+03  0.80419002446E+02 0. -1.
<mgrwt>
<rscale>  0 0.97381602E+02</rscale>
<asrwt>0</asrwt>
<pdfrwt beam="1">  1        1 0.49703609E-01 0.97381602E+02</pdfrwt>
<pdfrwt beam="2">  1       -1 0.92100473E-02 0.97381602E+02</pdfrwt>
<totfact> 0.51850345E+03</totfact>
</mgrwt>
</event>
<event>
 4    1  0.6602701E-002  0.1017047E+03  0.7546771E-02  0.1276752E+00
         -2   -1    0    0    0  501 -0.00000000000E+00  0.00000000000E+00  0.36737963183E+02  0.36737963183E+02  0.00000000000E+00 0.  1.
          2   -1    0    0  501    0  0.00000000000E+00 -0.00000000000E+00 -0.31686731640E+03  0.31686731640E+03  0.00000000000E+00 0. -1.
         24    1    1    2    0    0  0.46714340203E+02  0.41163034418E+02 -0.19908466408E+03  0.22355881644E+03  0.80419002446E+02 0. -1.
        -24    1    1    2    0    0 -0.46714340203E+02 -0.41163034418E+02 -0.81044689134E+02  0.13004646314E+03  0.80419002446E+02 0.  1.
<mgrwt>
<rscale>  0 0.10170468E+03</rscale>
<asrwt>0</asrwt>
<pdfrwt beam="1">  1        2 0.48748820E-01 0.10170468E+03</pdfrwt>
<pdfrwt beam="2">  1       -2 0.56519941E-02 0.10170468E+03</pdfrwt>
<totfact> 0.15297422E+04</totfact>
</mgrwt>
</event>
<event>
 4    1  0.6602701E-002  0.8273742E+02  0.7546771E-02  0.1321458E+00
          2   -1    0    0  501    0  0.00000000000E+00  0.00000000000E+00  0.90230760682E+03  0.90230760682E+03  0.00000000000E+00 0. -1.
         -2   -1    0    0    0  501 -0.00000000000E+00 -0.00000000000E+00 -0.11984285262E+02  0.11984285262E+02  0.00000000000E+00 0.  1.
         24    1    1    2    0    0  0.12411353616E+02  0.14973968242E+02  0.16823854624E+03  0.18748249470E+03  0.80419002446E+02 0.  0.
        -24    1    1    2    0    0 -0.12411353616E+02 -0.14973968242E+02  0.72208477531E+03  0.72680939738E+03  0.80419002446E+02 0.  0.
<mgrwt>
<rscale>  0 0.82737410E+02</rscale>
<asrwt>0</asrwt>
<pdfrwt beam="1">  1        2 0.13881650E+00 0.82737421E+02</pdfrwt>
<pdfrwt beam="2">  1       -2 0.18437369E-02 0.82737421E+02</pdfrwt>
<totfact> 0.23941806E+04</totfact>
</mgrwt>
</event>
<event>
 4    1  0.6602701E-002  0.8082506E+02  0.7546771E-02  0.1326726E+00
         -1   -1    0    0    0  501 -0.00000000000E+00  0.00000000000E+00  0.16822869005E+03  0.16822869005E+03  0.00000000000E+00 0.  1.
          1   -1    0    0  501    0  0.00000000000E+00 -0.00000000000E+00 -0.67159261616E+02  0.67159261616E+02  0.00000000000E+00 0. -1.
         24    1    1    2    0    0 -0.46539262322E+01  0.66193540144E+01  0.12697142843E+03  0.15051390124E+03  0.80419002446E+02 0.  1.
        -24    1    1    2    0    0  0.46539262322E+01 -0.66193540144E+01 -0.25901999993E+02  0.84874050421E+02  0.80419002446E+02 0.  0.
<mgrwt>
<rscale>  0 0.80825063E+02</rscale>
<asrwt>0</asrwt>
<pdfrwt beam="1">  1        1 0.10332194E-01 0.80825063E+02</pdfrwt>
<pdfrwt beam="2">  1       -1 0.25881337E-01 0.80825063E+02</pdfrwt>
<totfact> 0.72973271E+03</totfact>
</mgrwt>
</event>
<event>
 4    1  0.6602701E-002  0.1103005E+03  0.7546771E-02  0.1260014E+00
         -4   -1    0    0    0  501 -0.00000000000E+00  0.00000000000E+00  0.22511792874E+03  0.22511792874E+03  0.00000000000E+00 0.  1.
          4   -1    0    0  501    0  0.00000000000E+00 -0.00000000000E+00 -0.55608479015E+02  0.55608479015E+02  0.00000000000E+00 0. -1.
         24    1    1    2    0    0 -0.56609945193E+02  0.49942859377E+02  0.10830079133E+03  0.15458089292E+03  0.80419002446E+02 0. -1.
        -24    1    1    2    0    0  0.56609945193E+02 -0.49942859377E+02  0.61208658392E+02  0.12614551484E+03  0.80419002446E+02 0.  0.
<mgrwt>
<rscale>  0 0.11030047E+03</rscale>
<asrwt>0</asrwt>
<pdfrwt beam="1">  1        4 0.85551507E-02 0.11030049E+03</pdfrwt>
<pdfrwt beam="2">  1       -4 0.34633527E-01 0.11030049E+03</pdfrwt>
<totfact> 0.12533081E+03</totfact>
</mgrwt>
</event>
<event>
 4    1  0.6602701E-002  0.8042534E+02  0.7546771E-02  0.1327849E+00
          2   -1    0    0  501    0  0.00000000000E+00  0.00000000000E+00  0.35626828120E+03  0.35626828120E+03  0.00000000000E+00 0. -1.
         -2   -1    0    0    0  501 -0.00000000000E+00 -0.00000000000E+00 -0.94690432098E+02  0.94690432098E+02  0.00000000000E+00 0.  1.
         24    1    1    2    0    0 -0.10075985514E+01  0.68656464265E-01  0.33350282569E+03  0.34306321672E+03  0.80419002446E+02 0.  0.
        -24    1    1    2    0    0  0.10075985514E+01 -0.68656464265E-01 -0.71924976593E+02  0.10789549657E+03  0.80419002446E+02 0.  1.
<mgrwt>
<rscale>  0 0.80425344E+02</rscale>
<asrwt>0</asrwt>
<pdfrwt beam="1">  1        2 0.54810504E-01 0.80425344E+02</pdfrwt>
<pdfrwt beam="2">  1       -2 0.14567759E-01 0.80425344E+02</pdfrwt>
<totfact> 0.30755182E+03</totfact>
</mgrwt>
</event>
<event>
 4    1  0.6602701E-002  0.1013931E+03  0.7546771E-02  0.1277393E+00
          1   -1    0    0  501    0  0.00000000000E+00  0.00000000000E+00  0.41421543213E+02  0.41421543213E+02  0.00000000000E+00 0. -1.
         -1   -1    0    0    0  501 -0.00000000000E+00 -0.00000000000E+00 -0.89311421847E+03  0.89311421847E+03  0.00000000000E+00 0.  1.
         24    1    1    2    0    0  0.37109843175E+02  0.49357889426E+02 -0.82291498210E+03  0.82913788084E+03  0.80419002446E+02 0.  1.
        -24    1    1    2    0    0 -0.37109843175E+02 -0.49357889426E+02 -0.28777693148E+02  0.10539788084E+03  0.80419002446E+02 0. -1.
<mgrwt>
<rscale>  0 0.10139308E+03</rscale>
<asrwt>0</asrwt>
<pdfrwt beam="1">  1        1 0.63725453E-02 0.10139308E+03</pdfrwt>
<pdfrwt beam="2">  1       -1 0.13740218E+00 0.10139308E+03</pdfrwt>
<totfact> 0.55725682E+02</totfact>
</mgrwt>
</event>
<event>
 4    1  0.6602701E-002  0.8873483E+02  0.7546771E-02  0.1305945E+00
         -1   -1    0    0    0  501 -0.00000000000E+00  0.00000000000E+00  0.57423407096E+03  0.57423407096E+03  0.00000000000E+00 0.  1.
          1   -1    0    0  501    0  0.00000000000E+00 -0.00000000000E+00 -0.15829339376E+02  0.15829339376E+02  0.00000000000E+00 0. -1.
         24    1    1    2    0    0 -0.34405902443E+01  0.37347253110E+02  0.38710630284E+03  0.39714627108E+03  0.80419002446E+02 0.  1.
        -24    1    1    2    0    0  0.34405902443E+01 -0.37347253110E+02  0.17129842874E+03  0.19291713926E+03  0.80419002446E+02 0. -1.
<mgrwt>
<rscale>  0 0.88734835E+02</rscale>
<asrwt>0</asrwt>
<pdfrwt beam="1">  1        1 0.24352834E-02 0.88734835E+02</pdfrwt>
<pdfrwt beam="2">  1       -1 0.88343687E-01 0.88734835E+02</pdfrwt>
<totfact> 0.55642318E+03</totfact>
</mgrwt>
</event>
<event>
 4    1  0.6602701E-002  0.9079215E+02  0.7546771E-02  0.1300945E+00
          1   -1    0    0  501    0  0.00000000000E+00  0.00000000000E+00  0.34856052816E+02  0.34856052816E+02  0.00000000000E+00 0. -1.
         -1   -1    0    0    0  501 -0.00000000000E+00 -0.00000000000E+00 -0.28072013497E+03  0.28072013497E+03  0.00000000000E+00 0.  1.
         24    1    1    2    0    0  0.25244229814E+02  0.33745039022E+02 -0.18556191448E+03  0.20658276515E+03  0.80419002446E+02 0.  1.
        -24    1    1    2    0    0 -0.25244229814E+02 -0.33745039022E+02 -0.60302167680E+02  0.10899342264E+03  0.80419002446E+02 0. -1.
<mgrwt>
<rscale>  0 0.90792151E+02</rscale>
<asrwt>0</asrwt>
<pdfrwt beam="1">  1        1 0.53624697E-02 0.90792151E+02</pdfrwt>
<pdfrwt beam="2">  1       -1 0.43187713E-01 0.90792151E+02</pdfrwt>
<totfact> 0.74214995E+03</totfact>
</mgrwt>
</event>
<event>
 4    1  0.6602701E-002  0.1035409E+03  0.7546771E-02  0.1273021E+00
         -2   -1    0    0    0  501 -0.00000000000E+00  0.00000000000E+00  0.19157721963E+04  0.19157721963E+04  0.00000000000E+00 0.  1.
          2   -1    0    0  501    0  0.00000000000E+00 -0.00000000000E+00 -0.57569221278E+01  0.57569221278E+01  0.00000000000E+00 0. -1.
         24    1    1    2    0    0 -0.33301022764E+02  0.56076195912E+02  0.79439022598E+03  0.80110957113E+03  0.80419002446E+02 0. -1.
        -24    1    1    2    0    0  0.33301022764E+02 -0.56076195912E+02  0.11156250482E+04  0.11204195473E+04  0.80419002446E+02 0.  1.
<mgrwt>
<rscale>  0 0.10354088E+03</rscale>
<asrwt>0</asrwt>
<pdfrwt beam="1">  1        2 0.88568186E-03 0.10354088E+03</pdfrwt>
<pdfrwt beam="2">  1       -2 0.29473368E+00 0.10354088E+03</pdfrwt>
<totfact> 0.65176086E+02</totfact>
</mgrwt>
</event>
<event>
 4    1  0.6602701E-002  0.8169873E+02  0.7546771E-02  0.1324299E+00
         -3   -1    0    0    0  501 -0.00000000000E+00  0.00000000000E+00  0.93963136284E+02  0.93963136284E+02  0.00000000000E+00 0.  1.
          3   -1    0    0  501    0  0.00000000000E+00 -0.00000000000E+00 -0.10307790435E+03  0.10307790435E+03  0.00000000000E+00 0. -1.
         24    1    1    2    0    0  0.92301339660E+01 -0.11057601640E+02  0.50372551120E+02  0.95979559219E+02  0.80419002446E+02 0.  1.
        -24    1    1    2    0    0 -0.92301339660E+01  0.11057601640E+02 -0.59487319182E+02  0.10106148141E+03  0.80419002446E+02 0.  0.
<mgrwt>
<rscale>  0 0.81698726E+02</rscale>
<asrwt>0</asrwt>
<pdfrwt beam="1">  1        3 0.15858139E-01 0.81698726E+02</pdfrwt>
<pdfrwt beam="2">  1       -3 0.14455867E-01 0.81698726E+02</pdfrwt>
<totfact> 0.27521342E+03</totfact>
</mgrwt>
</event>
<event>
 4    1  0.6602701E-002  0.8835299E+02  0.7546771E-02  0.1306890E+00
          2   -1    0    0  501    0  0.00000000000E+00  0.00000000000E+00  0.52515521826E+03  0.52515521826E+03  0.00000000000E+00 0. -1.
         -2   -1    0    0    0  501 -0.00000000000E+00 -0.00000000000E+00 -0.21700155078E+02  0.21700155078E+02  0.00000000000E+00 0.  1.
         24    1    1    2    0    0  0.20435833885E+02 -0.30354761726E+02  0.40518789951E+03  0.41470891566E+03  0.80419002446E+02 0. -1.
        -24    1    1    2    0    0 -0.20435833885E+02  0.30354761726E+02  0.98267163678E+02  0.13214645768E+03  0.80419002446E+02 0.  1.
<mgrwt>
<rscale>  0 0.88352990E+02</rscale>
<asrwt>0</asrwt>
<pdfrwt beam="1">  1        2 0.80793101E-01 0.88352990E+02</pdfrwt>
<pdfrwt beam="2">  1       -2 0.33384858E-02 0.88352990E+02</pdfrwt>
<totfact> 0.19228228E+04</totfact>
</mgrwt>
</event>
<event>
 4    1  0.6602701E-002  0.8526907E+02  0.7546771E-02  0.1314730E+00
          1   -1    0    0  501    0  0.00000000000E+00  0.00000000000E+00  0.63377179990E+02  0.63377179990E+02  0.00000000000E+00 0. -1.
         -1   -1    0    0    0  501 -0.00000000000E+00 -0.00000000000E+00 -0.30626461886E+03  0.30626461886E+03  0.00000000000E+00 0.  1.
         24    1    1    2    0    0  0.14224206392E+02  0.24520823070E+02 -0.26760567326E+03  0.28086226362E+03  0.80419002446E+02 0.  1.
        -24    1    1    2    0    0 -0.14224206392E+02 -0.24520823070E+02  0.24718234381E+02  0.88779535237E+02  0.80419002446E+02 0. -1.
<mgrwt>
<rscale>  0 0.85269073E+02</rscale>
<asrwt>0</asrwt>
<pdfrwt beam="1">  1        1 0.97503353E-02 0.85269073E+02</pdfrwt>
<pdfrwt beam="2">  1       -1 0.47117634E-01 0.85269073E+02</pdfrwt>
<totfact> 0.28594455E+03</totfact>
</mgrwt>
</event>
<event>
 4    1  0.6602701E-002  0.8956932E+02  0.7546771E-02  0.1303898E+00
         -2   -1    0    0    0  501 -0.00000000000E+00  0.00000000000E+00  0.55979332827E+02  0.55979332827E+02  0.00000000000E+00 0.  1.
          2   -1    0    0  501    0  0.00000000000E+00 -0.00000000000E+00 -0.59822193882E+03  0.59822193882E+03  0.00000000000E+00 0. -1.
         24    1    1    2    0    0  0.34190124297E+02  0.19659142576E+02 -0.55636209546E+03  0.56352590331E+03  0.80419002446E+02 0. -1.
        -24    1    1    2    0    0 -0.34190124297E+02 -0.19659142576E+02  0.14119489462E+02  0.90675368338E+02  0.80419002446E+02 0.  1.
<mgrwt>
<rscale>  0 0.89569316E+02</rscale>
<asrwt>0</asrwt>
<pdfrwt beam="1">  1        2 0.92034142E-01 0.89569316E+02</pdfrwt>
<pdfrwt beam="2">  1       -2 0.86122053E-02 0.89569316E+02</pdfrwt>
<totfact> 0.40533301E+03</totfact>
</mgrwt>
</event>
<event>
 4    1  0.6602701E-002  0.8293213E+02  0.7546771E-02  0.1320931E+00
         -2   -1    0    0    0  501 -0.00000000000E+00  0.00000000000E+00  0.52725885586E+01  0.52725885586E+01  0.00000000000E+00 0.  1.
          2   -1    0    0  501    0  0.00000000000E+00 -0.00000000000E+00 -0.15641744735E+04  0.15641744735E+04  0.00000000000E+00 0. -1.
         24    1    1    2    0    0 -0.13317467643E+02  0.15269812240E+02 -0.10992261573E+04  0.11023501635E+04  0.80419002446E+02 0. -1.
        -24    1    1    2    0    0  0.13317467643E+02 -0.15269812240E+02 -0.45967572760E+03  0.46709689852E+03  0.80419002446E+02 0.  1.
<mgrwt>
<rscale>  0 0.82932129E+02</rscale>
<asrwt>0</asrwt>
<pdfrwt beam="1">  1        2 0.24064227E+00 0.82932129E+02</pdfrwt>
<pdfrwt beam="2">  1       -2 0.81116731E-03 0.82932129E+02</pdfrwt>
<totfact> 0.33498067E+04</totfact>
</mgrwt>
</event>
<event>
 4    1  0.9950070E-002  0.9230631E+02  0.7546771E-02  0.1297361E+00
          3   -1    0    0  501    0  0.00000000000E+00  0.00000000000E+00  0.45115100771E+03  0.45115100771E+03  0.00000000000E+00 0. -1.
         -3   -1    0    0    0  501 -0.00000000000E+00 -0.00000000000E+00 -0.13810647376E+03  0.13810647376E+03  0.00000000000E+00 0.  1.
         24    1    1    2    0    0 -0.80632683204E+01  0.44589492034E+02 -0.11722099858E+03  0.14920193550E+03  0.80419002446E+02 0.  1.
        -24    1    1    2    0    0  0.80632683204E+01 -0.44589492034E+02  0.43026553253E+03  0.44005554597E+03  0.80419002446E+02 0. -1.
<mgrwt>
<rscale>  0 0.92306311E+02</rscale>
<asrwt>0</asrwt>
<pdfrwt beam="1">  1        3 0.69407846E-01 0.92306311E+02</pdfrwt>
<pdfrwt beam="2">  1       -3 0.21247150E-01 0.92306311E+02</pdfrwt>
<totfact> 0.91898348E+01</totfact>
</mgrwt>
</event>
<event>
 4    1  0.6602701E-002  0.1504779E+03  0.7546771E-02  0.1199887E+00
          1   -1    0    0  501    0  0.00000000000E+00  0.00000000000E+00  0.23398413747E+03  0.23398413747E+03  0.00000000000E+00 0. -1.
         -1   -1    0    0    0  501 -0.00000000000E+00 -0.00000000000E+00 -0.99063915719E+02  0.99063915719E+02  0.00000000000E+00 0.  1.
         24    1    1    2    0    0  0.53578517978E+02  0.11535039487E+03  0.42142286300E+02  0.15626758920E+03  0.80419002446E+02 0.  0.
        -24    1    1    2    0    0 -0.53578517978E+02 -0.11535039487E+03  0.92777935451E+02  0.17678046399E+03  0.80419002446E+02 0. -1.
<mgrwt>
<rscale>  0 0.15047786E+03</rscale>
<asrwt>0</asrwt>
<pdfrwt beam="1">  1        1 0.35997559E-01 0.15047786E+03</pdfrwt>
<pdfrwt beam="2">  1       -1 0.15240602E-01 0.15047786E+03</pdfrwt>
<totfact> 0.36464516E+03</totfact>
</mgrwt>
</event>
<event>
 4    1  0.6602701E-002  0.8088840E+02  0.7546771E-02  0.1326549E+00
         -4   -1    0    0    0  501 -0.00000000000E+00  0.00000000000E+00  0.20545150638E+03  0.20545150638E+03  0.00000000000E+00 0.  1.
          4   -1    0    0  501    0  0.00000000000E+00 -0.00000000000E+00 -0.59319509465E+02  0.59319509465E+02  0.00000000000E+00 0. -1.
         24    1    1    2    0    0  0.13719177026E+01 -0.85927139326E+01 -0.17027606167E+02  0.82661189303E+02  0.80419002446E+02 0. -1.
        -24    1    1    2    0    0 -0.13719177026E+01  0.85927139326E+01  0.16315960308E+03  0.18210982654E+03  0.80419002446E+02 0.  1.
<mgrwt>
<rscale>  0 0.80888397E+02</rscale>
<asrwt>0</asrwt>
<pdfrwt beam="1">  1        4 0.91260785E-02 0.80888397E+02</pdfrwt>
<pdfrwt beam="2">  1       -4 0.31607924E-01 0.80888397E+02</pdfrwt>
<totfact> 0.12402768E+03</totfact>
</mgrwt>
</event>
<event>
 4    1  0.6602701E-002  0.8841078E+02  0.7546771E-02  0.1306747E+00
         -2   -1    0    0    0  501 -0.00000000000E+00  0.00000000000E+00  0.61356307419E+01  0.61356307419E+01  0.00000000000E+00 0.  1.
          2   -1    0    0  501    0  0.00000000000E+00 -0.00000000000E+00 -0.14187835151E+04  0.14187835151E+04  0.00000000000E+00 0. -1.
         24    1    1    2    0    0  0.36669245788E+02 -0.21484169077E+01 -0.93396047396E+03  0.93813572161E+03  0.80419002446E+02 0. -1.
        -24    1    1    2    0    0 -0.36669245788E+02  0.21484169077E+01 -0.47868741043E+03  0.48678342426E+03  0.80419002446E+02 0.  1.
<mgrwt>
<rscale>  0 0.88410776E+02</rscale>
<asrwt>0</asrwt>
<pdfrwt beam="1">  1        2 0.21827461E+00 0.88410776E+02</pdfrwt>
<pdfrwt beam="2">  1       -2 0.94394224E-03 0.88410776E+02</pdfrwt>
<totfact> 0.32270780E+04</totfact>
</mgrwt>
</event>
<event>
 4    1  0.6602701E-002  0.9234551E+02  0.7546771E-02  0.1297269E+00
          1   -1    0    0  501    0  0.00000000000E+00  0.00000000000E+00  0.11481169559E+04  0.11481169559E+04  0.00000000000E+00 0. -1.
         -1   -1    0    0    0  501 -0.00000000000E+00 -0.00000000000E+00 -0.84800416489E+01  0.84800416489E+01  0.00000000000E+00 0.  1.
         24    1    1    2    0    0 -0.44315923182E+02  0.98273157424E+01  0.36608472856E+03  0.37755227668E+03  0.80419002446E+02 0.  1.
        -24    1    1    2    0    0  0.44315923182E+02 -0.98273157424E+01  0.77355218571E+03  0.77904472089E+03  0.80419002446E+02 0. -1.
<mgrwt>
<rscale>  0 0.92345510E+02</rscale>
<asrwt>0</asrwt>
<pdfrwt beam="1">  1        1 0.17663325E+00 0.92345510E+02</pdfrwt>
<pdfrwt beam="2">  1       -1 0.13046227E-02 0.92345510E+02</pdfrwt>
<totfact> 0.14903162E+04</totfact>
</mgrwt>
</event>
<event>
 4    1  0.6602701E-002  0.9276628E+02  0.7546771E-02  0.1296288E+00
          1   -1    0    0  501    0  0.00000000000E+00  0.00000000000E+00  0.13030391927E+03  0.13030391927E+03  0.00000000000E+00 0. -1.
         -1   -1    0    0    0  501 -0.00000000000E+00 -0.00000000000E+00 -0.66277691690E+02  0.66277691690E+02  0.00000000000E+00 0.  1.
         24    1    1    2    0    0  0.17154335648E+02  0.42942893799E+02  0.37869942996E+02  0.10019836274E+03  0.80419002446E+02 0.  1.
        -24    1    1    2    0    0 -0.17154335648E+02 -0.42942893799E+02  0.26156284583E+02  0.96383248217E+02  0.80419002446E+02 0.  0.
<mgrwt>
<rscale>  0 0.92766273E+02</rscale>
<asrwt>0</asrwt>
<pdfrwt beam="1">  1        1 0.20046757E-01 0.92766285E+02</pdfrwt>
<pdfrwt beam="2">  1       -1 0.10196568E-01 0.92766285E+02</pdfrwt>
<totfact> 0.13560540E+04</totfact>
</mgrwt>
</event>
<event>
 4    1  0.6602701E-002  0.8132049E+02  0.7546771E-02  0.1325345E+00
         -1   -1    0    0    0  501 -0.00000000000E+00  0.00000000000E+00  0.82813596422E+01  0.82813596422E+01  0.00000000000E+00 0.  1.
          1   -1    0    0  501    0  0.00000000000E+00 -0.00000000000E+00 -0.93641831827E+03  0.93641831827E+03  0.00000000000E+00 0. -1.
         24    1    1    2    0    0  0.63302104386E+01  0.10282766669E+02 -0.28282103640E+03  0.29428007312E+03  0.80419002446E+02 0.  1.
        -24    1    1    2    0    0 -0.63302104386E+01 -0.10282766669E+02 -0.64531592223E+03  0.65041960479E+03  0.80419002446E+02 0.  0.
<mgrwt>
<rscale>  0 0.81320494E+02</rscale>
<asrwt>0</asrwt>
<pdfrwt beam="1">  1        1 0.14406434E+00 0.81320494E+02</pdfrwt>
<pdfrwt beam="2">  1       -1 0.12740555E-02 0.81320494E+02</pdfrwt>
<totfact> 0.21524296E+04</totfact>
</mgrwt>
</event>
<event>
 4    1  0.6602701E-002  0.9235667E+02  0.7546771E-02  0.1297243E+00
          2   -1    0    0  501    0  0.00000000000E+00  0.00000000000E+00  0.79827071018E+03  0.79827071018E+03  0.00000000000E+00 0. -1.
         -2   -1    0    0    0  501 -0.00000000000E+00 -0.00000000000E+00 -0.10929249904E+02  0.10929249904E+02  0.00000000000E+00 0.  1.
         24    1    1    2    0    0 -0.45187599686E+02 -0.45407957911E+01  0.45411985347E+03  0.46341622248E+03  0.80419002446E+02 0. -1.
        -24    1    1    2    0    0  0.45187599686E+02  0.45407957911E+01  0.33322160681E+03  0.34578373760E+03  0.80419002446E+02 0.  1.
<mgrwt>
<rscale>  0 0.92356667E+02</rscale>
<asrwt>0</asrwt>
<pdfrwt beam="1">  1        2 0.12281083E+00 0.92356667E+02</pdfrwt>
<pdfrwt beam="2">  1       -2 0.16814237E-02 0.92356667E+02</pdfrwt>
<totfact> 0.32182356E+04</totfact>
</mgrwt>
</event>
<event>
 4    1  0.6602701E-002  0.2508164E+03  0.7546771E-02  0.1112790E+00
          2   -1    0    0  501    0  0.00000000000E+00  0.00000000000E+00  0.20226203056E+04  0.20226203056E+04  0.00000000000E+00 0. -1.
         -2   -1    0    0    0  501 -0.00000000000E+00 -0.00000000000E+00 -0.33284802506E+02  0.33284802506E+02  0.00000000000E+00 0.  1.
         24    1    1    2    0    0  0.18248003721E+02  0.23687262664E+03  0.12578719749E+04  0.12826343018E+04  0.80419002446E+02 0.  0.
        -24    1    1    2    0    0 -0.18248003721E+02 -0.23687262664E+03  0.73146352818E+03  0.77327080632E+03  0.80419002446E+02 0.  1.
<mgrwt>
<rscale>  0 0.25081636E+03</rscale>
<asrwt>0</asrwt>
<pdfrwt beam="1">  1        2 0.31117226E+00 0.25081636E+03</pdfrwt>
<pdfrwt beam="2">  1       -2 0.51207404E-02 0.25081636E+03</pdfrwt>
<totfact> 0.13672066E+03</totfact>
</mgrwt>
</event>
<event>
 4    1  0.6602701E-002  0.8436491E+02  0.7546771E-02  0.1317102E+00
          2   -1    0    0  501    0  0.00000000000E+00  0.00000000000E+00  0.32022362801E+04  0.32022362801E+04  0.00000000000E+00 0. -1.
         -2   -1    0    0    0  501 -0.00000000000E+00 -0.00000000000E+00 -0.30981819778E+01  0.30981819778E+01  0.00000000000E+00 0.  1.
         24    1    1    2    0    0  0.16055485537E+02  0.19810188087E+02  0.24515440627E+04  0.24529952567E+04  0.80419002446E+02 0. -1.
        -24    1    1    2    0    0 -0.16055485537E+02 -0.19810188087E+02  0.74759403543E+03  0.75233920537E+03  0.80419002446E+02 0.  1.
<mgrwt>
<rscale>  0 0.84364910E+02</rscale>
<asrwt>0</asrwt>
<pdfrwt beam="1">  1        2 0.49264909E+00 0.84364910E+02</pdfrwt>
<pdfrwt beam="2">  1       -2 0.47664594E-03 0.84364910E+02</pdfrwt>
<totfact> 0.97102525E+03</totfact>
</mgrwt>
</event>
<event>
 4    1  0.6602701E-002  0.8265458E+02  0.7546771E-02  0.1321683E+00
          2   -1    0    0  501    0  0.00000000000E+00  0.00000000000E+00  0.13042111604E+04  0.13042111604E+04  0.00000000000E+00 0. -1.
         -2   -1    0    0    0  501 -0.00000000000E+00 -0.00000000000E+00 -0.57090267807E+01  0.57090267807E+01  0.00000000000E+00 0.  1.
         24    1    1    2    0    0 -0.12259179445E+02 -0.14638047691E+02  0.46117036819E+03  0.46851881965E+03  0.80419002446E+02 0.  0.
        -24    1    1    2    0    0  0.12259179445E+02  0.14638047691E+02  0.83733176539E+03  0.84140136748E+03  0.80419002446E+02 0. -1.
<mgrwt>
<rscale>  0 0.82654568E+02</rscale>
<asrwt>0</asrwt>
<pdfrwt beam="1">  1        2 0.20064763E+00 0.82654578E+02</pdfrwt>
<pdfrwt beam="2">  1       -2 0.87831285E-03 0.82654578E+02</pdfrwt>
<totfact> 0.40726481E+04</totfact>
</mgrwt>
</event>
<event>
 4    1  0.6602701E-002  0.1166525E+03  0.7546771E-02  0.1248724E+00
          2   -1    0    0  501    0  0.00000000000E+00  0.00000000000E+00  0.25744655390E+02  0.25744655390E+02  0.00000000000E+00 0. -1.
         -2   -1    0    0    0  501 -0.00000000000E+00 -0.00000000000E+00 -0.56192838522E+03  0.56192838522E+03  0.00000000000E+00 0.  1.
         24    1    1    2    0    0 -0.31077087904E+02 -0.78579927168E+02 -0.19649739500E+03  0.22851484097E+03  0.80419002446E+02 0. -1.
        -24    1    1    2    0    0  0.31077087904E+02  0.78579927168E+02 -0.33968633483E+03  0.35915819964E+03  0.80419002446E+02 0.  1.
<mgrwt>
<rscale>  0 0.11665250E+03</rscale>
<asrwt>0</asrwt>
<pdfrwt beam="1">  1        2 0.39607159E-02 0.11665250E+03</pdfrwt>
<pdfrwt beam="2">  1       -2 0.86450528E-01 0.11665250E+03</pdfrwt>
<totfact> 0.24358981E+03</totfact>
</mgrwt>
</event>
<event>
 4    1  0.6602701E-002  0.9152980E+02  0.7546771E-02  0.1299189E+00
         -2   -1    0    0    0  501 -0.00000000000E+00  0.00000000000E+00  0.84035450323E+02  0.84035450323E+02  0.00000000000E+00 0.  1.
          2   -1    0    0  501    0  0.00000000000E+00 -0.00000000000E+00 -0.32631907782E+03  0.32631907782E+03  0.00000000000E+00 0. -1.
         24    1    1    2    0    0 -0.39594996954E+02  0.18512822887E+02 -0.29212894259E+03  0.30613236263E+03  0.80419002446E+02 0. -1.
        -24    1    1    2    0    0  0.39594996954E+02 -0.18512822887E+02  0.49845315087E+02  0.10422216552E+03  0.80419002446E+02 0.  1.
<mgrwt>
<rscale>  0 0.91529800E+02</rscale>
<asrwt>0</asrwt>
<pdfrwt beam="1">  1        2 0.50202936E-01 0.91529800E+02</pdfrwt>
<pdfrwt beam="2">  1       -2 0.12928531E-01 0.91529800E+02</pdfrwt>
<totfact> 0.41116653E+03</totfact>
</mgrwt>
</event>
<event>
 4    1  0.6602701E-002  0.9403518E+02  0.7546771E-02  0.1293364E+00
          1   -1    0    0  501    0  0.00000000000E+00  0.00000000000E+00  0.52828751592E+02  0.52828751592E+02  0.00000000000E+00 0. -1.
         -1   -1    0    0    0  501 -0.00000000000E+00 -0.00000000000E+00 -0.19139034006E+03  0.19139034006E+03  0.00000000000E+00 0.  1.
         24    1    1    2    0    0  0.14446109054E+02  0.46547915065E+02 -0.11252870602E+03  0.14664693688E+03  0.80419002446E+02 0.  1.
        -24    1    1    2    0    0 -0.14446109054E+02 -0.46547915065E+02 -0.26032882447E+02  0.97572154770E+02  0.80419002446E+02 0. -1.
<mgrwt>
<rscale>  0 0.94035176E+02</rscale>
<asrwt>0</asrwt>
<pdfrwt beam="1">  1        1 0.81275002E-02 0.94035176E+02</pdfrwt>
<pdfrwt beam="2">  1       -1 0.29444668E-01 0.94035176E+02</pdfrwt>
<totfact> 0.82053644E+03</totfact>
</mgrwt>
</event>
<event>
 4    1  0.7602673E-002  0.8498164E+02  0.7546771E-02  0.1315481E+00
          1   -1    0    0  501    0  0.00000000000E+00  0.00000000000E+00  0.31782083193E+04  0.31782083193E+04  0.00000000000E+00 0. -1.
         -1   -1    0    0    0  501 -0.00000000000E+00 -0.00000000000E+00 -0.24157970390E+01  0.24157970390E+01  0.00000000000E+00 0.  1.
         24    1    1    2    0    0 -0.19215736447E+02  0.19632087465E+02  0.12003208792E+04  0.12033254308E+04  0.80419002446E+02 0.  0.
        -24    1    1    2    0    0  0.19215736447E+02 -0.19632087465E+02  0.19754716430E+04  0.19772986855E+04  0.80419002446E+02 0.  0.
<mgrwt>
<rscale>  0 0.84981641E+02</rscale>
<asrwt>0</asrwt>
<pdfrwt beam="1">  1        1 0.48895178E+00 0.84981641E+02</pdfrwt>
<pdfrwt beam="2">  1       -1 0.37166363E-03 0.84981641E+02</pdfrwt>
<totfact> 0.41990479E+03</totfact>
</mgrwt>
</event>
<event>
 4    1  0.6602701E-002  0.1677469E+03  0.7546771E-02  0.1180218E+00
          1   -1    0    0  501    0  0.00000000000E+00  0.00000000000E+00  0.14484255672E+03  0.14484255672E+03  0.00000000000E+00 0. -1.
         -1   -1    0    0    0  501 -0.00000000000E+00 -0.00000000000E+00 -0.39978639496E+03  0.39978639496E+03  0.00000000000E+00 0.  1.
         24    1    1    2    0    0 -0.53543324535E+02  0.13713106485E+03 -0.32271539843E+03  0.36370903328E+03  0.80419002446E+02 0.  1.
        -24    1    1    2    0    0  0.53543324535E+02 -0.13713106485E+03  0.67771560194E+02  0.18091991840E+03  0.80419002446E+02 0. -1.
<mgrwt>
<rscale>  0 0.16774693E+03</rscale>
<asrwt>0</asrwt>
<pdfrwt beam="1">  1        1 0.22283470E-01 0.16774693E+03</pdfrwt>
<pdfrwt beam="2">  1       -1 0.61505599E-01 0.16774693E+03</pdfrwt>
<totfact> 0.61506987E+02</totfact>
</mgrwt>
</event>
<event>
 4    1  0.6602701E-002  0.8061875E+02  0.7546771E-02  0.1327305E+00
         -3   -1    0    0    0  501 -0.00000000000E+00  0.00000000000E+00  0.53872993755E+02  0.53872993755E+02  0.00000000000E+00 0.  1.
          3   -1    0    0  501    0  0.00000000000E+00 -0.00000000000E+00 -0.12085185584E+03  0.12085185584E+03  0.00000000000E+00 0. -1.
         24    1    1    2    0    0  0.27271230986E+01  0.49728330021E+01 -0.29854834966E+02  0.85969142102E+02  0.80419002446E+02 0.  1.
        -24    1    1    2    0    0 -0.27271230986E+01 -0.49728330021E+01 -0.37124027118E+02  0.88755707491E+02  0.80419002446E+02 0. -1.
<mgrwt>
<rscale>  0 0.80618746E+02</rscale>
<asrwt>0</asrwt>
<pdfrwt beam="1">  1        3 0.18592593E-01 0.80618746E+02</pdfrwt>
<pdfrwt beam="2">  1       -3 0.82881530E-02 0.80618746E+02</pdfrwt>
<totfact> 0.52180457E+03</totfact>
</mgrwt>
</event>
<event>
 4    1  0.6602701E-002  0.8781771E+02  0.7546771E-02  0.1308224E+00
          2   -1    0    0  501    0  0.00000000000E+00  0.00000000000E+00  0.33979548457E+04  0.33979548457E+04  0.00000000000E+00 0. -1.
         -2   -1    0    0    0  501 -0.00000000000E+00 -0.00000000000E+00 -0.56597489571E+01  0.56597489571E+01  0.00000000000E+00 0.  1.
         24    1    1    2    0    0  0.31707149564E+02  0.15472248366E+02  0.30132577187E+04  0.30145371169E+04  0.80419002446E+02 0. -1.
        -24    1    1    2    0    0 -0.31707149564E+02 -0.15472248366E+02  0.37903737802E+03  0.38907747775E+03  0.80419002446E+02 0.  1.
<mgrwt>
<rscale>  0 0.87817708E+02</rscale>
<asrwt>0</asrwt>
<pdfrwt beam="1">  1        2 0.52276066E+00 0.87817708E+02</pdfrwt>
<pdfrwt beam="2">  1       -2 0.87073332E-03 0.87817708E+02</pdfrwt>
<totfact> 0.31709591E+03</totfact>
</mgrwt>
</event>
<event>
 4    1  0.6602701E-002  0.9523741E+02  0.7546771E-02  0.1290642E+00
         -2   -1    0    0    0  501 -0.00000000000E+00  0.00000000000E+00  0.62570603949E+01  0.62570603949E+01  0.00000000000E+00 0.  1.
          2   -1    0    0  501    0  0.00000000000E+00 -0.00000000000E+00 -0.27780455530E+04  0.27780455530E+04  0.00000000000E+00 0. -1.
         24    1    1    2    0    0  0.13133053806E+02 -0.49299803421E+02 -0.23485931880E+04  0.23505233729E+04  0.80419002446E+02 0. -1.
        -24    1    1    2    0    0 -0.13133053806E+02  0.49299803421E+02 -0.42319530464E+03  0.43377924057E+03  0.80419002446E+02 0.  1.
<mgrwt>
<rscale>  0 0.95237407E+02</rscale>
<asrwt>0</asrwt>
<pdfrwt beam="1">  1        2 0.42739216E+00 0.95237407E+02</pdfrwt>
<pdfrwt beam="2">  1       -2 0.96262346E-03 0.95237407E+02</pdfrwt>
<totfact> 0.63065805E+03</totfact>
</mgrwt>
</event>
<event>
 4    1  0.6602701E-002  0.1012251E+03  0.7546771E-02  0.1277741E+00
         -2   -1    0    0    0  501 -0.00000000000E+00  0.00000000000E+00  0.54818717426E+01  0.54818717426E+01  0.00000000000E+00 0.  1.
          2   -1    0    0  501    0  0.00000000000E+00 -0.00000000000E+00 -0.22600377192E+04  0.22600377192E+04  0.00000000000E+00 0. -1.
         24    1    1    2    0    0 -0.13036776751E+02 -0.60077903651E+02 -0.15983606007E+04  0.16015627175E+04  0.80419002446E+02 0. -1.
        -24    1    1    2    0    0  0.13036776751E+02  0.60077903651E+02 -0.65619524672E+03  0.66395687347E+03  0.80419002446E+02 0.  0.
<mgrwt>
<rscale>  0 0.10122514E+03</rscale>
<asrwt>0</asrwt>
<pdfrwt beam="1">  1        2 0.34769895E+00 0.10122514E+03</pdfrwt>
<pdfrwt beam="2">  1       -2 0.84336285E-03 0.10122514E+03</pdfrwt>
<totfact> 0.14317060E+04</totfact>
</mgrwt>
</event>
<event>
 4    1  0.6602701E-002  0.1449490E+03  0.7546771E-02  0.1206821E+00
          1   -1    0    0  501    0  0.00000000000E+00  0.00000000000E+00  0.56159046927E+03  0.56159046927E+03  0.00000000000E+00 0. -1.
         -1   -1    0    0    0  501 -0.00000000000E+00 -0.00000000000E+00 -0.40470329304E+02  0.40470329304E+02  0.00000000000E+00 0.  1.
         24    1    1    2    0    0 -0.11630161491E+03  0.31889464796E+02  0.17780692673E+03  0.22940253430E+03  0.80419002446E+02 0.  0.
        -24    1    1    2    0    0  0.11630161491E+03 -0.31889464796E+02  0.34331321324E+03  0.37265826428E+03  0.80419002446E+02 0.  1.
<mgrwt>
<rscale>  0 0.14494902E+03</rscale>
<asrwt>0</asrwt>
<pdfrwt beam="1">  1        1 0.86398528E-01 0.14494902E+03</pdfrwt>
<pdfrwt beam="2">  1       -1 0.62262049E-02 0.14494902E+03</pdfrwt>
<totfact> 0.47244730E+03</totfact>
</mgrwt>
</event>
<event>
 4    1  0.6602701E-002  0.1741671E+03  0.7546771E-02  0.1173571E+00
          2   -1    0    0  501    0  0.00000000000E+00  0.00000000000E+00  0.10054575652E+04  0.10054575652E+04  0.00000000000E+00 0. -1.
         -2   -1    0    0    0  501 -0.00000000000E+00 -0.00000000000E+00 -0.67107765065E+02  0.67107765065E+02  0.00000000000E+00 0.  1.
         24    1    1    2    0    0  0.13782738000E+03  0.69789529468E+02  0.86704879757E+03  0.88436858743E+03  0.80419002446E+02 0. -1.
        -24    1    1    2    0    0 -0.13782738000E+03 -0.69789529468E+02  0.71301002594E+02  0.18819674287E+03  0.80419002446E+02 0.  1.
<mgrwt>
<rscale>  0 0.17416711E+03</rscale>
<asrwt>0</asrwt>
<pdfrwt beam="1">  1        2 0.15468577E+00 0.17416711E+03</pdfrwt>
<pdfrwt beam="2">  1       -2 0.10324272E-01 0.17416711E+03</pdfrwt>
<totfact> 0.16399284E+03</totfact>
</mgrwt>
</event>
<event>
 4    1  0.6602701E-002  0.9044504E+02  0.7546771E-02  0.1301778E+00
         -1   -1    0    0    0  501 -0.00000000000E+00  0.00000000000E+00  0.69310491101E+01  0.69310491101E+01  0.00000000000E+00 0.  1.
          1   -1    0    0  501    0  0.00000000000E+00 -0.00000000000E+00 -0.12444821944E+04  0.12444821944E+04  0.00000000000E+00 0. -1.
         24    1    1    2    0    0 -0.26431930482E+02 -0.31850307261E+02 -0.47661313948E+03  0.48511894386E+03  0.80419002446E+02 0. -1.
        -24    1    1    2    0    0  0.26431930482E+02  0.31850307261E+02 -0.76093800585E+03  0.76629429968E+03  0.80419002446E+02 0.  0.
<mgrwt>
<rscale>  0 0.90445038E+02</rscale>
<asrwt>0</asrwt>
<pdfrwt beam="1">  1        1 0.19145858E+00 0.90445038E+02</pdfrwt>
<pdfrwt beam="2">  1       -1 0.10663164E-02 0.90445038E+02</pdfrwt>
<totfact> 0.17041250E+04</totfact>
</mgrwt>
</event>
<event>
 4    1  0.6602701E-002  0.1051315E+03  0.7546771E-02  0.1269861E+00
          3   -1    0    0  501    0  0.00000000000E+00  0.00000000000E+00  0.14414718255E+02  0.14414718255E+02  0.00000000000E+00 0. -1.
         -3   -1    0    0    0  501 -0.00000000000E+00 -0.00000000000E+00 -0.86727705981E+03  0.86727705981E+03  0.00000000000E+00 0.  1.
         24    1    1    2    0    0  0.50861663962E+02  0.44704750246E+02 -0.57651235032E+03  0.58601973481E+03  0.80419002446E+02 0.  1.
        -24    1    1    2    0    0 -0.50861663962E+02 -0.44704750246E+02 -0.27634999124E+03  0.29567204326E+03  0.80419002446E+02 0. -1.
<mgrwt>
<rscale>  0 0.10513153E+03</rscale>
<asrwt>0</asrwt>
<pdfrwt beam="1">  1        3 0.22176489E-02 0.10513153E+03</pdfrwt>
<pdfrwt beam="2">  1       -3 0.13342725E+00 0.10513153E+03</pdfrwt>
<totfact> 0.82720387E+02</totfact>
</mgrwt>
</event>
<event>
 4    1  0.6602701E-002  0.1059564E+03  0.7546771E-02  0.1268247E+00
         -1   -1    0    0    0  501 -0.00000000000E+00  0.00000000000E+00  0.74455154922E+02  0.74455154922E+02  0.00000000000E+00 0.  1.
          1   -1    0    0  501    0  0.00000000000E+00 -0.00000000000E+00 -0.18508453018E+03  0.18508453018E+03  0.00000000000E+00 0. -1.
         24    1    1    2    0    0  0.48537867925E+02  0.49026621462E+02 -0.11117846283E+03  0.15358190253E+03  0.80419002446E+02 0.  0.
        -24    1    1    2    0    0 -0.48537867925E+02 -0.49026621462E+02  0.54908757177E+00  0.10595778257E+03  0.80419002446E+02 0.  0.
<mgrwt>
<rscale>  0 0.10595637E+03</rscale>
<asrwt>0</asrwt>
<pdfrwt beam="1">  1        1 0.28474543E-01 0.10595639E+03</pdfrwt>
<pdfrwt beam="2">  1       -1 0.11454639E-01 0.10595639E+03</pdfrwt>
<totfact> 0.74240971E+03</totfact>
</mgrwt>
</event>
<event>
 4    1  0.6602701E-002  0.1182641E+03  0.7546771E-02  0.1245988E+00
         -2   -1    0    0    0  501 -0.00000000000E+00  0.00000000000E+00  0.24560426573E+02  0.24560426573E+02  0.00000000000E+00 0.  1.
          2   -1    0    0  501    0  0.00000000000E+00 -0.00000000000E+00 -0.91071869846E+03  0.91071869846E+03  0.00000000000E+00 0. -1.
         24    1    1    2    0    0  0.28452344110E+02  0.81912434240E+02 -0.15682265337E+03  0.19641726842E+03  0.80419002446E+02 0.  1.
        -24    1    1    2    0    0 -0.28452344110E+02 -0.81912434240E+02 -0.72933561852E+03  0.73886185662E+03  0.80419002446E+02 0. -1.
<mgrwt>
<rscale>  0 0.11826412E+03</rscale>
<asrwt>0</asrwt>
<pdfrwt beam="1">  1        2 0.14011058E+00 0.11826414E+03</pdfrwt>
<pdfrwt beam="2">  1       -2 0.37785270E-02 0.11826414E+03</pdfrwt>
<totfact> 0.85757347E+03</totfact>
</mgrwt>
</event>
<event>
 4    1  0.6602701E-002  0.1084959E+03  0.7546771E-02  0.1263381E+00
         -1   -1    0    0    0  501 -0.00000000000E+00  0.00000000000E+00  0.87234003646E+02  0.87234003646E+02  0.00000000000E+00 0.  1.
          1   -1    0    0  501    0  0.00000000000E+00 -0.00000000000E+00 -0.27104449841E+03  0.27104449841E+03  0.00000000000E+00 0. -1.
         24    1    1    2    0    0  0.72127709135E+02  0.10087059703E+02  0.35037071290E+02  0.11401301468E+03  0.80419002446E+02 0.  1.
        -24    1    1    2    0    0 -0.72127709135E+02 -0.10087059703E+02 -0.21884756606E+03  0.24426548737E+03  0.80419002446E+02 0. -1.
<mgrwt>
<rscale>  0 0.10849595E+03</rscale>
<asrwt>0</asrwt>
<pdfrwt beam="1">  1        1 0.41699153E-01 0.10849595E+03</pdfrwt>
<pdfrwt beam="2">  1       -1 0.13420616E-01 0.10849595E+03</pdfrwt>
<totfact> 0.36460503E+03</totfact>
</mgrwt>
</event>
<event>
 4    1  0.6602701E-002  0.8811213E+02  0.7546771E-02  0.1307489E+00
          3   -1    0    0  501    0  0.00000000000E+00  0.00000000000E+00  0.13349074533E+02  0.13349074533E+02  0.00000000000E+00 0. -1.
         -3   -1    0    0    0  501 -0.00000000000E+00 -0.00000000000E+00 -0.94518795784E+03  0.94518795784E+03  0.00000000000E+00 0.  1.
         24    1    1    2    0    0  0.24541473566E+02  0.26348584354E+02 -0.76317354981E+03  0.76824320037E+03  0.80419002446E+02 0.  1.
        -24    1    1    2    0    0 -0.24541473566E+02 -0.26348584354E+02 -0.16866533349E+03  0.19029383200E+03  0.80419002446E+02 0. -1.
<mgrwt>
<rscale>  0 0.88112132E+02</rscale>
<asrwt>0</asrwt>
<pdfrwt beam="1">  1        3 0.20537042E-02 0.88112132E+02</pdfrwt>
<pdfrwt beam="2">  1       -3 0.14541350E+00 0.88112132E+02</pdfrwt>
<totfact> 0.73181245E+02</totfact>
</mgrwt>
</event>
<event>
 4    1  0.6602701E-002  0.9794875E+02  0.7546771E-02  0.1284670E+00
         -2   -1    0    0    0  501 -0.00000000000E+00  0.00000000000E+00  0.57477055261E+01  0.57477055261E+01  0.00000000000E+00 0.  1.
          2   -1    0    0  501    0  0.00000000000E+00 -0.00000000000E+00 -0.17555297789E+04  0.17555297789E+04  0.00000000000E+00 0. -1.
         24    1    1    2    0    0  0.30899348052E+02  0.46604415873E+02 -0.10702005370E+04  0.10746735070E+04  0.80419002446E+02 0.  1.
        -24    1    1    2    0    0 -0.30899348052E+02 -0.46604415873E+02 -0.67958153639E+03  0.68660397744E+03  0.80419002446E+02 0.  0.
<mgrwt>
<rscale>  0 0.97948748E+02</rscale>
<asrwt>0</asrwt>
<pdfrwt beam="1">  1        2 0.27008140E+00 0.97948748E+02</pdfrwt>
<pdfrwt beam="2">  1       -2 0.88426273E-03 0.97948748E+02</pdfrwt>
<totfact> 0.24062378E+04</totfact>
</mgrwt>
</event>
<event>
 4    1  0.6602701E-002  0.1080484E+03  0.7546771E-02  0.1264227E+00
          2   -1    0    0  501    0  0.00000000000E+00  0.00000000000E+00  0.13551123333E+02  0.13551123333E+02  0.00000000000E+00 0. -1.
         -2   -1    0    0    0  501 -0.00000000000E+00 -0.00000000000E+00 -0.89009988073E+03  0.89009988073E+03  0.00000000000E+00 0.  1.
         24    1    1    2    0    0  0.16571919910E+01 -0.72142215236E+02 -0.51924713694E+03  0.53036973017E+03  0.80419002446E+02 0. -1.
        -24    1    1    2    0    0 -0.16571919910E+01  0.72142215236E+02 -0.35730162045E+03  0.37328127389E+03  0.80419002446E+02 0.  1.
<mgrwt>
<rscale>  0 0.10804844E+03</rscale>
<asrwt>0</asrwt>
<pdfrwt beam="1">  1        2 0.20847880E-02 0.10804845E+03</pdfrwt>
<pdfrwt beam="2">  1       -2 0.13693845E+00 0.10804845E+03</pdfrwt>
<totfact> 0.19475873E+03</totfact>
</mgrwt>
</event>
<event>
 4    1  0.6602701E-002  0.1611174E+03  0.7546771E-02  0.1187441E+00
          1   -1    0    0  501    0  0.00000000000E+00  0.00000000000E+00  0.97994127702E+02  0.97994127702E+02  0.00000000000E+00 0. -1.
         -1   -1    0    0    0  501 -0.00000000000E+00 -0.00000000000E+00 -0.29867553875E+03  0.29867553875E+03  0.00000000000E+00 0.  1.
         24    1    1    2    0    0  0.12432096508E+02  0.13905773855E+03 -0.16703493975E+03  0.23207649326E+03  0.80419002446E+02 0. -1.
        -24    1    1    2    0    0 -0.12432096508E+02 -0.13905773855E+03 -0.33646471301E+02  0.16459317319E+03  0.80419002446E+02 0.  1.
<mgrwt>
<rscale>  0 0.16111743E+03</rscale>
<asrwt>0</asrwt>
<pdfrwt beam="1">  1        1 0.15076020E-01 0.16111743E+03</pdfrwt>
<pdfrwt beam="2">  1       -1 0.45950082E-01 0.16111743E+03</pdfrwt>
<totfact> 0.17461273E+03</totfact>
</mgrwt>
</event>
<event>
 4    1  0.6602701E-002  0.8532955E+02  0.7546771E-02  0.1314573E+00
         -2   -1    0    0    0  501 -0.00000000000E+00  0.00000000000E+00  0.19491533024E+02  0.19491533024E+02  0.00000000000E+00 0.  1.
          2   -1    0    0  501    0  0.00000000000E+00 -0.00000000000E+00 -0.54651005680E+03  0.54651005680E+03  0.00000000000E+00 0. -1.
         24    1    1    2    0    0  0.28237546896E+02 -0.40690148279E+01 -0.42271436871E+03  0.43124073255E+03  0.80419002446E+02 0. -1.
        -24    1    1    2    0    0 -0.28237546896E+02  0.40690148279E+01 -0.10430415506E+03  0.13476085727E+03  0.80419002446E+02 0.  1.
<mgrwt>
<rscale>  0 0.85329549E+02</rscale>
<asrwt>0</asrwt>
<pdfrwt beam="1">  1        2 0.84078479E-01 0.85329549E+02</pdfrwt>
<pdfrwt beam="2">  1       -2 0.29986971E-02 0.85329549E+02</pdfrwt>
<totfact> 0.21446217E+04</totfact>
</mgrwt>
</event>
<event>
 4    1  0.6602701E-002  0.9114455E+02  0.7546771E-02  0.1300103E+00
          2   -1    0    0  501    0  0.00000000000E+00  0.00000000000E+00  0.28148820309E+04  0.28148820309E+04  0.00000000000E+00 0. -1.
         -2   -1    0    0    0  501 -0.00000000000E+00 -0.00000000000E+00 -0.45669246037E+01  0.45669246037E+01  0.00000000000E+00 0.  1.
         24    1    1    2    0    0  0.36228775162E+02  0.22969299820E+02  0.22436586788E+04  0.22455092064E+04  0.80419002446E+02 0. -1.
        -24    1    1    2    0    0 -0.36228775162E+02 -0.22969299820E+02  0.56665642750E+03  0.57393974916E+03  0.80419002446E+02 0.  1.
<mgrwt>
<rscale>  0 0.91144549E+02</rscale>
<asrwt>0</asrwt>
<pdfrwt beam="1">  1        2 0.43305739E+00 0.91144549E+02</pdfrwt>
<pdfrwt beam="2">  1       -2 0.70260603E-03 0.91144549E+02</pdfrwt>
<totfact> 0.93819554E+03</totfact>
</mgrwt>
</event>
<event>
 4    1  0.6602701E-002  0.1355247E+03  0.7546771E-02  0.1219481E+00
          2   -1    0    0  501    0  0.00000000000E+00  0.00000000000E+00  0.26368313191E+04  0.26368313191E+04  0.00000000000E+00 0. -1.
         -2   -1    0    0    0  501 -0.00000000000E+00 -0.00000000000E+00 -0.72799894883E+01  0.72799894883E+01  0.00000000000E+00 0.  1.
         24    1    1    2    0    0  0.77110633447E+02 -0.77160097991E+02  0.10400104263E+04  0.10488034293E+04  0.80419002446E+02 0.  1.
        -24    1    1    2    0    0 -0.77110633447E+02  0.77160097991E+02  0.15895409033E+04  0.15953078793E+04  0.80419002446E+02 0. -1.
<mgrwt>
<rscale>  0 0.13552472E+03</rscale>
<asrwt>0</asrwt>
<pdfrwt beam="1">  1        2 0.40566559E+00 0.13552474E+03</pdfrwt>
<pdfrwt beam="2">  1       -2 0.11200005E-02 0.13552474E+03</pdfrwt>
<totfact> 0.60877990E+03</totfact>
</mgrwt>
</event>
<event>
 4    1  0.6602701E-002  0.8547496E+02  0.7546771E-02  0.1314195E+00
         -2   -1    0    0    0  501 -0.00000000000E+00  0.00000000000E+00  0.60260182931E+01  0.60260182931E+01  0.00000000000E+00 0.  1.
          2   -1    0    0  501    0  0.00000000000E+00 -0.00000000000E+00 -0.14522183920E+04  0.14522183920E+04  0.00000000000E+00 0. -1.
         24    1    1    2    0    0  0.25904606176E+02  0.12950037518E+02 -0.10193896535E+04  0.10229668781E+04  0.80419002446E+02 0. -1.
        -24    1    1    2    0    0 -0.25904606176E+02 -0.12950037518E+02 -0.42680272020E+03  0.43527753217E+03  0.80419002446E+02 0.  1.
<mgrwt>
<rscale>  0 0.85474956E+02</rscale>
<asrwt>0</asrwt>
<pdfrwt beam="1">  1        2 0.22341867E+00 0.85474956E+02</pdfrwt>
<pdfrwt beam="2">  1       -2 0.92707786E-03 0.85474956E+02</pdfrwt>
<totfact> 0.31723237E+04</totfact>
</mgrwt>
</event>
<event>
 4    1  0.6602701E-002  0.1432610E+03  0.7546771E-02  0.1209007E+00
         -2   -1    0    0    0  501 -0.00000000000E+00  0.00000000000E+00  0.18618693783E+02  0.18618693783E+02  0.00000000000E+00 0.  1.
          2   -1    0    0  501    0  0.00000000000E+00 -0.00000000000E+00 -0.11146451540E+04  0.11146451540E+04  0.00000000000E+00 0. -1.
         24    1    1    2    0    0  0.47063706500E+02  0.10881860349E+03 -0.48842133167E+03  0.50899812781E+03  0.80419002446E+02 0.  0.
        -24    1    1    2    0    0 -0.47063706500E+02 -0.10881860349E+03 -0.60760512851E+03  0.62426571993E+03  0.80419002446E+02 0.  1.
<mgrwt>
<rscale>  0 0.14326096E+03</rscale>
<asrwt>0</asrwt>
<pdfrwt beam="1">  1        2 0.17148390E+00 0.14326098E+03</pdfrwt>
<pdfrwt beam="2">  1       -2 0.28644140E-02 0.14326098E+03</pdfrwt>
<totfact> 0.98584552E+03</totfact>
</mgrwt>
</event>
<event>
 4    1  0.6602701E-002  0.1083692E+03  0.7546771E-02  0.1263620E+00
         -1   -1    0    0    0  501 -0.00000000000E+00  0.00000000000E+00  0.12129646660E+02  0.12129646660E+02  0.00000000000E+00 0.  1.
          1   -1    0    0  501    0  0.00000000000E+00 -0.00000000000E+00 -0.98555526202E+03  0.98555526202E+03  0.00000000000E+00 0. -1.
         24    1    1    2    0    0  0.71990701216E+02 -0.96951977703E+01 -0.55291770174E+03  0.56343753760E+03  0.80419002446E+02 0.  0.
        -24    1    1    2    0    0 -0.71990701216E+02  0.96951977703E+01 -0.42050791362E+03  0.43424737108E+03  0.80419002446E+02 0. -1.
<mgrwt>
<rscale>  0 0.10836917E+03</rscale>
<asrwt>0</asrwt>
<pdfrwt beam="1">  1        1 0.15162388E+00 0.10836918E+03</pdfrwt>
<pdfrwt beam="2">  1       -1 0.18660995E-02 0.10836918E+03</pdfrwt>
<totfact> 0.11789575E+04</totfact>
</mgrwt>
</event>
<event>
 4    1  0.6602701E-002  0.8400631E+02  0.7546771E-02  0.1318052E+00
         -2   -1    0    0    0  501 -0.00000000000E+00  0.00000000000E+00  0.43000851418E+01  0.43000851418E+01  0.00000000000E+00 0.  1.
          2   -1    0    0  501    0  0.00000000000E+00 -0.00000000000E+00 -0.16831564009E+04  0.16831564009E+04  0.00000000000E+00 0. -1.
         24    1    1    2    0    0 -0.23916490915E+02 -0.42243116343E+01 -0.97272769935E+03  0.97634841956E+03  0.80419002446E+02 0. -1.
        -24    1    1    2    0    0  0.23916490915E+02  0.42243116343E+01 -0.70612861646E+03  0.71110806653E+03  0.80419002446E+02 0.  1.
<mgrwt>
<rscale>  0 0.84006305E+02</rscale>
<asrwt>0</asrwt>
<pdfrwt beam="1">  1        2 0.25894704E+00 0.84006305E+02</pdfrwt>
<pdfrwt beam="2">  1       -2 0.66155182E-03 0.84006305E+02</pdfrwt>
<totfact> 0.38913356E+04</totfact>
</mgrwt>
</event>
<event>
 4    1  0.6602701E-002  0.1042140E+03  0.7546771E-02  0.1271676E+00
         -2   -1    0    0    0  501 -0.00000000000E+00  0.00000000000E+00  0.10437605058E+02  0.10437605058E+02  0.00000000000E+00 0.  1.
          2   -1    0    0  501    0  0.00000000000E+00 -0.00000000000E+00 -0.10750670203E+04  0.10750670203E+04  0.00000000000E+00 0. -1.
         24    1    1    2    0    0 -0.36816063199E+02 -0.55117412685E+02 -0.62960525427E+03  0.63817187642E+03  0.80419002446E+02 0. -1.
        -24    1    1    2    0    0  0.36816063199E+02  0.55117412685E+02 -0.43502416095E+03  0.44733274892E+03  0.80419002446E+02 0.  1.
<mgrwt>
<rscale>  0 0.10421405E+03</rscale>
<asrwt>0</asrwt>
<pdfrwt beam="1">  1        2 0.16539497E+00 0.10421405E+03</pdfrwt>
<pdfrwt beam="2">  1       -2 0.16057850E-02 0.10421405E+03</pdfrwt>
<totfact> 0.23545817E+04</totfact>
</mgrwt>
</event>
<event>
 4    1  0.6602701E-002  0.9069618E+02  0.7546771E-02  0.1301175E+00
          2   -1    0    0  501    0  0.00000000000E+00  0.00000000000E+00  0.13409559722E+03  0.13409559722E+03  0.00000000000E+00 0. -1.
         -2   -1    0    0    0  501 -0.00000000000E+00 -0.00000000000E+00 -0.11124350048E+03  0.11124350048E+03  0.00000000000E+00 0.  1.
         24    1    1    2    0    0  0.32097694235E+02 -0.26987384223E+02  0.93584614117E+02  0.13032220393E+03  0.80419002446E+02 0. -1.
        -24    1    1    2    0    0 -0.32097694235E+02  0.26987384223E+02 -0.70732517379E+02  0.11501689377E+03  0.80419002446E+02 0.  1.
<mgrwt>
<rscale>  0 0.90696179E+02</rscale>
<asrwt>0</asrwt>
<pdfrwt beam="1">  1        2 0.20630092E-01 0.90696179E+02</pdfrwt>
<pdfrwt beam="2">  1       -2 0.17114385E-01 0.90696179E+02</pdfrwt>
<totfact> 0.67525842E+03</totfact>
</mgrwt>
</event>
<event>
 4    1  0.6602701E-002  0.8094875E+02  0.7546771E-02  0.1326380E+00
          2   -1    0    0  501    0  0.00000000000E+00  0.00000000000E+00  0.18723737498E+04  0.18723737498E+04  0.00000000000E+00 0. -1.
         -2   -1    0    0    0  501 -0.00000000000E+00 -0.00000000000E+00 -0.41413340514E+01  0.41413340514E+01  0.00000000000E+00 0.  1.
         24    1    1    2    0    0  0.11498266994E+00  0.92450304051E+01  0.13034372616E+04  0.13059484655E+04  0.80419002446E+02 0.  0.
        -24    1    1    2    0    0 -0.11498266994E+00 -0.92450304051E+01  0.56479515417E+03  0.57056661831E+03  0.80419002446E+02 0.  1.
<mgrwt>
<rscale>  0 0.80948748E+02</rscale>
<asrwt>0</asrwt>
<pdfrwt beam="1">  1        2 0.28805682E+00 0.80948748E+02</pdfrwt>
<pdfrwt beam="2">  1       -2 0.63712981E-03 0.80948748E+02</pdfrwt>
<totfact> 0.32897708E+04</totfact>
</mgrwt>
</event>
<event>
 4    1  0.6602701E-002  0.9897971E+02  0.7546771E-02  0.1282456E+00
         -2   -1    0    0    0  501 -0.00000000000E+00  0.00000000000E+00  0.14861742372E+02  0.14861742372E+02  0.00000000000E+00 0.  1.
          2   -1    0    0  501    0  0.00000000000E+00 -0.00000000000E+00 -0.16113881346E+04  0.16113881346E+04  0.00000000000E+00 0. -1.
         24    1    1    2    0    0  0.18767278028E+02  0.54566982265E+02 -0.14233160122E+04  0.14267534660E+04  0.80419002446E+02 0. -1.
        -24    1    1    2    0    0 -0.18767278028E+02 -0.54566982265E+02 -0.17321038006E+03  0.19949641098E+03  0.80419002446E+02 0.  1.
<mgrwt>
<rscale>  0 0.98979706E+02</rscale>
<asrwt>0</asrwt>
<pdfrwt beam="1">  1        2 0.24790592E+00 0.98979706E+02</pdfrwt>
<pdfrwt beam="2">  1       -2 0.22864215E-02 0.98979706E+02</pdfrwt>
<totfact> 0.73269811E+03</totfact>
</mgrwt>
</event>
<event>
 4    1  0.6602701E-002  0.1073156E+03  0.7546771E-02  0.1265623E+00
         -2   -1    0    0    0  501 -0.00000000000E+00  0.00000000000E+00  0.45489624667E+01  0.45489624667E+01  0.00000000000E+00 0.  1.
          2   -1    0    0  501    0  0.00000000000E+00 -0.00000000000E+00 -0.28986728660E+04  0.28986728660E+04  0.00000000000E+00 0. -1.
         24    1    1    2    0    0 -0.24959772504E+02  0.66531505551E+02 -0.19635526521E+04  0.19664830702E+04  0.80419002446E+02 0. -1.
        -24    1    1    2    0    0  0.24959772504E+02 -0.66531505551E+02 -0.93057125143E+03  0.93673875836E+03  0.80419002446E+02 0.  1.
<mgrwt>
<rscale>  0 0.10731564E+03</rscale>
<asrwt>0</asrwt>
<pdfrwt beam="1">  1        2 0.44595116E+00 0.10731564E+03</pdfrwt>
<pdfrwt beam="2">  1       -2 0.69983805E-03 0.10731564E+03</pdfrwt>
<totfact> 0.84996626E+03</totfact>
</mgrwt>
</event>
<event>
 4    1  0.6602701E-002  0.8774755E+02  0.7546771E-02  0.1308400E+00
          3   -1    0    0  501    0  0.00000000000E+00  0.00000000000E+00  0.33419704309E+02  0.33419704309E+02  0.00000000000E+00 0. -1.
         -3   -1    0    0    0  501 -0.00000000000E+00 -0.00000000000E+00 -0.27766991202E+03  0.27766991202E+03  0.00000000000E+00 0.  1.
         24    1    1    2    0    0 -0.34881280022E+02 -0.39638663212E+01 -0.18630815204E+03  0.20593775613E+03  0.80419002446E+02 0.  1.
        -24    1    1    2    0    0  0.34881280022E+02  0.39638663212E+01 -0.57942055676E+02  0.10515186020E+03  0.80419002446E+02 0. -1.
<mgrwt>
<rscale>  0 0.87747546E+02</rscale>
<asrwt>0</asrwt>
<pdfrwt beam="1">  1        3 0.51414929E-02 0.87747546E+02</pdfrwt>
<pdfrwt beam="2">  1       -3 0.42718448E-01 0.87747546E+02</pdfrwt>
<totfact> 0.25023920E+03</totfact>
</mgrwt>
</event>
<event>
 4    1  0.6602701E-002  0.8913369E+02  0.7546771E-02  0.1304963E+00
          4   -1    0    0  501    0  0.00000000000E+00  0.00000000000E+00  0.45487345525E+02  0.45487345525E+02  0.00000000000E+00 0. -1.
         -4   -1    0    0    0  501 -0.00000000000E+00 -0.00000000000E+00 -0.34054425432E+03  0.34054425432E+03  0.00000000000E+00 0.  1.
         24    1    1    2    0    0 -0.27842570555E+02  0.26502631133E+02 -0.12815665678E+02  0.90050293910E+02  0.80419002446E+02 0. -1.
        -24    1    1    2    0    0  0.27842570555E+02 -0.26502631133E+02 -0.28224124312E+03  0.29598130593E+03  0.80419002446E+02 0.  1.
<mgrwt>
<rscale>  0 0.89133687E+02</rscale>
<asrwt>0</asrwt>
<pdfrwt beam="1">  1        4 0.69980534E-02 0.89133687E+02</pdfrwt>
<pdfrwt beam="2">  1       -4 0.52391422E-01 0.89133687E+02</pdfrwt>
<totfact> 0.73190505E+02</totfact>
</mgrwt>
</event>
<event>
 4    1  0.6602701E-002  0.1185403E+03  0.7546771E-02  0.1245525E+00
          1   -1    0    0  501    0  0.00000000000E+00  0.00000000000E+00  0.15348007149E+03  0.15348007149E+03  0.00000000000E+00 0. -1.
         -1   -1    0    0    0  501 -0.00000000000E+00 -0.00000000000E+00 -0.26058280087E+03  0.26058280087E+03  0.00000000000E+00 0.  1.
         24    1    1    2    0    0 -0.86878674981E+02 -0.60570513563E+01 -0.22029259181E+03  0.25016121602E+03  0.80419002446E+02 0.  1.
        -24    1    1    2    0    0  0.86878674981E+02  0.60570513563E+01  0.11318986244E+03  0.16390165634E+03  0.80419002446E+02 0. -1.
<mgrwt>
<rscale>  0 0.11854032E+03</rscale>
<asrwt>0</asrwt>
<pdfrwt beam="1">  1        1 0.23612319E-01 0.11854032E+03</pdfrwt>
<pdfrwt beam="2">  1       -1 0.40089661E-01 0.11854032E+03</pdfrwt>
<totfact> 0.12425610E+03</totfact>
</mgrwt>
</event>
<event>
 4    1  0.6602701E-002  0.1043571E+03  0.7546771E-02  0.1271391E+00
         -2   -1    0    0    0  501 -0.00000000000E+00  0.00000000000E+00  0.34812599880E+02  0.34812599880E+02  0.00000000000E+00 0.  1.
          2   -1    0    0  501    0  0.00000000000E+00 -0.00000000000E+00 -0.41092042761E+03  0.41092042761E+03  0.00000000000E+00 0. -1.
         24    1    1    2    0    0 -0.37015437171E+02  0.55254388241E+02 -0.29694203842E+03  0.31474589774E+03  0.80419002446E+02 0. -1.
        -24    1    1    2    0    0  0.37015437171E+02 -0.55254388241E+02 -0.79165789315E+02  0.13098712975E+03  0.80419002446E+02 0.  1.
<mgrwt>
<rscale>  0 0.10435711E+03</rscale>
<asrwt>0</asrwt>
<pdfrwt beam="1">  1        2 0.63218524E-01 0.10435711E+03</pdfrwt>
<pdfrwt beam="2">  1       -2 0.53557849E-02 0.10435711E+03</pdfrwt>
<totfact> 0.12639488E+04</totfact>
</mgrwt>
</event>
<event>
 4    1  0.6602701E-002  0.8117435E+02  0.7546771E-02  0.1325751E+00
         -2   -1    0    0    0  501 -0.00000000000E+00  0.00000000000E+00  0.38735324317E+01  0.38735324317E+01  0.00000000000E+00 0.  1.
          2   -1    0    0  501    0  0.00000000000E+00 -0.00000000000E+00 -0.28501828038E+04  0.28501828038E+04  0.00000000000E+00 0. -1.
         24    1    1    2    0    0  0.97953164204E+01 -0.51098138350E+01 -0.23292448562E+04  0.23306588927E+04  0.80419002446E+02 0. -1.
        -24    1    1    2    0    0 -0.97953164204E+01  0.51098138350E+01 -0.51706441521E+03  0.52339744349E+03  0.80419002446E+02 0.  1.
<mgrwt>
<rscale>  0 0.81174346E+02</rscale>
<asrwt>0</asrwt>
<pdfrwt beam="1">  1        2 0.43848942E+00 0.81174346E+02</pdfrwt>
<pdfrwt beam="2">  1       -2 0.59592839E-03 0.81174346E+02</pdfrwt>
<totfact> 0.11272521E+04</totfact>
</mgrwt>
</event>
<event>
 4    1  0.6602701E-002  0.1216955E+03  0.7546771E-02  0.1240326E+00
          2   -1    0    0  501    0  0.00000000000E+00  0.00000000000E+00  0.19162532913E+04  0.19162532913E+04  0.00000000000E+00 0. -1.
         -2   -1    0    0    0  501 -0.00000000000E+00 -0.00000000000E+00 -0.77667706348E+01  0.77667706348E+01  0.00000000000E+00 0.  1.
         24    1    1    2    0    0 -0.71905600857E+02 -0.56321980853E+02  0.10217571936E+04  0.10289788917E+04  0.80419002446E+02 0. -1.
        -24    1    1    2    0    0  0.71905600857E+02  0.56321980853E+02  0.88672932711E+03  0.89504117026E+03  0.80419002446E+02 0.  1.
<mgrwt>
<rscale>  0 0.12169551E+03</rscale>
<asrwt>0</asrwt>
<pdfrwt beam="1">  1        2 0.29480782E+00 0.12169551E+03</pdfrwt>
<pdfrwt beam="2">  1       -2 0.11948893E-02 0.12169551E+03</pdfrwt>
<totfact> 0.13157780E+04</totfact>
</mgrwt>
</event>
<event>
 4    1  0.6602701E-002  0.9305722E+02  0.7546771E-02  0.1295613E+00
          1   -1    0    0  501    0  0.00000000000E+00  0.00000000000E+00  0.21717981759E+04  0.21717981759E+04  0.00000000000E+00 0. -1.
         -1   -1    0    0    0  501 -0.00000000000E+00 -0.00000000000E+00 -0.43093654621E+01  0.43093654621E+01  0.00000000000E+00 0.  1.
         24    1    1    2    0    0 -0.41534475111E+01 -0.46638809105E+02  0.78630055760E+03  0.79178798455E+03  0.80419002446E+02 0. -1.
        -24    1    1    2    0    0  0.41534475111E+01  0.46638809105E+02  0.13811882528E+04  0.13843195568E+04  0.80419002446E+02 0.  1.
<mgrwt>
<rscale>  0 0.93057217E+02</rscale>
<asrwt>0</asrwt>
<pdfrwt beam="1">  1        1 0.33412192E+00 0.93057217E+02</pdfrwt>
<pdfrwt beam="2">  1       -1 0.66298104E-03 0.93057217E+02</pdfrwt>
<totfact> 0.85887798E+03</totfact>
</mgrwt>
</event>
<event>
 4    1  0.6602701E-002  0.1038137E+03  0.7546771E-02  0.1272475E+00
         -2   -1    0    0    0  501 -0.00000000000E+00  0.00000000000E+00  0.94495826337E+01  0.94495826337E+01  0.00000000000E+00 0.  1.
          2   -1    0    0  501    0  0.00000000000E+00 -0.00000000000E+00 -0.29095827635E+04  0.29095827635E+04  0.00000000000E+00 0. -1.
         24    1    1    2    0    0  0.50604538188E+02 -0.41824099722E+02 -0.25881316496E+04  0.25902128728E+04  0.80419002446E+02 0. -1.
        -24    1    1    2    0    0 -0.50604538188E+02  0.41824099722E+02 -0.31200153129E+03  0.32881947340E+03  0.80419002446E+02 0.  1.
<mgrwt>
<rscale>  0 0.10381373E+03</rscale>
<asrwt>0</asrwt>
<pdfrwt beam="1">  1        2 0.44762841E+00 0.10381373E+03</pdfrwt>
<pdfrwt beam="2">  1       -2 0.14537810E-02 0.10381373E+03</pdfrwt>
<totfact> 0.29639696E+03</totfact>
</mgrwt>
</event>
<event>
 4    1  0.6602701E-002  0.8421819E+02  0.7546771E-02  0.1317490E+00
         -1   -1    0    0    0  501 -0.00000000000E+00  0.00000000000E+00  0.11499693666E+02  0.11499693666E+02  0.00000000000E+00 0.  1.
          1   -1    0    0  501    0  0.00000000000E+00 -0.00000000000E+00 -0.10353588848E+04  0.10353588848E+04  0.00000000000E+00 0. -1.
         24    1    1    2    0    0 -0.52352649041E+00  0.25004270966E+02 -0.17911319776E+03  0.19792483728E+03  0.80419002446E+02 0.  1.
        -24    1    1    2    0    0  0.52352649041E+00 -0.25004270966E+02 -0.84474599338E+03  0.84893374119E+03  0.80419002446E+02 0. -1.
<mgrwt>
<rscale>  0 0.84218190E+02</rscale>
<asrwt>0</asrwt>
<pdfrwt beam="1">  1        1 0.15928591E+00 0.84218190E+02</pdfrwt>
<pdfrwt beam="2">  1       -1 0.17691844E-02 0.84218190E+02</pdfrwt>
<totfact> 0.11506969E+04</totfact>
</mgrwt>
</event>
<event>
 4    1  0.6602701E-002  0.8726624E+02  0.7546771E-02  0.1309610E+00
          1   -1    0    0  501    0  0.00000000000E+00  0.00000000000E+00  0.36446315992E+03  0.36446315992E+03  0.00000000000E+00 0. -1.
         -1   -1    0    0    0  501 -0.00000000000E+00 -0.00000000000E+00 -0.26798127124E+02  0.26798127124E+02  0.00000000000E+00 0.  1.
         24    1    1    2    0    0  0.64127789462E+01 -0.33272461163E+02  0.77013650647E+02  0.11638942712E+03  0.80419002446E+02 0.  1.
        -24    1    1    2    0    0 -0.64127789462E+01  0.33272461163E+02  0.26065138215E+03  0.27487185992E+03  0.80419002446E+02 0. -1.
<mgrwt>
<rscale>  0 0.87266238E+02</rscale>
<asrwt>0</asrwt>
<pdfrwt beam="1">  1        1 0.56071252E-01 0.87266238E+02</pdfrwt>
<pdfrwt beam="2">  1       -1 0.41227891E-02 0.87266238E+02</pdfrwt>
<totfact> 0.14521448E+04</totfact>
</mgrwt>
</event>
<event>
 4    1  0.6602701E-002  0.9745996E+02  0.7546771E-02  0.1285730E+00
          1   -1    0    0  501    0  0.00000000000E+00  0.00000000000E+00  0.94118186610E+02  0.94118186610E+02  0.00000000000E+00 0. -1.
         -1   -1    0    0    0  501 -0.00000000000E+00 -0.00000000000E+00 -0.40979521673E+03  0.40979521673E+03  0.00000000000E+00 0.  1.
         24    1    1    2    0    0 -0.47583297099E+02  0.27695816118E+02 -0.37658129519E+03  0.38898832404E+03  0.80419002446E+02 0.  1.
        -24    1    1    2    0    0  0.47583297099E+02 -0.27695816118E+02  0.60904265077E+02  0.11492507930E+03  0.80419002446E+02 0. -1.
<mgrwt>
<rscale>  0 0.97459963E+02</rscale>
<asrwt>0</asrwt>
<pdfrwt beam="1">  1        1 0.14479721E-01 0.97459963E+02</pdfrwt>
<pdfrwt beam="2">  1       -1 0.63045416E-01 0.97459963E+02</pdfrwt>
<totfact> 0.10079384E+03</totfact>
</mgrwt>
</event>
<event>
 4    1  0.6602701E-002  0.8957989E+02  0.7546771E-02  0.1303872E+00
          1   -1    0    0  501    0  0.00000000000E+00  0.00000000000E+00  0.48038325315E+03  0.48038325315E+03  0.00000000000E+00 0. -1.
         -1   -1    0    0    0  501 -0.00000000000E+00 -0.00000000000E+00 -0.24572676386E+02  0.24572676386E+02  0.00000000000E+00 0.  1.
         24    1    1    2    0    0 -0.25942341340E+02  0.29737794522E+02  0.85037422305E+02  0.12351486001E+03  0.80419002446E+02 0.  1.
        -24    1    1    2    0    0  0.25942341340E+02 -0.29737794522E+02  0.37077315446E+03  0.38144106952E+03  0.80419002446E+02 0. -1.
<mgrwt>
<rscale>  0 0.89579894E+02</rscale>
<asrwt>0</asrwt>
<pdfrwt beam="1">  1        1 0.73905109E-01 0.89579894E+02</pdfrwt>
<pdfrwt beam="2">  1       -1 0.37804121E-02 0.89579894E+02</pdfrwt>
<totfact> 0.11690576E+04</totfact>
</mgrwt>
</event>
<event>
 4    1  0.6602701E-002  0.9260370E+02  0.7546771E-02  0.1296666E+00
         -1   -1    0    0    0  501 -0.00000000000E+00  0.00000000000E+00  0.88879214654E+01  0.88879214654E+01  0.00000000000E+00 0.  1.
          1   -1    0    0  501    0  0.00000000000E+00 -0.00000000000E+00 -0.11381593453E+04  0.11381593453E+04  0.00000000000E+00 0. -1.
         24    1    1    2    0    0 -0.43625516018E+02  0.14319355190E+02 -0.34083059723E+03  0.35318683659E+03  0.80419002446E+02 0. -1.
        -24    1    1    2    0    0  0.43625516018E+02 -0.14319355190E+02 -0.78844082665E+03  0.79386043022E+03  0.80419002446E+02 0.  0.
<mgrwt>
<rscale>  0 0.92603702E+02</rscale>
<asrwt>0</asrwt>
<pdfrwt beam="1">  1        1 0.17510156E+00 0.92603702E+02</pdfrwt>
<pdfrwt beam="2">  1       -1 0.13673716E-02 0.92603702E+02</pdfrwt>
<totfact> 0.14166741E+04</totfact>
</mgrwt>
</event>
<event>
 4    1  0.6602701E-002  0.8637936E+02  0.7546771E-02  0.1311864E+00
          1   -1    0    0  501    0  0.00000000000E+00  0.00000000000E+00  0.34297715210E+04  0.34297715210E+04  0.00000000000E+00 0. -1.
         -1   -1    0    0    0  501 -0.00000000000E+00 -0.00000000000E+00 -0.22627725867E+01  0.22627725867E+01  0.00000000000E+00 0.  1.
         24    1    1    2    0    0  0.30248621612E+02 -0.88993577542E+01  0.13767046344E+04  0.13794118471E+04  0.80419002446E+02 0.  1.
        -24    1    1    2    0    0 -0.30248621612E+02  0.88993577542E+01  0.20508041141E+04  0.20526224465E+04  0.80419002446E+02 0. -1.
<mgrwt>
<rscale>  0 0.86379359E+02</rscale>
<asrwt>0</asrwt>
<pdfrwt beam="1">  1        1 0.52765300E+00 0.86379359E+02</pdfrwt>
<pdfrwt beam="2">  1       -1 0.34812161E-03 0.86379359E+02</pdfrwt>
<totfact> 0.30508658E+03</totfact>
</mgrwt>
</event>
<event>
 4    1  0.6602701E-002  0.8276667E+02  0.7546771E-02  0.1321378E+00
         -4   -1    0    0    0  501 -0.00000000000E+00  0.00000000000E+00  0.35625994188E+03  0.35625994188E+03  0.00000000000E+00 0.  1.
          4   -1    0    0  501    0  0.00000000000E+00 -0.00000000000E+00 -0.24857386930E+02  0.24857386930E+02  0.00000000000E+00 0. -1.
         24    1    1    2    0    0  0.11789768515E+02  0.15623907237E+02  0.75020603226E+02  0.11170681260E+03  0.80419002446E+02 0. -1.
        -24    1    1    2    0    0 -0.11789768515E+02 -0.15623907237E+02  0.25638195172E+03  0.26941051621E+03  0.80419002446E+02 0.  1.
<mgrwt>
<rscale>  0 0.82766666E+02</rscale>
<asrwt>0</asrwt>
<pdfrwt beam="1">  1        4 0.38242136E-02 0.82766666E+02</pdfrwt>
<pdfrwt beam="2">  1       -4 0.54809218E-01 0.82766666E+02</pdfrwt>
<totfact> 0.17173894E+03</totfact>
</mgrwt>
</event>
<event>
 4    1  0.6602701E-002  0.8155076E+02  0.7546771E-02  0.1324707E+00
          1   -1    0    0  501    0  0.00000000000E+00  0.00000000000E+00  0.21728199649E+03  0.21728199649E+03  0.00000000000E+00 0. -1.
         -1   -1    0    0    0  501 -0.00000000000E+00 -0.00000000000E+00 -0.35102517482E+02  0.35102517482E+02  0.00000000000E+00 0.  1.
         24    1    1    2    0    0  0.42148782337E+01  0.12866442769E+02  0.45933871495E+02  0.93597259858E+02  0.80419002446E+02 0.  0.
        -24    1    1    2    0    0 -0.42148782337E+01 -0.12866442769E+02  0.13624560751E+03  0.15878725411E+03  0.80419002446E+02 0.  0.
<mgrwt>
<rscale>  0 0.81550760E+02</rscale>
<asrwt>0</asrwt>
<pdfrwt beam="1">  1        1 0.33427999E-01 0.81550760E+02</pdfrwt>
<pdfrwt beam="2">  1       -1 0.54003874E-02 0.81550760E+02</pdfrwt>
<totfact> 0.18283426E+04</totfact>
</mgrwt>
</event>
<event>
 4    1  0.6602701E-002  0.9559744E+02  0.7546771E-02  0.1289836E+00
          2   -1    0    0  501    0  0.00000000000E+00  0.00000000000E+00  0.81972070508E+03  0.81972070508E+03  0.00000000000E+00 0. -1.
         -2   -1    0    0    0  501 -0.00000000000E+00 -0.00000000000E+00 -0.11927816620E+02  0.11927816620E+02  0.00000000000E+00 0.  1.
         24    1    1    2    0    0  0.48588801264E+02  0.17628886246E+02  0.29762531590E+03  0.31260149369E+03  0.80419002446E+02 0.  0.
        -24    1    1    2    0    0 -0.48588801264E+02 -0.17628886246E+02  0.51016757257E+03  0.51904702801E+03  0.80419002446E+02 0.  0.
<mgrwt>
<rscale>  0 0.95597424E+02</rscale>
<asrwt>0</asrwt>
<pdfrwt beam="1">  1        2 0.12611083E+00 0.95597436E+02</pdfrwt>
<pdfrwt beam="2">  1       -2 0.18350493E-02 0.95597436E+02</pdfrwt>
<totfact> 0.27577039E+04</totfact>
</mgrwt>
</event>
<event>
 4    1  0.6602701E-002  0.8764672E+02  0.7546771E-02  0.1308653E+00
         -1   -1    0    0    0  501 -0.00000000000E+00  0.00000000000E+00  0.52217151090E+01  0.52217151090E+01  0.00000000000E+00 0.  1.
          1   -1    0    0  501    0  0.00000000000E+00 -0.00000000000E+00 -0.21866785848E+04  0.21866785848E+04  0.00000000000E+00 0. -1.
         24    1    1    2    0    0  0.32691206639E+02  0.12083711700E+02 -0.46381062636E+03  0.47201932604E+03  0.80419002446E+02 0.  0.
        -24    1    1    2    0    0 -0.32691206639E+02 -0.12083711700E+02 -0.17176462433E+04  0.17198809739E+04  0.80419002446E+02 0.  0.
<mgrwt>
<rscale>  0 0.87646717E+02</rscale>
<asrwt>0</asrwt>
<pdfrwt beam="1">  1        1 0.33641234E+00 0.87646717E+02</pdfrwt>
<pdfrwt beam="2">  1       -1 0.80334018E-03 0.87646717E+02</pdfrwt>
<totfact> 0.64027939E+03</totfact>
</mgrwt>
</event>
<event>
 4    1  0.6602701E-002  0.9653824E+02  0.7546771E-02  0.1287749E+00
         -1   -1    0    0    0  501 -0.00000000000E+00  0.00000000000E+00  0.31072427579E+02  0.31072427579E+02  0.00000000000E+00 0.  1.
          1   -1    0    0  501    0  0.00000000000E+00 -0.00000000000E+00 -0.32449419719E+03  0.32449419719E+03  0.00000000000E+00 0. -1.
         24    1    1    2    0    0  0.42835741409E+02 -0.31898440767E+02 -0.19562314767E+03  0.21814683845E+03  0.80419002446E+02 0. -1.
        -24    1    1    2    0    0 -0.42835741409E+02  0.31898440767E+02 -0.97798621941E+02  0.13741978632E+03  0.80419002446E+02 0.  1.
<mgrwt>
<rscale>  0 0.96538228E+02</rscale>
<asrwt>0</asrwt>
<pdfrwt beam="1">  1        1 0.49922183E-01 0.96538241E+02</pdfrwt>
<pdfrwt beam="2">  1       -1 0.47803736E-02 0.96538241E+02</pdfrwt>
<totfact> 0.13630276E+04</totfact>
</mgrwt>
</event>
<event>
 4    1  0.6602701E-002  0.9889197E+02  0.7546771E-02  0.1282643E+00
          3   -1    0    0  501    0  0.00000000000E+00  0.00000000000E+00  0.20036630632E+03  0.20036630632E+03  0.00000000000E+00 0. -1.
         -3   -1    0    0    0  501 -0.00000000000E+00 -0.00000000000E+00 -0.66719915597E+02  0.66719915597E+02  0.00000000000E+00 0.  1.
         24    1    1    2    0    0  0.12547448067E+02 -0.56169094696E+02 -0.23688412913E+01  0.98920336713E+02  0.80419002446E+02 0.  1.
        -24    1    1    2    0    0 -0.12547448067E+02  0.56169094696E+02  0.13601523201E+03  0.16816588520E+03  0.80419002446E+02 0. -1.
<mgrwt>
<rscale>  0 0.98891969E+02</rscale>
<asrwt>0</asrwt>
<pdfrwt beam="1">  1        3 0.30825585E-01 0.98891969E+02</pdfrwt>
<pdfrwt beam="2">  1       -3 0.10264602E-01 0.98891969E+02</pdfrwt>
<totfact> 0.15639335E+03</totfact>
</mgrwt>
</event>
<event>
 4    1  0.6602701E-002  0.9182059E+02  0.7546771E-02  0.1298502E+00
         -2   -1    0    0    0  501 -0.00000000000E+00  0.00000000000E+00  0.63724274037E+02  0.63724274037E+02  0.00000000000E+00 0.  1.
          2   -1    0    0  501    0  0.00000000000E+00 -0.00000000000E+00 -0.13330546133E+03  0.13330546133E+03  0.00000000000E+00 0. -1.
         24    1    1    2    0    0 -0.70414667683E+01 -0.43751828630E+02 -0.43326386954E+02  0.10152928899E+03  0.80419002446E+02 0.  1.
        -24    1    1    2    0    0  0.70414667683E+01  0.43751828630E+02 -0.26254800341E+02  0.95500446376E+02  0.80419002446E+02 0. -1.
<mgrwt>
<rscale>  0 0.91820590E+02</rscale>
<asrwt>0</asrwt>
<pdfrwt beam="1">  1        2 0.20508532E-01 0.91820590E+02</pdfrwt>
<pdfrwt beam="2">  1       -2 0.98037345E-02 0.91820590E+02</pdfrwt>
<totfact> 0.16544207E+04</totfact>
</mgrwt>
</event>
<event>
 4    1  0.6602701E-002  0.8717106E+02  0.7546771E-02  0.1309851E+00
         -1   -1    0    0    0  501 -0.00000000000E+00  0.00000000000E+00  0.13336066672E+04  0.13336066672E+04  0.00000000000E+00 0.  1.
          1   -1    0    0  501    0  0.00000000000E+00 -0.00000000000E+00 -0.33501338768E+02  0.33501338768E+02  0.00000000000E+00 0. -1.
         24    1    1    2    0    0 -0.73246635251E+01  0.32831793697E+02  0.12727697706E+04  0.12757514186E+04  0.80419002446E+02 0.  1.
        -24    1    1    2    0    0  0.73246635251E+01 -0.32831793697E+02  0.27335557907E+02  0.91356587357E+02  0.80419002446E+02 0. -1.
<mgrwt>
<rscale>  0 0.87171058E+02</rscale>
<asrwt>0</asrwt>
<pdfrwt beam="1">  1        1 0.51540531E-02 0.87171058E+02</pdfrwt>
<pdfrwt beam="2">  1       -1 0.20517022E+00 0.87171058E+02</pdfrwt>
<totfact> 0.24784426E+02</totfact>
</mgrwt>
</event>
<event>
 4    1  0.6602701E-002  0.9387271E+02  0.7546771E-02  0.1293735E+00
         -2   -1    0    0    0  501 -0.00000000000E+00  0.00000000000E+00  0.27386777450E+02  0.27386777450E+02  0.00000000000E+00 0.  1.
          2   -1    0    0  501    0  0.00000000000E+00 -0.00000000000E+00 -0.48479573378E+03  0.48479573378E+03  0.00000000000E+00 0. -1.
         24    1    1    2    0    0  0.28561565116E+02 -0.39103799442E+02 -0.37721290123E+03  0.38871796838E+03  0.80419002446E+02 0. -1.
        -24    1    1    2    0    0 -0.28561565116E+02  0.39103799442E+02 -0.80196055093E+02  0.12346454284E+03  0.80419002446E+02 0.  1.
<mgrwt>
<rscale>  0 0.93872712E+02</rscale>
<asrwt>0</asrwt>
<pdfrwt beam="1">  1        2 0.74583960E-01 0.93872712E+02</pdfrwt>
<pdfrwt beam="2">  1       -2 0.42133503E-02 0.93872712E+02</pdfrwt>
<totfact> 0.14989744E+04</totfact>
</mgrwt>
</event>
<event>
 4    1  0.6602701E-002  0.1117509E+03  0.7546771E-02  0.1257361E+00
          2   -1    0    0  501    0  0.00000000000E+00  0.00000000000E+00  0.96473262339E+03  0.96473262339E+03  0.00000000000E+00 0. -1.
         -2   -1    0    0    0  501 -0.00000000000E+00 -0.00000000000E+00 -0.20497727226E+02  0.20497727226E+02  0.00000000000E+00 0.  1.
         24    1    1    2    0    0  0.54862770848E+02 -0.54873683136E+02  0.77114615667E+03  0.77920129339E+03  0.80419002446E+02 0. -1.
        -24    1    1    2    0    0 -0.54862770848E+02  0.54873683136E+02  0.17308873950E+03  0.20602905723E+03  0.80419002446E+02 0.  1.
<mgrwt>
<rscale>  0 0.11175089E+03</rscale>
<asrwt>0</asrwt>
<pdfrwt beam="1">  1        2 0.14842037E+00 0.11175089E+03</pdfrwt>
<pdfrwt beam="2">  1       -2 0.31534972E-02 0.11175089E+03</pdfrwt>
<totfact> 0.10333819E+04</totfact>
</mgrwt>
</event>
<event>
 4    1  0.6602701E-002  0.1612928E+03  0.7546771E-02  0.1187245E+00
         -1   -1    0    0    0  501 -0.00000000000E+00  0.00000000000E+00  0.56203168619E+02  0.56203168619E+02  0.00000000000E+00 0.  1.
          1   -1    0    0  501    0  0.00000000000E+00 -0.00000000000E+00 -0.12063360157E+04  0.12063360157E+04  0.00000000000E+00 0. -1.
         24    1    1    2    0    0  0.13827104593E+03 -0.20718905742E+02 -0.79492882337E+02  0.17981793429E+03  0.80419002446E+02 0.  1.
        -24    1    1    2    0    0 -0.13827104593E+03  0.20718905742E+02 -0.10706399648E+04  0.10827212500E+04  0.80419002446E+02 0. -1.
<mgrwt>
<rscale>  0 0.16129281E+03</rscale>
<asrwt>0</asrwt>
<pdfrwt beam="1">  1        1 0.18559015E+00 0.16129281E+03</pdfrwt>
<pdfrwt beam="2">  1       -1 0.86466418E-02 0.16129281E+03</pdfrwt>
<totfact> 0.87338058E+02</totfact>
</mgrwt>
</event>
<event>
 4    1  0.6602701E-002  0.8119396E+02  0.7546771E-02  0.1325697E+00
          1   -1    0    0  501    0  0.00000000000E+00  0.00000000000E+00  0.24061214748E+04  0.24061214748E+04  0.00000000000E+00 0. -1.
         -1   -1    0    0    0  501 -0.00000000000E+00 -0.00000000000E+00 -0.29231198198E+01  0.29231198198E+01  0.00000000000E+00 0.  1.
         24    1    1    2    0    0  0.40846560486E+01 -0.10419155624E+02  0.90001139611E+03  0.90366640543E+03  0.80419002446E+02 0.  0.
        -24    1    1    2    0    0 -0.40846560486E+01  0.10419155624E+02  0.15031869589E+04  0.15053781892E+04  0.80419002446E+02 0. -1.
<mgrwt>
<rscale>  0 0.81193960E+02</rscale>
<asrwt>0</asrwt>
<pdfrwt beam="1">  1        1 0.37017095E+00 0.81193960E+02</pdfrwt>
<pdfrwt beam="2">  1       -1 0.44971267E-03 0.81193960E+02</pdfrwt>
<totfact> 0.10435717E+04</totfact>
</mgrwt>
</event>
<event>
 4    1  0.6602701E-002  0.9243878E+02  0.7546771E-02  0.1297051E+00
          2   -1    0    0  501    0  0.00000000000E+00  0.00000000000E+00  0.99603145910E+03  0.99603145910E+03  0.00000000000E+00 0. -1.
         -2   -1    0    0    0  501 -0.00000000000E+00 -0.00000000000E+00 -0.97299552048E+01  0.97299552048E+01  0.00000000000E+00 0.  1.
         24    1    1    2    0    0  0.15416642096E+02 -0.42895685675E+02  0.66610990246E+03  0.67249336860E+03  0.80419002446E+02 0. -1.
        -24    1    1    2    0    0 -0.15416642096E+02  0.42895685675E+02  0.32019160143E+03  0.33326804570E+03  0.80419002446E+02 0.  1.
<mgrwt>
<rscale>  0 0.92438783E+02</rscale>
<asrwt>0</asrwt>
<pdfrwt beam="1">  1        2 0.15323553E+00 0.92438783E+02</pdfrwt>
<pdfrwt beam="2">  1       -2 0.14969170E-02 0.92438783E+02</pdfrwt>
<totfact> 0.28621343E+04</totfact>
</mgrwt>
</event>
<event>
 4    1  0.6602701E-002  0.1468053E+03  0.7546771E-02  0.1204454E+00
         -1   -1    0    0    0  501 -0.00000000000E+00  0.00000000000E+00  0.19273677920E+03  0.19273677920E+03  0.00000000000E+00 0.  1.
          1   -1    0    0  501    0  0.00000000000E+00 -0.00000000000E+00 -0.11644931447E+03  0.11644931447E+03  0.00000000000E+00 0. -1.
         24    1    1    2    0    0 -0.12123465163E+03  0.19665888753E+02  0.68967474955E+02  0.16219838622E+03  0.80419002446E+02 0.  1.
        -24    1    1    2    0    0  0.12123465163E+03 -0.19665888753E+02  0.73199897791E+01  0.14698770745E+03  0.80419002446E+02 0.  0.
<mgrwt>
<rscale>  0 0.14680533E+03</rscale>
<asrwt>0</asrwt>
<pdfrwt beam="1">  1        1 0.17915279E-01 0.14680533E+03</pdfrwt>
<pdfrwt beam="2">  1       -1 0.29651812E-01 0.14680533E+03</pdfrwt>
<totfact> 0.29796889E+03</totfact>
</mgrwt>
</event>
<event>
 4    1  0.6602701E-002  0.8178218E+02  0.7546771E-02  0.1324069E+00
         -1   -1    0    0    0  501 -0.00000000000E+00  0.00000000000E+00  0.19590913167E+03  0.19590913167E+03  0.00000000000E+00 0.  1.
          1   -1    0    0  501    0  0.00000000000E+00 -0.00000000000E+00 -0.45894924624E+02  0.45894924624E+02  0.00000000000E+00 0. -1.
         24    1    1    2    0    0 -0.13719649264E+02 -0.57337797717E+01  0.13819595834E+02  0.82941558882E+02  0.80419002446E+02 0.  0.
        -24    1    1    2    0    0  0.13719649264E+02  0.57337797717E+01  0.13619461121E+03  0.15886249741E+03  0.80419002446E+02 0.  1.
<mgrwt>
<rscale>  0 0.81782166E+02</rscale>
<asrwt>0</asrwt>
<pdfrwt beam="1">  1        1 0.70607578E-02 0.81782176E+02</pdfrwt>
<pdfrwt beam="2">  1       -1 0.30139866E-01 0.81782176E+02</pdfrwt>
<totfact> 0.93878448E+03</totfact>
</mgrwt>
</event>
<event>
 4    1  0.6602701E-002  0.1610284E+03  0.7546771E-02  0.1187541E+00
         -1   -1    0    0    0  501 -0.00000000000E+00  0.00000000000E+00  0.12822045220E+03  0.12822045220E+03  0.00000000000E+00 0.  1.
          1   -1    0    0  501    0  0.00000000000E+00 -0.00000000000E+00 -0.54093219961E+03  0.54093219961E+03  0.00000000000E+00 0. -1.
         24    1    1    2    0    0 -0.81524835040E+02 -0.11321055661E+03  0.58391819914E+02  0.17128849770E+03  0.80419002446E+02 0.  1.
        -24    1    1    2    0    0  0.81524835040E+02  0.11321055661E+03 -0.47110356732E+03  0.49786415411E+03  0.80419002446E+02 0. -1.
<mgrwt>
<rscale>  0 0.16102840E+03</rscale>
<asrwt>0</asrwt>
<pdfrwt beam="1">  1        1 0.83220338E-01 0.16102840E+03</pdfrwt>
<pdfrwt beam="2">  1       -1 0.19726223E-01 0.16102840E+03</pdfrwt>
<totfact> 0.83951988E+02</totfact>
</mgrwt>
</event>
<event>
 4    1  0.6602701E-002  0.8398391E+02  0.7546771E-02  0.1318111E+00
          2   -1    0    0  501    0  0.00000000000E+00  0.00000000000E+00  0.25725162565E+04  0.25725162565E+04  0.00000000000E+00 0. -1.
         -2   -1    0    0    0  501 -0.00000000000E+00 -0.00000000000E+00 -0.45645389183E+01  0.45645389183E+01  0.00000000000E+00 0.  1.
         24    1    1    2    0    0  0.19284896929E+02  0.14634668540E+02  0.20982359090E+04  0.20999160046E+04  0.80419002446E+02 0. -1.
        -24    1    1    2    0    0 -0.19284896929E+02 -0.14634668540E+02  0.46971580862E+03  0.47716479082E+03  0.80419002446E+02 0.  1.
<mgrwt>
<rscale>  0 0.83983908E+02</rscale>
<asrwt>0</asrwt>
<pdfrwt beam="1">  1        2 0.39577057E+00 0.83983908E+02</pdfrwt>
<pdfrwt beam="2">  1       -2 0.70223881E-03 0.83983908E+02</pdfrwt>
<totfact> 0.12654262E+04</totfact>
</mgrwt>
</event>
<event>
 4    1  0.6602701E-002  0.8372116E+02  0.7546771E-02  0.1318811E+00
         -2   -1    0    0    0  501 -0.00000000000E+00  0.00000000000E+00  0.15200054869E+02  0.15200054869E+02  0.00000000000E+00 0.  1.
          2   -1    0    0  501    0  0.00000000000E+00 -0.00000000000E+00 -0.56568873021E+03  0.56568873021E+03  0.00000000000E+00 0. -1.
         24    1    1    2    0    0 -0.23136940148E+02  0.25883207071E+01 -0.40011200628E+03  0.40877726322E+03  0.80419002446E+02 0.  0.
        -24    1    1    2    0    0  0.23136940148E+02 -0.25883207071E+01 -0.15037666905E+03  0.17211152185E+03  0.80419002446E+02 0.  1.
<mgrwt>
<rscale>  0 0.83721164E+02</rscale>
<asrwt>0</asrwt>
<pdfrwt beam="1">  1        2 0.87029049E-01 0.83721164E+02</pdfrwt>
<pdfrwt beam="2">  1       -2 0.23384696E-02 0.83721164E+02</pdfrwt>
<totfact> 0.29519448E+04</totfact>
</mgrwt>
</event>
<event>
 4    1  0.6602701E-002  0.9348113E+02  0.7546771E-02  0.1294634E+00
         -4   -1    0    0    0  501 -0.00000000000E+00  0.00000000000E+00  0.78410297834E+03  0.78410297834E+03  0.00000000000E+00 0.  1.
          4   -1    0    0  501    0  0.00000000000E+00 -0.00000000000E+00 -0.11242040376E+02  0.11242040376E+02  0.00000000000E+00 0. -1.
         24    1    1    2    0    0  0.51580677046E+01 -0.47380382039E+02  0.34945786557E+03  0.36174510643E+03  0.80419002446E+02 0.  0.
        -24    1    1    2    0    0 -0.51580677046E+01  0.47380382039E+02  0.42340307240E+03  0.43359991228E+03  0.80419002446E+02 0. -1.
<mgrwt>
<rscale>  0 0.93481133E+02</rscale>
<asrwt>0</asrwt>
<pdfrwt beam="1">  1        4 0.17295453E-02 0.93481133E+02</pdfrwt>
<pdfrwt beam="2">  1       -4 0.12063118E+00 0.93481133E+02</pdfrwt>
<totfact> 0.10615952E+03</totfact>
</mgrwt>
</event>
<event>
 4    1  0.6602701E-002  0.8831325E+02  0.7546771E-02  0.1306989E+00
         -2   -1    0    0    0  501 -0.00000000000E+00  0.00000000000E+00  0.12778198266E+02  0.12778198266E+02  0.00000000000E+00 0.  1.
          2   -1    0    0  501    0  0.00000000000E+00 -0.00000000000E+00 -0.69139830394E+03  0.69139830394E+03  0.00000000000E+00 0. -1.
         24    1    1    2    0    0  0.20208147212E+02 -0.30391532812E+02 -0.45985454351E+03  0.46825786872E+03  0.80419002446E+02 0. -1.
        -24    1    1    2    0    0 -0.20208147212E+02  0.30391532812E+02 -0.21876556216E+03  0.23591863348E+03  0.80419002446E+02 0.  1.
<mgrwt>
<rscale>  0 0.88313252E+02</rscale>
<asrwt>0</asrwt>
<pdfrwt beam="1">  1        2 0.10636899E+00 0.88313252E+02</pdfrwt>
<pdfrwt beam="2">  1       -2 0.19658763E-02 0.88313252E+02</pdfrwt>
<totfact> 0.30380356E+04</totfact>
</mgrwt>
</event>
<event>
 4    1  0.6602701E-002  0.8606086E+02  0.7546771E-02  0.1312681E+00
         -2   -1    0    0    0  501 -0.00000000000E+00  0.00000000000E+00  0.35118623423E+02  0.35118623423E+02  0.00000000000E+00 0.  1.
          2   -1    0    0  501    0  0.00000000000E+00 -0.00000000000E+00 -0.25820259657E+03  0.25820259657E+03  0.00000000000E+00 0. -1.
         24    1    1    2    0    0 -0.30461492685E+02 -0.33695132001E+01 -0.17431625086E+03  0.19440325981E+03  0.80419002446E+02 0. -1.
        -24    1    1    2    0    0  0.30461492685E+02  0.33695132001E+01 -0.48767722288E+02  0.98917960186E+02  0.80419002446E+02 0.  1.
<mgrwt>
<rscale>  0 0.86060863E+02</rscale>
<asrwt>0</asrwt>
<pdfrwt beam="1">  1        2 0.39723476E-01 0.86060863E+02</pdfrwt>
<pdfrwt beam="2">  1       -2 0.54028652E-02 0.86060863E+02</pdfrwt>
<totfact> 0.19936091E+04</totfact>
</mgrwt>
</event>
<event>
 4    1  0.6602701E-002  0.9208930E+02  0.7546771E-02  0.1297870E+00
          1   -1    0    0  501    0  0.00000000000E+00  0.00000000000E+00  0.78639661395E+03  0.78639661395E+03  0.00000000000E+00 0. -1.
         -1   -1    0    0    0  501 -0.00000000000E+00 -0.00000000000E+00 -0.12716475198E+02  0.12716475198E+02  0.00000000000E+00 0.  1.
         24    1    1    2    0    0  0.37319394378E+02 -0.24909547392E+02  0.23107834290E+03  0.24875216433E+03  0.80419002446E+02 0.  1.
        -24    1    1    2    0    0 -0.37319394378E+02  0.24909547392E+02  0.54260179585E+03  0.55036092481E+03  0.80419002446E+02 0. -1.
<mgrwt>
<rscale>  0 0.92089297E+02</rscale>
<asrwt>0</asrwt>
<pdfrwt beam="1">  1        1 0.12098406E+00 0.92089297E+02</pdfrwt>
<pdfrwt beam="2">  1       -1 0.19563814E-02 0.92089297E+02</pdfrwt>
<totfact> 0.15471125E+04</totfact>
</mgrwt>
</event>
<event>
 4    1  0.6602701E-002  0.9898801E+02  0.7546771E-02  0.1282439E+00
          2   -1    0    0  501    0  0.00000000000E+00  0.00000000000E+00  0.54030613800E+03  0.54030613800E+03  0.00000000000E+00 0. -1.
         -2   -1    0    0    0  501 -0.00000000000E+00 -0.00000000000E+00 -0.18534755704E+02  0.18534755704E+02  0.00000000000E+00 0.  1.
         24    1    1    2    0    0 -0.16973358074E+01 -0.57693406510E+02  0.30190485803E+03  0.31771869533E+03  0.80419002446E+02 0. -1.
        -24    1    1    2    0    0  0.16973358074E+01  0.57693406510E+02  0.21986652427E+03  0.24112219838E+03  0.80419002446E+02 0.  1.
<mgrwt>
<rscale>  0 0.98988010E+02</rscale>
<asrwt>0</asrwt>
<pdfrwt beam="1">  1        2 0.83124009E-01 0.98988010E+02</pdfrwt>
<pdfrwt beam="2">  1       -2 0.28515013E-02 0.98988010E+02</pdfrwt>
<totfact> 0.23716809E+04</totfact>
</mgrwt>
</event>
<event>
 4    1  0.6602701E-002  0.8651930E+02  0.7546771E-02  0.1311507E+00
         -2   -1    0    0    0  501 -0.00000000000E+00  0.00000000000E+00  0.73837160493E+01  0.73837160493E+01  0.00000000000E+00 0.  1.
          2   -1    0    0  501    0  0.00000000000E+00 -0.00000000000E+00 -0.21521659497E+04  0.21521659497E+04  0.00000000000E+00 0. -1.
         24    1    1    2    0    0 -0.31853919751E+02 -0.19239224862E+01 -0.18576933487E+04  0.18597070112E+04  0.80419002446E+02 0. -1.
        -24    1    1    2    0    0  0.31853919751E+02  0.19239224862E+01 -0.28708888495E+03  0.29984265456E+03  0.80419002446E+02 0.  1.
<mgrwt>
<rscale>  0 0.86519302E+02</rscale>
<asrwt>0</asrwt>
<pdfrwt beam="1">  1        2 0.33110252E+00 0.86519302E+02</pdfrwt>
<pdfrwt beam="2">  1       -2 0.11359561E-02 0.86519302E+02</pdfrwt>
<totfact> 0.10589285E+04</totfact>
</mgrwt>
</event>
<event>
 4    1  0.6602701E-002  0.9442365E+02  0.7546771E-02  0.1292479E+00
         -1   -1    0    0    0  501 -0.00000000000E+00  0.00000000000E+00  0.13041923175E+03  0.13041923175E+03  0.00000000000E+00 0.  1.
          1   -1    0    0  501    0  0.00000000000E+00 -0.00000000000E+00 -0.15548300535E+03  0.15548300535E+03  0.00000000000E+00 0. -1.
         24    1    1    2    0    0  0.40513953771E+02  0.28411778216E+02  0.94473467073E+02  0.13357043657E+03  0.80419002446E+02 0.  1.
        -24    1    1    2    0    0 -0.40513953771E+02 -0.28411778216E+02 -0.11953724067E+03  0.15233180053E+03  0.80419002446E+02 0. -1.
<mgrwt>
<rscale>  0 0.94423649E+02</rscale>
<asrwt>0</asrwt>
<pdfrwt beam="1">  1        1 0.23920462E-01 0.94423649E+02</pdfrwt>
<pdfrwt beam="2">  1       -1 0.20064497E-01 0.94423649E+02</pdfrwt>
<totfact> 0.38191865E+03</totfact>
</mgrwt>
</event>
<event>
 4    1  0.6602701E-002  0.8123802E+02  0.7546771E-02  0.1325574E+00
         -1   -1    0    0    0  501 -0.00000000000E+00  0.00000000000E+00  0.21722216780E+02  0.21722216780E+02  0.00000000000E+00 0.  1.
          1   -1    0    0  501    0  0.00000000000E+00 -0.00000000000E+00 -0.36146335848E+03  0.36146335848E+03  0.00000000000E+00 0. -1.
         24    1    1    2    0    0  0.10564513232E+02  0.45597254104E+01 -0.93359109813E+02  0.12375596703E+03  0.80419002446E+02 0.  1.
        -24    1    1    2    0    0 -0.10564513232E+02 -0.45597254104E+01 -0.24638203189E+03  0.25942960823E+03  0.80419002446E+02 0. -1.
<mgrwt>
<rscale>  0 0.81238021E+02</rscale>
<asrwt>0</asrwt>
<pdfrwt beam="1">  1        1 0.55609746E-01 0.81238021E+02</pdfrwt>
<pdfrwt beam="2">  1       -1 0.33418796E-02 0.81238021E+02</pdfrwt>
<totfact> 0.19727549E+04</totfact>
</mgrwt>
</event>
<event>
 4    1  0.6602701E-002  0.9079072E+02  0.7546771E-02  0.1300948E+00
         -1   -1    0    0    0  501 -0.00000000000E+00  0.00000000000E+00  0.37282323494E+02  0.37282323494E+02  0.00000000000E+00 0.  1.
          1   -1    0    0  501    0  0.00000000000E+00 -0.00000000000E+00 -0.22259495072E+03  0.22259495072E+03  0.00000000000E+00 0. -1.
         24    1    1    2    0    0  0.15049744860E+02  0.39360376260E+02 -0.10332134489E+03  0.13754363055E+03  0.80419002446E+02 0.  0.
        -24    1    1    2    0    0 -0.15049744860E+02 -0.39360376260E+02 -0.81991282336E+02  0.12233364367E+03  0.80419002446E+02 0.  1.
<mgrwt>
<rscale>  0 0.90790705E+02</rscale>
<asrwt>0</asrwt>
<pdfrwt beam="1">  1        1 0.34245377E-01 0.90790716E+02</pdfrwt>
<pdfrwt beam="2">  1       -1 0.57357421E-02 0.90790716E+02</pdfrwt>
<totfact> 0.16439862E+04</totfact>
</mgrwt>
</event>
<event>
 4    1  0.6602701E-002  0.9088589E+02  0.7546771E-02  0.1300720E+00
          1   -1    0    0  501    0  0.00000000000E+00  0.00000000000E+00  0.87995354453E+02  0.87995354453E+02  0.00000000000E+00 0. -1.
         -1   -1    0    0    0  501 -0.00000000000E+00 -0.00000000000E+00 -0.95844064028E+02  0.95844064028E+02  0.00000000000E+00 0.  1.
         24    1    1    2    0    0  0.36260473636E+02 -0.21867926539E+02 -0.17111668864E+02  0.92482719062E+02  0.80419002446E+02 0. -1.
        -24    1    1    2    0    0 -0.36260473636E+02  0.21867926539E+02  0.92629592894E+01  0.91356699418E+02  0.80419002446E+02 0.  0.
<mgrwt>
<rscale>  0 0.90885885E+02</rscale>
<asrwt>0</asrwt>
<pdfrwt beam="1">  1        1 0.13537747E-01 0.90885885E+02</pdfrwt>
<pdfrwt beam="2">  1       -1 0.14745241E-01 0.90885885E+02</pdfrwt>
<totfact> 0.12681720E+04</totfact>
</mgrwt>
</event>
<event>
 4    1  0.6602701E-002  0.1209570E+03  0.7546771E-02  0.1241527E+00
          3   -1    0    0  501    0  0.00000000000E+00  0.00000000000E+00  0.17190430631E+03  0.17190430631E+03  0.00000000000E+00 0. -1.
         -3   -1    0    0    0  501 -0.00000000000E+00 -0.00000000000E+00 -0.10281899223E+03  0.10281899223E+03  0.00000000000E+00 0.  1.
         24    1    1    2    0    0  0.57134694386E+02 -0.69992851335E+02 -0.22465773942E+02  0.12302560503E+03  0.80419002446E+02 0.  1.
        -24    1    1    2    0    0 -0.57134694386E+02  0.69992851335E+02  0.91551088027E+02  0.15169769350E+03  0.80419002446E+02 0. -1.
<mgrwt>
<rscale>  0 0.12095697E+03</rscale>
<asrwt>0</asrwt>
<pdfrwt beam="1">  1        3 0.26446816E-01 0.12095697E+03</pdfrwt>
<pdfrwt beam="2">  1       -3 0.15818307E-01 0.12095697E+03</pdfrwt>
<totfact> 0.10382909E+03</totfact>
</mgrwt>
</event>
<event>
 4    1  0.6602701E-002  0.8060456E+02  0.7546771E-02  0.1327344E+00
         -2   -1    0    0    0  501 -0.00000000000E+00  0.00000000000E+00  0.93591071976E+01  0.93591071976E+01  0.00000000000E+00 0.  1.
          2   -1    0    0  501    0  0.00000000000E+00 -0.00000000000E+00 -0.77422359630E+03  0.77422359630E+03  0.00000000000E+00 0. -1.
         24    1    1    2    0    0  0.54560582469E+01 -0.33178753377E+00 -0.50839147030E+03  0.51474166500E+03  0.80419002446E+02 0.  0.
        -24    1    1    2    0    0 -0.54560582469E+01  0.33178753377E+00 -0.25647301879E+03  0.26884103849E+03  0.80419002446E+02 0.  1.
<mgrwt>
<rscale>  0 0.80604557E+02</rscale>
<asrwt>0</asrwt>
<pdfrwt beam="1">  1        2 0.11911135E+00 0.80604557E+02</pdfrwt>
<pdfrwt beam="2">  1       -2 0.14398623E-02 0.80604557E+02</pdfrwt>
<totfact> 0.41042062E+04</totfact>
</mgrwt>
</event>
<event>
 4    1  0.8851390E-002  0.9003929E+02  0.7546771E-02  0.1302757E+00
         -1   -1    0    0    0  501 -0.00000000000E+00  0.00000000000E+00  0.69294145811E+02  0.69294145811E+02  0.00000000000E+00 0.  1.
          1   -1    0    0  501    0  0.00000000000E+00 -0.00000000000E+00 -0.60729437295E+03  0.60729437295E+03  0.00000000000E+00 0. -1.
         24    1    1    2    0    0 -0.40177873530E+02  0.50592575773E+01  0.34966326167E+02  0.96590462928E+02  0.80419002446E+02 0.  1.
        -24    1    1    2    0    0  0.40177873530E+02 -0.50592575773E+01 -0.57296655330E+03  0.57999805583E+03  0.80419002446E+02 0. -1.
<mgrwt>
<rscale>  0 0.90039289E+02</rscale>
<asrwt>0</asrwt>
<pdfrwt beam="1">  1        1 0.93429904E-01 0.90039289E+02</pdfrwt>
<pdfrwt beam="2">  1       -1 0.10660638E-01 0.90039289E+02</pdfrwt>
<totfact> 0.18594935E+03</totfact>
</mgrwt>
</event>
<event>
 4    1  0.6602701E-002  0.8867907E+02  0.7546771E-02  0.1306082E+00
         -2   -1    0    0    0  501 -0.00000000000E+00  0.00000000000E+00  0.33794697374E+02  0.33794697374E+02  0.00000000000E+00 0.  1.
          2   -1    0    0  501    0  0.00000000000E+00 -0.00000000000E+00 -0.65009184263E+03  0.65009184263E+03  0.00000000000E+00 0. -1.
         24    1    1    2    0    0  0.34683210119E+02  0.13922531687E+02 -0.58214154413E+03  0.58885716036E+03  0.80419002446E+02 0. -1.
        -24    1    1    2    0    0 -0.34683210119E+02 -0.13922531687E+02 -0.34155601128E+02  0.95029379644E+02  0.80419002446E+02 0.  1.
<mgrwt>
<rscale>  0 0.88679073E+02</rscale>
<asrwt>0</asrwt>
<pdfrwt beam="1">  1        2 0.10001413E+00 0.88679073E+02</pdfrwt>
<pdfrwt beam="2">  1       -2 0.51991842E-02 0.88679073E+02</pdfrwt>
<totfact> 0.79026926E+03</totfact>
</mgrwt>
</event>
<event>
 4    1  0.6602701E-002  0.8822562E+02  0.7546771E-02  0.1307206E+00
          2   -1    0    0  501    0  0.00000000000E+00  0.00000000000E+00  0.12824327155E+04  0.12824327155E+04  0.00000000000E+00 0. -1.
         -2   -1    0    0    0  501 -0.00000000000E+00 -0.00000000000E+00 -0.10884239399E+02  0.10884239399E+02  0.00000000000E+00 0.  1.
         24    1    1    2    0    0 -0.30289902396E+02  0.19976625773E+02  0.10658659934E+04  0.10695111386E+04  0.80419002446E+02 0. -1.
        -24    1    1    2    0    0  0.30289902396E+02 -0.19976625773E+02  0.20568248279E+03  0.22380581638E+03  0.80419002446E+02 0.  1.
<mgrwt>
<rscale>  0 0.88225618E+02</rscale>
<asrwt>0</asrwt>
<pdfrwt beam="1">  1        2 0.19729722E+00 0.88225618E+02</pdfrwt>
<pdfrwt beam="2">  1       -2 0.16744994E-02 0.88225618E+02</pdfrwt>
<totfact> 0.16842423E+04</totfact>
</mgrwt>
</event>
<event>
 4    1  0.6602701E-002  0.1462830E+03  0.7546771E-02  0.1205116E+00
         -2   -1    0    0    0  501 -0.00000000000E+00  0.00000000000E+00  0.13174085067E+02  0.13174085067E+02  0.00000000000E+00 0.  1.
          2   -1    0    0  501    0  0.00000000000E+00 -0.00000000000E+00 -0.17149470287E+04  0.17149470287E+04  0.00000000000E+00 0. -1.
         24    1    1    2    0    0 -0.12201117510E+03 -0.66911247042E+01 -0.65223720776E+03  0.66844004154E+03  0.80419002446E+02 0. -1.
        -24    1    1    2    0    0  0.12201117510E+03  0.66911247042E+01 -0.10495357359E+04  0.10596810722E+04  0.80419002446E+02 0.  1.
<mgrwt>
<rscale>  0 0.14628301E+03</rscale>
<asrwt>0</asrwt>
<pdfrwt beam="1">  1        2 0.26383779E+00 0.14628303E+03</pdfrwt>
<pdfrwt beam="2">  1       -2 0.20267840E-02 0.14628303E+03</pdfrwt>
<totfact> 0.78302091E+03</totfact>
</mgrwt>
</event>
<event>
 4    1  0.6602701E-002  0.1051014E+03  0.7546771E-02  0.1269920E+00
          1   -1    0    0  501    0  0.00000000000E+00  0.00000000000E+00  0.77042334607E+02  0.77042334607E+02  0.00000000000E+00 0. -1.
         -1   -1    0    0    0  501 -0.00000000000E+00 -0.00000000000E+00 -0.18399316197E+03  0.18399316197E+03  0.00000000000E+00 0.  1.
         24    1    1    2    0    0 -0.52058754909E+02  0.43231538976E+02  0.78449181398E+01  0.10539373141E+03  0.80419002446E+02 0. -1.
        -24    1    1    2    0    0  0.52058754909E+02 -0.43231538976E+02 -0.11479574550E+03  0.15564176517E+03  0.80419002446E+02 0.  1.
<mgrwt>
<rscale>  0 0.10510137E+03</rscale>
<asrwt>0</asrwt>
<pdfrwt beam="1">  1        1 0.11852667E-01 0.10510139E+03</pdfrwt>
<pdfrwt beam="2">  1       -1 0.28306640E-01 0.10510139E+03</pdfrwt>
<totfact> 0.53830922E+03</totfact>
</mgrwt>
</event>
<event>
 4    1  0.6602701E-002  0.1919027E+03  0.7546771E-02  0.1156756E+00
         -2   -1    0    0    0  501 -0.00000000000E+00  0.00000000000E+00  0.10709389383E+03  0.10709389383E+03  0.00000000000E+00 0.  1.
          2   -1    0    0  501    0  0.00000000000E+00 -0.00000000000E+00 -0.35704716637E+03  0.35704716637E+03  0.00000000000E+00 0. -1.
         24    1    1    2    0    0  0.14450006641E+03  0.97361077657E+02 -0.16955498711E+03  0.25607725054E+03  0.80419002446E+02 0.  0.
        -24    1    1    2    0    0 -0.14450006641E+03 -0.97361077657E+02 -0.80398285435E+02  0.20806380966E+03  0.80419002446E+02 0.  1.
<mgrwt>
<rscale>  0 0.19190275E+03</rscale>
<asrwt>0</asrwt>
<pdfrwt beam="1">  1        2 0.54930333E-01 0.19190275E+03</pdfrwt>
<pdfrwt beam="2">  1       -2 0.16475984E-01 0.19190275E+03</pdfrwt>
<totfact> 0.26073572E+03</totfact>
</mgrwt>
</event>
<event>
 4    1  0.6602701E-002  0.8542123E+02  0.7546771E-02  0.1314335E+00
         -4   -1    0    0    0  501 -0.00000000000E+00  0.00000000000E+00  0.20131028814E+03  0.20131028814E+03  0.00000000000E+00 0.  1.
          4   -1    0    0  501    0  0.00000000000E+00 -0.00000000000E+00 -0.39968884684E+02  0.39968884684E+02  0.00000000000E+00 0. -1.
         24    1    1    2    0    0  0.23504947007E+02  0.16645959221E+02  0.43854290332E+02  0.96020754148E+02  0.80419002446E+02 0.  0.
        -24    1    1    2    0    0 -0.23504947007E+02 -0.16645959221E+02  0.11748711313E+03  0.14525841868E+03  0.80419002446E+02 0.  0.
<mgrwt>
<rscale>  0 0.85421229E+02</rscale>
<asrwt>0</asrwt>
<pdfrwt beam="1">  1        4 0.61490593E-02 0.85421229E+02</pdfrwt>
<pdfrwt beam="2">  1       -4 0.30970813E-01 0.85421229E+02</pdfrwt>
<totfact> 0.24905838E+03</totfact>
</mgrwt>
</event>
<event>
 4    1  0.6602701E-002  0.9869404E+02  0.7546771E-02  0.1283066E+00
         -2   -1    0    0    0  501 -0.00000000000E+00  0.00000000000E+00  0.19214234585E+02  0.19214234585E+02  0.00000000000E+00 0.  1.
          2   -1    0    0  501    0  0.00000000000E+00 -0.00000000000E+00 -0.12972953662E+04  0.12972953662E+04  0.00000000000E+00 0. -1.
         24    1    1    2    0    0 -0.51168317520E+02 -0.25594939951E+02 -0.11528299140E+04  0.11570468116E+04  0.80419002446E+02 0. -1.
        -24    1    1    2    0    0  0.51168317520E+02  0.25594939951E+02 -0.12525121766E+03  0.15946278923E+03  0.80419002446E+02 0.  1.
<mgrwt>
<rscale>  0 0.98694040E+02</rscale>
<asrwt>0</asrwt>
<pdfrwt beam="1">  1        2 0.19958395E+00 0.98694040E+02</pdfrwt>
<pdfrwt beam="2">  1       -2 0.29560354E-02 0.98694040E+02</pdfrwt>
<totfact> 0.73371779E+03</totfact>
</mgrwt>
</event>
<event>
 4    1  0.6602701E-002  0.1049356E+03  0.7546771E-02  0.1270247E+00
         -3   -1    0    0    0  501 -0.00000000000E+00  0.00000000000E+00  0.16219330559E+03  0.16219330559E+03  0.00000000000E+00 0.  1.
          3   -1    0    0  501    0  0.00000000000E+00 -0.00000000000E+00 -0.93634547170E+02  0.93634547170E+02  0.00000000000E+00 0. -1.
         24    1    1    2    0    0 -0.29891494228E+02  0.60421577919E+02  0.10135010276E+03  0.14588806596E+03  0.80419002446E+02 0.  1.
        -24    1    1    2    0    0  0.29891494228E+02 -0.60421577919E+02 -0.32791344334E+02  0.10993978681E+03  0.80419002446E+02 0. -1.
<mgrwt>
<rscale>  0 0.10493562E+03</rscale>
<asrwt>0</asrwt>
<pdfrwt beam="1">  1        3 0.14405315E-01 0.10493562E+03</pdfrwt>
<pdfrwt beam="2">  1       -3 0.24952816E-01 0.10493562E+03</pdfrwt>
<totfact> 0.13195347E+03</totfact>
</mgrwt>
</event>
<event>
 4    1  0.6602701E-002  0.8471836E+02  0.7546771E-02  0.1316171E+00
          1   -1    0    0  501    0  0.00000000000E+00  0.00000000000E+00  0.45267582890E+03  0.45267582890E+03  0.00000000000E+00 0. -1.
         -1   -1    0    0    0  501 -0.00000000000E+00 -0.00000000000E+00 -0.19969414878E+02  0.19969414878E+02  0.00000000000E+00 0.  1.
         24    1    1    2    0    0 -0.24458100452E-01 -0.26645538037E+02  0.10908435375E+03  0.13811805632E+03  0.80419002446E+02 0. -1.
        -24    1    1    2    0    0  0.24458100452E-01  0.26645538037E+02  0.32362206028E+03  0.33452718746E+03  0.80419002446E+02 0.  0.
<mgrwt>
<rscale>  0 0.84718364E+02</rscale>
<asrwt>0</asrwt>
<pdfrwt beam="1">  1        1 0.69642428E-01 0.84718364E+02</pdfrwt>
<pdfrwt beam="2">  1       -1 0.30722180E-02 0.84718364E+02</pdfrwt>
<totfact> 0.16915611E+04</totfact>
</mgrwt>
</event>
<event>
 4    1  0.6602701E-002  0.8135228E+02  0.7546771E-02  0.1325257E+00
          2   -1    0    0  501    0  0.00000000000E+00  0.00000000000E+00  0.19271799467E+04  0.19271799467E+04  0.00000000000E+00 0. -1.
         -2   -1    0    0    0  501 -0.00000000000E+00 -0.00000000000E+00 -0.11354169017E+03  0.11354169017E+03  0.00000000000E+00 0.  1.
         24    1    1    2    0    0  0.90800004055E+01  0.82783514129E+01  0.19116307710E+04  0.19133610214E+04  0.80419002446E+02 0. -1.
        -24    1    1    2    0    0 -0.90800004055E+01 -0.82783514129E+01 -0.97992514523E+02  0.12736061544E+03  0.80419002446E+02 0.  1.
<mgrwt>
<rscale>  0 0.81352280E+02</rscale>
<asrwt>0</asrwt>
<pdfrwt beam="1">  1        2 0.29648920E+00 0.81352280E+02</pdfrwt>
<pdfrwt beam="2">  1       -2 0.17467954E-01 0.81352280E+02</pdfrwt>
<totfact> 0.23304695E+02</totfact>
</mgrwt>
</event>
<event>
 4    1  0.6602701E-002  0.1361773E+03  0.7546771E-02  0.1218567E+00
         -3   -1    0    0    0  501 -0.00000000000E+00  0.00000000000E+00  0.13252855748E+04  0.13252855748E+04  0.00000000000E+00 0.  1.
          3   -1    0    0  501    0  0.00000000000E+00 -0.00000000000E+00 -0.17158576532E+02  0.17158576532E+02  0.00000000000E+00 0. -1.
         24    1    1    2    0    0 -0.76037961744E+02  0.79342790408E+02  0.94238402783E+03  0.95217221231E+03  0.80419002446E+02 0.  1.
        -24    1    1    2    0    0  0.76037961744E+02 -0.79342790408E+02  0.36574297045E+03  0.39027193904E+03  0.80419002446E+02 0. -1.
<mgrwt>
<rscale>  0 0.13617733E+03</rscale>
<asrwt>0</asrwt>
<pdfrwt beam="1">  1        3 0.26397821E-02 0.13617733E+03</pdfrwt>
<pdfrwt beam="2">  1       -3 0.20389001E+00 0.13617733E+03</pdfrwt>
<totfact> 0.22144599E+02</totfact>
</mgrwt>
</event>
<event>
 4    1  0.6602701E-002  0.9609991E+02  0.7546771E-02  0.1288718E+00
          2   -1    0    0  501    0  0.00000000000E+00  0.00000000000E+00  0.72574732287E+03  0.72574732287E+03  0.00000000000E+00 0. -1.
         -2   -1    0    0    0  501 -0.00000000000E+00 -0.00000000000E+00 -0.18280248141E+02  0.18280248141E+02  0.00000000000E+00 0.  1.
         24    1    1    2    0    0 -0.24157711379E+02  0.46737373679E+02  0.55881035846E+03  0.56701341236E+03  0.80419002446E+02 0. -1.
        -24    1    1    2    0    0  0.24157711379E+02 -0.46737373679E+02  0.14865671628E+03  0.17701415866E+03  0.80419002446E+02 0.  1.
<mgrwt>
<rscale>  0 0.96099912E+02</rscale>
<asrwt>0</asrwt>
<pdfrwt beam="1">  1        2 0.11165341E+00 0.96099912E+02</pdfrwt>
<pdfrwt beam="2">  1       -2 0.28123464E-02 0.96099912E+02</pdfrwt>
<totfact> 0.17257331E+04</totfact>
</mgrwt>
</event>
<event>
 4    1  0.6602701E-002  0.8252953E+02  0.7546771E-02  0.1322022E+00
         -1   -1    0    0    0  501 -0.00000000000E+00  0.00000000000E+00  0.17592089036E+02  0.17592089036E+02  0.00000000000E+00 0.  1.
          1   -1    0    0  501    0  0.00000000000E+00 -0.00000000000E+00 -0.44298217888E+03  0.44298217888E+03  0.00000000000E+00 0. -1.
         24    1    1    2    0    0 -0.64003006687E+01  0.17405249852E+02 -0.13095356567E+03  0.15479004777E+03  0.80419002446E+02 0.  1.
        -24    1    1    2    0    0  0.64003006687E+01 -0.17405249852E+02 -0.29443652417E+03  0.30578422014E+03  0.80419002446E+02 0. -1.
<mgrwt>
<rscale>  0 0.82529525E+02</rscale>
<asrwt>0</asrwt>
<pdfrwt beam="1">  1        1 0.68151103E-01 0.82529525E+02</pdfrwt>
<pdfrwt beam="2">  1       -1 0.27064753E-02 0.82529525E+02</pdfrwt>
<totfact> 0.20793870E+04</totfact>
</mgrwt>
</event>
<event>
 4    1  0.6602701E-002  0.8598014E+02  0.7546771E-02  0.1312889E+00
         -2   -1    0    0    0  501 -0.00000000000E+00  0.00000000000E+00  0.28781968060E+02  0.28781968060E+02  0.00000000000E+00 0.  1.
          2   -1    0    0  501    0  0.00000000000E+00 -0.00000000000E+00 -0.63267951493E+03  0.63267951493E+03  0.00000000000E+00 0. -1.
         24    1    1    2    0    0 -0.29797091988E+02 -0.61238089167E+01 -0.55685439947E+03  0.56345310887E+03  0.80419002446E+02 0. -1.
        -24    1    1    2    0    0  0.29797091988E+02  0.61238089167E+01 -0.47043147398E+02  0.98008374122E+02  0.80419002446E+02 0.  1.
<mgrwt>
<rscale>  0 0.85980135E+02</rscale>
<asrwt>0</asrwt>
<pdfrwt beam="1">  1        2 0.97335303E-01 0.85980135E+02</pdfrwt>
<pdfrwt beam="2">  1       -2 0.44279954E-02 0.85980135E+02</pdfrwt>
<totfact> 0.10314061E+04</totfact>
</mgrwt>
</event>
<event>
 4    1  0.6602701E-002  0.1128063E+03  0.7546771E-02  0.1255460E+00
         -1   -1    0    0    0  501 -0.00000000000E+00  0.00000000000E+00  0.33672094957E+03  0.33672094957E+03  0.00000000000E+00 0.  1.
          1   -1    0    0  501    0  0.00000000000E+00 -0.00000000000E+00 -0.12559969761E+03  0.12559969761E+03  0.00000000000E+00 0. -1.
         24    1    1    2    0    0 -0.78529763191E+02 -0.95452598328E+01  0.29884025071E+03  0.31942252127E+03  0.80419002446E+02 0.  1.
        -24    1    1    2    0    0  0.78529763191E+02  0.95452598328E+01 -0.87718998752E+02  0.14289812591E+03  0.80419002446E+02 0. -1.
<mgrwt>
<rscale>  0 0.11280626E+03</rscale>
<asrwt>0</asrwt>
<pdfrwt beam="1">  1        1 0.19323031E-01 0.11280626E+03</pdfrwt>
<pdfrwt beam="2">  1       -1 0.51803223E-01 0.11280626E+03</pdfrwt>
<totfact> 0.10104746E+03</totfact>
</mgrwt>
</event>
<event>
 4    1  0.6602701E-002  0.8684418E+02  0.7546771E-02  0.1310679E+00
         -2   -1    0    0    0  501 -0.00000000000E+00  0.00000000000E+00  0.10197669270E+03  0.10197669270E+03  0.00000000000E+00 0.  1.
          2   -1    0    0  501    0  0.00000000000E+00 -0.00000000000E+00 -0.76145320834E+02  0.76145320834E+02  0.00000000000E+00 0. -1.
         24    1    1    2    0    0  0.98374317120E+01 -0.31271726073E+02 -0.21816549671E+01  0.86871580434E+02  0.80419002446E+02 0. -1.
        -24    1    1    2    0    0 -0.98374317120E+01  0.31271726073E+02  0.28013026833E+02  0.91250433100E+02  0.80419002446E+02 0.  1.
<mgrwt>
<rscale>  0 0.86844182E+02</rscale>
<asrwt>0</asrwt>
<pdfrwt beam="1">  1        2 0.11714665E-01 0.86844182E+02</pdfrwt>
<pdfrwt beam="2">  1       -2 0.15688722E-01 0.86844182E+02</pdfrwt>
<totfact> 0.14863650E+04</totfact>
</mgrwt>
</event>
<event>
 4    1  0.6602701E-002  0.8240054E+02  0.7546771E-02  0.1322374E+00
          2   -1    0    0  501    0  0.00000000000E+00  0.00000000000E+00  0.41414735131E+03  0.41414735131E+03  0.00000000000E+00 0. -1.
         -2   -1    0    0    0  501 -0.00000000000E+00 -0.00000000000E+00 -0.18639957034E+02  0.18639957034E+02  0.00000000000E+00 0.  1.
         24    1    1    2    0    0  0.13307892318E+02 -0.12063688896E+02  0.27285523043E+03  0.28502600814E+03  0.80419002446E+02 0.  0.
        -24    1    1    2    0    0 -0.13307892318E+02  0.12063688896E+02  0.12265216384E+03  0.14776130020E+03  0.80419002446E+02 0.  0.
<mgrwt>
<rscale>  0 0.82400537E+02</rscale>
<asrwt>0</asrwt>
<pdfrwt beam="1">  1        2 0.63714970E-01 0.82400537E+02</pdfrwt>
<pdfrwt beam="2">  1       -2 0.28676860E-02 0.82400537E+02</pdfrwt>
<totfact> 0.30672208E+04</totfact>
</mgrwt>
</event>
<event>
 4    1  0.6602701E-002  0.8043976E+02  0.7546771E-02  0.1327808E+00
         -2   -1    0    0    0  501 -0.00000000000E+00  0.00000000000E+00  0.12648420154E+02  0.12648420154E+02  0.00000000000E+00 0.  1.
          2   -1    0    0  501    0  0.00000000000E+00 -0.00000000000E+00 -0.31874795759E+04  0.31874795759E+04  0.00000000000E+00 0. -1.
         24    1    1    2    0    0 -0.33338723447E+00 -0.17964246943E+01 -0.30534675031E+04  0.30545268614E+04  0.80419002446E+02 0. -1.
        -24    1    1    2    0    0  0.33338723447E+00  0.17964246943E+01 -0.12136365266E+03  0.14560113471E+03  0.80419002446E+02 0.  0.
<mgrwt>
<rscale>  0 0.80439755E+02</rscale>
<asrwt>0</asrwt>
<pdfrwt beam="1">  1        2 0.49038082E+00 0.80439755E+02</pdfrwt>
<pdfrwt beam="2">  1       -2 0.19459134E-02 0.80439755E+02</pdfrwt>
<totfact> 0.13603209E+03</totfact>
</mgrwt>
</event>
<event>
 4    1  0.6602701E-002  0.1338031E+03  0.7546771E-02  0.1221919E+00
         -1   -1    0    0    0  501 -0.00000000000E+00  0.00000000000E+00  0.38902592298E+02  0.38902592298E+02  0.00000000000E+00 0.  1.
          1   -1    0    0  501    0  0.00000000000E+00 -0.00000000000E+00 -0.48910784784E+03  0.48910784784E+03  0.00000000000E+00 0. -1.
         24    1    1    2    0    0  0.57556712274E+02  0.90129234943E+02 -0.16092839219E+03  0.20928740403E+03  0.80419002446E+02 0.  1.
        -24    1    1    2    0    0 -0.57556712274E+02 -0.90129234943E+02 -0.28927686336E+03  0.31872303611E+03  0.80419002446E+02 0. -1.
<mgrwt>
<rscale>  0 0.13380310E+03</rscale>
<asrwt>0</asrwt>
<pdfrwt beam="1">  1        1 0.75247367E-01 0.13380310E+03</pdfrwt>
<pdfrwt beam="2">  1       -1 0.59850137E-02 0.13380310E+03</pdfrwt>
<totfact> 0.59879079E+03</totfact>
</mgrwt>
</event>
<event>
 4    1  0.6602701E-002  0.1021979E+03  0.7546771E-02  0.1275741E+00
         -1   -1    0    0    0  501 -0.00000000000E+00  0.00000000000E+00  0.92776117456E+03  0.92776117456E+03  0.00000000000E+00 0.  1.
          1   -1    0    0  501    0  0.00000000000E+00 -0.00000000000E+00 -0.12305161109E+02  0.12305161109E+02  0.00000000000E+00 0. -1.
         24    1    1    2    0    0 -0.55528342190E+02  0.29896363612E+02  0.32058762521E+03  0.33648303187E+03  0.80419002446E+02 0.  1.
        -24    1    1    2    0    0  0.55528342190E+02 -0.29896363612E+02  0.59486838824E+03  0.60358330380E+03  0.80419002446E+02 0. -1.
<mgrwt>
<rscale>  0 0.10219789E+03</rscale>
<asrwt>0</asrwt>
<pdfrwt beam="1">  1        1 0.18931024E-02 0.10219790E+03</pdfrwt>
<pdfrwt beam="2">  1       -1 0.14273243E+00 0.10219790E+03</pdfrwt>
<totfact> 0.26656951E+03</totfact>
</mgrwt>
</event>
<event>
 4    1  0.6602701E-002  0.1361202E+03  0.7546771E-02  0.1218647E+00
         -2   -1    0    0    0  501 -0.00000000000E+00  0.00000000000E+00  0.86273095156E+02  0.86273095156E+02  0.00000000000E+00 0.  1.
          2   -1    0    0  501    0  0.00000000000E+00 -0.00000000000E+00 -0.22343065060E+03  0.22343065060E+03  0.00000000000E+00 0. -1.
         24    1    1    2    0    0 -0.85165860739E+02  0.69341609564E+02 -0.99069725222E+02  0.16835530601E+03  0.80419002446E+02 0. -1.
        -24    1    1    2    0    0  0.85165860739E+02 -0.69341609564E+02 -0.38087830220E+02  0.14134843974E+03  0.80419002446E+02 0.  1.
<mgrwt>
<rscale>  0 0.13612016E+03</rscale>
<asrwt>0</asrwt>
<pdfrwt beam="1">  1        2 0.34373946E-01 0.13612016E+03</pdfrwt>
<pdfrwt beam="2">  1       -2 0.13272784E-01 0.13612016E+03</pdfrwt>
<totfact> 0.60297386E+03</totfact>
</mgrwt>
</event>
<event>
 4    1  0.6602701E-002  0.9914442E+02  0.7546771E-02  0.1282105E+00
         -3   -1    0    0    0  501 -0.00000000000E+00  0.00000000000E+00  0.29145247129E+04  0.29145247129E+04  0.00000000000E+00 0.  1.
          3   -1    0    0  501    0  0.00000000000E+00 -0.00000000000E+00 -0.34972101669E+01  0.34972101669E+01  0.00000000000E+00 0. -1.
         24    1    1    2    0    0 -0.30430605343E+02 -0.49359639047E+02  0.11801395624E+04  0.11842968371E+04  0.80419002446E+02 0. -1.
        -24    1    1    2    0    0  0.30430605343E+02  0.49359639047E+02  0.17308879403E+04  0.17337250859E+04  0.80419002446E+02 0.  1.
<mgrwt>
<rscale>  0 0.99144410E+02</rscale>
<asrwt>0</asrwt>
<pdfrwt beam="1">  1        3 0.53803467E-03 0.99144423E+02</pdfrwt>
<pdfrwt beam="2">  1       -3 0.44838647E+00 0.99144423E+02</pdfrwt>
<totfact> 0.11836517E+02</totfact>
</mgrwt>
</event>
<event>
 4    1  0.6602701E-002  0.8610653E+02  0.7546771E-02  0.1312564E+00
         -2   -1    0    0    0  501 -0.00000000000E+00  0.00000000000E+00  0.11208318209E+03  0.11208318209E+03  0.00000000000E+00 0.  1.
          2   -1    0    0  501    0  0.00000000000E+00 -0.00000000000E+00 -0.24253723889E+03  0.24253723889E+03  0.00000000000E+00 0. -1.
         24    1    1    2    0    0 -0.59271594149E+00  0.30769595672E+02 -0.21643606684E+03  0.23293541232E+03  0.80419002446E+02 0. -1.
        -24    1    1    2    0    0  0.59271594149E+00 -0.30769595672E+02  0.85982010033E+02  0.12168500866E+03  0.80419002446E+02 0.  0.
<mgrwt>
<rscale>  0 0.86106535E+02</rscale>
<asrwt>0</asrwt>
<pdfrwt beam="1">  1        2 0.37313421E-01 0.86106535E+02</pdfrwt>
<pdfrwt beam="2">  1       -2 0.17243567E-01 0.86106535E+02</pdfrwt>
<totfact> 0.35071345E+03</totfact>
</mgrwt>
</event>
<event>
 4    1  0.6602701E-002  0.1471566E+03  0.7546771E-02  0.1204011E+00
          2   -1    0    0  501    0  0.00000000000E+00  0.00000000000E+00  0.25746756598E+03  0.25746756598E+03  0.00000000000E+00 0. -1.
         -2   -1    0    0    0  501 -0.00000000000E+00 -0.00000000000E+00 -0.18316471972E+03  0.18316471972E+03  0.00000000000E+00 0.  1.
         24    1    1    2    0    0 -0.64051505383E+02  0.10528647381E+03 -0.12486820322E+03  0.19299513216E+03  0.80419002446E+02 0.  0.
        -24    1    1    2    0    0  0.64051505383E+02 -0.10528647381E+03  0.19917104947E+03  0.24763715354E+03  0.80419002446E+02 0.  0.
<mgrwt>
<rscale>  0 0.14715658E+03</rscale>
<asrwt>0</asrwt>
<pdfrwt beam="1">  1        2 0.39610395E-01 0.14715660E+03</pdfrwt>
<pdfrwt beam="2">  1       -2 0.28179188E-01 0.14715660E+03</pdfrwt>
<totfact> 0.14569473E+03</totfact>
</mgrwt>
</event>
<event>
 4    1  0.6602701E-002  0.9464100E+02  0.7546771E-02  0.1291987E+00
          1   -1    0    0  501    0  0.00000000000E+00  0.00000000000E+00  0.94747990467E+02  0.94747990467E+02  0.00000000000E+00 0. -1.
         -1   -1    0    0    0  501 -0.00000000000E+00 -0.00000000000E+00 -0.99749628531E+02  0.99749628531E+02  0.00000000000E+00 0.  1.
         24    1    1    2    0    0  0.21062837713E+02  0.45233389923E+02 -0.24737842291E+02  0.97820649620E+02  0.80419002446E+02 0.  1.
        -24    1    1    2    0    0 -0.21062837713E+02 -0.45233389923E+02  0.19736204228E+02  0.96676969378E+02  0.80419002446E+02 0. -1.
<mgrwt>
<rscale>  0 0.94640999E+02</rscale>
<asrwt>0</asrwt>
<pdfrwt beam="1">  1        1 0.14576614E-01 0.94640999E+02</pdfrwt>
<pdfrwt beam="2">  1       -1 0.15346097E-01 0.94640999E+02</pdfrwt>
<totfact> 0.10882046E+04</totfact>
</mgrwt>
</event>
<event>
 4    1  0.6602701E-002  0.8091367E+02  0.7546771E-02  0.1326478E+00
         -2   -1    0    0    0  501 -0.00000000000E+00  0.00000000000E+00  0.46138880088E+02  0.46138880088E+02  0.00000000000E+00 0.  1.
          2   -1    0    0  501    0  0.00000000000E+00 -0.00000000000E+00 -0.17611723307E+03  0.17611723307E+03  0.00000000000E+00 0. -1.
         24    1    1    2    0    0  0.38903124641E+01 -0.80418905601E+01 -0.11397347261E+03  0.13977472929E+03  0.80419002446E+02 0. -1.
        -24    1    1    2    0    0 -0.38903124641E+01  0.80418905601E+01 -0.16004880374E+02  0.82481383869E+02  0.80419002446E+02 0.  0.
<mgrwt>
<rscale>  0 0.80913673E+02</rscale>
<asrwt>0</asrwt>
<pdfrwt beam="1">  1        2 0.27094958E-01 0.80913673E+02</pdfrwt>
<pdfrwt beam="2">  1       -2 0.70982894E-02 0.80913673E+02</pdfrwt>
<totfact> 0.19722521E+04</totfact>
</mgrwt>
</event>
<event>
 4    1  0.6602701E-002  0.1280004E+03  0.7546771E-02  0.1230453E+00
          2   -1    0    0  501    0  0.00000000000E+00  0.00000000000E+00  0.78984104836E+03  0.78984104836E+03  0.00000000000E+00 0. -1.
         -2   -1    0    0    0  501 -0.00000000000E+00 -0.00000000000E+00 -0.21313341375E+02  0.21313341375E+02  0.00000000000E+00 0.  1.
         24    1    1    2    0    0  0.11318923438E+02 -0.98938211029E+02  0.45057819703E+03  0.46840667717E+03  0.80419002446E+02 0.  0.
        -24    1    1    2    0    0 -0.11318923438E+02  0.98938211029E+02  0.31794950996E+03  0.34274771256E+03  0.80419002446E+02 0.  1.
<mgrwt>
<rscale>  0 0.12800040E+03</rscale>
<asrwt>0</asrwt>
<pdfrwt beam="1">  1        2 0.12151398E+00 0.12800040E+03</pdfrwt>
<pdfrwt beam="2">  1       -2 0.32789762E-02 0.12800040E+03</pdfrwt>
<totfact> 0.12726226E+04</totfact>
</mgrwt>
</event>
<event>
 4    1  0.6602701E-002  0.9381898E+02  0.7546771E-02  0.1293858E+00
          2   -1    0    0  501    0  0.00000000000E+00  0.00000000000E+00  0.44913423935E+03  0.44913423935E+03  0.00000000000E+00 0. -1.
         -2   -1    0    0    0  501 -0.00000000000E+00 -0.00000000000E+00 -0.20362458678E+02  0.20362458678E+02  0.00000000000E+00 0.  1.
         24    1    1    2    0    0  0.15003505034E+02 -0.45931259003E+02  0.25987918360E+03  0.27629547905E+03  0.80419002446E+02 0. -1.
        -24    1    1    2    0    0 -0.15003505034E+02  0.45931259003E+02  0.16889259707E+03  0.19320121899E+03  0.80419002446E+02 0.  1.
<mgrwt>
<rscale>  0 0.93818984E+02</rscale>
<asrwt>0</asrwt>
<pdfrwt beam="1">  1        2 0.69097568E-01 0.93818984E+02</pdfrwt>
<pdfrwt beam="2">  1       -2 0.31326863E-02 0.93818984E+02</pdfrwt>
<totfact> 0.25118864E+04</totfact>
</mgrwt>
</event>
<event>
 4    1  0.6602701E-002  0.1361140E+03  0.7546771E-02  0.1218656E+00
          2   -1    0    0  501    0  0.00000000000E+00  0.00000000000E+00  0.64067813842E+03  0.64067813842E+03  0.00000000000E+00 0. -1.
         -2   -1    0    0    0  501 -0.00000000000E+00 -0.00000000000E+00 -0.40698824731E+02  0.40698824731E+02  0.00000000000E+00 0.  1.
         24    1    1    2    0    0  0.84946403787E+02 -0.69598285008E+02  0.48328747214E+03  0.50208944370E+03  0.80419002446E+02 0. -1.
        -24    1    1    2    0    0 -0.84946403787E+02  0.69598285008E+02  0.11669184155E+03  0.17928751945E+03  0.80419002446E+02 0.  1.
<mgrwt>
<rscale>  0 0.13611403E+03</rscale>
<asrwt>0</asrwt>
<pdfrwt beam="1">  1        2 0.98565860E-01 0.13611403E+03</pdfrwt>
<pdfrwt beam="2">  1       -2 0.62613581E-02 0.13611403E+03</pdfrwt>
<totfact> 0.62375942E+03</totfact>
</mgrwt>
</event>
<event>
 4    1  0.6602701E-002  0.1263699E+03  0.7546771E-02  0.1232944E+00
          2   -1    0    0  501    0  0.00000000000E+00  0.00000000000E+00  0.60281454721E+03  0.60281454721E+03  0.00000000000E+00 0. -1.
         -2   -1    0    0    0  501 -0.00000000000E+00 -0.00000000000E+00 -0.73830503802E+02  0.73830503802E+02  0.00000000000E+00 0.  1.
         24    1    1    2    0    0 -0.37884955609E+02  0.89815712171E+02  0.53540101336E+03  0.55011234587E+03  0.80419002446E+02 0. -1.
        -24    1    1    2    0    0  0.37884955609E+02 -0.89815712171E+02 -0.64169699499E+01  0.12653270515E+03  0.80419002446E+02 0.  1.
<mgrwt>
<rscale>  0 0.12636989E+03</rscale>
<asrwt>0</asrwt>
<pdfrwt beam="1">  1        2 0.92740696E-01 0.12636989E+03</pdfrwt>
<pdfrwt beam="2">  1       -2 0.11358539E-01 0.12636989E+03</pdfrwt>
<totfact> 0.26481099E+03</totfact>
</mgrwt>
</event>
<event>
 4    1  0.6602701E-002  0.8867846E+02  0.7546771E-02  0.1306084E+00
         -2   -1    0    0    0  501 -0.00000000000E+00  0.00000000000E+00  0.11508929297E+02  0.11508929297E+02  0.00000000000E+00 0.  1.
          2   -1    0    0  501    0  0.00000000000E+00 -0.00000000000E+00 -0.70219263847E+03  0.70219263847E+03  0.00000000000E+00 0. -1.
         24    1    1    2    0    0  0.17211491522E+02 -0.33172551885E+02 -0.40389986404E+03  0.41352021688E+03  0.80419002446E+02 0. -1.
        -24    1    1    2    0    0 -0.17211491522E+02  0.33172551885E+02 -0.28678384514E+03  0.30018135090E+03  0.80419002446E+02 0.  0.
<mgrwt>
<rscale>  0 0.88678462E+02</rscale>
<asrwt>0</asrwt>
<pdfrwt beam="1">  1        2 0.10802964E+00 0.88678462E+02</pdfrwt>
<pdfrwt beam="2">  1       -2 0.17706044E-02 0.88678462E+02</pdfrwt>
<totfact> 0.34677815E+04</totfact>
</mgrwt>
</event>
<event>
 4    1  0.6602701E-002  0.1282670E+03  0.7546771E-02  0.1230050E+00
          2   -1    0    0  501    0  0.00000000000E+00  0.00000000000E+00  0.34165064800E+03  0.34165064800E+03  0.00000000000E+00 0. -1.
         -2   -1    0    0    0  501 -0.00000000000E+00 -0.00000000000E+00 -0.88446965925E+02  0.88446965925E+02  0.00000000000E+00 0.  1.
         24    1    1    2    0    0  0.51395702893E+02 -0.85695377257E+02  0.27174645768E+03  0.30049720327E+03  0.80419002446E+02 0. -1.
        -24    1    1    2    0    0 -0.51395702893E+02  0.85695377257E+02 -0.18542775607E+02  0.12960041065E+03  0.80419002446E+02 0.  1.
<mgrwt>
<rscale>  0 0.12826703E+03</rscale>
<asrwt>0</asrwt>
<pdfrwt beam="1">  1        2 0.52561637E-01 0.12826703E+03</pdfrwt>
<pdfrwt beam="2">  1       -2 0.13607226E-01 0.12826703E+03</pdfrwt>
<totfact> 0.36771289E+03</totfact>
</mgrwt>
</event>
<event>
 4    1  0.6602701E-002  0.8283996E+02  0.7546771E-02  0.1321180E+00
          1   -1    0    0  501    0  0.00000000000E+00  0.00000000000E+00  0.16383966901E+02  0.16383966901E+02  0.00000000000E+00 0. -1.
         -1   -1    0    0    0  501 -0.00000000000E+00 -0.00000000000E+00 -0.51105147562E+03  0.51105147562E+03  0.00000000000E+00 0.  1.
         24    1    1    2    0    0 -0.11183383512E+02  0.16436994164E+02 -0.35934741797E+03  0.36877232217E+03  0.80419002446E+02 0.  1.
        -24    1    1    2    0    0  0.11183383512E+02 -0.16436994164E+02 -0.13532009074E+03  0.15866312034E+03  0.80419002446E+02 0. -1.
<mgrwt>
<rscale>  0 0.82839959E+02</rscale>
<asrwt>0</asrwt>
<pdfrwt beam="1">  1        1 0.25206105E-02 0.82839959E+02</pdfrwt>
<pdfrwt beam="2">  1       -1 0.78623298E-01 0.82839959E+02</pdfrwt>
<totfact> 0.66957106E+03</totfact>
</mgrwt>
</event>
<event>
 4    1  0.6602701E-002  0.1143279E+03  0.7546771E-02  0.1252759E+00
         -2   -1    0    0    0  501 -0.00000000000E+00  0.00000000000E+00  0.83369580791E+02  0.83369580791E+02  0.00000000000E+00 0.  1.
          2   -1    0    0  501    0  0.00000000000E+00 -0.00000000000E+00 -0.19555324487E+04  0.19555324487E+04  0.00000000000E+00 0. -1.
         24    1    1    2    0    0 -0.79493370670E+02 -0.16865576768E+02 -0.19138122248E+04  0.19172240588E+04  0.80419002446E+02 0. -1.
        -24    1    1    2    0    0  0.79493370670E+02  0.16865576768E+02  0.41649356959E+02  0.12167797068E+03  0.80419002446E+02 0.  1.
<mgrwt>
<rscale>  0 0.11432786E+03</rscale>
<asrwt>0</asrwt>
<pdfrwt beam="1">  1        2 0.30085114E+00 0.11432786E+03</pdfrwt>
<pdfrwt beam="2">  1       -2 0.12826090E-01 0.11432786E+03</pdfrwt>
<totfact> 0.36504911E+02</totfact>
</mgrwt>
</event>
<event>
 4    1  0.6602701E-002  0.8206376E+02  0.7546771E-02  0.1323295E+00
          2   -1    0    0  501    0  0.00000000000E+00  0.00000000000E+00  0.10123418197E+04  0.10123418197E+04  0.00000000000E+00 0. -1.
         -2   -1    0    0    0  501 -0.00000000000E+00 -0.00000000000E+00 -0.98562918913E+01  0.98562918913E+01  0.00000000000E+00 0.  1.
         24    1    1    2    0    0 -0.31229350423E+01 -0.16046567882E+02  0.79264308036E+03  0.79687986162E+03  0.80419002446E+02 0. -1.
        -24    1    1    2    0    0  0.31229350423E+01  0.16046567882E+02  0.20984244749E+03  0.22531825001E+03  0.80419002446E+02 0.  1.
<mgrwt>
<rscale>  0 0.82063762E+02</rscale>
<asrwt>0</asrwt>
<pdfrwt beam="1">  1        2 0.15574481E+00 0.82063762E+02</pdfrwt>
<pdfrwt beam="2">  1       -2 0.15163534E-02 0.82063762E+02</pdfrwt>
<totfact> 0.27178761E+04</totfact>
</mgrwt>
</event>
<event>
 4    1  0.6602701E-002  0.9962902E+02  0.7546771E-02  0.1281078E+00
          2   -1    0    0  501    0  0.00000000000E+00  0.00000000000E+00  0.28366536291E+04  0.28366536291E+04  0.00000000000E+00 0. -1.
         -2   -1    0    0    0  501 -0.00000000000E+00 -0.00000000000E+00 -0.12329893450E+02  0.12329893450E+02  0.00000000000E+00 0.  1.
         24    1    1    2    0    0 -0.32451022624E+01  0.58721341299E+02  0.26176927538E+04  0.26195880012E+04  0.80419002446E+02 0. -1.
        -24    1    1    2    0    0  0.32451022624E+01 -0.58721341299E+02  0.20663098179E+03  0.22939552132E+03  0.80419002446E+02 0.  1.
<mgrwt>
<rscale>  0 0.99629025E+02</rscale>
<asrwt>0</asrwt>
<pdfrwt beam="1">  1        2 0.43640773E+00 0.99629025E+02</pdfrwt>
<pdfrwt beam="2">  1       -2 0.18969089E-02 0.99629025E+02</pdfrwt>
<totfact> 0.22242823E+03</totfact>
</mgrwt>
</event>
<event>
 4    1  0.6602701E-002  0.9492341E+02  0.7546771E-02  0.1291349E+00
         -1   -1    0    0    0  501 -0.00000000000E+00  0.00000000000E+00  0.87873241318E+02  0.87873241318E+02  0.00000000000E+00 0.  1.
          1   -1    0    0  501    0  0.00000000000E+00 -0.00000000000E+00 -0.10513298679E+03  0.10513298679E+03  0.00000000000E+00 0. -1.
         24    1    1    2    0    0 -0.88877631678E+01 -0.49641171729E+02  0.65279464411E+01  0.95147613233E+02  0.80419002446E+02 0.  1.
        -24    1    1    2    0    0  0.88877631678E+01  0.49641171729E+02 -0.23787691917E+02  0.97858614878E+02  0.80419002446E+02 0. -1.
<mgrwt>
<rscale>  0 0.94923412E+02</rscale>
<asrwt>0</asrwt>
<pdfrwt beam="1">  1        1 0.16174306E-01 0.94923412E+02</pdfrwt>
<pdfrwt beam="2">  1       -1 0.13518960E-01 0.94923412E+02</pdfrwt>
<totfact> 0.11595376E+04</totfact>
</mgrwt>
</event>
<event>
 4    1  0.6602701E-002  0.8486610E+02  0.7546771E-02  0.1315783E+00
          1   -1    0    0  501    0  0.00000000000E+00  0.00000000000E+00  0.11724834392E+03  0.11724834392E+03  0.00000000000E+00 0. -1.
         -1   -1    0    0    0  501 -0.00000000000E+00 -0.00000000000E+00 -0.61435391619E+02  0.61435391619E+02  0.00000000000E+00 0.  1.
         24    1    1    2    0    0  0.26956455220E+02 -0.28957170551E+01  0.28930500759E+02  0.89661728089E+02  0.80419002446E+02 0.  1.
        -24    1    1    2    0    0 -0.26956455220E+02  0.28957170551E+01  0.26882451542E+02  0.89022007451E+02  0.80419002446E+02 0. -1.
<mgrwt>
<rscale>  0 0.84866091E+02</rscale>
<asrwt>0</asrwt>
<pdfrwt beam="1">  1        1 0.18038207E-01 0.84866102E+02</pdfrwt>
<pdfrwt beam="2">  1       -1 0.94515988E-02 0.84866102E+02</pdfrwt>
<totfact> 0.17200150E+04</totfact>
</mgrwt>
</event>
<event>
 4    1  0.6602701E-002  0.1305104E+03  0.7546771E-02  0.1226700E+00
          1   -1    0    0  501    0  0.00000000000E+00  0.00000000000E+00  0.10019181980E+02  0.10019181980E+02  0.00000000000E+00 0. -1.
         -1   -1    0    0    0  501 -0.00000000000E+00 -0.00000000000E+00 -0.18578939435E+04  0.18578939435E+04  0.00000000000E+00 0.  1.
         24    1    1    2    0    0 -0.42149372217E+02  0.93750510085E+02 -0.65169667553E+03  0.66463636718E+03  0.80419002446E+02 0.  0.
        -24    1    1    2    0    0  0.42149372217E+02 -0.93750510085E+02 -0.11961780860E+04  0.12032767583E+04  0.80419002446E+02 0.  0.
<mgrwt>
<rscale>  0 0.13051034E+03</rscale>
<asrwt>0</asrwt>
<pdfrwt beam="1">  1        1 0.15414139E-02 0.13051035E+03</pdfrwt>
<pdfrwt beam="2">  1       -1 0.28582960E+00 0.13051035E+03</pdfrwt>
<totfact> 0.41285042E+02</totfact>
</mgrwt>
</event>
<event>
 4    1  0.6602701E-002  0.1628472E+03  0.7546771E-02  0.1185519E+00
         -2   -1    0    0    0  501 -0.00000000000E+00  0.00000000000E+00  0.10408496356E+03  0.10408496356E+03  0.00000000000E+00 0.  1.
          2   -1    0    0  501    0  0.00000000000E+00 -0.00000000000E+00 -0.13852374335E+04  0.13852374335E+04  0.00000000000E+00 0. -1.
         24    1    1    2    0    0  0.12584891736E+03  0.64915552146E+02 -0.13132785664E+04  0.13233366117E+04  0.80419002446E+02 0. -1.
        -24    1    1    2    0    0 -0.12584891736E+03 -0.64915552146E+02  0.32126096476E+02  0.16598578536E+03  0.80419002446E+02 0.  1.
<mgrwt>
<rscale>  0 0.16284715E+03</rscale>
<asrwt>0</asrwt>
<pdfrwt beam="1">  1        2 0.21311344E+00 0.16284715E+03</pdfrwt>
<pdfrwt beam="2">  1       -2 0.16013072E-01 0.16284715E+03</pdfrwt>
<totfact> 0.49364829E+02</totfact>
</mgrwt>
</event>
<event>
 4    1  0.6602701E-002  0.8295948E+02  0.7546771E-02  0.1320857E+00
         -1   -1    0    0    0  501 -0.00000000000E+00  0.00000000000E+00  0.80221740710E+02  0.80221740710E+02  0.00000000000E+00 0.  1.
          1   -1    0    0  501    0  0.00000000000E+00 -0.00000000000E+00 -0.17035547759E+03  0.17035547759E+03  0.00000000000E+00 0. -1.
         24    1    1    2    0    0  0.19469249154E+02  0.60007063786E+01  0.43206234848E+02  0.93536382354E+02  0.80419002446E+02 0.  1.
        -24    1    1    2    0    0 -0.19469249154E+02 -0.60007063786E+01 -0.13333997173E+03  0.15704083594E+03  0.80419002446E+02 0. -1.
<mgrwt>
<rscale>  0 0.82959485E+02</rscale>
<asrwt>0</asrwt>
<pdfrwt beam="1">  1        1 0.26208535E-01 0.82959485E+02</pdfrwt>
<pdfrwt beam="2">  1       -1 0.12341806E-01 0.82959485E+02</pdfrwt>
<totfact> 0.71947120E+03</totfact>
</mgrwt>
</event>
<event>
 4    1  0.6602701E-002  0.1973409E+03  0.7546771E-02  0.1152002E+00
         -2   -1    0    0    0  501 -0.00000000000E+00  0.00000000000E+00  0.50868379094E+02  0.50868379094E+02  0.00000000000E+00 0.  1.
          2   -1    0    0  501    0  0.00000000000E+00 -0.00000000000E+00 -0.10239218610E+04  0.10239218610E+04  0.00000000000E+00 0. -1.
         24    1    1    2    0    0 -0.90686459517E+02 -0.15573102095E+03 -0.21658843071E+03  0.29300844543E+03  0.80419002446E+02 0.  1.
        -24    1    1    2    0    0  0.90686459517E+02  0.15573102095E+03 -0.75646505119E+03  0.78178179465E+03  0.80419002446E+02 0. -1.
<mgrwt>
<rscale>  0 0.19734085E+03</rscale>
<asrwt>0</asrwt>
<pdfrwt beam="1">  1        2 0.15752643E+00 0.19734087E+03</pdfrwt>
<pdfrwt beam="2">  1       -2 0.78259049E-02 0.19734087E+03</pdfrwt>
<totfact> 0.24725349E+03</totfact>
</mgrwt>
</event>
<event>
 4    1  0.6602701E-002  0.1060506E+03  0.7546771E-02  0.1268063E+00
         -1   -1    0    0    0  501 -0.00000000000E+00  0.00000000000E+00  0.13531287359E+03  0.13531287359E+03  0.00000000000E+00 0.  1.
          1   -1    0    0  501    0  0.00000000000E+00 -0.00000000000E+00 -0.84381512581E+02  0.84381512581E+02  0.00000000000E+00 0. -1.
         24    1    1    2    0    0  0.48598401901E+02  0.49170294225E+02  0.38915149042E+02  0.11296515959E+03  0.80419002446E+02 0.  1.
        -24    1    1    2    0    0 -0.48598401901E+02 -0.49170294225E+02  0.12016211962E+02  0.10672922658E+03  0.80419002446E+02 0.  0.
<mgrwt>
<rscale>  0 0.10605064E+03</rscale>
<asrwt>0</asrwt>
<pdfrwt beam="1">  1        1 0.12981771E-01 0.10605064E+03</pdfrwt>
<pdfrwt beam="2">  1       -1 0.20817365E-01 0.10605064E+03</pdfrwt>
<totfact> 0.78915877E+03</totfact>
</mgrwt>
</event>
<event>
 4    1  0.6602701E-002  0.1005991E+03  0.7546771E-02  0.1279041E+00
          1   -1    0    0  501    0  0.00000000000E+00  0.00000000000E+00  0.38330568405E+03  0.38330568405E+03  0.00000000000E+00 0. -1.
         -1   -1    0    0    0  501 -0.00000000000E+00 -0.00000000000E+00 -0.30286346173E+02  0.30286346173E+02  0.00000000000E+00 0.  1.
         24    1    1    2    0    0  0.38130232998E+02  0.46893979955E+02  0.25056517772E+03  0.27000571154E+03  0.80419002446E+02 0.  0.
        -24    1    1    2    0    0 -0.38130232998E+02 -0.46893979955E+02  0.10245416016E+03  0.14358631868E+03  0.80419002446E+02 0.  0.
<mgrwt>
<rscale>  0 0.10059910E+03</rscale>
<asrwt>0</asrwt>
<pdfrwt beam="1">  1        1 0.58970102E-01 0.10059911E+03</pdfrwt>
<pdfrwt beam="2">  1       -1 0.46594381E-02 0.10059911E+03</pdfrwt>
<totfact> 0.11563490E+04</totfact>
</mgrwt>
</event>
<event>
 4    1  0.6602701E-002  0.1117039E+03  0.7546771E-02  0.1257447E+00
         -2   -1    0    0    0  501 -0.00000000000E+00  0.00000000000E+00  0.16531242094E+02  0.16531242094E+02  0.00000000000E+00 0.  1.
          2   -1    0    0  501    0  0.00000000000E+00 -0.00000000000E+00 -0.76339676258E+03  0.76339676258E+03  0.00000000000E+00 0. -1.
         24    1    1    2    0    0 -0.24420867620E+02  0.73581093756E+02 -0.41481664527E+03  0.42959355358E+03  0.80419002446E+02 0. -1.
        -24    1    1    2    0    0  0.24420867620E+02 -0.73581093756E+02 -0.33204887522E+03  0.35033445109E+03  0.80419002446E+02 0.  1.
<mgrwt>
<rscale>  0 0.11170395E+03</rscale>
<asrwt>0</asrwt>
<pdfrwt beam="1">  1        2 0.11744567E+00 0.11170395E+03</pdfrwt>
<pdfrwt beam="2">  1       -2 0.25432677E-02 0.11170395E+03</pdfrwt>
<totfact> 0.19043443E+04</totfact>
</mgrwt>
</event>
<event>
 4    1  0.6602701E-002  0.1391034E+03  0.7546771E-02  0.1214540E+00
          1   -1    0    0  501    0  0.00000000000E+00  0.00000000000E+00  0.26848619159E+02  0.26848619159E+02  0.00000000000E+00 0. -1.
         -1   -1    0    0    0  501 -0.00000000000E+00 -0.00000000000E+00 -0.10608709692E+04  0.10608709692E+04  0.00000000000E+00 0.  1.
         24    1    1    2    0    0 -0.98091178936E+02  0.57102294913E+02 -0.82497880131E+03  0.83662404342E+03  0.80419002446E+02 0.  1.
        -24    1    1    2    0    0  0.98091178936E+02 -0.57102294913E+02 -0.20904354877E+03  0.25109554498E+03  0.80419002446E+02 0. -1.
<mgrwt>
<rscale>  0 0.13910344E+03</rscale>
<asrwt>0</asrwt>
<pdfrwt beam="1">  1        1 0.41305571E-02 0.13910344E+03</pdfrwt>
<pdfrwt beam="2">  1       -1 0.16321091E+00 0.13910344E+03</pdfrwt>
<totfact> 0.64853220E+02</totfact>
</mgrwt>
</event>
<event>
 4    1  0.6602701E-002  0.1270576E+03  0.7546771E-02  0.1231888E+00
          2   -1    0    0  501    0  0.00000000000E+00  0.00000000000E+00  0.66186978747E+03  0.66186978747E+03  0.00000000000E+00 0. -1.
         -2   -1    0    0    0  501 -0.00000000000E+00 -0.00000000000E+00 -0.26363089342E+02  0.26363089342E+02  0.00000000000E+00 0.  1.
         24    1    1    2    0    0  0.79481887425E+02 -0.57957117573E+02  0.22363393103E+03  0.25720759897E+03  0.80419002446E+02 0.  1.
        -24    1    1    2    0    0 -0.79481887425E+02  0.57957117573E+02  0.41187276710E+03  0.43102527784E+03  0.80419002446E+02 0. -1.
<mgrwt>
<rscale>  0 0.12705754E+03</rscale>
<asrwt>0</asrwt>
<pdfrwt beam="1">  1        2 0.10182611E+00 0.12705755E+03</pdfrwt>
<pdfrwt beam="2">  1       -2 0.40558604E-02 0.12705755E+03</pdfrwt>
<totfact> 0.11478932E+04</totfact>
</mgrwt>
</event>
<event>
 4    1  0.6602701E-002  0.1152392E+03  0.7546771E-02  0.1251164E+00
          2   -1    0    0  501    0  0.00000000000E+00  0.00000000000E+00  0.21482471223E+03  0.21482471223E+03  0.00000000000E+00 0. -1.
         -2   -1    0    0    0  501 -0.00000000000E+00 -0.00000000000E+00 -0.73001237593E+02  0.73001237593E+02  0.00000000000E+00 0.  1.
         24    1    1    2    0    0 -0.82539898548E+02 -0.13911060808E+00  0.12723857279E+03  0.17166748255E+03  0.80419002446E+02 0. -1.
        -24    1    1    2    0    0  0.82539898548E+02  0.13911060808E+00  0.14584901848E+02  0.11615846728E+03  0.80419002446E+02 0.  1.
<mgrwt>
<rscale>  0 0.11523919E+03</rscale>
<asrwt>0</asrwt>
<pdfrwt beam="1">  1        2 0.33049955E-01 0.11523919E+03</pdfrwt>
<pdfrwt beam="2">  1       -2 0.11230960E-01 0.11523919E+03</pdfrwt>
<totfact> 0.81146524E+03</totfact>
</mgrwt>
</event>
<event>
 4    1  0.6602701E-002  0.8266107E+02  0.7546771E-02  0.1321665E+00
         -2   -1    0    0    0  501 -0.00000000000E+00  0.00000000000E+00  0.72803017358E+01  0.72803017358E+01  0.00000000000E+00 0.  1.
          2   -1    0    0  501    0  0.00000000000E+00 -0.00000000000E+00 -0.15643987218E+04  0.15643987218E+04  0.00000000000E+00 0. -1.
         24    1    1    2    0    0  0.18741664243E+02 -0.37930172089E+01 -0.12756072435E+04  0.12782827123E+04  0.80419002446E+02 0. -1.
        -24    1    1    2    0    0 -0.18741664243E+02  0.37930172089E+01 -0.28151117657E+03  0.29339631124E+03  0.80419002446E+02 0.  1.
<mgrwt>
<rscale>  0 0.82661073E+02</rscale>
<asrwt>0</asrwt>
<pdfrwt beam="1">  1        2 0.24067692E+00 0.82661073E+02</pdfrwt>
<pdfrwt beam="2">  1       -2 0.11200455E-02 0.82661073E+02</pdfrwt>
<totfact> 0.21238152E+04</totfact>
</mgrwt>
</event>
<event>
 4    1  0.7662044E-002  0.1000376E+03  0.7546771E-02  0.1280217E+00
         -1   -1    0    0    0  501 -0.00000000000E+00  0.00000000000E+00  0.15953698923E+03  0.15953698923E+03  0.00000000000E+00 0.  1.
          1   -1    0    0  501    0  0.00000000000E+00 -0.00000000000E+00 -0.31468308488E+03  0.31468308488E+03  0.00000000000E+00 0. -1.
         24    1    1    2    0    0  0.26434069771E+02 -0.53306138714E+02  0.13459224840E+03  0.16769792412E+03  0.80419002446E+02 0.  1.
        -24    1    1    2    0    0 -0.26434069771E+02  0.53306138714E+02 -0.28973834405E+03  0.30652215000E+03  0.80419002446E+02 0. -1.
<mgrwt>
<rscale>  0 0.10003760E+03</rscale>
<asrwt>0</asrwt>
<pdfrwt beam="1">  1        1 0.48412782E-01 0.10003760E+03</pdfrwt>
<pdfrwt beam="2">  1       -1 0.24544152E-01 0.10003760E+03</pdfrwt>
<totfact> 0.11643079E+03</totfact>
</mgrwt>
</event>
<event>
 4    1  0.6602701E-002  0.8173802E+02  0.7546771E-02  0.1324190E+00
          2   -1    0    0  501    0  0.00000000000E+00  0.00000000000E+00  0.49535827604E+03  0.49535827604E+03  0.00000000000E+00 0. -1.
         -2   -1    0    0    0  501 -0.00000000000E+00 -0.00000000000E+00 -0.17979378959E+02  0.17979378959E+02  0.00000000000E+00 0.  1.
         24    1    1    2    0    0  0.55749521505E+01 -0.13520645157E+02  0.36698269445E+03  0.37597526769E+03  0.80419002446E+02 0. -1.
        -24    1    1    2    0    0 -0.55749521505E+01  0.13520645157E+02  0.11039620264E+03  0.13736238731E+03  0.80419002446E+02 0.  0.
<mgrwt>
<rscale>  0 0.81738020E+02</rscale>
<asrwt>0</asrwt>
<pdfrwt beam="1">  1        2 0.76208955E-01 0.81738020E+02</pdfrwt>
<pdfrwt beam="2">  1       -2 0.27660587E-02 0.81738020E+02</pdfrwt>
<totfact> 0.26694521E+04</totfact>
</mgrwt>
</event>
<event>
 4    1  0.6602701E-002  0.2482196E+03  0.7546771E-02  0.1114435E+00
         -2   -1    0    0    0  501 -0.00000000000E+00  0.00000000000E+00  0.86305976742E+03  0.86305976742E+03  0.00000000000E+00 0.  1.
          2   -1    0    0  501    0  0.00000000000E+00 -0.00000000000E+00 -0.12542509535E+03  0.12542509535E+03  0.00000000000E+00 0. -1.
         24    1    1    2    0    0  0.14053007240E+03  0.18814105995E+03  0.44410663559E+02  0.25216122358E+03  0.80419002446E+02 0. -1.
        -24    1    1    2    0    0 -0.14053007240E+03 -0.18814105995E+03  0.69322400851E+03  0.73632363918E+03  0.80419002446E+02 0.  1.
<mgrwt>
<rscale>  0 0.24821961E+03</rscale>
<asrwt>0</asrwt>
<pdfrwt beam="1">  1        2 0.19296169E-01 0.24821961E+03</pdfrwt>
<pdfrwt beam="2">  1       -2 0.13277842E+00 0.24821961E+03</pdfrwt>
<totfact> 0.12588885E+02</totfact>
</mgrwt>
</event>
<event>
 4    1  0.6602701E-002  0.1711360E+03  0.7546771E-02  0.1176668E+00
          1   -1    0    0  501    0  0.00000000000E+00  0.00000000000E+00  0.16088251773E+04  0.16088251773E+04  0.00000000000E+00 0. -1.
         -1   -1    0    0    0  501 -0.00000000000E+00 -0.00000000000E+00 -0.18357973436E+02  0.18357973436E+02  0.00000000000E+00 0.  1.
         24    1    1    2    0    0  0.10356354036E+03  0.10997679488E+03  0.86967409023E+03  0.88635237997E+03  0.80419002446E+02 0. -1.
        -24    1    1    2    0    0 -0.10356354036E+03 -0.10997679488E+03  0.72079311367E+03  0.74083077081E+03  0.80419002446E+02 0.  1.
<mgrwt>
<rscale>  0 0.17113599E+03</rscale>
<asrwt>0</asrwt>
<pdfrwt beam="1">  1        1 0.24751145E+00 0.17113601E+03</pdfrwt>
<pdfrwt beam="2">  1       -1 0.28243049E-02 0.17113601E+03</pdfrwt>
<totfact> 0.24969764E+03</totfact>
</mgrwt>
</event>
<event>
 4    1  0.6602701E-002  0.1367442E+03  0.7546771E-02  0.1217778E+00
         -2   -1    0    0    0  501 -0.00000000000E+00  0.00000000000E+00  0.13673418658E+04  0.13673418658E+04  0.00000000000E+00 0.  1.
          2   -1    0    0  501    0  0.00000000000E+00 -0.00000000000E+00 -0.13680169149E+02  0.13680169149E+02  0.00000000000E+00 0. -1.
         24    1    1    2    0    0  0.82614407943E+02  0.73529714848E+02  0.66396617883E+03  0.67790121843E+03  0.80419002446E+02 0.  1.
        -24    1    1    2    0    0 -0.82614407943E+02 -0.73529714848E+02  0.68969551780E+03  0.70312081650E+03  0.80419002446E+02 0. -1.
<mgrwt>
<rscale>  0 0.13674420E+03</rscale>
<asrwt>0</asrwt>
<pdfrwt beam="1">  1        2 0.21046425E-02 0.13674420E+03</pdfrwt>
<pdfrwt beam="2">  1       -2 0.21036018E+00 0.13674420E+03</pdfrwt>
<totfact> 0.61858706E+02</totfact>
</mgrwt>
</event>
<event>
 4    1  0.6602701E-002  0.8732226E+02  0.7546771E-02  0.1309469E+00
          2   -1    0    0  501    0  0.00000000000E+00  0.00000000000E+00  0.22737701423E+02  0.22737701423E+02  0.00000000000E+00 0. -1.
         -2   -1    0    0    0  501 -0.00000000000E+00 -0.00000000000E+00 -0.37467444261E+03  0.37467444261E+03  0.00000000000E+00 0.  1.
         24    1    1    2    0    0  0.20286568498E+02 -0.27320632225E+02 -0.11159687001E+03  0.14170052631E+03  0.80419002446E+02 0. -1.
        -24    1    1    2    0    0 -0.20286568498E+02  0.27320632225E+02 -0.24033987118E+03  0.25571161772E+03  0.80419002446E+02 0.  1.
<mgrwt>
<rscale>  0 0.87322264E+02</rscale>
<asrwt>0</asrwt>
<pdfrwt beam="1">  1        2 0.34981079E-02 0.87322264E+02</pdfrwt>
<pdfrwt beam="2">  1       -2 0.57642223E-01 0.87322264E+02</pdfrwt>
<totfact> 0.65973159E+03</totfact>
</mgrwt>
</event>
<event>
 4    1  0.6602701E-002  0.1283719E+03  0.7546771E-02  0.1229892E+00
         -2   -1    0    0    0  501 -0.00000000000E+00  0.00000000000E+00  0.59864547344E+02  0.59864547344E+02  0.00000000000E+00 0.  1.
          2   -1    0    0  501    0  0.00000000000E+00 -0.00000000000E+00 -0.32204690018E+03  0.32204690018E+03  0.00000000000E+00 0. -1.
         24    1    1    2    0    0  0.88820278222E+02 -0.46076864319E+02 -0.20386181224E+03  0.24091279271E+03  0.80419002446E+02 0. -1.
        -24    1    1    2    0    0 -0.88820278222E+02  0.46076864319E+02 -0.58320540599E+02  0.14099865481E+03  0.80419002446E+02 0.  1.
<mgrwt>
<rscale>  0 0.12837186E+03</rscale>
<asrwt>0</asrwt>
<pdfrwt beam="1">  1        2 0.49545676E-01 0.12837186E+03</pdfrwt>
<pdfrwt beam="2">  1       -2 0.92099305E-02 0.12837186E+03</pdfrwt>
<totfact> 0.72677767E+03</totfact>
</mgrwt>
</event>
<event>
 4    1  0.6602701E-002  0.1051508E+03  0.7546771E-02  0.1269823E+00
         -3   -1    0    0    0  501 -0.00000000000E+00  0.00000000000E+00  0.83932545312E+03  0.83932545312E+03  0.00000000000E+00 0.  1.
          3   -1    0    0  501    0  0.00000000000E+00 -0.00000000000E+00 -0.20408656953E+02  0.20408656953E+02  0.00000000000E+00 0. -1.
         24    1    1    2    0    0  0.25739806712E+02  0.62665332024E+02  0.66540921539E+03  0.67366617947E+03  0.80419002446E+02 0.  1.
        -24    1    1    2    0    0 -0.25739806712E+02 -0.62665332024E+02  0.15350758078E+03  0.18606793060E+03  0.80419002446E+02 0. -1.
<mgrwt>
<rscale>  0 0.10515083E+03</rscale>
<asrwt>0</asrwt>
<pdfrwt beam="1">  1        3 0.31397940E-02 0.10515083E+03</pdfrwt>
<pdfrwt beam="2">  1       -3 0.12912697E+00 0.10515083E+03</pdfrwt>
<totfact> 0.52560184E+02</totfact>
</mgrwt>
</event>
<event>
 4    1  0.6602701E-002  0.9346197E+02  0.7546771E-02  0.1294678E+00
          2   -1    0    0  501    0  0.00000000000E+00  0.00000000000E+00  0.17810217893E+03  0.17810217893E+03  0.00000000000E+00 0. -1.
         -2   -1    0    0    0  501 -0.00000000000E+00 -0.00000000000E+00 -0.84624074442E+02  0.84624074442E+02  0.00000000000E+00 0.  1.
         24    1    1    2    0    0 -0.29759414040E+02 -0.37179305487E+02  0.13191555178E+03  0.16166895879E+03  0.80419002446E+02 0. -1.
        -24    1    1    2    0    0  0.29759414040E+02  0.37179305487E+02 -0.38437447289E+02  0.10105729459E+03  0.80419002446E+02 0.  1.
<mgrwt>
<rscale>  0 0.93461968E+02</rscale>
<asrwt>0</asrwt>
<pdfrwt beam="1">  1        2 0.27400335E-01 0.93461968E+02</pdfrwt>
<pdfrwt beam="2">  1       -2 0.13019088E-01 0.93461968E+02</pdfrwt>
<totfact> 0.77202043E+03</totfact>
</mgrwt>
</event>
<event>
 4    1  0.6602701E-002  0.8145496E+02  0.7546771E-02  0.1324972E+00
         -3   -1    0    0    0  501 -0.00000000000E+00  0.00000000000E+00  0.23422294055E+03  0.23422294055E+03  0.00000000000E+00 0.  1.
          3   -1    0    0  501    0  0.00000000000E+00 -0.00000000000E+00 -0.37130634040E+02  0.37130634040E+02  0.00000000000E+00 0. -1.
         24    1    1    2    0    0  0.10333716407E+02  0.78043842542E+01  0.16460975823E+03  0.18366078124E+03  0.80419002446E+02 0.  1.
        -24    1    1    2    0    0 -0.10333716407E+02 -0.78043842542E+01  0.32482548288E+02  0.87692793353E+02  0.80419002446E+02 0.  0.
<mgrwt>
<rscale>  0 0.81454957E+02</rscale>
<asrwt>0</asrwt>
<pdfrwt beam="1">  1        3 0.57124054E-02 0.81454957E+02</pdfrwt>
<pdfrwt beam="2">  1       -3 0.36034298E-01 0.81454957E+02</pdfrwt>
<totfact> 0.28834957E+03</totfact>
</mgrwt>
</event>
<event>
 4    1  0.6602701E-002  0.1820506E+03  0.7546771E-02  0.1165833E+00
          2   -1    0    0  501    0  0.00000000000E+00  0.00000000000E+00  0.39761110227E+04  0.39761110227E+04  0.00000000000E+00 0. -1.
         -2   -1    0    0    0  501 -0.00000000000E+00 -0.00000000000E+00 -0.22827198115E+02  0.22827198115E+02  0.00000000000E+00 0.  1.
         24    1    1    2    0    0 -0.15913441351E+03 -0.36761860307E+02  0.35697666221E+04  0.35744057055E+04  0.80419002446E+02 0.  0.
        -24    1    1    2    0    0  0.15913441351E+03  0.36761860307E+02  0.38351720257E+03  0.42453251531E+03  0.80419002446E+02 0. -1.
<mgrwt>
<rscale>  0 0.18205058E+03</rscale>
<asrwt>0</asrwt>
<pdfrwt beam="1">  1        2 0.61170884E+00 0.18205058E+03</pdfrwt>
<pdfrwt beam="2">  1       -2 0.35118798E-02 0.18205058E+03</pdfrwt>
<totfact> 0.16273390E+02</totfact>
</mgrwt>
</event>
<event>
 4    1  0.6602701E-002  0.9132365E+02  0.7546771E-02  0.1299678E+00
          1   -1    0    0  501    0  0.00000000000E+00  0.00000000000E+00  0.32165420430E+03  0.32165420430E+03  0.00000000000E+00 0. -1.
         -1   -1    0    0    0  501 -0.00000000000E+00 -0.00000000000E+00 -0.26453835285E+02  0.26453835285E+02  0.00000000000E+00 0.  1.
         24    1    1    2    0    0  0.40641396392E+02 -0.14868274952E+02  0.17212841515E+03  0.19485429417E+03  0.80419002446E+02 0.  1.
        -24    1    1    2    0    0 -0.40641396392E+02  0.14868274952E+02  0.12307195386E+03  0.15325374541E+03  0.80419002446E+02 0. -1.
<mgrwt>
<rscale>  0 0.91323637E+02</rscale>
<asrwt>0</asrwt>
<pdfrwt beam="1">  1        1 0.49485259E-01 0.91323649E+02</pdfrwt>
<pdfrwt beam="2">  1       -1 0.40698210E-02 0.91323649E+02</pdfrwt>
<totfact> 0.17329477E+04</totfact>
</mgrwt>
</event>
<event>
 4    1  0.6602701E-002  0.2423100E+03  0.7546771E-02  0.1118263E+00
         -2   -1    0    0    0  501 -0.00000000000E+00  0.00000000000E+00  0.60265647609E+02  0.60265647609E+02  0.00000000000E+00 0.  1.
          2   -1    0    0  501    0  0.00000000000E+00 -0.00000000000E+00 -0.12823952952E+04  0.12823952952E+04  0.00000000000E+00 0. -1.
         24    1    1    2    0    0 -0.16712426574E+03 -0.15593721993E+03 -0.94014303834E+03  0.97086718208E+03  0.80419002446E+02 0. -1.
        -24    1    1    2    0    0  0.16712426574E+03  0.15593721993E+03 -0.28198660922E+03  0.37179376069E+03  0.80419002446E+02 0.  1.
<mgrwt>
<rscale>  0 0.24231003E+03</rscale>
<asrwt>0</asrwt>
<pdfrwt beam="1">  1        2 0.19729157E+00 0.24231003E+03</pdfrwt>
<pdfrwt beam="2">  1       -2 0.92716387E-02 0.24231003E+03</pdfrwt>
<totfact> 0.13465474E+03</totfact>
</mgrwt>
</event>
<event>
 4    1  0.6602701E-002  0.3101009E+03  0.7546771E-02  0.1080298E+00
          2   -1    0    0  501    0  0.00000000000E+00  0.00000000000E+00  0.74013050120E+03  0.74013050120E+03  0.00000000000E+00 0. -1.
         -2   -1    0    0    0  501 -0.00000000000E+00 -0.00000000000E+00 -0.12993611297E+03  0.12993611297E+03  0.00000000000E+00 0.  1.
         24    1    1    2    0    0 -0.39443533641E+02  0.29688300869E+03  0.30134578023E+03  0.43240236864E+03  0.80419002446E+02 0.  1.
        -24    1    1    2    0    0  0.39443533641E+02 -0.29688300869E+03  0.30884860801E+03  0.43766424553E+03  0.80419002446E+02 0. -1.
<mgrwt>
<rscale>  0 0.31010088E+03</rscale>
<asrwt>0</asrwt>
<pdfrwt beam="1">  1        2 0.11386623E+00 0.31010091E+03</pdfrwt>
<pdfrwt beam="2">  1       -2 0.19990172E-01 0.31010091E+03</pdfrwt>
<totfact> 0.82517502E+02</totfact>
</mgrwt>
</event>
<event>
 4    1  0.6602701E-002  0.1108862E+03  0.7546771E-02  0.1258938E+00
         -2   -1    0    0    0  501 -0.00000000000E+00  0.00000000000E+00  0.23219077622E+02  0.23219077622E+02  0.00000000000E+00 0.  1.
          2   -1    0    0  501    0  0.00000000000E+00 -0.00000000000E+00 -0.53017569123E+03  0.53017569123E+03  0.00000000000E+00 0. -1.
         24    1    1    2    0    0 -0.76280424864E+02  0.31347318382E+01 -0.24400004668E+03  0.26801449307E+03  0.80419002446E+02 0. -1.
        -24    1    1    2    0    0  0.76280424864E+02 -0.31347318382E+01 -0.26295656693E+03  0.28538027579E+03  0.80419002446E+02 0.  1.
<mgrwt>
<rscale>  0 0.11088620E+03</rscale>
<asrwt>0</asrwt>
<pdfrwt beam="1">  1        2 0.81565491E-01 0.11088621E+03</pdfrwt>
<pdfrwt beam="2">  1       -2 0.35721658E-02 0.11088621E+03</pdfrwt>
<totfact> 0.17603040E+04</totfact>
</mgrwt>
</event>
<event>
 4    1  0.6602701E-002  0.8449046E+02  0.7546771E-02  0.1316770E+00
         -4   -1    0    0    0  501 -0.00000000000E+00  0.00000000000E+00  0.11877364771E+03  0.11877364771E+03  0.00000000000E+00 0.  1.
          4   -1    0    0  501    0  0.00000000000E+00 -0.00000000000E+00 -0.65197403942E+02  0.65197403942E+02  0.00000000000E+00 0. -1.
         24    1    1    2    0    0 -0.17834502476E+02  0.18797672859E+02  0.10749131198E+01  0.84497298040E+02  0.80419002446E+02 0. -1.
        -24    1    1    2    0    0  0.17834502476E+02 -0.18797672859E+02  0.52501330650E+02  0.99473753613E+02  0.80419002446E+02 0.  1.
<mgrwt>
<rscale>  0 0.84490461E+02</rscale>
<asrwt>0</asrwt>
<pdfrwt beam="1">  1        4 0.10030370E-01 0.84490461E+02</pdfrwt>
<pdfrwt beam="2">  1       -4 0.18272869E-01 0.84490461E+02</pdfrwt>
<totfact> 0.29066606E+03</totfact>
</mgrwt>
</event>
<event>
 4    1  0.6602701E-002  0.2754144E+03  0.7546771E-02  0.1098220E+00
          1   -1    0    0  501    0  0.00000000000E+00  0.00000000000E+00  0.12519961440E+04  0.12519961440E+04  0.00000000000E+00 0. -1.
         -1   -1    0    0    0  501 -0.00000000000E+00 -0.00000000000E+00 -0.14145326096E+03  0.14145326096E+03  0.00000000000E+00 0.  1.
         24    1    1    2    0    0 -0.14740825880E+03 -0.21830404224E+03  0.28476139600E+02  0.27688256735E+03  0.80419002446E+02 0.  1.
        -24    1    1    2    0    0  0.14740825880E+03  0.21830404224E+03  0.10820667435E+04  0.11165668377E+04  0.80419002446E+02 0. -1.
<mgrwt>
<rscale>  0 0.27541435E+03</rscale>
<asrwt>0</asrwt>
<pdfrwt beam="1">  1        1 0.19261478E+00 0.27541435E+03</pdfrwt>
<pdfrwt beam="2">  1       -1 0.21762041E-01 0.27541435E+03</pdfrwt>
<totfact> 0.18622939E+02</totfact>
</mgrwt>
</event>
<event>
 4    1  0.6602701E-002  0.9688034E+02  0.7546771E-02  0.1286996E+00
          1   -1    0    0  501    0  0.00000000000E+00  0.00000000000E+00  0.13245445165E+04  0.13245445165E+04  0.00000000000E+00 0. -1.
         -1   -1    0    0    0  501 -0.00000000000E+00 -0.00000000000E+00 -0.11198791561E+02  0.11198791561E+02  0.00000000000E+00 0.  1.
         24    1    1    2    0    0 -0.49986780081E+02  0.20491609658E+02  0.25193607428E+03  0.26992144363E+03  0.80419002446E+02 0.  1.
        -24    1    1    2    0    0  0.49986780081E+02 -0.20491609658E+02  0.10614096507E+04  0.10658218644E+04  0.80419002446E+02 0. -1.
<mgrwt>
<rscale>  0 0.96880340E+02</rscale>
<asrwt>0</asrwt>
<pdfrwt beam="1">  1        1 0.20377596E+00 0.96880340E+02</pdfrwt>
<pdfrwt beam="2">  1       -1 0.17228921E-02 0.96880340E+02</pdfrwt>
<totfact> 0.76743630E+03</totfact>
</mgrwt>
</event>
<event>
 4    1  0.6602701E-002  0.1019487E+03  0.7546771E-02  0.1276251E+00
         -1   -1    0    0    0  501 -0.00000000000E+00  0.00000000000E+00  0.19181364079E+02  0.19181364079E+02  0.00000000000E+00 0.  1.
          1   -1    0    0  501    0  0.00000000000E+00 -0.00000000000E+00 -0.74575772273E+03  0.74575772273E+03  0.00000000000E+00 0. -1.
         24    1    1    2    0    0  0.44717249348E+02  0.43894020759E+02 -0.16329801518E+03  0.19250915605E+03  0.80419002446E+02 0.  1.
        -24    1    1    2    0    0 -0.44717249348E+02 -0.43894020759E+02 -0.56327834348E+03  0.57242993077E+03  0.80419002446E+02 0. -1.
<mgrwt>
<rscale>  0 0.10194868E+03</rscale>
<asrwt>0</asrwt>
<pdfrwt beam="1">  1        1 0.11473195E+00 0.10194868E+03</pdfrwt>
<pdfrwt beam="2">  1       -1 0.29509793E-02 0.10194868E+03</pdfrwt>
<totfact> 0.93400716E+03</totfact>
</mgrwt>
</event>
<event>
 4    1  0.6602701E-002  0.1112468E+03  0.7546771E-02  0.1258278E+00
          3   -1    0    0  501    0  0.00000000000E+00  0.00000000000E+00  0.14653196724E+03  0.14653196724E+03  0.00000000000E+00 0. -1.
         -3   -1    0    0    0  501 -0.00000000000E+00 -0.00000000000E+00 -0.13950992395E+03  0.13950992395E+03  0.00000000000E+00 0.  1.
         24    1    1    2    0    0  0.66041907748E+02 -0.39333251899E+02 -0.86331472706E+02  0.14081540192E+03  0.80419002446E+02 0.  1.
        -24    1    1    2    0    0 -0.66041907748E+02  0.39333251899E+02  0.93353515987E+02  0.14522648927E+03  0.80419002446E+02 0. -1.
<mgrwt>
<rscale>  0 0.11124682E+03</rscale>
<asrwt>0</asrwt>
<pdfrwt beam="1">  1        3 0.22543380E-01 0.11124682E+03</pdfrwt>
<pdfrwt beam="2">  1       -3 0.21463065E-01 0.11124682E+03</pdfrwt>
<totfact> 0.80223378E+02</totfact>
</mgrwt>
</event>
<event>
 4    1  0.6602701E-002  0.8989949E+02  0.7546771E-02  0.1303095E+00
          2   -1    0    0  501    0  0.00000000000E+00  0.00000000000E+00  0.28279970992E+03  0.28279970992E+03  0.00000000000E+00 0. -1.
         -2   -1    0    0    0  501 -0.00000000000E+00 -0.00000000000E+00 -0.51912136114E+02  0.51912136114E+02  0.00000000000E+00 0.  1.
         24    1    1    2    0    0 -0.27724745936E+02  0.29086795408E+02  0.22764569143E+03  0.24475391720E+03  0.80419002446E+02 0. -1.
        -24    1    1    2    0    0  0.27724745936E+02 -0.29086795408E+02  0.32418823771E+01  0.89957928834E+02  0.80419002446E+02 0.  1.
<mgrwt>
<rscale>  0 0.89899495E+02</rscale>
<asrwt>0</asrwt>
<pdfrwt beam="1">  1        2 0.43507647E-01 0.89899495E+02</pdfrwt>
<pdfrwt beam="2">  1       -2 0.79864827E-02 0.89899495E+02</pdfrwt>
<totfact> 0.10100062E+04</totfact>
</mgrwt>
</event>
<event>
 4    1  0.6602701E-002  0.1283678E+03  0.7546771E-02  0.1229898E+00
         -2   -1    0    0    0  501 -0.00000000000E+00  0.00000000000E+00  0.41545522424E+03  0.41545522424E+03  0.00000000000E+00 0.  1.
          2   -1    0    0  501    0  0.00000000000E+00 -0.00000000000E+00 -0.46310199797E+02  0.46310199797E+02  0.00000000000E+00 0. -1.
         24    1    1    2    0    0 -0.53602427270E+02  0.84485863389E+02  0.97101359651E+02  0.16095642678E+03  0.80419002446E+02 0. -1.
        -24    1    1    2    0    0  0.53602427270E+02 -0.84485863389E+02  0.27204366480E+03  0.30080899726E+03  0.80419002446E+02 0.  1.
<mgrwt>
<rscale>  0 0.12836782E+03</rscale>
<asrwt>0</asrwt>
<pdfrwt beam="1">  1        2 0.71246464E-02 0.12836782E+03</pdfrwt>
<pdfrwt beam="2">  1       -2 0.63916186E-01 0.12836782E+03</pdfrwt>
<totfact> 0.21930971E+03</totfact>
</mgrwt>
</event>
<event>
 4    1  0.6602701E-002  0.8265511E+02  0.7546771E-02  0.1321681E+00
          1   -1    0    0  501    0  0.00000000000E+00  0.00000000000E+00  0.11912508806E+04  0.11912508806E+04  0.00000000000E+00 0. -1.
         -1   -1    0    0    0  501 -0.00000000000E+00 -0.00000000000E+00 -0.99291833982E+01  0.99291833982E+01  0.00000000000E+00 0.  1.
         24    1    1    2    0    0  0.25648128426E+00  0.19094139445E+02  0.20032076971E+03  0.21670320412E+03  0.80419002446E+02 0.  1.
        -24    1    1    2    0    0 -0.25648128426E+00 -0.19094139445E+02  0.98100092749E+03  0.98447685988E+03  0.80419002446E+02 0. -1.
<mgrwt>
<rscale>  0 0.82655114E+02</rscale>
<asrwt>0</asrwt>
<pdfrwt beam="1">  1        1 0.18326925E+00 0.82655114E+02</pdfrwt>
<pdfrwt beam="2">  1       -1 0.15275676E-02 0.82655114E+02</pdfrwt>
<totfact> 0.11053864E+04</totfact>
</mgrwt>
</event>
<event>
 4    1  0.9479438E-002  0.1178189E+03  0.7546771E-02  0.1246739E+00
         -1   -1    0    0    0  501 -0.00000000000E+00  0.00000000000E+00  0.26592118045E+03  0.26592118045E+03  0.00000000000E+00 0.  1.
          1   -1    0    0  501    0  0.00000000000E+00 -0.00000000000E+00 -0.30769896347E+03  0.30769896347E+03  0.00000000000E+00 0. -1.
         24    1    1    2    0    0 -0.80305443963E+02  0.31066161114E+02  0.24046279720E+03  0.26777536012E+03  0.80419002446E+02 0.  1.
        -24    1    1    2    0    0  0.80305443963E+02 -0.31066161114E+02 -0.28224058022E+03  0.30584478379E+03  0.80419002446E+02 0. -1.
<mgrwt>
<rscale>  0 0.11781887E+03</rscale>
<asrwt>0</asrwt>
<pdfrwt beam="1">  1        1 0.47338302E-01 0.11781887E+03</pdfrwt>
<pdfrwt beam="2">  1       -1 0.40910951E-01 0.11781887E+03</pdfrwt>
<totfact> 0.50717348E+02</totfact>
</mgrwt>
</event>
<event>
 4    1  0.6602701E-002  0.8657838E+02  0.7546771E-02  0.1311356E+00
         -3   -1    0    0    0  501 -0.00000000000E+00  0.00000000000E+00  0.89185826990E+01  0.89185826990E+01  0.00000000000E+00 0.  1.
          3   -1    0    0  501    0  0.00000000000E+00 -0.00000000000E+00 -0.10856829410E+04  0.10856829410E+04  0.00000000000E+00 0. -1.
         24    1    1    2    0    0  0.23465553687E+02  0.21862453489E+02 -0.27827947640E+03  0.29143658319E+03  0.80419002446E+02 0. -1.
        -24    1    1    2    0    0 -0.23465553687E+02 -0.21862453489E+02 -0.79848488194E+03  0.80316494054E+03  0.80419002446E+02 0.  0.
<mgrwt>
<rscale>  0 0.86578375E+02</rscale>
<asrwt>0</asrwt>
<pdfrwt beam="1">  1        3 0.16702816E+00 0.86578375E+02</pdfrwt>
<pdfrwt beam="2">  1       -3 0.13720895E-02 0.86578375E+02</pdfrwt>
<totfact> 0.95077914E+02</totfact>
</mgrwt>
</event>
<event>
 4    1  0.6602701E-002  0.1026481E+03  0.7546771E-02  0.1274824E+00
         -2   -1    0    0    0  501 -0.00000000000E+00  0.00000000000E+00  0.57729660978E+01  0.57729660978E+01  0.00000000000E+00 0.  1.
          2   -1    0    0  501    0  0.00000000000E+00 -0.00000000000E+00 -0.18303610305E+04  0.18303610305E+04  0.00000000000E+00 0. -1.
         24    1    1    2    0    0  0.15180789618E+02  0.61959223883E+02 -0.86338075585E+03  0.86946129720E+03  0.80419002446E+02 0. -1.
        -24    1    1    2    0    0 -0.15180789618E+02 -0.61959223883E+02 -0.96120730857E+03  0.96667269942E+03  0.80419002446E+02 0.  1.
<mgrwt>
<rscale>  0 0.10264804E+03</rscale>
<asrwt>0</asrwt>
<pdfrwt beam="1">  1        2 0.28159396E+00 0.10264805E+03</pdfrwt>
<pdfrwt beam="2">  1       -2 0.88814878E-03 0.10264805E+03</pdfrwt>
<totfact> 0.21992404E+04</totfact>
</mgrwt>
</event>
<event>
 4    1  0.6602701E-002  0.8685235E+02  0.7546771E-02  0.1310658E+00
         -2   -1    0    0    0  501 -0.00000000000E+00  0.00000000000E+00  0.13366185478E+02  0.13366185478E+02  0.00000000000E+00 0.  1.
          2   -1    0    0  501    0  0.00000000000E+00 -0.00000000000E+00 -0.58138192051E+03  0.58138192051E+03  0.00000000000E+00 0. -1.
         24    1    1    2    0    0 -0.18592809967E+02  0.27026338684E+02 -0.33489231931E+03  0.34597138184E+03  0.80419002446E+02 0. -1.
        -24    1    1    2    0    0  0.18592809967E+02 -0.27026338684E+02 -0.23312341572E+03  0.24877672415E+03  0.80419002446E+02 0.  1.
<mgrwt>
<rscale>  0 0.86852355E+02</rscale>
<asrwt>0</asrwt>
<pdfrwt beam="1">  1        2 0.89443361E-01 0.86852355E+02</pdfrwt>
<pdfrwt beam="2">  1       -2 0.20563365E-02 0.86852355E+02</pdfrwt>
<totfact> 0.34597625E+04</totfact>
</mgrwt>
</event>
<event>
 4    1  0.6602701E-002  0.1139023E+03  0.7546771E-02  0.1253509E+00
         -1   -1    0    0    0  501 -0.00000000000E+00  0.00000000000E+00  0.19060204567E+02  0.19060204567E+02  0.00000000000E+00 0.  1.
          1   -1    0    0  501    0  0.00000000000E+00 -0.00000000000E+00 -0.89583797115E+03  0.89583797115E+03  0.00000000000E+00 0. -1.
         24    1    1    2    0    0 -0.68056003575E+02 -0.43300135581E+02 -0.21419933129E+03  0.24260068187E+03  0.80419002446E+02 0.  1.
        -24    1    1    2    0    0  0.68056003575E+02  0.43300135581E+02 -0.66257843529E+03  0.67229749385E+03  0.80419002446E+02 0. -1.
<mgrwt>
<rscale>  0 0.11390231E+03</rscale>
<asrwt>0</asrwt>
<pdfrwt beam="1">  1        1 0.13782125E+00 0.11390231E+03</pdfrwt>
<pdfrwt beam="2">  1       -1 0.29323387E-02 0.11390231E+03</pdfrwt>
<totfact> 0.71980188E+03</totfact>
</mgrwt>
</event>
<event>
 4    1  0.6602701E-002  0.8063435E+02  0.7546771E-02  0.1327261E+00
          2   -1    0    0  501    0  0.00000000000E+00  0.00000000000E+00  0.29766804129E+03  0.29766804129E+03  0.00000000000E+00 0. -1.
         -2   -1    0    0    0  501 -0.00000000000E+00 -0.00000000000E+00 -0.33813766321E+02  0.33813766321E+02  0.00000000000E+00 0.  1.
         24    1    1    2    0    0 -0.28516975450E+00 -0.58822368554E+01  0.23054324791E+03  0.24423776764E+03  0.80419002446E+02 0. -1.
        -24    1    1    2    0    0  0.28516975450E+00  0.58822368554E+01  0.33311027064E+02  0.87244039972E+02  0.80419002446E+02 0.  0.
<mgrwt>
<rscale>  0 0.80634347E+02</rscale>
<asrwt>0</asrwt>
<pdfrwt beam="1">  1        2 0.45795081E-01 0.80634347E+02</pdfrwt>
<pdfrwt beam="2">  1       -2 0.52021181E-02 0.80634347E+02</pdfrwt>
<totfact> 0.18056366E+04</totfact>
</mgrwt>
</event>
<event>
 4    1  0.6602701E-002  0.1077659E+03  0.7546771E-02  0.1264764E+00
          1   -1    0    0  501    0  0.00000000000E+00  0.00000000000E+00  0.19102534644E+03  0.19102534644E+03  0.00000000000E+00 0. -1.
         -1   -1    0    0    0  501 -0.00000000000E+00 -0.00000000000E+00 -0.11759320970E+03  0.11759320970E+03  0.00000000000E+00 0.  1.
         24    1    1    2    0    0  0.49744632789E+02 -0.51688822714E+02 -0.70526296224E+02  0.12879222530E+03  0.80419002446E+02 0.  1.
        -24    1    1    2    0    0 -0.49744632789E+02  0.51688822714E+02  0.14395843297E+03  0.17982633084E+03  0.80419002446E+02 0. -1.
<mgrwt>
<rscale>  0 0.10776585E+03</rscale>
<asrwt>0</asrwt>
<pdfrwt beam="1">  1        1 0.29388515E-01 0.10776585E+03</pdfrwt>
<pdfrwt beam="2">  1       -1 0.18091263E-01 0.10776585E+03</pdfrwt>
<totfact> 0.35147316E+03</totfact>
</mgrwt>
</event>
<event>
 4    1  0.7392288E-002  0.8091991E+02  0.7546771E-02  0.1326461E+00
          1   -1    0    0  501    0  0.00000000000E+00  0.00000000000E+00  0.12435425697E+03  0.12435425697E+03  0.00000000000E+00 0. -1.
         -1   -1    0    0    0  501 -0.00000000000E+00 -0.00000000000E+00 -0.17517036111E+03  0.17517036111E+03  0.00000000000E+00 0.  1.
         24    1    1    2    0    0 -0.29477705151E+01  0.84927770067E+01 -0.15065444249E+03  0.17101109206E+03  0.80419002446E+02 0.  1.
        -24    1    1    2    0    0  0.29477705151E+01 -0.84927770067E+01  0.99838338351E+02  0.12851352602E+03  0.80419002446E+02 0.  0.
<mgrwt>
<rscale>  0 0.80919915E+02</rscale>
<asrwt>0</asrwt>
<pdfrwt beam="1">  1        1 0.19131424E-01 0.80919915E+02</pdfrwt>
<pdfrwt beam="2">  1       -1 0.26949286E-01 0.80919915E+02</pdfrwt>
<totfact> 0.31076290E+03</totfact>
</mgrwt>
</event>
<event>
 4    1  0.7249865E-002  0.8871716E+02  0.7546771E-02  0.1305988E+00
         -1   -1    0    0    0  501 -0.00000000000E+00  0.00000000000E+00  0.14920016571E+03  0.14920016571E+03  0.00000000000E+00 0.  1.
          1   -1    0    0  501    0  0.00000000000E+00 -0.00000000000E+00 -0.19888692481E+03  0.19888692481E+03  0.00000000000E+00 0. -1.
         24    1    1    2    0    0 -0.10539287696E+02  0.35950539273E+02  0.12434347368E+03  0.15274826762E+03  0.80419002446E+02 0.  1.
        -24    1    1    2    0    0  0.10539287696E+02 -0.35950539273E+02 -0.17403023278E+03  0.19533882291E+03  0.80419002446E+02 0. -1.
<mgrwt>
<rscale>  0 0.88717156E+02</rscale>
<asrwt>0</asrwt>
<pdfrwt beam="1">  1        1 0.30597988E-01 0.88717156E+02</pdfrwt>
<pdfrwt beam="2">  1       -1 0.22953872E-01 0.88717156E+02</pdfrwt>
<totfact> 0.22644712E+03</totfact>
</mgrwt>
</event>
<event>
 4    1  0.6602701E-002  0.1461071E+03  0.7546771E-02  0.1205340E+00
          2   -1    0    0  501    0  0.00000000000E+00  0.00000000000E+00  0.30773978113E+03  0.30773978113E+03  0.00000000000E+00 0. -1.
         -2   -1    0    0    0  501 -0.00000000000E+00 -0.00000000000E+00 -0.69753684756E+02  0.69753684756E+02  0.00000000000E+00 0.  1.
         24    1    1    2    0    0 -0.12112319267E+03 -0.14464840367E+02  0.10495700756E+03  0.17989788437E+03  0.80419002446E+02 0.  1.
        -24    1    1    2    0    0  0.12112319267E+03  0.14464840367E+02  0.13302908881E+03  0.19759558151E+03  0.80419002446E+02 0. -1.
<mgrwt>
<rscale>  0 0.14610709E+03</rscale>
<asrwt>0</asrwt>
<pdfrwt beam="1">  1        2 0.47344581E-01 0.14610710E+03</pdfrwt>
<pdfrwt beam="2">  1       -2 0.10731336E-01 0.14610710E+03</pdfrwt>
<totfact> 0.60475887E+03</totfact>
</mgrwt>
</event>
<event>
 4    1  0.6602701E-002  0.1080181E+03  0.7546771E-02  0.1264285E+00
         -1   -1    0    0    0  501 -0.00000000000E+00  0.00000000000E+00  0.41927946180E+02  0.41927946180E+02  0.00000000000E+00 0.  1.
          1   -1    0    0  501    0  0.00000000000E+00 -0.00000000000E+00 -0.34803384117E+03  0.34803384117E+03  0.00000000000E+00 0. -1.
         24    1    1    2    0    0  0.41972015994E+02  0.58643274599E+02 -0.65765617155E+02  0.12646349725E+03  0.80419002446E+02 0. -1.
        -24    1    1    2    0    0 -0.41972015994E+02 -0.58643274599E+02 -0.24034027783E+03  0.26349829010E+03  0.80419002446E+02 0.  1.
<mgrwt>
<rscale>  0 0.10801805E+03</rscale>
<asrwt>0</asrwt>
<pdfrwt beam="1">  1        1 0.53543668E-01 0.10801805E+03</pdfrwt>
<pdfrwt beam="2">  1       -1 0.64504533E-02 0.10801805E+03</pdfrwt>
<totfact> 0.81159859E+03</totfact>
</mgrwt>
</event>
<event>
 4    1  0.6602701E-002  0.1031814E+03  0.7546771E-02  0.1273745E+00
         -1   -1    0    0    0  501 -0.00000000000E+00  0.00000000000E+00  0.94089853709E+02  0.94089853709E+02  0.00000000000E+00 0.  1.
          1   -1    0    0  501    0  0.00000000000E+00 -0.00000000000E+00 -0.14636125433E+03  0.14636125433E+03  0.00000000000E+00 0. -1.
         24    1    1    2    0    0 -0.23791085371E+02 -0.60109664326E+02  0.31132940977E+02  0.10777598738E+03  0.80419002446E+02 0.  1.
        -24    1    1    2    0    0  0.23791085371E+02  0.60109664326E+02 -0.83404341597E+02  0.13267512065E+03  0.80419002446E+02 0. -1.
<mgrwt>
<rscale>  0 0.10318141E+03</rscale>
<asrwt>0</asrwt>
<pdfrwt beam="1">  1        1 0.22517116E-01 0.10318141E+03</pdfrwt>
<pdfrwt beam="2">  1       -1 0.14475362E-01 0.10318141E+03</pdfrwt>
<totfact> 0.69196537E+03</totfact>
</mgrwt>
</event>
<event>
 4    1  0.6602701E-002  0.8487543E+02  0.7546771E-02  0.1315759E+00
          3   -1    0    0  501    0  0.00000000000E+00  0.00000000000E+00  0.75735619284E+01  0.75735619284E+01  0.00000000000E+00 0. -1.
         -3   -1    0    0    0  501 -0.00000000000E+00 -0.00000000000E+00 -0.14741531723E+04  0.14741531723E+04  0.00000000000E+00 0.  1.
         24    1    1    2    0    0 -0.22226472989E+02  0.15575844903E+02 -0.11745609343E+04  0.11776235508E+04  0.80419002446E+02 0.  1.
        -24    1    1    2    0    0  0.22226472989E+02 -0.15575844903E+02 -0.29201867607E+03  0.30410318343E+03  0.80419002446E+02 0. -1.
<mgrwt>
<rscale>  0 0.84875432E+02</rscale>
<asrwt>0</asrwt>
<pdfrwt beam="1">  1        3 0.11651629E-02 0.84875432E+02</pdfrwt>
<pdfrwt beam="2">  1       -3 0.22679289E+00 0.84875432E+02</pdfrwt>
<totfact> 0.52810314E+02</totfact>
</mgrwt>
</event>
<event>
 4    1  0.6602701E-002  0.9947821E+02  0.7546771E-02  0.1281397E+00
          2   -1    0    0  501    0  0.00000000000E+00  0.00000000000E+00  0.24435477380E+02  0.24435477380E+02  0.00000000000E+00 0. -1.
         -2   -1    0    0    0  501 -0.00000000000E+00 -0.00000000000E+00 -0.41247403133E+03  0.41247403133E+03  0.00000000000E+00 0.  1.
         24    1    1    2    0    0 -0.53519123478E+02 -0.23757139062E+02 -0.16457641909E+03  0.19230525711E+03  0.80419002446E+02 0. -1.
        -24    1    1    2    0    0  0.53519123478E+02  0.23757139062E+02 -0.22346213485E+03  0.24460425160E+03  0.80419002446E+02 0.  1.
<mgrwt>
<rscale>  0 0.99478210E+02</rscale>
<asrwt>0</asrwt>
<pdfrwt beam="1">  1        2 0.37593046E-02 0.99478210E+02</pdfrwt>
<pdfrwt beam="2">  1       -2 0.63457536E-01 0.99478210E+02</pdfrwt>
<totfact> 0.49940203E+03</totfact>
</mgrwt>
</event>
<event>
 4    1  0.6602701E-002  0.8670175E+02  0.7546771E-02  0.1311041E+00
          2   -1    0    0  501    0  0.00000000000E+00  0.00000000000E+00  0.86584914224E+02  0.86584914224E+02  0.00000000000E+00 0. -1.
         -2   -1    0    0    0  501 -0.00000000000E+00 -0.00000000000E+00 -0.14024218270E+03  0.14024218270E+03  0.00000000000E+00 0.  1.
         24    1    1    2    0    0  0.31045780055E+02  0.92810093749E+01  0.43170315638E+02  0.96854889917E+02  0.80419002446E+02 0. -1.
        -24    1    1    2    0    0 -0.31045780055E+02 -0.92810093749E+01 -0.96827584110E+02  0.12997220700E+03  0.80419002446E+02 0.  1.
<mgrwt>
<rscale>  0 0.86701751E+02</rscale>
<asrwt>0</asrwt>
<pdfrwt beam="1">  1        2 0.13320756E-01 0.86701751E+02</pdfrwt>
<pdfrwt beam="2">  1       -2 0.21575720E-01 0.86701751E+02</pdfrwt>
<totfact> 0.75334782E+03</totfact>
</mgrwt>
</event>
<event>
 4    1  0.6602701E-002  0.1180489E+03  0.7546771E-02  0.1246351E+00
         -2   -1    0    0    0  501 -0.00000000000E+00  0.00000000000E+00  0.22319077433E+03  0.22319077433E+03  0.00000000000E+00 0.  1.
          2   -1    0    0  501    0  0.00000000000E+00 -0.00000000000E+00 -0.40466396900E+03  0.40466396900E+03  0.00000000000E+00 0. -1.
         24    1    1    2    0    0  0.85269407743E+02  0.14051548049E+02 -0.37943111953E+03  0.39737074417E+03  0.80419002446E+02 0. -1.
        -24    1    1    2    0    0 -0.85269407743E+02 -0.14051548049E+02  0.19795792486E+03  0.23048399916E+03  0.80419002446E+02 0.  1.
<mgrwt>
<rscale>  0 0.11804886E+03</rscale>
<asrwt>0</asrwt>
<pdfrwt beam="1">  1        2 0.62255995E-01 0.11804886E+03</pdfrwt>
<pdfrwt beam="2">  1       -2 0.34337043E-01 0.11804886E+03</pdfrwt>
<totfact> 0.62817028E+02</totfact>
</mgrwt>
</event>
<event>
 4    1  0.6602701E-002  0.1228057E+03  0.7546771E-02  0.1238539E+00
         -1   -1    0    0    0  501 -0.00000000000E+00  0.00000000000E+00  0.11139556697E+03  0.11139556697E+03  0.00000000000E+00 0.  1.
          1   -1    0    0  501    0  0.00000000000E+00 -0.00000000000E+00 -0.17928252172E+03  0.17928252172E+03  0.00000000000E+00 0. -1.
         24    1    1    2    0    0 -0.35016605458E+02 -0.85952677130E+02  0.37974163941E+02  0.12854290507E+03  0.80419002446E+02 0.  1.
        -24    1    1    2    0    0  0.35016605458E+02  0.85952677130E+02 -0.10586111868E+03  0.16213518362E+03  0.80419002446E+02 0. -1.
<mgrwt>
<rscale>  0 0.12280571E+03</rscale>
<asrwt>0</asrwt>
<pdfrwt beam="1">  1        1 0.27581926E-01 0.12280571E+03</pdfrwt>
<pdfrwt beam="2">  1       -1 0.17137780E-01 0.12280571E+03</pdfrwt>
<totfact> 0.41731988E+03</totfact>
</mgrwt>
</event>
<event>
 4    1  0.6602701E-002  0.9154821E+02  0.7546771E-02  0.1299145E+00
         -2   -1    0    0    0  501 -0.00000000000E+00  0.00000000000E+00  0.30984931672E+01  0.30984931672E+01  0.00000000000E+00 0.  1.
          2   -1    0    0  501    0  0.00000000000E+00 -0.00000000000E+00 -0.27338253267E+04  0.27338253267E+04  0.00000000000E+00 0. -1.
         24    1    1    2    0    0  0.63393305297E+01 -0.43285922656E+02 -0.15061571634E+04  0.15089368691E+04  0.80419002446E+02 0. -1.
        -24    1    1    2    0    0 -0.63393305297E+01  0.43285922656E+02 -0.12245696702E+04  0.12279869508E+04  0.80419002446E+02 0.  1.
<mgrwt>
<rscale>  0 0.91548207E+02</rscale>
<asrwt>0</asrwt>
<pdfrwt beam="1">  1        2 0.42058752E+00 0.91548207E+02</pdfrwt>
<pdfrwt beam="2">  1       -2 0.47669238E-03 0.91548207E+02</pdfrwt>
<totfact> 0.17916039E+04</totfact>
</mgrwt>
</event>
<event>
 4    1  0.6602701E-002  0.8968128E+02  0.7546771E-02  0.1303625E+00
          1   -1    0    0  501    0  0.00000000000E+00  0.00000000000E+00  0.59743124551E+03  0.59743124551E+03  0.00000000000E+00 0. -1.
         -1   -1    0    0    0  501 -0.00000000000E+00 -0.00000000000E+00 -0.25038414557E+02  0.25038414557E+02  0.00000000000E+00 0.  1.
         24    1    1    2    0    0 -0.20331313633E+02  0.34090363415E+02  0.74570764342E+02  0.11663417184E+03  0.80419002446E+02 0.  1.
        -24    1    1    2    0    0  0.20331313633E+02 -0.34090363415E+02  0.49782206661E+03  0.50583548823E+03  0.80419002446E+02 0. -1.
<mgrwt>
<rscale>  0 0.89681275E+02</rscale>
<asrwt>0</asrwt>
<pdfrwt beam="1">  1        1 0.91912488E-01 0.89681275E+02</pdfrwt>
<pdfrwt beam="2">  1       -1 0.38520642E-02 0.89681275E+02</pdfrwt>
<totfact> 0.85626925E+03</totfact>
</mgrwt>
</event>
<event>
 4    1  0.6602701E-002  0.1277051E+03  0.7546771E-02  0.1230901E+00
         -1   -1    0    0    0  501 -0.00000000000E+00  0.00000000000E+00  0.50981335132E+02  0.50981335132E+02  0.00000000000E+00 0.  1.
          1   -1    0    0  501    0  0.00000000000E+00 -0.00000000000E+00 -0.35222012180E+03  0.35222012180E+03  0.00000000000E+00 0. -1.
         24    1    1    2    0    0  0.81194757628E+02 -0.56998248461E+02 -0.89544287861E+02  0.15597046014E+03  0.80419002446E+02 0.  0.
        -24    1    1    2    0    0 -0.81194757628E+02  0.56998248461E+02 -0.21169449880E+03  0.24723099679E+03  0.80419002446E+02 0.  1.
<mgrwt>
<rscale>  0 0.12770515E+03</rscale>
<asrwt>0</asrwt>
<pdfrwt beam="1">  1        1 0.54187709E-01 0.12770515E+03</pdfrwt>
<pdfrwt beam="2">  1       -1 0.78432826E-02 0.12770515E+03</pdfrwt>
<totfact> 0.60387687E+03</totfact>
</mgrwt>
</event>
<event>
 4    1  0.6602701E-002  0.8184558E+02  0.7546771E-02  0.1323894E+00
          1   -1    0    0  501    0  0.00000000000E+00  0.00000000000E+00  0.14979967277E+03  0.14979967277E+03  0.00000000000E+00 0. -1.
         -1   -1    0    0    0  501 -0.00000000000E+00 -0.00000000000E+00 -0.60363866435E+02  0.60363866435E+02  0.00000000000E+00 0.  1.
         24    1    1    2    0    0 -0.53975325129E+01  0.14224945595E+02 -0.87807293613E+01  0.82315245228E+02  0.80419002446E+02 0.  1.
        -24    1    1    2    0    0  0.53975325129E+01 -0.14224945595E+02  0.98216535701E+02  0.12784829398E+03  0.80419002446E+02 0. -1.
<mgrwt>
<rscale>  0 0.81845576E+02</rscale>
<asrwt>0</asrwt>
<pdfrwt beam="1">  1        1 0.23046103E-01 0.81845576E+02</pdfrwt>
<pdfrwt beam="2">  1       -1 0.92867487E-02 0.81845576E+02</pdfrwt>
<totfact> 0.12949474E+04</totfact>
</mgrwt>
</event>
<event>
 4    1  0.6602701E-002  0.1275486E+03  0.7546771E-02  0.1231139E+00
         -1   -1    0    0    0  501 -0.00000000000E+00  0.00000000000E+00  0.15532003999E+03  0.15532003999E+03  0.00000000000E+00 0.  1.
          1   -1    0    0  501    0  0.00000000000E+00 -0.00000000000E+00 -0.11156148370E+03  0.11156148370E+03  0.00000000000E+00 0. -1.
         24    1    1    2    0    0 -0.98430022398E+02 -0.10628251010E+02  0.54869396978E+02  0.13884990352E+03  0.80419002446E+02 0. -1.
        -24    1    1    2    0    0  0.98430022398E+02  0.10628251010E+02 -0.11110840693E+02  0.12803162017E+03  0.80419002446E+02 0.  1.
<mgrwt>
<rscale>  0 0.12754860E+03</rscale>
<asrwt>0</asrwt>
<pdfrwt beam="1">  1        1 0.17163305E-01 0.12754860E+03</pdfrwt>
<pdfrwt beam="2">  1       -1 0.23895391E-01 0.12754860E+03</pdfrwt>
<totfact> 0.44656200E+03</totfact>
</mgrwt>
</event>
<event>
 4    1  0.6602701E-002  0.1146197E+03  0.7546771E-02  0.1252246E+00
         -2   -1    0    0    0  501 -0.00000000000E+00  0.00000000000E+00  0.55783358939E+01  0.55783358939E+01  0.00000000000E+00 0.  1.
          2   -1    0    0  501    0  0.00000000000E+00 -0.00000000000E+00 -0.23664333451E+04  0.23664333451E+04  0.00000000000E+00 0. -1.
         24    1    1    2    0    0 -0.50375331428E+02 -0.64286802189E+02 -0.12624104347E+04  0.12676031668E+04  0.80419002446E+02 0. -1.
        -24    1    1    2    0    0  0.50375331428E+02  0.64286802189E+02 -0.10984445746E+04  0.11044085143E+04  0.80419002446E+02 0.  0.
<mgrwt>
<rscale>  0 0.11461973E+03</rscale>
<asrwt>0</asrwt>
<pdfrwt beam="1">  1        2 0.36406614E+00 0.11461973E+03</pdfrwt>
<pdfrwt beam="2">  1       -2 0.85820677E-03 0.11461973E+03</pdfrwt>
<totfact> 0.12360201E+04</totfact>
</mgrwt>
</event>
<event>
 4    1  0.6602701E-002  0.8879063E+02  0.7546771E-02  0.1305807E+00
         -1   -1    0    0    0  501 -0.00000000000E+00  0.00000000000E+00  0.16372481484E+03  0.16372481484E+03  0.00000000000E+00 0.  1.
          1   -1    0    0  501    0  0.00000000000E+00 -0.00000000000E+00 -0.51059751239E+02  0.51059751239E+02  0.00000000000E+00 0. -1.
         24    1    1    2    0    0 -0.81081268895E+01 -0.36753486595E+02  0.81957723012E+02  0.12083395555E+03  0.80419002446E+02 0.  1.
        -24    1    1    2    0    0  0.81081268895E+01  0.36753486595E+02  0.30707340591E+02  0.93950610531E+02  0.80419002446E+02 0. -1.
<mgrwt>
<rscale>  0 0.88790633E+02</rscale>
<asrwt>0</asrwt>
<pdfrwt beam="1">  1        1 0.78553465E-02 0.88790633E+02</pdfrwt>
<pdfrwt beam="2">  1       -1 0.25188433E-01 0.88790633E+02</pdfrwt>
<totfact> 0.11032321E+04</totfact>
</mgrwt>
</event>
<event>
 4    1  0.6602701E-002  0.8211825E+02  0.7546771E-02  0.1323145E+00
          3   -1    0    0  501    0  0.00000000000E+00  0.00000000000E+00  0.31789893979E+02  0.31789893979E+02  0.00000000000E+00 0. -1.
         -3   -1    0    0    0  501 -0.00000000000E+00 -0.00000000000E+00 -0.32996011917E+03  0.32996011917E+03  0.00000000000E+00 0.  1.
         24    1    1    2    0    0  0.16223538549E+02  0.36039608116E+01 -0.25717537545E+03  0.26996774146E+03  0.80419002446E+02 0.  0.
        -24    1    1    2    0    0 -0.16223538549E+02 -0.36039608116E+01 -0.40994849739E+02  0.91782271687E+02  0.80419002446E+02 0. -1.
<mgrwt>
<rscale>  0 0.82118254E+02</rscale>
<asrwt>0</asrwt>
<pdfrwt beam="1">  1        3 0.48907529E-02 0.82118254E+02</pdfrwt>
<pdfrwt beam="2">  1       -3 0.50763096E-01 0.82118254E+02</pdfrwt>
<totfact> 0.19053769E+03</totfact>
</mgrwt>
</event>
<event>
 4    1  0.6602701E-002  0.8746065E+02  0.7546771E-02  0.1309120E+00
          4   -1    0    0  501    0  0.00000000000E+00  0.00000000000E+00  0.46064701141E+02  0.46064701141E+02  0.00000000000E+00 0. -1.
         -4   -1    0    0    0  501 -0.00000000000E+00 -0.00000000000E+00 -0.28318762721E+03  0.28318762721E+03  0.00000000000E+00 0.  1.
         24    1    1    2    0    0  0.26629674315E+02  0.21748775583E+02 -0.12685588706E+02  0.88375838942E+02  0.80419002446E+02 0. -1.
        -24    1    1    2    0    0 -0.26629674315E+02 -0.21748775583E+02 -0.22443733737E+03  0.24087648941E+03  0.80419002446E+02 0.  1.
<mgrwt>
<rscale>  0 0.87460647E+02</rscale>
<asrwt>0</asrwt>
<pdfrwt beam="1">  1        4 0.70868770E-02 0.87460647E+02</pdfrwt>
<pdfrwt beam="2">  1       -4 0.43567328E-01 0.87460647E+02</pdfrwt>
<totfact> 0.10326295E+03</totfact>
</mgrwt>
</event>
<event>
 4    1  0.6602701E-002  0.1065644E+03  0.7546771E-02  0.1267068E+00
          2   -1    0    0  501    0  0.00000000000E+00  0.00000000000E+00  0.68152102532E+02  0.68152102532E+02  0.00000000000E+00 0. -1.
         -2   -1    0    0    0  501 -0.00000000000E+00 -0.00000000000E+00 -0.16682249416E+03  0.16682249416E+03  0.00000000000E+00 0.  1.
         24    1    1    2    0    0  0.69827952242E+02  0.35804849594E+01 -0.45313054247E+02  0.11579832307E+03  0.80419002446E+02 0. -1.
        -24    1    1    2    0    0 -0.69827952242E+02 -0.35804849594E+01 -0.53357337379E+02  0.11917627362E+03  0.80419002446E+02 0.  0.
<mgrwt>
<rscale>  0 0.10656443E+03</rscale>
<asrwt>0</asrwt>
<pdfrwt beam="1">  1        2 0.10484939E-01 0.10656443E+03</pdfrwt>
<pdfrwt beam="2">  1       -2 0.25664999E-01 0.10656443E+03</pdfrwt>
<totfact> 0.75741044E+03</totfact>
</mgrwt>
</event>
<event>
 4    1  0.6602701E-002  0.9527852E+02  0.7546771E-02  0.1290550E+00
         -1   -1    0    0    0  501 -0.00000000000E+00  0.00000000000E+00  0.47058491721E+02  0.47058491721E+02  0.00000000000E+00 0.  1.
          1   -1    0    0  501    0  0.00000000000E+00 -0.00000000000E+00 -0.43388114580E+03  0.43388114580E+03  0.00000000000E+00 0. -1.
         24    1    1    2    0    0 -0.10149567035E+01  0.51085722600E+02 -0.14202750589E+02  0.96331278769E+02  0.80419002446E+02 0.  1.
        -24    1    1    2    0    0  0.10149567035E+01 -0.51085722600E+02 -0.37261990349E+03  0.38460835876E+03  0.80419002446E+02 0. -1.
<mgrwt>
<rscale>  0 0.95278524E+02</rscale>
<asrwt>0</asrwt>
<pdfrwt beam="1">  1        1 0.66750946E-01 0.95278524E+02</pdfrwt>
<pdfrwt beam="2">  1       -1 0.72397679E-02 0.95278524E+02</pdfrwt>
<totfact> 0.51500911E+03</totfact>
</mgrwt>
</event>
<event>
 4    1  0.6602701E-002  0.9321131E+02  0.7546771E-02  0.1295256E+00
         -1   -1    0    0    0  501 -0.00000000000E+00  0.00000000000E+00  0.12132898992E+03  0.12132898992E+03  0.00000000000E+00 0.  1.
          1   -1    0    0  501    0  0.00000000000E+00 -0.00000000000E+00 -0.12070443696E+03  0.12070443696E+03  0.00000000000E+00 0. -1.
         24    1    1    2    0    0  0.46007772693E+02  0.10218458677E+02  0.77491542340E+02  0.12121586998E+03  0.80419002446E+02 0.  1.
        -24    1    1    2    0    0 -0.46007772693E+02 -0.10218458677E+02 -0.76866989372E+02  0.12081755690E+03  0.80419002446E+02 0. -1.
<mgrwt>
<rscale>  0 0.93211308E+02</rscale>
<asrwt>0</asrwt>
<pdfrwt beam="1">  1        1 0.18569913E-01 0.93211308E+02</pdfrwt>
<pdfrwt beam="2">  1       -1 0.18665998E-01 0.93211308E+02</pdfrwt>
<totfact> 0.58760249E+03</totfact>
</mgrwt>
</event>
<event>
 4    1  0.6602701E-002  0.9324159E+02  0.7546771E-02  0.1295186E+00
          4   -1    0    0  501    0  0.00000000000E+00  0.00000000000E+00  0.48428943026E+02  0.48428943026E+02  0.00000000000E+00 0. -1.
         -4   -1    0    0    0  501 -0.00000000000E+00 -0.00000000000E+00 -0.26027289784E+03  0.26027289784E+03  0.00000000000E+00 0.  1.
         24    1    1    2    0    0 -0.41040942954E+02  0.23289904704E+02 -0.19946994164E+02  0.95351335545E+02  0.80419002446E+02 0. -1.
        -24    1    1    2    0    0  0.41040942954E+02 -0.23289904704E+02 -0.19189696065E+03  0.21335050532E+03  0.80419002446E+02 0.  1.
<mgrwt>
<rscale>  0 0.93241593E+02</rscale>
<asrwt>0</asrwt>
<pdfrwt beam="1">  1        4 0.74506066E-02 0.93241593E+02</pdfrwt>
<pdfrwt beam="2">  1       -4 0.40041984E-01 0.93241593E+02</pdfrwt>
<totfact> 0.11412734E+03</totfact>
</mgrwt>
</event>
<event>
 4    1  0.6602701E-002  0.9488605E+02  0.7546771E-02  0.1291433E+00
         -1   -1    0    0    0  501 -0.00000000000E+00  0.00000000000E+00  0.12254015645E+02  0.12254015645E+02  0.00000000000E+00 0.  1.
          1   -1    0    0  501    0  0.00000000000E+00 -0.00000000000E+00 -0.12140623378E+04  0.12140623378E+04  0.00000000000E+00 0. -1.
         24    1    1    2    0    0 -0.40084298213E+02 -0.30485979960E+02 -0.21562852838E+03  0.23558230864E+03  0.80419002446E+02 0.  1.
        -24    1    1    2    0    0  0.40084298213E+02  0.30485979960E+02 -0.98617979380E+03  0.99073404483E+03  0.80419002446E+02 0. -1.
<mgrwt>
<rscale>  0 0.94886047E+02</rscale>
<asrwt>0</asrwt>
<pdfrwt beam="1">  1        1 0.18677885E+00 0.94886047E+02</pdfrwt>
<pdfrwt beam="2">  1       -1 0.18852328E-02 0.94886047E+02</pdfrwt>
<totfact> 0.79818774E+03</totfact>
</mgrwt>
</event>
<event>
 4    1  0.6602701E-002  0.1326896E+03  0.7546771E-02  0.1223519E+00
         -1   -1    0    0    0  501 -0.00000000000E+00  0.00000000000E+00  0.23342105960E+03  0.23342105960E+03  0.00000000000E+00 0.  1.
          1   -1    0    0  501    0  0.00000000000E+00 -0.00000000000E+00 -0.79902188387E+02  0.79902188387E+02  0.00000000000E+00 0. -1.
         24    1    1    2    0    0 -0.79245216844E+01 -0.10524507006E+03  0.11382998018E+03  0.17482506445E+03  0.80419002446E+02 0.  1.
        -24    1    1    2    0    0  0.79245216844E+01  0.10524507006E+03  0.39688891024E+02  0.13849818353E+03  0.80419002446E+02 0. -1.
<mgrwt>
<rscale>  0 0.13268963E+03</rscale>
<asrwt>0</asrwt>
<pdfrwt beam="1">  1        1 0.12292644E-01 0.13268963E+03</pdfrwt>
<pdfrwt beam="2">  1       -1 0.35910932E-01 0.13268963E+03</pdfrwt>
<totfact> 0.34875686E+03</totfact>
</mgrwt>
</event>
<event>
 4    1  0.6602701E-002  0.8133439E+02  0.7546771E-02  0.1325307E+00
         -2   -1    0    0    0  501 -0.00000000000E+00  0.00000000000E+00  0.12308886041E+02  0.12308886041E+02  0.00000000000E+00 0.  1.
          2   -1    0    0  501    0  0.00000000000E+00 -0.00000000000E+00 -0.60942813288E+03  0.60942813288E+03  0.00000000000E+00 0. -1.
         24    1    1    2    0    0  0.37465624994E+00 -0.12162509030E+02 -0.40540287694E+03  0.41348128806E+03  0.80419002446E+02 0.  0.
        -24    1    1    2    0    0 -0.37465624994E+00  0.12162509030E+02 -0.19171636990E+03  0.20825573085E+03  0.80419002446E+02 0.  0.
<mgrwt>
<rscale>  0 0.81334390E+02</rscale>
<asrwt>0</asrwt>
<pdfrwt beam="1">  1        2 0.93758198E-01 0.81334390E+02</pdfrwt>
<pdfrwt beam="2">  1       -2 0.18936743E-02 0.81334390E+02</pdfrwt>
<totfact> 0.36664220E+04</totfact>
</mgrwt>
</event>
<event>
 4    1  0.6602701E-002  0.9462293E+02  0.7546771E-02  0.1292028E+00
         -2   -1    0    0    0  501 -0.00000000000E+00  0.00000000000E+00  0.99467087387E+01  0.99467087387E+01  0.00000000000E+00 0.  1.
          2   -1    0    0  501    0  0.00000000000E+00 -0.00000000000E+00 -0.13539012029E+04  0.13539012029E+04  0.00000000000E+00 0. -1.
         24    1    1    2    0    0  0.44525063391E+02  0.22445530417E+02 -0.10667551515E+04  0.10709435337E+04  0.80419002446E+02 0. -1.
        -24    1    1    2    0    0 -0.44525063391E+02 -0.22445530417E+02 -0.27719934264E+03  0.29290437795E+03  0.80419002446E+02 0.  1.
<mgrwt>
<rscale>  0 0.94622931E+02</rscale>
<asrwt>0</asrwt>
<pdfrwt beam="1">  1        2 0.20829254E+00 0.94622931E+02</pdfrwt>
<pdfrwt beam="2">  1       -2 0.15302626E-02 0.94622931E+02</pdfrwt>
<totfact> 0.17653104E+04</totfact>
</mgrwt>
</event>
<event>
 4    1  0.6602701E-002  0.8362954E+02  0.7546771E-02  0.1319056E+00
         -1   -1    0    0    0  501 -0.00000000000E+00  0.00000000000E+00  0.44140558254E+01  0.44140558254E+01  0.00000000000E+00 0.  1.
          1   -1    0    0  501    0  0.00000000000E+00 -0.00000000000E+00 -0.27202845917E+04  0.27202845917E+04  0.00000000000E+00 0. -1.
         24    1    1    2    0    0 -0.16560808764E+02  0.15887842526E+02 -0.47762305442E+03  0.48488935026E+03  0.80419002446E+02 0.  0.
        -24    1    1    2    0    0  0.16560808764E+02 -0.15887842526E+02 -0.22382474815E+04  0.22398092973E+04  0.80419002446E+02 0. -1.
<mgrwt>
<rscale>  0 0.83629540E+02</rscale>
<asrwt>0</asrwt>
<pdfrwt beam="1">  1        1 0.41850603E+00 0.83629540E+02</pdfrwt>
<pdfrwt beam="2">  1       -1 0.67908437E-03 0.83629540E+02</pdfrwt>
<totfact> 0.36827158E+03</totfact>
</mgrwt>
</event>
<event>
 4    1  0.6602701E-002  0.8495141E+02  0.7546771E-02  0.1315560E+00
          3   -1    0    0  501    0  0.00000000000E+00  0.00000000000E+00  0.93543044482E+02  0.93543044482E+02  0.00000000000E+00 0. -1.
         -3   -1    0    0    0  501 -0.00000000000E+00 -0.00000000000E+00 -0.39047605482E+03  0.39047605482E+03  0.00000000000E+00 0.  1.
         24    1    1    2    0    0 -0.27232174561E+02  0.28170060009E+01 -0.36525404603E+03  0.37500301459E+03  0.80419002446E+02 0.  1.
        -24    1    1    2    0    0  0.27232174561E+02 -0.28170060009E+01  0.68321035692E+02  0.10901608471E+03  0.80419002446E+02 0. -1.
<mgrwt>
<rscale>  0 0.84951414E+02</rscale>
<asrwt>0</asrwt>
<pdfrwt beam="1">  1        3 0.14391238E-01 0.84951414E+02</pdfrwt>
<pdfrwt beam="2">  1       -3 0.60073239E-01 0.84951414E+02</pdfrwt>
<totfact> 0.23890131E+02</totfact>
</mgrwt>
</event>
<event>
 4    1  0.9375914E-002  0.8815612E+02  0.7546771E-02  0.1307379E+00
          1   -1    0    0  501    0  0.00000000000E+00  0.00000000000E+00  0.23424251366E+04  0.23424251366E+04  0.00000000000E+00 0. -1.
         -1   -1    0    0    0  501 -0.00000000000E+00 -0.00000000000E+00 -0.10755231634E+02  0.10755231634E+02  0.00000000000E+00 0.  1.
         24    1    1    2    0    0  0.23660985418E+02 -0.27284492638E+02  0.18740603898E+03  0.20710510658E+03  0.80419002446E+02 0.  1.
        -24    1    1    2    0    0 -0.23660985418E+02  0.27284492638E+02  0.21442638660E+04  0.21460752617E+04  0.80419002446E+02 0.  0.
<mgrwt>
<rscale>  0 0.88156121E+02</rscale>
<asrwt>0</asrwt>
<pdfrwt beam="1">  1        1 0.36037269E+00 0.88156121E+02</pdfrwt>
<pdfrwt beam="2">  1       -1 0.16546529E-02 0.88156121E+02</pdfrwt>
<totfact> 0.18395410E+03</totfact>
</mgrwt>
</event>
<event>
 4    1  0.6602701E-002  0.1052306E+03  0.7546771E-02  0.1269666E+00
          1   -1    0    0  501    0  0.00000000000E+00  0.00000000000E+00  0.29054482914E+02  0.29054482914E+02  0.00000000000E+00 0. -1.
         -1   -1    0    0    0  501 -0.00000000000E+00 -0.00000000000E+00 -0.40201352738E+03  0.40201352738E+03  0.00000000000E+00 0.  1.
         24    1    1    2    0    0  0.64715798370E+02 -0.20448307272E+02 -0.23560601368E+03  0.25803813181E+03  0.80419002446E+02 0. -1.
        -24    1    1    2    0    0 -0.64715798370E+02  0.20448307272E+02 -0.13735303078E+03  0.17302987848E+03  0.80419002446E+02 0.  0.
<mgrwt>
<rscale>  0 0.10523062E+03</rscale>
<asrwt>0</asrwt>
<pdfrwt beam="1">  1        1 0.44699209E-02 0.10523062E+03</pdfrwt>
<pdfrwt beam="2">  1       -1 0.61848229E-01 0.10523062E+03</pdfrwt>
<totfact> 0.49933024E+03</totfact>
</mgrwt>
</event>
<event>
 4    1  0.6602701E-002  0.8814922E+02  0.7546771E-02  0.1307397E+00
         -1   -1    0    0    0  501 -0.00000000000E+00  0.00000000000E+00  0.49686845585E+03  0.49686845585E+03  0.00000000000E+00 0.  1.
          1   -1    0    0  501    0  0.00000000000E+00 -0.00000000000E+00 -0.33109612551E+02  0.33109612551E+02  0.00000000000E+00 0. -1.
         24    1    1    2    0    0 -0.34233035056E+02  0.11452870054E+02  0.42437065065E+03  0.43342904150E+03  0.80419002446E+02 0.  1.
        -24    1    1    2    0    0  0.34233035056E+02 -0.11452870054E+02  0.39388192642E+02  0.96549026901E+02  0.80419002446E+02 0.  0.
<mgrwt>
<rscale>  0 0.88149219E+02</rscale>
<asrwt>0</asrwt>
<pdfrwt beam="1">  1        1 0.50937869E-02 0.88149219E+02</pdfrwt>
<pdfrwt beam="2">  1       -1 0.76441296E-01 0.88149219E+02</pdfrwt>
<totfact> 0.27343295E+03</totfact>
</mgrwt>
</event>
<event>
 4    1  0.6602701E-002  0.1386575E+03  0.7546771E-02  0.1215147E+00
          2   -1    0    0  501    0  0.00000000000E+00  0.00000000000E+00  0.10747818106E+03  0.10747818106E+03  0.00000000000E+00 0. -1.
         -2   -1    0    0    0  501 -0.00000000000E+00 -0.00000000000E+00 -0.50054099699E+03  0.50054099699E+03  0.00000000000E+00 0.  1.
         24    1    1    2    0    0  0.10501169423E+03 -0.41607933635E+02  0.47174149078E+02  0.14646259714E+03  0.80419002446E+02 0. -1.
        -24    1    1    2    0    0 -0.10501169423E+03  0.41607933635E+02 -0.44023696500E+03  0.46155658091E+03  0.80419002446E+02 0.  1.
<mgrwt>
<rscale>  0 0.13865746E+03</rscale>
<asrwt>0</asrwt>
<pdfrwt beam="1">  1        2 0.16535104E-01 0.13865746E+03</pdfrwt>
<pdfrwt beam="2">  1       -2 0.77006309E-01 0.13865746E+03</pdfrwt>
<totfact> 0.53274769E+02</totfact>
</mgrwt>
</event>
<event>
 4    1  0.6602701E-002  0.1016180E+03  0.7546771E-02  0.1276930E+00
          2   -1    0    0  501    0  0.00000000000E+00  0.00000000000E+00  0.63516405489E+03  0.63516405489E+03  0.00000000000E+00 0. -1.
         -2   -1    0    0    0  501 -0.00000000000E+00 -0.00000000000E+00 -0.16258894918E+02  0.16258894918E+02  0.00000000000E+00 0.  1.
         24    1    1    2    0    0 -0.61774107459E+02 -0.65546081404E+01  0.31240134401E+03  0.32851304226E+03  0.80419002446E+02 0.  1.
        -24    1    1    2    0    0  0.61774107459E+02  0.65546081404E+01  0.30650381596E+03  0.32290990755E+03  0.80419002446E+02 0. -1.
<mgrwt>
<rscale>  0 0.10161801E+03</rscale>
<asrwt>0</asrwt>
<pdfrwt beam="1">  1        2 0.97717528E-01 0.10161801E+03</pdfrwt>
<pdfrwt beam="2">  1       -2 0.25013689E-02 0.10161801E+03</pdfrwt>
<totfact> 0.24003058E+04</totfact>
</mgrwt>
</event>
<event>
 4    1  0.6602701E-002  0.8448787E+02  0.7546771E-02  0.1316777E+00
          3   -1    0    0  501    0  0.00000000000E+00  0.00000000000E+00  0.84857203126E+02  0.84857203126E+02  0.00000000000E+00 0. -1.
         -3   -1    0    0    0  501 -0.00000000000E+00 -0.00000000000E+00 -0.41970484608E+03  0.41970484608E+03  0.00000000000E+00 0.  1.
         24    1    1    2    0    0 -0.12766839383E+02 -0.22538688691E+02 -0.39301061333E+03  0.40198948098E+03  0.80419002446E+02 0.  1.
        -24    1    1    2    0    0  0.12766839383E+02  0.22538688691E+02  0.58162970373E+02  0.10257256823E+03  0.80419002446E+02 0. -1.
<mgrwt>
<rscale>  0 0.84487873E+02</rscale>
<asrwt>0</asrwt>
<pdfrwt beam="1">  1        3 0.13054954E-01 0.84487873E+02</pdfrwt>
<pdfrwt beam="2">  1       -3 0.64569976E-01 0.84487873E+02</pdfrwt>
<totfact> 0.24240901E+02</totfact>
</mgrwt>
</event>
<event>
 4    1  0.6602701E-002  0.1530527E+03  0.7546771E-02  0.1196771E+00
          1   -1    0    0  501    0  0.00000000000E+00  0.00000000000E+00  0.12952596119E+04  0.12952596119E+04  0.00000000000E+00 0. -1.
         -1   -1    0    0    0  501 -0.00000000000E+00 -0.00000000000E+00 -0.23339479524E+02  0.23339479524E+02  0.00000000000E+00 0.  1.
         24    1    1    2    0    0 -0.65480247468E+02 -0.11256220709E+03  0.32314289388E+03  0.35755623207E+03  0.80419002446E+02 0.  1.
        -24    1    1    2    0    0  0.65480247468E+02  0.11256220709E+03  0.94877723848E+03  0.96104285934E+03  0.80419002446E+02 0. -1.
<mgrwt>
<rscale>  0 0.15305270E+03</rscale>
<asrwt>0</asrwt>
<pdfrwt beam="1">  1        1 0.19927065E+00 0.15305270E+03</pdfrwt>
<pdfrwt beam="2">  1       -1 0.35906902E-02 0.15305270E+03</pdfrwt>
<totfact> 0.28196062E+03</totfact>
</mgrwt>
</event>
<event>
 4    1  0.6602701E-002  0.9551780E+02  0.7546771E-02  0.1290014E+00
         -1   -1    0    0    0  501 -0.00000000000E+00  0.00000000000E+00  0.71977065169E+01  0.71977065169E+01  0.00000000000E+00 0.  1.
          1   -1    0    0  501    0  0.00000000000E+00 -0.00000000000E+00 -0.13467791908E+04  0.13467791908E+04  0.00000000000E+00 0. -1.
         24    1    1    2    0    0  0.23803856444E+02  0.45714447694E+02 -0.50561820766E+03  0.51456138816E+03  0.80419002446E+02 0.  1.
        -24    1    1    2    0    0 -0.23803856444E+02 -0.45714447694E+02 -0.83396327665E+03  0.83941550919E+03  0.80419002446E+02 0. -1.
<mgrwt>
<rscale>  0 0.95517801E+02</rscale>
<asrwt>0</asrwt>
<pdfrwt beam="1">  1        1 0.20719686E+00 0.95517801E+02</pdfrwt>
<pdfrwt beam="2">  1       -1 0.11073391E-02 0.95517801E+02</pdfrwt>
<totfact> 0.13888416E+04</totfact>
</mgrwt>
</event>
<event>
 4    1  0.6602701E-002  0.8160766E+02  0.7546771E-02  0.1324550E+00
          2   -1    0    0  501    0  0.00000000000E+00  0.00000000000E+00  0.48091371724E+03  0.48091371724E+03  0.00000000000E+00 0. -1.
         -2   -1    0    0    0  501 -0.00000000000E+00 -0.00000000000E+00 -0.11020851818E+03  0.11020851818E+03  0.00000000000E+00 0.  1.
         24    1    1    2    0    0 -0.10690611103E+01 -0.13836602018E+02  0.46172122126E+03  0.46887769894E+03  0.80419002446E+02 0. -1.
        -24    1    1    2    0    0  0.10690611103E+01  0.13836602018E+02 -0.91016022206E+02  0.12224453648E+03  0.80419002446E+02 0.  1.
<mgrwt>
<rscale>  0 0.81607661E+02</rscale>
<asrwt>0</asrwt>
<pdfrwt beam="1">  1        2 0.73986725E-01 0.81607661E+02</pdfrwt>
<pdfrwt beam="2">  1       -2 0.16955157E-01 0.81607661E+02</pdfrwt>
<totfact> 0.17545637E+03</totfact>
</mgrwt>
</event>
<event>
 4    1  0.6602701E-002  0.1209941E+03  0.7546771E-02  0.1241466E+00
         -2   -1    0    0    0  501 -0.00000000000E+00  0.00000000000E+00  0.10718917649E+03  0.10718917649E+03  0.00000000000E+00 0.  1.
          2   -1    0    0  501    0  0.00000000000E+00 -0.00000000000E+00 -0.28905413764E+03  0.28905413764E+03  0.00000000000E+00 0. -1.
         24    1    1    2    0    0  0.57006392115E+02 -0.70161387453E+02 -0.23482720448E+03  0.26416544239E+03  0.80419002446E+02 0. -1.
        -24    1    1    2    0    0 -0.57006392115E+02  0.70161387453E+02  0.52962243329E+02  0.13207787174E+03  0.80419002446E+02 0.  1.
<mgrwt>
<rscale>  0 0.12099407E+03</rscale>
<asrwt>0</asrwt>
<pdfrwt beam="1">  1        2 0.44469867E-01 0.12099407E+03</pdfrwt>
<pdfrwt beam="2">  1       -2 0.16490643E-01 0.12099407E+03</pdfrwt>
<totfact> 0.31978922E+03</totfact>
</mgrwt>
</event>
<event>
 4    1  0.6602701E-002  0.9069020E+02  0.7546771E-02  0.1301189E+00
          1   -1    0    0  501    0  0.00000000000E+00  0.00000000000E+00  0.64389573938E+02  0.64389573938E+02  0.00000000000E+00 0. -1.
         -1   -1    0    0    0  501 -0.00000000000E+00 -0.00000000000E+00 -0.29717350354E+03  0.29717350354E+03  0.00000000000E+00 0.  1.
         24    1    1    2    0    0 -0.40459594436E+02 -0.10978019525E+02 -0.25289958415E+03  0.26866877622E+03  0.80419002446E+02 0.  1.
        -24    1    1    2    0    0  0.40459594436E+02  0.10978019525E+02  0.20115654550E+02  0.92894301262E+02  0.80419002446E+02 0. -1.
<mgrwt>
<rscale>  0 0.90690196E+02</rscale>
<asrwt>0</asrwt>
<pdfrwt beam="1">  1        1 0.99060887E-02 0.90690196E+02</pdfrwt>
<pdfrwt beam="2">  1       -1 0.45718999E-01 0.90690196E+02</pdfrwt>
<totfact> 0.29666927E+03</totfact>
</mgrwt>
</event>
<event>
 4    1  0.6602701E-002  0.1071853E+03  0.7546771E-02  0.1265873E+00
         -1   -1    0    0    0  501 -0.00000000000E+00  0.00000000000E+00  0.43023620164E+02  0.43023620164E+02  0.00000000000E+00 0.  1.
          1   -1    0    0  501    0  0.00000000000E+00 -0.00000000000E+00 -0.30776393127E+03  0.30776393127E+03  0.00000000000E+00 0. -1.
         24    1    1    2    0    0 -0.12472721084E+02  0.69755973277E+02 -0.68562444488E+02  0.12723792409E+03  0.80419002446E+02 0.  1.
        -24    1    1    2    0    0  0.12472721084E+02 -0.69755973277E+02 -0.19617786662E+03  0.22354962734E+03  0.80419002446E+02 0. -1.
<mgrwt>
<rscale>  0 0.10718526E+03</rscale>
<asrwt>0</asrwt>
<pdfrwt beam="1">  1        1 0.47348297E-01 0.10718526E+03</pdfrwt>
<pdfrwt beam="2">  1       -1 0.66190185E-02 0.10718526E+03</pdfrwt>
<totfact> 0.90838701E+03</totfact>
</mgrwt>
</event>
<event>
 4    1  0.6602701E-002  0.8902633E+02  0.7546771E-02  0.1305227E+00
          2   -1    0    0  501    0  0.00000000000E+00  0.00000000000E+00  0.64091400577E+02  0.64091400577E+02  0.00000000000E+00 0. -1.
         -2   -1    0    0    0  501 -0.00000000000E+00 -0.00000000000E+00 -0.13319127625E+03  0.13319127625E+03  0.00000000000E+00 0.  1.
         24    1    1    2    0    0  0.38163919336E+02 -0.14093502113E+01 -0.81656564083E+01  0.89400027439E+02  0.80419002446E+02 0. -1.
        -24    1    1    2    0    0 -0.38163919336E+02  0.14093502113E+01 -0.60934219263E+02  0.10788264939E+03  0.80419002446E+02 0.  1.
<mgrwt>
<rscale>  0 0.89026327E+02</rscale>
<asrwt>0</asrwt>
<pdfrwt beam="1">  1        2 0.98602154E-02 0.89026327E+02</pdfrwt>
<pdfrwt beam="2">  1       -2 0.20490966E-01 0.89026327E+02</pdfrwt>
<totfact> 0.11794117E+04</totfact>
</mgrwt>
</event>
<event>
 4    1  0.6602701E-002  0.9654756E+02  0.7546771E-02  0.1287728E+00
          1   -1    0    0  501    0  0.00000000000E+00  0.00000000000E+00  0.13527678208E+04  0.13527678208E+04  0.00000000000E+00 0. -1.
         -1   -1    0    0    0  501 -0.00000000000E+00 -0.00000000000E+00 -0.70586508891E+01  0.70586508891E+01  0.00000000000E+00 0.  1.
         24    1    1    2    0    0  0.50717679092E+02  0.16790826550E+02  0.56795678070E+03  0.57610444845E+03  0.80419002446E+02 0. -1.
        -24    1    1    2    0    0 -0.50717679092E+02 -0.16790826550E+02  0.77775238919E+03  0.78372202322E+03  0.80419002446E+02 0.  1.
<mgrwt>
<rscale>  0 0.96547557E+02</rscale>
<asrwt>0</asrwt>
<pdfrwt beam="1">  1        1 0.20811792E+00 0.96547557E+02</pdfrwt>
<pdfrwt beam="2">  1       -1 0.10859474E-02 0.96547557E+02</pdfrwt>
<totfact> 0.14159478E+04</totfact>
</mgrwt>
</event>
<event>
 4    1  0.6602701E-002  0.8046075E+02  0.7546771E-02  0.1327749E+00
         -2   -1    0    0    0  501 -0.00000000000E+00  0.00000000000E+00  0.27984245153E+02  0.27984245153E+02  0.00000000000E+00 0.  1.
          2   -1    0    0  501    0  0.00000000000E+00 -0.00000000000E+00 -0.43915167782E+03  0.43915167782E+03  0.00000000000E+00 0. -1.
         24    1    1    2    0    0 -0.10333683241E+01  0.23766684577E+01 -0.36625521332E+03  0.37498908470E+03  0.80419002446E+02 0.  0.
        -24    1    1    2    0    0  0.10333683241E+01 -0.23766684577E+01 -0.44912219346E+02  0.92146838274E+02  0.80419002446E+02 0.  1.
<mgrwt>
<rscale>  0 0.80460750E+02</rscale>
<asrwt>0</asrwt>
<pdfrwt beam="1">  1        2 0.67561793E-01 0.80460750E+02</pdfrwt>
<pdfrwt beam="2">  1       -2 0.43052687E-02 0.80460750E+02</pdfrwt>
<totfact> 0.15901914E+04</totfact>
</mgrwt>
</event>
<event>
 4    1  0.6602701E-002  0.8081817E+02  0.7546771E-02  0.1326746E+00
          2   -1    0    0  501    0  0.00000000000E+00  0.00000000000E+00  0.46110529753E+03  0.46110529753E+03  0.00000000000E+00 0. -1.
         -2   -1    0    0    0  501 -0.00000000000E+00 -0.00000000000E+00 -0.14902368619E+02  0.14902368619E+02  0.00000000000E+00 0.  1.
         24    1    1    2    0    0  0.74363917409E+01 -0.30095659573E+01  0.17016098371E+03  0.18837816684E+03  0.80419002446E+02 0.  1.
        -24    1    1    2    0    0 -0.74363917409E+01  0.30095659573E+01  0.27604194520E+03  0.28762949931E+03  0.80419002446E+02 0.  0.
<mgrwt>
<rscale>  0 0.80818160E+02</rscale>
<asrwt>0</asrwt>
<pdfrwt beam="1">  1        2 0.70939265E-01 0.80818170E+02</pdfrwt>
<pdfrwt beam="2">  1       -2 0.22926725E-02 0.80818170E+02</pdfrwt>
<totfact> 0.37721613E+04</totfact>
</mgrwt>
</event>
<event>
 4    1  0.6602701E-002  0.1099960E+03  0.7546771E-02  0.1260577E+00
          1   -1    0    0  501    0  0.00000000000E+00  0.00000000000E+00  0.87031484209E+03  0.87031484209E+03  0.00000000000E+00 0. -1.
         -1   -1    0    0    0  501 -0.00000000000E+00 -0.00000000000E+00 -0.22598739122E+02  0.22598739122E+02  0.00000000000E+00 0.  1.
         24    1    1    2    0    0 -0.60961599024E+02 -0.43767550463E+02  0.14689926549E+03  0.18351709780E+03  0.80419002446E+02 0.  1.
        -24    1    1    2    0    0  0.60961599024E+02  0.43767550463E+02  0.70081683748E+03  0.70939648342E+03  0.80419002446E+02 0. -1.
<mgrwt>
<rscale>  0 0.10999605E+03</rscale>
<asrwt>0</asrwt>
<pdfrwt beam="1">  1        1 0.13389457E+00 0.10999605E+03</pdfrwt>
<pdfrwt beam="2">  1       -1 0.34767298E-02 0.10999605E+03</pdfrwt>
<totfact> 0.58712129E+03</totfact>
</mgrwt>
</event>
<event>
 4    1  0.6602701E-002  0.1112375E+03  0.7546771E-02  0.1258295E+00
          2   -1    0    0  501    0  0.00000000000E+00  0.00000000000E+00  0.31841019900E+02  0.31841019900E+02  0.00000000000E+00 0. -1.
         -2   -1    0    0    0  501 -0.00000000000E+00 -0.00000000000E+00 -0.79504186267E+03  0.79504186267E+03  0.00000000000E+00 0.  1.
         24    1    1    2    0    0 -0.67084783298E+02 -0.37499266500E+02 -0.85995129634E+02  0.14060206760E+03  0.80419002446E+02 0. -1.
        -24    1    1    2    0    0  0.67084783298E+02  0.37499266500E+02 -0.67720571314E+03  0.68628081497E+03  0.80419002446E+02 0.  1.
<mgrwt>
<rscale>  0 0.11123749E+03</rscale>
<asrwt>0</asrwt>
<pdfrwt beam="1">  1        2 0.48986189E-02 0.11123749E+03</pdfrwt>
<pdfrwt beam="2">  1       -2 0.12231412E+00 0.11123749E+03</pdfrwt>
<totfact> 0.82499013E+02</totfact>
</mgrwt>
</event>
<event>
 4    1  0.6602701E-002  0.1030664E+03  0.7546771E-02  0.1273977E+00
          1   -1    0    0  501    0  0.00000000000E+00  0.00000000000E+00  0.39593076135E+03  0.39593076135E+03  0.00000000000E+00 0. -1.
         -1   -1    0    0    0  501 -0.00000000000E+00 -0.00000000000E+00 -0.28910455368E+02  0.28910455368E+02  0.00000000000E+00 0.  1.
         24    1    1    2    0    0 -0.49181059391E+02  0.41673517997E+02  0.12652164220E+03  0.16318823672E+03  0.80419002446E+02 0.  1.
        -24    1    1    2    0    0  0.49181059391E+02 -0.41673517997E+02  0.24049866378E+03  0.26165298000E+03  0.80419002446E+02 0. -1.
<mgrwt>
<rscale>  0 0.10306636E+03</rscale>
<asrwt>0</asrwt>
<pdfrwt beam="1">  1        1 0.60912421E-01 0.10306636E+03</pdfrwt>
<pdfrwt beam="2">  1       -1 0.44477626E-02 0.10306636E+03</pdfrwt>
<totfact> 0.11913043E+04</totfact>
</mgrwt>
</event>
<event>
 4    1  0.6602701E-002  0.1237259E+03  0.7546771E-02  0.1237074E+00
          1   -1    0    0  501    0  0.00000000000E+00  0.00000000000E+00  0.20623799062E+04  0.20623799062E+04  0.00000000000E+00 0. -1.
         -1   -1    0    0    0  501 -0.00000000000E+00 -0.00000000000E+00 -0.93608124814E+01  0.93608124814E+01  0.00000000000E+00 0.  1.
         24    1    1    2    0    0  0.68231575285E+02  0.64694077195E+02  0.55514535595E+03  0.56876572829E+03  0.80419002446E+02 0.  1.
        -24    1    1    2    0    0 -0.68231575285E+02 -0.64694077195E+02  0.14978737377E+04  0.15029749903E+04  0.80419002446E+02 0. -1.
<mgrwt>
<rscale>  0 0.12372586E+03</rscale>
<asrwt>0</asrwt>
<pdfrwt beam="1">  1        1 0.31728885E+00 0.12372586E+03</pdfrwt>
<pdfrwt beam="2">  1       -1 0.14401266E-02 0.12372586E+03</pdfrwt>
<totfact> 0.33834701E+03</totfact>
</mgrwt>
</event>
<event>
 4    1  0.6602701E-002  0.8736073E+02  0.7546771E-02  0.1309372E+00
          2   -1    0    0  501    0  0.00000000000E+00  0.00000000000E+00  0.17769847479E+04  0.17769847479E+04  0.00000000000E+00 0. -1.
         -2   -1    0    0    0  501 -0.00000000000E+00 -0.00000000000E+00 -0.58116344152E+01  0.58116344152E+01  0.00000000000E+00 0.  1.
         24    1    1    2    0    0  0.33259357700E+02 -0.76482388911E+01  0.13409765161E+04  0.13438191520E+04  0.80419002446E+02 0. -1.
        -24    1    1    2    0    0 -0.33259357700E+02  0.76482388911E+01  0.43019659738E+03  0.43897723037E+03  0.80419002446E+02 0.  1.
<mgrwt>
<rscale>  0 0.87360726E+02</rscale>
<asrwt>0</asrwt>
<pdfrwt beam="1">  1        2 0.27338184E+00 0.87360726E+02</pdfrwt>
<pdfrwt beam="2">  1       -2 0.89409902E-03 0.87360726E+02</pdfrwt>
<totfact> 0.22927048E+04</totfact>
</mgrwt>
</event>
<event>
 4    1  0.6602701E-002  0.1178344E+03  0.7546771E-02  0.1246713E+00
          3   -1    0    0  501    0  0.00000000000E+00  0.00000000000E+00  0.84807173758E+02  0.84807173758E+02  0.00000000000E+00 0. -1.
         -3   -1    0    0    0  501 -0.00000000000E+00 -0.00000000000E+00 -0.16594194266E+03  0.16594194266E+03  0.00000000000E+00 0.  1.
         24    1    1    2    0    0  0.84541621562E+02  0.16445031284E+02 -0.55063107586E+02  0.13006493225E+03  0.80419002446E+02 0.  1.
        -24    1    1    2    0    0 -0.84541621562E+02 -0.16445031284E+02 -0.26071661318E+02  0.12068418417E+03  0.80419002446E+02 0. -1.
<mgrwt>
<rscale>  0 0.11783438E+03</rscale>
<asrwt>0</asrwt>
<pdfrwt beam="1">  1        3 0.13047257E-01 0.11783438E+03</pdfrwt>
<pdfrwt beam="2">  1       -3 0.25529530E-01 0.11783438E+03</pdfrwt>
<totfact> 0.15281162E+03</totfact>
</mgrwt>
</event>
<event>
 4    1  0.6602701E-002  0.1117987E+03  0.7546771E-02  0.1257275E+00
          2   -1    0    0  501    0  0.00000000000E+00  0.00000000000E+00  0.11165688123E+04  0.11165688123E+04  0.00000000000E+00 0. -1.
         -2   -1    0    0    0  501 -0.00000000000E+00 -0.00000000000E+00 -0.13535183712E+02  0.13535183712E+02  0.00000000000E+00 0.  1.
         24    1    1    2    0    0 -0.20240647724E+01  0.77637857190E+02  0.78651665824E+03  0.79442268557E+03  0.80419002446E+02 0. -1.
        -24    1    1    2    0    0  0.20240647724E+01 -0.77637857190E+02  0.31651697037E+03  0.33568131046E+03  0.80419002446E+02 0.  0.
<mgrwt>
<rscale>  0 0.11179870E+03</rscale>
<asrwt>0</asrwt>
<pdfrwt beam="1">  1        2 0.17177975E+00 0.11179870E+03</pdfrwt>
<pdfrwt beam="2">  1       -2 0.20823368E-02 0.11179870E+03</pdfrwt>
<totfact> 0.15423217E+04</totfact>
</mgrwt>
</event>
<event>
 4    1  0.6602701E-002  0.8564572E+02  0.7546771E-02  0.1313753E+00
          2   -1    0    0  501    0  0.00000000000E+00  0.00000000000E+00  0.43611745674E+02  0.43611745674E+02  0.00000000000E+00 0. -1.
         -2   -1    0    0    0  501 -0.00000000000E+00 -0.00000000000E+00 -0.27720418463E+03  0.27720418463E+03  0.00000000000E+00 0.  1.
         24    1    1    2    0    0 -0.27556830737E+02  0.10420841706E+02 -0.16204637603E+02  0.87165240184E+02  0.80419002446E+02 0.  0.
        -24    1    1    2    0    0  0.27556830737E+02 -0.10420841706E+02 -0.21738780135E+03  0.23365069012E+03  0.80419002446E+02 0.  1.
<mgrwt>
<rscale>  0 0.85645717E+02</rscale>
<asrwt>0</asrwt>
<pdfrwt beam="1">  1        2 0.67094994E-02 0.85645717E+02</pdfrwt>
<pdfrwt beam="2">  1       -2 0.42646797E-01 0.85645717E+02</pdfrwt>
<totfact> 0.51285389E+03</totfact>
</mgrwt>
</event>
<event>
 4    1  0.6602701E-002  0.8613293E+02  0.7546771E-02  0.1312496E+00
         -2   -1    0    0    0  501 -0.00000000000E+00  0.00000000000E+00  0.10565866420E+03  0.10565866420E+03  0.00000000000E+00 0.  1.
          2   -1    0    0  501    0  0.00000000000E+00 -0.00000000000E+00 -0.34490893399E+03  0.34490893399E+03  0.00000000000E+00 0. -1.
         24    1    1    2    0    0  0.16302064581E+02  0.26189867103E+02 -0.32067409462E+03  0.33204029479E+03  0.80419002446E+02 0. -1.
        -24    1    1    2    0    0 -0.16302064581E+02 -0.26189867103E+02  0.81423824827E+02  0.11852730340E+03  0.80419002446E+02 0.  1.
<mgrwt>
<rscale>  0 0.86132934E+02</rscale>
<asrwt>0</asrwt>
<pdfrwt beam="1">  1        2 0.53062912E-01 0.86132934E+02</pdfrwt>
<pdfrwt beam="2">  1       -2 0.16255179E-01 0.86132934E+02</pdfrwt>
<totfact> 0.26739366E+03</totfact>
</mgrwt>
</event>
<event>
 4    1  0.6602701E-002  0.8283697E+02  0.7546771E-02  0.1321188E+00
          1   -1    0    0  501    0  0.00000000000E+00  0.00000000000E+00  0.91940996996E+03  0.91940996996E+03  0.00000000000E+00 0. -1.
         -1   -1    0    0    0  501 -0.00000000000E+00 -0.00000000000E+00 -0.88555879647E+01  0.88555879647E+01  0.00000000000E+00 0.  1.
         24    1    1    2    0    0  0.71280381405E+01  0.18545599765E+02  0.27125265608E+03  0.28361940622E+03  0.80419002446E+02 0.  1.
        -24    1    1    2    0    0 -0.71280381405E+01 -0.18545599765E+02  0.63930172591E+03  0.64464615170E+03  0.80419002446E+02 0. -1.
<mgrwt>
<rscale>  0 0.82836973E+02</rscale>
<asrwt>0</asrwt>
<pdfrwt beam="1">  1        1 0.14144761E+00 0.82836973E+02</pdfrwt>
<pdfrwt beam="2">  1       -1 0.13623989E-02 0.82836973E+02</pdfrwt>
<totfact> 0.20192362E+04</totfact>
</mgrwt>
</event>
<event>
 4    1  0.6602701E-002  0.1268849E+03  0.7546771E-02  0.1232152E+00
         -1   -1    0    0    0  501 -0.00000000000E+00  0.00000000000E+00  0.23039722679E+02  0.23039722679E+02  0.00000000000E+00 0.  1.
          1   -1    0    0  501    0  0.00000000000E+00 -0.00000000000E+00 -0.13857081687E+04  0.13857081687E+04  0.00000000000E+00 0. -1.
         24    1    1    2    0    0  0.84900630116E+02 -0.49238769313E+02 -0.18540260648E+03  0.22466400656E+03  0.80419002446E+02 0.  1.
        -24    1    1    2    0    0 -0.84900630116E+02  0.49238769313E+02 -0.11772658395E+04  0.11840838848E+04  0.80419002446E+02 0. -1.
<mgrwt>
<rscale>  0 0.12688495E+03</rscale>
<asrwt>0</asrwt>
<pdfrwt beam="1">  1        1 0.21318584E+00 0.12688495E+03</pdfrwt>
<pdfrwt beam="2">  1       -1 0.35445733E-02 0.12688495E+03</pdfrwt>
<totfact> 0.24949350E+03</totfact>
</mgrwt>
</event>
<event>
 4    1  0.6602701E-002  0.8346655E+02  0.7546771E-02  0.1319492E+00
         -2   -1    0    0    0  501 -0.00000000000E+00  0.00000000000E+00  0.11035325693E+03  0.11035325693E+03  0.00000000000E+00 0.  1.
          2   -1    0    0  501    0  0.00000000000E+00 -0.00000000000E+00 -0.11731530348E+03  0.11731530348E+03  0.00000000000E+00 0. -1.
         24    1    1    2    0    0 -0.87895279156E+01 -0.20547359571E+02 -0.80844172362E+02  0.11620002558E+03  0.80419002446E+02 0. -1.
        -24    1    1    2    0    0  0.87895279156E+01  0.20547359571E+02  0.73882125810E+02  0.11146853482E+03  0.80419002446E+02 0.  1.
<mgrwt>
<rscale>  0 0.83466555E+02</rscale>
<asrwt>0</asrwt>
<pdfrwt beam="1">  1        2 0.18048508E-01 0.83466555E+02</pdfrwt>
<pdfrwt beam="2">  1       -2 0.16977424E-01 0.83466555E+02</pdfrwt>
<totfact> 0.78898196E+03</totfact>
</mgrwt>
</event>
<event>
 4    1  0.6602701E-002  0.9439957E+02  0.7546771E-02  0.1292534E+00
          2   -1    0    0  501    0  0.00000000000E+00  0.00000000000E+00  0.11456760529E+04  0.11456760529E+04  0.00000000000E+00 0. -1.
         -2   -1    0    0    0  501 -0.00000000000E+00 -0.00000000000E+00 -0.18320441807E+02  0.18320441807E+02  0.00000000000E+00 0.  1.
         24    1    1    2    0    0 -0.45152400361E+02  0.20132644563E+02  0.10051674606E+04  0.10095904627E+04  0.80419002446E+02 0. -1.
        -24    1    1    2    0    0  0.45152400361E+02 -0.20132644563E+02  0.12218815049E+03  0.15440603198E+03  0.80419002446E+02 0.  1.
<mgrwt>
<rscale>  0 0.94399569E+02</rscale>
<asrwt>0</asrwt>
<pdfrwt beam="1">  1        2 0.17625780E+00 0.94399569E+02</pdfrwt>
<pdfrwt beam="2">  1       -2 0.28185304E-02 0.94399569E+02</pdfrwt>
<totfact> 0.94781120E+03</totfact>
</mgrwt>
</event>
<event>
 4    1  0.6602701E-002  0.1586485E+03  0.7546771E-02  0.1190231E+00
          2   -1    0    0  501    0  0.00000000000E+00  0.00000000000E+00  0.63156395620E+03  0.63156395620E+03  0.00000000000E+00 0. -1.
         -2   -1    0    0    0  501 -0.00000000000E+00 -0.00000000000E+00 -0.59729863665E+02  0.59729863665E+02  0.00000000000E+00 0.  1.
         24    1    1    2    0    0  0.12676776915E+03  0.51303761597E+02  0.48531332945E+03  0.51058631685E+03  0.80419002446E+02 0. -1.
        -24    1    1    2    0    0 -0.12676776915E+03 -0.51303761597E+02  0.86520763084E+02  0.18070750302E+03  0.80419002446E+02 0.  0.
<mgrwt>
<rscale>  0 0.15864854E+03</rscale>
<asrwt>0</asrwt>
<pdfrwt beam="1">  1        2 0.97163681E-01 0.15864854E+03</pdfrwt>
<pdfrwt beam="2">  1       -2 0.91892103E-02 0.15864854E+03</pdfrwt>
<totfact> 0.35338209E+03</totfact>
</mgrwt>
</event>
<event>
 4    1  0.6602701E-002  0.8181911E+02  0.7546771E-02  0.1323967E+00
          2   -1    0    0  501    0  0.00000000000E+00  0.00000000000E+00  0.31769860737E+04  0.31769860737E+04  0.00000000000E+00 0. -1.
         -2   -1    0    0    0  501 -0.00000000000E+00 -0.00000000000E+00 -0.90616515969E+01  0.90616515969E+01  0.00000000000E+00 0.  1.
         24    1    1    2    0    0 -0.14680092834E+02  0.34125210611E+01  0.29795327784E+04  0.29806559587E+04  0.80419002446E+02 0. -1.
        -24    1    1    2    0    0  0.14680092834E+02 -0.34125210611E+01  0.18839164364E+03  0.20539176657E+03  0.80419002446E+02 0.  1.
<mgrwt>
<rscale>  0 0.81819108E+02</rscale>
<asrwt>0</asrwt>
<pdfrwt beam="1">  1        2 0.48876620E+00 0.81819108E+02</pdfrwt>
<pdfrwt beam="2">  1       -2 0.13941028E-02 0.81819108E+02</pdfrwt>
<totfact> 0.22181307E+03</totfact>
</mgrwt>
</event>
<event>
 4    1  0.6602701E-002  0.8336114E+02  0.7546771E-02  0.1319775E+00
          3   -1    0    0  501    0  0.00000000000E+00  0.00000000000E+00  0.46513761683E+03  0.46513761683E+03  0.00000000000E+00 0. -1.
         -3   -1    0    0    0  501 -0.00000000000E+00 -0.00000000000E+00 -0.16984565246E+02  0.16984565246E+02  0.00000000000E+00 0.  1.
         24    1    1    2    0    0  0.21001172369E+02  0.63886143607E+01  0.14043579221E+03  0.16331347563E+03  0.80419002446E+02 0.  1.
        -24    1    1    2    0    0 -0.21001172369E+02 -0.63886143607E+01  0.30771725938E+03  0.31880870645E+03  0.80419002446E+02 0.  0.
<mgrwt>
<rscale>  0 0.83361140E+02</rscale>
<asrwt>0</asrwt>
<pdfrwt beam="1">  1        3 0.71559624E-01 0.83361140E+02</pdfrwt>
<pdfrwt beam="2">  1       -3 0.26130104E-02 0.83361140E+02</pdfrwt>
<totfact> 0.24948611E+03</totfact>
</mgrwt>
</event>
<event>
 4    1  0.6602701E-002  0.1003368E+03  0.7546771E-02  0.1279589E+00
          2   -1    0    0  501    0  0.00000000000E+00  0.00000000000E+00  0.12317164347E+03  0.12317164347E+03  0.00000000000E+00 0. -1.
         -2   -1    0    0    0  501 -0.00000000000E+00 -0.00000000000E+00 -0.16528582131E+03  0.16528582131E+03  0.00000000000E+00 0.  1.
         24    1    1    2    0    0  0.47388647283E+02  0.36804424182E+02  0.81486541671E+02  0.12925757989E+03  0.80419002446E+02 0. -1.
        -24    1    1    2    0    0 -0.47388647283E+02 -0.36804424182E+02 -0.12360071951E+03  0.15919988489E+03  0.80419002446E+02 0.  1.
<mgrwt>
<rscale>  0 0.10033676E+03</rscale>
<asrwt>0</asrwt>
<pdfrwt beam="1">  1        2 0.18949484E-01 0.10033676E+03</pdfrwt>
<pdfrwt beam="2">  1       -2 0.25428588E-01 0.10033676E+03</pdfrwt>
<totfact> 0.38338705E+03</totfact>
</mgrwt>
</event>
<event>
 4    1  0.6602701E-002  0.1002787E+03  0.7546771E-02  0.1279711E+00
         -2   -1    0    0    0  501 -0.00000000000E+00  0.00000000000E+00  0.13515680033E+03  0.13515680033E+03  0.00000000000E+00 0.  1.
          2   -1    0    0  501    0  0.00000000000E+00 -0.00000000000E+00 -0.36876943247E+03  0.36876943247E+03  0.00000000000E+00 0. -1.
         24    1    1    2    0    0  0.47403593472E+02  0.36626522633E+02 -0.34192162747E+03  0.35632319335E+03  0.80419002446E+02 0. -1.
        -24    1    1    2    0    0 -0.47403593472E+02 -0.36626522633E+02  0.10830899533E+03  0.14760303946E+03  0.80419002446E+02 0.  1.
<mgrwt>
<rscale>  0 0.10027871E+03</rscale>
<asrwt>0</asrwt>
<pdfrwt beam="1">  1        2 0.56733759E-01 0.10027871E+03</pdfrwt>
<pdfrwt beam="2">  1       -2 0.20793354E-01 0.10027871E+03</pdfrwt>
<totfact> 0.16677472E+03</totfact>
</mgrwt>
</event>
<event>
 4    1  0.6602701E-002  0.1044479E+03  0.7546771E-02  0.1271211E+00
          1   -1    0    0  501    0  0.00000000000E+00  0.00000000000E+00  0.70490139522E+02  0.70490139522E+02  0.00000000000E+00 0. -1.
         -1   -1    0    0    0  501 -0.00000000000E+00 -0.00000000000E+00 -0.16451390981E+03  0.16451390981E+03  0.00000000000E+00 0.  1.
         24    1    1    2    0    0  0.65770811416E+02 -0.10786364466E+02 -0.75616515847E+02  0.12894657311E+03  0.80419002446E+02 0.  1.
        -24    1    1    2    0    0 -0.65770811416E+02  0.10786364466E+02 -0.18407254439E+02  0.10605747622E+03  0.80419002446E+02 0. -1.
<mgrwt>
<rscale>  0 0.10444789E+03</rscale>
<asrwt>0</asrwt>
<pdfrwt beam="1">  1        1 0.10844637E-01 0.10444789E+03</pdfrwt>
<pdfrwt beam="2">  1       -1 0.25309832E-01 0.10444789E+03</pdfrwt>
<totfact> 0.72639949E+03</totfact>
</mgrwt>
</event>
<event>
 4    1  0.6602701E-002  0.8741791E+02  0.7546771E-02  0.1309228E+00
          3   -1    0    0  501    0  0.00000000000E+00  0.00000000000E+00  0.24677913747E+03  0.24677913747E+03  0.00000000000E+00 0. -1.
         -3   -1    0    0    0  501 -0.00000000000E+00 -0.00000000000E+00 -0.35374335603E+02  0.35374335603E+02  0.00000000000E+00 0.  1.
         24    1    1    2    0    0 -0.26271296448E+02 -0.22011207829E+02  0.55903112367E+02  0.10376438798E+03  0.80419002446E+02 0.  1.
        -24    1    1    2    0    0  0.26271296448E+02  0.22011207829E+02  0.15550168950E+03  0.17838908509E+03  0.80419002446E+02 0. -1.
<mgrwt>
<rscale>  0 0.87417906E+02</rscale>
<asrwt>0</asrwt>
<pdfrwt beam="1">  1        3 0.37966020E-01 0.87417906E+02</pdfrwt>
<pdfrwt beam="2">  1       -3 0.54422056E-02 0.87417906E+02</pdfrwt>
<totfact> 0.28650490E+03</totfact>
</mgrwt>
</event>
<event>
 4    1  0.6602701E-002  0.8737815E+02  0.7546771E-02  0.1309328E+00
         -2   -1    0    0    0  501 -0.00000000000E+00  0.00000000000E+00  0.59552447934E+01  0.59552447934E+01  0.00000000000E+00 0.  1.
          2   -1    0    0  501    0  0.00000000000E+00 -0.00000000000E+00 -0.14957921891E+04  0.14957921891E+04  0.00000000000E+00 0. -1.
         24    1    1    2    0    0  0.11057160488E+01 -0.34154047484E+02 -0.46107841834E+03  0.46928482330E+03  0.80419002446E+02 0.  0.
        -24    1    1    2    0    0 -0.11057160488E+01  0.34154047484E+02 -0.10287585260E+04  0.10324626106E+04  0.80419002446E+02 0.  0.
<mgrwt>
<rscale>  0 0.87378140E+02</rscale>
<asrwt>0</asrwt>
<pdfrwt beam="1">  1        2 0.23012198E+00 0.87378151E+02</pdfrwt>
<pdfrwt beam="2">  1       -2 0.91619107E-03 0.87378151E+02</pdfrwt>
<totfact> 0.30701504E+04</totfact>
</mgrwt>
</event>
<event>
 4    1  0.6602701E-002  0.1077881E+03  0.7546771E-02  0.1264722E+00
          1   -1    0    0  501    0  0.00000000000E+00  0.00000000000E+00  0.81249173357E+02  0.81249173357E+02  0.00000000000E+00 0. -1.
         -1   -1    0    0    0  501 -0.00000000000E+00 -0.00000000000E+00 -0.51900419620E+03  0.51900419620E+03  0.00000000000E+00 0.  1.
         24    1    1    2    0    0 -0.70973756436E+02 -0.10666666396E+02 -0.47433468882E+03  0.48642745075E+03  0.80419002446E+02 0.  1.
        -24    1    1    2    0    0  0.70973756436E+02  0.10666666396E+02  0.36579665974E+02  0.11382591881E+03  0.80419002446E+02 0. -1.
<mgrwt>
<rscale>  0 0.10778807E+03</rscale>
<asrwt>0</asrwt>
<pdfrwt beam="1">  1        1 0.12499873E-01 0.10778807E+03</pdfrwt>
<pdfrwt beam="2">  1       -1 0.79846800E-01 0.10778807E+03</pdfrwt>
<totfact> 0.76779372E+02</totfact>
</mgrwt>
</event>
<event>
 4    1  0.6602701E-002  0.1169803E+03  0.7546771E-02  0.1248163E+00
         -2   -1    0    0    0  501 -0.00000000000E+00  0.00000000000E+00  0.24350465757E+02  0.24350465757E+02  0.00000000000E+00 0.  1.
          2   -1    0    0  501    0  0.00000000000E+00 -0.00000000000E+00 -0.84008334630E+03  0.84008334630E+03  0.00000000000E+00 0. -1.
         24    1    1    2    0    0 -0.53996989433E+02 -0.65585897915E+02 -0.65654940714E+03  0.66688943975E+03  0.80419002446E+02 0. -1.
        -24    1    1    2    0    0  0.53996989433E+02  0.65585897915E+02 -0.15918347340E+03  0.19754437231E+03  0.80419002446E+02 0.  1.
<mgrwt>
<rscale>  0 0.11698034E+03</rscale>
<asrwt>0</asrwt>
<pdfrwt beam="1">  1        2 0.12924360E+00 0.11698034E+03</pdfrwt>
<pdfrwt beam="2">  1       -2 0.37462252E-02 0.11698034E+03</pdfrwt>
<totfact> 0.96261582E+03</totfact>
</mgrwt>
</event>
<event>
 4    1  0.6602701E-002  0.1042638E+03  0.7546771E-02  0.1271577E+00
         -2   -1    0    0    0  501 -0.00000000000E+00  0.00000000000E+00  0.23524793358E+03  0.23524793358E+03  0.00000000000E+00 0.  1.
          2   -1    0    0  501    0  0.00000000000E+00 -0.00000000000E+00 -0.46304869998E+02  0.46304869998E+02  0.00000000000E+00 0. -1.
         24    1    1    2    0    0  0.49724865058E+02 -0.43944919369E+02  0.10082543978E+03  0.14504035095E+03  0.80419002446E+02 0. -1.
        -24    1    1    2    0    0 -0.49724865058E+02  0.43944919369E+02  0.88117623807E+02  0.13651245263E+03  0.80419002446E+02 0.  0.
<mgrwt>
<rscale>  0 0.10426378E+03</rscale>
<asrwt>0</asrwt>
<pdfrwt beam="1">  1        2 0.71238263E-02 0.10426380E+03</pdfrwt>
<pdfrwt beam="2">  1       -2 0.36191989E-01 0.10426380E+03</pdfrwt>
<totfact> 0.65796088E+03</totfact>
</mgrwt>
</event>
<event>
 4    1  0.6602701E-002  0.8110714E+02  0.7546771E-02  0.1325939E+00
         -1   -1    0    0    0  501 -0.00000000000E+00  0.00000000000E+00  0.69823824309E+02  0.69823824309E+02  0.00000000000E+00 0.  1.
          1   -1    0    0  501    0  0.00000000000E+00 -0.00000000000E+00 -0.14490210005E+03  0.14490210005E+03  0.00000000000E+00 0. -1.
         24    1    1    2    0    0  0.54275538857E+00  0.10528931775E+02  0.25960454844E+02  0.85160519948E+02  0.80419002446E+02 0.  0.
        -24    1    1    2    0    0 -0.54275538857E+00 -0.10528931775E+02 -0.10103873059E+03  0.12956540441E+03  0.80419002446E+02 0. -1.
<mgrwt>
<rscale>  0 0.81107145E+02</rscale>
<asrwt>0</asrwt>
<pdfrwt beam="1">  1        1 0.22292631E-01 0.81107145E+02</pdfrwt>
<pdfrwt beam="2">  1       -1 0.10742127E-01 0.81107145E+02</pdfrwt>
<totfact> 0.10829841E+04</totfact>
</mgrwt>
</event>
<event>
 4    1  0.6602701E-002  0.1247051E+03  0.7546771E-02  0.1235531E+00
          2   -1    0    0  501    0  0.00000000000E+00  0.00000000000E+00  0.22123694756E+03  0.22123694756E+03  0.00000000000E+00 0. -1.
         -2   -1    0    0    0  501 -0.00000000000E+00 -0.00000000000E+00 -0.79063480214E+02  0.79063480214E+02  0.00000000000E+00 0.  1.
         24    1    1    2    0    0 -0.53120337539E+02  0.79135231134E+02  0.12109639356E+03  0.17382665950E+03  0.80419002446E+02 0. -1.
        -24    1    1    2    0    0  0.53120337539E+02 -0.79135231134E+02  0.21077073790E+02  0.12647376827E+03  0.80419002446E+02 0.  0.
<mgrwt>
<rscale>  0 0.12470514E+03</rscale>
<asrwt>0</asrwt>
<pdfrwt beam="1">  1        2 0.34036453E-01 0.12470514E+03</pdfrwt>
<pdfrwt beam="2">  1       -2 0.12163612E-01 0.12470514E+03</pdfrwt>
<totfact> 0.69678859E+03</totfact>
</mgrwt>
</event>
<event>
 4    1  0.6602701E-002  0.9040526E+02  0.7546771E-02  0.1301873E+00
         -2   -1    0    0    0  501 -0.00000000000E+00  0.00000000000E+00  0.60762504454E+02  0.60762504454E+02  0.00000000000E+00 0.  1.
          2   -1    0    0  501    0  0.00000000000E+00 -0.00000000000E+00 -0.13937484987E+03  0.13937484987E+03  0.00000000000E+00 0. -1.
         24    1    1    2    0    0  0.40499990061E+02 -0.81022079995E+01 -0.58003520560E+02  0.10741284523E+03  0.80419002446E+02 0. -1.
        -24    1    1    2    0    0 -0.40499990061E+02  0.81022079995E+01 -0.20608824853E+02  0.92724509088E+02  0.80419002446E+02 0. -1.
<mgrwt>
<rscale>  0 0.90405259E+02</rscale>
<asrwt>0</asrwt>
<pdfrwt beam="1">  1        2 0.21442284E-01 0.90405259E+02</pdfrwt>
<pdfrwt beam="2">  1       -2 0.93480777E-02 0.90405259E+02</pdfrwt>
<totfact> 0.16923554E+04</totfact>
</mgrwt>
</event>
<event>
 4    1  0.6602701E-002  0.9922663E+02  0.7546771E-02  0.1281931E+00
         -1   -1    0    0    0  501 -0.00000000000E+00  0.00000000000E+00  0.24535699095E+03  0.24535699095E+03  0.00000000000E+00 0.  1.
          1   -1    0    0  501    0  0.00000000000E+00 -0.00000000000E+00 -0.52422745904E+02  0.52422745904E+02  0.00000000000E+00 0. -1.
         24    1    1    2    0    0  0.89573869637E+00 -0.58119749433E+02  0.16856921884E+03  0.19560548335E+03  0.80419002446E+02 0.  1.
        -24    1    1    2    0    0 -0.89573869637E+00  0.58119749433E+02  0.24365026202E+02  0.10217425350E+03  0.80419002446E+02 0. -1.
<mgrwt>
<rscale>  0 0.99226627E+02</rscale>
<asrwt>0</asrwt>
<pdfrwt beam="1">  1        1 0.80650380E-02 0.99226627E+02</pdfrwt>
<pdfrwt beam="2">  1       -1 0.37747229E-01 0.99226627E+02</pdfrwt>
<totfact> 0.54732112E+03</totfact>
</mgrwt>
</event>
<event>
 4    1  0.6602701E-002  0.8441442E+02  0.7546771E-02  0.1316971E+00
          1   -1    0    0  501    0  0.00000000000E+00  0.00000000000E+00  0.84196068757E+03  0.84196068757E+03  0.00000000000E+00 0. -1.
         -1   -1    0    0    0  501 -0.00000000000E+00 -0.00000000000E+00 -0.15131484337E+02  0.15131484337E+02  0.00000000000E+00 0.  1.
         24    1    1    2    0    0 -0.21478239829E+02 -0.14045057493E+02  0.12892954219E+03  0.15410587668E+03  0.80419002446E+02 0.  1.
        -24    1    1    2    0    0  0.21478239829E+02  0.14045057493E+02  0.69789966105E+03  0.70298629522E+03  0.80419002446E+02 0. -1.
<mgrwt>
<rscale>  0 0.84414420E+02</rscale>
<asrwt>0</asrwt>
<pdfrwt beam="1">  1        1 0.12953238E+00 0.84414420E+02</pdfrwt>
<pdfrwt beam="2">  1       -1 0.23279213E-02 0.84414420E+02</pdfrwt>
<totfact> 0.10824294E+04</totfact>
</mgrwt>
</event>
<event>
 4    1  0.6602701E-002  0.9686190E+02  0.7546771E-02  0.1287037E+00
         -1   -1    0    0    0  501 -0.00000000000E+00  0.00000000000E+00  0.95402610331E+01  0.95402610331E+01  0.00000000000E+00 0.  1.
          1   -1    0    0  501    0  0.00000000000E+00 -0.00000000000E+00 -0.98902116897E+03  0.98902116897E+03  0.00000000000E+00 0. -1.
         24    1    1    2    0    0 -0.53506275877E+02 -0.72173312837E+01 -0.45221759883E+03  0.46247484697E+03  0.80419002446E+02 0. -1.
        -24    1    1    2    0    0  0.53506275877E+02  0.72173312837E+01 -0.52726330911E+03  0.53608658304E+03  0.80419002446E+02 0.  1.
<mgrwt>
<rscale>  0 0.96861899E+02</rscale>
<asrwt>0</asrwt>
<pdfrwt beam="1">  1        1 0.15215713E+00 0.96861899E+02</pdfrwt>
<pdfrwt beam="2">  1       -1 0.14677322E-02 0.96861899E+02</pdfrwt>
<totfact> 0.16372189E+04</totfact>
</mgrwt>
</event>
<event>
 4    1  0.6602701E-002  0.8573508E+02  0.7546771E-02  0.1313521E+00
         -3   -1    0    0    0  501 -0.00000000000E+00  0.00000000000E+00  0.70631594901E+02  0.70631594901E+02  0.00000000000E+00 0.  1.
          3   -1    0    0  501    0  0.00000000000E+00 -0.00000000000E+00 -0.10423562393E+03  0.10423562393E+03  0.00000000000E+00 0. -1.
         24    1    1    2    0    0  0.29693823825E+02  0.12512568807E+01 -0.13298164230E+02  0.86760278604E+02  0.80419002446E+02 0.  1.
        -24    1    1    2    0    0 -0.29693823825E+02 -0.12512568807E+01 -0.20305864804E+02  0.88106940232E+02  0.80419002446E+02 0. -1.
<mgrwt>
<rscale>  0 0.85735085E+02</rscale>
<asrwt>0</asrwt>
<pdfrwt beam="1">  1        3 0.16036250E-01 0.85735085E+02</pdfrwt>
<pdfrwt beam="2">  1       -3 0.10866399E-01 0.85735085E+02</pdfrwt>
<totfact> 0.43888386E+03</totfact>
</mgrwt>
</event>
<event>
 4    1  0.7288281E-002  0.8753219E+02  0.7546771E-02  0.1308940E+00
         -1   -1    0    0    0  501 -0.00000000000E+00  0.00000000000E+00  0.27249550103E+02  0.27249550103E+02  0.00000000000E+00 0.  1.
          1   -1    0    0  501    0  0.00000000000E+00 -0.00000000000E+00 -0.75419424676E+03  0.75419424676E+03  0.00000000000E+00 0. -1.
         24    1    1    2    0    0 -0.28858667601E+02  0.19022248850E+02 -0.54040023850E+02  0.10286986332E+03  0.80419002446E+02 0.  1.
        -24    1    1    2    0    0  0.28858667601E+02 -0.19022248850E+02 -0.67290467281E+03  0.67857393355E+03  0.80419002446E+02 0. -1.
<mgrwt>
<rscale>  0 0.87532192E+02</rscale>
<asrwt>0</asrwt>
<pdfrwt beam="1">  1        1 0.11602989E+00 0.87532192E+02</pdfrwt>
<pdfrwt beam="2">  1       -1 0.41922381E-02 0.87532192E+02</pdfrwt>
<totfact> 0.54728093E+03</totfact>
</mgrwt>
</event>
<event>
 4    1  0.6602701E-002  0.8350549E+02  0.7546771E-02  0.1319388E+00
          1   -1    0    0  501    0  0.00000000000E+00  0.00000000000E+00  0.90143942094E+03  0.90143942094E+03  0.00000000000E+00 0. -1.
         -1   -1    0    0    0  501 -0.00000000000E+00 -0.00000000000E+00 -0.96218360264E+01  0.96218360264E+01  0.00000000000E+00 0.  1.
         24    1    1    2    0    0  0.22480394008E+02 -0.76389660618E+00  0.24421731769E+03  0.25809933333E+03  0.80419002446E+02 0.  0.
        -24    1    1    2    0    0 -0.22480394008E+02  0.76389660618E+00  0.64760026723E+03  0.65296192364E+03  0.80419002446E+02 0. -1.
<mgrwt>
<rscale>  0 0.83505494E+02</rscale>
<asrwt>0</asrwt>
<pdfrwt beam="1">  1        1 0.13868292E+00 0.83505494E+02</pdfrwt>
<pdfrwt beam="2">  1       -1 0.14802832E-02 0.83505494E+02</pdfrwt>
<totfact> 0.18534955E+04</totfact>
</mgrwt>
</event>
<event>
 4    1  0.6602701E-002  0.8190556E+02  0.7546771E-02  0.1323729E+00
          1   -1    0    0  501    0  0.00000000000E+00  0.00000000000E+00  0.72670603210E+02  0.72670603210E+02  0.00000000000E+00 0. -1.
         -1   -1    0    0    0  501 -0.00000000000E+00 -0.00000000000E+00 -0.10283085003E+03  0.10283085003E+03  0.00000000000E+00 0.  1.
         24    1    1    2    0    0 -0.15380416499E+02  0.21788430189E+01 -0.43142859616E+02  0.92573359336E+02  0.80419002446E+02 0.  1.
        -24    1    1    2    0    0  0.15380416499E+02 -0.21788430189E+01  0.12982612798E+02  0.82928093901E+02  0.80419002446E+02 0.  0.
<mgrwt>
<rscale>  0 0.81905559E+02</rscale>
<asrwt>0</asrwt>
<pdfrwt beam="1">  1        1 0.11180093E-01 0.81905559E+02</pdfrwt>
<pdfrwt beam="2">  1       -1 0.15820131E-01 0.81905559E+02</pdfrwt>
<totfact> 0.14400388E+04</totfact>
</mgrwt>
</event>
<event>
 4    1  0.6602701E-002  0.9918759E+02  0.7546771E-02  0.1282014E+00
         -2   -1    0    0    0  501 -0.00000000000E+00  0.00000000000E+00  0.40755113795E+01  0.40755113795E+01  0.00000000000E+00 0.  1.
          2   -1    0    0  501    0  0.00000000000E+00 -0.00000000000E+00 -0.26368205239E+04  0.26368205239E+04  0.00000000000E+00 0. -1.
         24    1    1    2    0    0 -0.55832651347E+02  0.15927238928E+02 -0.17002424532E+04  0.17031331650E+04  0.80419002446E+02 0. -1.
        -24    1    1    2    0    0  0.55832651347E+02 -0.15927238928E+02 -0.93250255934E+03  0.93776287036E+03  0.80419002446E+02 0.  1.
<mgrwt>
<rscale>  0 0.99187589E+02</rscale>
<asrwt>0</asrwt>
<pdfrwt beam="1">  1        2 0.40566206E+00 0.99187589E+02</pdfrwt>
<pdfrwt beam="2">  1       -2 0.62700583E-03 0.99187589E+02</pdfrwt>
<totfact> 0.13797006E+04</totfact>
</mgrwt>
</event>
<event>
 4    1  0.6602701E-002  0.8213906E+02  0.7546771E-02  0.1323088E+00
          2   -1    0    0  501    0  0.00000000000E+00  0.00000000000E+00  0.22039043768E+03  0.22039043768E+03  0.00000000000E+00 0. -1.
         -2   -1    0    0    0  501 -0.00000000000E+00 -0.00000000000E+00 -0.44192205229E+02  0.44192205229E+02  0.00000000000E+00 0.  1.
         24    1    1    2    0    0 -0.15449223802E+02  0.63976758621E+01  0.16143133144E+03  0.18112674981E+03  0.80419002446E+02 0.  0.
        -24    1    1    2    0    0  0.15449223802E+02 -0.63976758621E+01  0.14766901009E+02  0.83455893095E+02  0.80419002446E+02 0.  1.
<mgrwt>
<rscale>  0 0.82139057E+02</rscale>
<asrwt>0</asrwt>
<pdfrwt beam="1">  1        2 0.33906221E-01 0.82139057E+02</pdfrwt>
<pdfrwt beam="2">  1       -2 0.67988009E-02 0.82139057E+02</pdfrwt>
<totfact> 0.16605207E+04</totfact>
</mgrwt>
</event>
<event>
 4    1  0.6602701E-002  0.9508030E+02  0.7546771E-02  0.1290995E+00
          2   -1    0    0  501    0  0.00000000000E+00  0.00000000000E+00  0.11467751304E+04  0.11467751304E+04  0.00000000000E+00 0. -1.
         -2   -1    0    0    0  501 -0.00000000000E+00 -0.00000000000E+00 -0.87907649498E+01  0.87907649498E+01  0.00000000000E+00 0.  1.
         24    1    1    2    0    0 -0.49339925186E+02  0.11773643609E+02  0.75463971030E+03  0.76060591321E+03  0.80419002446E+02 0. -1.
        -24    1    1    2    0    0  0.49339925186E+02 -0.11773643609E+02  0.38334465513E+03  0.39495998212E+03  0.80419002446E+02 0.  1.
<mgrwt>
<rscale>  0 0.95080297E+02</rscale>
<asrwt>0</asrwt>
<pdfrwt beam="1">  1        2 0.17642682E+00 0.95080297E+02</pdfrwt>
<pdfrwt beam="2">  1       -2 0.13524263E-02 0.95080297E+02</pdfrwt>
<totfact> 0.27216285E+04</totfact>
</mgrwt>
</event>
<event>
 4    1  0.6602701E-002  0.2162209E+03  0.7546771E-02  0.1136732E+00
         -4   -1    0    0    0  501 -0.00000000000E+00  0.00000000000E+00  0.57597532170E+03  0.57597532170E+03  0.00000000000E+00 0.  1.
          4   -1    0    0  501    0  0.00000000000E+00 -0.00000000000E+00 -0.18777868146E+03  0.18777868146E+03  0.00000000000E+00 0. -1.
         24    1    1    2    0    0  0.16234258184E+03  0.11802174376E+03 -0.93640366183E+02  0.23562678118E+03  0.80419002446E+02 0. -1.
        -24    1    1    2    0    0 -0.16234258184E+03 -0.11802174376E+03  0.48183700643E+03  0.52812722198E+03  0.80419002446E+02 0.  1.
<mgrwt>
<rscale>  0 0.21622086E+03</rscale>
<asrwt>0</asrwt>
<pdfrwt beam="1">  1        4 0.28889028E-01 0.21622086E+03</pdfrwt>
<pdfrwt beam="2">  1       -4 0.88611587E-01 0.21622086E+03</pdfrwt>
<totfact> 0.23074095E+01</totfact>
</mgrwt>
</event>
<event>
 4    1  0.6602701E-002  0.8359615E+02  0.7546771E-02  0.1319145E+00
          2   -1    0    0  501    0  0.00000000000E+00  0.00000000000E+00  0.11929255492E+04  0.11929255492E+04  0.00000000000E+00 0. -1.
         -2   -1    0    0    0  501 -0.00000000000E+00 -0.00000000000E+00 -0.77852189278E+01  0.77852189278E+01  0.00000000000E+00 0.  1.
         24    1    1    2    0    0  0.44332980864E+01  0.22392976099E+02  0.89126219562E+03  0.89517407068E+03  0.80419002446E+02 0. -1.
        -24    1    1    2    0    0 -0.44332980864E+01 -0.22392976099E+02  0.29387813466E+03  0.30553669747E+03  0.80419002446E+02 0.  1.
<mgrwt>
<rscale>  0 0.83596145E+02</rscale>
<asrwt>0</asrwt>
<pdfrwt beam="1">  1        2 0.18352686E+00 0.83596145E+02</pdfrwt>
<pdfrwt beam="2">  1       -2 0.11977269E-02 0.83596145E+02</pdfrwt>
<totfact> 0.30159986E+04</totfact>
</mgrwt>
</event>
<event>
 4    1  0.6602701E-002  0.8894371E+02  0.7546771E-02  0.1305430E+00
         -2   -1    0    0    0  501 -0.00000000000E+00  0.00000000000E+00  0.20385541417E+02  0.20385541417E+02  0.00000000000E+00 0.  1.
          2   -1    0    0  501    0  0.00000000000E+00 -0.00000000000E+00 -0.86475049791E+03  0.86475049791E+03  0.00000000000E+00 0. -1.
         24    1    1    2    0    0  0.24228507436E+02  0.29270242324E+02 -0.75076847961E+03  0.75601871246E+03  0.80419002446E+02 0. -1.
        -24    1    1    2    0    0 -0.24228507436E+02 -0.29270242324E+02 -0.93596476887E+02  0.12911732687E+03  0.80419002446E+02 0.  1.
<mgrwt>
<rscale>  0 0.88943710E+02</rscale>
<asrwt>0</asrwt>
<pdfrwt beam="1">  1        2 0.13303856E+00 0.88943710E+02</pdfrwt>
<pdfrwt beam="2">  1       -2 0.31362367E-02 0.88943710E+02</pdfrwt>
<totfact> 0.11820831E+04</totfact>
</mgrwt>
</event>
<event>
 4    1  0.6602701E-002  0.8449819E+02  0.7546771E-02  0.1316750E+00
         -1   -1    0    0    0  501 -0.00000000000E+00  0.00000000000E+00  0.12656840302E+03  0.12656840302E+03  0.00000000000E+00 0.  1.
          1   -1    0    0  501    0  0.00000000000E+00 -0.00000000000E+00 -0.59339485814E+02  0.59339485814E+02  0.00000000000E+00 0. -1.
         24    1    1    2    0    0  0.18038611016E+02 -0.18636958755E+02  0.54261732443E+02  0.10042051225E+03  0.80419002446E+02 0.  1.
        -24    1    1    2    0    0 -0.18038611016E+02  0.18636958755E+02  0.12967184759E+02  0.85487376577E+02  0.80419002446E+02 0. -1.
<mgrwt>
<rscale>  0 0.84498187E+02</rscale>
<asrwt>0</asrwt>
<pdfrwt beam="1">  1        1 0.91291517E-02 0.84498187E+02</pdfrwt>
<pdfrwt beam="2">  1       -1 0.19472062E-01 0.84498187E+02</pdfrwt>
<totfact> 0.13597483E+04</totfact>
</mgrwt>
</event>
<event>
 4    1  0.6602701E-002  0.1085543E+03  0.7546771E-02  0.1263271E+00
          2   -1    0    0  501    0  0.00000000000E+00  0.00000000000E+00  0.18497412218E+04  0.18497412218E+04  0.00000000000E+00 0. -1.
         -2   -1    0    0    0  501 -0.00000000000E+00 -0.00000000000E+00 -0.63833511792E+01  0.63833511792E+01  0.00000000000E+00 0.  1.
         24    1    1    2    0    0 -0.53860650582E+02 -0.49151295186E+02  0.88026511091E+03  0.88693331256E+03  0.80419002446E+02 0. -1.
        -24    1    1    2    0    0  0.53860650582E+02  0.49151295186E+02  0.96309275972E+03  0.96919126043E+03  0.80419002446E+02 0.  1.
<mgrwt>
<rscale>  0 0.10855431E+03</rscale>
<asrwt>0</asrwt>
<pdfrwt beam="1">  1        2 0.28457515E+00 0.10855432E+03</pdfrwt>
<pdfrwt beam="2">  1       -2 0.98205550E-03 0.10855432E+03</pdfrwt>
<totfact> 0.18704959E+04</totfact>
</mgrwt>
</event>
<event>
 4    1  0.6602701E-002  0.1140788E+03  0.7546771E-02  0.1253198E+00
         -1   -1    0    0    0  501 -0.00000000000E+00  0.00000000000E+00  0.27963102454E+02  0.27963102454E+02  0.00000000000E+00 0.  1.
          1   -1    0    0  501    0  0.00000000000E+00 -0.00000000000E+00 -0.10579021006E+04  0.10579021006E+04  0.00000000000E+00 0. -1.
         24    1    1    2    0    0 -0.57616552954E+02 -0.56807510251E+02 -0.10864893436E+03  0.15753909765E+03  0.80419002446E+02 0.  1.
        -24    1    1    2    0    0  0.57616552954E+02  0.56807510251E+02 -0.92129006378E+03  0.92832610540E+03  0.80419002446E+02 0. -1.
<mgrwt>
<rscale>  0 0.11407882E+03</rscale>
<asrwt>0</asrwt>
<pdfrwt beam="1">  1        1 0.16275416E+00 0.11407882E+03</pdfrwt>
<pdfrwt beam="2">  1       -1 0.43020159E-02 0.11407882E+03</pdfrwt>
<totfact> 0.31306958E+03</totfact>
</mgrwt>
</event>
<event>
 4    1  0.6602701E-002  0.1508655E+03  0.7546771E-02  0.1199414E+00
          1   -1    0    0  501    0  0.00000000000E+00  0.00000000000E+00  0.53033934746E+02  0.53033934746E+02  0.00000000000E+00 0. -1.
         -1   -1    0    0    0  501 -0.00000000000E+00 -0.00000000000E+00 -0.88802999428E+03  0.88802999428E+03  0.00000000000E+00 0.  1.
         24    1    1    2    0    0 -0.12756896151E+03  0.43976060331E+01 -0.75573183265E+03  0.77064323634E+03  0.80419002446E+02 0. -1.
        -24    1    1    2    0    0  0.12756896151E+03 -0.43976060331E+01 -0.79264226884E+02  0.17042069269E+03  0.80419002446E+02 0.  1.
<mgrwt>
<rscale>  0 0.15086549E+03</rscale>
<asrwt>0</asrwt>
<pdfrwt beam="1">  1        1 0.81590677E-02 0.15086549E+03</pdfrwt>
<pdfrwt beam="2">  1       -1 0.13661999E+00 0.15086549E+03</pdfrwt>
<totfact> 0.40734767E+02</totfact>
</mgrwt>
</event>
<event>
 4    1  0.6602701E-002  0.1134289E+03  0.7546771E-02  0.1254349E+00
          2   -1    0    0  501    0  0.00000000000E+00  0.00000000000E+00  0.90999879161E+03  0.90999879161E+03  0.00000000000E+00 0. -1.
         -2   -1    0    0    0  501 -0.00000000000E+00 -0.00000000000E+00 -0.14219278898E+02  0.14219278898E+02  0.00000000000E+00 0.  1.
         24    1    1    2    0    0  0.79322706733E+02  0.10335081460E+02  0.48269526088E+03  0.49584356055E+03  0.80419002446E+02 0. -1.
        -24    1    1    2    0    0 -0.79322706733E+02 -0.10335081460E+02  0.41308425183E+03  0.42837450995E+03  0.80419002446E+02 0.  1.
<mgrwt>
<rscale>  0 0.11342893E+03</rscale>
<asrwt>0</asrwt>
<pdfrwt beam="1">  1        2 0.13999977E+00 0.11342893E+03</pdfrwt>
<pdfrwt beam="2">  1       -2 0.21875821E-02 0.11342893E+03</pdfrwt>
<totfact> 0.19033030E+04</totfact>
</mgrwt>
</event>
<event>
 4    1  0.6602701E-002  0.1364427E+03  0.7546771E-02  0.1218197E+00
          2   -1    0    0  501    0  0.00000000000E+00  0.00000000000E+00  0.12627822519E+04  0.12627822519E+04  0.00000000000E+00 0. -1.
         -2   -1    0    0    0  501 -0.00000000000E+00 -0.00000000000E+00 -0.31155929888E+02  0.31155929888E+02  0.00000000000E+00 0.  1.
         24    1    1    2    0    0 -0.10965271696E+03  0.11209997474E+02  0.10853963289E+04  0.10939386587E+04  0.80419002446E+02 0. -1.
        -24    1    1    2    0    0  0.10965271696E+03 -0.11209997474E+02  0.14622999318E+03  0.19999952310E+03  0.80419002446E+02 0.  1.
<mgrwt>
<rscale>  0 0.13644266E+03</rscale>
<asrwt>0</asrwt>
<pdfrwt beam="1">  1        2 0.19427415E+00 0.13644266E+03</pdfrwt>
<pdfrwt beam="2">  1       -2 0.47932209E-02 0.13644266E+03</pdfrwt>
<totfact> 0.37932618E+03</totfact>
</mgrwt>
</event>
<event>
 4    1  0.6602701E-002  0.9013064E+02  0.7546771E-02  0.1302536E+00
         -1   -1    0    0    0  501 -0.00000000000E+00  0.00000000000E+00  0.87116432837E+02  0.87116432837E+02  0.00000000000E+00 0.  1.
          1   -1    0    0  501    0  0.00000000000E+00 -0.00000000000E+00 -0.21486259540E+03  0.21486259540E+03  0.00000000000E+00 0. -1.
         24    1    1    2    0    0  0.28281878078E+02  0.29265185924E+02  0.49721393641E+02  0.10293565308E+03  0.80419002446E+02 0.  1.
        -24    1    1    2    0    0 -0.28281878078E+02 -0.29265185924E+02 -0.17746755620E+03  0.19904337516E+03  0.80419002446E+02 0. -1.
<mgrwt>
<rscale>  0 0.90130637E+02</rscale>
<asrwt>0</asrwt>
<pdfrwt beam="1">  1        1 0.33055784E-01 0.90130637E+02</pdfrwt>
<pdfrwt beam="2">  1       -1 0.13402528E-01 0.90130637E+02</pdfrwt>
<totfact> 0.48002889E+03</totfact>
</mgrwt>
</event>
<event>
 4    1  0.6602701E-002  0.1348683E+03  0.7546771E-02  0.1220406E+00
          2   -1    0    0  501    0  0.00000000000E+00  0.00000000000E+00  0.33693514832E+02  0.33693514832E+02  0.00000000000E+00 0. -1.
         -2   -1    0    0    0  501 -0.00000000000E+00 -0.00000000000E+00 -0.66955653772E+03  0.66955653772E+03  0.00000000000E+00 0.  1.
         24    1    1    2    0    0  0.99382955456E+02  0.42956477425E+02 -0.16316858033E+03  0.21169183345E+03  0.80419002446E+02 0.  1.
        -24    1    1    2    0    0 -0.99382955456E+02 -0.42956477425E+02 -0.47269444256E+03  0.49155821910E+03  0.80419002446E+02 0. -1.
<mgrwt>
<rscale>  0 0.13486826E+03</rscale>
<asrwt>0</asrwt>
<pdfrwt beam="1">  1        2 0.51836179E-02 0.13486826E+03</pdfrwt>
<pdfrwt beam="2">  1       -2 0.10300869E+00 0.13486826E+03</pdfrwt>
<totfact> 0.11609840E+03</totfact>
</mgrwt>
</event>
<event>
 4    1  0.6602701E-002  0.1048989E+03  0.7546771E-02  0.1270319E+00
          2   -1    0    0  501    0  0.00000000000E+00  0.00000000000E+00  0.27290498532E+04  0.27290498532E+04  0.00000000000E+00 0. -1.
         -2   -1    0    0    0  501 -0.00000000000E+00 -0.00000000000E+00 -0.42405008966E+01  0.42405008966E+01  0.00000000000E+00 0.  1.
         24    1    1    2    0    0  0.52329832506E+02 -0.42404533988E+02  0.16653808464E+04  0.16686812563E+04  0.80419002446E+02 0.  1.
        -24    1    1    2    0    0 -0.52329832506E+02  0.42404533988E+02  0.10594285059E+04  0.10646090978E+04  0.80419002446E+02 0. -1.
<mgrwt>
<rscale>  0 0.10489886E+03</rscale>
<asrwt>0</asrwt>
<pdfrwt beam="1">  1        2 0.41985242E+00 0.10489886E+03</pdfrwt>
<pdfrwt beam="2">  1       -2 0.65238693E-03 0.10489886E+03</pdfrwt>
<totfact> 0.11648465E+04</totfact>
</mgrwt>
</event>
<event>
 4    1  0.6602701E-002  0.8758240E+02  0.7546771E-02  0.1308814E+00
         -1   -1    0    0    0  501 -0.00000000000E+00  0.00000000000E+00  0.75573641691E+01  0.75573641691E+01  0.00000000000E+00 0.  1.
          1   -1    0    0  501    0  0.00000000000E+00 -0.00000000000E+00 -0.13442988724E+04  0.13442988724E+04  0.00000000000E+00 0. -1.
         24    1    1    2    0    0 -0.17685235025E+02  0.29844476920E+02 -0.33382776306E+03  0.34512555930E+03  0.80419002446E+02 0.  1.
        -24    1    1    2    0    0  0.17685235025E+02 -0.29844476920E+02 -0.10029137452E+04  0.10067306773E+04  0.80419002446E+02 0. -1.
<mgrwt>
<rscale>  0 0.87582397E+02</rscale>
<asrwt>0</asrwt>
<pdfrwt beam="1">  1        1 0.20681523E+00 0.87582397E+02</pdfrwt>
<pdfrwt beam="2">  1       -1 0.11626713E-02 0.87582397E+02</pdfrwt>
<totfact> 0.12934188E+04</totfact>
</mgrwt>
</event>
<event>
 4    1  0.6700659E-002  0.9642344E+02  0.7546771E-02  0.1288002E+00
          1   -1    0    0  501    0  0.00000000000E+00  0.00000000000E+00  0.13962183744E+04  0.13962183744E+04  0.00000000000E+00 0. -1.
         -1   -1    0    0    0  501 -0.00000000000E+00 -0.00000000000E+00 -0.10669155944E+02  0.10669155944E+02  0.00000000000E+00 0.  1.
         24    1    1    2    0    0 -0.17148897726E+02  0.50360497040E+02  0.26151123807E+03  0.27872138050E+03  0.80419002446E+02 0.  1.
        -24    1    1    2    0    0  0.17148897726E+02 -0.50360497040E+02  0.11240379804E+04  0.11281661499E+04  0.80419002446E+02 0. -1.
<mgrwt>
<rscale>  0 0.96423443E+02</rscale>
<asrwt>0</asrwt>
<pdfrwt beam="1">  1        1 0.21480268E+00 0.96423443E+02</pdfrwt>
<pdfrwt beam="2">  1       -1 0.16414097E-02 0.96423443E+02</pdfrwt>
<totfact> 0.73818402E+03</totfact>
</mgrwt>
</event>
<event>
 4    1  0.6602701E-002  0.8441083E+02  0.7546771E-02  0.1316981E+00
          2   -1    0    0  501    0  0.00000000000E+00  0.00000000000E+00  0.10832315326E+04  0.10832315326E+04  0.00000000000E+00 0. -1.
         -2   -1    0    0    0  501 -0.00000000000E+00 -0.00000000000E+00 -0.12955378841E+02  0.12955378841E+02  0.00000000000E+00 0.  1.
         24    1    1    2    0    0 -0.19800577692E+02 -0.16306727044E+02  0.91969476953E+03  0.92356031599E+03  0.80419002446E+02 0.  0.
        -24    1    1    2    0    0  0.19800577692E+02  0.16306727044E+02  0.15058138421E+03  0.17262659542E+03  0.80419002446E+02 0.  0.
<mgrwt>
<rscale>  0 0.84410830E+02</rscale>
<asrwt>0</asrwt>
<pdfrwt beam="1">  1        2 0.16665093E+00 0.84410830E+02</pdfrwt>
<pdfrwt beam="2">  1       -2 0.19931361E-02 0.84410830E+02</pdfrwt>
<totfact> 0.16798932E+04</totfact>
</mgrwt>
</event>
<event>
 4    1  0.6602701E-002  0.1510033E+03  0.7546771E-02  0.1199246E+00
         -2   -1    0    0    0  501 -0.00000000000E+00  0.00000000000E+00  0.19723396714E+02  0.19723396714E+02  0.00000000000E+00 0.  1.
          2   -1    0    0  501    0  0.00000000000E+00 -0.00000000000E+00 -0.33227764388E+04  0.33227764388E+04  0.00000000000E+00 0. -1.
         24    1    1    2    0    0 -0.85353605619E+02 -0.95129103034E+02 -0.30010765214E+04  0.30048730901E+04  0.80419002446E+02 0. -1.
        -24    1    1    2    0    0  0.85353605619E+02  0.95129103034E+02 -0.30197652075E+03  0.33762674550E+03  0.80419002446E+02 0.  1.
<mgrwt>
<rscale>  0 0.15100331E+03</rscale>
<asrwt>0</asrwt>
<pdfrwt beam="1">  1        2 0.51119637E+00 0.15100331E+03</pdfrwt>
<pdfrwt beam="2">  1       -2 0.30343687E-02 0.15100331E+03</pdfrwt>
<totfact> 0.57201205E+02</totfact>
</mgrwt>
</event>
<event>
 4    1  0.6602701E-002  0.8065917E+02  0.7546771E-02  0.1327191E+00
         -2   -1    0    0    0  501 -0.00000000000E+00  0.00000000000E+00  0.12009064879E+02  0.12009064879E+02  0.00000000000E+00 0.  1.
          2   -1    0    0  501    0  0.00000000000E+00 -0.00000000000E+00 -0.75499017656E+03  0.75499017656E+03  0.00000000000E+00 0. -1.
         24    1    1    2    0    0 -0.61914267689E+01 -0.59313363707E+00 -0.57530248493E+03  0.58092929922E+03  0.80419002446E+02 0. -1.
        -24    1    1    2    0    0  0.61914267689E+01  0.59313363707E+00 -0.16767862675E+03  0.18606994222E+03  0.80419002446E+02 0.  0.
<mgrwt>
<rscale>  0 0.80659169E+02</rscale>
<asrwt>0</asrwt>
<pdfrwt beam="1">  1        2 0.11615238E+00 0.80659169E+02</pdfrwt>
<pdfrwt beam="2">  1       -2 0.18475477E-02 0.80659169E+02</pdfrwt>
<totfact> 0.29654145E+04</totfact>
</mgrwt>
</event>
<event>
 4    1  0.6602701E-002  0.1053462E+03  0.7546771E-02  0.1269439E+00
         -2   -1    0    0    0  501 -0.00000000000E+00  0.00000000000E+00  0.80067829743E+02  0.80067829743E+02  0.00000000000E+00 0.  1.
          2   -1    0    0  501    0  0.00000000000E+00 -0.00000000000E+00 -0.14474934622E+03  0.14474934622E+03  0.00000000000E+00 0. -1.
         24    1    1    2    0    0  0.19886315351E+02  0.65077988720E+02 -0.55499671856E+02  0.11907157379E+03  0.80419002446E+02 0.  0.
        -24    1    1    2    0    0 -0.19886315351E+02 -0.65077988720E+02 -0.91818446203E+01  0.10574560217E+03  0.80419002446E+02 0.  1.
<mgrwt>
<rscale>  0 0.10534622E+03</rscale>
<asrwt>0</asrwt>
<pdfrwt beam="1">  1        2 0.22269130E-01 0.10534622E+03</pdfrwt>
<pdfrwt beam="2">  1       -2 0.12318128E-01 0.10534622E+03</pdfrwt>
<totfact> 0.10687238E+04</totfact>
</mgrwt>
</event>
<event>
 4    1  0.6602701E-002  0.8827729E+02  0.7546771E-02  0.1307078E+00
          1   -1    0    0  501    0  0.00000000000E+00  0.00000000000E+00  0.17621451156E+03  0.17621451156E+03  0.00000000000E+00 0. -1.
         -1   -1    0    0    0  501 -0.00000000000E+00 -0.00000000000E+00 -0.45462748296E+02  0.45462748296E+02  0.00000000000E+00 0.  1.
         24    1    1    2    0    0 -0.10384450254E+02 -0.34897368396E+02  0.47078617750E+02  0.10004636591E+03  0.80419002446E+02 0.  1.
        -24    1    1    2    0    0  0.10384450254E+02  0.34897368396E+02  0.83673145518E+02  0.12163089395E+03  0.80419002446E+02 0. -1.
<mgrwt>
<rscale>  0 0.88277285E+02</rscale>
<asrwt>0</asrwt>
<pdfrwt beam="1">  1        1 0.27109924E-01 0.88277285E+02</pdfrwt>
<pdfrwt beam="2">  1       -1 0.69942691E-02 0.88277285E+02</pdfrwt>
<totfact> 0.16290304E+04</totfact>
</mgrwt>
</event>
<event>
 4    1  0.8181282E-002  0.8836283E+02  0.7546771E-02  0.1306865E+00
         -3   -1    0    0    0  501 -0.00000000000E+00  0.00000000000E+00  0.25130026052E+02  0.25130026052E+02  0.00000000000E+00 0.  1.
          3   -1    0    0  501    0  0.00000000000E+00 -0.00000000000E+00 -0.14718727805E+04  0.14718727805E+04  0.00000000000E+00 0. -1.
         24    1    1    2    0    0  0.36530274893E+02  0.25123941795E+01 -0.58549601747E+02  0.10600021192E+03  0.80419002446E+02 0.  1.
        -24    1    1    2    0    0 -0.36530274893E+02 -0.25123941795E+01 -0.13881931527E+04  0.13910025947E+04  0.80419002446E+02 0. -1.
<mgrwt>
<rscale>  0 0.88362826E+02</rscale>
<asrwt>0</asrwt>
<pdfrwt beam="1">  1        3 0.22644188E+00 0.88362826E+02</pdfrwt>
<pdfrwt beam="2">  1       -3 0.38661593E-02 0.88362826E+02</pdfrwt>
<totfact> 0.87659190E+01</totfact>
</mgrwt>
</event>
<event>
 4    1  0.6602701E-002  0.8181544E+02  0.7546771E-02  0.1323977E+00
          2   -1    0    0  501    0  0.00000000000E+00  0.00000000000E+00  0.48740344181E+02  0.48740344181E+02  0.00000000000E+00 0. -1.
         -2   -1    0    0    0  501 -0.00000000000E+00 -0.00000000000E+00 -0.15190802507E+03  0.15190802507E+03  0.00000000000E+00 0.  1.
         24    1    1    2    0    0  0.15059808990E+01  0.14976071182E+02 -0.20510594069E+02  0.84347205703E+02  0.80419002446E+02 0.  0.
        -24    1    1    2    0    0 -0.15059808990E+01 -0.14976071182E+02 -0.82657086817E+02  0.11630116355E+03  0.80419002446E+02 0.  0.
<mgrwt>
<rscale>  0 0.81815443E+02</rscale>
<asrwt>0</asrwt>
<pdfrwt beam="1">  1        2 0.74985146E-02 0.81815443E+02</pdfrwt>
<pdfrwt beam="2">  1       -2 0.23370465E-01 0.81815443E+02</pdfrwt>
<totfact> 0.13092799E+04</totfact>
</mgrwt>
</event>
<event>
 4    1  0.6602701E-002  0.8691228E+02  0.7546771E-02  0.1310506E+00
         -3   -1    0    0    0  501 -0.00000000000E+00  0.00000000000E+00  0.81535256252E+01  0.81535256252E+01  0.00000000000E+00 0.  1.
          3   -1    0    0  501    0  0.00000000000E+00 -0.00000000000E+00 -0.13933214828E+04  0.13933214828E+04  0.00000000000E+00 0. -1.
         24    1    1    2    0    0  0.28628369260E+02 -0.16338435848E+02 -0.28695077791E+03  0.29982410328E+03  0.80419002446E+02 0.  1.
        -24    1    1    2    0    0 -0.28628369260E+02  0.16338435848E+02 -0.10982171793E+04  0.11016509052E+04  0.80419002446E+02 0.  0.
<mgrwt>
<rscale>  0 0.86912277E+02</rscale>
<asrwt>0</asrwt>
<pdfrwt beam="1">  1        3 0.21435704E+00 0.86912277E+02</pdfrwt>
<pdfrwt beam="2">  1       -3 0.12543892E-02 0.86912277E+02</pdfrwt>
<totfact> 0.56159856E+02</totfact>
</mgrwt>
</event>
<event>
 4    1  0.6602701E-002  0.1090003E+03  0.7546771E-02  0.1262432E+00
         -2   -1    0    0    0  501 -0.00000000000E+00  0.00000000000E+00  0.54432346617E+01  0.54432346617E+01  0.00000000000E+00 0.  1.
          2   -1    0    0  501    0  0.00000000000E+00 -0.00000000000E+00 -0.22043883678E+04  0.22043883678E+04  0.00000000000E+00 0. -1.
         24    1    1    2    0    0  0.43491987708E+02  0.59348993694E+02 -0.12090121041E+04  0.12139157054E+04  0.80419002446E+02 0.  1.
        -24    1    1    2    0    0 -0.43491987708E+02 -0.59348993694E+02 -0.98993302899E+03  0.99591589700E+03  0.80419002446E+02 0. -1.
<mgrwt>
<rscale>  0 0.10900033E+03</rscale>
<asrwt>0</asrwt>
<pdfrwt beam="1">  1        2 0.33913724E+00 0.10900033E+03</pdfrwt>
<pdfrwt beam="2">  1       -2 0.83741932E-03 0.10900033E+03</pdfrwt>
<totfact> 0.15492439E+04</totfact>
</mgrwt>
</event>
<event>
 4    1  0.6602701E-002  0.1335740E+03  0.7546771E-02  0.1222247E+00
         -2   -1    0    0    0  501 -0.00000000000E+00  0.00000000000E+00  0.52427846042E+02  0.52427846042E+02  0.00000000000E+00 0.  1.
          2   -1    0    0  501    0  0.00000000000E+00 -0.00000000000E+00 -0.78792025383E+03  0.78792025383E+03  0.00000000000E+00 0. -1.
         24    1    1    2    0    0 -0.74843828912E+02 -0.75981637678E+02 -0.68443689525E+03  0.69734918622E+03  0.80419002446E+02 0. -1.
        -24    1    1    2    0    0  0.74843828912E+02  0.75981637678E+02 -0.51055512540E+02  0.14299891365E+03  0.80419002446E+02 0.  1.
<mgrwt>
<rscale>  0 0.13357404E+03</rscale>
<asrwt>0</asrwt>
<pdfrwt beam="1">  1        2 0.12121850E+00 0.13357404E+03</pdfrwt>
<pdfrwt beam="2">  1       -2 0.80658224E-02 0.13357404E+03</pdfrwt>
<totfact> 0.33031893E+03</totfact>
</mgrwt>
</event>
<event>
 4    1  0.6602701E-002  0.8661184E+02  0.7546771E-02  0.1311270E+00
          2   -1    0    0  501    0  0.00000000000E+00  0.00000000000E+00  0.23855812210E+04  0.23855812210E+04  0.00000000000E+00 0. -1.
         -2   -1    0    0    0  501 -0.00000000000E+00 -0.00000000000E+00 -0.45089223013E+01  0.45089223013E+01  0.00000000000E+00 0.  1.
         24    1    1    2    0    0 -0.22423272185E+01  0.32083753004E+02  0.18479097166E+04  0.18499383589E+04  0.80419002446E+02 0. -1.
        -24    1    1    2    0    0  0.22423272185E+01 -0.32083753004E+02  0.53316258207E+03  0.54015178433E+03  0.80419002446E+02 0.  1.
<mgrwt>
<rscale>  0 0.86611842E+02</rscale>
<asrwt>0</asrwt>
<pdfrwt beam="1">  1        2 0.36701149E+00 0.86611842E+02</pdfrwt>
<pdfrwt beam="2">  1       -2 0.69368226E-03 0.86611842E+02</pdfrwt>
<totfact> 0.16139270E+04</totfact>
</mgrwt>
</event>
<event>
 4    1  0.6602701E-002  0.8396566E+02  0.7546771E-02  0.1318160E+00
          1   -1    0    0  501    0  0.00000000000E+00  0.00000000000E+00  0.10193531621E+03  0.10193531621E+03  0.00000000000E+00 0. -1.
         -1   -1    0    0    0  501 -0.00000000000E+00 -0.00000000000E+00 -0.99976854186E+02  0.99976854186E+02  0.00000000000E+00 0.  1.
         24    1    1    2    0    0 -0.22886692604E+02 -0.76951044054E+01 -0.55067503896E+02  0.10041245575E+03  0.80419002446E+02 0.  1.
        -24    1    1    2    0    0  0.22886692604E+02  0.76951044054E+01  0.57025965925E+02  0.10149971465E+03  0.80419002446E+02 0. -1.
<mgrwt>
<rscale>  0 0.83965655E+02</rscale>
<asrwt>0</asrwt>
<pdfrwt beam="1">  1        1 0.15682356E-01 0.83965655E+02</pdfrwt>
<pdfrwt beam="2">  1       -1 0.15381055E-01 0.83965655E+02</pdfrwt>
<totfact> 0.97642540E+03</totfact>
</mgrwt>
</event>
<event>
 4    1  0.6602701E-002  0.8981177E+02  0.7546771E-02  0.1303308E+00
          1   -1    0    0  501    0  0.00000000000E+00  0.00000000000E+00  0.16897183841E+03  0.16897183841E+03  0.00000000000E+00 0. -1.
         -1   -1    0    0    0  501 -0.00000000000E+00 -0.00000000000E+00 -0.49019158315E+02  0.49019158315E+02  0.00000000000E+00 0.  1.
         24    1    1    2    0    0 -0.35918325325E+02 -0.17572939645E+02  0.77606448477E+02  0.11869671900E+03  0.80419002446E+02 0.  0.
        -24    1    1    2    0    0  0.35918325325E+02  0.17572939645E+02  0.42346231615E+02  0.99294277722E+02  0.80419002446E+02 0. -1.
<mgrwt>
<rscale>  0 0.89811760E+02</rscale>
<asrwt>0</asrwt>
<pdfrwt beam="1">  1        1 0.25995667E-01 0.89811771E+02</pdfrwt>
<pdfrwt beam="2">  1       -1 0.75414090E-02 0.89811771E+02</pdfrwt>
<totfact> 0.15369880E+04</totfact>
</mgrwt>
</event>
<event>
 4    1  0.6602701E-002  0.1310028E+03  0.7546771E-02  0.1225975E+00
         -1   -1    0    0    0  501 -0.00000000000E+00  0.00000000000E+00  0.14324670491E+02  0.14324670491E+02  0.00000000000E+00 0.  1.
          1   -1    0    0  501    0  0.00000000000E+00 -0.00000000000E+00 -0.13376476774E+04  0.13376476774E+04  0.00000000000E+00 0. -1.
         24    1    1    2    0    0  0.89273958965E+02  0.52198540267E+02 -0.44328885577E+03  0.46224101177E+03  0.80419002446E+02 0.  1.
        -24    1    1    2    0    0 -0.89273958965E+02 -0.52198540267E+02 -0.88003415111E+03  0.88973133610E+03  0.80419002446E+02 0.  0.
<mgrwt>
<rscale>  0 0.13100284E+03</rscale>
<asrwt>0</asrwt>
<pdfrwt beam="1">  1        1 0.20579200E+00 0.13100284E+03</pdfrwt>
<pdfrwt beam="2">  1       -1 0.22037949E-02 0.13100284E+03</pdfrwt>
<totfact> 0.53547091E+03</totfact>
</mgrwt>
</event>
<event>
 4    1  0.6602701E-002  0.8478801E+02  0.7546771E-02  0.1315988E+00
          4   -1    0    0  501    0  0.00000000000E+00  0.00000000000E+00  0.38068915147E+02  0.38068915147E+02  0.00000000000E+00 0. -1.
         -4   -1    0    0    0  501 -0.00000000000E+00 -0.00000000000E+00 -0.18912506259E+03  0.18912506259E+03  0.00000000000E+00 0.  1.
         24    1    1    2    0    0 -0.17967226441E+02  0.19974235018E+02 -0.71132753530E+02  0.11067463969E+03  0.80419002446E+02 0. -1.
        -24    1    1    2    0    0  0.17967226441E+02 -0.19974235018E+02 -0.79923393911E+02  0.11651933805E+03  0.80419002446E+02 0.  1.
<mgrwt>
<rscale>  0 0.84788014E+02</rscale>
<asrwt>0</asrwt>
<pdfrwt beam="1">  1        4 0.58567565E-02 0.84788014E+02</pdfrwt>
<pdfrwt beam="2">  1       -4 0.29096162E-01 0.84788014E+02</pdfrwt>
<totfact> 0.30209554E+03</totfact>
</mgrwt>
</event>
<event>
 4    1  0.6602701E-002  0.8532652E+02  0.7546771E-02  0.1314581E+00
         -1   -1    0    0    0  501 -0.00000000000E+00  0.00000000000E+00  0.13427540478E+03  0.13427540478E+03  0.00000000000E+00 0.  1.
          1   -1    0    0  501    0  0.00000000000E+00 -0.00000000000E+00 -0.55372046683E+02  0.55372046683E+02  0.00000000000E+00 0. -1.
         24    1    1    2    0    0  0.14376346877E+02 -0.24631667082E+02  0.53120252571E+02  0.10051057437E+03  0.80419002446E+02 0.  1.
        -24    1    1    2    0    0 -0.14376346877E+02  0.24631667082E+02  0.25783105524E+02  0.89136877091E+02  0.80419002446E+02 0. -1.
<mgrwt>
<rscale>  0 0.85326516E+02</rscale>
<asrwt>0</asrwt>
<pdfrwt beam="1">  1        1 0.85187765E-02 0.85326516E+02</pdfrwt>
<pdfrwt beam="2">  1       -1 0.20657754E-01 0.85326516E+02</pdfrwt>
<totfact> 0.13575128E+04</totfact>
</mgrwt>
</event>
<event>
 4    1  0.6602701E-002  0.8199779E+02  0.7546771E-02  0.1323476E+00
         -2   -1    0    0    0  501 -0.00000000000E+00  0.00000000000E+00  0.48750422414E+02  0.48750422414E+02  0.00000000000E+00 0.  1.
          2   -1    0    0  501    0  0.00000000000E+00 -0.00000000000E+00 -0.14631250081E+03  0.14631250081E+03  0.00000000000E+00 0. -1.
         24    1    1    2    0    0 -0.14224177512E+02 -0.73547063478E+01 -0.25421615885E+02  0.85848083496E+02  0.80419002446E+02 0.  0.
        -24    1    1    2    0    0  0.14224177512E+02  0.73547063478E+01 -0.72140462512E+02  0.10921483973E+03  0.80419002446E+02 0.  1.
<mgrwt>
<rscale>  0 0.81997784E+02</rscale>
<asrwt>0</asrwt>
<pdfrwt beam="1">  1        2 0.22509615E-01 0.81997794E+02</pdfrwt>
<pdfrwt beam="2">  1       -2 0.75000650E-02 0.81997794E+02</pdfrwt>
<totfact> 0.22229920E+04</totfact>
</mgrwt>
</event>
<event>
 4    1  0.6602701E-002  0.1192275E+03  0.7546771E-02  0.1244377E+00
         -1   -1    0    0    0  501 -0.00000000000E+00  0.00000000000E+00  0.11744839493E+03  0.11744839493E+03  0.00000000000E+00 0.  1.
          1   -1    0    0  501    0  0.00000000000E+00 -0.00000000000E+00 -0.28146454388E+03  0.28146454388E+03  0.00000000000E+00 0. -1.
         24    1    1    2    0    0 -0.78300738852E+02  0.40211650112E+02  0.68576466950E+02  0.13754246720E+03  0.80419002446E+02 0.  1.
        -24    1    1    2    0    0  0.78300738852E+02 -0.40211650112E+02 -0.23259261590E+03  0.26137047162E+03  0.80419002446E+02 0. -1.
<mgrwt>
<rscale>  0 0.11922751E+03</rscale>
<asrwt>0</asrwt>
<pdfrwt beam="1">  1        1 0.43302237E-01 0.11922751E+03</pdfrwt>
<pdfrwt beam="2">  1       -1 0.18068984E-01 0.11922751E+03</pdfrwt>
<totfact> 0.21954184E+03</totfact>
</mgrwt>
</event>
<event>
 4    1  0.6602701E-002  0.1426415E+03  0.7546771E-02  0.1209818E+00
          2   -1    0    0  501    0  0.00000000000E+00  0.00000000000E+00  0.43067718902E+03  0.43067718902E+03  0.00000000000E+00 0. -1.
         -2   -1    0    0    0  501 -0.00000000000E+00 -0.00000000000E+00 -0.61309913011E+02  0.61309913011E+02  0.00000000000E+00 0.  1.
         24    1    1    2    0    0 -0.10796899118E+03  0.47139052961E+02  0.30251291823E+03  0.33445578934E+03  0.80419002446E+02 0. -1.
        -24    1    1    2    0    0  0.10796899118E+03 -0.47139052961E+02  0.66854357780E+02  0.15753131270E+03  0.80419002446E+02 0.  0.
<mgrwt>
<rscale>  0 0.14264154E+03</rscale>
<asrwt>0</asrwt>
<pdfrwt beam="1">  1        2 0.66258027E-01 0.14264154E+03</pdfrwt>
<pdfrwt beam="2">  1       -2 0.94322946E-02 0.14264154E+03</pdfrwt>
<totfact> 0.51694569E+03</totfact>
</mgrwt>
</event>
<event>
 4    1  0.6602701E-002  0.8151814E+02  0.7546771E-02  0.1324798E+00
         -2   -1    0    0    0  501 -0.00000000000E+00  0.00000000000E+00  0.61654077356E+03  0.61654077356E+03  0.00000000000E+00 0.  1.
          2   -1    0    0  501    0  0.00000000000E+00 -0.00000000000E+00 -0.58205858295E+02  0.58205858295E+02  0.00000000000E+00 0. -1.
         24    1    1    2    0    0  0.30844706470E+01 -0.12979882879E+02 -0.25371716896E+02  0.85375238163E+02  0.80419002446E+02 0. -1.
        -24    1    1    2    0    0 -0.30844706470E+01  0.12979882879E+02  0.58370663216E+03  0.58937139369E+03  0.80419002446E+02 0.  1.
<mgrwt>
<rscale>  0 0.81518141E+02</rscale>
<asrwt>0</asrwt>
<pdfrwt beam="1">  1        2 0.89547479E-02 0.81518141E+02</pdfrwt>
<pdfrwt beam="2">  1       -2 0.94852422E-01 0.81518141E+02</pdfrwt>
<totfact> 0.68564521E+02</totfact>
</mgrwt>
</event>
<event>
 4    1  0.6602701E-002  0.8130911E+02  0.7546771E-02  0.1325377E+00
          1   -1    0    0  501    0  0.00000000000E+00  0.00000000000E+00  0.10881159198E+04  0.10881159198E+04  0.00000000000E+00 0. -1.
         -1   -1    0    0    0  501 -0.00000000000E+00 -0.00000000000E+00 -0.12174798178E+02  0.12174798178E+02  0.00000000000E+00 0.  1.
         24    1    1    2    0    0 -0.74554973292E+01 -0.94006024383E+01  0.14858851931E+03  0.16938039966E+03  0.80419002446E+02 0.  0.
        -24    1    1    2    0    0  0.74554973292E+01  0.94006024383E+01  0.92735260232E+03  0.93091031832E+03  0.80419002446E+02 0. -1.
<mgrwt>
<rscale>  0 0.81309112E+02</rscale>
<asrwt>0</asrwt>
<pdfrwt beam="1">  1        1 0.16740237E+00 0.81309112E+02</pdfrwt>
<pdfrwt beam="2">  1       -1 0.18730467E-02 0.81309112E+02</pdfrwt>
<totfact> 0.97221284E+03</totfact>
</mgrwt>
</event>
<event>
 4    1  0.6602701E-002  0.8636322E+02  0.7546771E-02  0.1311906E+00
          2   -1    0    0  501    0  0.00000000000E+00  0.00000000000E+00  0.40494785947E+03  0.40494785947E+03  0.00000000000E+00 0. -1.
         -2   -1    0    0    0  501 -0.00000000000E+00 -0.00000000000E+00 -0.28718963704E+02  0.28718963704E+02  0.00000000000E+00 0.  1.
         24    1    1    2    0    0  0.28790812961E+02  0.12746746161E+02  0.31797174017E+03  0.32949147781E+03  0.80419002446E+02 0. -1.
        -24    1    1    2    0    0 -0.28790812961E+02 -0.12746746161E+02  0.58257155592E+02  0.10417534536E+03  0.80419002446E+02 0.  1.
<mgrwt>
<rscale>  0 0.86363224E+02</rscale>
<asrwt>0</asrwt>
<pdfrwt beam="1">  1        2 0.62299666E-01 0.86363224E+02</pdfrwt>
<pdfrwt beam="2">  1       -2 0.44183024E-02 0.86363224E+02</pdfrwt>
<totfact> 0.16789640E+04</totfact>
</mgrwt>
</event>
<event>
 4    1  0.6602701E-002  0.8503851E+02  0.7546771E-02  0.1315332E+00
          4   -1    0    0  501    0  0.00000000000E+00  0.00000000000E+00  0.22019480745E+03  0.22019480745E+03  0.00000000000E+00 0. -1.
         -4   -1    0    0    0  501 -0.00000000000E+00 -0.00000000000E+00 -0.87651573504E+02  0.87651573504E+02  0.00000000000E+00 0.  1.
         24    1    1    2    0    0 -0.19106474571E+02 -0.19981843591E+02  0.18798940108E+03  0.20632877239E+03  0.80419002446E+02 0. -1.
        -24    1    1    2    0    0  0.19106474571E+02  0.19981843591E+02 -0.55446167134E+02  0.10151760856E+03  0.80419002446E+02 0.  1.
<mgrwt>
<rscale>  0 0.85038505E+02</rscale>
<asrwt>0</asrwt>
<pdfrwt beam="1">  1        4 0.33876124E-01 0.85038505E+02</pdfrwt>
<pdfrwt beam="2">  1       -4 0.13484858E-01 0.85038505E+02</pdfrwt>
<totfact> 0.57152560E+02</totfact>
</mgrwt>
</event>
<event>
 4    1  0.6602701E-002  0.1521031E+03  0.7546771E-02  0.1197912E+00
         -1   -1    0    0    0  501 -0.00000000000E+00  0.00000000000E+00  0.66075967239E+03  0.66075967239E+03  0.00000000000E+00 0.  1.
          1   -1    0    0  501    0  0.00000000000E+00 -0.00000000000E+00 -0.59647021848E+02  0.59647021848E+02  0.00000000000E+00 0. -1.
         24    1    1    2    0    0 -0.50632261661E+02 -0.11876241668E+03  0.53203910417E+03  0.55335428241E+03  0.80419002446E+02 0.  1.
        -24    1    1    2    0    0  0.50632261661E+02  0.11876241668E+03  0.69073546367E+02  0.16705241183E+03  0.80419002446E+02 0. -1.
<mgrwt>
<rscale>  0 0.15210310E+03</rscale>
<asrwt>0</asrwt>
<pdfrwt beam="1">  1        1 0.91764654E-02 0.15210310E+03</pdfrwt>
<pdfrwt beam="2">  1       -1 0.10165533E+00 0.15210310E+03</pdfrwt>
<totfact> 0.69582819E+02</totfact>
</mgrwt>
</event>
<event>
 4    1  0.6602701E-002  0.9300408E+02  0.7546771E-02  0.1295736E+00
         -1   -1    0    0    0  501 -0.00000000000E+00  0.00000000000E+00  0.30364534221E+03  0.30364534221E+03  0.00000000000E+00 0.  1.
          1   -1    0    0  501    0  0.00000000000E+00 -0.00000000000E+00 -0.41624076509E+02  0.41624076509E+02  0.00000000000E+00 0. -1.
         24    1    1    2    0    0  0.40967184103E+02  0.22455115946E+02  0.22799803559E+03  0.24623741103E+03  0.80419002446E+02 0.  1.
        -24    1    1    2    0    0 -0.40967184103E+02 -0.22455115946E+02  0.34023230117E+02  0.99032007692E+02  0.80419002446E+02 0. -1.
<mgrwt>
<rscale>  0 0.93004077E+02</rscale>
<asrwt>0</asrwt>
<pdfrwt beam="1">  1        1 0.64037043E-02 0.93004077E+02</pdfrwt>
<pdfrwt beam="2">  1       -1 0.46714667E-01 0.93004077E+02</pdfrwt>
<totfact> 0.50990136E+03</totfact>
</mgrwt>
</event>
<event>
 4    1  0.6602701E-002  0.8622928E+02  0.7546771E-02  0.1312249E+00
          2   -1    0    0  501    0  0.00000000000E+00  0.00000000000E+00  0.61226344645E+03  0.61226344645E+03  0.00000000000E+00 0. -1.
         -2   -1    0    0    0  501 -0.00000000000E+00 -0.00000000000E+00 -0.12385174713E+02  0.12385174713E+02  0.00000000000E+00 0.  1.
         24    1    1    2    0    0  0.12446773160E+01 -0.31092166253E+02  0.34349876570E+03  0.35415658968E+03  0.80419002446E+02 0. -1.
        -24    1    1    2    0    0 -0.12446773160E+01  0.31092166253E+02  0.25637950604E+03  0.27049203148E+03  0.80419002446E+02 0.  0.
<mgrwt>
<rscale>  0 0.86229276E+02</rscale>
<asrwt>0</asrwt>
<pdfrwt beam="1">  1        2 0.94194353E-01 0.86229276E+02</pdfrwt>
<pdfrwt beam="2">  1       -2 0.19054120E-02 0.86229276E+02</pdfrwt>
<totfact> 0.36399356E+04</totfact>
</mgrwt>
</event>
<event>
 4    1  0.6602701E-002  0.1127102E+03  0.7546771E-02  0.1255632E+00
         -1   -1    0    0    0  501 -0.00000000000E+00  0.00000000000E+00  0.39978024431E+03  0.39978024431E+03  0.00000000000E+00 0.  1.
          1   -1    0    0  501    0  0.00000000000E+00 -0.00000000000E+00 -0.31992430164E+02  0.31992430164E+02  0.00000000000E+00 0. -1.
         24    1    1    2    0    0  0.53337393537E+02 -0.58236553836E+02  0.16615500740E+03  0.20077618432E+03  0.80419002446E+02 0. -1.
        -24    1    1    2    0    0 -0.53337393537E+02  0.58236553836E+02  0.20163280675E+03  0.23099649015E+03  0.80419002446E+02 0.  1.
<mgrwt>
<rscale>  0 0.11271022E+03</rscale>
<asrwt>0</asrwt>
<pdfrwt beam="1">  1        1 0.49219126E-02 0.11271023E+03</pdfrwt>
<pdfrwt beam="2">  1       -1 0.61504649E-01 0.11271023E+03</pdfrwt>
<totfact> 0.44491245E+03</totfact>
</mgrwt>
</event>
<event>
 4    1  0.6602701E-002  0.1673468E+03  0.7546771E-02  0.1180643E+00
         -2   -1    0    0    0  501 -0.00000000000E+00  0.00000000000E+00  0.22784405601E+02  0.22784405601E+02  0.00000000000E+00 0.  1.
          2   -1    0    0  501    0  0.00000000000E+00 -0.00000000000E+00 -0.12962403829E+04  0.12962403829E+04  0.00000000000E+00 0. -1.
         24    1    1    2    0    0 -0.14648019111E+03  0.90154158136E+01 -0.78679424710E+03  0.80439426113E+03  0.80419002446E+02 0.  0.
        -24    1    1    2    0    0  0.14648019111E+03 -0.90154158136E+01 -0.48666173019E+03  0.51463052737E+03  0.80419002446E+02 0.  1.
<mgrwt>
<rscale>  0 0.16734677E+03</rscale>
<asrwt>0</asrwt>
<pdfrwt beam="1">  1        2 0.19942162E+00 0.16734677E+03</pdfrwt>
<pdfrwt beam="2">  1       -2 0.35052928E-02 0.16734677E+03</pdfrwt>
<totfact> 0.58332182E+03</totfact>
</mgrwt>
</event>
<event>
 4    1  0.6602701E-002  0.1215546E+03  0.7546771E-02  0.1240554E+00
          1   -1    0    0  501    0  0.00000000000E+00  0.00000000000E+00  0.27397517183E+03  0.27397517183E+03  0.00000000000E+00 0. -1.
         -1   -1    0    0    0  501 -0.00000000000E+00 -0.00000000000E+00 -0.13469775016E+03  0.13469775016E+03  0.00000000000E+00 0.  1.
         24    1    1    2    0    0 -0.42729977546E+02 -0.80513633423E+02 -0.88589670072E+02  0.15041157451E+03  0.80419002446E+02 0.  1.
        -24    1    1    2    0    0  0.42729977546E+02  0.80513633423E+02  0.22786709174E+03  0.25826134748E+03  0.80419002446E+02 0. -1.
<mgrwt>
<rscale>  0 0.12155456E+03</rscale>
<asrwt>0</asrwt>
<pdfrwt beam="1">  1        1 0.42150026E-01 0.12155456E+03</pdfrwt>
<pdfrwt beam="2">  1       -1 0.20722731E-01 0.12155456E+03</pdfrwt>
<totfact> 0.18250479E+03</totfact>
</mgrwt>
</event>
<event>
 4    1  0.6602701E-002  0.8477160E+02  0.7546771E-02  0.1316031E+00
         -3   -1    0    0    0  501 -0.00000000000E+00  0.00000000000E+00  0.27450089657E+03  0.27450089657E+03  0.00000000000E+00 0.  1.
          3   -1    0    0  501    0  0.00000000000E+00 -0.00000000000E+00 -0.38103019155E+02  0.38103019155E+02  0.00000000000E+00 0. -1.
         24    1    1    2    0    0  0.20282082338E+02 -0.17539825261E+02  0.20563522890E+03  0.22242318146E+03  0.80419002446E+02 0.  0.
        -24    1    1    2    0    0 -0.20282082338E+02  0.17539825261E+02  0.30762648519E+02  0.90180734264E+02  0.80419002446E+02 0.  0.
<mgrwt>
<rscale>  0 0.84771601E+02</rscale>
<asrwt>0</asrwt>
<pdfrwt beam="1">  1        3 0.58620031E-02 0.84771601E+02</pdfrwt>
<pdfrwt beam="2">  1       -3 0.42230906E-01 0.84771601E+02</pdfrwt>
<totfact> 0.20662190E+03</totfact>
</mgrwt>
</event>
<event>
 4    1  0.6602701E-002  0.9300889E+02  0.7546771E-02  0.1295725E+00
         -2   -1    0    0    0  501 -0.00000000000E+00  0.00000000000E+00  0.29995602520E+02  0.29995602520E+02  0.00000000000E+00 0.  1.
          2   -1    0    0  501    0  0.00000000000E+00 -0.00000000000E+00 -0.31559952382E+03  0.31559952382E+03  0.00000000000E+00 0. -1.
         24    1    1    2    0    0  0.17010591912E+02  0.43520939982E+02 -0.92071094231E+02  0.13087297200E+03  0.80419002446E+02 0. -1.
        -24    1    1    2    0    0 -0.17010591912E+02 -0.43520939982E+02 -0.19353282707E+03  0.21472215433E+03  0.80419002446E+02 0.  0.
<mgrwt>
<rscale>  0 0.93008874E+02</rscale>
<asrwt>0</asrwt>
<pdfrwt beam="1">  1        2 0.48553776E-01 0.93008885E+02</pdfrwt>
<pdfrwt beam="2">  1       -2 0.46147078E-02 0.93008885E+02</pdfrwt>
<totfact> 0.20598450E+04</totfact>
</mgrwt>
</event>
<event>
 4    1  0.6602701E-002  0.2145896E+03  0.7546771E-02  0.1137982E+00
         -1   -1    0    0    0  501 -0.00000000000E+00  0.00000000000E+00  0.59052431955E+02  0.59052431955E+02  0.00000000000E+00 0.  1.
          1   -1    0    0  501    0  0.00000000000E+00 -0.00000000000E+00 -0.78051470359E+03  0.78051470359E+03  0.00000000000E+00 0. -1.
         24    1    1    2    0    0 -0.19890829702E+03  0.41219577677E+01 -0.34797292431E+03  0.40882009878E+03  0.80419002446E+02 0.  1.
        -24    1    1    2    0    0  0.19890829702E+03 -0.41219577677E+01 -0.37348934732E+03  0.43074703676E+03  0.80419002446E+02 0. -1.
<mgrwt>
<rscale>  0 0.21458965E+03</rscale>
<asrwt>0</asrwt>
<pdfrwt beam="1">  1        1 0.12007918E+00 0.21458965E+03</pdfrwt>
<pdfrwt beam="2">  1       -1 0.90849901E-02 0.21458965E+03</pdfrwt>
<totfact> 0.16893419E+03</totfact>
</mgrwt>
</event>
<event>
 4    1  0.6602701E-002  0.1086967E+03  0.7546771E-02  0.1263003E+00
          2   -1    0    0  501    0  0.00000000000E+00  0.00000000000E+00  0.50676154349E+02  0.50676154349E+02  0.00000000000E+00 0. -1.
         -2   -1    0    0    0  501 -0.00000000000E+00 -0.00000000000E+00 -0.29378904866E+03  0.29378904866E+03  0.00000000000E+00 0.  1.
         24    1    1    2    0    0  0.70115963487E+02  0.20772563880E+02 -0.43306043248E+02  0.11700588482E+03  0.80419002446E+02 0. -1.
        -24    1    1    2    0    0 -0.70115963487E+02 -0.20772563880E+02 -0.19980685106E+03  0.22745931819E+03  0.80419002446E+02 0.  0.
<mgrwt>
<rscale>  0 0.10869666E+03</rscale>
<asrwt>0</asrwt>
<pdfrwt beam="1">  1        2 0.77963314E-02 0.10869666E+03</pdfrwt>
<pdfrwt beam="2">  1       -2 0.45198316E-01 0.10869666E+03</pdfrwt>
<totfact> 0.38761031E+03</totfact>
</mgrwt>
</event>
<event>
 4    1  0.6602701E-002  0.8291620E+02  0.7546771E-02  0.1320974E+00
         -2   -1    0    0    0  501 -0.00000000000E+00  0.00000000000E+00  0.25739254152E+02  0.25739254152E+02  0.00000000000E+00 0.  1.
          2   -1    0    0  501    0  0.00000000000E+00 -0.00000000000E+00 -0.16853988340E+04  0.16853988340E+04  0.00000000000E+00 0. -1.
         24    1    1    2    0    0 -0.20188330708E+02  0.55780973847E+00 -0.16146799518E+04  0.16168074847E+04  0.80419002446E+02 0. -1.
        -24    1    1    2    0    0  0.20188330708E+02 -0.55780973847E+00 -0.44979627972E+02  0.94330603387E+02  0.80419002446E+02 0.  1.
<mgrwt>
<rscale>  0 0.82916197E+02</rscale>
<asrwt>0</asrwt>
<pdfrwt beam="1">  1        2 0.25929213E+00 0.82916197E+02</pdfrwt>
<pdfrwt beam="2">  1       -2 0.39598852E-02 0.82916197E+02</pdfrwt>
<totfact> 0.30100263E+03</totfact>
</mgrwt>
</event>
<event>
 4    1  0.6602701E-002  0.8347087E+02  0.7546771E-02  0.1319481E+00
          2   -1    0    0  501    0  0.00000000000E+00  0.00000000000E+00  0.76367304639E+03  0.76367304639E+03  0.00000000000E+00 0. -1.
         -2   -1    0    0    0  501 -0.00000000000E+00 -0.00000000000E+00 -0.14960797674E+02  0.14960797674E+02  0.00000000000E+00 0.  1.
         24    1    1    2    0    0  0.17400918480E+02  0.14049106716E+02  0.61753795930E+03  0.62315368610E+03  0.80419002446E+02 0. -1.
        -24    1    1    2    0    0 -0.17400918480E+02 -0.14049106716E+02  0.13117428941E+03  0.15548015797E+03  0.80419002446E+02 0.  1.
<mgrwt>
<rscale>  0 0.83470865E+02</rscale>
<asrwt>0</asrwt>
<pdfrwt beam="1">  1        2 0.11748813E+00 0.83470865E+02</pdfrwt>
<pdfrwt beam="2">  1       -2 0.23016618E-02 0.83470865E+02</pdfrwt>
<totfact> 0.21422221E+04</totfact>
</mgrwt>
</event>
<event>
 4    1  0.6602701E-002  0.1007991E+03  0.7546771E-02  0.1278625E+00
         -2   -1    0    0    0  501 -0.00000000000E+00  0.00000000000E+00  0.52809691007E+02  0.52809691007E+02  0.00000000000E+00 0.  1.
          2   -1    0    0  501    0  0.00000000000E+00 -0.00000000000E+00 -0.94150419609E+03  0.94150419609E+03  0.00000000000E+00 0. -1.
         24    1    1    2    0    0 -0.52513390269E+02  0.30587294732E+02 -0.88780700169E+03  0.89351089918E+03  0.80419002446E+02 0. -1.
        -24    1    1    2    0    0  0.52513390269E+02 -0.30587294732E+02 -0.88750339786E+00  0.10080298792E+03  0.80419002446E+02 0.  1.
<mgrwt>
<rscale>  0 0.10079908E+03</rscale>
<asrwt>0</asrwt>
<pdfrwt beam="1">  1        2 0.14484679E+00 0.10079908E+03</pdfrwt>
<pdfrwt beam="2">  1       -2 0.81245682E-02 0.10079908E+03</pdfrwt>
<totfact> 0.25811194E+03</totfact>
</mgrwt>
</event>
<event>
 4    1  0.6602701E-002  0.1119744E+03  0.7546771E-02  0.1256957E+00
          1   -1    0    0  501    0  0.00000000000E+00  0.00000000000E+00  0.15863258931E+04  0.15863258931E+04  0.00000000000E+00 0. -1.
         -1   -1    0    0    0  501 -0.00000000000E+00 -0.00000000000E+00 -0.11057515463E+02  0.11057515463E+02  0.00000000000E+00 0.  1.
         24    1    1    2    0    0  0.58040303006E+02 -0.51984251604E+02  0.36110310371E+03  0.37806574382E+03  0.80419002446E+02 0.  1.
        -24    1    1    2    0    0 -0.58040303006E+02  0.51984251604E+02  0.12141652739E+04  0.12193176648E+04  0.80419002446E+02 0. -1.
<mgrwt>
<rscale>  0 0.11197435E+03</rscale>
<asrwt>0</asrwt>
<pdfrwt beam="1">  1        1 0.24404996E+00 0.11197435E+03</pdfrwt>
<pdfrwt beam="2">  1       -1 0.17011575E-02 0.11197435E+03</pdfrwt>
<totfact> 0.53279331E+03</totfact>
</mgrwt>
</event>
<event>
 4    1  0.6602701E-002  0.9343733E+02  0.7546771E-02  0.1294735E+00
          2   -1    0    0  501    0  0.00000000000E+00  0.00000000000E+00  0.59268628600E+02  0.59268628600E+02  0.00000000000E+00 0. -1.
         -2   -1    0    0    0  501 -0.00000000000E+00 -0.00000000000E+00 -0.26807642857E+03  0.26807642857E+03  0.00000000000E+00 0.  1.
         24    1    1    2    0    0 -0.41948769830E+02 -0.22441452306E+02  0.54535537996E+01  0.93596342211E+02  0.80419002446E+02 0. -1.
        -24    1    1    2    0    0  0.41948769830E+02  0.22441452306E+02 -0.21426135377E+03  0.23374871496E+03  0.80419002446E+02 0.  1.
<mgrwt>
<rscale>  0 0.93437327E+02</rscale>
<asrwt>0</asrwt>
<pdfrwt beam="1">  1        2 0.91182506E-02 0.93437327E+02</pdfrwt>
<pdfrwt beam="2">  1       -2 0.41242527E-01 0.93437327E+02</pdfrwt>
<totfact> 0.37602887E+03</totfact>
</mgrwt>
</event>
<event>
 4    1  0.6602701E-002  0.8975514E+02  0.7546771E-02  0.1303446E+00
         -1   -1    0    0    0  501 -0.00000000000E+00  0.00000000000E+00  0.14083181627E+03  0.14083181627E+03  0.00000000000E+00 0.  1.
          1   -1    0    0  501    0  0.00000000000E+00 -0.00000000000E+00 -0.10332949475E+03  0.10332949475E+03  0.00000000000E+00 0. -1.
         24    1    1    2    0    0  0.23084045255E+02  0.32494550852E+02  0.10031741326E+03  0.13460894598E+03  0.80419002446E+02 0.  1.
        -24    1    1    2    0    0 -0.23084045255E+02 -0.32494550852E+02 -0.62815091746E+02  0.10955236504E+03  0.80419002446E+02 0. -1.
<mgrwt>
<rscale>  0 0.89755139E+02</rscale>
<asrwt>0</asrwt>
<pdfrwt beam="1">  1        1 0.15896845E-01 0.89755139E+02</pdfrwt>
<pdfrwt beam="2">  1       -1 0.21666433E-01 0.89755139E+02</pdfrwt>
<totfact> 0.56298610E+03</totfact>
</mgrwt>
</event>
<event>
 4    1  0.6602701E-002  0.8268320E+02  0.7546771E-02  0.1321605E+00
         -1   -1    0    0    0  501 -0.00000000000E+00  0.00000000000E+00  0.48387147234E+02  0.48387147234E+02  0.00000000000E+00 0.  1.
          1   -1    0    0  501    0  0.00000000000E+00 -0.00000000000E+00 -0.14987061669E+03  0.14987061669E+03  0.00000000000E+00 0. -1.
         24    1    1    2    0    0 -0.98401933863E+01  0.16506456398E+02 -0.74464185561E+02  0.11127184457E+03  0.80419002446E+02 0.  0.
        -24    1    1    2    0    0  0.98401933863E+01 -0.16506456398E+02 -0.27019283892E+02  0.86985919350E+02  0.80419002446E+02 0.  0.
<mgrwt>
<rscale>  0 0.82683192E+02</rscale>
<asrwt>0</asrwt>
<pdfrwt beam="1">  1        1 0.23057017E-01 0.82683202E+02</pdfrwt>
<pdfrwt beam="2">  1       -1 0.74441767E-02 0.82683202E+02</pdfrwt>
<totfact> 0.18016708E+04</totfact>
</mgrwt>
</event>
<event>
 4    1  0.6602701E-002  0.8975820E+02  0.7546771E-02  0.1303438E+00
         -1   -1    0    0    0  501 -0.00000000000E+00  0.00000000000E+00  0.14110994131E+02  0.14110994131E+02  0.00000000000E+00 0.  1.
          1   -1    0    0  501    0  0.00000000000E+00 -0.00000000000E+00 -0.57134155081E+03  0.57134155081E+03  0.00000000000E+00 0. -1.
         24    1    1    2    0    0 -0.31999739930E+02 -0.23776766598E+02 -0.27085690021E+03  0.28534189025E+03  0.80419002446E+02 0.  0.
        -24    1    1    2    0    0  0.31999739930E+02  0.23776766598E+02 -0.28637365647E+03  0.30011065470E+03  0.80419002446E+02 0.  1.
<mgrwt>
<rscale>  0 0.89758197E+02</rscale>
<asrwt>0</asrwt>
<pdfrwt beam="1">  1        1 0.87898710E-01 0.89758197E+02</pdfrwt>
<pdfrwt beam="2">  1       -1 0.21709219E-02 0.89758197E+02</pdfrwt>
<totfact> 0.20737285E+04</totfact>
</mgrwt>
</event>
<event>
 4    1  0.6602701E-002  0.1042176E+03  0.7546771E-02  0.1271669E+00
         -1   -1    0    0    0  501 -0.00000000000E+00  0.00000000000E+00  0.15058948746E+03  0.15058948746E+03  0.00000000000E+00 0.  1.
          1   -1    0    0  501    0  0.00000000000E+00 -0.00000000000E+00 -0.94395031895E+02  0.94395031895E+02  0.00000000000E+00 0. -1.
         24    1    1    2    0    0 -0.52079059127E+02 -0.41010512638E+02  0.87593797258E+02  0.13613956008E+03  0.80419002446E+02 0.  1.
        -24    1    1    2    0    0  0.52079059127E+02  0.41010512638E+02 -0.31399341693E+02  0.10884495927E+03  0.80419002446E+02 0. -1.
<mgrwt>
<rscale>  0 0.10421759E+03</rscale>
<asrwt>0</asrwt>
<pdfrwt beam="1">  1        1 0.14522313E-01 0.10421759E+03</pdfrwt>
<pdfrwt beam="2">  1       -1 0.23167613E-01 0.10421759E+03</pdfrwt>
<totfact> 0.57397220E+03</totfact>
</mgrwt>
</event>
<event>
 4    1  0.6602701E-002  0.1114593E+03  0.7546771E-02  0.1257891E+00
         -2   -1    0    0    0  501 -0.00000000000E+00  0.00000000000E+00  0.13419933162E+02  0.13419933162E+02  0.00000000000E+00 0.  1.
          2   -1    0    0  501    0  0.00000000000E+00 -0.00000000000E+00 -0.10169843812E+04  0.10169843812E+04  0.00000000000E+00 0. -1.
         24    1    1    2    0    0 -0.55852386732E+02  0.53258423982E+02 -0.65611557834E+03  0.66551545205E+03  0.80419002446E+02 0. -1.
        -24    1    1    2    0    0  0.55852386732E+02 -0.53258423982E+02 -0.34744886973E+03  0.36488886234E+03  0.80419002446E+02 0.  1.
<mgrwt>
<rscale>  0 0.11145925E+03</rscale>
<asrwt>0</asrwt>
<pdfrwt beam="1">  1        2 0.15645915E+00 0.11145925E+03</pdfrwt>
<pdfrwt beam="2">  1       -2 0.20646050E-02 0.11145925E+03</pdfrwt>
<totfact> 0.17811895E+04</totfact>
</mgrwt>
</event>
<event>
 4    1  0.6602701E-002  0.2437100E+03  0.7546771E-02  0.1117346E+00
          2   -1    0    0  501    0  0.00000000000E+00  0.00000000000E+00  0.52500702752E+02  0.52500702752E+02  0.00000000000E+00 0. -1.
         -2   -1    0    0    0  501 -0.00000000000E+00 -0.00000000000E+00 -0.12498936213E+04  0.12498936213E+04  0.00000000000E+00 0.  1.
         24    1    1    2    0    0 -0.22853216087E+03  0.26465177338E+02 -0.39811613705E+03  0.46678799117E+03  0.80419002446E+02 0. -1.
        -24    1    1    2    0    0  0.22853216087E+03 -0.26465177338E+02 -0.79927678154E+03  0.83560633292E+03  0.80419002446E+02 0.  1.
<mgrwt>
<rscale>  0 0.24371001E+03</rscale>
<asrwt>0</asrwt>
<pdfrwt beam="1">  1        2 0.80770313E-02 0.24371001E+03</pdfrwt>
<pdfrwt beam="2">  1       -2 0.19229132E+00 0.24371001E+03</pdfrwt>
<totfact> 0.13576920E+02</totfact>
</mgrwt>
</event>
<event>
 4    1  0.6602701E-002  0.1751154E+03  0.7546771E-02  0.1172616E+00
         -3   -1    0    0    0  501 -0.00000000000E+00  0.00000000000E+00  0.19800333901E+03  0.19800333901E+03  0.00000000000E+00 0.  1.
          3   -1    0    0  501    0  0.00000000000E+00 -0.00000000000E+00 -0.16104616477E+03  0.16104616477E+03  0.00000000000E+00 0. -1.
         24    1    1    2    0    0  0.15457216082E+03  0.17481694304E+02 -0.16669505903E+02  0.17590693823E+03  0.80419002446E+02 0. -1.
        -24    1    1    2    0    0 -0.15457216082E+03 -0.17481694304E+02  0.53626680143E+02  0.18314256554E+03  0.80419002446E+02 0.  1.
<mgrwt>
<rscale>  0 0.17511535E+03</rscale>
<asrwt>0</asrwt>
<pdfrwt beam="1">  1        3 0.24776333E-01 0.17511537E+03</pdfrwt>
<pdfrwt beam="2">  1       -3 0.30462052E-01 0.17511537E+03</pdfrwt>
<totfact> 0.38289795E+02</totfact>
</mgrwt>
</event>
<event>
 4    1  0.6602701E-002  0.8589080E+02  0.7546771E-02  0.1313119E+00
         -1   -1    0    0    0  501 -0.00000000000E+00  0.00000000000E+00  0.36819665425E+02  0.36819665425E+02  0.00000000000E+00 0.  1.
          1   -1    0    0  501    0  0.00000000000E+00 -0.00000000000E+00 -0.45203818684E+03  0.45203818684E+03  0.00000000000E+00 0. -1.
         24    1    1    2    0    0 -0.29685423904E+02 -0.53654894749E+01 -0.25225203264E+02  0.89518376347E+02  0.80419002446E+02 0.  1.
        -24    1    1    2    0    0  0.29685423904E+02  0.53654894749E+01 -0.38999331815E+03  0.39933947592E+03  0.80419002446E+02 0. -1.
<mgrwt>
<rscale>  0 0.85890796E+02</rscale>
<asrwt>0</asrwt>
<pdfrwt beam="1">  1        1 0.69544331E-01 0.85890796E+02</pdfrwt>
<pdfrwt beam="2">  1       -1 0.56645643E-02 0.85890796E+02</pdfrwt>
<totfact> 0.69780582E+03</totfact>
</mgrwt>
</event>
<event>
 4    1  0.6602701E-002  0.9175985E+02  0.7546771E-02  0.1298645E+00
         -2   -1    0    0    0  501 -0.00000000000E+00  0.00000000000E+00  0.14257849571E+02  0.14257849571E+02  0.00000000000E+00 0.  1.
          2   -1    0    0  501    0  0.00000000000E+00 -0.00000000000E+00 -0.38286876179E+04  0.38286876179E+04  0.00000000000E+00 0. -1.
         24    1    1    2    0    0 -0.42858272214E+02 -0.10762084975E+02 -0.36742997007E+04  0.36754453010E+04  0.80419002446E+02 0. -1.
        -24    1    1    2    0    0  0.42858272214E+02  0.10762084975E+02 -0.14013006769E+03  0.16750016655E+03  0.80419002446E+02 0.  1.
<mgrwt>
<rscale>  0 0.91759849E+02</rscale>
<asrwt>0</asrwt>
<pdfrwt beam="1">  1        2 0.58902858E+00 0.91759849E+02</pdfrwt>
<pdfrwt beam="2">  1       -2 0.21935164E-02 0.91759849E+02</pdfrwt>
<totfact> 0.44179599E+02</totfact>
</mgrwt>
</event>
<event>
 4    1  0.6602701E-002  0.9516363E+02  0.7546771E-02  0.1290808E+00
          2   -1    0    0  501    0  0.00000000000E+00  0.00000000000E+00  0.10948586247E+04  0.10948586247E+04  0.00000000000E+00 0. -1.
         -2   -1    0    0    0  501 -0.00000000000E+00 -0.00000000000E+00 -0.94533650973E+01  0.94533650973E+01  0.00000000000E+00 0.  1.
         24    1    1    2    0    0  0.50470595823E+02 -0.64512697381E+01  0.73793586194E+03  0.74404667342E+03  0.80419002446E+02 0.  1.
        -24    1    1    2    0    0 -0.50470595823E+02  0.64512697381E+01  0.34746939767E+03  0.36026531639E+03  0.80419002446E+02 0.  0.
<mgrwt>
<rscale>  0 0.95163627E+02</rscale>
<asrwt>0</asrwt>
<pdfrwt beam="1">  1        2 0.16843969E+00 0.95163627E+02</pdfrwt>
<pdfrwt beam="2">  1       -2 0.14543647E-02 0.95163627E+02</pdfrwt>
<totfact> 0.26233099E+04</totfact>
</mgrwt>
</event>
<event>
 4    1  0.6602701E-002  0.1115558E+03  0.7546771E-02  0.1257716E+00
          2   -1    0    0  501    0  0.00000000000E+00  0.00000000000E+00  0.55334714992E+03  0.55334714992E+03  0.00000000000E+00 0. -1.
         -2   -1    0    0    0  501 -0.00000000000E+00 -0.00000000000E+00 -0.47585915067E+02  0.47585915067E+02  0.00000000000E+00 0.  1.
         24    1    1    2    0    0 -0.73579723153E+02 -0.23738279073E+02  0.47108308611E+03  0.48411152799E+03  0.80419002446E+02 0. -1.
        -24    1    1    2    0    0  0.73579723153E+02  0.23738279073E+02  0.34678148738E+02  0.11682153700E+03  0.80419002446E+02 0.  1.
<mgrwt>
<rscale>  0 0.11155580E+03</rscale>
<asrwt>0</asrwt>
<pdfrwt beam="1">  1        2 0.85130326E-01 0.11155580E+03</pdfrwt>
<pdfrwt beam="2">  1       -2 0.73209104E-02 0.11155580E+03</pdfrwt>
<totfact> 0.57387812E+03</totfact>
</mgrwt>
</event>
<event>
 4    1  0.6602701E-002  0.8364691E+02  0.7546771E-02  0.1319009E+00
         -2   -1    0    0    0  501 -0.00000000000E+00  0.00000000000E+00  0.58873638162E+01  0.58873638162E+01  0.00000000000E+00 0.  1.
          2   -1    0    0  501    0  0.00000000000E+00 -0.00000000000E+00 -0.12251260151E+04  0.12251260151E+04  0.00000000000E+00 0. -1.
         24    1    1    2    0    0 -0.22713469951E+02  0.36997311965E+01 -0.71612322053E+03  0.72099186726E+03  0.80419002446E+02 0. -1.
        -24    1    1    2    0    0  0.22713469951E+02 -0.36997311965E+01 -0.50311543075E+03  0.51002151165E+03  0.80419002446E+02 0.  1.
<mgrwt>
<rscale>  0 0.83646911E+02</rscale>
<asrwt>0</asrwt>
<pdfrwt beam="1">  1        2 0.18848080E+00 0.83646911E+02</pdfrwt>
<pdfrwt beam="2">  1       -2 0.90574890E-03 0.83646911E+02</pdfrwt>
<totfact> 0.43011459E+04</totfact>
</mgrwt>
</event>
<event>
 4    1  0.6602701E-002  0.8362015E+02  0.7546771E-02  0.1319081E+00
         -2   -1    0    0    0  501 -0.00000000000E+00  0.00000000000E+00  0.23271267185E+03  0.23271267185E+03  0.00000000000E+00 0.  1.
          2   -1    0    0  501    0  0.00000000000E+00 -0.00000000000E+00 -0.86706663376E+02  0.86706663376E+02  0.00000000000E+00 0. -1.
         24    1    1    2    0    0 -0.14762180642E+02  0.17526891937E+02 -0.56101609443E+02  0.10069617895E+03  0.80419002446E+02 0.  0.
        -24    1    1    2    0    0  0.14762180642E+02 -0.17526891937E+02  0.20210761792E+03  0.21872315628E+03  0.80419002446E+02 0.  1.
<mgrwt>
<rscale>  0 0.83620152E+02</rscale>
<asrwt>0</asrwt>
<pdfrwt beam="1">  1        2 0.13339487E-01 0.83620152E+02</pdfrwt>
<pdfrwt beam="2">  1       -2 0.35801949E-01 0.83620152E+02</pdfrwt>
<totfact> 0.30772141E+03</totfact>
</mgrwt>
</event>
<event>
 4    1  0.6602701E-002  0.1468572E+03  0.7546771E-02  0.1204389E+00
          1   -1    0    0  501    0  0.00000000000E+00  0.00000000000E+00  0.73354578704E+02  0.73354578704E+02  0.00000000000E+00 0. -1.
         -1   -1    0    0    0  501 -0.00000000000E+00 -0.00000000000E+00 -0.53616431815E+03  0.53616431815E+03  0.00000000000E+00 0.  1.
         24    1    1    2    0    0 -0.83889988320E+02  0.89790247185E+02 -0.26593688369E+02  0.14924563258E+03  0.80419002446E+02 0.  0.
        -24    1    1    2    0    0  0.83889988320E+02 -0.89790247185E+02 -0.43621605107E+03  0.46027326427E+03  0.80419002446E+02 0.  1.
<mgrwt>
<rscale>  0 0.14685721E+03</rscale>
<asrwt>0</asrwt>
<pdfrwt beam="1">  1        1 0.11285319E-01 0.14685723E+03</pdfrwt>
<pdfrwt beam="2">  1       -1 0.82486822E-01 0.14685723E+03</pdfrwt>
<totfact> 0.82626533E+02</totfact>
</mgrwt>
</event>
<event>
 4    1  0.6602701E-002  0.9961676E+02  0.7546771E-02  0.1281104E+00
         -2   -1    0    0    0  501 -0.00000000000E+00  0.00000000000E+00  0.45309404167E+01  0.45309404167E+01  0.00000000000E+00 0.  1.
          2   -1    0    0  501    0  0.00000000000E+00 -0.00000000000E+00 -0.22592745079E+04  0.22592745079E+04  0.00000000000E+00 0. -1.
         24    1    1    2    0    0 -0.50920180491E+02 -0.29383979662E+02 -0.13253416712E+04  0.13290801497E+04  0.80419002446E+02 0. -1.
        -24    1    1    2    0    0  0.50920180491E+02  0.29383979662E+02 -0.92940189629E+03  0.93472529859E+03  0.80419002446E+02 0.  1.
<mgrwt>
<rscale>  0 0.99616761E+02</rscale>
<asrwt>0</asrwt>
<pdfrwt beam="1">  1        2 0.34758099E+00 0.99616761E+02</pdfrwt>
<pdfrwt beam="2">  1       -2 0.69706716E-03 0.99616761E+02</pdfrwt>
<totfact> 0.18744380E+04</totfact>
</mgrwt>
</event>
<event>
 4    1  0.6602701E-002  0.9792437E+02  0.7546771E-02  0.1284722E+00
         -1   -1    0    0    0  501 -0.00000000000E+00  0.00000000000E+00  0.18959363560E+02  0.18959363560E+02  0.00000000000E+00 0.  1.
          1   -1    0    0  501    0  0.00000000000E+00 -0.00000000000E+00 -0.51332900335E+03  0.51332900335E+03  0.00000000000E+00 0. -1.
         24    1    1    2    0    0  0.26197237087E+02 -0.49352517758E+02 -0.21490044620E+03  0.23615965780E+03  0.80419002446E+02 0.  1.
        -24    1    1    2    0    0 -0.26197237087E+02  0.49352517758E+02 -0.27946919359E+03  0.29612870911E+03  0.80419002446E+02 0. -1.
<mgrwt>
<rscale>  0 0.97924370E+02</rscale>
<asrwt>0</asrwt>
<pdfrwt beam="1">  1        1 0.78973699E-01 0.97924370E+02</pdfrwt>
<pdfrwt beam="2">  1       -1 0.29168249E-02 0.97924370E+02</pdfrwt>
<totfact> 0.15742852E+04</totfact>
</mgrwt>
</event>
<event>
 4    1  0.6602701E-002  0.9817314E+02  0.7546771E-02  0.1284185E+00
         -1   -1    0    0    0  501 -0.00000000000E+00  0.00000000000E+00  0.84782022255E+02  0.84782022255E+02  0.00000000000E+00 0.  1.
          1   -1    0    0  501    0  0.00000000000E+00 -0.00000000000E+00 -0.18868915368E+03  0.18868915368E+03  0.00000000000E+00 0. -1.
         24    1    1    2    0    0 -0.39332900654E+02  0.40294822427E+02  0.34258309061E+02  0.10397883190E+03  0.80419002446E+02 0.  1.
        -24    1    1    2    0    0  0.39332900654E+02 -0.40294822427E+02 -0.13816544048E+03  0.16949234403E+03  0.80419002446E+02 0. -1.
<mgrwt>
<rscale>  0 0.98173142E+02</rscale>
<asrwt>0</asrwt>
<pdfrwt beam="1">  1        1 0.29029100E-01 0.98173142E+02</pdfrwt>
<pdfrwt beam="2">  1       -1 0.13043388E-01 0.98173142E+02</pdfrwt>
<totfact> 0.59061403E+03</totfact>
</mgrwt>
</event>
<event>
 4    1  0.6602701E-002  0.9176643E+02  0.7546771E-02  0.1298630E+00
          2   -1    0    0  501    0  0.00000000000E+00  0.00000000000E+00  0.28881293030E+03  0.28881293030E+03  0.00000000000E+00 0. -1.
         -2   -1    0    0    0  501 -0.00000000000E+00 -0.00000000000E+00 -0.50469832072E+02  0.50469832072E+02  0.00000000000E+00 0.  1.
         24    1    1    2    0    0  0.10076094145E+02 -0.43038749169E+02  0.22940942693E+03  0.24708250185E+03  0.80419002446E+02 0. -1.
        -24    1    1    2    0    0 -0.10076094145E+02  0.43038749169E+02  0.89336713026E+01  0.92200260523E+02  0.80419002446E+02 0.  1.
<mgrwt>
<rscale>  0 0.91766429E+02</rscale>
<asrwt>0</asrwt>
<pdfrwt beam="1">  1        2 0.44432758E-01 0.91766429E+02</pdfrwt>
<pdfrwt beam="2">  1       -2 0.77645897E-02 0.91766429E+02</pdfrwt>
<totfact> 0.10333221E+04</totfact>
</mgrwt>
</event>
<event>
 4    1  0.6602701E-002  0.8592851E+02  0.7546771E-02  0.1313022E+00
          2   -1    0    0  501    0  0.00000000000E+00  0.00000000000E+00  0.63165476432E+02  0.63165476432E+02  0.00000000000E+00 0. -1.
         -2   -1    0    0    0  501 -0.00000000000E+00 -0.00000000000E+00 -0.35416522407E+03  0.35416522407E+03  0.00000000000E+00 0.  1.
         24    1    1    2    0    0  0.30273236387E+02 -0.15585298420E+00  0.25292816944E+02  0.89573632699E+02  0.80419002446E+02 0. -1.
        -24    1    1    2    0    0 -0.30273236387E+02  0.15585298420E+00 -0.31629256458E+03  0.32775706780E+03  0.80419002446E+02 0.  1.
<mgrwt>
<rscale>  0 0.85928511E+02</rscale>
<asrwt>0</asrwt>
<pdfrwt beam="1">  1        2 0.97177658E-02 0.85928511E+02</pdfrwt>
<pdfrwt beam="2">  1       -2 0.54486956E-01 0.85928511E+02</pdfrwt>
<totfact> 0.20148148E+03</totfact>
</mgrwt>
</event>
<event>
 4    1  0.6602701E-002  0.1045478E+03  0.7546771E-02  0.1271013E+00
          2   -1    0    0  501    0  0.00000000000E+00  0.00000000000E+00  0.12849645156E+03  0.12849645156E+03  0.00000000000E+00 0. -1.
         -2   -1    0    0    0  501 -0.00000000000E+00 -0.00000000000E+00 -0.32402316264E+03  0.32402316264E+03  0.00000000000E+00 0.  1.
         24    1    1    2    0    0  0.18188048788E+02  0.64282311729E+02  0.96541001751E+02  0.14230390611E+03  0.80419002446E+02 0. -1.
        -24    1    1    2    0    0 -0.18188048788E+02 -0.64282311729E+02 -0.29206771283E+03  0.31021570810E+03  0.80419002446E+02 0.  1.
<mgrwt>
<rscale>  0 0.10454777E+03</rscale>
<asrwt>0</asrwt>
<pdfrwt beam="1">  1        2 0.19768685E-01 0.10454777E+03</pdfrwt>
<pdfrwt beam="2">  1       -2 0.49849717E-01 0.10454777E+03</pdfrwt>
<totfact> 0.10581330E+03</totfact>
</mgrwt>
</event>
<event>
 4    1  0.6602701E-002  0.9028707E+02  0.7546771E-02  0.1302158E+00
          2   -1    0    0  501    0  0.00000000000E+00  0.00000000000E+00  0.49306496916E+04  0.49306496916E+04  0.00000000000E+00 0. -1.
         -2   -1    0    0    0  501 -0.00000000000E+00 -0.00000000000E+00 -0.37038733981E+01  0.37038733981E+01  0.00000000000E+00 0.  1.
         24    1    1    2    0    0  0.31182813951E+02 -0.26686541372E+02  0.42992153471E+04  0.43001632941E+04  0.80419002446E+02 0. -1.
        -24    1    1    2    0    0 -0.31182813951E+02  0.26686541372E+02  0.62773047112E+03  0.63419027090E+03  0.80419002446E+02 0.  1.
<mgrwt>
<rscale>  0 0.90287072E+02</rscale>
<asrwt>0</asrwt>
<pdfrwt beam="1">  1        2 0.75855624E+00 0.90287072E+02</pdfrwt>
<pdfrwt beam="2">  1       -2 0.56983062E-03 0.90287072E+02</pdfrwt>
<totfact> 0.32955852E+02</totfact>
</mgrwt>
</event>
<event>
 4    1  0.6602701E-002  0.1612091E+03  0.7546771E-02  0.1187338E+00
         -1   -1    0    0    0  501 -0.00000000000E+00  0.00000000000E+00  0.78435646980E+02  0.78435646980E+02  0.00000000000E+00 0.  1.
          1   -1    0    0  501    0  0.00000000000E+00 -0.00000000000E+00 -0.36692448549E+03  0.36692448549E+03  0.00000000000E+00 0. -1.
         24    1    1    2    0    0 -0.12229122038E+03 -0.67572249052E+02 -0.74891902093E+02  0.17775591235E+03  0.80419002446E+02 0. -1.
        -24    1    1    2    0    0  0.12229122038E+03  0.67572249052E+02 -0.21359693642E+03  0.26760422012E+03  0.80419002446E+02 0.  1.
<mgrwt>
<rscale>  0 0.16120908E+03</rscale>
<asrwt>0</asrwt>
<pdfrwt beam="1">  1        1 0.56449920E-01 0.16120908E+03</pdfrwt>
<pdfrwt beam="2">  1       -1 0.12067023E-01 0.16120908E+03</pdfrwt>
<totfact> 0.30077190E+03</totfact>
</mgrwt>
</event>
<event>
 4    1  0.6602701E-002  0.9627890E+02  0.7546771E-02  0.1288321E+00
          1   -1    0    0  501    0  0.00000000000E+00  0.00000000000E+00  0.48785929437E+02  0.48785929437E+02  0.00000000000E+00 0. -1.
         -1   -1    0    0    0  501 -0.00000000000E+00 -0.00000000000E+00 -0.36579064944E+03  0.36579064944E+03  0.00000000000E+00 0.  1.
         24    1    1    2    0    0  0.34020741097E+02  0.40558592741E+02 -0.30219971241E+03  0.31716603286E+03  0.80419002446E+02 0.  1.
        -24    1    1    2    0    0 -0.34020741097E+02 -0.40558592741E+02 -0.14805007595E+02  0.97410546011E+02  0.80419002446E+02 0. -1.
<mgrwt>
<rscale>  0 0.96278898E+02</rscale>
<asrwt>0</asrwt>
<pdfrwt beam="1">  1        1 0.75055276E-02 0.96278898E+02</pdfrwt>
<pdfrwt beam="2">  1       -1 0.56275484E-01 0.96278898E+02</pdfrwt>
<totfact> 0.29475368E+03</totfact>
</mgrwt>
</event>
<event>
 4    1  0.6602701E-002  0.1333734E+03  0.7546771E-02  0.1222534E+00
          1   -1    0    0  501    0  0.00000000000E+00  0.00000000000E+00  0.27285990282E+03  0.27285990282E+03  0.00000000000E+00 0. -1.
         -1   -1    0    0    0  501 -0.00000000000E+00 -0.00000000000E+00 -0.71872687243E+02  0.71872687243E+02  0.00000000000E+00 0.  1.
         24    1    1    2    0    0  0.10635183492E+03  0.32460902159E+01  0.47945247645E+02  0.14172936399E+03  0.80419002446E+02 0. -1.
        -24    1    1    2    0    0 -0.10635183492E+03 -0.32460902159E+01  0.15304196793E+03  0.20300322607E+03  0.80419002446E+02 0.  1.
<mgrwt>
<rscale>  0 0.13337341E+03</rscale>
<asrwt>0</asrwt>
<pdfrwt beam="1">  1        1 0.41978446E-01 0.13337341E+03</pdfrwt>
<pdfrwt beam="2">  1       -1 0.11057337E-01 0.13337341E+03</pdfrwt>
<totfact> 0.49301457E+03</totfact>
</mgrwt>
</event>
<event>
 4    1  0.6602701E-002  0.9061583E+02  0.7546771E-02  0.1301367E+00
         -2   -1    0    0    0  501 -0.00000000000E+00  0.00000000000E+00  0.58037692378E+02  0.58037692378E+02  0.00000000000E+00 0.  1.
          2   -1    0    0  501    0  0.00000000000E+00 -0.00000000000E+00 -0.15818136636E+03  0.15818136636E+03  0.00000000000E+00 0. -1.
         24    1    1    2    0    0 -0.40236600752E+02 -0.11181469535E+02 -0.14944069718E+02  0.91839808772E+02  0.80419002446E+02 0. -1.
        -24    1    1    2    0    0  0.40236600752E+02  0.11181469535E+02 -0.85199604265E+02  0.12437924997E+03  0.80419002446E+02 0. -1.
<mgrwt>
<rscale>  0 0.90615823E+02</rscale>
<asrwt>0</asrwt>
<pdfrwt beam="1">  1        2 0.24335594E-01 0.90615834E+02</pdfrwt>
<pdfrwt beam="2">  1       -2 0.89288760E-02 0.90615834E+02</pdfrwt>
<totfact> 0.15808886E+04</totfact>
</mgrwt>
</event>
<event>
 4    1  0.6602701E-002  0.8285664E+02  0.7546771E-02  0.1321135E+00
         -2   -1    0    0    0  501 -0.00000000000E+00  0.00000000000E+00  0.10961719625E+03  0.10961719625E+03  0.00000000000E+00 0.  1.
          2   -1    0    0  501    0  0.00000000000E+00 -0.00000000000E+00 -0.91729220587E+02  0.91729220587E+02  0.00000000000E+00 0. -1.
         24    1    1    2    0    0  0.13697974564E+01 -0.19903041656E+02 -0.47759223452E+02  0.95635593747E+02  0.80419002446E+02 0. -1.
        -24    1    1    2    0    0 -0.13697974564E+01  0.19903041656E+02  0.65647199115E+02  0.10571082309E+03  0.80419002446E+02 0.  1.
<mgrwt>
<rscale>  0 0.82856643E+02</rscale>
<asrwt>0</asrwt>
<pdfrwt beam="1">  1        2 0.14112188E-01 0.82856643E+02</pdfrwt>
<pdfrwt beam="2">  1       -2 0.16864184E-01 0.82856643E+02</pdfrwt>
<totfact> 0.10563663E+04</totfact>
</mgrwt>
</event>
<event>
 4    1  0.6602701E-002  0.9066961E+02  0.7546771E-02  0.1301238E+00
         -2   -1    0    0    0  501 -0.00000000000E+00  0.00000000000E+00  0.76913430273E+01  0.76913430273E+01  0.00000000000E+00 0.  1.
          2   -1    0    0  501    0  0.00000000000E+00 -0.00000000000E+00 -0.11521767869E+04  0.11521767869E+04  0.00000000000E+00 0. -1.
         24    1    1    2    0    0  0.11082535054E+02  0.40384896057E+02 -0.72819154824E+03  0.73381462870E+03  0.80419002446E+02 0. -1.
        -24    1    1    2    0    0 -0.11082535054E+02 -0.40384896057E+02 -0.41629389568E+03  0.42605350127E+03  0.80419002446E+02 0.  1.
<mgrwt>
<rscale>  0 0.90669611E+02</rscale>
<asrwt>0</asrwt>
<pdfrwt beam="1">  1        2 0.17725782E+00 0.90669611E+02</pdfrwt>
<pdfrwt beam="2">  1       -2 0.11832845E-02 0.90669611E+02</pdfrwt>
<totfact> 0.32546323E+04</totfact>
</mgrwt>
</event>
<event>
 4    1  0.6602701E-002  0.1135721E+03  0.7546771E-02  0.1254094E+00
          2   -1    0    0  501    0  0.00000000000E+00  0.00000000000E+00  0.35219232650E+04  0.35219232650E+04  0.00000000000E+00 0. -1.
         -2   -1    0    0    0  501 -0.00000000000E+00 -0.00000000000E+00 -0.46548122322E+01  0.46548122322E+01  0.00000000000E+00 0.  1.
         24    1    1    2    0    0  0.80022659249E+02  0.52701679993E+01  0.25728193207E+04  0.25753248093E+04  0.80419002446E+02 0. -1.
        -24    1    1    2    0    0 -0.80022659249E+02 -0.52701679993E+01  0.94444913209E+03  0.95125326792E+03  0.80419002446E+02 0.  1.
<mgrwt>
<rscale>  0 0.11357208E+03</rscale>
<asrwt>0</asrwt>
<pdfrwt beam="1">  1        2 0.54183222E+00 0.11357208E+03</pdfrwt>
<pdfrwt beam="2">  1       -2 0.71612778E-03 0.11357208E+03</pdfrwt>
<totfact> 0.34719124E+03</totfact>
</mgrwt>
</event>
<event>
 4    1  0.6602701E-002  0.8507377E+02  0.7546771E-02  0.1315240E+00
         -2   -1    0    0    0  501 -0.00000000000E+00  0.00000000000E+00  0.15564592440E+03  0.15564592440E+03  0.00000000000E+00 0.  1.
          2   -1    0    0  501    0  0.00000000000E+00 -0.00000000000E+00 -0.77493350358E+03  0.77493350358E+03  0.00000000000E+00 0. -1.
         24    1    1    2    0    0  0.88373753208E+01 -0.26310296819E+02 -0.76075764638E+03  0.76549966910E+03  0.80419002446E+02 0. -1.
        -24    1    1    2    0    0 -0.88373753208E+01  0.26310296819E+02  0.14147006720E+03  0.16507975887E+03  0.80419002446E+02 0.  1.
<mgrwt>
<rscale>  0 0.85073773E+02</rscale>
<asrwt>0</asrwt>
<pdfrwt beam="1">  1        2 0.11922054E+00 0.85073773E+02</pdfrwt>
<pdfrwt beam="2">  1       -2 0.23945527E-01 0.85073773E+02</pdfrwt>
<totfact> 0.57583303E+02</totfact>
</mgrwt>
</event>
<event>
 4    1  0.6602701E-002  0.1249769E+03  0.7546771E-02  0.1235105E+00
         -1   -1    0    0    0  501 -0.00000000000E+00  0.00000000000E+00  0.40848484568E+02  0.40848484568E+02  0.00000000000E+00 0.  1.
          1   -1    0    0  501    0  0.00000000000E+00 -0.00000000000E+00 -0.39315064484E+03  0.39315064484E+03  0.00000000000E+00 0. -1.
         24    1    1    2    0    0 -0.13389707238E+02 -0.94724391306E+02 -0.21208576389E+03  0.24616982302E+03  0.80419002446E+02 0. -1.
        -24    1    1    2    0    0  0.13389707238E+02  0.94724391306E+02 -0.14021639638E+03  0.18782930639E+03  0.80419002446E+02 0.  1.
<mgrwt>
<rscale>  0 0.12497686E+03</rscale>
<asrwt>0</asrwt>
<pdfrwt beam="1">  1        1 0.60484717E-01 0.12497687E+03</pdfrwt>
<pdfrwt beam="2">  1       -1 0.62843820E-02 0.12497687E+03</pdfrwt>
<totfact> 0.73233907E+03</totfact>
</mgrwt>
</event>
<event>
 4    1  0.6602701E-002  0.1048347E+03  0.7546771E-02  0.1270446E+00
         -1   -1    0    0    0  501 -0.00000000000E+00  0.00000000000E+00  0.47627091653E+02  0.47627091653E+02  0.00000000000E+00 0.  1.
          1   -1    0    0  501    0  0.00000000000E+00 -0.00000000000E+00 -0.28026885639E+03  0.28026885639E+03  0.00000000000E+00 0. -1.
         24    1    1    2    0    0 -0.60394215790E+02 -0.29591187861E+02 -0.47412763175E+02  0.11505774970E+03  0.80419002446E+02 0.  1.
        -24    1    1    2    0    0  0.60394215790E+02  0.29591187861E+02 -0.18522900157E+03  0.21283819835E+03  0.80419002446E+02 0. -1.
<mgrwt>
<rscale>  0 0.10483471E+03</rscale>
<asrwt>0</asrwt>
<pdfrwt beam="1">  1        1 0.43118285E-01 0.10483471E+03</pdfrwt>
<pdfrwt beam="2">  1       -1 0.73272449E-02 0.10483471E+03</pdfrwt>
<totfact> 0.87422485E+03</totfact>
</mgrwt>
</event>
<event>
 4    1  0.6602701E-002  0.9451613E+02  0.7546771E-02  0.1292270E+00
         -1   -1    0    0    0  501 -0.00000000000E+00  0.00000000000E+00  0.10718422359E+02  0.10718422359E+02  0.00000000000E+00 0.  1.
          1   -1    0    0  501    0  0.00000000000E+00 -0.00000000000E+00 -0.99698123904E+03  0.99698123904E+03  0.00000000000E+00 0. -1.
         24    1    1    2    0    0  0.15789696240E+02  0.47082569507E+02 -0.28907308756E+03  0.30413245267E+03  0.80419002446E+02 0.  0.
        -24    1    1    2    0    0 -0.15789696240E+02 -0.47082569507E+02 -0.69718972911E+03  0.70356720873E+03  0.80419002446E+02 0. -1.
<mgrwt>
<rscale>  0 0.94516130E+02</rscale>
<asrwt>0</asrwt>
<pdfrwt beam="1">  1        1 0.15338173E+00 0.94516130E+02</pdfrwt>
<pdfrwt beam="2">  1       -1 0.16489880E-02 0.94516130E+02</pdfrwt>
<totfact> 0.13664396E+04</totfact>
</mgrwt>
</event>
