<event>
 4    2  0.3964208E+000  0.1766775E+03  0.7546771E-02  0.1171058E+00
         21   -1    0    0  501  502  0.00000000000E+00  0.00000000000E+00  0.41674007678E+03  0.41674007678E+03  0.00000000000E+00 0. -1.
         21   -1    0    0  502  503 -0.00000000000E+00 -0.00000000000E+00 -0.76686139673E+02  0.76686139673E+02  0.00000000000E+00 0.  1.
          6    1    1    2  501    0 -0.28805769483E+02  0.21357811366E+02  0.20765151914E+03  0.27264277335E+03  0.17300000000E+03 0. -1.
         -6    1    1    2    0  503  0.28805769483E+02 -0.21357811366E+02  0.13240241797E+03  0.22078344309E+03  0.17300000000E+03 0.  1.
<mgrwt>
<rscale>  2 0.17667747E+03</rscale>
<asrwt>0</asrwt>
<pdfrwt beam="1">  1       21 0.64113857E-01 0.17667747E+03</pdfrwt>
<pdfrwt beam="2">  1       21 0.11797868E-01 0.17667747E+03</pdfrwt>
<totfact> 0.13658854E+05</totfact>
</mgrwt>
</event>
<event>
 4    2  0.3964208E+000  0.2057311E+03  0.7546771E-02  0.1144992E+00
         21   -1    0    0  501  502  0.00000000000E+00  0.00000000000E+00  0.92653835547E+02  0.92653835547E+02  0.00000000000E+00 0.  1.
         21   -1    0    0  502  503 -0.00000000000E+00 -0.00000000000E+00 -0.14823734460E+04  0.14823734460E+04  0.00000000000E+00 0. -1.
          6    1    1    2  501    0  0.10186690574E+03  0.44938109325E+02 -0.39831139677E+02  0.20955147301E+03  0.17300000000E+03 0.  1.
         -6    1    1    2    0  503 -0.10186690574E+03 -0.44938109325E+02 -0.13498884708E+04  0.13654758086E+04  0.17300000000E+03 0. -1.
<mgrwt>
<rscale>  2 0.20573114E+03</rscale>
<asrwt>0</asrwt>
<pdfrwt beam="1">  1       21 0.14254435E-01 0.20573114E+03</pdfrwt>
<pdfrwt beam="2">  1       21 0.22805747E+00 0.20573114E+03</pdfrwt>
<totfact> 0.38166140E+03</totfact>
</mgrwt>
</event>
<event>
 4    2  0.3964208E+000  0.1767324E+03  0.7546771E-02  0.1171003E+00
         21   -1    0    0  501  502  0.00000000000E+00  0.00000000000E+00  0.19511033192E+03  0.19511033192E+03  0.00000000000E+00 0.  1.
         21   -1    0    0  502  503 -0.00000000000E+00 -0.00000000000E+00 -0.61855110741E+03  0.61855110741E+03  0.00000000000E+00 0.  1.
          6    1    1    2  501    0 -0.20070283001E+02  0.30041887679E+02  0.13853057252E+03  0.22455522883E+03  0.17300000000E+03 0.  1.
         -6    1    1    2    0  503  0.20070283001E+02 -0.30041887679E+02 -0.56197134800E+03  0.58910621050E+03  0.17300000000E+03 0.  1.
<mgrwt>
<rscale>  2 0.17673237E+03</rscale>
<asrwt>0</asrwt>
<pdfrwt beam="1">  1       21 0.30016974E-01 0.17673237E+03</pdfrwt>
<pdfrwt beam="2">  1       21 0.95161708E-01 0.17673237E+03</pdfrwt>
<totfact> 0.99336251E+03</totfact>
</mgrwt>
</event>
<event>
 4    2  0.3964208E+000  0.3266993E+03  0.7546771E-02  0.1072607E+00
         21   -1    0    0  503  502  0.00000000000E+00  0.00000000000E+00  0.16550724874E+03  0.16550724874E+03  0.00000000000E+00 0. -1.
         21   -1    0    0  501  503 -0.00000000000E+00 -0.00000000000E+00 -0.12990322673E+04  0.12990322673E+04  0.00000000000E+00 0.  1.
          6    1    1    2  501    0 -0.22348189132E+03 -0.16388804137E+03 -0.10863997779E+04  0.11344588680E+04  0.17300000000E+03 0.  1.
         -6    1    1    2    0  502  0.22348189132E+03  0.16388804137E+03 -0.47125240610E+02  0.33008064796E+03  0.17300000000E+03 0. -1.
<mgrwt>
<rscale>  2 0.32669932E+03</rscale>
<asrwt>0</asrwt>
<pdfrwt beam="1">  1       21 0.25462654E-01 0.32669932E+03</pdfrwt>
<pdfrwt beam="2">  1       21 0.19985112E+00 0.32669932E+03</pdfrwt>
<totfact> 0.17669792E+03</totfact>
</mgrwt>
</event>
<event>
 4    2  0.3964208E+000  0.2260363E+03  0.7546771E-02  0.1129461E+00
         21   -1    0    0  501  502  0.00000000000E+00  0.00000000000E+00  0.45457405699E+03  0.45457405699E+03  0.00000000000E+00 0.  1.
         21   -1    0    0  502  503 -0.00000000000E+00 -0.00000000000E+00 -0.15409519227E+03  0.15409519227E+03  0.00000000000E+00 0. -1.
          6    1    1    2  501    0  0.10005995880E+03  0.10560034761E+03  0.30855339973E+03  0.38248873089E+03  0.17300000000E+03 0.  1.
         -6    1    1    2    0  503 -0.10005995880E+03 -0.10560034761E+03 -0.80745350130E+01  0.22618051836E+03  0.17300000000E+03 0. -1.
<mgrwt>
<rscale>  2 0.22603634E+03</rscale>
<asrwt>0</asrwt>
<pdfrwt beam="1">  1       21 0.69934470E-01 0.22603634E+03</pdfrwt>
<pdfrwt beam="2">  1       21 0.23706953E-01 0.22603634E+03</pdfrwt>
<totfact> 0.30569796E+04</totfact>
</mgrwt>
</event>
<event>
 4    2  0.3964208E+000  0.2112677E+03  0.7546771E-02  0.1140566E+00
         21   -1    0    0  503  502  0.00000000000E+00  0.00000000000E+00  0.60094192769E+02  0.60094192769E+02  0.00000000000E+00 0.  1.
         21   -1    0    0  501  503 -0.00000000000E+00 -0.00000000000E+00 -0.10695401680E+04  0.10695401680E+04  0.00000000000E+00 0.  1.
          6    1    1    2  501    0 -0.88263739876E+02 -0.83153692742E+02 -0.81693830294E+03  0.84381408806E+03  0.17300000000E+03 0.  1.
         -6    1    1    2    0  502  0.88263739876E+02  0.83153692742E+02 -0.19250767225E+03  0.28582027267E+03  0.17300000000E+03 0.  1.
<mgrwt>
<rscale>  2 0.21126766E+03</rscale>
<asrwt>0</asrwt>
<pdfrwt beam="1">  1       21 0.92452608E-02 0.21126766E+03</pdfrwt>
<pdfrwt beam="2">  1       21 0.16454463E+00 0.21126766E+03</pdfrwt>
<totfact> 0.21466250E+04</totfact>
</mgrwt>
</event>
<event>
 4    2  0.3964208E+000  0.1930184E+03  0.7546771E-02  0.1155767E+00
         21   -1    0    0  501  502  0.00000000000E+00  0.00000000000E+00  0.66343083808E+02  0.66343083808E+02  0.00000000000E+00 0. -1.
         21   -1    0    0  502  503 -0.00000000000E+00 -0.00000000000E+00 -0.79125092456E+03  0.79125092456E+03  0.00000000000E+00 0. -1.
          6    1    1    2  501    0 -0.68534950696E+02  0.51284217954E+02 -0.13142859728E+03  0.23351570966E+03  0.17300000000E+03 0. -1.
         -6    1    1    2    0  503  0.68534950696E+02 -0.51284217954E+02 -0.59347924348E+03  0.62407829871E+03  0.17300000000E+03 0. -1.
<mgrwt>
<rscale>  2 0.19301842E+03</rscale>
<asrwt>0</asrwt>
<pdfrwt beam="1">  1       21 0.10206628E-01 0.19301842E+03</pdfrwt>
<pdfrwt beam="2">  1       21 0.12173092E+00 0.19301842E+03</pdfrwt>
<totfact> 0.39880552E+04</totfact>
</mgrwt>
</event>
<event>
 4    2  0.3964208E+000  0.2247181E+03  0.7546771E-02  0.1130414E+00
         21   -1    0    0  503  502  0.00000000000E+00  0.00000000000E+00  0.10785182326E+04  0.10785182326E+04  0.00000000000E+00 0. -1.
         21   -1    0    0  501  503 -0.00000000000E+00 -0.00000000000E+00 -0.50435457264E+02  0.50435457264E+02  0.00000000000E+00 0.  1.
          6    1    1    2  501    0 -0.10159831909E+03  0.10122739250E+03  0.36294659822E+03  0.42688222801E+03  0.17300000000E+03 0. -1.
         -6    1    1    2    0  502  0.10159831909E+03 -0.10122739250E+03  0.66513617709E+03  0.70207146182E+03  0.17300000000E+03 0. -1.
<mgrwt>
<rscale>  2 0.22471805E+03</rscale>
<asrwt>0</asrwt>
<pdfrwt beam="1">  1       21 0.16592586E+00 0.22471805E+03</pdfrwt>
<pdfrwt beam="2">  1       21 0.77593019E-02 0.22471805E+03</pdfrwt>
<totfact> 0.28280457E+04</totfact>
</mgrwt>
</event>
<event>
 4    2  0.3964208E+000  0.2271976E+03  0.7546771E-02  0.1128628E+00
         21   -1    0    0  501  502  0.00000000000E+00  0.00000000000E+00  0.43580869628E+03  0.43580869628E+03  0.00000000000E+00 0. -1.
         21   -1    0    0  502  503 -0.00000000000E+00 -0.00000000000E+00 -0.14833159575E+03  0.14833159575E+03  0.00000000000E+00 0.  1.
          6    1    1    2  501    0 -0.12870483281E+03  0.71587715291E+02  0.27484347190E+03  0.35659173997E+03  0.17300000000E+03 0. -1.
         -6    1    1    2    0  503  0.12870483281E+03 -0.71587715291E+02  0.12633628623E+02  0.22754855205E+03  0.17300000000E+03 0.  1.
<mgrwt>
<rscale>  2 0.22719757E+03</rscale>
<asrwt>0</asrwt>
<pdfrwt beam="1">  1       21 0.67047491E-01 0.22719757E+03</pdfrwt>
<pdfrwt beam="2">  1       21 0.22820246E-01 0.22719757E+03</pdfrwt>
<totfact> 0.36051931E+04</totfact>
</mgrwt>
</event>
<event>
 4    2  0.3964208E+000  0.1882789E+03  0.7546771E-02  0.1160023E+00
         21   -1    0    0  503  502  0.00000000000E+00  0.00000000000E+00  0.40697631309E+03  0.40697631309E+03  0.00000000000E+00 0.  1.
         21   -1    0    0  501  503 -0.00000000000E+00 -0.00000000000E+00 -0.13527559959E+03  0.13527559959E+03  0.00000000000E+00 0. -1.
          6    1    1    2  501    0 -0.16348910477E+02  0.72475166257E+02 -0.25942942823E+02  0.19005781457E+03  0.17300000000E+03 0. -1.
         -6    1    1    2    0  502  0.16348910477E+02 -0.72475166257E+02  0.29764365632E+03  0.35219409811E+03  0.17300000000E+03 0.  1.
<mgrwt>
<rscale>  2 0.18827888E+03</rscale>
<asrwt>0</asrwt>
<pdfrwt beam="1">  1       21 0.62611740E-01 0.18827888E+03</pdfrwt>
<pdfrwt beam="2">  1       21 0.20811631E-01 0.18827888E+03</pdfrwt>
<totfact> 0.50755975E+04</totfact>
</mgrwt>
</event>
<event>
 4    2  0.3964208E+000  0.2294723E+03  0.7546771E-02  0.1127012E+00
         21   -1    0    0  503  502  0.00000000000E+00  0.00000000000E+00  0.36857887060E+03  0.36857887060E+03  0.00000000000E+00 0. -1.
         21   -1    0    0  501  503 -0.00000000000E+00 -0.00000000000E+00 -0.14536237269E+03  0.14536237269E+03  0.00000000000E+00 0.  1.
          6    1    1    2  501    0  0.13621526545E+03  0.64605870271E+02  0.14528126009E+03  0.27159558455E+03  0.17300000000E+03 0.  1.
         -6    1    1    2    0  502 -0.13621526545E+03 -0.64605870271E+02  0.77935237822E+02  0.24234565874E+03  0.17300000000E+03 0.  1.
<mgrwt>
<rscale>  2 0.22947226E+03</rscale>
<asrwt>0</asrwt>
<pdfrwt beam="1">  1       21 0.56704441E-01 0.22947226E+03</pdfrwt>
<pdfrwt beam="2">  1       21 0.22363442E-01 0.22947226E+03</pdfrwt>
<totfact> 0.53802898E+04</totfact>
</mgrwt>
</event>
<event>
 4    2  0.3964208E+000  0.2036727E+03  0.7546771E-02  0.1146677E+00
         21   -1    0    0  501  502  0.00000000000E+00  0.00000000000E+00  0.17793520579E+04  0.17793520579E+04  0.00000000000E+00 0.  1.
         21   -1    0    0  502  503 -0.00000000000E+00 -0.00000000000E+00 -0.57302563149E+02  0.57302563149E+02  0.00000000000E+00 0.  1.
          6    1    1    2  501    0 -0.45206038155E+01 -0.10739241949E+03  0.15682884223E+04  0.15814585493E+04  0.17300000000E+03 0.  1.
         -6    1    1    2    0  503  0.45206038155E+01  0.10739241949E+03  0.15376107239E+03  0.25519607169E+03  0.17300000000E+03 0.  1.
<mgrwt>
<rscale>  2 0.20367270E+03</rscale>
<asrwt>0</asrwt>
<pdfrwt beam="1">  1       21 0.27374643E+00 0.20367270E+03</pdfrwt>
<pdfrwt beam="2">  1       21 0.88157803E-02 0.20367270E+03</pdfrwt>
<totfact> 0.48404415E+03</totfact>
</mgrwt>
</event>
<event>
 4    2  0.3964208E+000  0.2061276E+03  0.7546771E-02  0.1144670E+00
         21   -1    0    0  503  502  0.00000000000E+00  0.00000000000E+00  0.19381645430E+03  0.19381645430E+03  0.00000000000E+00 0.  1.
         21   -1    0    0  501  503 -0.00000000000E+00 -0.00000000000E+00 -0.22693005184E+03  0.22693005184E+03  0.00000000000E+00 0. -1.
          6    1    1    2  501    0 -0.42785473435E+02  0.10358093683E+03 -0.55331576630E+02  0.21342490619E+03  0.17300000000E+03 0. -1.
         -6    1    1    2    0  502  0.42785473435E+02 -0.10358093683E+03  0.22217979092E+02  0.20732159995E+03  0.17300000000E+03 0.  1.
<mgrwt>
<rscale>  2 0.20612765E+03</rscale>
<asrwt>0</asrwt>
<pdfrwt beam="1">  1       21 0.29817916E-01 0.20612765E+03</pdfrwt>
<pdfrwt beam="2">  1       21 0.34912316E-01 0.20612765E+03</pdfrwt>
<totfact> 0.84798947E+04</totfact>
</mgrwt>
</event>
<event>
 4    2  0.3964208E+000  0.2315452E+03  0.7546771E-02  0.1125557E+00
         21   -1    0    0  503  502  0.00000000000E+00  0.00000000000E+00  0.31105488728E+03  0.31105488728E+03  0.00000000000E+00 0. -1.
         21   -1    0    0  501  503 -0.00000000000E+00 -0.00000000000E+00 -0.22342293344E+03  0.22342293344E+03  0.00000000000E+00 0.  1.
          6    1    1    2  501    0 -0.10166771999E+03 -0.11553285737E+03 -0.83943218905E+02  0.24629175873E+03  0.17300000000E+03 0. -1.
         -6    1    1    2    0  502  0.10166771999E+03  0.11553285737E+03  0.17157517274E+03  0.28818606198E+03  0.17300000000E+03 0.  1.
<mgrwt>
<rscale>  2 0.23154517E+03</rscale>
<asrwt>0</asrwt>
<pdfrwt beam="1">  1       21 0.47854598E-01 0.23154517E+03</pdfrwt>
<pdfrwt beam="2">  1       21 0.34372759E-01 0.23154517E+03</pdfrwt>
<totfact> 0.33379186E+04</totfact>
</mgrwt>
</event>
<event>
 4    2  0.3964208E+000  0.2137993E+03  0.7546771E-02  0.1138592E+00
         21   -1    0    0  503  502  0.00000000000E+00  0.00000000000E+00  0.24989711727E+03  0.24989711727E+03  0.00000000000E+00 0.  1.
         21   -1    0    0  501  503 -0.00000000000E+00 -0.00000000000E+00 -0.42663812600E+03  0.42663812600E+03  0.00000000000E+00 0.  1.
          6    1    1    2  501    0  0.12473687133E+03  0.14895274039E+02 -0.34403955916E+03  0.40505971724E+03  0.17300000000E+03 0.  1.
         -6    1    1    2    0  502 -0.12473687133E+03 -0.14895274039E+02  0.16729855043E+03  0.27147552603E+03  0.17300000000E+03 0.  1.
<mgrwt>
<rscale>  2 0.21379934E+03</rscale>
<asrwt>0</asrwt>
<pdfrwt beam="1">  1       21 0.38445711E-01 0.21379934E+03</pdfrwt>
<pdfrwt beam="2">  1       21 0.65636634E-01 0.21379934E+03</pdfrwt>
<totfact> 0.13734109E+04</totfact>
</mgrwt>
</event>
<event>
 4    2  0.3964208E+000  0.2270749E+03  0.7546771E-02  0.1128716E+00
         21   -1    0    0  501  502  0.00000000000E+00  0.00000000000E+00  0.48295149082E+03  0.48295149082E+03  0.00000000000E+00 0. -1.
         21   -1    0    0  502  503 -0.00000000000E+00 -0.00000000000E+00 -0.14580292458E+03  0.14580292458E+03  0.00000000000E+00 0.  1.
          6    1    1    2  501    0 -0.25890204637E+02 -0.14478844693E+03  0.33124277847E+03  0.40160275815E+03  0.17300000000E+03 0. -1.
         -6    1    1    2    0  503  0.25890204637E+02  0.14478844693E+03  0.59057877710E+01  0.22715165725E+03  0.17300000000E+03 0.  1.
<mgrwt>
<rscale>  2 0.22707487E+03</rscale>
<asrwt>0</asrwt>
<pdfrwt beam="1">  1       21 0.74300229E-01 0.22707487E+03</pdfrwt>
<pdfrwt beam="2">  1       21 0.22431219E-01 0.22707487E+03</pdfrwt>
<totfact> 0.29661300E+04</totfact>
</mgrwt>
</event>
<event>
 4    2  0.3964208E+000  0.1889890E+03  0.7546771E-02  0.1159376E+00
         21   -1    0    0  503  502  0.00000000000E+00  0.00000000000E+00  0.34811729298E+03  0.34811729298E+03  0.00000000000E+00 0. -1.
         21   -1    0    0  501  503 -0.00000000000E+00 -0.00000000000E+00 -0.14999103992E+03  0.14999103992E+03  0.00000000000E+00 0. -1.
          6    1    1    2  501    0  0.63938829969E+02  0.41227140571E+02 -0.40930753698E+02  0.19337057091E+03  0.17300000000E+03 0. -1.
         -6    1    1    2    0  502 -0.63938829969E+02 -0.41227140571E+02  0.23905700676E+03  0.30473776198E+03  0.17300000000E+03 0. -1.
<mgrwt>
<rscale>  2 0.18898902E+03</rscale>
<asrwt>0</asrwt>
<pdfrwt beam="1">  1       21 0.53556506E-01 0.18898902E+03</pdfrwt>
<pdfrwt beam="2">  1       21 0.23075545E-01 0.18898902E+03</pdfrwt>
<totfact> 0.58292405E+04</totfact>
</mgrwt>
</event>
<event>
 4    2  0.3964208E+000  0.2448152E+03  0.7546771E-02  0.1116626E+00
         21   -1    0    0  501  502  0.00000000000E+00  0.00000000000E+00  0.18009936771E+03  0.18009936771E+03  0.00000000000E+00 0.  1.
         21   -1    0    0  502  503 -0.00000000000E+00 -0.00000000000E+00 -0.39269985750E+03  0.39269985750E+03  0.00000000000E+00 0. -1.
          6    1    1    2  501    0 -0.10227987751E+03 -0.13980088023E+03  0.55681691038E+01  0.24487846775E+03  0.17300000000E+03 0.  1.
         -6    1    1    2    0  503  0.10227987751E+03  0.13980088023E+03 -0.21816865889E+03  0.32792075747E+03  0.17300000000E+03 0. -1.
<mgrwt>
<rscale>  2 0.24481515E+03</rscale>
<asrwt>0</asrwt>
<pdfrwt beam="1">  1       21 0.27707595E-01 0.24481515E+03</pdfrwt>
<pdfrwt beam="2">  1       21 0.60415363E-01 0.24481515E+03</pdfrwt>
<totfact> 0.30918323E+04</totfact>
</mgrwt>
</event>
<event>
 4    2  0.3964208E+000  0.2373119E+03  0.7546771E-02  0.1121597E+00
         21   -1    0    0  501  502  0.00000000000E+00  0.00000000000E+00  0.11301096792E+03  0.11301096792E+03  0.00000000000E+00 0. -1.
         21   -1    0    0  502  503 -0.00000000000E+00 -0.00000000000E+00 -0.50214313040E+03  0.50214313040E+03  0.00000000000E+00 0. -1.
          6    1    1    2  501    0  0.10735501844E+03  0.12191325542E+03 -0.22136314142E+03  0.32452824562E+03  0.17300000000E+03 0. -1.
         -6    1    1    2    0  503 -0.10735501844E+03 -0.12191325542E+03 -0.16776902106E+03  0.29062585270E+03  0.17300000000E+03 0. -1.
<mgrwt>
<rscale>  2 0.23731191E+03</rscale>
<asrwt>0</asrwt>
<pdfrwt beam="1">  1       21 0.17386303E-01 0.23731191E+03</pdfrwt>
<pdfrwt beam="2">  1       21 0.77252789E-01 0.23731191E+03</pdfrwt>
<totfact> 0.43591528E+04</totfact>
</mgrwt>
</event>
<event>
 4    2  0.3964208E+000  0.2367797E+03  0.7546771E-02  0.1121957E+00
         21   -1    0    0  503  502  0.00000000000E+00  0.00000000000E+00  0.21828733583E+03  0.21828733583E+03  0.00000000000E+00 0. -1.
         21   -1    0    0  501  503 -0.00000000000E+00 -0.00000000000E+00 -0.51416041331E+03  0.51416041331E+03  0.00000000000E+00 0. -1.
          6    1    1    2  501    0 -0.11620700598E+03 -0.11239022853E+03 -0.40701754021E+03  0.47087993135E+03  0.17300000000E+03 0. -1.
         -6    1    1    2    0  502  0.11620700598E+03  0.11239022853E+03  0.11114446273E+03  0.26156781779E+03  0.17300000000E+03 0. -1.
<mgrwt>
<rscale>  2 0.23677971E+03</rscale>
<asrwt>0</asrwt>
<pdfrwt beam="1">  1       21 0.33582667E-01 0.23677971E+03</pdfrwt>
<pdfrwt beam="2">  1       21 0.79101603E-01 0.23677971E+03</pdfrwt>
<totfact> 0.11719766E+04</totfact>
</mgrwt>
</event>
<event>
 4    2  0.3964208E+000  0.2094056E+03  0.7546771E-02  0.1142038E+00
         21   -1    0    0  501  502  0.00000000000E+00  0.00000000000E+00  0.18255187307E+03  0.18255187307E+03  0.00000000000E+00 0. -1.
         21   -1    0    0  502  503 -0.00000000000E+00 -0.00000000000E+00 -0.24022920294E+03  0.24022920294E+03  0.00000000000E+00 0. -1.
          6    1    1    2  501    0  0.38865306315E+02 -0.11140555902E+03 -0.26928626916E+02  0.21112996368E+03  0.17300000000E+03 0. -1.
         -6    1    1    2    0  503 -0.38865306315E+02  0.11140555902E+03 -0.30748702954E+02  0.21165111233E+03  0.17300000000E+03 0. -1.
<mgrwt>
<rscale>  2 0.20940561E+03</rscale>
<asrwt>0</asrwt>
<pdfrwt beam="1">  1       21 0.28084904E-01 0.20940561E+03</pdfrwt>
<pdfrwt beam="2">  1       21 0.36958339E-01 0.20940561E+03</pdfrwt>
<totfact> 0.84923969E+04</totfact>
</mgrwt>
</event>
<event>
 4    2  0.3964208E+000  0.1876794E+03  0.7546771E-02  0.1160571E+00
         21   -1    0    0  503  502  0.00000000000E+00  0.00000000000E+00  0.31740533253E+03  0.31740533253E+03  0.00000000000E+00 0. -1.
         21   -1    0    0  501  503 -0.00000000000E+00 -0.00000000000E+00 -0.13944369453E+03  0.13944369453E+03  0.00000000000E+00 0. -1.
          6    1    1    2  501    0  0.68673167675E+02  0.24053444288E+02 -0.14233200327E+02  0.18821837352E+03  0.17300000000E+03 0. -1.
         -6    1    1    2    0  502 -0.68673167675E+02 -0.24053444288E+02  0.19219483833E+03  0.26863065354E+03  0.17300000000E+03 0. -1.
<mgrwt>
<rscale>  2 0.18767944E+03</rscale>
<asrwt>0</asrwt>
<pdfrwt beam="1">  1       21 0.48831589E-01 0.18767944E+03</pdfrwt>
<pdfrwt beam="2">  1       21 0.21452876E-01 0.18767944E+03</pdfrwt>
<totfact> 0.81178817E+04</totfact>
</mgrwt>
</event>
<event>
 4    2  0.3964208E+000  0.2017260E+03  0.7546771E-02  0.1148291E+00
         21   -1    0    0  501  502  0.00000000000E+00  0.00000000000E+00  0.13971500797E+03  0.13971500797E+03  0.00000000000E+00 0. -1.
         21   -1    0    0  502  503 -0.00000000000E+00 -0.00000000000E+00 -0.70112816222E+03  0.70112816222E+03  0.00000000000E+00 0.  1.
          6    1    1    2  501    0 -0.56166563955E+02  0.87233664784E+02  0.40739688090E+02  0.20579873023E+03  0.17300000000E+03 0. -1.
         -6    1    1    2    0  503  0.56166563955E+02 -0.87233664784E+02 -0.60215284235E+03  0.63504443996E+03  0.17300000000E+03 0.  1.
<mgrwt>
<rscale>  2 0.20172604E+03</rscale>
<asrwt>0</asrwt>
<pdfrwt beam="1">  1       21 0.21494616E-01 0.20172604E+03</pdfrwt>
<pdfrwt beam="2">  1       21 0.10786587E+00 0.20172604E+03</pdfrwt>
<totfact> 0.13725129E+04</totfact>
</mgrwt>
</event>
<event>
 4    2  0.3964208E+000  0.2013102E+03  0.7546771E-02  0.1148638E+00
         21   -1    0    0  501  502  0.00000000000E+00  0.00000000000E+00  0.16567411219E+04  0.16567411219E+04  0.00000000000E+00 0.  1.
         21   -1    0    0  502  503 -0.00000000000E+00 -0.00000000000E+00 -0.68875571998E+02  0.68875571998E+02  0.00000000000E+00 0.  1.
          6    1    1    2  501    0 -0.98649151432E+02 -0.29413609662E+02  0.14867898718E+04  0.15003566037E+04  0.17300000000E+03 0.  1.
         -6    1    1    2    0  503  0.98649151432E+02  0.29413609662E+02  0.10107567810E+03  0.22526009015E+03  0.17300000000E+03 0.  1.
<mgrwt>
<rscale>  2 0.20131025E+03</rscale>
<asrwt>0</asrwt>
<pdfrwt beam="1">  1       21 0.25488322E+00 0.20131025E+03</pdfrwt>
<pdfrwt beam="2">  1       21 0.10596243E-01 0.20131025E+03</pdfrwt>
<totfact> 0.45178187E+03</totfact>
</mgrwt>
</event>
<event>
 4    2  0.3964208E+000  0.1749897E+03  0.7546771E-02  0.1172742E+00
         21   -1    0    0  501  502  0.00000000000E+00  0.00000000000E+00  0.90823382156E+03  0.90823382156E+03  0.00000000000E+00 0.  1.
         21   -1    0    0  502  503 -0.00000000000E+00 -0.00000000000E+00 -0.18652484422E+03  0.18652484422E+03  0.00000000000E+00 0.  1.
          6    1    1    2  501    0  0.11473728286E+02 -0.23680307923E+02  0.85629926050E+03  0.87399646850E+03  0.17300000000E+03 0.  1.
         -6    1    1    2    0  503 -0.11473728286E+02  0.23680307923E+02 -0.13459028316E+03  0.22076219727E+03  0.17300000000E+03 0.  1.
<mgrwt>
<rscale>  2 0.17498972E+03</rscale>
<asrwt>0</asrwt>
<pdfrwt beam="1">  1       21 0.13972828E+00 0.17498972E+03</pdfrwt>
<pdfrwt beam="2">  1       21 0.28696130E-01 0.17498972E+03</pdfrwt>
<totfact> 0.42433509E+03</totfact>
</mgrwt>
</event>
<event>
 4    2  0.3964208E+000  0.2252054E+03  0.7546771E-02  0.1130061E+00
         21   -1    0    0  501  502  0.00000000000E+00  0.00000000000E+00  0.11155901594E+03  0.11155901594E+03  0.00000000000E+00 0.  1.
         21   -1    0    0  502  503 -0.00000000000E+00 -0.00000000000E+00 -0.79340208894E+03  0.79340208894E+03  0.00000000000E+00 0. -1.
          6    1    1    2  501    0  0.89910517144E+02  0.11271458527E+03 -0.45249340384E+02  0.22970629428E+03  0.17300000000E+03 0.  1.
         -6    1    1    2    0  503 -0.89910517144E+02 -0.11271458527E+03 -0.63659373262E+03  0.67525481060E+03  0.17300000000E+03 0. -1.
<mgrwt>
<rscale>  2 0.22520541E+03</rscale>
<asrwt>0</asrwt>
<pdfrwt beam="1">  1       21 0.17162925E-01 0.22520541E+03</pdfrwt>
<pdfrwt beam="2">  1       21 0.12206186E+00 0.22520541E+03</pdfrwt>
<totfact> 0.15194923E+04</totfact>
</mgrwt>
</event>
<event>
 4    2  0.3964208E+000  0.2295333E+03  0.7546771E-02  0.1126969E+00
         21   -1    0    0  501  502  0.00000000000E+00  0.00000000000E+00  0.10898444679E+03  0.10898444679E+03  0.00000000000E+00 0. -1.
         21   -1    0    0  502  503 -0.00000000000E+00 -0.00000000000E+00 -0.57214434540E+03  0.57214434540E+03  0.00000000000E+00 0. -1.
          6    1    1    2  501    0  0.11954720925E+03 -0.92005343107E+02 -0.97469670427E+02  0.24937091862E+03  0.17300000000E+03 0. -1.
         -6    1    1    2    0  503 -0.11954720925E+03  0.92005343107E+02 -0.36569022819E+03  0.43175787357E+03  0.17300000000E+03 0. -1.
<mgrwt>
<rscale>  2 0.22953326E+03</rscale>
<asrwt>0</asrwt>
<pdfrwt beam="1">  1       21 0.16766838E-01 0.22953326E+03</pdfrwt>
<pdfrwt beam="2">  1       21 0.88022207E-01 0.22953326E+03</pdfrwt>
<totfact> 0.34714342E+04</totfact>
</mgrwt>
</event>
<event>
 4    2  0.3964208E+000  0.1842644E+03  0.7546771E-02  0.1163739E+00
         21   -1    0    0  503  502  0.00000000000E+00  0.00000000000E+00  0.10297687242E+03  0.10297687242E+03  0.00000000000E+00 0. -1.
         21   -1    0    0  501  503 -0.00000000000E+00 -0.00000000000E+00 -0.13117921794E+04  0.13117921794E+04  0.00000000000E+00 0. -1.
          6    1    1    2  501    0 -0.81468704263E+01  0.62912505815E+02 -0.12164692435E+04  0.12303457950E+04  0.17300000000E+03 0. -1.
         -6    1    1    2    0  502  0.81468704263E+01 -0.62912505815E+02  0.76539365865E+01  0.18442325675E+03  0.17300000000E+03 0. -1.
<mgrwt>
<rscale>  2 0.18426436E+03</rscale>
<asrwt>0</asrwt>
<pdfrwt beam="1">  1       21 0.15842596E-01 0.18426436E+03</pdfrwt>
<pdfrwt beam="2">  1       21 0.20181417E+00 0.18426436E+03</pdfrwt>
<totfact> 0.46786314E+03</totfact>
</mgrwt>
</event>
<event>
 4    2  0.3964208E+000  0.2105358E+03  0.7546771E-02  0.1141142E+00
         21   -1    0    0  501  502  0.00000000000E+00  0.00000000000E+00  0.67719746527E+02  0.67719746527E+02  0.00000000000E+00 0.  1.
         21   -1    0    0  502  503 -0.00000000000E+00 -0.00000000000E+00 -0.75076122178E+03  0.75076122178E+03  0.00000000000E+00 0. -1.
          6    1    1    2  501    0 -0.11459799730E+03 -0.35547624525E+02 -0.19501272266E+03  0.28697612547E+03  0.17300000000E+03 0.  1.
         -6    1    1    2    0  503  0.11459799730E+03  0.35547624525E+02 -0.48802875260E+03  0.53150484283E+03  0.17300000000E+03 0. -1.
<mgrwt>
<rscale>  2 0.21053583E+03</rscale>
<asrwt>0</asrwt>
<pdfrwt beam="1">  1       21 0.10418423E-01 0.21053583E+03</pdfrwt>
<pdfrwt beam="2">  1       21 0.11550172E+00 0.21053583E+03</pdfrwt>
<totfact> 0.43358636E+04</totfact>
</mgrwt>
</event>
<event>
 4    2  0.3964208E+000  0.1956497E+03  0.7546771E-02  0.1153462E+00
         21   -1    0    0  503  502  0.00000000000E+00  0.00000000000E+00  0.12078945021E+04  0.12078945021E+04  0.00000000000E+00 0. -1.
         21   -1    0    0  501  503 -0.00000000000E+00 -0.00000000000E+00 -0.46185420485E+02  0.46185420485E+02  0.00000000000E+00 0. -1.
          6    1    1    2  501    0  0.78803949502E+02 -0.46257457112E+02  0.22957709654E+03  0.30163630095E+03  0.17300000000E+03 0. -1.
         -6    1    1    2    0  502 -0.78803949502E+02  0.46257457112E+02  0.93213198510E+03  0.95244362166E+03  0.17300000000E+03 0. -1.
<mgrwt>
<rscale>  2 0.19564972E+03</rscale>
<asrwt>0</asrwt>
<pdfrwt beam="1">  1       21 0.18582990E+00 0.19564972E+03</pdfrwt>
<pdfrwt beam="2">  1       21 0.71054502E-02 0.19564972E+03</pdfrwt>
<totfact> 0.24450581E+04</totfact>
</mgrwt>
</event>
<event>
 4    2  0.3964208E+000  0.2217468E+03  0.7546771E-02  0.1132587E+00
         21   -1    0    0  501  502  0.00000000000E+00  0.00000000000E+00  0.26187835924E+03  0.26187835924E+03  0.00000000000E+00 0. -1.
         21   -1    0    0  502  503 -0.00000000000E+00 -0.00000000000E+00 -0.28059756303E+03  0.28059756303E+03  0.00000000000E+00 0.  1.
          6    1    1    2  501    0 -0.94189315982E+02  0.10183821916E+03  0.14665245342E+03  0.26585445684E+03  0.17300000000E+03 0. -1.
         -6    1    1    2    0  503  0.94189315982E+02 -0.10183821916E+03 -0.16537165721E+03  0.27662146543E+03  0.17300000000E+03 0.  1.
<mgrwt>
<rscale>  2 0.22174682E+03</rscale>
<asrwt>0</asrwt>
<pdfrwt beam="1">  1       21 0.40288978E-01 0.22174682E+03</pdfrwt>
<pdfrwt beam="2">  1       21 0.43168856E-01 0.22174682E+03</pdfrwt>
<totfact> 0.30159192E+04</totfact>
</mgrwt>
</event>
<event>
 4    2  0.3964208E+000  0.2153440E+03  0.7546771E-02  0.1137403E+00
         21   -1    0    0  503  502  0.00000000000E+00  0.00000000000E+00  0.33596522268E+03  0.33596522268E+03  0.00000000000E+00 0. -1.
         21   -1    0    0  501  503 -0.00000000000E+00 -0.00000000000E+00 -0.29889737862E+03  0.29889737862E+03  0.00000000000E+00 0. -1.
          6    1    1    2  501    0  0.92628468278E+02 -0.88679283156E+02 -0.21434147977E+03  0.30383436005E+03  0.17300000000E+03 0. -1.
         -6    1    1    2    0  502 -0.92628468278E+02  0.88679283156E+02  0.25140932383E+03  0.33102824125E+03  0.17300000000E+03 0. -1.
<mgrwt>
<rscale>  2 0.21534402E+03</rscale>
<asrwt>0</asrwt>
<pdfrwt beam="1">  1       21 0.51686957E-01 0.21534402E+03</pdfrwt>
<pdfrwt beam="2">  1       21 0.45984212E-01 0.21534402E+03</pdfrwt>
<totfact> 0.15889426E+04</totfact>
</mgrwt>
</event>
<event>
 4    2  0.3964208E+000  0.2718071E+03  0.7546771E-02  0.1100250E+00
         21   -1    0    0  501  502  0.00000000000E+00  0.00000000000E+00  0.14898012098E+04  0.14898012098E+04  0.00000000000E+00 0.  1.
         21   -1    0    0  502  503 -0.00000000000E+00 -0.00000000000E+00 -0.55728833660E+02  0.55728833660E+02  0.00000000000E+00 0.  1.
          6    1    1    2  501    0  0.18073246409E+03 -0.10623505151E+03  0.46055616035E+03  0.53478134465E+03  0.17300000000E+03 0.  1.
         -6    1    1    2    0  503 -0.18073246409E+03  0.10623505151E+03  0.97351621576E+03  0.10107486988E+04  0.17300000000E+03 0.  1.
<mgrwt>
<rscale>  2 0.27180712E+03</rscale>
<asrwt>0</asrwt>
<pdfrwt beam="1">  1       21 0.22920016E+00 0.27180712E+03</pdfrwt>
<pdfrwt beam="2">  1       21 0.85736678E-02 0.27180712E+03</pdfrwt>
<totfact> 0.88375192E+03</totfact>
</mgrwt>
</event>
<event>
 4    2  0.3964208E+000  0.1868579E+03  0.7546771E-02  0.1161326E+00
         21   -1    0    0  501  502  0.00000000000E+00  0.00000000000E+00  0.35433678078E+03  0.35433678078E+03  0.00000000000E+00 0.  1.
         21   -1    0    0  502  503 -0.00000000000E+00 -0.00000000000E+00 -0.13138719112E+03  0.13138719112E+03  0.00000000000E+00 0.  1.
          6    1    1    2  501    0  0.24850846239E+02  0.66100618913E+02  0.23290907097E+03  0.29860089035E+03  0.17300000000E+03 0.  1.
         -6    1    1    2    0  503 -0.24850846239E+02 -0.66100618913E+02 -0.99594813194E+01  0.18712308155E+03  0.17300000000E+03 0.  1.
<mgrwt>
<rscale>  2 0.18685785E+03</rscale>
<asrwt>0</asrwt>
<pdfrwt beam="1">  1       21 0.54513350E-01 0.18685785E+03</pdfrwt>
<pdfrwt beam="2">  1       21 0.20213414E-01 0.18685785E+03</pdfrwt>
<totfact> 0.72101061E+04</totfact>
</mgrwt>
</event>
<event>
 4    2  0.3964208E+000  0.1754082E+03  0.7546771E-02  0.1172322E+00
         21   -1    0    0  501  502  0.00000000000E+00  0.00000000000E+00  0.23475365357E+03  0.23475365357E+03  0.00000000000E+00 0. -1.
         21   -1    0    0  502  503 -0.00000000000E+00 -0.00000000000E+00 -0.20683789362E+03  0.20683789362E+03  0.00000000000E+00 0. -1.
          6    1    1    2  501    0 -0.15259068998E+02  0.24621352928E+02  0.14759646690E+03  0.22924390340E+03  0.17300000000E+03 0. -1.
         -6    1    1    2    0  503  0.15259068998E+02 -0.24621352928E+02 -0.11968070695E+03  0.21234764379E+03  0.17300000000E+03 0. -1.
<mgrwt>
<rscale>  2 0.17540824E+03</rscale>
<asrwt>0</asrwt>
<pdfrwt beam="1">  1       21 0.36115947E-01 0.17540824E+03</pdfrwt>
<pdfrwt beam="2">  1       21 0.31821214E-01 0.17540824E+03</pdfrwt>
<totfact> 0.70725087E+04</totfact>
</mgrwt>
</event>
<event>
 4    2  0.3964208E+000  0.2870399E+03  0.7546771E-02  0.1091905E+00
         21   -1    0    0  501  502  0.00000000000E+00  0.00000000000E+00  0.12167208915E+04  0.12167208915E+04  0.00000000000E+00 0.  1.
         21   -1    0    0  502  503 -0.00000000000E+00 -0.00000000000E+00 -0.88629610561E+02  0.88629610561E+02  0.00000000000E+00 0. -1.
          6    1    1    2  501    0  0.22326258233E+03  0.51153942307E+02  0.88108889971E+03  0.92666582740E+03  0.17300000000E+03 0.  1.
         -6    1    1    2    0  503 -0.22326258233E+03 -0.51153942307E+02  0.24700238120E+03  0.37868467463E+03  0.17300000000E+03 0. -1.
<mgrwt>
<rscale>  2 0.28703990E+03</rscale>
<asrwt>0</asrwt>
<pdfrwt beam="1">  1       21 0.18718782E+00 0.28703990E+03</pdfrwt>
<pdfrwt beam="2">  1       21 0.13635326E-01 0.28703990E+03</pdfrwt>
<totfact> 0.70975315E+03</totfact>
</mgrwt>
</event>
<event>
 4    2  0.3964208E+000  0.1744944E+03  0.7546771E-02  0.1173240E+00
         21   -1    0    0  503  502  0.00000000000E+00  0.00000000000E+00  0.31953749165E+03  0.31953749165E+03  0.00000000000E+00 0.  1.
         21   -1    0    0  501  503 -0.00000000000E+00 -0.00000000000E+00 -0.26202795404E+03  0.26202795404E+03  0.00000000000E+00 0.  1.
          6    1    1    2  501    0  0.64480055368E+01 -0.21856422691E+02 -0.20320562869E+03  0.26784474518E+03  0.17300000000E+03 0.  1.
         -6    1    1    2    0  502 -0.64480055368E+01  0.21856422691E+02  0.26071516630E+03  0.31372070051E+03  0.17300000000E+03 0.  1.
<mgrwt>
<rscale>  2 0.17449436E+03</rscale>
<asrwt>0</asrwt>
<pdfrwt beam="1">  1       21 0.49159614E-01 0.17449436E+03</pdfrwt>
<pdfrwt beam="2">  1       21 0.40311993E-01 0.17449436E+03</pdfrwt>
<totfact> 0.23654145E+04</totfact>
</mgrwt>
</event>
<event>
 4    2  0.3964208E+000  0.1963284E+03  0.7546771E-02  0.1152874E+00
         21   -1    0    0  501  502  0.00000000000E+00  0.00000000000E+00  0.16241425698E+03  0.16241425698E+03  0.00000000000E+00 0.  1.
         21   -1    0    0  502  503 -0.00000000000E+00 -0.00000000000E+00 -0.23901206637E+03  0.23901206637E+03  0.00000000000E+00 0.  1.
          6    1    1    2  501    0 -0.49513808875E+02 -0.78512510247E+02 -0.21431952716E+02  0.19749470912E+03  0.17300000000E+03 0.  1.
         -6    1    1    2    0  503  0.49513808875E+02  0.78512510247E+02 -0.55165856674E+02  0.20393161422E+03  0.17300000000E+03 0.  1.
<mgrwt>
<rscale>  2 0.19632838E+03</rscale>
<asrwt>0</asrwt>
<pdfrwt beam="1">  1       21 0.24986809E-01 0.19632838E+03</pdfrwt>
<pdfrwt beam="2">  1       21 0.36771087E-01 0.19632838E+03</pdfrwt>
<totfact> 0.10799455E+05</totfact>
</mgrwt>
</event>
<event>
 4    2  0.3964208E+000  0.1778289E+03  0.7546771E-02  0.1169921E+00
         21   -1    0    0  503  502  0.00000000000E+00  0.00000000000E+00  0.41127959030E+03  0.41127959030E+03  0.00000000000E+00 0. -1.
         21   -1    0    0  501  503 -0.00000000000E+00 -0.00000000000E+00 -0.88297169542E+02  0.88297169542E+02  0.00000000000E+00 0. -1.
          6    1    1    2  501    0 -0.12776474820E+02  0.39126310415E+02  0.71707783807E+02  0.19174230815E+03  0.17300000000E+03 0. -1.
         -6    1    1    2    0  502  0.12776474820E+02 -0.39126310415E+02  0.25127463695E+03  0.30783445170E+03  0.17300000000E+03 0. -1.
<mgrwt>
<rscale>  2 0.17782887E+03</rscale>
<asrwt>0</asrwt>
<pdfrwt beam="1">  1       21 0.63273782E-01 0.17782887E+03</pdfrwt>
<pdfrwt beam="2">  1       21 0.13584180E-01 0.17782887E+03</pdfrwt>
<totfact> 0.10910510E+05</totfact>
</mgrwt>
</event>
<event>
 4    2  0.3964208E+000  0.1867906E+03  0.7546771E-02  0.1161388E+00
         21   -1    0    0  501  502  0.00000000000E+00  0.00000000000E+00  0.24161334483E+02  0.24161334483E+02  0.00000000000E+00 0. -1.
         21   -1    0    0  502  503 -0.00000000000E+00 -0.00000000000E+00 -0.19071048615E+04  0.19071048615E+04  0.00000000000E+00 0. -1.
          6    1    1    2  501    0 -0.67025414748E+02 -0.21663436792E+02 -0.14172786067E+04  0.14295346654E+04  0.17300000000E+03 0. -1.
         -6    1    1    2    0  503  0.67025414748E+02  0.21663436792E+02 -0.46566492030E+03  0.50173153052E+03  0.17300000000E+03 0. -1.
<mgrwt>
<rscale>  2 0.18679055E+03</rscale>
<asrwt>0</asrwt>
<pdfrwt beam="1">  1       21 0.37171281E-02 0.18679055E+03</pdfrwt>
<pdfrwt beam="2">  1       21 0.29340077E+00 0.18679055E+03</pdfrwt>
<totfact> 0.16603844E+04</totfact>
</mgrwt>
</event>
<event>
 4    2  0.3964208E+000  0.3130315E+03  0.7546771E-02  0.1078902E+00
         21   -1    0    0  501  502  0.00000000000E+00  0.00000000000E+00  0.11222738571E+04  0.11222738571E+04  0.00000000000E+00 0.  1.
         21   -1    0    0  502  503 -0.00000000000E+00 -0.00000000000E+00 -0.16168501603E+03  0.16168501603E+03  0.00000000000E+00 0. -1.
          6    1    1    2  501    0  0.24204686821E+03 -0.97329356300E+02  0.91569807210E+03  0.96772498638E+03  0.17300000000E+03 0.  1.
         -6    1    1    2    0  503 -0.24204686821E+03  0.97329356300E+02  0.44890768996E+02  0.31623388678E+03  0.17300000000E+03 0. -1.
<mgrwt>
<rscale>  2 0.31303145E+03</rscale>
<asrwt>0</asrwt>
<pdfrwt beam="1">  1       21 0.17265751E+00 0.31303145E+03</pdfrwt>
<pdfrwt beam="2">  1       21 0.24874618E-01 0.31303145E+03</pdfrwt>
<totfact> 0.28588178E+03</totfact>
</mgrwt>
</event>
<event>
 4    2  0.3964208E+000  0.2016011E+03  0.7546771E-02  0.1148395E+00
         21   -1    0    0  503  502  0.00000000000E+00  0.00000000000E+00  0.25565044957E+03  0.25565044957E+03  0.00000000000E+00 0.  1.
         21   -1    0    0  501  503 -0.00000000000E+00 -0.00000000000E+00 -0.51371433221E+03  0.51371433221E+03  0.00000000000E+00 0. -1.
          6    1    1    2  501    0  0.10002738081E+03 -0.26618330079E+02 -0.44869598268E+03  0.49190557761E+03  0.17300000000E+03 0. -1.
         -6    1    1    2    0  502 -0.10002738081E+03  0.26618330079E+02  0.19063210005E+03  0.27745920417E+03  0.17300000000E+03 0.  1.
<mgrwt>
<rscale>  2 0.20160112E+03</rscale>
<asrwt>0</asrwt>
<pdfrwt beam="1">  1       21 0.39330838E-01 0.20160112E+03</pdfrwt>
<pdfrwt beam="2">  1       21 0.79032974E-01 0.20160112E+03</pdfrwt>
<totfact> 0.87541122E+03</totfact>
</mgrwt>
</event>
<event>
 4    2  0.3964208E+000  0.2247143E+03  0.7546771E-02  0.1130416E+00
         21   -1    0    0  501  502  0.00000000000E+00  0.00000000000E+00  0.15782968655E+03  0.15782968655E+03  0.00000000000E+00 0. -1.
         21   -1    0    0  502  503 -0.00000000000E+00 -0.00000000000E+00 -0.36044274032E+03  0.36044274032E+03  0.00000000000E+00 0. -1.
          6    1    1    2  501    0  0.13589788894E+03 -0.45817835508E+02 -0.14443321168E+02  0.22517797360E+03  0.17300000000E+03 0. -1.
         -6    1    1    2    0  503 -0.13589788894E+03  0.45817835508E+02 -0.18816973260E+03  0.29309445327E+03  0.17300000000E+03 0. -1.
<mgrwt>
<rscale>  2 0.22471429E+03</rscale>
<asrwt>0</asrwt>
<pdfrwt beam="1">  1       21 0.24281490E-01 0.22471429E+03</pdfrwt>
<pdfrwt beam="2">  1       21 0.55452729E-01 0.22471429E+03</pdfrwt>
<totfact> 0.48345136E+04</totfact>
</mgrwt>
</event>
<event>
 4    2  0.3964208E+000  0.2753410E+03  0.7546771E-02  0.1098261E+00
         21   -1    0    0  501  502  0.00000000000E+00  0.00000000000E+00  0.69632255049E+02  0.69632255049E+02  0.00000000000E+00 0.  1.
         21   -1    0    0  502  503 -0.00000000000E+00 -0.00000000000E+00 -0.23309922173E+04  0.23309922173E+04  0.00000000000E+00 0. -1.
          6    1    1    2  501    0  0.98672386491E+02  0.19012478089E+03 -0.20069250197E+04  0.20257247362E+04  0.17300000000E+03 0. -1.
         -6    1    1    2    0  503 -0.98672386491E+02 -0.19012478089E+03 -0.25443494252E+03  0.37489973611E+03  0.17300000000E+03 0.  1.
<mgrwt>
<rscale>  2 0.27534101E+03</rscale>
<asrwt>0</asrwt>
<pdfrwt beam="1">  1       21 0.10712656E-01 0.27534101E+03</pdfrwt>
<pdfrwt beam="2">  1       21 0.35861414E+00 0.27534101E+03</pdfrwt>
<totfact> 0.10093547E+03</totfact>
</mgrwt>
</event>
<event>
 4    2  0.3964208E+000  0.2040549E+03  0.7546771E-02  0.1146362E+00
         21   -1    0    0  501  502  0.00000000000E+00  0.00000000000E+00  0.16928234693E+03  0.16928234693E+03  0.00000000000E+00 0. -1.
         21   -1    0    0  502  503 -0.00000000000E+00 -0.00000000000E+00 -0.25400641097E+03  0.25400641097E+03  0.00000000000E+00 0. -1.
          6    1    1    2  501    0 -0.52297497796E+02 -0.94733129933E+02 -0.47165359123E+01  0.20410938218E+03  0.17300000000E+03 0. -1.
         -6    1    1    2    0  503  0.52297497796E+02  0.94733129933E+02 -0.80007528137E+02  0.21917937572E+03  0.17300000000E+03 0. -1.
<mgrwt>
<rscale>  2 0.20405488E+03</rscale>
<asrwt>0</asrwt>
<pdfrwt beam="1">  1       21 0.26043438E-01 0.20405488E+03</pdfrwt>
<pdfrwt beam="2">  1       21 0.39077909E-01 0.20405488E+03</pdfrwt>
<totfact> 0.88014227E+04</totfact>
</mgrwt>
</event>
<event>
 4    2  0.3964208E+000  0.2522087E+03  0.7546771E-02  0.1111917E+00
         21   -1    0    0  501  502  0.00000000000E+00  0.00000000000E+00  0.34616732355E+03  0.34616732355E+03  0.00000000000E+00 0.  1.
         21   -1    0    0  502  503 -0.00000000000E+00 -0.00000000000E+00 -0.22307046263E+03  0.22307046263E+03  0.00000000000E+00 0.  1.
          6    1    1    2  501    0 -0.14664151768E+03 -0.11034710254E+03  0.18103978740E+03  0.31045872893E+03  0.17300000000E+03 0.  1.
         -6    1    1    2    0  503  0.14664151768E+03  0.11034710254E+03 -0.57942926473E+02  0.25877905726E+03  0.17300000000E+03 0.  1.
<mgrwt>
<rscale>  2 0.25220868E+03</rscale>
<asrwt>0</asrwt>
<pdfrwt beam="1">  1       21 0.53256511E-01 0.25220868E+03</pdfrwt>
<pdfrwt beam="2">  1       21 0.34318533E-01 0.25220868E+03</pdfrwt>
<totfact> 0.26496774E+04</totfact>
</mgrwt>
</event>
<event>
 4    2  0.3964208E+000  0.2368900E+03  0.7546771E-02  0.1121882E+00
         21   -1    0    0  501  502  0.00000000000E+00  0.00000000000E+00  0.41018473195E+03  0.41018473195E+03  0.00000000000E+00 0. -1.
         21   -1    0    0  502  503 -0.00000000000E+00 -0.00000000000E+00 -0.14767103137E+03  0.14767103137E+03  0.00000000000E+00 0.  1.
          6    1    1    2  501    0 -0.81140057336E+01 -0.16162310520E+03  0.20690608968E+03  0.31452662077E+03  0.17300000000E+03 0. -1.
         -6    1    1    2    0  503  0.81140057336E+01  0.16162310520E+03  0.55607610896E+02  0.24332914255E+03  0.17300000000E+03 0.  1.
<mgrwt>
<rscale>  2 0.23688999E+03</rscale>
<asrwt>0</asrwt>
<pdfrwt beam="1">  1       21 0.63105343E-01 0.23688999E+03</pdfrwt>
<pdfrwt beam="2">  1       21 0.22718620E-01 0.23688999E+03</pdfrwt>
<totfact> 0.41328949E+04</totfact>
</mgrwt>
</event>
<event>
 4    2  0.3964208E+000  0.2259099E+03  0.7546771E-02  0.1129552E+00
         21   -1    0    0  503  502  0.00000000000E+00  0.00000000000E+00  0.16627663421E+03  0.16627663421E+03  0.00000000000E+00 0. -1.
         21   -1    0    0  501  503 -0.00000000000E+00 -0.00000000000E+00 -0.30846128699E+03  0.30846128699E+03  0.00000000000E+00 0.  1.
          6    1    1    2  501    0 -0.14482309511E+03  0.11513970116E+02 -0.54368303088E+02  0.23236009288E+03  0.17300000000E+03 0. -1.
         -6    1    1    2    0  502  0.14482309511E+03 -0.11513970116E+02 -0.87816349689E+02  0.24237782831E+03  0.17300000000E+03 0.  1.
<mgrwt>
<rscale>  2 0.22590994E+03</rscale>
<asrwt>0</asrwt>
<pdfrwt beam="1">  1       21 0.25581021E-01 0.22590994E+03</pdfrwt>
<pdfrwt beam="2">  1       21 0.47455582E-01 0.22590994E+03</pdfrwt>
<totfact> 0.60658931E+04</totfact>
</mgrwt>
</event>
<event>
 4    2  0.3964208E+000  0.2289853E+03  0.7546771E-02  0.1127356E+00
         21   -1    0    0  503  502  0.00000000000E+00  0.00000000000E+00  0.11010781959E+04  0.11010781959E+04  0.00000000000E+00 0. -1.
         21   -1    0    0  501  503 -0.00000000000E+00 -0.00000000000E+00 -0.49502142901E+02  0.49502142901E+02  0.00000000000E+00 0. -1.
          6    1    1    2  501    0  0.34497448754E+02  0.14599721530E+03  0.41363651580E+03  0.47278898892E+03  0.17300000000E+03 0. -1.
         -6    1    1    2    0  502 -0.34497448754E+02 -0.14599721530E+03  0.63793953717E+03  0.67779134985E+03  0.17300000000E+03 0. -1.
<mgrwt>
<rscale>  2 0.22898529E+03</rscale>
<asrwt>0</asrwt>
<pdfrwt beam="1">  1       21 0.16939663E+00 0.22898529E+03</pdfrwt>
<pdfrwt beam="2">  1       21 0.76157151E-02 0.22898529E+03</pdfrwt>
<totfact> 0.27525290E+04</totfact>
</mgrwt>
</event>
<event>
 4    2  0.3964208E+000  0.2426767E+03  0.7546771E-02  0.1118022E+00
         21   -1    0    0  503  502  0.00000000000E+00  0.00000000000E+00  0.13878843455E+03  0.13878843455E+03  0.00000000000E+00 0.  1.
         21   -1    0    0  501  503 -0.00000000000E+00 -0.00000000000E+00 -0.54844344216E+03  0.54844344216E+03  0.00000000000E+00 0. -1.
          6    1    1    2  501    0 -0.62925401285E+02  0.15812448597E+03 -0.36829014670E+03  0.44105508879E+03  0.17300000000E+03 0. -1.
         -6    1    1    2    0  502  0.62925401285E+02 -0.15812448597E+03 -0.41364860914E+02  0.24617678792E+03  0.17300000000E+03 0.  1.
<mgrwt>
<rscale>  2 0.24267666E+03</rscale>
<asrwt>0</asrwt>
<pdfrwt beam="1">  1       21 0.21352067E-01 0.24267666E+03</pdfrwt>
<pdfrwt beam="2">  1       21 0.84375914E-01 0.24267666E+03</pdfrwt>
<totfact> 0.24217786E+04</totfact>
</mgrwt>
</event>
<event>
 4    2  0.3964208E+000  0.2149179E+03  0.7546771E-02  0.1137730E+00
         21   -1    0    0  503  502  0.00000000000E+00  0.00000000000E+00  0.85230986152E+02  0.85230986152E+02  0.00000000000E+00 0. -1.
         21   -1    0    0  501  503 -0.00000000000E+00 -0.00000000000E+00 -0.64954269365E+03  0.64954269365E+03  0.00000000000E+00 0.  1.
          6    1    1    2  501    0  0.12730468412E+03  0.73629020413E+01 -0.13262168235E+03  0.25254347260E+03  0.17300000000E+03 0.  1.
         -6    1    1    2    0  502 -0.12730468412E+03 -0.73629020413E+01 -0.43169002514E+03  0.48223020720E+03  0.17300000000E+03 0.  1.
<mgrwt>
<rscale>  2 0.21491788E+03</rscale>
<asrwt>0</asrwt>
<pdfrwt beam="1">  1       21 0.13112459E-01 0.21491788E+03</pdfrwt>
<pdfrwt beam="2">  1       21 0.99929649E-01 0.21491788E+03</pdfrwt>
<totfact> 0.40676878E+04</totfact>
</mgrwt>
</event>
<event>
 4    2  0.3964208E+000  0.2175738E+03  0.7546771E-02  0.1135705E+00
         21   -1    0    0  501  502  0.00000000000E+00  0.00000000000E+00  0.10282403002E+04  0.10282403002E+04  0.00000000000E+00 0. -1.
         21   -1    0    0  502  503 -0.00000000000E+00 -0.00000000000E+00 -0.46183491398E+02  0.46183491398E+02  0.00000000000E+00 0.  1.
          6    1    1    2  501    0  0.93208980644E+02 -0.93388591118E+02  0.52115895201E+03  0.56475215474E+03  0.17300000000E+03 0. -1.
         -6    1    1    2    0  503 -0.93208980644E+02  0.93388591118E+02  0.46089785680E+03  0.50967163687E+03  0.17300000000E+03 0. -1.
<mgrwt>
<rscale>  2 0.21757376E+03</rscale>
<asrwt>0</asrwt>
<pdfrwt beam="1">  1       21 0.15819080E+00 0.21757376E+03</pdfrwt>
<pdfrwt beam="2">  1       21 0.71051533E-02 0.21757376E+03</pdfrwt>
<totfact> 0.37692841E+04</totfact>
</mgrwt>
</event>
<event>
 4    2  0.3964208E+000  0.1750233E+03  0.7546771E-02  0.1172708E+00
         21   -1    0    0  501  502  0.00000000000E+00  0.00000000000E+00  0.17566776129E+03  0.17566776129E+03  0.00000000000E+00 0. -1.
         21   -1    0    0  502  503 -0.00000000000E+00 -0.00000000000E+00 -0.55873741929E+03  0.55873741929E+03  0.00000000000E+00 0. -1.
          6    1    1    2  501    0 -0.26432144280E+02 -0.23423753668E+01  0.11302235345E+03  0.20834394005E+03  0.17300000000E+03 0. -1.
         -6    1    1    2    0  503  0.26432144280E+02  0.23423753668E+01 -0.49609201145E+03  0.52606124054E+03  0.17300000000E+03 0. -1.
<mgrwt>
<rscale>  2 0.17502327E+03</rscale>
<asrwt>0</asrwt>
<pdfrwt beam="1">  1       21 0.27025809E-01 0.17502327E+03</pdfrwt>
<pdfrwt beam="2">  1       21 0.85959604E-01 0.17502327E+03</pdfrwt>
<totfact> 0.15410663E+04</totfact>
</mgrwt>
</event>
<event>
 4    2  0.3964208E+000  0.1962548E+03  0.7546771E-02  0.1152938E+00
         21   -1    0    0  503  502  0.00000000000E+00  0.00000000000E+00  0.17955759912E+03  0.17955759912E+03  0.00000000000E+00 0.  1.
         21   -1    0    0  501  503 -0.00000000000E+00 -0.00000000000E+00 -0.22435437773E+03  0.22435437773E+03  0.00000000000E+00 0. -1.
          6    1    1    2  501    0 -0.41072438426E+02  0.83066161414E+02 -0.64714184371E+02  0.20664911814E+03  0.17300000000E+03 0. -1.
         -6    1    1    2    0  502  0.41072438426E+02 -0.83066161414E+02  0.19917405763E+02  0.19726285870E+03  0.17300000000E+03 0.  1.
<mgrwt>
<rscale>  2 0.19625476E+03</rscale>
<asrwt>0</asrwt>
<pdfrwt beam="1">  1       21 0.27624246E-01 0.19625476E+03</pdfrwt>
<pdfrwt beam="2">  1       21 0.34516058E-01 0.19625476E+03</pdfrwt>
<totfact> 0.10102564E+05</totfact>
</mgrwt>
</event>
<event>
 4    2  0.3964208E+000  0.1921403E+03  0.7546771E-02  0.1156545E+00
         21   -1    0    0  503  502  0.00000000000E+00  0.00000000000E+00  0.38017502694E+03  0.38017502694E+03  0.00000000000E+00 0. -1.
         21   -1    0    0  501  503 -0.00000000000E+00 -0.00000000000E+00 -0.10834569935E+03  0.10834569935E+03  0.00000000000E+00 0. -1.
          6    1    1    2  501    0  0.75726826473E+02 -0.35416649386E+02  0.57247544875E+02  0.20048733799E+03  0.17300000000E+03 0. -1.
         -6    1    1    2    0  502 -0.75726826473E+02  0.35416649386E+02  0.21458178271E+03  0.28803338830E+03  0.17300000000E+03 0. -1.
<mgrwt>
<rscale>  2 0.19214029E+03</rscale>
<asrwt>0</asrwt>
<pdfrwt beam="1">  1       21 0.58488465E-01 0.19214029E+03</pdfrwt>
<pdfrwt beam="2">  1       21 0.16668569E-01 0.19214029E+03</pdfrwt>
<totfact> 0.88549817E+04</totfact>
</mgrwt>
</event>
<event>
 4    2  0.3964208E+000  0.2359685E+03  0.7546771E-02  0.1122508E+00
         21   -1    0    0  503  502  0.00000000000E+00  0.00000000000E+00  0.85999726507E+02  0.85999726507E+02  0.00000000000E+00 0.  1.
         21   -1    0    0  501  503 -0.00000000000E+00 -0.00000000000E+00 -0.73119959619E+03  0.73119959619E+03  0.00000000000E+00 0. -1.
          6    1    1    2  501    0  0.12779550893E+03 -0.97058878858E+02 -0.46087804901E+03  0.51777378664E+03  0.17300000000E+03 0.  1.
         -6    1    1    2    0  502 -0.12779550893E+03  0.97058878858E+02 -0.18432182067E+03  0.29942553606E+03  0.17300000000E+03 0.  1.
<mgrwt>
<rscale>  2 0.23596847E+03</rscale>
<asrwt>0</asrwt>
<pdfrwt beam="1">  1       21 0.13230727E-01 0.23596847E+03</pdfrwt>
<pdfrwt beam="2">  1       21 0.11249224E+00 0.23596847E+03</pdfrwt>
<totfact> 0.29746342E+04</totfact>
</mgrwt>
</event>
<event>
 4    2  0.3964208E+000  0.2196371E+03  0.7546771E-02  0.1134154E+00
         21   -1    0    0  501  502  0.00000000000E+00  0.00000000000E+00  0.17910043655E+03  0.17910043655E+03  0.00000000000E+00 0. -1.
         21   -1    0    0  502  503 -0.00000000000E+00 -0.00000000000E+00 -0.34753343604E+03  0.34753343604E+03  0.00000000000E+00 0. -1.
          6    1    1    2  501    0 -0.13452631156E+03  0.14633113451E+02  0.40677532965E+02  0.22337215180E+03  0.17300000000E+03 0. -1.
         -6    1    1    2    0  503  0.13452631156E+03 -0.14633113451E+02 -0.20911053246E+03  0.30326172079E+03  0.17300000000E+03 0. -1.
<mgrwt>
<rscale>  2 0.21963710E+03</rscale>
<asrwt>0</asrwt>
<pdfrwt beam="1">  1       21 0.27553914E-01 0.21963710E+03</pdfrwt>
<pdfrwt beam="2">  1       21 0.53466682E-01 0.21963710E+03</pdfrwt>
<totfact> 0.41055344E+04</totfact>
</mgrwt>
</event>
<event>
 4    2  0.3964208E+000  0.1822088E+03  0.7546771E-02  0.1165682E+00
         21   -1    0    0  501  502  0.00000000000E+00  0.00000000000E+00  0.47809167625E+02  0.47809167625E+02  0.00000000000E+00 0. -1.
         21   -1    0    0  502  503 -0.00000000000E+00 -0.00000000000E+00 -0.12102868971E+04  0.12102868971E+04  0.00000000000E+00 0. -1.
          6    1    1    2  501    0 -0.31982431011E+02 -0.47414877654E+02 -0.17055757936E+03  0.24957951517E+03  0.17300000000E+03 0. -1.
         -6    1    1    2    0  503  0.31982431011E+02  0.47414877654E+02 -0.99192015010E+03  0.10085165495E+04  0.17300000000E+03 0. -1.
<mgrwt>
<rscale>  2 0.18220880E+03</rscale>
<asrwt>0</asrwt>
<pdfrwt beam="1">  1       21 0.73552563E-02 0.18220880E+03</pdfrwt>
<pdfrwt beam="2">  1       21 0.18619799E+00 0.18220880E+03</pdfrwt>
<totfact> 0.23124015E+04</totfact>
</mgrwt>
</event>
<event>
 4    2  0.3964208E+000  0.2353808E+03  0.7546771E-02  0.1122909E+00
         21   -1    0    0  501  502  0.00000000000E+00  0.00000000000E+00  0.13500320664E+03  0.13500320664E+03  0.00000000000E+00 0. -1.
         21   -1    0    0  502  503 -0.00000000000E+00 -0.00000000000E+00 -0.42427570812E+03  0.42427570812E+03  0.00000000000E+00 0. -1.
          6    1    1    2  501    0  0.15018211149E+03  0.54041034992E+02 -0.19522370783E+03  0.30580450646E+03  0.17300000000E+03 0. -1.
         -6    1    1    2    0  503 -0.15018211149E+03 -0.54041034992E+02 -0.94048793644E+02  0.25347440829E+03  0.17300000000E+03 0. -1.
<mgrwt>
<rscale>  2 0.23538076E+03</rscale>
<asrwt>0</asrwt>
<pdfrwt beam="1">  1       21 0.20769724E-01 0.23538076E+03</pdfrwt>
<pdfrwt beam="2">  1       21 0.65273185E-01 0.23538076E+03</pdfrwt>
<totfact> 0.45519668E+04</totfact>
</mgrwt>
</event>
<event>
 4    2  0.3964208E+000  0.2574837E+03  0.7546771E-02  0.1108665E+00
         21   -1    0    0  503  502  0.00000000000E+00  0.00000000000E+00  0.35118842852E+03  0.35118842852E+03  0.00000000000E+00 0. -1.
         21   -1    0    0  501  503 -0.00000000000E+00 -0.00000000000E+00 -0.20215943101E+03  0.20215943101E+03  0.00000000000E+00 0. -1.
          6    1    1    2  501    0 -0.17861617921E+03 -0.66821657982E+02  0.33413899162E+01  0.25750541419E+03  0.17300000000E+03 0. -1.
         -6    1    1    2    0  502  0.17861617921E+03  0.66821657982E+02  0.14568760760E+03  0.29584244533E+03  0.17300000000E+03 0. -1.
<mgrwt>
<rscale>  2 0.25748373E+03</rscale>
<asrwt>0</asrwt>
<pdfrwt beam="1">  1       21 0.54028989E-01 0.25748373E+03</pdfrwt>
<pdfrwt beam="2">  1       21 0.31101451E-01 0.25748373E+03</pdfrwt>
<totfact> 0.31162586E+04</totfact>
</mgrwt>
</event>
<event>
 4    2  0.3964208E+000  0.1891658E+03  0.7546771E-02  0.1159216E+00
         21   -1    0    0  503  502  0.00000000000E+00  0.00000000000E+00  0.13258418746E+04  0.13258418746E+04  0.00000000000E+00 0. -1.
         21   -1    0    0  501  503 -0.00000000000E+00 -0.00000000000E+00 -0.89293363137E+02  0.89293363137E+02  0.00000000000E+00 0. -1.
          6    1    1    2  501    0  0.73918574063E+02  0.19767192446E+02  0.27235252750E+02  0.19111634279E+03  0.17300000000E+03 0. -1.
         -6    1    1    2    0  502 -0.73918574063E+02 -0.19767192446E+02  0.12093132587E+04  0.12240188949E+04  0.17300000000E+03 0. -1.
<mgrwt>
<rscale>  2 0.18916579E+03</rscale>
<asrwt>0</asrwt>
<pdfrwt beam="1">  1       21 0.20397566E+00 0.18916579E+03</pdfrwt>
<pdfrwt beam="2">  1       21 0.13737441E-01 0.18916579E+03</pdfrwt>
<totfact> 0.58462726E+03</totfact>
</mgrwt>
</event>
<event>
 4    2  0.3964208E+000  0.1942472E+03  0.7546771E-02  0.1154685E+00
         21   -1    0    0  503  502  0.00000000000E+00  0.00000000000E+00  0.38441284589E+03  0.38441284589E+03  0.00000000000E+00 0.  1.
         21   -1    0    0  501  503 -0.00000000000E+00 -0.00000000000E+00 -0.10347424866E+03  0.10347424866E+03  0.00000000000E+00 0. -1.
          6    1    1    2  501    0 -0.16142225923E+02  0.86846959764E+02  0.85158934360E+02  0.21209434217E+03  0.17300000000E+03 0. -1.
         -6    1    1    2    0  502  0.16142225923E+02 -0.86846959764E+02  0.19577966287E+03  0.27579275239E+03  0.17300000000E+03 0. -1.
<mgrwt>
<rscale>  2 0.19424718E+03</rscale>
<asrwt>0</asrwt>
<pdfrwt beam="1">  1       21 0.59140437E-01 0.19424718E+03</pdfrwt>
<pdfrwt beam="2">  1       21 0.15919115E-01 0.19424718E+03</pdfrwt>
<totfact> 0.94001837E+04</totfact>
</mgrwt>
</event>
<event>
 4    2  0.3964208E+000  0.2325666E+03  0.7546771E-02  0.1124846E+00
         21   -1    0    0  503  502  0.00000000000E+00  0.00000000000E+00  0.46364213253E+02  0.46364213253E+02  0.00000000000E+00 0. -1.
         21   -1    0    0  501  503 -0.00000000000E+00 -0.00000000000E+00 -0.15585327652E+04  0.15585327652E+04  0.00000000000E+00 0.  1.
          6    1    1    2  501    0  0.14024089385E+03  0.67012943581E+02 -0.11585045913E+04  0.11816175909E+04  0.17300000000E+03 0.  1.
         -6    1    1    2    0  502 -0.14024089385E+03 -0.67012943581E+02 -0.35366396061E+03  0.42327938758E+03  0.17300000000E+03 0. -1.
<mgrwt>
<rscale>  2 0.23256664E+03</rscale>
<asrwt>0</asrwt>
<pdfrwt beam="1">  1       21 0.71329555E-02 0.23256664E+03</pdfrwt>
<pdfrwt beam="2">  1       21 0.23977429E+00 0.23256664E+03</pdfrwt>
<totfact> 0.10812678E+04</totfact>
</mgrwt>
</event>
<event>
 4    2  0.3964208E+000  0.1770592E+03  0.7546771E-02  0.1170680E+00
         21   -1    0    0  501  502  0.00000000000E+00  0.00000000000E+00  0.13965189036E+03  0.13965189036E+03  0.00000000000E+00 0.  1.
         21   -1    0    0  502  503 -0.00000000000E+00 -0.00000000000E+00 -0.28465544050E+03  0.28465544050E+03  0.00000000000E+00 0.  1.
          6    1    1    2  501    0  0.97251524979E+01 -0.36419571103E+02  0.25036930098E+02  0.17882061296E+03  0.17300000000E+03 0.  1.
         -6    1    1    2    0  503 -0.97251524979E+01  0.36419571103E+02 -0.17004048024E+03  0.24548671791E+03  0.17300000000E+03 0.  1.
<mgrwt>
<rscale>  2 0.17705921E+03</rscale>
<asrwt>0</asrwt>
<pdfrwt beam="1">  1       21 0.21484907E-01 0.17705921E+03</pdfrwt>
<pdfrwt beam="2">  1       21 0.43793144E-01 0.17705921E+03</pdfrwt>
<totfact> 0.10171995E+05</totfact>
</mgrwt>
</event>
<event>
 4    2  0.3964208E+000  0.1745520E+03  0.7546771E-02  0.1173182E+00
         21   -1    0    0  501  502  0.00000000000E+00  0.00000000000E+00  0.75466081292E+03  0.75466081292E+03  0.00000000000E+00 0.  1.
         21   -1    0    0  502  503 -0.00000000000E+00 -0.00000000000E+00 -0.59358071665E+02  0.59358071665E+02  0.00000000000E+00 0.  1.
          6    1    1    2  501    0 -0.11356363069E+02 -0.20258829840E+02  0.57782928344E+03  0.60361831315E+03  0.17300000000E+03 0.  1.
         -6    1    1    2    0  503  0.11356363069E+02  0.20258829840E+02  0.11747345781E+03  0.21040057143E+03  0.17300000000E+03 0.  1.
<mgrwt>
<rscale>  2 0.17455196E+03</rscale>
<asrwt>0</asrwt>
<pdfrwt beam="1">  1       21 0.11610166E+00 0.17455196E+03</pdfrwt>
<pdfrwt beam="2">  1       21 0.91320116E-02 0.17455196E+03</pdfrwt>
<totfact> 0.55043332E+04</totfact>
</mgrwt>
</event>
<event>
 4    2  0.3964208E+000  0.2133216E+03  0.7546771E-02  0.1138962E+00
         21   -1    0    0  501  502  0.00000000000E+00  0.00000000000E+00  0.23083210026E+03  0.23083210026E+03  0.00000000000E+00 0.  1.
         21   -1    0    0  502  503 -0.00000000000E+00 -0.00000000000E+00 -0.19715100338E+03  0.19715100338E+03  0.00000000000E+00 0.  1.
          6    1    1    2  501    0  0.12031940437E+03 -0.33171205839E+02  0.18486450333E+02  0.21412107979E+03  0.17300000000E+03 0.  1.
         -6    1    1    2    0  503 -0.12031940437E+03  0.33171205839E+02  0.15194646541E+02  0.21386202386E+03  0.17300000000E+03 0.  1.
<mgrwt>
<rscale>  2 0.21332156E+03</rscale>
<asrwt>0</asrwt>
<pdfrwt beam="1">  1       21 0.35512631E-01 0.21332156E+03</pdfrwt>
<pdfrwt beam="2">  1       21 0.30330924E-01 0.21332156E+03</pdfrwt>
<totfact> 0.79048560E+04</totfact>
</mgrwt>
</event>
<event>
 4    2  0.3964208E+000  0.2481078E+03  0.7546771E-02  0.1114506E+00
         21   -1    0    0  501  502  0.00000000000E+00  0.00000000000E+00  0.77644419592E+03  0.77644419592E+03  0.00000000000E+00 0. -1.
         21   -1    0    0  502  503 -0.00000000000E+00 -0.00000000000E+00 -0.84424551429E+02  0.84424551429E+02  0.00000000000E+00 0.  1.
          6    1    1    2  501    0  0.11760320975E+03 -0.13340910691E+03  0.45225065568E+03  0.51583733901E+03  0.17300000000E+03 0. -1.
         -6    1    1    2    0  503 -0.11760320975E+03  0.13340910691E+03  0.23976898882E+03  0.34503140835E+03  0.17300000000E+03 0.  1.
<mgrwt>
<rscale>  2 0.24810785E+03</rscale>
<asrwt>0</asrwt>
<pdfrwt beam="1">  1       21 0.11945295E+00 0.24810785E+03</pdfrwt>
<pdfrwt beam="2">  1       21 0.12988393E-01 0.24810785E+03</pdfrwt>
<totfact> 0.26373633E+04</totfact>
</mgrwt>
</event>
<event>
 4    2  0.3964208E+000  0.2064143E+03  0.7546771E-02  0.1144437E+00
         21   -1    0    0  501  502  0.00000000000E+00  0.00000000000E+00  0.19945032260E+04  0.19945032260E+04  0.00000000000E+00 0.  1.
         21   -1    0    0  502  503 -0.00000000000E+00 -0.00000000000E+00 -0.26644103620E+02  0.26644103620E+02  0.00000000000E+00 0.  1.
          6    1    1    2  501    0 -0.10734873509E+03 -0.33972318767E+02  0.14338801975E+04  0.14486612061E+04  0.17300000000E+03 0.  1.
         -6    1    1    2    0  503  0.10734873509E+03  0.33972318767E+02  0.53397892485E+03  0.57248612346E+03  0.17300000000E+03 0.  1.
<mgrwt>
<rscale>  2 0.20641431E+03</rscale>
<asrwt>0</asrwt>
<pdfrwt beam="1">  1       21 0.30684653E+00 0.20641431E+03</pdfrwt>
<pdfrwt beam="2">  1       21 0.40990944E-02 0.20641431E+03</pdfrwt>
<totfact> 0.11556285E+04</totfact>
</mgrwt>
</event>
<event>
 4    2  0.3964208E+000  0.2091312E+03  0.7546771E-02  0.1142256E+00
         21   -1    0    0  501  502  0.00000000000E+00  0.00000000000E+00  0.93726565791E+02  0.93726565791E+02  0.00000000000E+00 0.  1.
         21   -1    0    0  502  503 -0.00000000000E+00 -0.00000000000E+00 -0.63429097201E+03  0.63429097201E+03  0.00000000000E+00 0.  1.
          6    1    1    2  501    0 -0.11704593746E+03  0.10349118118E+02 -0.83136260671E+02  0.22504998014E+03  0.17300000000E+03 0.  1.
         -6    1    1    2    0  503  0.11704593746E+03 -0.10349118118E+02 -0.45742814555E+03  0.50296755767E+03  0.17300000000E+03 0.  1.
<mgrwt>
<rscale>  2 0.20913119E+03</rscale>
<asrwt>0</asrwt>
<pdfrwt beam="1">  1       21 0.14419472E-01 0.20913119E+03</pdfrwt>
<pdfrwt beam="2">  1       21 0.97583225E-01 0.20913119E+03</pdfrwt>
<totfact> 0.36331820E+04</totfact>
</mgrwt>
</event>
<event>
 4    2  0.3964208E+000  0.1870600E+03  0.7546771E-02  0.1161140E+00
         21   -1    0    0  503  502  0.00000000000E+00  0.00000000000E+00  0.36723892904E+03  0.36723892904E+03  0.00000000000E+00 0.  1.
         21   -1    0    0  501  503 -0.00000000000E+00 -0.00000000000E+00 -0.10205527898E+03  0.10205527898E+03  0.00000000000E+00 0.  1.
          6    1    1    2  501    0  0.38508295710E+02  0.59829523668E+02  0.72144179896E+02  0.20049000831E+03  0.17300000000E+03 0. -1.
         -6    1    1    2    0  502 -0.38508295710E+02 -0.59829523668E+02  0.19303947016E+03  0.26880419971E+03  0.17300000000E+03 0. -1.
<mgrwt>
<rscale>  2 0.18706005E+03</rscale>
<asrwt>0</asrwt>
<pdfrwt beam="1">  1       21 0.56498296E-01 0.18706005E+03</pdfrwt>
<pdfrwt beam="2">  1       21 0.15700812E-01 0.18706005E+03</pdfrwt>
<totfact> 0.10656653E+05</totfact>
</mgrwt>
</event>
<event>
 4    2  0.3964208E+000  0.1785473E+03  0.7546771E-02  0.1169216E+00
         21   -1    0    0  503  502  0.00000000000E+00  0.00000000000E+00  0.82523579854E+02  0.82523579854E+02  0.00000000000E+00 0. -1.
         21   -1    0    0  501  503 -0.00000000000E+00 -0.00000000000E+00 -0.40899045094E+03  0.40899045094E+03  0.00000000000E+00 0. -1.
          6    1    1    2  501    0 -0.22262251370E+02  0.38138199959E+02 -0.10535197957E+03  0.20731176940E+03  0.17300000000E+03 0. -1.
         -6    1    1    2    0  502  0.22262251370E+02 -0.38138199959E+02 -0.22111489152E+03  0.28420226140E+03  0.17300000000E+03 0. -1.
<mgrwt>
<rscale>  2 0.17854728E+03</rscale>
<asrwt>0</asrwt>
<pdfrwt beam="1">  1       21 0.12695935E-01 0.17854728E+03</pdfrwt>
<pdfrwt beam="2">  1       21 0.62921608E-01 0.17854728E+03</pdfrwt>
<totfact> 0.12467609E+05</totfact>
</mgrwt>
</event>
<event>
 4    2  0.3964208E+000  0.2040996E+03  0.7546771E-02  0.1146326E+00
         21   -1    0    0  503  502  0.00000000000E+00  0.00000000000E+00  0.33208282258E+03  0.33208282258E+03  0.00000000000E+00 0. -1.
         21   -1    0    0  501  503 -0.00000000000E+00 -0.00000000000E+00 -0.30040040302E+03  0.30040040302E+03  0.00000000000E+00 0. -1.
          6    1    1    2  501    0 -0.10215167075E+03  0.35954106404E+02 -0.22550357972E+03  0.30415214296E+03  0.17300000000E+03 0. -1.
         -6    1    1    2    0  502  0.10215167075E+03 -0.35954106404E+02  0.25718599928E+03  0.32833108264E+03  0.17300000000E+03 0. -1.
<mgrwt>
<rscale>  2 0.20409964E+03</rscale>
<asrwt>0</asrwt>
<pdfrwt beam="1">  1       21 0.51089665E-01 0.20409964E+03</pdfrwt>
<pdfrwt beam="2">  1       21 0.46215447E-01 0.20409964E+03</pdfrwt>
<totfact> 0.16223488E+04</totfact>
</mgrwt>
</event>
<event>
 4    2  0.3964208E+000  0.2201284E+03  0.7546771E-02  0.1133787E+00
         21   -1    0    0  503  502  0.00000000000E+00  0.00000000000E+00  0.19649121560E+04  0.19649121560E+04  0.00000000000E+00 0. -1.
         21   -1    0    0  501  503 -0.00000000000E+00 -0.00000000000E+00 -0.24883617563E+02  0.24883617563E+02  0.00000000000E+00 0. -1.
          6    1    1    2  501    0 -0.12317217477E+03  0.57932112382E+02  0.87589187170E+03  0.90312960598E+03  0.17300000000E+03 0. -1.
         -6    1    1    2    0  502  0.12317217477E+03 -0.57932112382E+02  0.10641366667E+04  0.10866661676E+04  0.17300000000E+03 0. -1.
<mgrwt>
<rscale>  2 0.22012840E+03</rscale>
<asrwt>0</asrwt>
<pdfrwt beam="1">  1       21 0.30229406E+00 0.22012840E+03</pdfrwt>
<pdfrwt beam="2">  1       21 0.38282504E-02 0.22012840E+03</pdfrwt>
<totfact> 0.13589228E+04</totfact>
</mgrwt>
</event>
<event>
 4    2  0.3964208E+000  0.2339570E+03  0.7546771E-02  0.1123885E+00
         21   -1    0    0  503  502  0.00000000000E+00  0.00000000000E+00  0.85067219832E+03  0.85067219832E+03  0.00000000000E+00 0.  1.
         21   -1    0    0  501  503 -0.00000000000E+00 -0.00000000000E+00 -0.64602375913E+02  0.64602375913E+02  0.00000000000E+00 0.  1.
          6    1    1    2  501    0 -0.15319738690E+03 -0.36571200369E+02  0.42196073995E+03  0.48247980072E+03  0.17300000000E+03 0.  1.
         -6    1    1    2    0  502  0.15319738690E+03  0.36571200369E+02  0.36410908246E+03  0.43279477351E+03  0.17300000000E+03 0.  1.
<mgrwt>
<rscale>  2 0.23395703E+03</rscale>
<asrwt>0</asrwt>
<pdfrwt beam="1">  1       21 0.13087264E+00 0.23395703E+03</pdfrwt>
<pdfrwt beam="2">  1       21 0.99388277E-02 0.23395703E+03</pdfrwt>
<totfact> 0.34073971E+04</totfact>
</mgrwt>
</event>
<event>
 4    2  0.3964208E+000  0.2434249E+03  0.7546771E-02  0.1117532E+00
         21   -1    0    0  503  502  0.00000000000E+00  0.00000000000E+00  0.13837648098E+04  0.13837648098E+04  0.00000000000E+00 0.  1.
         21   -1    0    0  501  503 -0.00000000000E+00 -0.00000000000E+00 -0.50201932543E+02  0.50201932543E+02  0.00000000000E+00 0.  1.
          6    1    1    2  501    0 -0.10948298061E+03 -0.13168209087E+03  0.94168003492E+03  0.97263404437E+03  0.17300000000E+03 0.  1.
         -6    1    1    2    0  502  0.10948298061E+03  0.13168209087E+03  0.39188284232E+03  0.46133269795E+03  0.17300000000E+03 0.  1.
<mgrwt>
<rscale>  2 0.24342493E+03</rscale>
<asrwt>0</asrwt>
<pdfrwt beam="1">  1       21 0.21288686E+00 0.24342493E+03</pdfrwt>
<pdfrwt beam="2">  1       21 0.77233753E-02 0.24342493E+03</pdfrwt>
<totfact> 0.13664594E+04</totfact>
</mgrwt>
</event>
<event>
 4    2  0.3964208E+000  0.1905686E+03  0.7546771E-02  0.1157949E+00
         21   -1    0    0  501  502  0.00000000000E+00  0.00000000000E+00  0.26952000606E+03  0.26952000606E+03  0.00000000000E+00 0.  1.
         21   -1    0    0  502  503 -0.00000000000E+00 -0.00000000000E+00 -0.13492553934E+03  0.13492553934E+03  0.00000000000E+00 0.  1.
          6    1    1    2  501    0 -0.53231994909E+02 -0.59613299743E+02  0.59893744288E+02  0.19975898326E+03  0.17300000000E+03 0.  1.
         -6    1    1    2    0  503  0.53231994909E+02  0.59613299743E+02  0.74700722438E+02  0.20468656214E+03  0.17300000000E+03 0.  1.
<mgrwt>
<rscale>  2 0.19056860E+03</rscale>
<asrwt>0</asrwt>
<pdfrwt beam="1">  1       21 0.41464616E-01 0.19056860E+03</pdfrwt>
<pdfrwt beam="2">  1       21 0.20757775E-01 0.19056860E+03</pdfrwt>
<totfact> 0.12067617E+05</totfact>
</mgrwt>
</event>
<event>
 4    2  0.3964208E+000  0.3208941E+03  0.7546771E-02  0.1075239E+00
         21   -1    0    0  503  502  0.00000000000E+00  0.00000000000E+00  0.15190849819E+04  0.15190849819E+04  0.00000000000E+00 0. -1.
         21   -1    0    0  501  503 -0.00000000000E+00 -0.00000000000E+00 -0.12744956126E+03  0.12744956126E+03  0.00000000000E+00 0.  1.
          6    1    1    2  501    0  0.23502931464E+03  0.13343630630E+03  0.13253623462E+03  0.34718709663E+03  0.17300000000E+03 0.  1.
         -6    1    1    2    0  502 -0.23502931464E+03 -0.13343630630E+03  0.12590991860E+04  0.12993474465E+04  0.17300000000E+03 0. -1.
<mgrwt>
<rscale>  2 0.32089410E+03</rscale>
<asrwt>0</asrwt>
<pdfrwt beam="1">  1       21 0.23370537E+00 0.32089410E+03</pdfrwt>
<pdfrwt beam="2">  1       21 0.19607626E-01 0.32089410E+03</pdfrwt>
<totfact> 0.17814667E+03</totfact>
</mgrwt>
</event>
<event>
 4    2  0.3964208E+000  0.3064454E+03  0.7546771E-02  0.1082062E+00
         21   -1    0    0  501  502  0.00000000000E+00  0.00000000000E+00  0.10603860605E+04  0.10603860605E+04  0.00000000000E+00 0. -1.
         21   -1    0    0  502  503 -0.00000000000E+00 -0.00000000000E+00 -0.89588348389E+02  0.89588348389E+02  0.00000000000E+00 0.  1.
          6    1    1    2  501    0 -0.15067997105E+02 -0.25249301270E+03  0.42382334704E+03  0.52300573180E+03  0.17300000000E+03 0.  1.
         -6    1    1    2    0  503  0.15067997105E+02  0.25249301270E+03  0.54697436505E+03  0.62696867706E+03  0.17300000000E+03 0. -1.
<mgrwt>
<rscale>  2 0.30644537E+03</rscale>
<asrwt>0</asrwt>
<pdfrwt beam="1">  1       21 0.16313631E+00 0.30644537E+03</pdfrwt>
<pdfrwt beam="2">  1       21 0.13782824E-01 0.30644537E+03</pdfrwt>
<totfact> 0.10175909E+04</totfact>
</mgrwt>
</event>
<event>
 4    2  0.3964208E+000  0.1988712E+03  0.7546771E-02  0.1150695E+00
         21   -1    0    0  501  502  0.00000000000E+00  0.00000000000E+00  0.50809978610E+03  0.50809978610E+03  0.00000000000E+00 0. -1.
         21   -1    0    0  502  503 -0.00000000000E+00 -0.00000000000E+00 -0.92651418805E+02  0.92651418805E+02  0.00000000000E+00 0.  1.
          6    1    1    2  501    0  0.66417488938E+02  0.72176597278E+02  0.32782843918E+03  0.38343347476E+03  0.17300000000E+03 0. -1.
         -6    1    1    2    0  503 -0.66417488938E+02 -0.72176597278E+02  0.87619928110E+02  0.21731773014E+03  0.17300000000E+03 0. -1.
<mgrwt>
<rscale>  2 0.19887117E+03</rscale>
<asrwt>0</asrwt>
<pdfrwt beam="1">  1       21 0.78169196E-01 0.19887117E+03</pdfrwt>
<pdfrwt beam="2">  1       21 0.14254065E-01 0.19887117E+03</pdfrwt>
<totfact> 0.62182375E+04</totfact>
</mgrwt>
</event>
<event>
 4    2  0.3964208E+000  0.1767543E+03  0.7546771E-02  0.1170982E+00
         21   -1    0    0  503  502  0.00000000000E+00  0.00000000000E+00  0.47152704392E+02  0.47152704392E+02  0.00000000000E+00 0. -1.
         21   -1    0    0  501  503 -0.00000000000E+00 -0.00000000000E+00 -0.11168067267E+04  0.11168067267E+04  0.00000000000E+00 0. -1.
          6    1    1    2  501    0 -0.35949945805E+02  0.45485038668E+01 -0.90598493961E+03  0.92306597721E+03  0.17300000000E+03 0. -1.
         -6    1    1    2    0  502  0.35949945805E+02 -0.45485038668E+01 -0.16366908270E+03  0.24089345388E+03  0.17300000000E+03 0. -1.
<mgrwt>
<rscale>  2 0.17675431E+03</rscale>
<asrwt>0</asrwt>
<pdfrwt beam="1">  1       21 0.72542620E-02 0.17675431E+03</pdfrwt>
<pdfrwt beam="2">  1       21 0.17181642E+00 0.17675431E+03</pdfrwt>
<totfact> 0.29785501E+04</totfact>
</mgrwt>
</event>
<event>
 4    2  0.3964208E+000  0.1811202E+03  0.7546771E-02  0.1166723E+00
         21   -1    0    0  501  502  0.00000000000E+00  0.00000000000E+00  0.23613102182E+03  0.23613102182E+03  0.00000000000E+00 0.  1.
         21   -1    0    0  502  503 -0.00000000000E+00 -0.00000000000E+00 -0.19236605093E+03  0.19236605093E+03  0.00000000000E+00 0.  1.
          6    1    1    2  501    0  0.53528470580E+02 -0.31967264781E+01  0.13480769440E+03  0.22578226390E+03  0.17300000000E+03 0.  1.
         -6    1    1    2    0  503 -0.53528470580E+02  0.31967264781E+01 -0.91042723514E+02  0.20271480885E+03  0.17300000000E+03 0.  1.
<mgrwt>
<rscale>  2 0.18112017E+03</rscale>
<asrwt>0</asrwt>
<pdfrwt beam="1">  1       21 0.36327850E-01 0.18112017E+03</pdfrwt>
<pdfrwt beam="2">  1       21 0.29594777E-01 0.18112017E+03</pdfrwt>
<totfact> 0.80333752E+04</totfact>
</mgrwt>
</event>
<event>
 4    2  0.3964208E+000  0.3148344E+03  0.7546771E-02  0.1078052E+00
         21   -1    0    0  503  502  0.00000000000E+00  0.00000000000E+00  0.44348028392E+03  0.44348028392E+03  0.00000000000E+00 0.  1.
         21   -1    0    0  501  503 -0.00000000000E+00 -0.00000000000E+00 -0.23448257917E+03  0.23448257917E+03  0.00000000000E+00 0. -1.
          6    1    1    2  501    0 -0.17421496195E+03 -0.19708083434E+03  0.17783954882E+03  0.36159039445E+03  0.17300000000E+03 0.  1.
         -6    1    1    2    0  502  0.17421496195E+03  0.19708083434E+03  0.31158155937E+02  0.31637246864E+03  0.17300000000E+03 0.  1.
<mgrwt>
<rscale>  2 0.31483441E+03</rscale>
<asrwt>0</asrwt>
<pdfrwt beam="1">  1       21 0.68227736E-01 0.31483441E+03</pdfrwt>
<pdfrwt beam="2">  1       21 0.36074243E-01 0.31483441E+03</pdfrwt>
<totfact> 0.13635621E+04</totfact>
</mgrwt>
</event>
<event>
 4    2  0.3964208E+000  0.1800970E+03  0.7546771E-02  0.1167709E+00
         21   -1    0    0  501  502  0.00000000000E+00  0.00000000000E+00  0.21993434593E+03  0.21993434593E+03  0.00000000000E+00 0.  1.
         21   -1    0    0  502  503 -0.00000000000E+00 -0.00000000000E+00 -0.30402862035E+03  0.30402862035E+03  0.00000000000E+00 0.  1.
          6    1    1    2  501    0  0.28947957778E+02 -0.40840273069E+02  0.14594700788E+03  0.23180906210E+03  0.17300000000E+03 0.  1.
         -6    1    1    2    0  503 -0.28947957778E+02  0.40840273069E+02 -0.23004128230E+03  0.29215390418E+03  0.17300000000E+03 0.  1.
<mgrwt>
<rscale>  2 0.18009695E+03</rscale>
<asrwt>0</asrwt>
<pdfrwt beam="1">  1       21 0.33836053E-01 0.18009695E+03</pdfrwt>
<pdfrwt beam="2">  1       21 0.46773634E-01 0.18009695E+03</pdfrwt>
<totfact> 0.37059999E+04</totfact>
</mgrwt>
</event>
<event>
 4    2  0.3964208E+000  0.1865033E+03  0.7546771E-02  0.1161653E+00
         21   -1    0    0  501  502  0.00000000000E+00  0.00000000000E+00  0.47993200169E+03  0.47993200169E+03  0.00000000000E+00 0. -1.
         21   -1    0    0  502  503 -0.00000000000E+00 -0.00000000000E+00 -0.14447403352E+03  0.14447403352E+03  0.00000000000E+00 0.  1.
          6    1    1    2  501    0  0.61183085247E+02  0.33333602917E+02  0.38812454673E+03  0.43060906026E+03  0.17300000000E+03 0. -1.
         -6    1    1    2    0  503 -0.61183085247E+02 -0.33333602917E+02 -0.52666578555E+02  0.19379697495E+03  0.17300000000E+03 0.  1.
<mgrwt>
<rscale>  2 0.18650335E+03</rscale>
<asrwt>0</asrwt>
<pdfrwt beam="1">  1       21 0.73835692E-01 0.18650335E+03</pdfrwt>
<pdfrwt beam="2">  1       21 0.22226775E-01 0.18650335E+03</pdfrwt>
<totfact> 0.31274670E+04</totfact>
</mgrwt>
</event>
<event>
 4    2  0.3964208E+000  0.2065409E+03  0.7546771E-02  0.1144335E+00
         21   -1    0    0  503  502  0.00000000000E+00  0.00000000000E+00  0.19368076561E+03  0.19368076561E+03  0.00000000000E+00 0. -1.
         21   -1    0    0  501  503 -0.00000000000E+00 -0.00000000000E+00 -0.22409725677E+03  0.22409725677E+03  0.00000000000E+00 0.  1.
          6    1    1    2  501    0 -0.10897269545E+03  0.29242134032E+02 -0.42560450825E+02  0.21088039912E+03  0.17300000000E+03 0.  1.
         -6    1    1    2    0  502  0.10897269545E+03 -0.29242134032E+02  0.12143959657E+02  0.20689762327E+03  0.17300000000E+03 0. -1.
<mgrwt>
<rscale>  2 0.20654092E+03</rscale>
<asrwt>0</asrwt>
<pdfrwt beam="1">  1       21 0.29797041E-01 0.20654092E+03</pdfrwt>
<pdfrwt beam="2">  1       21 0.34476501E-01 0.20654092E+03</pdfrwt>
<totfact> 0.87045129E+04</totfact>
</mgrwt>
</event>
<event>
 4    2  0.3964208E+000  0.2216907E+03  0.7546771E-02  0.1132629E+00
         21   -1    0    0  503  502  0.00000000000E+00  0.00000000000E+00  0.48125131806E+02  0.48125131806E+02  0.00000000000E+00 0.  1.
         21   -1    0    0  501  503 -0.00000000000E+00 -0.00000000000E+00 -0.10225917689E+04  0.10225917689E+04  0.00000000000E+00 0.  1.
          6    1    1    2  501    0 -0.73181285928E+02 -0.11773813029E+03 -0.50677875318E+03  0.55314688158E+03  0.17300000000E+03 0.  1.
         -6    1    1    2    0  502  0.73181285928E+02  0.11773813029E+03 -0.46768788393E+03  0.51757001914E+03  0.17300000000E+03 0.  1.
<mgrwt>
<rscale>  2 0.22169070E+03</rscale>
<asrwt>0</asrwt>
<pdfrwt beam="1">  1       21 0.74038666E-02 0.22169070E+03</pdfrwt>
<pdfrwt beam="2">  1       21 0.15732181E+00 0.22169070E+03</pdfrwt>
<totfact> 0.35534828E+04</totfact>
</mgrwt>
</event>
<event>
 4    2  0.3964208E+000  0.1804081E+03  0.7546771E-02  0.1167409E+00
         21   -1    0    0  503  502  0.00000000000E+00  0.00000000000E+00  0.26001861883E+03  0.26001861883E+03  0.00000000000E+00 0.  1.
         21   -1    0    0  501  503 -0.00000000000E+00 -0.00000000000E+00 -0.14227096987E+03  0.14227096987E+03  0.00000000000E+00 0.  1.
          6    1    1    2  501    0  0.50955639001E+02 -0.46474650069E+01 -0.10858537906E+02  0.18073456759E+03  0.17300000000E+03 0.  1.
         -6    1    1    2    0  502 -0.50955639001E+02  0.46474650069E+01  0.12860618686E+03  0.22155502110E+03  0.17300000000E+03 0.  1.
<mgrwt>
<rscale>  2 0.18040808E+03</rscale>
<asrwt>0</asrwt>
<pdfrwt beam="1">  1       21 0.40002864E-01 0.18040808E+03</pdfrwt>
<pdfrwt beam="2">  1       21 0.21887842E-01 0.18040808E+03</pdfrwt>
<totfact> 0.11789097E+05</totfact>
</mgrwt>
</event>
<event>
 4    2  0.3964208E+000  0.2225703E+03  0.7546771E-02  0.1131981E+00
         21   -1    0    0  501  502  0.00000000000E+00  0.00000000000E+00  0.11167800525E+04  0.11167800525E+04  0.00000000000E+00 0.  1.
         21   -1    0    0  502  503 -0.00000000000E+00 -0.00000000000E+00 -0.44853228606E+02  0.44853228606E+02  0.00000000000E+00 0.  1.
          6    1    1    2  501    0  0.68687440832E+02  0.12202692182E+03  0.59702649095E+03  0.63716415866E+03  0.17300000000E+03 0.  1.
         -6    1    1    2    0  503 -0.68687440832E+02 -0.12202692182E+03  0.47490033295E+03  0.52446912246E+03  0.17300000000E+03 0.  1.
<mgrwt>
<rscale>  2 0.22257029E+03</rscale>
<asrwt>0</asrwt>
<pdfrwt beam="1">  1       21 0.17181230E+00 0.22257029E+03</pdfrwt>
<pdfrwt beam="2">  1       21 0.69004975E-02 0.22257029E+03</pdfrwt>
<totfact> 0.31530099E+04</totfact>
</mgrwt>
</event>
<event>
 4    2  0.3964208E+000  0.2515580E+03  0.7546771E-02  0.1112324E+00
         21   -1    0    0  501  502  0.00000000000E+00  0.00000000000E+00  0.74578937702E+02  0.74578937702E+02  0.00000000000E+00 0.  1.
         21   -1    0    0  502  503 -0.00000000000E+00 -0.00000000000E+00 -0.84961753861E+03  0.84961753861E+03  0.00000000000E+00 0. -1.
          6    1    1    2  501    0 -0.17738525037E+03 -0.43438712334E+02 -0.37088320565E+03  0.44814707520E+03  0.17300000000E+03 0. -1.
         -6    1    1    2    0  503  0.17738525037E+03  0.43438712334E+02 -0.40415539525E+03  0.47604940111E+03  0.17300000000E+03 0. -1.
<mgrwt>
<rscale>  2 0.25155804E+03</rscale>
<asrwt>0</asrwt>
<pdfrwt beam="1">  1       21 0.11473683E-01 0.25155804E+03</pdfrwt>
<pdfrwt beam="2">  1       21 0.13071039E+00 0.25155804E+03</pdfrwt>
<totfact> 0.26227085E+04</totfact>
</mgrwt>
</event>
<event>
 4    2  0.3964208E+000  0.2139199E+03  0.7546771E-02  0.1138499E+00
         21   -1    0    0  503  502  0.00000000000E+00  0.00000000000E+00  0.74602239596E+02  0.74602239596E+02  0.00000000000E+00 0. -1.
         21   -1    0    0  501  503 -0.00000000000E+00 -0.00000000000E+00 -0.61389736223E+03  0.61389736223E+03  0.00000000000E+00 0. -1.
          6    1    1    2  501    0  0.77428749559E+02 -0.99184230253E+02 -0.27935204929E+03  0.35185123310E+03  0.17300000000E+03 0. -1.
         -6    1    1    2    0  502 -0.77428749559E+02  0.99184230253E+02 -0.25994307334E+03  0.33664836873E+03  0.17300000000E+03 0. -1.
<mgrwt>
<rscale>  2 0.21391990E+03</rscale>
<asrwt>0</asrwt>
<pdfrwt beam="1">  1       21 0.11477268E-01 0.21391990E+03</pdfrwt>
<pdfrwt beam="2">  1       21 0.94445747E-01 0.21391990E+03</pdfrwt>
<totfact> 0.59064630E+04</totfact>
</mgrwt>
</event>
<event>
 4    2  0.3964208E+000  0.1964415E+03  0.7546771E-02  0.1152776E+00
         21   -1    0    0  503  502  0.00000000000E+00  0.00000000000E+00  0.10797569695E+03  0.10797569695E+03  0.00000000000E+00 0. -1.
         21   -1    0    0  501  503 -0.00000000000E+00 -0.00000000000E+00 -0.35738865565E+03  0.35738865565E+03  0.00000000000E+00 0.  1.
          6    1    1    2  501    0 -0.10541853103E+02 -0.92461601782E+02 -0.12482903145E+03  0.23274785834E+03  0.17300000000E+03 0. -1.
         -6    1    1    2    0  502  0.10541853103E+02  0.92461601782E+02 -0.12458392725E+03  0.23261649426E+03  0.17300000000E+03 0.  1.
<mgrwt>
<rscale>  2 0.19644154E+03</rscale>
<asrwt>0</asrwt>
<pdfrwt beam="1">  1       21 0.16611646E-01 0.19644154E+03</pdfrwt>
<pdfrwt beam="2">  1       21 0.54982869E-01 0.19644154E+03</pdfrwt>
<totfact> 0.10144537E+05</totfact>
</mgrwt>
</event>
<event>
 4    2  0.3964208E+000  0.1741862E+03  0.7546771E-02  0.1173551E+00
         21   -1    0    0  503  502  0.00000000000E+00  0.00000000000E+00  0.27689871919E+03  0.27689871919E+03  0.00000000000E+00 0. -1.
         21   -1    0    0  501  503 -0.00000000000E+00 -0.00000000000E+00 -0.16393826281E+03  0.16393826281E+03  0.00000000000E+00 0. -1.
          6    1    1    2  501    0  0.18406814249E+02 -0.85453851699E+01 -0.70450146445E+02  0.18789374006E+03  0.17300000000E+03 0. -1.
         -6    1    1    2    0  502 -0.18406814249E+02  0.85453851699E+01  0.18341060283E+03  0.25294324195E+03  0.17300000000E+03 0. -1.
<mgrwt>
<rscale>  2 0.17418621E+03</rscale>
<asrwt>0</asrwt>
<pdfrwt beam="1">  1       21 0.42599803E-01 0.17418621E+03</pdfrwt>
<pdfrwt beam="2">  1       21 0.25221271E-01 0.17418621E+03</pdfrwt>
<totfact> 0.79555674E+04</totfact>
</mgrwt>
</event>
<event>
 4    2  0.3964208E+000  0.1806441E+03  0.7546771E-02  0.1167181E+00
         21   -1    0    0  501  502  0.00000000000E+00  0.00000000000E+00  0.73558079101E+03  0.73558079101E+03  0.00000000000E+00 0.  1.
         21   -1    0    0  502  503 -0.00000000000E+00 -0.00000000000E+00 -0.74625758982E+02  0.74625758982E+02  0.00000000000E+00 0. -1.
          6    1    1    2  501    0 -0.37706218052E+01 -0.51856322463E+02  0.58845292779E+03  0.61555596333E+03  0.17300000000E+03 0.  1.
         -6    1    1    2    0  503  0.37706218052E+01  0.51856322463E+02  0.72502104236E+02  0.19465058666E+03  0.17300000000E+03 0. -1.
<mgrwt>
<rscale>  2 0.18064411E+03</rscale>
<asrwt>0</asrwt>
<pdfrwt beam="1">  1       21 0.11316627E+00 0.18064411E+03</pdfrwt>
<pdfrwt beam="2">  1       21 0.11480887E-01 0.18064411E+03</pdfrwt>
<totfact> 0.38970322E+04</totfact>
</mgrwt>
</event>
<event>
 4    2  0.3964208E+000  0.1756473E+03  0.7546771E-02  0.1172083E+00
         21   -1    0    0  503  502  0.00000000000E+00  0.00000000000E+00  0.95214184067E+03  0.95214184067E+03  0.00000000000E+00 0. -1.
         21   -1    0    0  501  503 -0.00000000000E+00 -0.00000000000E+00 -0.48890774342E+02  0.48890774342E+02  0.00000000000E+00 0. -1.
          6    1    1    2  501    0 -0.14198740468E+02 -0.26858423291E+02  0.16096265697E+03  0.23824557933E+03  0.17300000000E+03 0. -1.
         -6    1    1    2    0  502  0.14198740468E+02  0.26858423291E+02  0.74228840936E+03  0.76278703568E+03  0.17300000000E+03 0. -1.
<mgrwt>
<rscale>  2 0.17564731E+03</rscale>
<asrwt>0</asrwt>
<pdfrwt beam="1">  1       21 0.14648335E+00 0.17564731E+03</pdfrwt>
<pdfrwt beam="2">  1       21 0.75216583E-02 0.17564731E+03</pdfrwt>
<totfact> 0.42910566E+04</totfact>
</mgrwt>
</event>
<event>
 4    2  0.3964208E+000  0.2170275E+03  0.7546771E-02  0.1136119E+00
         21   -1    0    0  503  502  0.00000000000E+00  0.00000000000E+00  0.11414182578E+04  0.11414182578E+04  0.00000000000E+00 0. -1.
         21   -1    0    0  501  503 -0.00000000000E+00 -0.00000000000E+00 -0.82691621844E+02  0.82691621844E+02  0.00000000000E+00 0. -1.
          6    1    1    2  501    0 -0.11010087218E+03  0.71061368993E+02  0.96153736025E+02  0.23737409540E+03  0.17300000000E+03 0. -1.
         -6    1    1    2    0  502  0.11010087218E+03 -0.71061368993E+02  0.96257289997E+03  0.98673578428E+03  0.17300000000E+03 0. -1.
<mgrwt>
<rscale>  2 0.21702746E+03</rscale>
<asrwt>0</asrwt>
<pdfrwt beam="1">  1       21 0.17560280E+00 0.21702746E+03</pdfrwt>
<pdfrwt beam="2">  1       21 0.12721789E-01 0.21702746E+03</pdfrwt>
<totfact> 0.10115585E+04</totfact>
</mgrwt>
</event>
<event>
 4    2  0.3964208E+000  0.1930273E+03  0.7546771E-02  0.1155759E+00
         21   -1    0    0  501  502  0.00000000000E+00  0.00000000000E+00  0.24496153031E+03  0.24496153031E+03  0.00000000000E+00 0. -1.
         21   -1    0    0  502  503 -0.00000000000E+00 -0.00000000000E+00 -0.15985246598E+03  0.15985246598E+03  0.00000000000E+00 0. -1.
          6    1    1    2  501    0  0.12234410021E+02  0.84739880808E+02  0.87118639028E+02  0.21177626273E+03  0.17300000000E+03 0. -1.
         -6    1    1    2    0  503 -0.12234410021E+02 -0.84739880808E+02 -0.20095746924E+01  0.19303773356E+03  0.17300000000E+03 0. -1.
<mgrwt>
<rscale>  2 0.19302727E+03</rscale>
<asrwt>0</asrwt>
<pdfrwt beam="1">  1       21 0.37686389E-01 0.19302727E+03</pdfrwt>
<pdfrwt beam="2">  1       21 0.24592687E-01 0.19302727E+03</pdfrwt>
<totfact> 0.10612030E+05</totfact>
</mgrwt>
</event>
<event>
 4    2  0.3964208E+000  0.2217932E+03  0.7546771E-02  0.1132553E+00
         21   -1    0    0  503  502  0.00000000000E+00  0.00000000000E+00  0.21185754012E+02  0.21185754012E+02  0.00000000000E+00 0.  1.
         21   -1    0    0  501  503 -0.00000000000E+00 -0.00000000000E+00 -0.23338551249E+04  0.23338551249E+04  0.00000000000E+00 0.  1.
          6    1    1    2  501    0  0.64064798124E+02 -0.12312158575E+03 -0.12404415514E+04  0.12601140685E+04  0.17300000000E+03 0.  1.
         -6    1    1    2    0  502 -0.64064798124E+02  0.12312158575E+03 -0.10722278195E+04  0.10949268104E+04  0.17300000000E+03 0.  1.
<mgrwt>
<rscale>  2 0.22179320E+03</rscale>
<asrwt>0</asrwt>
<pdfrwt beam="1">  1       21 0.32593459E-02 0.22179320E+03</pdfrwt>
<pdfrwt beam="2">  1       21 0.35905473E+00 0.22179320E+03</pdfrwt>
<totfact> 0.82397629E+03</totfact>
</mgrwt>
</event>
<event>
 4    2  0.3964208E+000  0.1874544E+03  0.7546771E-02  0.1160777E+00
         21   -1    0    0  501  502  0.00000000000E+00  0.00000000000E+00  0.14499875777E+03  0.14499875777E+03  0.00000000000E+00 0. -1.
         21   -1    0    0  502  503 -0.00000000000E+00 -0.00000000000E+00 -0.24261099327E+03  0.24261099327E+03  0.00000000000E+00 0. -1.
          6    1    1    2  501    0  0.65588959233E+02 -0.30137307647E+02 -0.42342917441E+02  0.19217723992E+03  0.17300000000E+03 0.  1.
         -6    1    1    2    0  503 -0.65588959233E+02  0.30137307647E+02 -0.55269318049E+02  0.19543251112E+03  0.17300000000E+03 0.  1.
<mgrwt>
<rscale>  2 0.18745444E+03</rscale>
<asrwt>0</asrwt>
<pdfrwt beam="1">  1       21 0.22307502E-01 0.18745444E+03</pdfrwt>
<pdfrwt beam="2">  1       21 0.37324768E-01 0.18745444E+03</pdfrwt>
<totfact> 0.13040969E+05</totfact>
</mgrwt>
</event>
<event>
 4    2  0.3964208E+000  0.1955688E+03  0.7546771E-02  0.1153532E+00
         21   -1    0    0  503  502  0.00000000000E+00  0.00000000000E+00  0.41189946811E+02  0.41189946811E+02  0.00000000000E+00 0. -1.
         21   -1    0    0  501  503 -0.00000000000E+00 -0.00000000000E+00 -0.94230267025E+03  0.94230267025E+03  0.00000000000E+00 0. -1.
          6    1    1    2  501    0 -0.16165322829E+01 -0.91189628642E+02 -0.50995120755E+03  0.54616608796E+03  0.17300000000E+03 0. -1.
         -6    1    1    2    0  502  0.16165322829E+01  0.91189628642E+02 -0.39116151589E+03  0.43732652910E+03  0.17300000000E+03 0. -1.
<mgrwt>
<rscale>  2 0.19556882E+03</rscale>
<asrwt>0</asrwt>
<pdfrwt beam="1">  1       21 0.63369151E-02 0.19556882E+03</pdfrwt>
<pdfrwt beam="2">  1       21 0.14496964E+00 0.19556882E+03</pdfrwt>
<totfact> 0.58592490E+04</totfact>
</mgrwt>
</event>
<event>
 4    2  0.3964208E+000  0.1927883E+03  0.7546771E-02  0.1155970E+00
         21   -1    0    0  503  502  0.00000000000E+00  0.00000000000E+00  0.21357793131E+03  0.21357793131E+03  0.00000000000E+00 0. -1.
         21   -1    0    0  501  503 -0.00000000000E+00 -0.00000000000E+00 -0.39415319379E+03  0.39415319379E+03  0.00000000000E+00 0. -1.
          6    1    1    2  501    0 -0.84462484827E+02  0.10218285131E+02 -0.31737315445E+03  0.37133952639E+03  0.17300000000E+03 0. -1.
         -6    1    1    2    0  502  0.84462484827E+02 -0.10218285131E+02  0.13679789196E+03  0.23639159871E+03  0.17300000000E+03 0. -1.
<mgrwt>
<rscale>  2 0.19278829E+03</rscale>
<asrwt>0</asrwt>
<pdfrwt beam="1">  1       21 0.32858144E-01 0.19278829E+03</pdfrwt>
<pdfrwt beam="2">  1       21 0.60638952E-01 0.19278829E+03</pdfrwt>
<totfact> 0.22582777E+04</totfact>
</mgrwt>
</event>
<event>
 4    2  0.3964208E+000  0.1767003E+03  0.7546771E-02  0.1171035E+00
         21   -1    0    0  503  502  0.00000000000E+00  0.00000000000E+00  0.43130912164E+03  0.43130912164E+03  0.00000000000E+00 0.  1.
         21   -1    0    0  501  503 -0.00000000000E+00 -0.00000000000E+00 -0.78431755223E+02  0.78431755223E+02  0.00000000000E+00 0.  1.
          6    1    1    2  501    0  0.49645719220E+01  0.35627715417E+02  0.10570728461E+03  0.20590534500E+03  0.17300000000E+03 0.  1.
         -6    1    1    2    0  502 -0.49645719220E+01 -0.35627715417E+02  0.24717008181E+03  0.30383553186E+03  0.17300000000E+03 0.  1.
<mgrwt>
<rscale>  2 0.17670026E+03</rscale>
<asrwt>0</asrwt>
<pdfrwt beam="1">  1       21 0.66355248E-01 0.17670026E+03</pdfrwt>
<pdfrwt beam="2">  1       21 0.12066424E-01 0.17670026E+03</pdfrwt>
<totfact> 0.12177074E+05</totfact>
</mgrwt>
</event>
<event>
 4    2  0.3964208E+000  0.1920701E+03  0.7546771E-02  0.1156607E+00
         21   -1    0    0  503  502  0.00000000000E+00  0.00000000000E+00  0.39023031600E+03  0.39023031600E+03  0.00000000000E+00 0.  1.
         21   -1    0    0  501  503 -0.00000000000E+00 -0.00000000000E+00 -0.10661537046E+03  0.10661537046E+03  0.00000000000E+00 0.  1.
          6    1    1    2  501    0  0.26460146561E+02 -0.79131501110E+02  0.58189774377E+02  0.20069126455E+03  0.17300000000E+03 0.  1.
         -6    1    1    2    0  502 -0.26460146561E+02  0.79131501110E+02  0.22542517116E+03  0.29615442191E+03  0.17300000000E+03 0.  1.
<mgrwt>
<rscale>  2 0.19207013E+03</rscale>
<asrwt>0</asrwt>
<pdfrwt beam="1">  1       21 0.60035432E-01 0.19207013E+03</pdfrwt>
<pdfrwt beam="2">  1       21 0.16402365E-01 0.19207013E+03</pdfrwt>
<totfact> 0.86246075E+04</totfact>
</mgrwt>
</event>
<event>
 4    2  0.3964208E+000  0.1906547E+03  0.7546771E-02  0.1157872E+00
         21   -1    0    0  501  502  0.00000000000E+00  0.00000000000E+00  0.11481538282E+03  0.11481538282E+03  0.00000000000E+00 0. -1.
         21   -1    0    0  502  503 -0.00000000000E+00 -0.00000000000E+00 -0.32810269413E+03  0.32810269413E+03  0.00000000000E+00 0. -1.
          6    1    1    2  501    0 -0.57097814116E+02  0.56214344449E+02 -0.65157034512E+02  0.20148114563E+03  0.17300000000E+03 0. -1.
         -6    1    1    2    0  503  0.57097814116E+02 -0.56214344449E+02 -0.14813027681E+03  0.24143693132E+03  0.17300000000E+03 0. -1.
<mgrwt>
<rscale>  2 0.19065470E+03</rscale>
<asrwt>0</asrwt>
<pdfrwt beam="1">  1       21 0.17663905E-01 0.19065470E+03</pdfrwt>
<pdfrwt beam="2">  1       21 0.50477337E-01 0.19065470E+03</pdfrwt>
<totfact> 0.10867992E+05</totfact>
</mgrwt>
</event>
<event>
 4    2  0.3964208E+000  0.2023008E+03  0.7546771E-02  0.1147812E+00
         21   -1    0    0  503  502  0.00000000000E+00  0.00000000000E+00  0.13879179771E+03  0.13879179771E+03  0.00000000000E+00 0.  1.
         21   -1    0    0  501  503 -0.00000000000E+00 -0.00000000000E+00 -0.33372152432E+03  0.33372152432E+03  0.00000000000E+00 0.  1.
          6    1    1    2  501    0 -0.10119836710E+03 -0.27486570469E+02 -0.17807554884E+03  0.26951163640E+03  0.17300000000E+03 0.  1.
         -6    1    1    2    0  502  0.10119836710E+03  0.27486570469E+02 -0.16854177775E+02  0.20300168563E+03  0.17300000000E+03 0.  1.
<mgrwt>
<rscale>  2 0.20230082E+03</rscale>
<asrwt>0</asrwt>
<pdfrwt beam="1">  1       21 0.21352584E-01 0.20230082E+03</pdfrwt>
<pdfrwt beam="2">  1       21 0.51341773E-01 0.20230082E+03</pdfrwt>
<totfact> 0.73304649E+04</totfact>
</mgrwt>
</event>
<event>
 4    2  0.3964208E+000  0.2017395E+03  0.7546771E-02  0.1148280E+00
         21   -1    0    0  503  502  0.00000000000E+00  0.00000000000E+00  0.70797122248E+03  0.70797122248E+03  0.00000000000E+00 0.  1.
         21   -1    0    0  501  503 -0.00000000000E+00 -0.00000000000E+00 -0.14614924868E+03  0.14614924868E+03  0.00000000000E+00 0.  1.
          6    1    1    2  501    0  0.94035930651E+02 -0.43898414337E+02 -0.51718925243E+02  0.20826347318E+03  0.17300000000E+03 0.  1.
         -6    1    1    2    0  502 -0.94035930651E+02  0.43898414337E+02  0.61354089905E+03  0.64585699798E+03  0.17300000000E+03 0.  1.
<mgrwt>
<rscale>  2 0.20173950E+03</rscale>
<asrwt>0</asrwt>
<pdfrwt beam="1">  1       21 0.10891865E+00 0.20173950E+03</pdfrwt>
<pdfrwt beam="2">  1       21 0.22484500E-01 0.20173950E+03</pdfrwt>
<totfact> 0.12314599E+04</totfact>
</mgrwt>
</event>
<event>
 4    2  0.3964208E+000  0.2357794E+03  0.7546771E-02  0.1122637E+00
         21   -1    0    0  501  502  0.00000000000E+00  0.00000000000E+00  0.18663387968E+03  0.18663387968E+03  0.00000000000E+00 0. -1.
         21   -1    0    0  502  503 -0.00000000000E+00 -0.00000000000E+00 -0.36327594416E+03  0.36327594416E+03  0.00000000000E+00 0. -1.
          6    1    1    2  501    0  0.74698176253E+02  0.14171490358E+03  0.28350328989E+02  0.23747773072E+03  0.17300000000E+03 0. -1.
         -6    1    1    2    0  503 -0.74698176253E+02 -0.14171490358E+03 -0.20499239348E+03  0.31243209313E+03  0.17300000000E+03 0. -1.
<mgrwt>
<rscale>  2 0.23577941E+03</rscale>
<asrwt>0</asrwt>
<pdfrwt beam="1">  1       21 0.28712905E-01 0.23577941E+03</pdfrwt>
<pdfrwt beam="2">  1       21 0.55888607E-01 0.23577941E+03</pdfrwt>
<totfact> 0.34238189E+04</totfact>
</mgrwt>
</event>
<event>
 4    2  0.3964208E+000  0.1835766E+03  0.7546771E-02  0.1164386E+00
         21   -1    0    0  501  502  0.00000000000E+00  0.00000000000E+00  0.46273729644E+03  0.46273729644E+03  0.00000000000E+00 0. -1.
         21   -1    0    0  502  503 -0.00000000000E+00 -0.00000000000E+00 -0.77076487561E+02  0.77076487561E+02  0.00000000000E+00 0.  1.
          6    1    1    2  501    0 -0.85385667673E+01 -0.60814970753E+02  0.25619624112E+03  0.31517754006E+03  0.17300000000E+03 0. -1.
         -6    1    1    2    0  503  0.85385667673E+01  0.60814970753E+02  0.12946456776E+03  0.22463624395E+03  0.17300000000E+03 0. -1.
<mgrwt>
<rscale>  2 0.18357660E+03</rscale>
<asrwt>0</asrwt>
<pdfrwt beam="1">  1       21 0.71190352E-01 0.18357660E+03</pdfrwt>
<pdfrwt beam="2">  1       21 0.11857921E-01 0.18357660E+03</pdfrwt>
<totfact> 0.10738112E+05</totfact>
</mgrwt>
</event>
<event>
 4    2  0.3964208E+000  0.2266628E+03  0.7546771E-02  0.1129011E+00
         21   -1    0    0  503  502  0.00000000000E+00  0.00000000000E+00  0.73414164435E+03  0.73414164435E+03  0.00000000000E+00 0.  1.
         21   -1    0    0  501  503 -0.00000000000E+00 -0.00000000000E+00 -0.79184658852E+02  0.79184658852E+02  0.00000000000E+00 0.  1.
          6    1    1    2  501    0 -0.78776986900E+02 -0.12345537225E+03  0.18883735786E+03  0.29501794916E+03  0.17300000000E+03 0.  1.
         -6    1    1    2    0  502  0.78776986900E+02  0.12345537225E+03  0.46611962764E+03  0.51830835405E+03  0.17300000000E+03 0.  1.
<mgrwt>
<rscale>  2 0.22666284E+03</rscale>
<asrwt>0</asrwt>
<pdfrwt beam="1">  1       21 0.11294486E+00 0.22666284E+03</pdfrwt>
<pdfrwt beam="2">  1       21 0.12182256E-01 0.22666284E+03</pdfrwt>
<totfact> 0.34348205E+04</totfact>
</mgrwt>
</event>
<event>
 4    2  0.3964208E+000  0.2147516E+03  0.7546771E-02  0.1137858E+00
         21   -1    0    0  501  502  0.00000000000E+00  0.00000000000E+00  0.10007120353E+03  0.10007120353E+03  0.00000000000E+00 0. -1.
         21   -1    0    0  502  503 -0.00000000000E+00 -0.00000000000E+00 -0.51058277019E+03  0.51058277019E+03  0.00000000000E+00 0. -1.
          6    1    1    2  501    0  0.63848239596E+02 -0.11005747907E+03 -0.30054298626E+03  0.36938372053E+03  0.17300000000E+03 0. -1.
         -6    1    1    2    0  503 -0.63848239596E+02  0.11005747907E+03 -0.10996858040E+03  0.24127025319E+03  0.17300000000E+03 0. -1.
<mgrwt>
<rscale>  2 0.21475159E+03</rscale>
<asrwt>0</asrwt>
<pdfrwt beam="1">  1       21 0.15395570E-01 0.21475159E+03</pdfrwt>
<pdfrwt beam="2">  1       21 0.78551194E-01 0.21475159E+03</pdfrwt>
<totfact> 0.53049583E+04</totfact>
</mgrwt>
</event>
<event>
 4    2  0.3964208E+000  0.2061153E+03  0.7546771E-02  0.1144680E+00
         21   -1    0    0  503  502  0.00000000000E+00  0.00000000000E+00  0.66198363591E+03  0.66198363591E+03  0.00000000000E+00 0. -1.
         21   -1    0    0  501  503 -0.00000000000E+00 -0.00000000000E+00 -0.64603696179E+02  0.64603696179E+02  0.00000000000E+00 0. -1.
          6    1    1    2  501    0 -0.91647956739E+02  0.64460706700E+02  0.26913408232E+03  0.33899363555E+03  0.17300000000E+03 0. -1.
         -6    1    1    2    0  502  0.91647956739E+02 -0.64460706700E+02  0.32824585741E+03  0.38759369653E+03  0.17300000000E+03 0. -1.
<mgrwt>
<rscale>  2 0.20611533E+03</rscale>
<asrwt>0</asrwt>
<pdfrwt beam="1">  1       21 0.10184363E+00 0.20611533E+03</pdfrwt>
<pdfrwt beam="2">  1       21 0.99390307E-02 0.20611533E+03</pdfrwt>
<totfact> 0.64053715E+04</totfact>
</mgrwt>
</event>
<event>
 4    2  0.3964208E+000  0.2178149E+03  0.7546771E-02  0.1135523E+00
         21   -1    0    0  503  502  0.00000000000E+00  0.00000000000E+00  0.16579395231E+04  0.16579395231E+04  0.00000000000E+00 0. -1.
         21   -1    0    0  501  503 -0.00000000000E+00 -0.00000000000E+00 -0.29855933202E+02  0.29855933202E+02  0.00000000000E+00 0. -1.
          6    1    1    2  501    0  0.61036517177E+02  0.11742604068E+03  0.64205237728E+03  0.67799305795E+03  0.17300000000E+03 0. -1.
         -6    1    1    2    0  502 -0.61036517177E+02 -0.11742604068E+03  0.98603121263E+03  0.10098023984E+04  0.17300000000E+03 0. -1.
<mgrwt>
<rscale>  2 0.21781490E+03</rscale>
<asrwt>0</asrwt>
<pdfrwt beam="1">  1       21 0.25506755E+00 0.21781490E+03</pdfrwt>
<pdfrwt beam="2">  1       21 0.45932218E-02 0.21781490E+03</pdfrwt>
<totfact> 0.18869475E+04</totfact>
</mgrwt>
</event>
<event>
 4    2  0.3964208E+000  0.2365484E+03  0.7546771E-02  0.1122114E+00
         21   -1    0    0  501  502  0.00000000000E+00  0.00000000000E+00  0.65840569260E+03  0.65840569260E+03  0.00000000000E+00 0. -1.
         21   -1    0    0  502  503 -0.00000000000E+00 -0.00000000000E+00 -0.11354161066E+03  0.11354161066E+03  0.00000000000E+00 0.  1.
          6    1    1    2  501    0  0.12012463188E+03 -0.10768569557E+03  0.78866805341E+02  0.24934937176E+03  0.17300000000E+03 0.  1.
         -6    1    1    2    0  503 -0.12012463188E+03  0.10768569557E+03  0.46599727659E+03  0.52259793150E+03  0.17300000000E+03 0. -1.
<mgrwt>
<rscale>  2 0.23654838E+03</rscale>
<asrwt>0</asrwt>
<pdfrwt beam="1">  1       21 0.10129318E+00 0.23654838E+03</pdfrwt>
<pdfrwt beam="2">  1       21 0.17467940E-01 0.23654838E+03</pdfrwt>
<totfact> 0.23047632E+04</totfact>
</mgrwt>
</event>
<event>
 4    2  0.3964208E+000  0.2033212E+03  0.7546771E-02  0.1146967E+00
         21   -1    0    0  503  502  0.00000000000E+00  0.00000000000E+00  0.87803080740E+03  0.87803080740E+03  0.00000000000E+00 0.  1.
         21   -1    0    0  501  503 -0.00000000000E+00 -0.00000000000E+00 -0.68151137471E+02  0.68151137471E+02  0.00000000000E+00 0. -1.
          6    1    1    2  501    0 -0.10449397690E+03 -0.22170284170E+02  0.66798523250E+03  0.69824335554E+03  0.17300000000E+03 0. -1.
         -6    1    1    2    0  502  0.10449397690E+03  0.22170284170E+02  0.14189443742E+03  0.24793858933E+03  0.17300000000E+03 0. -1.
<mgrwt>
<rscale>  2 0.20332121E+03</rscale>
<asrwt>0</asrwt>
<pdfrwt beam="1">  1       21 0.13508165E+00 0.20332121E+03</pdfrwt>
<pdfrwt beam="2">  1       21 0.10484791E-01 0.20332121E+03</pdfrwt>
<totfact> 0.29080195E+04</totfact>
</mgrwt>
</event>
<event>
 4    2  0.3964208E+000  0.2334161E+03  0.7546771E-02  0.1124258E+00
         21   -1    0    0  501  502  0.00000000000E+00  0.00000000000E+00  0.21296576875E+03  0.21296576875E+03  0.00000000000E+00 0. -1.
         21   -1    0    0  502  503 -0.00000000000E+00 -0.00000000000E+00 -0.44926671808E+03  0.44926671808E+03  0.00000000000E+00 0. -1.
          6    1    1    2  501    0  0.10943351535E+03  0.11215335234E+03  0.99118457571E+02  0.25358930844E+03  0.17300000000E+03 0. -1.
         -6    1    1    2    0  503 -0.10943351535E+03 -0.11215335234E+03 -0.33541940690E+03  0.40864317839E+03  0.17300000000E+03 0. -1.
<mgrwt>
<rscale>  2 0.23341608E+03</rscale>
<asrwt>0</asrwt>
<pdfrwt beam="1">  1       21 0.32763965E-01 0.23341608E+03</pdfrwt>
<pdfrwt beam="2">  1       21 0.69117955E-01 0.23341608E+03</pdfrwt>
<totfact> 0.16678258E+04</totfact>
</mgrwt>
</event>
<event>
 4    2  0.3964208E+000  0.2510637E+03  0.7546771E-02  0.1112634E+00
         21   -1    0    0  503  502  0.00000000000E+00  0.00000000000E+00  0.16995023443E+04  0.16995023443E+04  0.00000000000E+00 0.  1.
         21   -1    0    0  501  503 -0.00000000000E+00 -0.00000000000E+00 -0.37098632206E+02  0.37098632206E+02  0.00000000000E+00 0.  1.
          6    1    1    2  501    0 -0.22530439523E+02  0.18054459534E+03  0.84513771764E+03  0.88164093224E+03  0.17300000000E+03 0.  1.
         -6    1    1    2    0  502  0.22530439523E+02 -0.18054459534E+03  0.81726599444E+03  0.85496004426E+03  0.17300000000E+03 0.  1.
<mgrwt>
<rscale>  2 0.25106368E+03</rscale>
<asrwt>0</asrwt>
<pdfrwt beam="1">  1       21 0.26146184E+00 0.25106368E+03</pdfrwt>
<pdfrwt beam="2">  1       21 0.57074832E-02 0.25106368E+03</pdfrwt>
<totfact> 0.11639947E+04</totfact>
</mgrwt>
</event>
<event>
 4    2  0.3964208E+000  0.3873864E+03  0.7546771E-02  0.1048237E+00
         21   -1    0    0  503  502  0.00000000000E+00  0.00000000000E+00  0.16994517658E+04  0.16994517658E+04  0.00000000000E+00 0. -1.
         21   -1    0    0  501  503 -0.00000000000E+00 -0.00000000000E+00 -0.12910799816E+03  0.12910799816E+03  0.00000000000E+00 0. -1.
          6    1    1    2  501    0 -0.57011045089E+02 -0.34189032618E+03  0.12991615295E+04  0.13556876241E+04  0.17300000000E+03 0. -1.
         -6    1    1    2    0  502  0.57011045089E+02  0.34189032618E+03  0.27118223821E+03  0.47287213993E+03  0.17300000000E+03 0. -1.
<mgrwt>
<rscale>  2 0.38738644E+03</rscale>
<asrwt>0</asrwt>
<pdfrwt beam="1">  1       21 0.26145410E+00 0.38738644E+03</pdfrwt>
<pdfrwt beam="2">  1       21 0.19862770E-01 0.38738644E+03</pdfrwt>
<totfact> 0.11299165E+03</totfact>
</mgrwt>
</event>
<event>
 4    2  0.3964208E+000  0.1907277E+03  0.7546771E-02  0.1157807E+00
         21   -1    0    0  501  502  0.00000000000E+00  0.00000000000E+00  0.17479849741E+03  0.17479849741E+03  0.00000000000E+00 0.  1.
         21   -1    0    0  502  503 -0.00000000000E+00 -0.00000000000E+00 -0.46568209469E+03  0.46568209469E+03  0.00000000000E+00 0.  1.
          6    1    1    2  501    0 -0.77722889143E+02  0.20179018263E+02  0.92725395396E+02  0.21207319309E+03  0.17300000000E+03 0.  1.
         -6    1    1    2    0  503  0.77722889143E+02 -0.20179018263E+02 -0.38360899267E+03  0.42840739902E+03  0.17300000000E+03 0.  1.
<mgrwt>
<rscale>  2 0.19072766E+03</rscale>
<asrwt>0</asrwt>
<pdfrwt beam="1">  1       21 0.26892077E-01 0.19072766E+03</pdfrwt>
<pdfrwt beam="2">  1       21 0.71643399E-01 0.19072766E+03</pdfrwt>
<totfact> 0.23210373E+04</totfact>
</mgrwt>
</event>
<event>
 4    2  0.3964208E+000  0.1980601E+03  0.7546771E-02  0.1151386E+00
         21   -1    0    0  501  502  0.00000000000E+00  0.00000000000E+00  0.11405059995E+04  0.11405059995E+04  0.00000000000E+00 0.  1.
         21   -1    0    0  502  503 -0.00000000000E+00 -0.00000000000E+00 -0.47610902414E+02  0.47610902414E+02  0.00000000000E+00 0.  1.
          6    1    1    2  501    0  0.96412528399E+02 -0.18551441067E+01  0.85943199101E+03  0.88195870899E+03  0.17300000000E+03 0. -1.
         -6    1    1    2    0  503 -0.96412528399E+02  0.18551441067E+01  0.23346310605E+03  0.30615819290E+03  0.17300000000E+03 0. -1.
<mgrwt>
<rscale>  2 0.19806014E+03</rscale>
<asrwt>0</asrwt>
<pdfrwt beam="1">  1       21 0.17546244E+00 0.19806014E+03</pdfrwt>
<pdfrwt beam="2">  1       21 0.73247551E-02 0.19806014E+03</pdfrwt>
<totfact> 0.27238448E+04</totfact>
</mgrwt>
</event>
<event>
 4    2  0.3964208E+000  0.3159085E+03  0.7546771E-02  0.1077548E+00
         21   -1    0    0  501  502  0.00000000000E+00  0.00000000000E+00  0.13753504238E+04  0.13753504238E+04  0.00000000000E+00 0. -1.
         21   -1    0    0  502  503 -0.00000000000E+00 -0.00000000000E+00 -0.72717646103E+02  0.72717646103E+02  0.00000000000E+00 0.  1.
          6    1    1    2  501    0  0.20842728473E+03 -0.16256465701E+03  0.61782103366E+03  0.69390275282E+03  0.17300000000E+03 0.  1.
         -6    1    1    2    0  503 -0.20842728473E+03  0.16256465701E+03  0.68481174404E+03  0.75416531709E+03  0.17300000000E+03 0. -1.
<mgrwt>
<rscale>  2 0.31590853E+03</rscale>
<asrwt>0</asrwt>
<pdfrwt beam="1">  1       21 0.21159235E+00 0.31590853E+03</pdfrwt>
<pdfrwt beam="2">  1       21 0.11187331E-01 0.31590853E+03</pdfrwt>
<totfact> 0.69076411E+03</totfact>
</mgrwt>
</event>
<event>
 4    2  0.3964208E+000  0.2698445E+03  0.7546771E-02  0.1101369E+00
         21   -1    0    0  503  502  0.00000000000E+00  0.00000000000E+00  0.21722938636E+03  0.21722938636E+03  0.00000000000E+00 0.  1.
         21   -1    0    0  501  503 -0.00000000000E+00 -0.00000000000E+00 -0.37034360006E+03  0.37034360006E+03  0.00000000000E+00 0. -1.
          6    1    1    2  501    0 -0.12014567004E+03  0.16867749245E+03  0.13939043953E+02  0.27020432164E+03  0.17300000000E+03 0.  1.
         -6    1    1    2    0  502  0.12014567004E+03 -0.16867749245E+03 -0.16705325765E+03  0.31736866477E+03  0.17300000000E+03 0. -1.
<mgrwt>
<rscale>  2 0.26984455E+03</rscale>
<asrwt>0</asrwt>
<pdfrwt beam="1">  1       21 0.33419906E-01 0.26984455E+03</pdfrwt>
<pdfrwt beam="2">  1       21 0.56975938E-01 0.26984455E+03</pdfrwt>
<totfact> 0.24002604E+04</totfact>
</mgrwt>
</event>
<event>
 4    2  0.3964208E+000  0.1752689E+03  0.7546771E-02  0.1172462E+00
         21   -1    0    0  503  502  0.00000000000E+00  0.00000000000E+00  0.17898317615E+04  0.17898317615E+04  0.00000000000E+00 0. -1.
         21   -1    0    0  501  503 -0.00000000000E+00 -0.00000000000E+00 -0.18742070617E+02  0.18742070617E+02  0.00000000000E+00 0. -1.
          6    1    1    2  501    0  0.85256715573E+01 -0.26785934549E+02  0.62307712990E+03  0.64725905414E+03  0.17300000000E+03 0. -1.
         -6    1    1    2    0  502 -0.85256715573E+01  0.26785934549E+02  0.11480125609E+04  0.11613147779E+04  0.17300000000E+03 0. -1.
<mgrwt>
<rscale>  2 0.17526886E+03</rscale>
<asrwt>0</asrwt>
<pdfrwt beam="1">  1       21 0.27535860E+00 0.17526886E+03</pdfrwt>
<pdfrwt beam="2">  1       21 0.28833969E-02 0.17526886E+03</pdfrwt>
<totfact> 0.32490515E+04</totfact>
</mgrwt>
</event>
<event>
 4    2  0.3964208E+000  0.2351236E+03  0.7546771E-02  0.1123085E+00
         21   -1    0    0  503  502  0.00000000000E+00  0.00000000000E+00  0.24882027535E+03  0.24882027535E+03  0.00000000000E+00 0. -1.
         21   -1    0    0  501  503 -0.00000000000E+00 -0.00000000000E+00 -0.22843245327E+03  0.22843245327E+03  0.00000000000E+00 0.  1.
          6    1    1    2  501    0 -0.14790062307E+03  0.58987408166E+02 -0.29282172707E+02  0.23693998030E+03  0.17300000000E+03 0. -1.
         -6    1    1    2    0  502  0.14790062307E+03 -0.58987408166E+02  0.49669994785E+02  0.24031274833E+03  0.17300000000E+03 0.  1.
<mgrwt>
<rscale>  2 0.23512360E+03</rscale>
<asrwt>0</asrwt>
<pdfrwt beam="1">  1       21 0.38280042E-01 0.23512360E+03</pdfrwt>
<pdfrwt beam="2">  1       21 0.35143454E-01 0.23512360E+03</pdfrwt>
<totfact> 0.50381259E+04</totfact>
</mgrwt>
</event>
<event>
 4    2  0.3964208E+000  0.1909447E+03  0.7546771E-02  0.1157612E+00
         21   -1    0    0  503  502  0.00000000000E+00  0.00000000000E+00  0.20275747928E+03  0.20275747928E+03  0.00000000000E+00 0.  1.
         21   -1    0    0  501  503 -0.00000000000E+00 -0.00000000000E+00 -0.26283543700E+03  0.26283543700E+03  0.00000000000E+00 0.  1.
          6    1    1    2  501    0 -0.68759794094E+02 -0.42461460256E+02 -0.16087080013E+03  0.24967839159E+03  0.17300000000E+03 0.  1.
         -6    1    1    2    0  502  0.68759794094E+02  0.42461460256E+02  0.10079284241E+03  0.21591452469E+03  0.17300000000E+03 0.  1.
<mgrwt>
<rscale>  2 0.19094472E+03</rscale>
<asrwt>0</asrwt>
<pdfrwt beam="1">  1       21 0.31193459E-01 0.19094472E+03</pdfrwt>
<pdfrwt beam="2">  1       21 0.40436221E-01 0.19094472E+03</pdfrwt>
<totfact> 0.58234624E+04</totfact>
</mgrwt>
</event>
<event>
 4    2  0.3964208E+000  0.1990683E+03  0.7546771E-02  0.1150527E+00
         21   -1    0    0  501  502  0.00000000000E+00  0.00000000000E+00  0.32187846704E+03  0.32187846704E+03  0.00000000000E+00 0.  1.
         21   -1    0    0  502  503 -0.00000000000E+00 -0.00000000000E+00 -0.12974409130E+03  0.12974409130E+03  0.00000000000E+00 0.  1.
          6    1    1    2  501    0 -0.92996058089E+02  0.32417865526E+02  0.14710791978E+03  0.24752560451E+03  0.17300000000E+03 0.  1.
         -6    1    1    2    0  503  0.92996058089E+02 -0.32417865526E+02  0.45026455958E+02  0.20409695383E+03  0.17300000000E+03 0.  1.
<mgrwt>
<rscale>  2 0.19906829E+03</rscale>
<asrwt>0</asrwt>
<pdfrwt beam="1">  1       21 0.49519764E-01 0.19906829E+03</pdfrwt>
<pdfrwt beam="2">  1       21 0.19960629E-01 0.19906829E+03</pdfrwt>
<totfact> 0.89833133E+04</totfact>
</mgrwt>
</event>
<event>
 4    2  0.3964208E+000  0.1805970E+03  0.7546771E-02  0.1167227E+00
         21   -1    0    0  503  502  0.00000000000E+00  0.00000000000E+00  0.84902847525E+03  0.84902847525E+03  0.00000000000E+00 0.  1.
         21   -1    0    0  501  503 -0.00000000000E+00 -0.00000000000E+00 -0.46090051798E+02  0.46090051798E+02  0.00000000000E+00 0.  1.
          6    1    1    2  501    0  0.43535396031E+02 -0.28123551398E+02  0.21883039876E+03  0.28372875827E+03  0.17300000000E+03 0.  1.
         -6    1    1    2    0  502 -0.43535396031E+02  0.28123551398E+02  0.58410802469E+03  0.61138976877E+03  0.17300000000E+03 0.  1.
<mgrwt>
<rscale>  2 0.18059697E+03</rscale>
<asrwt>0</asrwt>
<pdfrwt beam="1">  1       21 0.13061975E+00 0.18059697E+03</pdfrwt>
<pdfrwt beam="2">  1       21 0.70907778E-02 0.18059697E+03</pdfrwt>
<totfact> 0.63566511E+04</totfact>
</mgrwt>
</event>
<event>
 4    2  0.3964208E+000  0.1765318E+03  0.7546771E-02  0.1171202E+00
         21   -1    0    0  501  502  0.00000000000E+00  0.00000000000E+00  0.16318052426E+03  0.16318052426E+03  0.00000000000E+00 0. -1.
         21   -1    0    0  502  503 -0.00000000000E+00 -0.00000000000E+00 -0.19470425752E+03  0.19470425752E+03  0.00000000000E+00 0. -1.
          6    1    1    2  501    0  0.33090936074E+02 -0.11809702640E+02 -0.40525175991E+02  0.18112362909E+03  0.17300000000E+03 0.  1.
         -6    1    1    2    0  503 -0.33090936074E+02  0.11809702640E+02  0.90014427287E+01  0.17676115268E+03  0.17300000000E+03 0.  1.
<mgrwt>
<rscale>  2 0.17653181E+03</rscale>
<asrwt>0</asrwt>
<pdfrwt beam="1">  1       21 0.25104696E-01 0.17653181E+03</pdfrwt>
<pdfrwt beam="2">  1       21 0.29954501E-01 0.17653181E+03</pdfrwt>
<totfact> 0.16140960E+05</totfact>
</mgrwt>
</event>
<event>
 4    2  0.3964208E+000  0.2389445E+03  0.7546771E-02  0.1120498E+00
         21   -1    0    0  503  502  0.00000000000E+00  0.00000000000E+00  0.26226135342E+03  0.26226135342E+03  0.00000000000E+00 0. -1.
         21   -1    0    0  501  503 -0.00000000000E+00 -0.00000000000E+00 -0.30604996388E+03  0.30604996388E+03  0.00000000000E+00 0.  1.
          6    1    1    2  501    0  0.11227516719E+03 -0.12066376081E+03 -0.17456716275E+03  0.29591916236E+03  0.17300000000E+03 0.  1.
         -6    1    1    2    0  502 -0.11227516719E+03  0.12066376081E+03  0.13077855229E+03  0.27239215495E+03  0.17300000000E+03 0. -1.
<mgrwt>
<rscale>  2 0.23894446E+03</rscale>
<asrwt>0</asrwt>
<pdfrwt beam="1">  1       21 0.40347901E-01 0.23894446E+03</pdfrwt>
<pdfrwt beam="2">  1       21 0.47084610E-01 0.23894446E+03</pdfrwt>
<totfact> 0.24926543E+04</totfact>
</mgrwt>
</event>
<event>
 4    2  0.3964208E+000  0.1963731E+03  0.7546771E-02  0.1152836E+00
         21   -1    0    0  501  502  0.00000000000E+00  0.00000000000E+00  0.55481392375E+02  0.55481392375E+02  0.00000000000E+00 0. -1.
         21   -1    0    0  502  503 -0.00000000000E+00 -0.00000000000E+00 -0.71401954266E+03  0.71401954266E+03  0.00000000000E+00 0. -1.
          6    1    1    2  501    0 -0.22760053964E+02  0.90085411156E+02 -0.39197957206E+03  0.43841804967E+03  0.17300000000E+03 0. -1.
         -6    1    1    2    0  503  0.22760053964E+02 -0.90085411156E+02 -0.26655857822E+03  0.33108288537E+03  0.17300000000E+03 0. -1.
<mgrwt>
<rscale>  2 0.19637312E+03</rscale>
<asrwt>0</asrwt>
<pdfrwt beam="1">  1       21 0.85355991E-02 0.19637312E+03</pdfrwt>
<pdfrwt beam="2">  1       21 0.10984916E+00 0.19637312E+03</pdfrwt>
<totfact> 0.70105703E+04</totfact>
</mgrwt>
</event>
<event>
 4    2  0.3964208E+000  0.2378416E+03  0.7546771E-02  0.1121239E+00
         21   -1    0    0  503  502  0.00000000000E+00  0.00000000000E+00  0.16866005937E+03  0.16866005937E+03  0.00000000000E+00 0. -1.
         21   -1    0    0  501  503 -0.00000000000E+00 -0.00000000000E+00 -0.69140638862E+03  0.69140638862E+03  0.00000000000E+00 0. -1.
          6    1    1    2  501    0 -0.14870490110E+03  0.67278942417E+02 -0.56995058223E+03  0.61758584010E+03  0.17300000000E+03 0. -1.
         -6    1    1    2    0  502  0.14870490110E+03 -0.67278942417E+02  0.47204252983E+02  0.24248060789E+03  0.17300000000E+03 0. -1.
<mgrwt>
<rscale>  2 0.23784155E+03</rscale>
<asrwt>0</asrwt>
<pdfrwt beam="1">  1       21 0.25947702E-01 0.23784155E+03</pdfrwt>
<pdfrwt beam="2">  1       21 0.10637021E+00 0.23784155E+03</pdfrwt>
<totfact> 0.96945714E+03</totfact>
</mgrwt>
</event>
<event>
 4    2  0.3964208E+000  0.1869699E+03  0.7546771E-02  0.1161223E+00
         21   -1    0    0  503  502  0.00000000000E+00  0.00000000000E+00  0.43683455940E+03  0.43683455940E+03  0.00000000000E+00 0. -1.
         21   -1    0    0  501  503 -0.00000000000E+00 -0.00000000000E+00 -0.83878226511E+02  0.83878226511E+02  0.00000000000E+00 0.  1.
          6    1    1    2  501    0 -0.57381896836E+02  0.41665918471E+02  0.23228020452E+03  0.29818085830E+03  0.17300000000E+03 0. -1.
         -6    1    1    2    0  502  0.57381896836E+02 -0.41665918471E+02  0.12067612837E+03  0.22253192761E+03  0.17300000000E+03 0.  1.
<mgrwt>
<rscale>  2 0.18696987E+03</rscale>
<asrwt>0</asrwt>
<pdfrwt beam="1">  1       21 0.67205316E-01 0.18696987E+03</pdfrwt>
<pdfrwt beam="2">  1       21 0.12904343E-01 0.18696987E+03</pdfrwt>
<totfact> 0.10460831E+05</totfact>
</mgrwt>
</event>
<event>
 4    2  0.3964208E+000  0.1906850E+03  0.7546771E-02  0.1157845E+00
         21   -1    0    0  503  502  0.00000000000E+00  0.00000000000E+00  0.13675780557E+03  0.13675780557E+03  0.00000000000E+00 0.  1.
         21   -1    0    0  501  503 -0.00000000000E+00 -0.00000000000E+00 -0.29893438976E+03  0.29893438976E+03  0.00000000000E+00 0.  1.
          6    1    1    2  501    0  0.74274526794E+02  0.30250156684E+02 -0.15353106340E+03  0.24481128393E+03  0.17300000000E+03 0.  1.
         -6    1    1    2    0  502 -0.74274526794E+02 -0.30250156684E+02 -0.86455207894E+01  0.19088091141E+03  0.17300000000E+03 0.  1.
<mgrwt>
<rscale>  2 0.19068502E+03</rscale>
<asrwt>0</asrwt>
<pdfrwt beam="1">  1       21 0.21039662E-01 0.19068502E+03</pdfrwt>
<pdfrwt beam="2">  1       21 0.45989906E-01 0.19068502E+03</pdfrwt>
<totfact> 0.95202079E+04</totfact>
</mgrwt>
</event>
<event>
 4    2  0.3964208E+000  0.2043066E+03  0.7546771E-02  0.1146156E+00
         21   -1    0    0  501  502  0.00000000000E+00  0.00000000000E+00  0.24659924647E+03  0.24659924647E+03  0.00000000000E+00 0. -1.
         21   -1    0    0  502  503 -0.00000000000E+00 -0.00000000000E+00 -0.18337887142E+03  0.18337887142E+03  0.00000000000E+00 0.  1.
          6    1    1    2  501    0 -0.27653827665E+02 -0.10510681195E+03  0.91249164040E+02  0.22375787370E+03  0.17300000000E+03 0. -1.
         -6    1    1    2    0  503  0.27653827665E+02  0.10510681195E+03 -0.28028788982E+02  0.20622024419E+03  0.17300000000E+03 0.  1.
<mgrwt>
<rscale>  2 0.20430657E+03</rscale>
<asrwt>0</asrwt>
<pdfrwt beam="1">  1       21 0.37938346E-01 0.20430657E+03</pdfrwt>
<pdfrwt beam="2">  1       21 0.28212134E-01 0.20430657E+03</pdfrwt>
<totfact> 0.80049227E+04</totfact>
</mgrwt>
</event>
<event>
 4    2  0.3964208E+000  0.2134227E+03  0.7546771E-02  0.1138884E+00
         21   -1    0    0  501  502  0.00000000000E+00  0.00000000000E+00  0.20001831249E+03  0.20001831249E+03  0.00000000000E+00 0. -1.
         21   -1    0    0  502  503 -0.00000000000E+00 -0.00000000000E+00 -0.26047919742E+03  0.26047919742E+03  0.00000000000E+00 0.  1.
          6    1    1    2  501    0  0.24988388013E+02  0.12245743306E+03  0.51416862645E+02  0.21952889608E+03  0.17300000000E+03 0. -1.
         -6    1    1    2    0  503 -0.24988388013E+02 -0.12245743306E+03 -0.11187774758E+03  0.24096861383E+03  0.17300000000E+03 0.  1.
<mgrwt>
<rscale>  2 0.21342268E+03</rscale>
<asrwt>0</asrwt>
<pdfrwt beam="1">  1       21 0.30772048E-01 0.21342268E+03</pdfrwt>
<pdfrwt beam="2">  1       21 0.40073723E-01 0.21342268E+03</pdfrwt>
<totfact> 0.60280215E+04</totfact>
</mgrwt>
</event>
<event>
 4    2  0.3964208E+000  0.2658404E+03  0.7546771E-02  0.1103684E+00
         21   -1    0    0  501  502  0.00000000000E+00  0.00000000000E+00  0.31340756997E+02  0.31340756997E+02  0.00000000000E+00 0.  1.
         21   -1    0    0  502  503 -0.00000000000E+00 -0.00000000000E+00 -0.23242296451E+04  0.23242296451E+04  0.00000000000E+00 0.  1.
          6    1    1    2  501    0  0.14154961612E+03  0.14389519578E+03 -0.94306770643E+03  0.97982029991E+03  0.17300000000E+03 0.  1.
         -6    1    1    2    0  503 -0.14154961612E+03 -0.14389519578E+03 -0.13498211817E+04  0.13757501022E+04  0.17300000000E+03 0.  1.
<mgrwt>
<rscale>  2 0.26584041E+03</rscale>
<asrwt>0</asrwt>
<pdfrwt beam="1">  1       21 0.48216558E-02 0.26584041E+03</pdfrwt>
<pdfrwt beam="2">  1       21 0.35757372E+00 0.26584041E+03</pdfrwt>
<totfact> 0.41600424E+03</totfact>
</mgrwt>
</event>
<event>
 4    2  0.3964208E+000  0.1820547E+03  0.7546771E-02  0.1165829E+00
         21   -1    0    0  501  502  0.00000000000E+00  0.00000000000E+00  0.50799662599E+03  0.50799662599E+03  0.00000000000E+00 0.  1.
         21   -1    0    0  502  503 -0.00000000000E+00 -0.00000000000E+00 -0.46500997221E+03  0.46500997221E+03  0.00000000000E+00 0.  1.
          6    1    1    2  501    0 -0.30193372021E+02  0.47992467079E+02  0.47257727314E+03  0.50643182730E+03  0.17300000000E+03 0.  1.
         -6    1    1    2    0  503  0.30193372021E+02 -0.47992467079E+02 -0.42959061935E+03  0.46657477091E+03  0.17300000000E+03 0.  1.
<mgrwt>
<rscale>  2 0.18205471E+03</rscale>
<asrwt>0</asrwt>
<pdfrwt beam="1">  1       21 0.78153327E-01 0.18205471E+03</pdfrwt>
<pdfrwt beam="2">  1       21 0.71539996E-01 0.18205471E+03</pdfrwt>
<totfact> 0.25842927E+03</totfact>
</mgrwt>
</event>
<event>
 4    2  0.3964208E+000  0.2237874E+03  0.7546771E-02  0.1131091E+00
         21   -1    0    0  501  502  0.00000000000E+00  0.00000000000E+00  0.11519492415E+03  0.11519492415E+03  0.00000000000E+00 0. -1.
         21   -1    0    0  502  503 -0.00000000000E+00 -0.00000000000E+00 -0.43560927618E+03  0.43560927618E+03  0.00000000000E+00 0. -1.
          6    1    1    2  501    0 -0.84389381697E+02 -0.11414996870E+03 -0.14796254618E+03  0.26827914225E+03  0.17300000000E+03 0. -1.
         -6    1    1    2    0  503  0.84389381697E+02  0.11414996870E+03 -0.17245180586E+03  0.28252505808E+03  0.17300000000E+03 0. -1.
<mgrwt>
<rscale>  2 0.22378736E+03</rscale>
<asrwt>0</asrwt>
<pdfrwt beam="1">  1       21 0.17722296E-01 0.22378736E+03</pdfrwt>
<pdfrwt beam="2">  1       21 0.67016813E-01 0.22378736E+03</pdfrwt>
<totfact> 0.58076581E+04</totfact>
</mgrwt>
</event>
<event>
 4    2  0.3964208E+000  0.3384575E+03  0.7546771E-02  0.1067455E+00
         21   -1    0    0  503  502  0.00000000000E+00  0.00000000000E+00  0.30680069401E+03  0.30680069401E+03  0.00000000000E+00 0. -1.
         21   -1    0    0  501  503 -0.00000000000E+00 -0.00000000000E+00 -0.37342118930E+03  0.37342118930E+03  0.00000000000E+00 0.  1.
          6    1    1    2  501    0 -0.21700298241E+03  0.19373743636E+03 -0.36847397119E+02  0.34045736781E+03  0.17300000000E+03 0. -1.
         -6    1    1    2    0  502  0.21700298241E+03 -0.19373743636E+03 -0.29773098169E+02  0.33976451550E+03  0.17300000000E+03 0.  1.
<mgrwt>
<rscale>  2 0.33845751E+03</rscale>
<asrwt>0</asrwt>
<pdfrwt beam="1">  1       21 0.47200107E-01 0.33845751E+03</pdfrwt>
<pdfrwt beam="2">  1       21 0.57449414E-01 0.33845751E+03</pdfrwt>
<totfact> 0.11332751E+04</totfact>
</mgrwt>
</event>
<event>
 4    2  0.3964208E+000  0.2203999E+03  0.7546771E-02  0.1133585E+00
         21   -1    0    0  503  502  0.00000000000E+00  0.00000000000E+00  0.17800480107E+03  0.17800480107E+03  0.00000000000E+00 0.  1.
         21   -1    0    0  501  503 -0.00000000000E+00 -0.00000000000E+00 -0.33577560463E+03  0.33577560463E+03  0.00000000000E+00 0.  1.
          6    1    1    2  501    0 -0.13400661108E+02  0.13589531632E+03 -0.19005630453E+03  0.29102837251E+03  0.17300000000E+03 0.  1.
         -6    1    1    2    0  502  0.13400661108E+02 -0.13589531632E+03  0.32285500973E+02  0.22275203318E+03  0.17300000000E+03 0.  1.
<mgrwt>
<rscale>  2 0.22039990E+03</rscale>
<asrwt>0</asrwt>
<pdfrwt beam="1">  1       21 0.27385354E-01 0.22039990E+03</pdfrwt>
<pdfrwt beam="2">  1       21 0.51657786E-01 0.22039990E+03</pdfrwt>
<totfact> 0.44656120E+04</totfact>
</mgrwt>
</event>
<event>
 4    2  0.3964208E+000  0.3081925E+03  0.7546771E-02  0.1081215E+00
         21   -1    0    0  501  502  0.00000000000E+00  0.00000000000E+00  0.99381376503E+02  0.99381376503E+02  0.00000000000E+00 0. -1.
         21   -1    0    0  502  503 -0.00000000000E+00 -0.00000000000E+00 -0.98727022359E+03  0.98727022359E+03  0.00000000000E+00 0. -1.
          6    1    1    2  501    0 -0.24566214667E+03 -0.68583782534E+02 -0.34684538518E+03  0.46398744245E+03  0.17300000000E+03 0. -1.
         -6    1    1    2    0  503  0.24566214667E+03  0.68583782534E+02 -0.54104346191E+03  0.62266415764E+03  0.17300000000E+03 0. -1.
<mgrwt>
<rscale>  2 0.30819251E+03</rscale>
<asrwt>0</asrwt>
<pdfrwt beam="1">  1       21 0.15289443E-01 0.30819251E+03</pdfrwt>
<pdfrwt beam="2">  1       21 0.15188772E+00 0.30819251E+03</pdfrwt>
<totfact> 0.10213753E+04</totfact>
</mgrwt>
</event>
<event>
 4    2  0.3964208E+000  0.1775035E+03  0.7546771E-02  0.1170241E+00
         21   -1    0    0  501  502  0.00000000000E+00  0.00000000000E+00  0.28685273828E+03  0.28685273828E+03  0.00000000000E+00 0. -1.
         21   -1    0    0  502  503 -0.00000000000E+00 -0.00000000000E+00 -0.12335901645E+03  0.12335901645E+03  0.00000000000E+00 0. -1.
          6    1    1    2  501    0  0.32723490055E+02  0.22531571386E+02  0.14964970301E+03  0.23216918857E+03  0.17300000000E+03 0. -1.
         -6    1    1    2    0  503 -0.32723490055E+02 -0.22531571386E+02  0.13844018818E+02  0.17804256617E+03  0.17300000000E+03 0. -1.
<mgrwt>
<rscale>  2 0.17750352E+03</rscale>
<asrwt>0</asrwt>
<pdfrwt beam="1">  1       21 0.44131190E-01 0.17750352E+03</pdfrwt>
<pdfrwt beam="2">  1       21 0.18978310E-01 0.17750352E+03</pdfrwt>
<totfact> 0.12619261E+05</totfact>
</mgrwt>
</event>
<event>
 4    2  0.3964208E+000  0.1826229E+03  0.7546771E-02  0.1165288E+00
         21   -1    0    0  503  502  0.00000000000E+00  0.00000000000E+00  0.16442902233E+04  0.16442902233E+04  0.00000000000E+00 0.  1.
         21   -1    0    0  501  503 -0.00000000000E+00 -0.00000000000E+00 -0.20926194542E+02  0.20926194542E+02  0.00000000000E+00 0. -1.
          6    1    1    2  501    0  0.45215121271E+02  0.37117614884E+02  0.95765403641E+03  0.97491147187E+03  0.17300000000E+03 0.  1.
         -6    1    1    2    0  502 -0.45215121271E+02 -0.37117614884E+02  0.66570999237E+03  0.69030494599E+03  0.17300000000E+03 0. -1.
<mgrwt>
<rscale>  2 0.18262290E+03</rscale>
<asrwt>0</asrwt>
<pdfrwt beam="1">  1       21 0.25296762E+00 0.18262290E+03</pdfrwt>
<pdfrwt beam="2">  1       21 0.32194159E-02 0.18262290E+03</pdfrwt>
<totfact> 0.36254386E+04</totfact>
</mgrwt>
</event>
<event>
 4    2  0.3964208E+000  0.1843535E+03  0.7546771E-02  0.1163655E+00
         21   -1    0    0  503  502  0.00000000000E+00  0.00000000000E+00  0.45573337732E+03  0.45573337732E+03  0.00000000000E+00 0.  1.
         21   -1    0    0  501  503 -0.00000000000E+00 -0.00000000000E+00 -0.10775806731E+03  0.10775806731E+03  0.00000000000E+00 0.  1.
          6    1    1    2  501    0 -0.54680244113E+02  0.32669108563E+02  0.17639638404E+02  0.18519545511E+03  0.17300000000E+03 0.  1.
         -6    1    1    2    0  502  0.54680244113E+02 -0.32669108563E+02  0.33033567161E+03  0.37829598952E+03  0.17300000000E+03 0.  1.
<mgrwt>
<rscale>  2 0.18435346E+03</rscale>
<asrwt>0</asrwt>
<pdfrwt beam="1">  1       21 0.70112826E-01 0.18435346E+03</pdfrwt>
<pdfrwt beam="2">  1       21 0.16578164E-01 0.18435346E+03</pdfrwt>
<totfact> 0.60548745E+04</totfact>
</mgrwt>
</event>
<event>
 4    2  0.3964208E+000  0.1921590E+03  0.7546771E-02  0.1156528E+00
         21   -1    0    0  501  502  0.00000000000E+00  0.00000000000E+00  0.14639332545E+02  0.14639332545E+02  0.00000000000E+00 0. -1.
         21   -1    0    0  502  503 -0.00000000000E+00 -0.00000000000E+00 -0.31944063159E+04  0.31944063159E+04  0.00000000000E+00 0. -1.
          6    1    1    2  501    0 -0.32801293755E+02 -0.76942621306E+02 -0.85390840337E+03  0.87526261956E+03  0.17300000000E+03 0. -1.
         -6    1    1    2    0  503  0.32801293755E+02  0.76942621306E+02 -0.23258585800E+04  0.23337830289E+04  0.17300000000E+03 0. -1.
<mgrwt>
<rscale>  2 0.19215903E+03</rscale>
<asrwt>0</asrwt>
<pdfrwt beam="1">  1       21 0.22522029E-02 0.19215903E+03</pdfrwt>
<pdfrwt beam="2">  1       21 0.49144758E+00 0.19215903E+03</pdfrwt>
<totfact> 0.22054778E+03</totfact>
</mgrwt>
</event>
<event>
 4    2  0.3964208E+000  0.2515664E+03  0.7546771E-02  0.1112319E+00
         21   -1    0    0  503  502  0.00000000000E+00  0.00000000000E+00  0.19417235482E+04  0.19417235482E+04  0.00000000000E+00 0.  1.
         21   -1    0    0  501  503 -0.00000000000E+00 -0.00000000000E+00 -0.32897232123E+02  0.32897232123E+02  0.00000000000E+00 0.  1.
          6    1    1    2  501    0 -0.17511886991E+03  0.51865655493E+02  0.10494339051E+04  0.10791650411E+04  0.17300000000E+03 0.  1.
         -6    1    1    2    0  502  0.17511886991E+03 -0.51865655493E+02  0.85939241104E+03  0.89545573926E+03  0.17300000000E+03 0.  1.
<mgrwt>
<rscale>  2 0.25156642E+03</rscale>
<asrwt>0</asrwt>
<pdfrwt beam="1">  1       21 0.29872661E+00 0.25156642E+03</pdfrwt>
<pdfrwt beam="2">  1       21 0.50611142E-02 0.25156642E+03</pdfrwt>
<totfact> 0.86442349E+03</totfact>
</mgrwt>
</event>
<event>
 4    2  0.3964208E+000  0.1890921E+03  0.7546771E-02  0.1159283E+00
         21   -1    0    0  501  502  0.00000000000E+00  0.00000000000E+00  0.12071665691E+04  0.12071665691E+04  0.00000000000E+00 0.  1.
         21   -1    0    0  502  503 -0.00000000000E+00 -0.00000000000E+00 -0.30927529019E+02  0.30927529019E+02  0.00000000000E+00 0.  1.
          6    1    1    2  501    0  0.51821702649E+02  0.56047507887E+02  0.46081605272E+03  0.49810365031E+03  0.17300000000E+03 0.  1.
         -6    1    1    2    0  503 -0.51821702649E+02 -0.56047507887E+02  0.71542298732E+03  0.73999044777E+03  0.17300000000E+03 0.  1.
<mgrwt>
<rscale>  2 0.18909207E+03</rscale>
<asrwt>0</asrwt>
<pdfrwt beam="1">  1       21 0.18571790E+00 0.18909207E+03</pdfrwt>
<pdfrwt beam="2">  1       21 0.47580823E-02 0.18909207E+03</pdfrwt>
<totfact> 0.48821482E+04</totfact>
</mgrwt>
</event>
<event>
 4    2  0.3964208E+000  0.2166573E+03  0.7546771E-02  0.1136400E+00
         21   -1    0    0  503  502  0.00000000000E+00  0.00000000000E+00  0.56969145955E+02  0.56969145955E+02  0.00000000000E+00 0. -1.
         21   -1    0    0  501  503 -0.00000000000E+00 -0.00000000000E+00 -0.84593925933E+03  0.84593925933E+03  0.00000000000E+00 0.  1.
          6    1    1    2  501    0 -0.12664958875E+03 -0.31165321061E+02 -0.46725191574E+03  0.51503858917E+03  0.17300000000E+03 0.  1.
         -6    1    1    2    0  502  0.12664958875E+03  0.31165321061E+02 -0.32171819763E+03  0.38786981611E+03  0.17300000000E+03 0. -1.
<mgrwt>
<rscale>  2 0.21665732E+03</rscale>
<asrwt>0</asrwt>
<pdfrwt beam="1">  1       21 0.87644845E-02 0.21665732E+03</pdfrwt>
<pdfrwt beam="2">  1       21 0.13014449E+00 0.21665732E+03</pdfrwt>
<totfact> 0.43533999E+04</totfact>
</mgrwt>
</event>
<event>
 4    2  0.3964208E+000  0.2688204E+03  0.7546771E-02  0.1101957E+00
         21   -1    0    0  501  502  0.00000000000E+00  0.00000000000E+00  0.10147106654E+03  0.10147106654E+03  0.00000000000E+00 0.  1.
         21   -1    0    0  502  503 -0.00000000000E+00 -0.00000000000E+00 -0.12423250583E+04  0.12423250583E+04  0.00000000000E+00 0.  1.
          6    1    1    2  501    0 -0.20563141171E+03 -0.71511184186E+01 -0.13150417339E+03  0.29926203167E+03  0.17300000000E+03 0.  1.
         -6    1    1    2    0  503  0.20563141171E+03  0.71511184186E+01 -0.10093498184E+04  0.10445340932E+04  0.17300000000E+03 0.  1.
<mgrwt>
<rscale>  2 0.26882042E+03</rscale>
<asrwt>0</asrwt>
<pdfrwt beam="1">  1       21 0.15610934E-01 0.26882042E+03</pdfrwt>
<pdfrwt beam="2">  1       21 0.19112693E+00 0.26882042E+03</pdfrwt>
<totfact> 0.52712703E+03</totfact>
</mgrwt>
</event>
<event>
 4    2  0.3964208E+000  0.1888903E+03  0.7546771E-02  0.1159466E+00
         21   -1    0    0  501  502  0.00000000000E+00  0.00000000000E+00  0.98821705185E+02  0.98821705185E+02  0.00000000000E+00 0.  1.
         21   -1    0    0  502  503 -0.00000000000E+00 -0.00000000000E+00 -0.19934510728E+04  0.19934510728E+04  0.00000000000E+00 0.  1.
          6    1    1    2  501    0 -0.54086834216E+02 -0.53152209832E+02 -0.64384459710E+00  0.18889139097E+03  0.17300000000E+03 0.  1.
         -6    1    1    2    0  503  0.54086834216E+02  0.53152209832E+02 -0.18939855230E+04  0.19033813870E+04  0.17300000000E+03 0.  1.
<mgrwt>
<rscale>  2 0.18889029E+03</rscale>
<asrwt>0</asrwt>
<pdfrwt beam="1">  1       21 0.15203339E-01 0.18889029E+03</pdfrwt>
<pdfrwt beam="2">  1       21 0.30668478E+00 0.18889029E+03</pdfrwt>
<totfact> 0.12019626E+03</totfact>
</mgrwt>
</event>
<event>
 4    2  0.3964208E+000  0.1883321E+03  0.7546771E-02  0.1159974E+00
         21   -1    0    0  501  502  0.00000000000E+00  0.00000000000E+00  0.54166014644E+02  0.54166014644E+02  0.00000000000E+00 0.  1.
         21   -1    0    0  502  503 -0.00000000000E+00 -0.00000000000E+00 -0.99341745249E+03  0.99341745249E+03  0.00000000000E+00 0.  1.
          6    1    1    2  501    0  0.56041643519E+02  0.48982660237E+02 -0.16382756334E+03  0.24961658062E+03  0.17300000000E+03 0.  1.
         -6    1    1    2    0  503 -0.56041643519E+02 -0.48982660237E+02 -0.77542387451E+03  0.79796688651E+03  0.17300000000E+03 0.  1.
<mgrwt>
<rscale>  2 0.18833207E+03</rscale>
<asrwt>0</asrwt>
<pdfrwt beam="1">  1       21 0.83332328E-02 0.18833207E+03</pdfrwt>
<pdfrwt beam="2">  1       21 0.15283346E+00 0.18833207E+03</pdfrwt>
<totfact> 0.31881481E+04</totfact>
</mgrwt>
</event>
<event>
 4    2  0.3964208E+000  0.2026542E+03  0.7546771E-02  0.1147519E+00
         21   -1    0    0  501  502  0.00000000000E+00  0.00000000000E+00  0.35918702232E+03  0.35918702232E+03  0.00000000000E+00 0. -1.
         21   -1    0    0  502  503 -0.00000000000E+00 -0.00000000000E+00 -0.16541249803E+03  0.16541249803E+03  0.00000000000E+00 0. -1.
          6    1    1    2  501    0  0.10330333120E+02 -0.10503822341E+03  0.24263961325E+03  0.31613719502E+03  0.17300000000E+03 0. -1.
         -6    1    1    2    0  503 -0.10330333120E+02  0.10503822341E+03 -0.48865088963E+02  0.20846232532E+03  0.17300000000E+03 0. -1.
<mgrwt>
<rscale>  2 0.20265425E+03</rscale>
<asrwt>0</asrwt>
<pdfrwt beam="1">  1       21 0.55259542E-01 0.20265425E+03</pdfrwt>
<pdfrwt beam="2">  1       21 0.25448077E-01 0.20265425E+03</pdfrwt>
<totfact> 0.44988982E+04</totfact>
</mgrwt>
</event>
<event>
 4    2  0.3964208E+000  0.1867320E+03  0.7546771E-02  0.1161442E+00
         21   -1    0    0  501  502  0.00000000000E+00  0.00000000000E+00  0.15004039939E+03  0.15004039939E+03  0.00000000000E+00 0.  1.
         21   -1    0    0  502  503 -0.00000000000E+00 -0.00000000000E+00 -0.34662511029E+03  0.34662511029E+03  0.00000000000E+00 0. -1.
          6    1    1    2  501    0  0.16538663506E+02  0.68310320905E+02  0.44265746024E+02  0.19190696601E+03  0.17300000000E+03 0.  1.
         -6    1    1    2    0  503 -0.16538663506E+02 -0.68310320905E+02 -0.24085045693E+03  0.30475854366E+03  0.17300000000E+03 0. -1.
<mgrwt>
<rscale>  2 0.18673197E+03</rscale>
<asrwt>0</asrwt>
<pdfrwt beam="1">  1       21 0.23083139E-01 0.18673197E+03</pdfrwt>
<pdfrwt beam="2">  1       21 0.53326940E-01 0.18673197E+03</pdfrwt>
<totfact> 0.58843891E+04</totfact>
</mgrwt>
</event>
<event>
 4    2  0.3964208E+000  0.1893862E+03  0.7546771E-02  0.1159016E+00
         21   -1    0    0  503  502  0.00000000000E+00  0.00000000000E+00  0.60102512979E+03  0.60102512979E+03  0.00000000000E+00 0.  1.
         21   -1    0    0  501  503 -0.00000000000E+00 -0.00000000000E+00 -0.66693541045E+02  0.66693541045E+02  0.00000000000E+00 0.  1.
          6    1    1    2  501    0 -0.76330475182E+02  0.10573541893E+02  0.15887406376E+03  0.24720054483E+03  0.17300000000E+03 0.  1.
         -6    1    1    2    0  502  0.76330475182E+02 -0.10573541893E+02  0.37545752498E+03  0.42051812600E+03  0.17300000000E+03 0.  1.
<mgrwt>
<rscale>  2 0.18938622E+03</rscale>
<asrwt>0</asrwt>
<pdfrwt beam="1">  1       21 0.92465401E-01 0.18938622E+03</pdfrwt>
<pdfrwt beam="2">  1       21 0.10260545E-01 0.18938622E+03</pdfrwt>
<totfact> 0.76617149E+04</totfact>
</mgrwt>
</event>
<event>
 4    2  0.3964208E+000  0.1786182E+03  0.7546771E-02  0.1169147E+00
         21   -1    0    0  503  502  0.00000000000E+00  0.00000000000E+00  0.43127709511E+02  0.43127709511E+02  0.00000000000E+00 0.  1.
         21   -1    0    0  501  503 -0.00000000000E+00 -0.00000000000E+00 -0.12852731976E+04  0.12852731976E+04  0.00000000000E+00 0.  1.
          6    1    1    2  501    0 -0.99664432629E+01  0.43314441664E+02 -0.10537869491E+04  0.10688177604E+04  0.17300000000E+03 0.  1.
         -6    1    1    2    0  502  0.99664432629E+01 -0.43314441664E+02 -0.18835853899E+03  0.25958314672E+03  0.17300000000E+03 0.  1.
<mgrwt>
<rscale>  2 0.17861823E+03</rscale>
<asrwt>0</asrwt>
<pdfrwt beam="1">  1       21 0.66350323E-02 0.17861823E+03</pdfrwt>
<pdfrwt beam="2">  1       21 0.19773434E+00 0.17861823E+03</pdfrwt>
<totfact> 0.23280072E+04</totfact>
</mgrwt>
</event>
<event>
 4    2  0.3964208E+000  0.2584446E+03  0.7546771E-02  0.1108081E+00
         21   -1    0    0  503  502  0.00000000000E+00  0.00000000000E+00  0.46164589416E+03  0.46164589416E+03  0.00000000000E+00 0.  1.
         21   -1    0    0  501  503 -0.00000000000E+00 -0.00000000000E+00 -0.63186095361E+03  0.63186095361E+03  0.00000000000E+00 0.  1.
          6    1    1    2  501    0 -0.77624225940E+02 -0.17561068508E+03 -0.56519822703E+03  0.62148424678E+03  0.17300000000E+03 0.  1.
         -6    1    1    2    0  502  0.77624225940E+02  0.17561068508E+03  0.39498316758E+03  0.47202260098E+03  0.17300000000E+03 0.  1.
<mgrwt>
<rscale>  2 0.25844464E+03</rscale>
<asrwt>0</asrwt>
<pdfrwt beam="1">  1       21 0.71022446E-01 0.25844464E+03</pdfrwt>
<pdfrwt beam="2">  1       21 0.97209377E-01 0.25844464E+03</pdfrwt>
<totfact> 0.14910158E+03</totfact>
</mgrwt>
</event>
<event>
 4    2  0.3964208E+000  0.1954316E+03  0.7546771E-02  0.1153652E+00
         21   -1    0    0  503  502  0.00000000000E+00  0.00000000000E+00  0.37179928041E+03  0.37179928041E+03  0.00000000000E+00 0. -1.
         21   -1    0    0  501  503 -0.00000000000E+00 -0.00000000000E+00 -0.11151127413E+03  0.11151127413E+03  0.00000000000E+00 0. -1.
          6    1    1    2  501    0 -0.71049015362E+02 -0.56714540910E+02  0.62315644856E+02  0.20512615954E+03  0.17300000000E+03 0. -1.
         -6    1    1    2    0  502  0.71049015362E+02  0.56714540910E+02  0.19797236142E+03  0.27818439500E+03  0.17300000000E+03 0. -1.
<mgrwt>
<rscale>  2 0.19543158E+03</rscale>
<asrwt>0</asrwt>
<pdfrwt beam="1">  1       21 0.57199889E-01 0.19543158E+03</pdfrwt>
<pdfrwt beam="2">  1       21 0.17155581E-01 0.19543158E+03</pdfrwt>
<totfact> 0.87949506E+04</totfact>
</mgrwt>
</event>
<event>
 4    2  0.3964208E+000  0.2031004E+03  0.7546771E-02  0.1147149E+00
         21   -1    0    0  501  502  0.00000000000E+00  0.00000000000E+00  0.32942071465E+03  0.32942071465E+03  0.00000000000E+00 0.  1.
         21   -1    0    0  502  503 -0.00000000000E+00 -0.00000000000E+00 -0.12522252598E+03  0.12522252598E+03  0.00000000000E+00 0.  1.
          6    1    1    2  501    0  0.10607624087E+03  0.82820860424E+01  0.10329000930E+03  0.22785650714E+03  0.17300000000E+03 0.  1.
         -6    1    1    2    0  503 -0.10607624087E+03 -0.82820860424E+01  0.10090817936E+03  0.22678673349E+03  0.17300000000E+03 0.  1.
<mgrwt>
<rscale>  2 0.20310037E+03</rscale>
<asrwt>0</asrwt>
<pdfrwt beam="1">  1       21 0.50680109E-01 0.20310037E+03</pdfrwt>
<pdfrwt beam="2">  1       21 0.19265004E-01 0.20310037E+03</pdfrwt>
<totfact> 0.91295812E+04</totfact>
</mgrwt>
</event>
<event>
 4    2  0.3964208E+000  0.1972711E+03  0.7546771E-02  0.1152062E+00
         21   -1    0    0  501  502  0.00000000000E+00  0.00000000000E+00  0.11028896437E+04  0.11028896437E+04  0.00000000000E+00 0. -1.
         21   -1    0    0  502  503 -0.00000000000E+00 -0.00000000000E+00 -0.59394250936E+02  0.59394250936E+02  0.00000000000E+00 0. -1.
          6    1    1    2  501    0  0.15211127904E+02  0.93570843160E+02  0.89200057860E+03  0.91355400132E+03  0.17300000000E+03 0. -1.
         -6    1    1    2    0  503 -0.15211127904E+02 -0.93570843160E+02  0.15149481412E+03  0.24872989327E+03  0.17300000000E+03 0. -1.
<mgrwt>
<rscale>  2 0.19727109E+03</rscale>
<asrwt>0</asrwt>
<pdfrwt beam="1">  1       21 0.16967531E+00 0.19727109E+03</pdfrwt>
<pdfrwt beam="2">  1       21 0.91375779E-02 0.19727109E+03</pdfrwt>
<totfact> 0.20336622E+04</totfact>
</mgrwt>
</event>
<event>
 4    2  0.3964208E+000  0.1869026E+03  0.7546771E-02  0.1161285E+00
         21   -1    0    0  501  502  0.00000000000E+00  0.00000000000E+00  0.19196626813E+03  0.19196626813E+03  0.00000000000E+00 0. -1.
         21   -1    0    0  502  503 -0.00000000000E+00 -0.00000000000E+00 -0.25789894774E+03  0.25789894774E+03  0.00000000000E+00 0.  1.
          6    1    1    2  501    0  0.61843644959E+02  0.34335547169E+02  0.89079900526E+02  0.20704539333E+03  0.17300000000E+03 0. -1.
         -6    1    1    2    0  503 -0.61843644959E+02 -0.34335547169E+02 -0.15501258013E+03  0.24281982255E+03  0.17300000000E+03 0.  1.
<mgrwt>
<rscale>  2 0.18690256E+03</rscale>
<asrwt>0</asrwt>
<pdfrwt beam="1">  1       21 0.29533272E-01 0.18690256E+03</pdfrwt>
<pdfrwt beam="2">  1       21 0.39676761E-01 0.18690256E+03</pdfrwt>
<totfact> 0.67436764E+04</totfact>
</mgrwt>
</event>
<event>
 4    2  0.3964208E+000  0.1859108E+03  0.7546771E-02  0.1162202E+00
         21   -1    0    0  501  502  0.00000000000E+00  0.00000000000E+00  0.42143953842E+02  0.42143953842E+02  0.00000000000E+00 0. -1.
         21   -1    0    0  502  503 -0.00000000000E+00 -0.00000000000E+00 -0.10948839267E+04  0.10948839267E+04  0.00000000000E+00 0. -1.
          6    1    1    2  501    0  0.60562251802E+02 -0.31080922632E+02 -0.24156842832E+03  0.30482472940E+03  0.17300000000E+03 0. -1.
         -6    1    1    2    0  503 -0.60562251802E+02  0.31080922632E+02 -0.81117154457E+03  0.83220315117E+03  0.17300000000E+03 0. -1.
<mgrwt>
<rscale>  2 0.18591076E+03</rscale>
<asrwt>0</asrwt>
<pdfrwt beam="1">  1       21 0.64836859E-02 0.18591076E+03</pdfrwt>
<pdfrwt beam="2">  1       21 0.16844366E+00 0.18591076E+03</pdfrwt>
<totfact> 0.37935080E+04</totfact>
</mgrwt>
</event>
<event>
 4    2  0.3964208E+000  0.2887631E+03  0.7546771E-02  0.1090997E+00
         21   -1    0    0  503  502  0.00000000000E+00  0.00000000000E+00  0.30445916300E+03  0.30445916300E+03  0.00000000000E+00 0.  1.
         21   -1    0    0  501  503 -0.00000000000E+00 -0.00000000000E+00 -0.14110614313E+04  0.14110614313E+04  0.00000000000E+00 0. -1.
          6    1    1    2  501    0 -0.17467225282E+03 -0.15147526761E+03 -0.13233327624E+04  0.13544717615E+04  0.17300000000E+03 0. -1.
         -6    1    1    2    0  502  0.17467225282E+03  0.15147526761E+03  0.21673049410E+03  0.36104883282E+03  0.17300000000E+03 0.  1.
<mgrwt>
<rscale>  2 0.28876314E+03</rscale>
<asrwt>0</asrwt>
<pdfrwt beam="1">  1       21 0.46839871E-01 0.28876314E+03</pdfrwt>
<pdfrwt beam="2">  1       21 0.21708637E+00 0.28876314E+03</pdfrwt>
<totfact> 0.41405580E+02</totfact>
</mgrwt>
</event>
<event>
 4    2  0.3964208E+000  0.1883779E+03  0.7546771E-02  0.1159933E+00
         21   -1    0    0  501  502  0.00000000000E+00  0.00000000000E+00  0.20832063019E+04  0.20832063019E+04  0.00000000000E+00 0.  1.
         21   -1    0    0  502  503 -0.00000000000E+00 -0.00000000000E+00 -0.19134789444E+02  0.19134789444E+02  0.00000000000E+00 0.  1.
          6    1    1    2  501    0 -0.13718116587E+02  0.73273790070E+02  0.13802992858E+04  0.13930945242E+04  0.17300000000E+03 0.  1.
         -6    1    1    2    0  503  0.13718116587E+02 -0.73273790070E+02  0.68377222672E+03  0.70924656719E+03  0.17300000000E+03 0.  1.
<mgrwt>
<rscale>  2 0.18837790E+03</rscale>
<asrwt>0</asrwt>
<pdfrwt beam="1">  1       21 0.32049310E+00 0.18837790E+03</pdfrwt>
<pdfrwt beam="2">  1       21 0.29438154E-02 0.18837790E+03</pdfrwt>
<totfact> 0.17053604E+04</totfact>
</mgrwt>
</event>
<event>
 4    2  0.3964208E+000  0.3136599E+03  0.7546771E-02  0.1078605E+00
         21   -1    0    0  503  502  0.00000000000E+00  0.00000000000E+00  0.76173666046E+03  0.76173666046E+03  0.00000000000E+00 0. -1.
         21   -1    0    0  501  503 -0.00000000000E+00 -0.00000000000E+00 -0.16555387505E+03  0.16555387505E+03  0.00000000000E+00 0. -1.
          6    1    1    2  501    0  0.18175888067E+03 -0.18819463570E+03  0.80692713813E+02  0.32387316294E+03  0.17300000000E+03 0. -1.
         -6    1    1    2    0  502 -0.18175888067E+03  0.18819463570E+03  0.51549007159E+03  0.60341737257E+03  0.17300000000E+03 0. -1.
<mgrwt>
<rscale>  2 0.31365987E+03</rscale>
<asrwt>0</asrwt>
<pdfrwt beam="1">  1       21 0.11719025E+00 0.31365987E+03</pdfrwt>
<pdfrwt beam="2">  1       21 0.25469827E-01 0.31365987E+03</pdfrwt>
<totfact> 0.76128041E+03</totfact>
</mgrwt>
</event>
<event>
 4    2  0.3964208E+000  0.1931791E+03  0.7546771E-02  0.1155625E+00
         21   -1    0    0  503  502  0.00000000000E+00  0.00000000000E+00  0.11267158404E+04  0.11267158404E+04  0.00000000000E+00 0.  1.
         21   -1    0    0  501  503 -0.00000000000E+00 -0.00000000000E+00 -0.73563309012E+02  0.73563309012E+02  0.00000000000E+00 0.  1.
          6    1    1    2  501    0 -0.36822115120E+02 -0.77674226541E+02  0.81598137626E+02  0.20970553091E+03  0.17300000000E+03 0.  1.
         -6    1    1    2    0  502  0.36822115120E+02  0.77674226541E+02  0.97155439375E+03  0.99057361848E+03  0.17300000000E+03 0.  1.
<mgrwt>
<rscale>  2 0.19317907E+03</rscale>
<asrwt>0</asrwt>
<pdfrwt beam="1">  1       21 0.17334089E+00 0.19317907E+03</pdfrwt>
<pdfrwt beam="2">  1       21 0.11317433E-01 0.19317907E+03</pdfrwt>
<totfact> 0.13169655E+04</totfact>
</mgrwt>
</event>
<event>
 4    2  0.3964208E+000  0.1776386E+03  0.7546771E-02  0.1170108E+00
         21   -1    0    0  503  502  0.00000000000E+00  0.00000000000E+00  0.17001738586E+03  0.17001738586E+03  0.00000000000E+00 0.  1.
         21   -1    0    0  501  503 -0.00000000000E+00 -0.00000000000E+00 -0.63759383182E+03  0.63759383182E+03  0.00000000000E+00 0.  1.
          6    1    1    2  501    0  0.15516642367E+02 -0.37225304185E+02 -0.57377795833E+03  0.60064684710E+03  0.17300000000E+03 0.  1.
         -6    1    1    2    0  502 -0.15516642367E+02  0.37225304185E+02  0.10620151237E+03  0.20696437059E+03  0.17300000000E+03 0.  1.
<mgrwt>
<rscale>  2 0.17763865E+03</rscale>
<asrwt>0</asrwt>
<pdfrwt beam="1">  1       21 0.26156521E-01 0.17763865E+03</pdfrwt>
<pdfrwt beam="2">  1       21 0.98091357E-01 0.17763865E+03</pdfrwt>
<totfact> 0.12059489E+04</totfact>
</mgrwt>
</event>
<event>
 4    2  0.3964208E+000  0.2883077E+03  0.7546771E-02  0.1091236E+00
         21   -1    0    0  503  502  0.00000000000E+00  0.00000000000E+00  0.20024858473E+04  0.20024858473E+04  0.00000000000E+00 0. -1.
         21   -1    0    0  501  503 -0.00000000000E+00 -0.00000000000E+00 -0.53696946240E+02  0.53696946240E+02  0.00000000000E+00 0.  1.
          6    1    1    2  501    0  0.12461226925E+03 -0.19407251296E+03  0.48459233388E+03  0.56387151728E+03  0.17300000000E+03 0.  1.
         -6    1    1    2    0  502 -0.12461226925E+03  0.19407251296E+03  0.14641965672E+04  0.14923112763E+04  0.17300000000E+03 0. -1.
<mgrwt>
<rscale>  2 0.28830775E+03</rscale>
<asrwt>0</asrwt>
<pdfrwt beam="1">  1       21 0.30807469E+00 0.28830775E+03</pdfrwt>
<pdfrwt beam="2">  1       21 0.82610702E-02 0.28830775E+03</pdfrwt>
<totfact> 0.31625919E+03</totfact>
</mgrwt>
</event>
<event>
 4    2  0.3964208E+000  0.2634978E+03  0.7546771E-02  0.1105060E+00
         21   -1    0    0  501  502  0.00000000000E+00  0.00000000000E+00  0.80082696474E+03  0.80082696474E+03  0.00000000000E+00 0. -1.
         21   -1    0    0  502  503 -0.00000000000E+00 -0.00000000000E+00 -0.17111002766E+03  0.17111002766E+03  0.00000000000E+00 0.  1.
          6    1    1    2  501    0 -0.19875094280E+03  0.41832050420E+00  0.65618440299E+03  0.70711320380E+03  0.17300000000E+03 0. -1.
         -6    1    1    2    0  503  0.19875094280E+03 -0.41832050420E+00 -0.26467465912E+02  0.26482378860E+03  0.17300000000E+03 0.  1.
<mgrwt>
<rscale>  2 0.26349784E+03</rscale>
<asrwt>0</asrwt>
<pdfrwt beam="1">  1       21 0.12320415E+00 0.26349784E+03</pdfrwt>
<pdfrwt beam="2">  1       21 0.26324620E-01 0.26349784E+03</pdfrwt>
<totfact> 0.64664674E+03</totfact>
</mgrwt>
</event>
<event>
 4    2  0.3964208E+000  0.2362475E+03  0.7546771E-02  0.1122318E+00
         21   -1    0    0  503  502  0.00000000000E+00  0.00000000000E+00  0.68648884956E+03  0.68648884956E+03  0.00000000000E+00 0. -1.
         21   -1    0    0  501  503 -0.00000000000E+00 -0.00000000000E+00 -0.81350186499E+02  0.81350186499E+02  0.00000000000E+00 0. -1.
          6    1    1    2  501    0 -0.70861063903E+02 -0.14443893195E+03  0.29322256390E+03  0.37655327302E+03  0.17300000000E+03 0. -1.
         -6    1    1    2    0  502  0.70861063903E+02  0.14443893195E+03  0.31191609916E+03  0.39128576304E+03  0.17300000000E+03 0. -1.
<mgrwt>
<rscale>  2 0.23624753E+03</rscale>
<asrwt>0</asrwt>
<pdfrwt beam="1">  1       21 0.10561367E+00 0.23624753E+03</pdfrwt>
<pdfrwt beam="2">  1       21 0.12515414E-01 0.23624753E+03</pdfrwt>
<totfact> 0.38338280E+04</totfact>
</mgrwt>
</event>
<event>
 4    2  0.3964208E+000  0.1742960E+03  0.7546771E-02  0.1173440E+00
         21   -1    0    0  501  502  0.00000000000E+00  0.00000000000E+00  0.98329706766E+02  0.98329706766E+02  0.00000000000E+00 0.  1.
         21   -1    0    0  502  503 -0.00000000000E+00 -0.00000000000E+00 -0.32873784155E+03  0.32873784155E+03  0.00000000000E+00 0.  1.
          6    1    1    2  501    0  0.20858180926E+02 -0.38774621552E+01 -0.62816791749E+02  0.18527020200E+03  0.17300000000E+03 0.  1.
         -6    1    1    2    0  503 -0.20858180926E+02  0.38774621552E+01 -0.16759134303E+03  0.24179734631E+03  0.17300000000E+03 0.  1.
<mgrwt>
<rscale>  2 0.17429601E+03</rscale>
<asrwt>0</asrwt>
<pdfrwt beam="1">  1       21 0.15127647E-01 0.17429601E+03</pdfrwt>
<pdfrwt beam="2">  1       21 0.50575053E-01 0.17429601E+03</pdfrwt>
<totfact> 0.14460063E+05</totfact>
</mgrwt>
</event>
<event>
 4    2  0.3964208E+000  0.1772465E+03  0.7546771E-02  0.1170495E+00
         21   -1    0    0  503  502  0.00000000000E+00  0.00000000000E+00  0.36991552620E+04  0.36991552620E+04  0.00000000000E+00 0.  1.
         21   -1    0    0  501  503 -0.00000000000E+00 -0.00000000000E+00 -0.85013115776E+01  0.85013115776E+01  0.00000000000E+00 0.  1.
          6    1    1    2  501    0  0.20782271309E+02 -0.32487135725E+02  0.17867905284E+04  0.17955602772E+04  0.17300000000E+03 0.  1.
         -6    1    1    2    0  502 -0.20782271309E+02  0.32487135725E+02  0.19038634220E+04  0.19120962963E+04  0.17300000000E+03 0.  1.
<mgrwt>
<rscale>  2 0.17724649E+03</rscale>
<asrwt>0</asrwt>
<pdfrwt beam="1">  1       21 0.56909952E+00 0.17724649E+03</pdfrwt>
<pdfrwt beam="2">  1       21 0.13078970E-02 0.17724649E+03</pdfrwt>
<totfact> 0.14780607E+03</totfact>
</mgrwt>
</event>
<event>
 4    2  0.3964208E+000  0.2029616E+03  0.7546771E-02  0.1147264E+00
         21   -1    0    0  501  502  0.00000000000E+00  0.00000000000E+00  0.42375615616E+03  0.42375615616E+03  0.00000000000E+00 0.  1.
         21   -1    0    0  502  503 -0.00000000000E+00 -0.00000000000E+00 -0.17060532333E+03  0.17060532333E+03  0.00000000000E+00 0.  1.
          6    1    1    2  501    0  0.90669765180E+02 -0.55166885695E+02  0.32149621221E+03  0.38020153348E+03  0.17300000000E+03 0.  1.
         -6    1    1    2    0  503 -0.90669765180E+02  0.55166885695E+02 -0.68345379378E+02  0.21415994602E+03  0.17300000000E+03 0.  1.
<mgrwt>
<rscale>  2 0.20296155E+03</rscale>
<asrwt>0</asrwt>
<pdfrwt beam="1">  1       21 0.65193255E-01 0.20296155E+03</pdfrwt>
<pdfrwt beam="2">  1       21 0.26246973E-01 0.20296155E+03</pdfrwt>
<totfact> 0.29711193E+04</totfact>
</mgrwt>
</event>
<event>
 4    2  0.3964208E+000  0.2171640E+03  0.7546771E-02  0.1136015E+00
         21   -1    0    0  503  502  0.00000000000E+00  0.00000000000E+00  0.22164508104E+03  0.22164508104E+03  0.00000000000E+00 0. -1.
         21   -1    0    0  501  503 -0.00000000000E+00 -0.00000000000E+00 -0.25586498187E+03  0.25586498187E+03  0.00000000000E+00 0.  1.
          6    1    1    2  501    0  0.10405075166E+03 -0.80028960595E+02 -0.11509119739E+03  0.24577668150E+03  0.17300000000E+03 0. -1.
         -6    1    1    2    0  502 -0.10405075166E+03  0.80028960595E+02  0.80871296557E+02  0.23173338141E+03  0.17300000000E+03 0. -1.
<mgrwt>
<rscale>  2 0.21716398E+03</rscale>
<asrwt>0</asrwt>
<pdfrwt beam="1">  1       21 0.34099243E-01 0.21716398E+03</pdfrwt>
<pdfrwt beam="2">  1       21 0.39363843E-01 0.21716398E+03</pdfrwt>
<totfact> 0.50961591E+04</totfact>
</mgrwt>
</event>
<event>
 4    2  0.3964208E+000  0.2057610E+03  0.7546771E-02  0.1144967E+00
         21   -1    0    0  501  502  0.00000000000E+00  0.00000000000E+00  0.15555619780E+03  0.15555619780E+03  0.00000000000E+00 0. -1.
         21   -1    0    0  502  503 -0.00000000000E+00 -0.00000000000E+00 -0.38721804768E+03  0.38721804768E+03  0.00000000000E+00 0. -1.
          6    1    1    2  501    0 -0.79516138366E+02  0.78011354396E+02  0.32097897100E+02  0.20824952022E+03  0.17300000000E+03 0. -1.
         -6    1    1    2    0  503  0.79516138366E+02 -0.78011354396E+02 -0.26375974698E+03  0.33452472525E+03  0.17300000000E+03 0. -1.
<mgrwt>
<rscale>  2 0.20576100E+03</rscale>
<asrwt>0</asrwt>
<pdfrwt beam="1">  1       21 0.23931723E-01 0.20576100E+03</pdfrwt>
<pdfrwt beam="2">  1       21 0.59572006E-01 0.20576100E+03</pdfrwt>
<totfact> 0.43025925E+04</totfact>
</mgrwt>
</event>
<event>
 4    2  0.3964208E+000  0.4080991E+03  0.7546771E-02  0.1041011E+00
         21   -1    0    0  503  502  0.00000000000E+00  0.00000000000E+00  0.86706617564E+03  0.86706617564E+03  0.00000000000E+00 0.  1.
         21   -1    0    0  501  503 -0.00000000000E+00 -0.00000000000E+00 -0.25263897347E+03  0.25263897347E+03  0.00000000000E+00 0. -1.
          6    1    1    2  501    0  0.35982486673E+03  0.84509763019E+02  0.33108024913E+02  0.40943983206E+03  0.17300000000E+03 0. -1.
         -6    1    1    2    0  502 -0.35982486673E+03 -0.84509763019E+02  0.58131917726E+03  0.71026531706E+03  0.17300000000E+03 0.  1.
<mgrwt>
<rscale>  2 0.40809905E+03</rscale>
<asrwt>0</asrwt>
<pdfrwt beam="1">  1       21 0.13339479E+00 0.40809905E+03</pdfrwt>
<pdfrwt beam="2">  1       21 0.38867535E-01 0.40809905E+03</pdfrwt>
<totfact> 0.22621079E+03</totfact>
</mgrwt>
</event>
<event>
 4    2  0.3964208E+000  0.1928951E+03  0.7546771E-02  0.1155876E+00
         21   -1    0    0  503  502  0.00000000000E+00  0.00000000000E+00  0.54006452074E+02  0.54006452074E+02  0.00000000000E+00 0. -1.
         21   -1    0    0  501  503 -0.00000000000E+00 -0.00000000000E+00 -0.78926328567E+03  0.78926328567E+03  0.00000000000E+00 0. -1.
          6    1    1    2  501    0  0.18211288107E+02  0.83353923199E+02 -0.21732341421E+03  0.29058216375E+03  0.17300000000E+03 0. -1.
         -6    1    1    2    0  502 -0.18211288107E+02 -0.83353923199E+02 -0.51793341939E+03  0.55268757399E+03  0.17300000000E+03 0. -1.
<mgrwt>
<rscale>  2 0.19289512E+03</rscale>
<asrwt>0</asrwt>
<pdfrwt beam="1">  1       21 0.83086853E-02 0.19289512E+03</pdfrwt>
<pdfrwt beam="2">  1       21 0.12142511E+00 0.19289512E+03</pdfrwt>
<totfact> 0.57608384E+04</totfact>
</mgrwt>
</event>
<event>
 4    2  0.3964208E+000  0.1900017E+03  0.7546771E-02  0.1158460E+00
         21   -1    0    0  503  502  0.00000000000E+00  0.00000000000E+00  0.70556639475E+03  0.70556639475E+03  0.00000000000E+00 0. -1.
         21   -1    0    0  501  503 -0.00000000000E+00 -0.00000000000E+00 -0.72482509619E+02  0.72482509619E+02  0.00000000000E+00 0. -1.
          6    1    1    2  501    0 -0.14110496503E+02  0.77282235089E+02  0.10557056615E+03  0.21736097720E+03  0.17300000000E+03 0.  1.
         -6    1    1    2    0  502  0.14110496503E+02 -0.77282235089E+02  0.52751331898E+03  0.56068792717E+03  0.17300000000E+03 0.  1.
<mgrwt>
<rscale>  2 0.19000171E+03</rscale>
<asrwt>0</asrwt>
<pdfrwt beam="1">  1       21 0.10854867E+00 0.19000171E+03</pdfrwt>
<pdfrwt beam="2">  1       21 0.11151156E-01 0.19000171E+03</pdfrwt>
<totfact> 0.45173985E+04</totfact>
</mgrwt>
</event>
<event>
 4    2  0.3964208E+000  0.2035617E+03  0.7546771E-02  0.1146768E+00
         21   -1    0    0  501  502  0.00000000000E+00  0.00000000000E+00  0.46449467127E+02  0.46449467127E+02  0.00000000000E+00 0. -1.
         21   -1    0    0  502  503 -0.00000000000E+00 -0.00000000000E+00 -0.14487069334E+04  0.14487069334E+04  0.00000000000E+00 0.  1.
          6    1    1    2  501    0 -0.74219996420E+02  0.77458036262E+02 -0.23774320560E+03  0.31298432399E+03  0.17300000000E+03 0. -1.
         -6    1    1    2    0  503  0.74219996420E+02 -0.77458036262E+02 -0.11645142607E+04  0.11821720765E+04  0.17300000000E+03 0.  1.
<mgrwt>
<rscale>  2 0.20356167E+03</rscale>
<asrwt>0</asrwt>
<pdfrwt beam="1">  1       21 0.71460719E-02 0.20356167E+03</pdfrwt>
<pdfrwt beam="2">  1       21 0.22287799E+00 0.20356167E+03</pdfrwt>
<totfact> 0.13970841E+04</totfact>
</mgrwt>
</event>
<event>
 4    2  0.3964208E+000  0.2359557E+03  0.7546771E-02  0.1122517E+00
         21   -1    0    0  503  502  0.00000000000E+00  0.00000000000E+00  0.16888746366E+03  0.16888746366E+03  0.00000000000E+00 0. -1.
         21   -1    0    0  501  503 -0.00000000000E+00 -0.00000000000E+00 -0.76224928945E+03  0.76224928945E+03  0.00000000000E+00 0.  1.
          6    1    1    2  501    0  0.12330271823E+03 -0.10267678795E+03 -0.64741171233E+03  0.68906966873E+03  0.17300000000E+03 0.  1.
         -6    1    1    2    0  502 -0.12330271823E+03  0.10267678795E+03  0.54049886542E+02  0.24206708438E+03  0.17300000000E+03 0. -1.
<mgrwt>
<rscale>  2 0.23595568E+03</rscale>
<asrwt>0</asrwt>
<pdfrwt beam="1">  1       21 0.25982687E-01 0.23595568E+03</pdfrwt>
<pdfrwt beam="2">  1       21 0.11726912E+00 0.23595568E+03</pdfrwt>
<totfact> 0.76286582E+03</totfact>
</mgrwt>
</event>
<event>
 4    2  0.3964208E+000  0.4392126E+03  0.7546771E-02  0.1030989E+00
         21   -1    0    0  501  502  0.00000000000E+00  0.00000000000E+00  0.11005503226E+04  0.11005503226E+04  0.00000000000E+00 0. -1.
         21   -1    0    0  502  503 -0.00000000000E+00 -0.00000000000E+00 -0.30646226655E+03  0.30646226655E+03  0.00000000000E+00 0.  1.
          6    1    1    2  501    0 -0.32890020436E+03  0.23410115977E+03  0.85731350947E+03  0.96327262546E+03  0.17300000000E+03 0. -1.
         -6    1    1    2    0  503  0.32890020436E+03 -0.23410115977E+03 -0.63225453404E+02  0.44373996371E+03  0.17300000000E+03 0.  1.
<mgrwt>
<rscale>  2 0.43921259E+03</rscale>
<asrwt>0</asrwt>
<pdfrwt beam="1">  1       21 0.16931543E+00 0.43921259E+03</pdfrwt>
<pdfrwt beam="2">  1       21 0.47148041E-01 0.43921259E+03</pdfrwt>
<totfact> 0.78123118E+02</totfact>
</mgrwt>
</event>
<event>
 4    2  0.3964208E+000  0.2621279E+03  0.7546771E-02  0.1105871E+00
         21   -1    0    0  503  502  0.00000000000E+00  0.00000000000E+00  0.30166067063E+03  0.30166067063E+03  0.00000000000E+00 0.  1.
         21   -1    0    0  501  503 -0.00000000000E+00 -0.00000000000E+00 -0.48555437349E+03  0.48555437349E+03  0.00000000000E+00 0. -1.
          6    1    1    2  501    0 -0.10327280729E+03 -0.16768058658E+03 -0.37873930482E+03  0.46060233701E+03  0.17300000000E+03 0. -1.
         -6    1    1    2    0  502  0.10327280729E+03  0.16768058658E+03  0.19484560196E+03  0.32661270711E+03  0.17300000000E+03 0.  1.
<mgrwt>
<rscale>  2 0.26212793E+03</rscale>
<asrwt>0</asrwt>
<pdfrwt beam="1">  1       21 0.46409334E-01 0.26212793E+03</pdfrwt>
<pdfrwt beam="2">  1       21 0.74700672E-01 0.26212793E+03</pdfrwt>
<totfact> 0.68187335E+03</totfact>
</mgrwt>
</event>
<event>
 4    2  0.3964208E+000  0.2015009E+03  0.7546771E-02  0.1148479E+00
         21   -1    0    0  501  502  0.00000000000E+00  0.00000000000E+00  0.93245160101E+03  0.93245160101E+03  0.00000000000E+00 0. -1.
         21   -1    0    0  502  503 -0.00000000000E+00 -0.00000000000E+00 -0.68669146950E+02  0.68669146950E+02  0.00000000000E+00 0. -1.
          6    1    1    2  501    0  0.42344743052E+02  0.94236502603E+02  0.12910880575E+03  0.23931502128E+03  0.17300000000E+03 0. -1.
         -6    1    1    2    0  503 -0.42344743052E+02 -0.94236502603E+02  0.73467364831E+03  0.76180572668E+03  0.17300000000E+03 0. -1.
<mgrwt>
<rscale>  2 0.20150086E+03</rscale>
<asrwt>0</asrwt>
<pdfrwt beam="1">  1       21 0.14345408E+00 0.20150086E+03</pdfrwt>
<pdfrwt beam="2">  1       21 0.10564485E-01 0.20150086E+03</pdfrwt>
<totfact> 0.24593333E+04</totfact>
</mgrwt>
</event>
<event>
 4    2  0.3964208E+000  0.2319910E+03  0.7546771E-02  0.1125246E+00
         21   -1    0    0  503  502  0.00000000000E+00  0.00000000000E+00  0.44276906974E+03  0.44276906974E+03  0.00000000000E+00 0. -1.
         21   -1    0    0  501  503 -0.00000000000E+00 -0.00000000000E+00 -0.20526392158E+03  0.20526392158E+03  0.00000000000E+00 0. -1.
          6    1    1    2  501    0 -0.15146901418E+03  0.30789065449E+02 -0.88167363897E+02  0.24818000094E+03  0.17300000000E+03 0. -1.
         -6    1    1    2    0  502  0.15146901418E+03 -0.30789065449E+02  0.32567251206E+03  0.39985299038E+03  0.17300000000E+03 0. -1.
<mgrwt>
<rscale>  2 0.23199101E+03</rscale>
<asrwt>0</asrwt>
<pdfrwt beam="1">  1       21 0.68118318E-01 0.23199101E+03</pdfrwt>
<pdfrwt beam="2">  1       21 0.31579065E-01 0.23199101E+03</pdfrwt>
<totfact> 0.18536527E+04</totfact>
</mgrwt>
</event>
<event>
 4    2  0.3964208E+000  0.1821541E+03  0.7546771E-02  0.1165734E+00
         21   -1    0    0  501  502  0.00000000000E+00  0.00000000000E+00  0.10729957522E+03  0.10729957522E+03  0.00000000000E+00 0.  1.
         21   -1    0    0  502  503 -0.00000000000E+00 -0.00000000000E+00 -0.99248084117E+03  0.99248084117E+03  0.00000000000E+00 0.  1.
          6    1    1    2  501    0 -0.31711964144E+02 -0.47386502104E+02  0.13661973588E+02  0.18266575698E+03  0.17300000000E+03 0.  1.
         -6    1    1    2    0  503  0.31711964144E+02  0.47386502104E+02 -0.89884323954E+03  0.91711465941E+03  0.17300000000E+03 0.  1.
<mgrwt>
<rscale>  2 0.18215414E+03</rscale>
<asrwt>0</asrwt>
<pdfrwt beam="1">  1       21 0.16507626E-01 0.18215414E+03</pdfrwt>
<pdfrwt beam="2">  1       21 0.15268937E+00 0.18215414E+03</pdfrwt>
<totfact> 0.94682555E+03</totfact>
</mgrwt>
</event>
<event>
 4    2  0.3964208E+000  0.1816313E+03  0.7546771E-02  0.1166234E+00
         21   -1    0    0  501  502  0.00000000000E+00  0.00000000000E+00  0.63918793529E+02  0.63918793529E+02  0.00000000000E+00 0. -1.
         21   -1    0    0  502  503 -0.00000000000E+00 -0.00000000000E+00 -0.79239248029E+03  0.79239248029E+03  0.00000000000E+00 0. -1.
          6    1    1    2  501    0  0.53903236349E+02  0.12464883333E+02 -0.61704919246E+03  0.64322596195E+03  0.17300000000E+03 0. -1.
         -6    1    1    2    0  503 -0.53903236349E+02 -0.12464883333E+02 -0.11142449430E+03  0.21308531187E+03  0.17300000000E+03 0. -1.
<mgrwt>
<rscale>  2 0.18163131E+03</rscale>
<asrwt>0</asrwt>
<pdfrwt beam="1">  1       21 0.98336613E-02 0.18163131E+03</pdfrwt>
<pdfrwt beam="2">  1       21 0.12190653E+00 0.18163131E+03</pdfrwt>
<totfact> 0.42698963E+04</totfact>
</mgrwt>
</event>
<event>
 4    2  0.3964208E+000  0.1769444E+03  0.7546771E-02  0.1170793E+00
         21   -1    0    0  501  502  0.00000000000E+00  0.00000000000E+00  0.43787989398E+03  0.43787989398E+03  0.00000000000E+00 0. -1.
         21   -1    0    0  502  503 -0.00000000000E+00 -0.00000000000E+00 -0.72729604963E+02  0.72729604963E+02  0.00000000000E+00 0. -1.
          6    1    1    2  501    0  0.24575411224E+02  0.27863237121E+02  0.21574346275E+03  0.27902428665E+03  0.17300000000E+03 0. -1.
         -6    1    1    2    0  503 -0.24575411224E+02 -0.27863237121E+02  0.14940682627E+03  0.23158521230E+03  0.17300000000E+03 0. -1.
<mgrwt>
<rscale>  2 0.17694437E+03</rscale>
<asrwt>0</asrwt>
<pdfrwt beam="1">  1       21 0.67366136E-01 0.17694437E+03</pdfrwt>
<pdfrwt beam="2">  1       21 0.11189170E-01 0.17694437E+03</pdfrwt>
<totfact> 0.13476221E+05</totfact>
</mgrwt>
</event>
<event>
 4    2  0.3964208E+000  0.2343388E+03  0.7546771E-02  0.1123623E+00
         21   -1    0    0  501  502  0.00000000000E+00  0.00000000000E+00  0.20553222800E+03  0.20553222800E+03  0.00000000000E+00 0. -1.
         21   -1    0    0  502  503 -0.00000000000E+00 -0.00000000000E+00 -0.30606920726E+03  0.30606920726E+03  0.00000000000E+00 0. -1.
          6    1    1    2  501    0  0.15031650364E+03  0.48893952654E+02  0.40909711630E+02  0.23788290056E+03  0.17300000000E+03 0. -1.
         -6    1    1    2    0  503 -0.15031650364E+03 -0.48893952654E+02 -0.14144669089E+03  0.27371853470E+03  0.17300000000E+03 0. -1.
<mgrwt>
<rscale>  2 0.23433879E+03</rscale>
<asrwt>0</asrwt>
<pdfrwt beam="1">  1       21 0.31620343E-01 0.23433879E+03</pdfrwt>
<pdfrwt beam="2">  1       21 0.47087571E-01 0.23433879E+03</pdfrwt>
<totfact> 0.40670060E+04</totfact>
</mgrwt>
</event>
<event>
 4    2  0.3964208E+000  0.1776812E+03  0.7546771E-02  0.1170066E+00
         21   -1    0    0  503  502  0.00000000000E+00  0.00000000000E+00  0.12700585002E+03  0.12700585002E+03  0.00000000000E+00 0. -1.
         21   -1    0    0  501  503 -0.00000000000E+00 -0.00000000000E+00 -0.34374249182E+03  0.34374249182E+03  0.00000000000E+00 0. -1.
          6    1    1    2  501    0 -0.62063494498E+01 -0.40038631032E+02  0.15478294033E+02  0.17835410939E+03  0.17300000000E+03 0. -1.
         -6    1    1    2    0  502  0.62063494498E+01  0.40038631032E+02 -0.23221493583E+03  0.29239423245E+03  0.17300000000E+03 0. -1.
<mgrwt>
<rscale>  2 0.17768121E+03</rscale>
<asrwt>0</asrwt>
<pdfrwt beam="1">  1       21 0.19539362E-01 0.17768121E+03</pdfrwt>
<pdfrwt beam="2">  1       21 0.52883460E-01 0.17768121E+03</pdfrwt>
<totfact> 0.82188754E+04</totfact>
</mgrwt>
</event>
<event>
 4    2  0.3964208E+000  0.3068435E+03  0.7546771E-02  0.1081869E+00
         21   -1    0    0  501  502  0.00000000000E+00  0.00000000000E+00  0.25491722701E+03  0.25491722701E+03  0.00000000000E+00 0. -1.
         21   -1    0    0  502  503 -0.00000000000E+00 -0.00000000000E+00 -0.40995928828E+03  0.40995928828E+03  0.00000000000E+00 0. -1.
          6    1    1    2  501    0 -0.17244835030E+03 -0.18570273792E+03  0.27111996191E+02  0.30803895976E+03  0.17300000000E+03 0. -1.
         -6    1    1    2    0  503  0.17244835030E+03  0.18570273792E+03 -0.18215405746E+03  0.35683755553E+03  0.17300000000E+03 0. -1.
<mgrwt>
<rscale>  2 0.30684351E+03</rscale>
<asrwt>0</asrwt>
<pdfrwt beam="1">  1       21 0.39218036E-01 0.30684351E+03</pdfrwt>
<pdfrwt beam="2">  1       21 0.63070659E-01 0.30684351E+03</pdfrwt>
<totfact> 0.13737651E+04</totfact>
</mgrwt>
</event>
<event>
 4    2  0.3964208E+000  0.2692362E+03  0.7546771E-02  0.1101718E+00
         21   -1    0    0  503  502  0.00000000000E+00  0.00000000000E+00  0.50609524102E+03  0.50609524102E+03  0.00000000000E+00 0.  1.
         21   -1    0    0  501  503 -0.00000000000E+00 -0.00000000000E+00 -0.14327316356E+03  0.14327316356E+03  0.00000000000E+00 0.  1.
          6    1    1    2  501    0  0.13524188722E+03 -0.15578434158E+03  0.17578939349E+03  0.32154321639E+03  0.17300000000E+03 0.  1.
         -6    1    1    2    0  502 -0.13524188722E+03  0.15578434158E+03  0.18703268396E+03  0.32782518819E+03  0.17300000000E+03 0.  1.
<mgrwt>
<rscale>  2 0.26923620E+03</rscale>
<asrwt>0</asrwt>
<pdfrwt beam="1">  1       21 0.77860805E-01 0.26923620E+03</pdfrwt>
<pdfrwt beam="2">  1       21 0.22042025E-01 0.26923620E+03</pdfrwt>
<totfact> 0.27065517E+04</totfact>
</mgrwt>
</event>
<event>
 4    2  0.3964208E+000  0.2112719E+03  0.7546771E-02  0.1140563E+00
         21   -1    0    0  503  502  0.00000000000E+00  0.00000000000E+00  0.80454220894E+02  0.80454220894E+02  0.00000000000E+00 0. -1.
         21   -1    0    0  501  503 -0.00000000000E+00 -0.00000000000E+00 -0.56244801475E+03  0.56244801475E+03  0.00000000000E+00 0. -1.
          6    1    1    2  501    0  0.61732373116E+02 -0.10438350237E+03 -0.27848718499E+03  0.34955816921E+03  0.17300000000E+03 0. -1.
         -6    1    1    2    0  502 -0.61732373116E+02  0.10438350237E+03 -0.20350660886E+03  0.29334406643E+03  0.17300000000E+03 0. -1.
<mgrwt>
<rscale>  2 0.21127187E+03</rscale>
<asrwt>0</asrwt>
<pdfrwt beam="1">  1       21 0.12377572E-01 0.21127187E+03</pdfrwt>
<pdfrwt beam="2">  1       21 0.86530464E-01 0.21127187E+03</pdfrwt>
<totfact> 0.63298269E+04</totfact>
</mgrwt>
</event>
<event>
 4    2  0.3964208E+000  0.2238822E+03  0.7546771E-02  0.1131021E+00
         21   -1    0    0  503  502  0.00000000000E+00  0.00000000000E+00  0.42374814008E+03  0.42374814008E+03  0.00000000000E+00 0. -1.
         21   -1    0    0  501  503 -0.00000000000E+00 -0.00000000000E+00 -0.19244460003E+03  0.19244460003E+03  0.00000000000E+00 0. -1.
          6    1    1    2  501    0 -0.12543151246E+03  0.66792004614E+02 -0.75604689061E+02  0.23630341768E+03  0.17300000000E+03 0. -1.
         -6    1    1    2    0  502  0.12543151246E+03 -0.66792004614E+02  0.30690822911E+03  0.37988932243E+03  0.17300000000E+03 0. -1.
<mgrwt>
<rscale>  2 0.22388219E+03</rscale>
<asrwt>0</asrwt>
<pdfrwt beam="1">  1       21 0.65192021E-01 0.22388219E+03</pdfrwt>
<pdfrwt beam="2">  1       21 0.29606862E-01 0.22388219E+03</pdfrwt>
<totfact> 0.23264493E+04</totfact>
</mgrwt>
</event>
<event>
 4    2  0.3964208E+000  0.1845347E+03  0.7546771E-02  0.1163485E+00
         21   -1    0    0  503  502  0.00000000000E+00  0.00000000000E+00  0.61634664154E+03  0.61634664154E+03  0.00000000000E+00 0. -1.
         21   -1    0    0  501  503 -0.00000000000E+00 -0.00000000000E+00 -0.66467197341E+02  0.66467197341E+02  0.00000000000E+00 0. -1.
          6    1    1    2  501    0  0.35413728918E+02 -0.53571815350E+02  0.41519310312E+03  0.45435491025E+03  0.17300000000E+03 0. -1.
         -6    1    1    2    0  502 -0.35413728918E+02  0.53571815350E+02  0.13468634108E+03  0.22845892863E+03  0.17300000000E+03 0. -1.
<mgrwt>
<rscale>  2 0.18453474E+03</rscale>
<asrwt>0</asrwt>
<pdfrwt beam="1">  1       21 0.94822556E-01 0.18453474E+03</pdfrwt>
<pdfrwt beam="2">  1       21 0.10225723E-01 0.18453474E+03</pdfrwt>
<totfact> 0.72838938E+04</totfact>
</mgrwt>
</event>
<event>
 4    2  0.3964208E+000  0.1797729E+03  0.7546771E-02  0.1168023E+00
         21   -1    0    0  501  502  0.00000000000E+00  0.00000000000E+00  0.87419696397E+02  0.87419696397E+02  0.00000000000E+00 0. -1.
         21   -1    0    0  502  503 -0.00000000000E+00 -0.00000000000E+00 -0.36988190196E+03  0.36988190196E+03  0.00000000000E+00 0. -1.
          6    1    1    2  501    0 -0.40707642898E+02 -0.27058913268E+02 -0.14642220959E+03  0.23185719838E+03  0.17300000000E+03 0. -1.
         -6    1    1    2    0  503  0.40707642898E+02  0.27058913268E+02 -0.13603999596E+03  0.22544439997E+03  0.17300000000E+03 0. -1.
<mgrwt>
<rscale>  2 0.17977290E+03</rscale>
<asrwt>0</asrwt>
<pdfrwt beam="1">  1       21 0.13449184E-01 0.17977290E+03</pdfrwt>
<pdfrwt beam="2">  1       21 0.56904908E-01 0.17977290E+03</pdfrwt>
<totfact> 0.13934588E+05</totfact>
</mgrwt>
</event>
<event>
 4    2  0.3964208E+000  0.2560485E+03  0.7546771E-02  0.1109541E+00
         21   -1    0    0  503  502  0.00000000000E+00  0.00000000000E+00  0.15473933924E+03  0.15473933924E+03  0.00000000000E+00 0. -1.
         21   -1    0    0  501  503 -0.00000000000E+00 -0.00000000000E+00 -0.42798354352E+03  0.42798354352E+03  0.00000000000E+00 0.  1.
          6    1    1    2  501    0  0.18071978112E+03  0.54517998196E+02 -0.16581934437E+03  0.30505230106E+03  0.17300000000E+03 0.  1.
         -6    1    1    2    0  502 -0.18071978112E+03 -0.54517998196E+02 -0.10742485991E+03  0.27767058170E+03  0.17300000000E+03 0. -1.
<mgrwt>
<rscale>  2 0.25604853E+03</rscale>
<asrwt>0</asrwt>
<pdfrwt beam="1">  1       21 0.23806053E-01 0.25604853E+03</pdfrwt>
<pdfrwt beam="2">  1       21 0.65843621E-01 0.25604853E+03</pdfrwt>
<totfact> 0.34168628E+04</totfact>
</mgrwt>
</event>
<event>
 4    2  0.3964208E+000  0.2031967E+03  0.7546771E-02  0.1147070E+00
         21   -1    0    0  501  502  0.00000000000E+00  0.00000000000E+00  0.38983952110E+02  0.38983952110E+02  0.00000000000E+00 0. -1.
         21   -1    0    0  502  503 -0.00000000000E+00 -0.00000000000E+00 -0.10592537446E+04  0.10592537446E+04  0.00000000000E+00 0. -1.
          6    1    1    2  501    0 -0.94151949257E+02  0.49953244927E+02 -0.51616580485E+03  0.55472160073E+03  0.17300000000E+03 0. -1.
         -6    1    1    2    0  503  0.94151949257E+02 -0.49953244927E+02 -0.50410398766E+03  0.54351609599E+03  0.17300000000E+03 0. -1.
<mgrwt>
<rscale>  2 0.20319674E+03</rscale>
<asrwt>0</asrwt>
<pdfrwt beam="1">  1       21 0.59975314E-02 0.20319674E+03</pdfrwt>
<pdfrwt beam="2">  1       21 0.16296211E+00 0.20319674E+03</pdfrwt>
<totfact> 0.46963883E+04</totfact>
</mgrwt>
</event>
<event>
 4    2  0.3964208E+000  0.2258942E+03  0.7546771E-02  0.1129563E+00
         21   -1    0    0  501  502  0.00000000000E+00  0.00000000000E+00  0.52886129650E+03  0.52886129650E+03  0.00000000000E+00 0.  1.
         21   -1    0    0  502  503 -0.00000000000E+00 -0.00000000000E+00 -0.15742853548E+03  0.15742853548E+03  0.00000000000E+00 0. -1.
          6    1    1    2  501    0 -0.12159628048E+03 -0.79457817289E+02  0.39921388610E+03  0.45869371808E+03  0.17300000000E+03 0.  1.
         -6    1    1    2    0  503  0.12159628048E+03  0.79457817289E+02 -0.27781125074E+02  0.22759611391E+03  0.17300000000E+03 0. -1.
<mgrwt>
<rscale>  2 0.22589422E+03</rscale>
<asrwt>0</asrwt>
<pdfrwt beam="1">  1       21 0.81363275E-01 0.22589422E+03</pdfrwt>
<pdfrwt beam="2">  1       21 0.24219775E-01 0.22589422E+03</pdfrwt>
<totfact> 0.20893450E+04</totfact>
</mgrwt>
</event>
<event>
 4    2  0.3964208E+000  0.1965807E+03  0.7546771E-02  0.1152656E+00
         21   -1    0    0  503  502  0.00000000000E+00  0.00000000000E+00  0.22257950518E+03  0.22257950518E+03  0.00000000000E+00 0.  1.
         21   -1    0    0  501  503 -0.00000000000E+00 -0.00000000000E+00 -0.17964186597E+03  0.17964186597E+03  0.00000000000E+00 0.  1.
          6    1    1    2  501    0  0.87250217609E+02  0.33201823892E+02  0.58293944552E+02  0.20504181416E+03  0.17300000000E+03 0.  1.
         -6    1    1    2    0  502 -0.87250217609E+02 -0.33201823892E+02 -0.15356305347E+02  0.19717955699E+03  0.17300000000E+03 0.  1.
<mgrwt>
<rscale>  2 0.19658067E+03</rscale>
<asrwt>0</asrwt>
<pdfrwt beam="1">  1       21 0.34243001E-01 0.19658067E+03</pdfrwt>
<pdfrwt beam="2">  1       21 0.27637210E-01 0.19658067E+03</pdfrwt>
<totfact> 0.10252137E+05</totfact>
</mgrwt>
</event>
<event>
 4    2  0.3964208E+000  0.2146025E+03  0.7546771E-02  0.1137972E+00
         21   -1    0    0  501  502  0.00000000000E+00  0.00000000000E+00  0.70055539609E+03  0.70055539609E+03  0.00000000000E+00 0.  1.
         21   -1    0    0  502  503 -0.00000000000E+00 -0.00000000000E+00 -0.93282818415E+02  0.93282818415E+02  0.00000000000E+00 0. -1.
          6    1    1    2  501    0  0.28262437763E+02  0.12380005706E+03  0.51931568268E+03  0.56191013321E+03  0.17300000000E+03 0.  1.
         -6    1    1    2    0  503 -0.28262437763E+02 -0.12380005706E+03  0.87956894986E+02  0.23192808129E+03  0.17300000000E+03 0. -1.
<mgrwt>
<rscale>  2 0.21460247E+03</rscale>
<asrwt>0</asrwt>
<pdfrwt beam="1">  1       21 0.10777775E+00 0.21460247E+03</pdfrwt>
<pdfrwt beam="2">  1       21 0.14351203E-01 0.21460247E+03</pdfrwt>
<totfact> 0.28803059E+04</totfact>
</mgrwt>
</event>
<event>
 4    2  0.3964208E+000  0.2134470E+03  0.7546771E-02  0.1138865E+00
         21   -1    0    0  501  502  0.00000000000E+00  0.00000000000E+00  0.26019003488E+03  0.26019003488E+03  0.00000000000E+00 0.  1.
         21   -1    0    0  502  503 -0.00000000000E+00 -0.00000000000E+00 -0.18952396847E+03  0.18952396847E+03  0.00000000000E+00 0.  1.
          6    1    1    2  501    0 -0.12068371690E+03 -0.32650602194E+02  0.97362306360E+02  0.23460400689E+03  0.17300000000E+03 0.  1.
         -6    1    1    2    0  503  0.12068371690E+03  0.32650602194E+02 -0.26696239957E+02  0.21510999646E+03  0.17300000000E+03 0.  1.
<mgrwt>
<rscale>  2 0.21344700E+03</rscale>
<asrwt>0</asrwt>
<pdfrwt beam="1">  1       21 0.40029236E-01 0.21344700E+03</pdfrwt>
<pdfrwt beam="2">  1       21 0.29157534E-01 0.21344700E+03</pdfrwt>
<totfact> 0.67122808E+04</totfact>
</mgrwt>
</event>
<event>
 4    2  0.3964208E+000  0.1738186E+03  0.7546771E-02  0.1173923E+00
         21   -1    0    0  501  502  0.00000000000E+00  0.00000000000E+00  0.88691593461E+02  0.88691593461E+02  0.00000000000E+00 0. -1.
         21   -1    0    0  502  503 -0.00000000000E+00 -0.00000000000E+00 -0.12019032854E+04  0.12019032854E+04  0.00000000000E+00 0. -1.
          6    1    1    2  501    0 -0.12160124264E+02 -0.11662811883E+02 -0.10357233947E+02  0.17412685634E+03  0.17300000000E+03 0. -1.
         -6    1    1    2    0  503  0.12160124264E+02  0.11662811883E+02 -0.11028544580E+04  0.11164680226E+04  0.17300000000E+03 0. -1.
<mgrwt>
<rscale>  2 0.17381855E+03</rscale>
<asrwt>0</asrwt>
<pdfrwt beam="1">  1       21 0.13644861E-01 0.17381855E+03</pdfrwt>
<pdfrwt beam="2">  1       21 0.18490819E+00 0.17381855E+03</pdfrwt>
<totfact> 0.79830085E+03</totfact>
</mgrwt>
</event>
<event>
 4    2  0.3964208E+000  0.2183972E+03  0.7546771E-02  0.1135084E+00
         21   -1    0    0  503  502  0.00000000000E+00  0.00000000000E+00  0.37004034440E+03  0.37004034440E+03  0.00000000000E+00 0. -1.
         21   -1    0    0  501  503 -0.00000000000E+00 -0.00000000000E+00 -0.13636003784E+03  0.13636003784E+03  0.00000000000E+00 0.  1.
          6    1    1    2  501    0 -0.79279057589E+02  0.10715959755E+03  0.17607237233E+03  0.28053311501E+03  0.17300000000E+03 0. -1.
         -6    1    1    2    0  502  0.79279057589E+02 -0.10715959755E+03  0.57607934230E+02  0.22586726723E+03  0.17300000000E+03 0.  1.
<mgrwt>
<rscale>  2 0.21839723E+03</rscale>
<asrwt>0</asrwt>
<pdfrwt beam="1">  1       21 0.56929283E-01 0.21839723E+03</pdfrwt>
<pdfrwt beam="2">  1       21 0.20978468E-01 0.21839723E+03</pdfrwt>
<totfact> 0.60484346E+04</totfact>
</mgrwt>
</event>
<event>
 4    2  0.3964208E+000  0.2010086E+03  0.7546771E-02  0.1148891E+00
         21   -1    0    0  503  502  0.00000000000E+00  0.00000000000E+00  0.13692868649E+03  0.13692868649E+03  0.00000000000E+00 0.  1.
         21   -1    0    0  501  503 -0.00000000000E+00 -0.00000000000E+00 -0.32572620400E+03  0.32572620400E+03  0.00000000000E+00 0. -1.
          6    1    1    2  501    0 -0.98571076810E+02 -0.27553352321E+02 -0.16535875772E+03  0.26028438901E+03  0.17300000000E+03 0. -1.
         -6    1    1    2    0  502  0.98571076810E+02  0.27553352321E+02 -0.23438759790E+02  0.20237050148E+03  0.17300000000E+03 0. -1.
<mgrwt>
<rscale>  2 0.20100857E+03</rscale>
<asrwt>0</asrwt>
<pdfrwt beam="1">  1       21 0.21065952E-01 0.20100857E+03</pdfrwt>
<pdfrwt beam="2">  1       21 0.50111723E-01 0.20100857E+03</pdfrwt>
<totfact> 0.79149051E+04</totfact>
</mgrwt>
</event>
<event>
 4    2  0.3964208E+000  0.1835083E+03  0.7546771E-02  0.1164450E+00
         21   -1    0    0  503  502  0.00000000000E+00  0.00000000000E+00  0.48342200178E+03  0.48342200178E+03  0.00000000000E+00 0.  1.
         21   -1    0    0  501  503 -0.00000000000E+00 -0.00000000000E+00 -0.77406902058E+02  0.77406902058E+02  0.00000000000E+00 0.  1.
          6    1    1    2  501    0 -0.29485954678E+02  0.53636618247E+02  0.11429870062E+03  0.21619320365E+03  0.17300000000E+03 0. -1.
         -6    1    1    2    0  502  0.29485954678E+02 -0.53636618247E+02  0.29171639910E+03  0.34463570019E+03  0.17300000000E+03 0. -1.
<mgrwt>
<rscale>  2 0.18350833E+03</rscale>
<asrwt>0</asrwt>
<pdfrwt beam="1">  1       21 0.74372614E-01 0.18350833E+03</pdfrwt>
<pdfrwt beam="2">  1       21 0.11908754E-01 0.18350833E+03</pdfrwt>
<totfact> 0.96718601E+04</totfact>
</mgrwt>
</event>
<event>
 4    2  0.3964208E+000  0.2048743E+03  0.7546771E-02  0.1145691E+00
         21   -1    0    0  501  502  0.00000000000E+00  0.00000000000E+00  0.58612540611E+02  0.58612540611E+02  0.00000000000E+00 0. -1.
         21   -1    0    0  502  503 -0.00000000000E+00 -0.00000000000E+00 -0.71838298918E+03  0.71838298918E+03  0.00000000000E+00 0. -1.
          6    1    1    2  501    0 -0.29569710428E+02 -0.10568869804E+03 -0.35170183195E+03  0.40702290754E+03  0.17300000000E+03 0. -1.
         -6    1    1    2    0  503  0.29569710428E+02  0.10568869804E+03 -0.30806861663E+03  0.36997262225E+03  0.17300000000E+03 0. -1.
<mgrwt>
<rscale>  2 0.20487428E+03</rscale>
<asrwt>0</asrwt>
<pdfrwt beam="1">  1       21 0.90173138E-02 0.20487428E+03</pdfrwt>
<pdfrwt beam="2">  1       21 0.11052046E+00 0.20487428E+03</pdfrwt>
<totfact> 0.62479959E+04</totfact>
</mgrwt>
</event>
<event>
 4    2  0.3964208E+000  0.1834617E+03  0.7546771E-02  0.1164494E+00
         21   -1    0    0  501  502  0.00000000000E+00  0.00000000000E+00  0.11367950746E+03  0.11367950746E+03  0.00000000000E+00 0.  1.
         21   -1    0    0  502  503 -0.00000000000E+00 -0.00000000000E+00 -0.29612604337E+03  0.29612604337E+03  0.00000000000E+00 0.  1.
          6    1    1    2  501    0 -0.43278809667E+01  0.60913436948E+02 -0.88655785313E+02  0.20375972523E+03  0.17300000000E+03 0.  1.
         -6    1    1    2    0  503  0.43278809667E+01 -0.60913436948E+02 -0.93790750597E+02  0.20604582561E+03  0.17300000000E+03 0.  1.
<mgrwt>
<rscale>  2 0.18346165E+03</rscale>
<asrwt>0</asrwt>
<pdfrwt beam="1">  1       21 0.17489155E-01 0.18346165E+03</pdfrwt>
<pdfrwt beam="2">  1       21 0.45557853E-01 0.18346165E+03</pdfrwt>
<totfact> 0.13721804E+05</totfact>
</mgrwt>
</event>
<event>
 4    2  0.3964208E+000  0.2283498E+03  0.7546771E-02  0.1127807E+00
         21   -1    0    0  501  502  0.00000000000E+00  0.00000000000E+00  0.14658172314E+04  0.14658172314E+04  0.00000000000E+00 0.  1.
         21   -1    0    0  502  503 -0.00000000000E+00 -0.00000000000E+00 -0.10345801449E+03  0.10345801449E+03  0.00000000000E+00 0. -1.
          6    1    1    2  501    0  0.12057492656E+03  0.87614519418E+02  0.45594377686E+02  0.23285717555E+03  0.17300000000E+03 0. -1.
         -6    1    1    2    0  503 -0.12057492656E+03 -0.87614519418E+02  0.13167648392E+04  0.13364180703E+04  0.17300000000E+03 0.  1.
<mgrwt>
<rscale>  2 0.22834977E+03</rscale>
<asrwt>0</asrwt>
<pdfrwt beam="1">  1       21 0.22551033E+00 0.22834977E+03</pdfrwt>
<pdfrwt beam="2">  1       21 0.15916619E-01 0.22834977E+03</pdfrwt>
<totfact> 0.31656955E+03</totfact>
</mgrwt>
</event>
<event>
 4    2  0.3964208E+000  0.1749786E+03  0.7546771E-02  0.1172753E+00
         21   -1    0    0  503  502  0.00000000000E+00  0.00000000000E+00  0.80039721182E+02  0.80039721182E+02  0.00000000000E+00 0.  1.
         21   -1    0    0  501  503 -0.00000000000E+00 -0.00000000000E+00 -0.70337926787E+03  0.70337926787E+03  0.00000000000E+00 0.  1.
          6    1    1    2  501    0  0.25924882930E+02 -0.40498385751E+01 -0.57622761339E+03  0.60220906933E+03  0.17300000000E+03 0.  1.
         -6    1    1    2    0  502 -0.25924882930E+02  0.40498385751E+01 -0.47111933298E+02  0.18120991972E+03  0.17300000000E+03 0.  1.
<mgrwt>
<rscale>  2 0.17497857E+03</rscale>
<asrwt>0</asrwt>
<pdfrwt beam="1">  1       21 0.12313804E-01 0.17497857E+03</pdfrwt>
<pdfrwt beam="2">  1       21 0.10821219E+00 0.17497857E+03</pdfrwt>
<totfact> 0.38442401E+04</totfact>
</mgrwt>
</event>
<event>
 4    2  0.3964208E+000  0.2142917E+03  0.7546771E-02  0.1138212E+00
         21   -1    0    0  501  502  0.00000000000E+00  0.00000000000E+00  0.10687954232E+04  0.10687954232E+04  0.00000000000E+00 0. -1.
         21   -1    0    0  502  503 -0.00000000000E+00 -0.00000000000E+00 -0.18762236519E+03  0.18762236519E+03  0.00000000000E+00 0.  1.
          6    1    1    2  501    0  0.90819604982E+02 -0.87998432637E+02  0.99219619922E+03  0.10150735060E+04  0.17300000000E+03 0. -1.
         -6    1    1    2    0  503 -0.90819604982E+02  0.87998432637E+02 -0.11102314117E+03  0.24134428245E+03  0.17300000000E+03 0.  1.
<mgrwt>
<rscale>  2 0.21429168E+03</rscale>
<asrwt>0</asrwt>
<pdfrwt beam="1">  1       21 0.16443006E+00 0.21429168E+03</pdfrwt>
<pdfrwt beam="2">  1       21 0.28864980E-01 0.21429168E+03</pdfrwt>
<totfact> 0.26321945E+03</totfact>
</mgrwt>
</event>
<event>
 4    2  0.3964208E+000  0.2328415E+03  0.7546771E-02  0.1124656E+00
         21   -1    0    0  501  502  0.00000000000E+00  0.00000000000E+00  0.65224611280E+03  0.65224611280E+03  0.00000000000E+00 0.  1.
         21   -1    0    0  502  503 -0.00000000000E+00 -0.00000000000E+00 -0.11217385484E+03  0.11217385484E+03  0.00000000000E+00 0.  1.
          6    1    1    2  501    0  0.25301018025E+01  0.15581962288E+03  0.46455100554E+03  0.51963717442E+03  0.17300000000E+03 0.  1.
         -6    1    1    2    0  503 -0.25301018025E+01 -0.15581962288E+03  0.75521252417E+02  0.24478279322E+03  0.17300000000E+03 0.  1.
<mgrwt>
<rscale>  2 0.23284148E+03</rscale>
<asrwt>0</asrwt>
<pdfrwt beam="1">  1       21 0.10034555E+00 0.23284148E+03</pdfrwt>
<pdfrwt beam="2">  1       21 0.17257517E-01 0.23284148E+03</pdfrwt>
<totfact> 0.24153416E+04</totfact>
</mgrwt>
</event>
<event>
 4    2  0.3964208E+000  0.3794492E+03  0.7546771E-02  0.1051138E+00
         21   -1    0    0  501  502  0.00000000000E+00  0.00000000000E+00  0.34389311801E+03  0.34389311801E+03  0.00000000000E+00 0.  1.
         21   -1    0    0  502  503 -0.00000000000E+00 -0.00000000000E+00 -0.43748492228E+03  0.43748492228E+03  0.00000000000E+00 0.  1.
          6    1    1    2  501    0  0.30470487586E+03 -0.14562847869E+03  0.34200764768E+02  0.38098741119E+03  0.17300000000E+03 0.  1.
         -6    1    1    2    0  503 -0.30470487586E+03  0.14562847869E+03 -0.12779256904E+03  0.40039062911E+03  0.17300000000E+03 0.  1.
<mgrwt>
<rscale>  2 0.37944923E+03</rscale>
<asrwt>0</asrwt>
<pdfrwt beam="1">  1       21 0.52906633E-01 0.37944923E+03</pdfrwt>
<pdfrwt beam="2">  1       21 0.67305373E-01 0.37944923E+03</pdfrwt>
<totfact> 0.61906873E+03</totfact>
</mgrwt>
</event>
<event>
 4    2  0.3964208E+000  0.1777129E+03  0.7546771E-02  0.1170035E+00
         21   -1    0    0  501  502  0.00000000000E+00  0.00000000000E+00  0.42295240420E+03  0.42295240420E+03  0.00000000000E+00 0. -1.
         21   -1    0    0  502  503 -0.00000000000E+00 -0.00000000000E+00 -0.16995393172E+03  0.16995393172E+03  0.00000000000E+00 0. -1.
          6    1    1    2  501    0 -0.10145965333E+02 -0.39369058177E+02  0.34847230326E+03  0.39117107446E+03  0.17300000000E+03 0. -1.
         -6    1    1    2    0  503  0.10145965333E+02  0.39369058177E+02 -0.95473830772E+02  0.20173526146E+03  0.17300000000E+03 0. -1.
<mgrwt>
<rscale>  2 0.17771287E+03</rscale>
<asrwt>0</asrwt>
<pdfrwt beam="1">  1       21 0.65069600E-01 0.17771287E+03</pdfrwt>
<pdfrwt beam="2">  1       21 0.26146759E-01 0.17771287E+03</pdfrwt>
<totfact> 0.30473814E+04</totfact>
</mgrwt>
</event>
<event>
 4    2  0.3964208E+000  0.1952487E+03  0.7546771E-02  0.1153811E+00
         21   -1    0    0  501  502  0.00000000000E+00  0.00000000000E+00  0.16275848732E+03  0.16275848732E+03  0.00000000000E+00 0. -1.
         21   -1    0    0  502  503 -0.00000000000E+00 -0.00000000000E+00 -0.23424690510E+03  0.23424690510E+03  0.00000000000E+00 0. -1.
          6    1    1    2  501    0  0.34412329943E+02  0.83718741214E+02 -0.37682686112E+02  0.19885175613E+03  0.17300000000E+03 0. -1.
         -6    1    1    2    0  503 -0.34412329943E+02 -0.83718741214E+02 -0.33805731664E+02  0.19815363629E+03  0.17300000000E+03 0. -1.
<mgrwt>
<rscale>  2 0.19524865E+03</rscale>
<asrwt>0</asrwt>
<pdfrwt beam="1">  1       21 0.25039767E-01 0.19524865E+03</pdfrwt>
<pdfrwt beam="2">  1       21 0.36037985E-01 0.19524865E+03</pdfrwt>
<totfact> 0.11201771E+05</totfact>
</mgrwt>
</event>
<event>
 4    2  0.3964208E+000  0.1853042E+03  0.7546771E-02  0.1162766E+00
         21   -1    0    0  503  502  0.00000000000E+00  0.00000000000E+00  0.28383306355E+02  0.28383306355E+02  0.00000000000E+00 0.  1.
         21   -1    0    0  501  503 -0.00000000000E+00 -0.00000000000E+00 -0.13430093491E+04  0.13430093491E+04  0.00000000000E+00 0.  1.
          6    1    1    2  501    0 -0.65221508129E+02 -0.12442265749E+02 -0.87327962017E+03  0.89272333346E+03  0.17300000000E+03 0.  1.
         -6    1    1    2    0  502  0.65221508129E+02  0.12442265749E+02 -0.44134642259E+03  0.47866932200E+03  0.17300000000E+03 0.  1.
<mgrwt>
<rscale>  2 0.18530422E+03</rscale>
<asrwt>0</asrwt>
<pdfrwt beam="1">  1       21 0.43666622E-02 0.18530422E+03</pdfrwt>
<pdfrwt beam="2">  1       21 0.20661684E+00 0.18530422E+03</pdfrwt>
<totfact> 0.41419282E+04</totfact>
</mgrwt>
</event>
<event>
 4    2  0.3964208E+000  0.1987402E+03  0.7546771E-02  0.1150806E+00
         21   -1    0    0  501  502  0.00000000000E+00  0.00000000000E+00  0.82927856127E+02  0.82927856127E+02  0.00000000000E+00 0. -1.
         21   -1    0    0  502  503 -0.00000000000E+00 -0.00000000000E+00 -0.47967299577E+03  0.47967299577E+03  0.00000000000E+00 0.  1.
          6    1    1    2  501    0 -0.97229712663E+02 -0.10726698250E+02 -0.17474759654E+03  0.26464013599E+03  0.17300000000E+03 0. -1.
         -6    1    1    2    0  503  0.97229712663E+02  0.10726698250E+02 -0.22199754310E+03  0.29796071590E+03  0.17300000000E+03 0. -1.
<mgrwt>
<rscale>  2 0.19874023E+03</rscale>
<asrwt>0</asrwt>
<pdfrwt beam="1">  1       21 0.12758131E-01 0.19874023E+03</pdfrwt>
<pdfrwt beam="2">  1       21 0.73795849E-01 0.19874023E+03</pdfrwt>
<totfact> 0.86438438E+04</totfact>
</mgrwt>
</event>
<event>
 4    2  0.3964208E+000  0.1807380E+03  0.7546771E-02  0.1167091E+00
         21   -1    0    0  501  502  0.00000000000E+00  0.00000000000E+00  0.86602668189E+03  0.86602668189E+03  0.00000000000E+00 0.  1.
         21   -1    0    0  502  503 -0.00000000000E+00 -0.00000000000E+00 -0.37749257271E+02  0.37749257271E+02  0.00000000000E+00 0.  1.
          6    1    1    2  501    0  0.43091276518E+02  0.29671123159E+02  0.40148586513E+03  0.44029210027E+03  0.17300000000E+03 0.  1.
         -6    1    1    2    0  503 -0.43091276518E+02 -0.29671123159E+02  0.42679155950E+03  0.46348383890E+03  0.17300000000E+03 0.  1.
<mgrwt>
<rscale>  2 0.18073802E+03</rscale>
<asrwt>0</asrwt>
<pdfrwt beam="1">  1       21 0.13323486E+00 0.18073802E+03</pdfrwt>
<pdfrwt beam="2">  1       21 0.58075787E-02 0.18073802E+03</pdfrwt>
<totfact> 0.85159396E+04</totfact>
</mgrwt>
</event>
<event>
 4    2  0.3964208E+000  0.1737409E+03  0.7546771E-02  0.1174002E+00
         21   -1    0    0  503  502  0.00000000000E+00  0.00000000000E+00  0.16577695765E+03  0.16577695765E+03  0.00000000000E+00 0.  1.
         21   -1    0    0  501  503 -0.00000000000E+00 -0.00000000000E+00 -0.19065372706E+03  0.19065372706E+03  0.00000000000E+00 0.  1.
          6    1    1    2  501    0  0.15968032804E+02  0.13832436539E+01  0.25337995481E+02  0.17557877278E+03  0.17300000000E+03 0.  1.
         -6    1    1    2    0  502 -0.15968032804E+02 -0.13832436539E+01 -0.50214764889E+02  0.18085191193E+03  0.17300000000E+03 0.  1.
<mgrwt>
<rscale>  2 0.17374087E+03</rscale>
<asrwt>0</asrwt>
<pdfrwt beam="1">  1       21 0.25504148E-01 0.17374087E+03</pdfrwt>
<pdfrwt beam="2">  1       21 0.29331342E-01 0.17374087E+03</pdfrwt>
<totfact> 0.16329592E+05</totfact>
</mgrwt>
</event>
<event>
 4    2  0.3964208E+000  0.2838018E+03  0.7546771E-02  0.1093630E+00
         21   -1    0    0  501  502  0.00000000000E+00  0.00000000000E+00  0.13491476332E+03  0.13491476332E+03  0.00000000000E+00 0. -1.
         21   -1    0    0  502  503 -0.00000000000E+00 -0.00000000000E+00 -0.81133549711E+03  0.81133549711E+03  0.00000000000E+00 0.  1.
          6    1    1    2  501    0  0.33061988314E+02  0.22253399443E+03 -0.95030489848E+02  0.29928960514E+03  0.17300000000E+03 0. -1.
         -6    1    1    2    0  503 -0.33061988314E+02 -0.22253399443E+03 -0.58139024394E+03  0.64696065529E+03  0.17300000000E+03 0.  1.
<mgrwt>
<rscale>  2 0.28380182E+03</rscale>
<asrwt>0</asrwt>
<pdfrwt beam="1">  1       21 0.20756117E-01 0.28380182E+03</pdfrwt>
<pdfrwt beam="2">  1       21 0.12482085E+00 0.28380182E+03</pdfrwt>
<totfact> 0.97472362E+03</totfact>
</mgrwt>
</event>
<event>
 4    2  0.3964208E+000  0.1879492E+03  0.7546771E-02  0.1160324E+00
         21   -1    0    0  503  502  0.00000000000E+00  0.00000000000E+00  0.14094254559E+03  0.14094254559E+03  0.00000000000E+00 0. -1.
         21   -1    0    0  501  503 -0.00000000000E+00 -0.00000000000E+00 -0.56176304198E+03  0.56176304198E+03  0.00000000000E+00 0. -1.
          6    1    1    2  501    0  0.70697616096E+02 -0.19943800916E+02 -0.47188967861E+03  0.50794170620E+03  0.17300000000E+03 0. -1.
         -6    1    1    2    0  502 -0.70697616096E+02  0.19943800916E+02  0.51069182218E+02  0.19476388138E+03  0.17300000000E+03 0. -1.
<mgrwt>
<rscale>  2 0.18794922E+03</rscale>
<asrwt>0</asrwt>
<pdfrwt beam="1">  1       21 0.21683468E-01 0.18794922E+03</pdfrwt>
<pdfrwt beam="2">  1       21 0.86425084E-01 0.18794922E+03</pdfrwt>
<totfact> 0.22944817E+04</totfact>
</mgrwt>
</event>
<event>
 4    2  0.3964208E+000  0.3337423E+03  0.7546771E-02  0.1069493E+00
         21   -1    0    0  501  502  0.00000000000E+00  0.00000000000E+00  0.76206670609E+03  0.76206670609E+03  0.00000000000E+00 0. -1.
         21   -1    0    0  502  503 -0.00000000000E+00 -0.00000000000E+00 -0.22052777737E+03  0.22052777737E+03  0.00000000000E+00 0. -1.
          6    1    1    2  501    0  0.26946987680E+03 -0.94025999123E+02  0.55607104840E+03  0.64853597732E+03  0.17300000000E+03 0. -1.
         -6    1    1    2    0  503 -0.26946987680E+03  0.94025999123E+02 -0.14532119680E+02  0.33405850613E+03  0.17300000000E+03 0. -1.
<mgrwt>
<rscale>  2 0.33374227E+03</rscale>
<asrwt>0</asrwt>
<pdfrwt beam="1">  1       21 0.11724103E+00 0.33374227E+03</pdfrwt>
<pdfrwt beam="2">  1       21 0.33927351E-01 0.33374227E+03</pdfrwt>
<totfact> 0.42836890E+03</totfact>
</mgrwt>
</event>
<event>
 4    2  0.3964208E+000  0.3180898E+03  0.7546771E-02  0.1076532E+00
         21   -1    0    0  503  502  0.00000000000E+00  0.00000000000E+00  0.12232575669E+03  0.12232575669E+03  0.00000000000E+00 0.  1.
         21   -1    0    0  501  503 -0.00000000000E+00 -0.00000000000E+00 -0.11318924055E+04  0.11318924055E+04  0.00000000000E+00 0. -1.
          6    1    1    2  501    0 -0.25722103792E+03  0.71340447919E+02 -0.17938851619E+03  0.36518674894E+03  0.17300000000E+03 0.  1.
         -6    1    1    2    0  502  0.25722103792E+03 -0.71340447919E+02 -0.83017813261E+03  0.88903141324E+03  0.17300000000E+03 0. -1.
<mgrwt>
<rscale>  2 0.31808980E+03</rscale>
<asrwt>0</asrwt>
<pdfrwt beam="1">  1       21 0.18819348E-01 0.31808980E+03</pdfrwt>
<pdfrwt beam="2">  1       21 0.17413729E+00 0.31808980E+03</pdfrwt>
<totfact> 0.47324894E+03</totfact>
</mgrwt>
</event>
<event>
 4    2  0.3964208E+000  0.2049510E+03  0.7546771E-02  0.1145628E+00
         21   -1    0    0  503  502  0.00000000000E+00  0.00000000000E+00  0.23421298739E+03  0.23421298739E+03  0.00000000000E+00 0. -1.
         21   -1    0    0  501  503 -0.00000000000E+00 -0.00000000000E+00 -0.62580504724E+03  0.62580504724E+03  0.00000000000E+00 0.  1.
          6    1    1    2  501    0 -0.73235818075E+02 -0.81929503557E+02 -0.55899895022E+03  0.59538622335E+03  0.17300000000E+03 0.  1.
         -6    1    1    2    0  502  0.73235818075E+02  0.81929503557E+02  0.16740689037E+03  0.26463181129E+03  0.17300000000E+03 0. -1.
<mgrwt>
<rscale>  2 0.20495104E+03</rscale>
<asrwt>0</asrwt>
<pdfrwt beam="1">  1       21 0.36032767E-01 0.20495104E+03</pdfrwt>
<pdfrwt beam="2">  1       21 0.96277700E-01 0.20495104E+03</pdfrwt>
<totfact> 0.66067501E+03</totfact>
</mgrwt>
</event>
<event>
 4    2  0.3964208E+000  0.1958851E+03  0.7546771E-02  0.1153258E+00
         21   -1    0    0  501  502  0.00000000000E+00  0.00000000000E+00  0.38071000441E+03  0.38071000441E+03  0.00000000000E+00 0.  1.
         21   -1    0    0  502  503 -0.00000000000E+00 -0.00000000000E+00 -0.28812583980E+03  0.28812583980E+03  0.00000000000E+00 0. -1.
          6    1    1    2  501    0 -0.37680835293E+02 -0.83798130901E+02  0.31594882151E+03  0.37174538316E+03  0.17300000000E+03 0.  1.
         -6    1    1    2    0  503  0.37680835293E+02  0.83798130901E+02 -0.22336465690E+03  0.29709046104E+03  0.17300000000E+03 0. -1.
<mgrwt>
<rscale>  2 0.19588510E+03</rscale>
<asrwt>0</asrwt>
<pdfrwt beam="1">  1       21 0.58570770E-01 0.19588510E+03</pdfrwt>
<pdfrwt beam="2">  1       21 0.44327052E-01 0.19588510E+03</pdfrwt>
<totfact> 0.13307937E+04</totfact>
</mgrwt>
</event>
<event>
 4    2  0.3964208E+000  0.2122328E+03  0.7546771E-02  0.1139810E+00
         21   -1    0    0  501  502  0.00000000000E+00  0.00000000000E+00  0.20185864110E+03  0.20185864110E+03  0.00000000000E+00 0.  1.
         21   -1    0    0  502  503 -0.00000000000E+00 -0.00000000000E+00 -0.33925259011E+03  0.33925259011E+03  0.00000000000E+00 0.  1.
          6    1    1    2  501    0 -0.66558072257E+02  0.10336235823E+03  0.89586095931E+02  0.23036584527E+03  0.17300000000E+03 0.  1.
         -6    1    1    2    0  503  0.66558072257E+02 -0.10336235823E+03 -0.22698004494E+03  0.31074538594E+03  0.17300000000E+03 0.  1.
<mgrwt>
<rscale>  2 0.21223278E+03</rscale>
<asrwt>0</asrwt>
<pdfrwt beam="1">  1       21 0.31055176E-01 0.21223278E+03</pdfrwt>
<pdfrwt beam="2">  1       21 0.52192706E-01 0.21223278E+03</pdfrwt>
<totfact> 0.34338786E+04</totfact>
</mgrwt>
</event>
<event>
 4    2  0.3964208E+000  0.1756219E+03  0.7546771E-02  0.1172109E+00
         21   -1    0    0  501  502  0.00000000000E+00  0.00000000000E+00  0.25314669151E+03  0.25314669151E+03  0.00000000000E+00 0. -1.
         21   -1    0    0  502  503 -0.00000000000E+00 -0.00000000000E+00 -0.12310425015E+03  0.12310425015E+03  0.00000000000E+00 0. -1.
          6    1    1    2  501    0 -0.25629929818E+02  0.16035723401E+02  0.45946050172E+02  0.18153257904E+03  0.17300000000E+03 0. -1.
         -6    1    1    2    0  503  0.25629929818E+02 -0.16035723401E+02  0.84096391187E+02  0.19471836261E+03  0.17300000000E+03 0. -1.
<mgrwt>
<rscale>  2 0.17562186E+03</rscale>
<asrwt>0</asrwt>
<pdfrwt beam="1">  1       21 0.38945645E-01 0.17562186E+03</pdfrwt>
<pdfrwt beam="2">  1       21 0.18939116E-01 0.17562186E+03</pdfrwt>
<totfact> 0.16328780E+05</totfact>
</mgrwt>
</event>
<event>
 4    2  0.3964208E+000  0.1747873E+03  0.7546771E-02  0.1172945E+00
         21   -1    0    0  503  502  0.00000000000E+00  0.00000000000E+00  0.14933304025E+04  0.14933304025E+04  0.00000000000E+00 0. -1.
         21   -1    0    0  501  503 -0.00000000000E+00 -0.00000000000E+00 -0.52832438280E+02  0.52832438280E+02  0.00000000000E+00 0. -1.
          6    1    1    2  501    0  0.97445494211E+00  0.24913151252E+02  0.11508126225E+03  0.20927090478E+03  0.17300000000E+03 0. -1.
         -6    1    1    2    0  502 -0.97445494211E+00 -0.24913151252E+02  0.13254167019E+04  0.13368919360E+04  0.17300000000E+03 0. -1.
<mgrwt>
<rscale>  2 0.17478734E+03</rscale>
<asrwt>0</asrwt>
<pdfrwt beam="1">  1       21 0.22974311E+00 0.17478734E+03</pdfrwt>
<pdfrwt beam="2">  1       21 0.81280686E-02 0.17478734E+03</pdfrwt>
<totfact> 0.10417431E+04</totfact>
</mgrwt>
</event>
<event>
 4    2  0.3964208E+000  0.1946367E+03  0.7546771E-02  0.1154345E+00
         21   -1    0    0  503  502  0.00000000000E+00  0.00000000000E+00  0.44455953258E+03  0.44455953258E+03  0.00000000000E+00 0.  1.
         21   -1    0    0  501  503 -0.00000000000E+00 -0.00000000000E+00 -0.92422772261E+02  0.92422772261E+02  0.00000000000E+00 0.  1.
          6    1    1    2  501    0 -0.86760316730E+02  0.20665787888E+02  0.10109249942E+03  0.21932423666E+03  0.17300000000E+03 0.  1.
         -6    1    1    2    0  502  0.86760316730E+02 -0.20665787888E+02  0.25104426090E+03  0.31765806818E+03  0.17300000000E+03 0.  1.
<mgrwt>
<rscale>  2 0.19463665E+03</rscale>
<asrwt>0</asrwt>
<pdfrwt beam="1">  1       21 0.68393773E-01 0.19463665E+03</pdfrwt>
<pdfrwt beam="2">  1       21 0.14218888E-01 0.19463665E+03</pdfrwt>
<totfact> 0.84233951E+04</totfact>
</mgrwt>
</event>
<event>
 4    2  0.3964208E+000  0.2169468E+03  0.7546771E-02  0.1136180E+00
         21   -1    0    0  503  502  0.00000000000E+00  0.00000000000E+00  0.62945548033E+02  0.62945548033E+02  0.00000000000E+00 0. -1.
         21   -1    0    0  501  503 -0.00000000000E+00 -0.00000000000E+00 -0.14419051334E+04  0.14419051334E+04  0.00000000000E+00 0. -1.
          6    1    1    2  501    0  0.13085317041E+03 -0.37925158709E+01 -0.12115528508E+04  0.12308234015E+04  0.17300000000E+03 0. -1.
         -6    1    1    2    0  502 -0.13085317041E+03  0.37925158709E+01 -0.16740673461E+03  0.27402727999E+03  0.17300000000E+03 0. -1.
<mgrwt>
<rscale>  2 0.21694685E+03</rscale>
<asrwt>0</asrwt>
<pdfrwt beam="1">  1       21 0.96839310E-02 0.21694685E+03</pdfrwt>
<pdfrwt beam="2">  1       21 0.22183155E+00 0.21694685E+03</pdfrwt>
<totfact> 0.82409838E+03</totfact>
</mgrwt>
</event>
<event>
 4    2  0.3964208E+000  0.2103311E+03  0.7546771E-02  0.1141304E+00
         21   -1    0    0  501  502  0.00000000000E+00  0.00000000000E+00  0.30760592575E+03  0.30760592575E+03  0.00000000000E+00 0.  1.
         21   -1    0    0  502  503 -0.00000000000E+00 -0.00000000000E+00 -0.21274731889E+03  0.21274731889E+03  0.00000000000E+00 0. -1.
          6    1    1    2  501    0  0.49210954149E+02  0.10903426972E+03 -0.10066522957E+03  0.23317949830E+03  0.17300000000E+03 0. -1.
         -6    1    1    2    0  503 -0.49210954149E+02 -0.10903426972E+03  0.19552383643E+03  0.28717374635E+03  0.17300000000E+03 0.  1.
<mgrwt>
<rscale>  2 0.21033114E+03</rscale>
<asrwt>0</asrwt>
<pdfrwt beam="1">  1       21 0.47323989E-01 0.21033114E+03</pdfrwt>
<pdfrwt beam="2">  1       21 0.32730357E-01 0.21033114E+03</pdfrwt>
<totfact> 0.38029659E+04</totfact>
</mgrwt>
</event>
<event>
 4    2  0.3964208E+000  0.2021780E+03  0.7546771E-02  0.1147914E+00
         21   -1    0    0  503  502  0.00000000000E+00  0.00000000000E+00  0.95256447692E+02  0.95256447692E+02  0.00000000000E+00 0. -1.
         21   -1    0    0  501  503 -0.00000000000E+00 -0.00000000000E+00 -0.49995487927E+03  0.49995487927E+03  0.00000000000E+00 0. -1.
          6    1    1    2  501    0  0.90894431391E+01  0.10423206058E+03 -0.31437439867E+03  0.37377426740E+03  0.17300000000E+03 0. -1.
         -6    1    1    2    0  502 -0.90894431391E+01 -0.10423206058E+03 -0.90324032911E+02  0.22143705957E+03  0.17300000000E+03 0. -1.
<mgrwt>
<rscale>  2 0.20217799E+03</rscale>
<asrwt>0</asrwt>
<pdfrwt beam="1">  1       21 0.14654838E-01 0.20217799E+03</pdfrwt>
<pdfrwt beam="2">  1       21 0.76916134E-01 0.20217799E+03</pdfrwt>
<totfact> 0.61218838E+04</totfact>
</mgrwt>
</event>
<event>
 4    2  0.3964208E+000  0.1893703E+03  0.7546771E-02  0.1159030E+00
         21   -1    0    0  503  502  0.00000000000E+00  0.00000000000E+00  0.42258469191E+03  0.42258469191E+03  0.00000000000E+00 0. -1.
         21   -1    0    0  501  503 -0.00000000000E+00 -0.00000000000E+00 -0.10840138185E+03  0.10840138185E+03  0.00000000000E+00 0. -1.
          6    1    1    2  501    0  0.28278206348E+02 -0.71641176584E+02  0.33371891498E+02  0.19228832070E+03  0.17300000000E+03 0. -1.
         -6    1    1    2    0  502 -0.28278206348E+02  0.71641176584E+02  0.28081141856E+03  0.33869775306E+03  0.17300000000E+03 0. -1.
<mgrwt>
<rscale>  2 0.18937031E+03</rscale>
<asrwt>0</asrwt>
<pdfrwt beam="1">  1       21 0.65013029E-01 0.18937031E+03</pdfrwt>
<pdfrwt beam="2">  1       21 0.16677136E-01 0.18937031E+03</pdfrwt>
<totfact> 0.70502851E+04</totfact>
</mgrwt>
</event>
<event>
 4    2  0.3964208E+000  0.2463061E+03  0.7546771E-02  0.1115662E+00
         21   -1    0    0  503  502  0.00000000000E+00  0.00000000000E+00  0.11673480816E+04  0.11673480816E+04  0.00000000000E+00 0. -1.
         21   -1    0    0  501  503 -0.00000000000E+00 -0.00000000000E+00 -0.13660562717E+03  0.13660562717E+03  0.00000000000E+00 0. -1.
          6    1    1    2  501    0 -0.13790019646E+03  0.10826468518E+03  0.21846212131E+01  0.24631581113E+03  0.17300000000E+03 0. -1.
         -6    1    1    2    0  502  0.13790019646E+03 -0.10826468518E+03  0.10285578333E+04  0.10576378977E+04  0.17300000000E+03 0. -1.
<mgrwt>
<rscale>  2 0.24630612E+03</rscale>
<asrwt>0</asrwt>
<pdfrwt beam="1">  1       21 0.17959201E+00 0.24630612E+03</pdfrwt>
<pdfrwt beam="2">  1       21 0.21016251E-01 0.24630612E+03</pdfrwt>
<totfact> 0.36835572E+03</totfact>
</mgrwt>
</event>
<event>
 4    2  0.3964208E+000  0.2144754E+03  0.7546771E-02  0.1138070E+00
         21   -1    0    0  501  502  0.00000000000E+00  0.00000000000E+00  0.98130625701E+02  0.98130625701E+02  0.00000000000E+00 0. -1.
         21   -1    0    0  502  503 -0.00000000000E+00 -0.00000000000E+00 -0.47022807455E+03  0.47022807455E+03  0.00000000000E+00 0.  1.
          6    1    1    2  501    0  0.63723465271E+02 -0.10959030269E+03 -0.17017025164E+03  0.27378390934E+03  0.17300000000E+03 0.  1.
         -6    1    1    2    0  503 -0.63723465271E+02  0.10959030269E+03 -0.20192719721E+03  0.29457479092E+03  0.17300000000E+03 0. -1.
<mgrwt>
<rscale>  2 0.21447544E+03</rscale>
<asrwt>0</asrwt>
<pdfrwt beam="1">  1       21 0.15097020E-01 0.21447544E+03</pdfrwt>
<pdfrwt beam="2">  1       21 0.72342780E-01 0.21447544E+03</pdfrwt>
<totfact> 0.66134396E+04</totfact>
</mgrwt>
</event>
<event>
 4    2  0.3964208E+000  0.1910208E+03  0.7546771E-02  0.1157544E+00
         21   -1    0    0  503  502  0.00000000000E+00  0.00000000000E+00  0.21871555361E+03  0.21871555361E+03  0.00000000000E+00 0. -1.
         21   -1    0    0  501  503 -0.00000000000E+00 -0.00000000000E+00 -0.21606346948E+03  0.21606346948E+03  0.00000000000E+00 0. -1.
          6    1    1    2  501    0 -0.14901253796E+02  0.79610893810E+02 -0.10244245131E+03  0.21675653994E+03  0.17300000000E+03 0. -1.
         -6    1    1    2    0  502  0.14901253796E+02 -0.79610893810E+02  0.10509453544E+03  0.21802248314E+03  0.17300000000E+03 0. -1.
<mgrwt>
<rscale>  2 0.19102079E+03</rscale>
<asrwt>0</asrwt>
<pdfrwt beam="1">  1       21 0.33648547E-01 0.19102079E+03</pdfrwt>
<pdfrwt beam="2">  1       21 0.33240534E-01 0.19102079E+03</pdfrwt>
<totfact> 0.74195585E+04</totfact>
</mgrwt>
</event>
<event>
 4    2  0.3964208E+000  0.1976688E+03  0.7546771E-02  0.1151721E+00
         21   -1    0    0  503  502  0.00000000000E+00  0.00000000000E+00  0.60401959075E+03  0.60401959075E+03  0.00000000000E+00 0. -1.
         21   -1    0    0  501  503 -0.00000000000E+00 -0.00000000000E+00 -0.10537419548E+03  0.10537419548E+03  0.00000000000E+00 0. -1.
          6    1    1    2  501    0  0.82612225531E+02 -0.48157847164E+02  0.28922203919E+02  0.19977350157E+03  0.17300000000E+03 0.  1.
         -6    1    1    2    0  502 -0.82612225531E+02  0.48157847164E+02  0.46972319135E+03  0.50962028466E+03  0.17300000000E+03 0.  1.
<mgrwt>
<rscale>  2 0.19766881E+03</rscale>
<asrwt>0</asrwt>
<pdfrwt beam="1">  1       21 0.92926089E-01 0.19766881E+03</pdfrwt>
<pdfrwt beam="2">  1       21 0.16211415E-01 0.19766881E+03</pdfrwt>
<totfact> 0.33108571E+04</totfact>
</mgrwt>
</event>
<event>
 4    2  0.3964208E+000  0.1821929E+03  0.7546771E-02  0.1165697E+00
         21   -1    0    0  501  502  0.00000000000E+00  0.00000000000E+00  0.39413535553E+03  0.39413535553E+03  0.00000000000E+00 0. -1.
         21   -1    0    0  502  503 -0.00000000000E+00 -0.00000000000E+00 -0.12749030175E+03  0.12749030175E+03  0.00000000000E+00 0. -1.
          6    1    1    2  501    0 -0.45142540349E+02 -0.35034501975E+02  0.28526632320E+03  0.33848358960E+03  0.17300000000E+03 0. -1.
         -6    1    1    2    0  503  0.45142540349E+02  0.35034501975E+02 -0.18621269418E+02  0.18314206768E+03  0.17300000000E+03 0. -1.
<mgrwt>
<rscale>  2 0.18219293E+03</rscale>
<asrwt>0</asrwt>
<pdfrwt beam="1">  1       21 0.60636208E-01 0.18219293E+03</pdfrwt>
<pdfrwt beam="2">  1       21 0.19613893E-01 0.18219293E+03</pdfrwt>
<totfact> 0.60922665E+04</totfact>
</mgrwt>
</event>
<event>
 4    2  0.3964208E+000  0.2024372E+03  0.7546771E-02  0.1147699E+00
         21   -1    0    0  503  502  0.00000000000E+00  0.00000000000E+00  0.11662047432E+03  0.11662047432E+03  0.00000000000E+00 0.  1.
         21   -1    0    0  501  503 -0.00000000000E+00 -0.00000000000E+00 -0.84865948764E+03  0.84865948764E+03  0.00000000000E+00 0. -1.
          6    1    1    2  501    0 -0.96339198036E+02  0.42078103784E+02 -0.73546187642E+03  0.76281385643E+03  0.17300000000E+03 0. -1.
         -6    1    1    2    0  502  0.96339198036E+02 -0.42078103784E+02  0.34228631041E+01  0.20246610553E+03  0.17300000000E+03 0.  1.
<mgrwt>
<rscale>  2 0.20243717E+03</rscale>
<asrwt>0</asrwt>
<pdfrwt beam="1">  1       21 0.17941611E-01 0.20243717E+03</pdfrwt>
<pdfrwt beam="2">  1       21 0.13056300E+00 0.20243717E+03</pdfrwt>
<totfact> 0.11992783E+04</totfact>
</mgrwt>
</event>
<event>
 4    2  0.3964208E+000  0.2661807E+03  0.7546771E-02  0.1103486E+00
         21   -1    0    0  503  502  0.00000000000E+00  0.00000000000E+00  0.48206250830E+03  0.48206250830E+03  0.00000000000E+00 0.  1.
         21   -1    0    0  501  503 -0.00000000000E+00 -0.00000000000E+00 -0.20320513690E+03  0.20320513690E+03  0.00000000000E+00 0.  1.
          6    1    1    2  501    0  0.60859749861E+02  0.19292288158E+03 -0.40806412568E+02  0.26929038359E+03  0.17300000000E+03 0.  1.
         -6    1    1    2    0  502 -0.60859749861E+02 -0.19292288158E+03  0.31966378398E+03  0.41597726161E+03  0.17300000000E+03 0.  1.
<mgrwt>
<rscale>  2 0.26618067E+03</rscale>
<asrwt>0</asrwt>
<pdfrwt beam="1">  1       21 0.74163463E-01 0.26618067E+03</pdfrwt>
<pdfrwt beam="2">  1       21 0.31262329E-01 0.26618067E+03</pdfrwt>
<totfact> 0.15382069E+04</totfact>
</mgrwt>
</event>
<event>
 4    2  0.3964208E+000  0.2227290E+03  0.7546771E-02  0.1131865E+00
         21   -1    0    0  503  502  0.00000000000E+00  0.00000000000E+00  0.22608968269E+04  0.22608968269E+04  0.00000000000E+00 0.  1.
         21   -1    0    0  501  503 -0.00000000000E+00 -0.00000000000E+00 -0.30573200379E+02  0.30573200379E+02  0.00000000000E+00 0. -1.
          6    1    1    2  501    0 -0.71879327396E+02  0.12046807534E+03  0.50639100193E+03  0.55320885904E+03  0.17300000000E+03 0. -1.
         -6    1    1    2    0  502  0.71879327396E+02 -0.12046807534E+03  0.17239326245E+04  0.17382611682E+04  0.17300000000E+03 0.  1.
<mgrwt>
<rscale>  2 0.22272897E+03</rscale>
<asrwt>0</asrwt>
<pdfrwt beam="1">  1       21 0.34783015E+00 0.22272897E+03</pdfrwt>
<pdfrwt beam="2">  1       21 0.47035711E-02 0.22272897E+03</pdfrwt>
<totfact> 0.51844116E+03</totfact>
</mgrwt>
</event>
<event>
 4    2  0.3964208E+000  0.2063735E+03  0.7546771E-02  0.1144470E+00
         21   -1    0    0  501  502  0.00000000000E+00  0.00000000000E+00  0.74501278291E+02  0.74501278291E+02  0.00000000000E+00 0.  1.
         21   -1    0    0  502  503 -0.00000000000E+00 -0.00000000000E+00 -0.76315934809E+03  0.76315934809E+03  0.00000000000E+00 0.  1.
          6    1    1    2  501    0  0.11245841304E+02  0.11195773393E+03 -0.13452928138E+03  0.24634961068E+03  0.17300000000E+03 0.  1.
         -6    1    1    2    0  503 -0.11245841304E+02 -0.11195773393E+03 -0.55412878842E+03  0.59131101570E+03  0.17300000000E+03 0.  1.
<mgrwt>
<rscale>  2 0.20637346E+03</rscale>
<asrwt>0</asrwt>
<pdfrwt beam="1">  1       21 0.11461735E-01 0.20637346E+03</pdfrwt>
<pdfrwt beam="2">  1       21 0.11740914E+00 0.20637346E+03</pdfrwt>
<totfact> 0.35222675E+04</totfact>
</mgrwt>
</event>
<event>
 4    2  0.3964208E+000  0.4236705E+03  0.7546771E-02  0.1035878E+00
         21   -1    0    0  503  502  0.00000000000E+00  0.00000000000E+00  0.87277282621E+03  0.87277282621E+03  0.00000000000E+00 0.  1.
         21   -1    0    0  501  503 -0.00000000000E+00 -0.00000000000E+00 -0.20865658564E+03  0.20865658564E+03  0.00000000000E+00 0.  1.
          6    1    1    2  501    0  0.14470896398E+03  0.35864611247E+03  0.26728753013E+03  0.50093846130E+03  0.17300000000E+03 0.  1.
         -6    1    1    2    0  502 -0.14470896398E+03 -0.35864611247E+03  0.39682871045E+03  0.58049095056E+03  0.17300000000E+03 0.  1.
<mgrwt>
<rscale>  2 0.42367053E+03</rscale>
<asrwt>0</asrwt>
<pdfrwt beam="1">  1       21 0.13427274E+00 0.42367053E+03</pdfrwt>
<pdfrwt beam="2">  1       21 0.32101014E-01 0.42367053E+03</pdfrwt>
<totfact> 0.32538550E+03</totfact>
</mgrwt>
</event>
<event>
 4    2  0.3964208E+000  0.1857290E+03  0.7546771E-02  0.1162371E+00
         21   -1    0    0  503  502  0.00000000000E+00  0.00000000000E+00  0.13751229492E+03  0.13751229492E+03  0.00000000000E+00 0.  1.
         21   -1    0    0  501  503 -0.00000000000E+00 -0.00000000000E+00 -0.38793260376E+03  0.38793260376E+03  0.00000000000E+00 0.  1.
          6    1    1    2  501    0 -0.63182066172E+02 -0.23964544664E+02 -0.28138338795E+03  0.33715261218E+03  0.17300000000E+03 0.  1.
         -6    1    1    2    0  502  0.63182066172E+02  0.23964544664E+02  0.30963079115E+02  0.18829228650E+03  0.17300000000E+03 0.  1.
<mgrwt>
<rscale>  2 0.18572903E+03</rscale>
<asrwt>0</asrwt>
<pdfrwt beam="1">  1       21 0.21155738E-01 0.18572903E+03</pdfrwt>
<pdfrwt beam="2">  1       21 0.59681938E-01 0.18572903E+03</pdfrwt>
<totfact> 0.54630776E+04</totfact>
</mgrwt>
</event>
<event>
 4    2  0.3964208E+000  0.1957685E+03  0.7546771E-02  0.1153359E+00
         21   -1    0    0  501  502  0.00000000000E+00  0.00000000000E+00  0.53360852748E+03  0.53360852748E+03  0.00000000000E+00 0.  1.
         21   -1    0    0  502  503 -0.00000000000E+00 -0.00000000000E+00 -0.26869960956E+03  0.26869960956E+03  0.00000000000E+00 0. -1.
          6    1    1    2  501    0  0.11989458788E+02  0.90843660213E+02  0.47583433747E+03  0.51453244255E+03  0.17300000000E+03 0.  1.
         -6    1    1    2    0  503 -0.11989458788E+02 -0.90843660213E+02 -0.21092541955E+03  0.28777569449E+03  0.17300000000E+03 0. -1.
<mgrwt>
<rscale>  2 0.19576853E+03</rscale>
<asrwt>0</asrwt>
<pdfrwt beam="1">  1       21 0.82093620E-01 0.19576853E+03</pdfrwt>
<pdfrwt beam="2">  1       21 0.41338401E-01 0.19576853E+03</pdfrwt>
<totfact> 0.72930916E+03</totfact>
</mgrwt>
</event>
<event>
 4    2  0.3964208E+000  0.2065115E+03  0.7546771E-02  0.1144359E+00
         21   -1    0    0  501  502  0.00000000000E+00  0.00000000000E+00  0.16143976773E+03  0.16143976773E+03  0.00000000000E+00 0.  1.
         21   -1    0    0  502  503 -0.00000000000E+00 -0.00000000000E+00 -0.10940078069E+04  0.10940078069E+04  0.00000000000E+00 0.  1.
          6    1    1    2  501    0  0.10385800303E+03 -0.43948931387E+02  0.80424543075E+02  0.22161926923E+03  0.17300000000E+03 0.  1.
         -6    1    1    2    0  503 -0.10385800303E+03  0.43948931387E+02 -0.10129925822E+04  0.10338283054E+04  0.17300000000E+03 0.  1.
<mgrwt>
<rscale>  2 0.20651148E+03</rscale>
<asrwt>0</asrwt>
<pdfrwt beam="1">  1       21 0.24836887E-01 0.20651148E+03</pdfrwt>
<pdfrwt beam="2">  1       21 0.16830889E+00 0.20651148E+03</pdfrwt>
<totfact> 0.33217396E+03</totfact>
</mgrwt>
</event>
<event>
 4    2  0.3964208E+000  0.1961071E+03  0.7546771E-02  0.1153066E+00
         21   -1    0    0  501  502  0.00000000000E+00  0.00000000000E+00  0.62964045295E+03  0.62964045295E+03  0.00000000000E+00 0.  1.
         21   -1    0    0  502  503 -0.00000000000E+00 -0.00000000000E+00 -0.61828882264E+02  0.61828882264E+02  0.00000000000E+00 0.  1.
          6    1    1    2  501    0 -0.89293641517E+02 -0.23572148904E+02  0.24583816480E+03  0.31447480645E+03  0.17300000000E+03 0. -1.
         -6    1    1    2    0  503  0.89293641517E+02  0.23572148904E+02  0.32197340588E+03  0.37699452876E+03  0.17300000000E+03 0. -1.
<mgrwt>
<rscale>  2 0.19610712E+03</rscale>
<asrwt>0</asrwt>
<pdfrwt beam="1">  1       21 0.96867758E-01 0.19610712E+03</pdfrwt>
<pdfrwt beam="2">  1       21 0.95121362E-02 0.19610712E+03</pdfrwt>
<totfact> 0.78312622E+04</totfact>
</mgrwt>
</event>
<event>
 4    2  0.3964208E+000  0.2215071E+03  0.7546771E-02  0.1132764E+00
         21   -1    0    0  503  502  0.00000000000E+00  0.00000000000E+00  0.92167106953E+02  0.92167106953E+02  0.00000000000E+00 0. -1.
         21   -1    0    0  501  503 -0.00000000000E+00 -0.00000000000E+00 -0.58189549730E+03  0.58189549730E+03  0.00000000000E+00 0. -1.
          6    1    1    2  501    0 -0.12356876857E+03  0.62186277320E+02 -0.34320633339E+03  0.40848006185E+03  0.17300000000E+03 0. -1.
         -6    1    1    2    0  502  0.12356876857E+03 -0.62186277320E+02 -0.14652205696E+03  0.26558254240E+03  0.17300000000E+03 0. -1.
<mgrwt>
<rscale>  2 0.22150705E+03</rscale>
<asrwt>0</asrwt>
<pdfrwt beam="1">  1       21 0.14179555E-01 0.22150705E+03</pdfrwt>
<pdfrwt beam="2">  1       21 0.89522383E-01 0.22150705E+03</pdfrwt>
<totfact> 0.45550407E+04</totfact>
</mgrwt>
</event>
<event>
 4    2  0.3964208E+000  0.2168131E+03  0.7546771E-02  0.1136282E+00
         21   -1    0    0  501  502  0.00000000000E+00  0.00000000000E+00  0.16674709493E+03  0.16674709493E+03  0.00000000000E+00 0.  1.
         21   -1    0    0  502  503 -0.00000000000E+00 -0.00000000000E+00 -0.28379447407E+03  0.28379447407E+03  0.00000000000E+00 0.  1.
          6    1    1    2  501    0 -0.11310138465E+03 -0.65475123768E+02 -0.76873476558E+02  0.23003792392E+03  0.17300000000E+03 0.  1.
         -6    1    1    2    0  503  0.11310138465E+03  0.65475123768E+02 -0.40173902585E+02  0.22050364508E+03  0.17300000000E+03 0.  1.
<mgrwt>
<rscale>  2 0.21681309E+03</rscale>
<asrwt>0</asrwt>
<pdfrwt beam="1">  1       21 0.25653400E-01 0.21681309E+03</pdfrwt>
<pdfrwt beam="2">  1       21 0.43660688E-01 0.21681309E+03</pdfrwt>
<totfact> 0.71927128E+04</totfact>
</mgrwt>
</event>
<event>
 4    2  0.3964208E+000  0.1805092E+03  0.7546771E-02  0.1167311E+00
         21   -1    0    0  503  502  0.00000000000E+00  0.00000000000E+00  0.43613035768E+02  0.43613035768E+02  0.00000000000E+00 0. -1.
         21   -1    0    0  501  503 -0.00000000000E+00 -0.00000000000E+00 -0.11577341545E+04  0.11577341545E+04  0.00000000000E+00 0. -1.
          6    1    1    2  501    0 -0.47343224048E+02 -0.20327012304E+02 -0.91479305146E+03  0.93243224703E+03  0.17300000000E+03 0. -1.
         -6    1    1    2    0  502  0.47343224048E+02  0.20327012304E+02 -0.19932806724E+03  0.26891494321E+03  0.17300000000E+03 0. -1.
<mgrwt>
<rscale>  2 0.18050919E+03</rscale>
<asrwt>0</asrwt>
<pdfrwt beam="1">  1       21 0.67096988E-02 0.18050919E+03</pdfrwt>
<pdfrwt beam="2">  1       21 0.17811292E+00 0.18050919E+03</pdfrwt>
<totfact> 0.30752581E+04</totfact>
</mgrwt>
</event>
<event>
 4    2  0.3964208E+000  0.2338528E+03  0.7546771E-02  0.1123957E+00
         21   -1    0    0  503  502  0.00000000000E+00  0.00000000000E+00  0.24921619847E+03  0.24921619847E+03  0.00000000000E+00 0. -1.
         21   -1    0    0  501  503 -0.00000000000E+00 -0.00000000000E+00 -0.22527349888E+03  0.22527349888E+03  0.00000000000E+00 0. -1.
          6    1    1    2  501    0 -0.12795746894E+03  0.91569858733E+02 -0.26217201001E+02  0.23531785847E+03  0.17300000000E+03 0. -1.
         -6    1    1    2    0  502  0.12795746894E+03 -0.91569858733E+02  0.50159900589E+02  0.23917183888E+03  0.17300000000E+03 0. -1.
<mgrwt>
<rscale>  2 0.23385284E+03</rscale>
<asrwt>0</asrwt>
<pdfrwt beam="1">  1       21 0.38340954E-01 0.23385284E+03</pdfrwt>
<pdfrwt beam="2">  1       21 0.34657461E-01 0.23385284E+03</pdfrwt>
<totfact> 0.51660989E+04</totfact>
</mgrwt>
</event>
<event>
 4    2  0.3964208E+000  0.2100745E+03  0.7546771E-02  0.1141507E+00
         21   -1    0    0  503  502  0.00000000000E+00  0.00000000000E+00  0.22247386869E+03  0.22247386869E+03  0.00000000000E+00 0. -1.
         21   -1    0    0  501  503 -0.00000000000E+00 -0.00000000000E+00 -0.32409575032E+03  0.32409575032E+03  0.00000000000E+00 0.  1.
          6    1    1    2  501    0 -0.97406031457E+02  0.68661334125E+02 -0.22102575955E+03  0.30493228781E+03  0.17300000000E+03 0.  1.
         -6    1    1    2    0  502  0.97406031457E+02 -0.68661334125E+02  0.11940387791E+03  0.24163733120E+03  0.17300000000E+03 0.  1.
<mgrwt>
<rscale>  2 0.21007454E+03</rscale>
<asrwt>0</asrwt>
<pdfrwt beam="1">  1       21 0.34226749E-01 0.21007454E+03</pdfrwt>
<pdfrwt beam="2">  1       21 0.49860885E-01 0.21007454E+03</pdfrwt>
<totfact> 0.31230636E+04</totfact>
</mgrwt>
</event>
<event>
 4    2  0.3964208E+000  0.2003805E+03  0.7546771E-02  0.1149418E+00
         21   -1    0    0  501  502  0.00000000000E+00  0.00000000000E+00  0.43184699742E+03  0.43184699742E+03  0.00000000000E+00 0.  1.
         21   -1    0    0  502  503 -0.00000000000E+00 -0.00000000000E+00 -0.22317359876E+03  0.22317359876E+03  0.00000000000E+00 0. -1.
          6    1    1    2  501    0  0.10068177341E+03  0.93022513120E+01  0.35448720769E+03  0.40720207734E+03  0.17300000000E+03 0.  1.
         -6    1    1    2    0  503 -0.10068177341E+03 -0.93022513120E+01 -0.14581380903E+03  0.24781851884E+03  0.17300000000E+03 0. -1.
<mgrwt>
<rscale>  2 0.20038052E+03</rscale>
<asrwt>0</asrwt>
<pdfrwt beam="1">  1       21 0.66438000E-01 0.20038052E+03</pdfrwt>
<pdfrwt beam="2">  1       21 0.34334400E-01 0.20038052E+03</pdfrwt>
<totfact> 0.16904595E+04</totfact>
</mgrwt>
</event>
<event>
 4    2  0.3964208E+000  0.2146855E+03  0.7546771E-02  0.1137908E+00
         21   -1    0    0  503  502  0.00000000000E+00  0.00000000000E+00  0.79962743706E+02  0.79962743706E+02  0.00000000000E+00 0. -1.
         21   -1    0    0  501  503 -0.00000000000E+00 -0.00000000000E+00 -0.59032382824E+03  0.59032382824E+03  0.00000000000E+00 0. -1.
          6    1    1    2  501    0  0.11604984586E+03  0.51897121586E+02 -0.20369432962E+03  0.29594130815E+03  0.17300000000E+03 0. -1.
         -6    1    1    2    0  502 -0.11604984586E+03 -0.51897121586E+02 -0.30666675491E+03  0.37434526379E+03  0.17300000000E+03 0. -1.
<mgrwt>
<rscale>  2 0.21468553E+03</rscale>
<asrwt>0</asrwt>
<pdfrwt beam="1">  1       21 0.12301961E-01 0.21468553E+03</pdfrwt>
<pdfrwt beam="2">  1       21 0.90819049E-01 0.21468553E+03</pdfrwt>
<totfact> 0.57132459E+04</totfact>
</mgrwt>
</event>
<event>
 4    2  0.3964208E+000  0.1968148E+03  0.7546771E-02  0.1152455E+00
         21   -1    0    0  501  502  0.00000000000E+00  0.00000000000E+00  0.88185476184E+02  0.88185476184E+02  0.00000000000E+00 0.  1.
         21   -1    0    0  502  503 -0.00000000000E+00 -0.00000000000E+00 -0.44622939518E+03  0.44622939518E+03  0.00000000000E+00 0.  1.
          6    1    1    2  501    0  0.90496419372E+02 -0.24848982608E+02 -0.21242341112E+03  0.28958553045E+03  0.17300000000E+03 0.  1.
         -6    1    1    2    0  503 -0.90496419372E+02  0.24848982608E+02 -0.14562050787E+03  0.24482934091E+03  0.17300000000E+03 0.  1.
<mgrwt>
<rscale>  2 0.19681482E+03</rscale>
<asrwt>0</asrwt>
<pdfrwt beam="1">  1       21 0.13566997E-01 0.19681482E+03</pdfrwt>
<pdfrwt beam="2">  1       21 0.68650675E-01 0.19681482E+03</pdfrwt>
<totfact> 0.90864395E+04</totfact>
</mgrwt>
</event>
<event>
 4    2  0.3964208E+000  0.3087126E+03  0.7546771E-02  0.1080965E+00
         21   -1    0    0  501  502  0.00000000000E+00  0.00000000000E+00  0.50956985166E+03  0.50956985166E+03  0.00000000000E+00 0. -1.
         21   -1    0    0  502  503 -0.00000000000E+00 -0.00000000000E+00 -0.37268249065E+03  0.37268249065E+03  0.00000000000E+00 0. -1.
          6    1    1    2  501    0 -0.68438863605E+02  0.24635457425E+03  0.37979228382E+03  0.48943399265E+03  0.17300000000E+03 0. -1.
         -6    1    1    2    0  503  0.68438863605E+02 -0.24635457425E+03 -0.24290492281E+03  0.39281834967E+03  0.17300000000E+03 0. -1.
<mgrwt>
<rscale>  2 0.30871258E+03</rscale>
<asrwt>0</asrwt>
<pdfrwt beam="1">  1       21 0.78395362E-01 0.30871258E+03</pdfrwt>
<pdfrwt beam="2">  1       21 0.57335768E-01 0.30871258E+03</pdfrwt>
<totfact> 0.38120051E+03</totfact>
</mgrwt>
</event>
<event>
 4    2  0.3964208E+000  0.1778705E+03  0.7546771E-02  0.1169880E+00
         21   -1    0    0  501  502  0.00000000000E+00  0.00000000000E+00  0.38121266600E+03  0.38121266600E+03  0.00000000000E+00 0.  1.
         21   -1    0    0  502  503 -0.00000000000E+00 -0.00000000000E+00 -0.83403716195E+02  0.83403716195E+02  0.00000000000E+00 0. -1.
          6    1    1    2  501    0 -0.39271127782E+01  0.41152166430E+02  0.16520965571E+03  0.24275945575E+03  0.17300000000E+03 0. -1.
         -6    1    1    2    0  503  0.39271127782E+01 -0.41152166430E+02  0.13259929409E+03  0.22185692644E+03  0.17300000000E+03 0. -1.
<mgrwt>
<rscale>  2 0.17787052E+03</rscale>
<asrwt>0</asrwt>
<pdfrwt beam="1">  1       21 0.58648101E-01 0.17787052E+03</pdfrwt>
<pdfrwt beam="2">  1       21 0.12831341E-01 0.17787052E+03</pdfrwt>
<totfact> 0.14230220E+05</totfact>
</mgrwt>
</event>
<event>
 4    2  0.3964208E+000  0.2196924E+03  0.7546771E-02  0.1134113E+00
         21   -1    0    0  503  502  0.00000000000E+00  0.00000000000E+00  0.38576693721E+02  0.38576693721E+02  0.00000000000E+00 0.  1.
         21   -1    0    0  501  503 -0.00000000000E+00 -0.00000000000E+00 -0.21612729780E+04  0.21612729780E+04  0.00000000000E+00 0.  1.
          6    1    1    2  501    0  0.12607823839E+03 -0.49396784421E+02 -0.17751227881E+04  0.17886658932E+04  0.17300000000E+03 0.  1.
         -6    1    1    2    0  502 -0.12607823839E+03  0.49396784421E+02 -0.34757349617E+03  0.41118377855E+03  0.17300000000E+03 0.  1.
<mgrwt>
<rscale>  2 0.21969243E+03</rscale>
<asrwt>0</asrwt>
<pdfrwt beam="1">  1       21 0.59348750E-02 0.21969243E+03</pdfrwt>
<pdfrwt beam="2">  1       21 0.33250359E+00 0.21969243E+03</pdfrwt>
<totfact> 0.43089598E+03</totfact>
</mgrwt>
</event>
<event>
 4    2  0.3964208E+000  0.3895818E+03  0.7546771E-02  0.1047448E+00
         21   -1    0    0  501  502  0.00000000000E+00  0.00000000000E+00  0.22760664293E+04  0.22760664293E+04  0.00000000000E+00 0. -1.
         21   -1    0    0  502  503 -0.00000000000E+00 -0.00000000000E+00 -0.72106160653E+02  0.72106160653E+02  0.00000000000E+00 0.  1.
          6    1    1    2  501    0  0.54155286244E+02 -0.34483641853E+03  0.14239812916E+04  0.14763118470E+04  0.17300000000E+03 0. -1.
         -6    1    1    2    0  503 -0.54155286244E+02  0.34483641853E+03  0.77997897700E+03  0.87186074297E+03  0.17300000000E+03 0.  1.
<mgrwt>
<rscale>  2 0.38958176E+03</rscale>
<asrwt>0</asrwt>
<pdfrwt beam="1">  1       21 0.35016401E+00 0.38958176E+03</pdfrwt>
<pdfrwt beam="2">  1       21 0.11093257E-01 0.38958176E+03</pdfrwt>
<totfact> 0.97121557E+02</totfact>
</mgrwt>
</event>
<event>
 4    2  0.3964208E+000  0.1734965E+03  0.7546771E-02  0.1174250E+00
         21   -1    0    0  501  502  0.00000000000E+00  0.00000000000E+00  0.32430831281E+03  0.32430831281E+03  0.00000000000E+00 0.  1.
         21   -1    0    0  502  503 -0.00000000000E+00 -0.00000000000E+00 -0.10407059999E+03  0.10407059999E+03  0.00000000000E+00 0.  1.
          6    1    1    2  501    0 -0.83362601567E+01 -0.10125648263E+02  0.39682350379E+02  0.17797671454E+03  0.17300000000E+03 0.  1.
         -6    1    1    2    0  503  0.83362601567E+01  0.10125648263E+02  0.18055536245E+03  0.25040219826E+03  0.17300000000E+03 0.  1.
<mgrwt>
<rscale>  2 0.17349646E+03</rscale>
<asrwt>0</asrwt>
<pdfrwt beam="1">  1       21 0.49893586E-01 0.17349646E+03</pdfrwt>
<pdfrwt beam="2">  1       21 0.16010862E-01 0.17349646E+03</pdfrwt>
<totfact> 0.13417102E+05</totfact>
</mgrwt>
</event>
<event>
 4    2  0.3964208E+000  0.2229071E+03  0.7546771E-02  0.1131734E+00
         21   -1    0    0  503  502  0.00000000000E+00  0.00000000000E+00  0.47064272584E+02  0.47064272584E+02  0.00000000000E+00 0.  1.
         21   -1    0    0  501  503 -0.00000000000E+00 -0.00000000000E+00 -0.11016296314E+04  0.11016296314E+04  0.00000000000E+00 0. -1.
          6    1    1    2  501    0 -0.10160014863E+02  0.14019757300E+03 -0.41005806752E+03  0.46672819083E+03  0.17300000000E+03 0. -1.
         -6    1    1    2    0  502  0.10160014863E+02 -0.14019757300E+03 -0.64450729125E+03  0.68196571311E+03  0.17300000000E+03 0. -1.
<mgrwt>
<rscale>  2 0.22290712E+03</rscale>
<asrwt>0</asrwt>
<pdfrwt beam="1">  1       21 0.72406572E-02 0.22290712E+03</pdfrwt>
<pdfrwt beam="2">  1       21 0.16948148E+00 0.22290712E+03</pdfrwt>
<totfact> 0.30119732E+04</totfact>
</mgrwt>
</event>
<event>
 4    2  0.3964208E+000  0.2897383E+03  0.7546771E-02  0.1090486E+00
         21   -1    0    0  503  502  0.00000000000E+00  0.00000000000E+00  0.19718767028E+04  0.19718767028E+04  0.00000000000E+00 0. -1.
         21   -1    0    0  501  503 -0.00000000000E+00 -0.00000000000E+00 -0.22282413877E+03  0.22282413877E+03  0.00000000000E+00 0. -1.
          6    1    1    2  501    0 -0.10656803933E+03 -0.20654908354E+03 -0.11244267050E+03  0.31079193211E+03  0.17300000000E+03 0. -1.
         -6    1    1    2    0  502  0.10656803933E+03  0.20654908354E+03  0.18614952346E+04  0.18839089095E+04  0.17300000000E+03 0. -1.
<mgrwt>
<rscale>  2 0.28973828E+03</rscale>
<asrwt>0</asrwt>
<pdfrwt beam="1">  1       21 0.30336563E+00 0.28973828E+03</pdfrwt>
<pdfrwt beam="2">  1       21 0.34280638E-01 0.28973828E+03</pdfrwt>
<totfact> 0.23739244E+02</totfact>
</mgrwt>
</event>
<event>
 4    2  0.3964208E+000  0.1779037E+03  0.7546771E-02  0.1169847E+00
         21   -1    0    0  501  502  0.00000000000E+00  0.00000000000E+00  0.64600472134E+02  0.64600472134E+02  0.00000000000E+00 0.  1.
         21   -1    0    0  502  503 -0.00000000000E+00 -0.00000000000E+00 -0.12523074080E+04  0.12523074080E+04  0.00000000000E+00 0.  1.
          6    1    1    2  501    0  0.13651235831E+02 -0.39170960643E+02 -0.80099858472E+02  0.19510435086E+03  0.17300000000E+03 0.  1.
         -6    1    1    2    0  503 -0.13651235831E+02  0.39170960643E+02 -0.11076070774E+04  0.11218035293E+04  0.17300000000E+03 0.  1.
<mgrwt>
<rscale>  2 0.17790368E+03</rscale>
<asrwt>0</asrwt>
<pdfrwt beam="1">  1       21 0.99385340E-02 0.17790368E+03</pdfrwt>
<pdfrwt beam="2">  1       21 0.19266268E+00 0.17790368E+03</pdfrwt>
<totfact> 0.12439480E+04</totfact>
</mgrwt>
</event>
<event>
 4    2  0.3964208E+000  0.1973834E+03  0.7546771E-02  0.1151966E+00
         21   -1    0    0  503  502  0.00000000000E+00  0.00000000000E+00  0.24104166634E+04  0.24104166634E+04  0.00000000000E+00 0.  1.
         21   -1    0    0  501  503 -0.00000000000E+00 -0.00000000000E+00 -0.31040884813E+02  0.31040884813E+02  0.00000000000E+00 0.  1.
          6    1    1    2  501    0 -0.42217266992E+02  0.85140551187E+02  0.34456703906E+03  0.39709779085E+03  0.17300000000E+03 0.  1.
         -6    1    1    2    0  502  0.42217266992E+02 -0.85140551187E+02  0.20348087396E+04  0.20443597574E+04  0.17300000000E+03 0.  1.
<mgrwt>
<rscale>  2 0.19738341E+03</rscale>
<asrwt>0</asrwt>
<pdfrwt beam="1">  1       21 0.37083319E+00 0.19738341E+03</pdfrwt>
<pdfrwt beam="2">  1       21 0.47755226E-02 0.19738341E+03</pdfrwt>
<totfact> 0.37961790E+03</totfact>
</mgrwt>
</event>
<event>
 4    2  0.3964208E+000  0.1878686E+03  0.7546771E-02  0.1160398E+00
         21   -1    0    0  501  502  0.00000000000E+00  0.00000000000E+00  0.17481801565E+03  0.17481801565E+03  0.00000000000E+00 0. -1.
         21   -1    0    0  502  503 -0.00000000000E+00 -0.00000000000E+00 -0.20550064335E+03  0.20550064335E+03  0.00000000000E+00 0. -1.
          6    1    1    2  501    0  0.26141567134E+02 -0.68426748588E+02 -0.40535451047E+02  0.19219189433E+03  0.17300000000E+03 0. -1.
         -6    1    1    2    0  503 -0.26141567134E+02  0.68426748588E+02  0.98528233445E+01  0.18812676466E+03  0.17300000000E+03 0. -1.
<mgrwt>
<rscale>  2 0.18786857E+03</rscale>
<asrwt>0</asrwt>
<pdfrwt beam="1">  1       21 0.26895080E-01 0.18786857E+03</pdfrwt>
<pdfrwt beam="2">  1       21 0.31615483E-01 0.18786857E+03</pdfrwt>
<totfact> 0.12685092E+05</totfact>
</mgrwt>
</event>
<event>
 4    2  0.3964208E+000  0.1799103E+03  0.7546771E-02  0.1167890E+00
         21   -1    0    0  501  502  0.00000000000E+00  0.00000000000E+00  0.54974239162E+02  0.54974239162E+02  0.00000000000E+00 0.  1.
         21   -1    0    0  502  503 -0.00000000000E+00 -0.00000000000E+00 -0.72662038749E+03  0.72662038749E+03  0.00000000000E+00 0.  1.
          6    1    1    2  501    0  0.44386499684E+02 -0.21646138410E+02 -0.16561252330E+03  0.24453062085E+03  0.17300000000E+03 0.  1.
         -6    1    1    2    0  503 -0.44386499684E+02  0.21646138410E+02 -0.50603362503E+03  0.53706400580E+03  0.17300000000E+03 0.  1.
<mgrwt>
<rscale>  2 0.17991030E+03</rscale>
<asrwt>0</asrwt>
<pdfrwt beam="1">  1       21 0.84575756E-02 0.17991030E+03</pdfrwt>
<pdfrwt beam="2">  1       21 0.11178775E+00 0.17991030E+03</pdfrwt>
<totfact> 0.68815856E+04</totfact>
</mgrwt>
</event>
<event>
 4    2  0.3964208E+000  0.1955847E+03  0.7546771E-02  0.1153519E+00
         21   -1    0    0  501  502  0.00000000000E+00  0.00000000000E+00  0.20138698241E+03  0.20138698241E+03  0.00000000000E+00 0. -1.
         21   -1    0    0  502  503 -0.00000000000E+00 -0.00000000000E+00 -0.19662831451E+03  0.19662831451E+03  0.00000000000E+00 0. -1.
          6    1    1    2  501    0 -0.85635098637E+02  0.31480168494E+02  0.39056357795E+02  0.19944615868E+03  0.17300000000E+03 0. -1.
         -6    1    1    2    0  503  0.85635098637E+02 -0.31480168494E+02 -0.34297689896E+02  0.19856913823E+03  0.17300000000E+03 0. -1.
<mgrwt>
<rscale>  2 0.19558469E+03</rscale>
<asrwt>0</asrwt>
<pdfrwt beam="1">  1       21 0.30982613E-01 0.19558469E+03</pdfrwt>
<pdfrwt beam="2">  1       21 0.30250510E-01 0.19558469E+03</pdfrwt>
<totfact> 0.10479639E+05</totfact>
</mgrwt>
</event>
<event>
 4    2  0.3964208E+000  0.1757519E+03  0.7546771E-02  0.1171979E+00
         21   -1    0    0  503  502  0.00000000000E+00  0.00000000000E+00  0.13596292536E+03  0.13596292536E+03  0.00000000000E+00 0.  1.
         21   -1    0    0  501  503 -0.00000000000E+00 -0.00000000000E+00 -0.27119899504E+03  0.27119899504E+03  0.00000000000E+00 0.  1.
          6    1    1    2  501    0  0.30901194712E+02  0.21990759637E+01 -0.14963225278E+03  0.23082142631E+03  0.17300000000E+03 0.  1.
         -6    1    1    2    0  502 -0.30901194712E+02 -0.21990759637E+01  0.14396183104E+02  0.17634049409E+03  0.17300000000E+03 0.  1.
<mgrwt>
<rscale>  2 0.17575187E+03</rscale>
<asrwt>0</asrwt>
<pdfrwt beam="1">  1       21 0.20917373E-01 0.17575187E+03</pdfrwt>
<pdfrwt beam="2">  1       21 0.41722922E-01 0.17575187E+03</pdfrwt>
<totfact> 0.11808521E+05</totfact>
</mgrwt>
</event>
<event>
 4    2  0.3964208E+000  0.2544456E+03  0.7546771E-02  0.1110527E+00
         21   -1    0    0  501  502  0.00000000000E+00  0.00000000000E+00  0.14856004258E+04  0.14856004258E+04  0.00000000000E+00 0. -1.
         21   -1    0    0  502  503 -0.00000000000E+00 -0.00000000000E+00 -0.46777544827E+02  0.46777544827E+02  0.00000000000E+00 0. -1.
          6    1    1    2  501    0  0.61790655448E+02  0.17605534230E+03  0.91972984211E+03  0.95427750216E+03  0.17300000000E+03 0. -1.
         -6    1    1    2    0  503 -0.61790655448E+02 -0.17605534230E+03  0.51909303889E+03  0.57810046850E+03  0.17300000000E+03 0. -1.
<mgrwt>
<rscale>  2 0.25444561E+03</rscale>
<asrwt>0</asrwt>
<pdfrwt beam="1">  1       21 0.22855388E+00 0.25444561E+03</pdfrwt>
<pdfrwt beam="2">  1       21 0.71965465E-02 0.25444561E+03</pdfrwt>
<totfact> 0.12261431E+04</totfact>
</mgrwt>
</event>
<event>
 4    2  0.3964208E+000  0.1946598E+03  0.7546771E-02  0.1154324E+00
         21   -1    0    0  501  502  0.00000000000E+00  0.00000000000E+00  0.99290790885E+03  0.99290790885E+03  0.00000000000E+00 0.  1.
         21   -1    0    0  502  503 -0.00000000000E+00 -0.00000000000E+00 -0.66700962955E+02  0.66700962955E+02  0.00000000000E+00 0.  1.
          6    1    1    2  501    0  0.35071552320E+02 -0.82057442741E+02  0.80964900923E+03  0.83272081507E+03  0.17300000000E+03 0.  1.
         -6    1    1    2    0  503 -0.35071552320E+02  0.82057442741E+02  0.11655793666E+03  0.22688805674E+03  0.17300000000E+03 0.  1.
<mgrwt>
<rscale>  2 0.19465980E+03</rscale>
<asrwt>0</asrwt>
<pdfrwt beam="1">  1       21 0.15275505E+00 0.19465980E+03</pdfrwt>
<pdfrwt beam="2">  1       21 0.10261687E-01 0.19465980E+03</pdfrwt>
<totfact> 0.22055958E+04</totfact>
</mgrwt>
</event>
<event>
 4    2  0.3964208E+000  0.2099570E+03  0.7546771E-02  0.1141600E+00
         21   -1    0    0  503  502  0.00000000000E+00  0.00000000000E+00  0.20753749660E+03  0.20753749660E+03  0.00000000000E+00 0. -1.
         21   -1    0    0  501  503 -0.00000000000E+00 -0.00000000000E+00 -0.21378368119E+03  0.21378368119E+03  0.00000000000E+00 0. -1.
          6    1    1    2  501    0  0.56503952947E+02  0.10469119111E+03 -0.20042038140E+02  0.21091141621E+03  0.17300000000E+03 0. -1.
         -6    1    1    2    0  502 -0.56503952947E+02 -0.10469119111E+03  0.13795853550E+02  0.21040976158E+03  0.17300000000E+03 0. -1.
<mgrwt>
<rscale>  2 0.20995700E+03</rscale>
<asrwt>0</asrwt>
<pdfrwt beam="1">  1       21 0.31928846E-01 0.20995700E+03</pdfrwt>
<pdfrwt beam="2">  1       21 0.32889797E-01 0.20995700E+03</pdfrwt>
<totfact> 0.83339213E+04</totfact>
</mgrwt>
</event>
<event>
 4    2  0.3964208E+000  0.1945387E+03  0.7546771E-02  0.1154430E+00
         21   -1    0    0  501  502  0.00000000000E+00  0.00000000000E+00  0.67160953360E+03  0.67160953360E+03  0.00000000000E+00 0. -1.
         21   -1    0    0  502  503 -0.00000000000E+00 -0.00000000000E+00 -0.15598572440E+03  0.15598572440E+03  0.00000000000E+00 0. -1.
          6    1    1    2  501    0 -0.84967941279E+02  0.26396403509E+02  0.58852600346E+03  0.61984528546E+03  0.17300000000E+03 0. -1.
         -6    1    1    2    0  503  0.84967941279E+02 -0.26396403509E+02 -0.72902194250E+02  0.20774997254E+03  0.17300000000E+03 0. -1.
<mgrwt>
<rscale>  2 0.19453874E+03</rscale>
<asrwt>0</asrwt>
<pdfrwt beam="1">  1       21 0.10332454E+00 0.19453874E+03</pdfrwt>
<pdfrwt beam="2">  1       21 0.23997804E-01 0.19453874E+03</pdfrwt>
<totfact> 0.12418380E+04</totfact>
</mgrwt>
</event>
<event>
 4    2  0.3964208E+000  0.1945089E+03  0.7546771E-02  0.1154456E+00
         21   -1    0    0  503  502  0.00000000000E+00  0.00000000000E+00  0.84480776449E+02  0.84480776449E+02  0.00000000000E+00 0. -1.
         21   -1    0    0  501  503 -0.00000000000E+00 -0.00000000000E+00 -0.80998171233E+03  0.80998171233E+03  0.00000000000E+00 0.  1.
          6    1    1    2  501    0  0.20517523959E+02 -0.86508676603E+02 -0.66179431906E+03  0.68978651817E+03  0.17300000000E+03 0.  1.
         -6    1    1    2    0  502 -0.20517523959E+02  0.86508676603E+02 -0.63706616826E+02  0.20467597061E+03  0.17300000000E+03 0. -1.
<mgrwt>
<rscale>  2 0.19450892E+03</rscale>
<asrwt>0</asrwt>
<pdfrwt beam="1">  1       21 0.12997042E-01 0.19450892E+03</pdfrwt>
<pdfrwt beam="2">  1       21 0.12461257E+00 0.19450892E+03</pdfrwt>
<totfact> 0.24419477E+04</totfact>
</mgrwt>
</event>
<event>
 4    2  0.3964208E+000  0.1915382E+03  0.7546771E-02  0.1157081E+00
         21   -1    0    0  503  502  0.00000000000E+00  0.00000000000E+00  0.18836901498E+04  0.18836901498E+04  0.00000000000E+00 0. -1.
         21   -1    0    0  501  503 -0.00000000000E+00 -0.00000000000E+00 -0.19479339602E+02  0.19479339602E+02  0.00000000000E+00 0. -1.
          6    1    1    2  501    0  0.27679740518E+01  0.82159822186E+02  0.94441696428E+03  0.96364428110E+03  0.17300000000E+03 0. -1.
         -6    1    1    2    0  502 -0.27679740518E+01 -0.82159822186E+02  0.91979384596E+03  0.93952520835E+03  0.17300000000E+03 0. -1.
<mgrwt>
<rscale>  2 0.19153824E+03</rscale>
<asrwt>0</asrwt>
<pdfrwt beam="1">  1       21 0.28979834E+00 0.19153824E+03</pdfrwt>
<pdfrwt beam="2">  1       21 0.29968230E-02 0.19153824E+03</pdfrwt>
<totfact> 0.24794994E+04</totfact>
</mgrwt>
</event>
<event>
 4    2  0.3964208E+000  0.1896365E+03  0.7546771E-02  0.1158790E+00
         21   -1    0    0  501  502  0.00000000000E+00  0.00000000000E+00  0.30401652677E+03  0.30401652677E+03  0.00000000000E+00 0.  1.
         21   -1    0    0  502  503 -0.00000000000E+00 -0.00000000000E+00 -0.11830321138E+03  0.11830321138E+03  0.00000000000E+00 0.  1.
          6    1    1    2  501    0  0.72314012504E+02 -0.28349237099E+02  0.90592308604E+02  0.21016413116E+03  0.17300000000E+03 0.  1.
         -6    1    1    2    0  503 -0.72314012504E+02  0.28349237099E+02  0.95121006786E+02  0.21215560700E+03  0.17300000000E+03 0.  1.
<mgrwt>
<rscale>  2 0.18963648E+03</rscale>
<asrwt>0</asrwt>
<pdfrwt beam="1">  1       21 0.46771773E-01 0.18963648E+03</pdfrwt>
<pdfrwt beam="2">  1       21 0.18200494E-01 0.18963648E+03</pdfrwt>
<totfact> 0.12050973E+05</totfact>
</mgrwt>
</event>
<event>
 4    2  0.3964208E+000  0.2079550E+03  0.7546771E-02  0.1143196E+00
         21   -1    0    0  501  502  0.00000000000E+00  0.00000000000E+00  0.65443048986E+03  0.65443048986E+03  0.00000000000E+00 0. -1.
         21   -1    0    0  502  503 -0.00000000000E+00 -0.00000000000E+00 -0.66716892598E+02  0.66716892598E+02  0.00000000000E+00 0.  1.
          6    1    1    2  501    0  0.34095853892E+02  0.11024407880E+03  0.25864894817E+03  0.33188034373E+03  0.17300000000E+03 0.  1.
         -6    1    1    2    0  503 -0.34095853892E+02 -0.11024407880E+03  0.32906464910E+03  0.38926703874E+03  0.17300000000E+03 0.  1.
<mgrwt>
<rscale>  2 0.20795501E+03</rscale>
<asrwt>0</asrwt>
<pdfrwt beam="1">  1       21 0.10068161E+00 0.20795501E+03</pdfrwt>
<pdfrwt beam="2">  1       21 0.10264138E-01 0.20795501E+03</pdfrwt>
<totfact> 0.62132992E+04</totfact>
</mgrwt>
</event>
<event>
 4    2  0.3964208E+000  0.1982375E+03  0.7546771E-02  0.1151235E+00
         21   -1    0    0  501  502  0.00000000000E+00  0.00000000000E+00  0.10065117584E+04  0.10065117584E+04  0.00000000000E+00 0. -1.
         21   -1    0    0  502  503 -0.00000000000E+00 -0.00000000000E+00 -0.91968199498E+02  0.91968199498E+02  0.00000000000E+00 0. -1.
          6    1    1    2  501    0 -0.61268418270E+02 -0.74935124697E+02  0.87392147876E+03  0.89612322982E+03  0.17300000000E+03 0. -1.
         -6    1    1    2    0  503  0.61268418270E+02  0.74935124697E+02  0.40622080106E+02  0.20235672804E+03  0.17300000000E+03 0. -1.
<mgrwt>
<rscale>  2 0.19823746E+03</rscale>
<asrwt>0</asrwt>
<pdfrwt beam="1">  1       21 0.15484795E+00 0.19823746E+03</pdfrwt>
<pdfrwt beam="2">  1       21 0.14148954E-01 0.19823746E+03</pdfrwt>
<totfact> 0.11936639E+04</totfact>
</mgrwt>
</event>
<event>
 4    2  0.3964208E+000  0.1916039E+03  0.7546771E-02  0.1157023E+00
         21   -1    0    0  501  502  0.00000000000E+00  0.00000000000E+00  0.16251409508E+03  0.16251409508E+03  0.00000000000E+00 0.  1.
         21   -1    0    0  502  503 -0.00000000000E+00 -0.00000000000E+00 -0.22592093703E+03  0.22592093703E+03  0.00000000000E+00 0.  1.
          6    1    1    2  501    0 -0.59061985593E+02  0.57399718522E+02 -0.29864698851E+02  0.19391736917E+03  0.17300000000E+03 0.  1.
         -6    1    1    2    0  503  0.59061985593E+02 -0.57399718522E+02 -0.33542143099E+02  0.19451766293E+03  0.17300000000E+03 0.  1.
<mgrwt>
<rscale>  2 0.19160388E+03</rscale>
<asrwt>0</asrwt>
<pdfrwt beam="1">  1       21 0.25002168E-01 0.19160388E+03</pdfrwt>
<pdfrwt beam="2">  1       21 0.34757067E-01 0.19160388E+03</pdfrwt>
<totfact> 0.12088448E+05</totfact>
</mgrwt>
</event>
<event>
 4    2  0.3964208E+000  0.2995612E+03  0.7546771E-02  0.1085460E+00
         21   -1    0    0  501  502  0.00000000000E+00  0.00000000000E+00  0.12156098734E+04  0.12156098734E+04  0.00000000000E+00 0. -1.
         21   -1    0    0  502  503 -0.00000000000E+00 -0.00000000000E+00 -0.12993809192E+03  0.12993809192E+03  0.00000000000E+00 0. -1.
          6    1    1    2  501    0  0.24454341677E+03  0.25392347293E+01  0.98496636842E+03  0.10295123493E+04  0.17300000000E+03 0. -1.
         -6    1    1    2    0  503 -0.24454341677E+03 -0.25392347293E+01  0.10070541310E+03  0.31603561607E+03  0.17300000000E+03 0. -1.
<mgrwt>
<rscale>  2 0.29956123E+03</rscale>
<asrwt>0</asrwt>
<pdfrwt beam="1">  1       21 0.18701690E+00 0.29956123E+03</pdfrwt>
<pdfrwt beam="2">  1       21 0.19990476E-01 0.29956123E+03</pdfrwt>
<totfact> 0.34755725E+03</totfact>
</mgrwt>
</event>
<event>
 4    2  0.3964208E+000  0.1983864E+03  0.7546771E-02  0.1151108E+00
         21   -1    0    0  501  502  0.00000000000E+00  0.00000000000E+00  0.98072576429E+03  0.98072576429E+03  0.00000000000E+00 0.  1.
         21   -1    0    0  502  503 -0.00000000000E+00 -0.00000000000E+00 -0.42600786362E+02  0.42600786362E+02  0.00000000000E+00 0.  1.
          6    1    1    2  501    0  0.93110217896E+02 -0.27543872536E+02  0.59226925004E+03  0.62461191322E+03  0.17300000000E+03 0.  1.
         -6    1    1    2    0  503 -0.93110217896E+02  0.27543872536E+02  0.34585572788E+03  0.39871463743E+03  0.17300000000E+03 0.  1.
<mgrwt>
<rscale>  2 0.19838643E+03</rscale>
<asrwt>0</asrwt>
<pdfrwt beam="1">  1       21 0.15088087E+00 0.19838643E+03</pdfrwt>
<pdfrwt beam="2">  1       21 0.65539679E-02 0.19838643E+03</pdfrwt>
<totfact> 0.49709736E+04</totfact>
</mgrwt>
</event>
<event>
 4    2  0.3964208E+000  0.1841850E+03  0.7546771E-02  0.1163813E+00
         21   -1    0    0  503  502  0.00000000000E+00  0.00000000000E+00  0.21712162585E+04  0.21712162585E+04  0.00000000000E+00 0. -1.
         21   -1    0    0  501  503 -0.00000000000E+00 -0.00000000000E+00 -0.15702319720E+02  0.15702319720E+02  0.00000000000E+00 0.  1.
          6    1    1    2  501    0  0.10559348083E+02  0.62318763430E+02  0.11547439626E+04  0.11693407319E+04  0.17300000000E+03 0.  1.
         -6    1    1    2    0  502 -0.10559348083E+02 -0.62318763430E+02  0.10007699761E+04  0.10175778463E+04  0.17300000000E+03 0.  1.
<mgrwt>
<rscale>  2 0.18418504E+03</rscale>
<asrwt>0</asrwt>
<pdfrwt beam="1">  1       21 0.33403303E+00 0.18418504E+03</pdfrwt>
<pdfrwt beam="2">  1       21 0.24157432E-02 0.18418504E+03</pdfrwt>
<totfact> 0.19798221E+04</totfact>
</mgrwt>
</event>
<event>
 4    2  0.3964208E+000  0.1876660E+03  0.7546771E-02  0.1160583E+00
         21   -1    0    0  501  502  0.00000000000E+00  0.00000000000E+00  0.14828332312E+03  0.14828332312E+03  0.00000000000E+00 0. -1.
         21   -1    0    0  502  503 -0.00000000000E+00 -0.00000000000E+00 -0.24402360008E+03  0.24402360008E+03  0.00000000000E+00 0. -1.
          6    1    1    2  501    0  0.32765542856E+02  0.64930398434E+02 -0.15819008008E+02  0.18833156521E+03  0.17300000000E+03 0. -1.
         -6    1    1    2    0  503 -0.32765542856E+02 -0.64930398434E+02 -0.79921268954E+02  0.20397535800E+03  0.17300000000E+03 0. -1.
<mgrwt>
<rscale>  2 0.18766603E+03</rscale>
<asrwt>0</asrwt>
<pdfrwt beam="1">  1       21 0.22812819E-01 0.18766603E+03</pdfrwt>
<pdfrwt beam="2">  1       21 0.37542092E-01 0.18766603E+03</pdfrwt>
<totfact> 0.12355682E+05</totfact>
</mgrwt>
</event>
<event>
 4    2  0.3964208E+000  0.1773488E+03  0.7546771E-02  0.1170394E+00
         21   -1    0    0  501  502  0.00000000000E+00  0.00000000000E+00  0.46135932666E+02  0.46135932666E+02  0.00000000000E+00 0.  1.
         21   -1    0    0  502  503 -0.00000000000E+00 -0.00000000000E+00 -0.72257460076E+03  0.72257460076E+03  0.00000000000E+00 0.  1.
          6    1    1    2  501    0  0.37091236872E+02 -0.12158763515E+02 -0.24684611127E+03  0.30394999265E+03  0.17300000000E+03 0.  1.
         -6    1    1    2    0  503 -0.37091236872E+02  0.12158763515E+02 -0.42959255682E+03  0.46476054077E+03  0.17300000000E+03 0.  1.
<mgrwt>
<rscale>  2 0.17734880E+03</rscale>
<asrwt>0</asrwt>
<pdfrwt beam="1">  1       21 0.70978368E-02 0.17734880E+03</pdfrwt>
<pdfrwt beam="2">  1       21 0.11116531E+00 0.17734880E+03</pdfrwt>
<totfact> 0.94644252E+04</totfact>
</mgrwt>
</event>
<event>
 4    2  0.3964208E+000  0.2389386E+03  0.7546771E-02  0.1120502E+00
         21   -1    0    0  501  502  0.00000000000E+00  0.00000000000E+00  0.93214206516E+02  0.93214206516E+02  0.00000000000E+00 0. -1.
         21   -1    0    0  502  503 -0.00000000000E+00 -0.00000000000E+00 -0.99116556176E+03  0.99116556176E+03  0.00000000000E+00 0.  1.
          6    1    1    2  501    0  0.16344904261E+03 -0.21144184792E+02 -0.11384148885E+03  0.26467253478E+03  0.17300000000E+03 0. -1.
         -6    1    1    2    0  503 -0.16344904261E+03  0.21144184792E+02 -0.78410986639E+03  0.81970723350E+03  0.17300000000E+03 0. -1.
<mgrwt>
<rscale>  2 0.23893862E+03</rscale>
<asrwt>0</asrwt>
<pdfrwt beam="1">  1       21 0.14340648E-01 0.23893862E+03</pdfrwt>
<pdfrwt beam="2">  1       21 0.15248700E+00 0.23893862E+03</pdfrwt>
<totfact> 0.11802361E+04</totfact>
</mgrwt>
</event>
<event>
 4    2  0.3964208E+000  0.1785333E+03  0.7546771E-02  0.1169230E+00
         21   -1    0    0  501  502  0.00000000000E+00  0.00000000000E+00  0.12990157504E+04  0.12990157504E+04  0.00000000000E+00 0.  1.
         21   -1    0    0  502  503 -0.00000000000E+00 -0.00000000000E+00 -0.62956029180E+02  0.62956029180E+02  0.00000000000E+00 0.  1.
          6    1    1    2  501    0 -0.38809062298E+02  0.20951983215E+02  0.11500056427E+04  0.11637813829E+04  0.17300000000E+03 0.  1.
         -6    1    1    2    0  503  0.38809062298E+02 -0.20951983215E+02  0.86054078551E+02  0.19819039672E+03  0.17300000000E+03 0.  1.
<mgrwt>
<rscale>  2 0.17853327E+03</rscale>
<asrwt>0</asrwt>
<pdfrwt beam="1">  1       21 0.19984856E+00 0.17853327E+03</pdfrwt>
<pdfrwt beam="2">  1       21 0.96855439E-02 0.17853327E+03</pdfrwt>
<totfact> 0.11691293E+04</totfact>
</mgrwt>
</event>
<event>
 4    2  0.3964208E+000  0.1738484E+03  0.7546771E-02  0.1173893E+00
         21   -1    0    0  501  502  0.00000000000E+00  0.00000000000E+00  0.16997506670E+03  0.16997506670E+03  0.00000000000E+00 0. -1.
         21   -1    0    0  502  503 -0.00000000000E+00 -0.00000000000E+00 -0.18222289021E+03  0.18222289021E+03  0.00000000000E+00 0. -1.
          6    1    1    2  501    0  0.11602662403E+02  0.12634969380E+02  0.21280319433E+02  0.17514598546E+03  0.17300000000E+03 0. -1.
         -6    1    1    2    0  503 -0.11602662403E+02 -0.12634969380E+02 -0.33528142952E+02  0.17705197145E+03  0.17300000000E+03 0. -1.
<mgrwt>
<rscale>  2 0.17384839E+03</rscale>
<asrwt>0</asrwt>
<pdfrwt beam="1">  1       21 0.26150010E-01 0.17384839E+03</pdfrwt>
<pdfrwt beam="2">  1       21 0.28034291E-01 0.17384839E+03</pdfrwt>
<totfact> 0.16990148E+05</totfact>
</mgrwt>
</event>
<event>
 4    2  0.3964208E+000  0.2171205E+03  0.7546771E-02  0.1136048E+00
         21   -1    0    0  501  502  0.00000000000E+00  0.00000000000E+00  0.17986286782E+03  0.17986286782E+03  0.00000000000E+00 0. -1.
         21   -1    0    0  502  503 -0.00000000000E+00 -0.00000000000E+00 -0.47251008958E+03  0.47251008958E+03  0.00000000000E+00 0.  1.
          6    1    1    2  501    0  0.51136664410E+02  0.12081942433E+03  0.71346143109E+02  0.22854225841E+03  0.17300000000E+03 0. -1.
         -6    1    1    2    0  503 -0.51136664410E+02 -0.12081942433E+03 -0.36399336487E+03  0.42383069900E+03  0.17300000000E+03 0.  1.
<mgrwt>
<rscale>  2 0.21712045E+03</rscale>
<asrwt>0</asrwt>
<pdfrwt beam="1">  1       21 0.27671211E-01 0.21712045E+03</pdfrwt>
<pdfrwt beam="2">  1       21 0.72693859E-01 0.21712045E+03</pdfrwt>
<totfact> 0.20942911E+04</totfact>
</mgrwt>
</event>
<event>
 4    2  0.3964208E+000  0.3112650E+03  0.7546771E-02  0.1079741E+00
         21   -1    0    0  501  502  0.00000000000E+00  0.00000000000E+00  0.19205549062E+03  0.19205549062E+03  0.00000000000E+00 0.  1.
         21   -1    0    0  502  503 -0.00000000000E+00 -0.00000000000E+00 -0.89000004255E+03  0.89000004255E+03  0.00000000000E+00 0. -1.
          6    1    1    2  501    0  0.18119954116E+03  0.18472573154E+03  0.71135777030E+01  0.31134622624E+03  0.17300000000E+03 0.  1.
         -6    1    1    2    0  503 -0.18119954116E+03 -0.18472573154E+03 -0.70505812964E+03  0.77070930692E+03  0.17300000000E+03 0. -1.
<mgrwt>
<rscale>  2 0.31126495E+03</rscale>
<asrwt>0</asrwt>
<pdfrwt beam="1">  1       21 0.29546999E-01 0.31126495E+03</pdfrwt>
<pdfrwt beam="2">  1       21 0.13692308E+00 0.31126495E+03</pdfrwt>
<totfact> 0.38368650E+03</totfact>
</mgrwt>
</event>
<event>
 4    2  0.3964208E+000  0.2665626E+03  0.7546771E-02  0.1103263E+00
         21   -1    0    0  501  502  0.00000000000E+00  0.00000000000E+00  0.26655647049E+03  0.26655647049E+03  0.00000000000E+00 0. -1.
         21   -1    0    0  502  503 -0.00000000000E+00 -0.00000000000E+00 -0.28753436730E+03  0.28753436730E+03  0.00000000000E+00 0.  1.
          6    1    1    2  501    0 -0.20246658606E+03 -0.11572638021E+02  0.64320968227E+02  0.27421311306E+03  0.17300000000E+03 0.  1.
         -6    1    1    2    0  503  0.20246658606E+03  0.11572638021E+02 -0.85298865034E+02  0.27987772473E+03  0.17300000000E+03 0.  1.
<mgrwt>
<rscale>  2 0.26656265E+03</rscale>
<asrwt>0</asrwt>
<pdfrwt beam="1">  1       21 0.41008688E-01 0.26656265E+03</pdfrwt>
<pdfrwt beam="2">  1       21 0.44236056E-01 0.26656265E+03</pdfrwt>
<totfact> 0.27103283E+04</totfact>
</mgrwt>
</event>
<event>
 4    2  0.3964208E+000  0.1754123E+03  0.7546771E-02  0.1172318E+00
         21   -1    0    0  503  502  0.00000000000E+00  0.00000000000E+00  0.24644073546E+03  0.24644073546E+03  0.00000000000E+00 0.  1.
         21   -1    0    0  501  503 -0.00000000000E+00 -0.00000000000E+00 -0.18642651101E+03  0.18642651101E+03  0.00000000000E+00 0.  1.
          6    1    1    2  501    0  0.27699784669E+02 -0.85564162247E+01 -0.94375280325E+02  0.19918881461E+03  0.17300000000E+03 0.  1.
         -6    1    1    2    0  502 -0.27699784669E+02  0.85564162247E+01  0.15438950478E+03  0.23367843186E+03  0.17300000000E+03 0.  1.
<mgrwt>
<rscale>  2 0.17541234E+03</rscale>
<asrwt>0</asrwt>
<pdfrwt beam="1">  1       21 0.37913959E-01 0.17541234E+03</pdfrwt>
<pdfrwt beam="2">  1       21 0.28681002E-01 0.17541234E+03</pdfrwt>
<totfact> 0.78579180E+04</totfact>
</mgrwt>
</event>
<event>
 4    2  0.3964208E+000  0.2474780E+03  0.7546771E-02  0.1114909E+00
         21   -1    0    0  501  502  0.00000000000E+00  0.00000000000E+00  0.96128469837E+02  0.96128469837E+02  0.00000000000E+00 0.  1.
         21   -1    0    0  502  503 -0.00000000000E+00 -0.00000000000E+00 -0.90215931710E+03  0.90215931710E+03  0.00000000000E+00 0. -1.
          6    1    1    2  501    0  0.12897542273E+03  0.12116813068E+03 -0.13247058470E+03  0.28070238932E+03  0.17300000000E+03 0.  1.
         -6    1    1    2    0  503 -0.12897542273E+03 -0.12116813068E+03 -0.67356026257E+03  0.71758539762E+03  0.17300000000E+03 0. -1.
<mgrwt>
<rscale>  2 0.24747803E+03</rscale>
<asrwt>0</asrwt>
<pdfrwt beam="1">  1       21 0.14788995E-01 0.24747803E+03</pdfrwt>
<pdfrwt beam="2">  1       21 0.13879374E+00 0.24747803E+03</pdfrwt>
<totfact> 0.14223533E+04</totfact>
</mgrwt>
</event>
<event>
 4    2  0.3964208E+000  0.3220258E+03  0.7546771E-02  0.1074721E+00
         21   -1    0    0  501  502  0.00000000000E+00  0.00000000000E+00  0.14740551787E+03  0.14740551787E+03  0.00000000000E+00 0. -1.
         21   -1    0    0  502  503 -0.00000000000E+00 -0.00000000000E+00 -0.72034551691E+03  0.72034551691E+03  0.00000000000E+00 0. -1.
          6    1    1    2  501    0 -0.25726356984E+03 -0.87103820936E+02 -0.35280818335E+03  0.47767586733E+03  0.17300000000E+03 0. -1.
         -6    1    1    2    0  503  0.25726356984E+03  0.87103820936E+02 -0.22013181569E+03  0.39007516746E+03  0.17300000000E+03 0. -1.
<mgrwt>
<rscale>  2 0.32202581E+03</rscale>
<asrwt>0</asrwt>
<pdfrwt beam="1">  1       21 0.22677772E-01 0.32202581E+03</pdfrwt>
<pdfrwt beam="2">  1       21 0.11082239E+00 0.32202581E+03</pdfrwt>
<totfact> 0.10886620E+04</totfact>
</mgrwt>
</event>
<event>
 4    2  0.3964208E+000  0.1740742E+03  0.7546771E-02  0.1173664E+00
         21   -1    0    0  501  502  0.00000000000E+00  0.00000000000E+00  0.15433662505E+03  0.15433662505E+03  0.00000000000E+00 0. -1.
         21   -1    0    0  502  503 -0.00000000000E+00 -0.00000000000E+00 -0.33369917130E+03  0.33369917130E+03  0.00000000000E+00 0. -1.
          6    1    1    2  501    0  0.16171438128E+02 -0.10551034816E+02  0.66878156364E+02  0.18647929522E+03  0.17300000000E+03 0. -1.
         -6    1    1    2    0  503 -0.16171438128E+02  0.10551034816E+02 -0.24624070261E+03  0.30155650113E+03  0.17300000000E+03 0. -1.
<mgrwt>
<rscale>  2 0.17407424E+03</rscale>
<asrwt>0</asrwt>
<pdfrwt beam="1">  1       21 0.23744096E-01 0.17407424E+03</pdfrwt>
<pdfrwt beam="2">  1       21 0.51338333E-01 0.17407424E+03</pdfrwt>
<totfact> 0.60755931E+04</totfact>
</mgrwt>
</event>
<event>
 4    2  0.3964208E+000  0.2264194E+03  0.7546771E-02  0.1129186E+00
         21   -1    0    0  503  502  0.00000000000E+00  0.00000000000E+00  0.98287051389E+02  0.98287051389E+02  0.00000000000E+00 0. -1.
         21   -1    0    0  501  503 -0.00000000000E+00 -0.00000000000E+00 -0.54085009345E+03  0.54085009345E+03  0.00000000000E+00 0.  1.
          6    1    1    2  501    0 -0.84806883583E+02 -0.11893084722E+03 -0.28158336909E+03  0.36132388195E+03  0.17300000000E+03 0.  1.
         -6    1    1    2    0  502  0.84806883583E+02  0.11893084722E+03 -0.16097967298E+03  0.27781326289E+03  0.17300000000E+03 0. -1.
<mgrwt>
<rscale>  2 0.22641942E+03</rscale>
<asrwt>0</asrwt>
<pdfrwt beam="1">  1       21 0.15121085E-01 0.22641942E+03</pdfrwt>
<pdfrwt beam="2">  1       21 0.83207706E-01 0.22641942E+03</pdfrwt>
<totfact> 0.47840389E+04</totfact>
</mgrwt>
</event>
<event>
 4    2  0.3964208E+000  0.2629813E+03  0.7546771E-02  0.1105365E+00
         21   -1    0    0  501  502  0.00000000000E+00  0.00000000000E+00  0.13594138026E+03  0.13594138026E+03  0.00000000000E+00 0. -1.
         21   -1    0    0  502  503 -0.00000000000E+00 -0.00000000000E+00 -0.51642223479E+03  0.51642223479E+03  0.00000000000E+00 0. -1.
          6    1    1    2  501    0  0.46695790261E+02  0.19248295732E+03 -0.15046411210E+03  0.30298289509E+03  0.17300000000E+03 0. -1.
         -6    1    1    2    0  503 -0.46695790261E+02 -0.19248295732E+03 -0.23001674242E+03  0.34938071996E+03  0.17300000000E+03 0. -1.
<mgrwt>
<rscale>  2 0.26298134E+03</rscale>
<asrwt>0</asrwt>
<pdfrwt beam="1">  1       21 0.20914058E-01 0.26298134E+03</pdfrwt>
<pdfrwt beam="2">  1       21 0.79449575E-01 0.26298134E+03</pdfrwt>
<totfact> 0.28633464E+04</totfact>
</mgrwt>
</event>
<event>
 4    2  0.3964208E+000  0.1972761E+03  0.7546771E-02  0.1152058E+00
         21   -1    0    0  501  502  0.00000000000E+00  0.00000000000E+00  0.37267895067E+03  0.37267895067E+03  0.00000000000E+00 0. -1.
         21   -1    0    0  502  503 -0.00000000000E+00 -0.00000000000E+00 -0.10465043191E+03  0.10465043191E+03  0.00000000000E+00 0.  1.
          6    1    1    2  501    0 -0.68109668990E+02 -0.65954047860E+02  0.12299428440E+03  0.23247678902E+03  0.17300000000E+03 0. -1.
         -6    1    1    2    0  503  0.68109668990E+02  0.65954047860E+02  0.14503423435E+03  0.24485259356E+03  0.17300000000E+03 0.  1.
<mgrwt>
<rscale>  2 0.19727611E+03</rscale>
<asrwt>0</asrwt>
<pdfrwt beam="1">  1       21 0.57335223E-01 0.19727611E+03</pdfrwt>
<pdfrwt beam="2">  1       21 0.16100067E-01 0.19727611E+03</pdfrwt>
<totfact> 0.98257462E+04</totfact>
</mgrwt>
</event>
<event>
 4    2  0.3964208E+000  0.2005935E+03  0.7546771E-02  0.1149239E+00
         21   -1    0    0  503  502  0.00000000000E+00  0.00000000000E+00  0.30226662185E+03  0.30226662185E+03  0.00000000000E+00 0. -1.
         21   -1    0    0  501  503 -0.00000000000E+00 -0.00000000000E+00 -0.25201388472E+03  0.25201388472E+03  0.00000000000E+00 0.  1.
          6    1    1    2  501    0  0.10146965499E+03  0.35591245199E+01 -0.16522981075E+03  0.25988198978E+03  0.17300000000E+03 0.  1.
         -6    1    1    2    0  502 -0.10146965499E+03 -0.35591245199E+01  0.21548254788E+03  0.29439851680E+03  0.17300000000E+03 0. -1.
<mgrwt>
<rscale>  2 0.20059351E+03</rscale>
<asrwt>0</asrwt>
<pdfrwt beam="1">  1       21 0.46502557E-01 0.20059351E+03</pdfrwt>
<pdfrwt beam="2">  1       21 0.38771367E-01 0.20059351E+03</pdfrwt>
<totfact> 0.28283019E+04</totfact>
</mgrwt>
</event>
<event>
 4    2  0.3964208E+000  0.2341824E+03  0.7546771E-02  0.1123730E+00
         21   -1    0    0  503  502  0.00000000000E+00  0.00000000000E+00  0.99613812148E+03  0.99613812148E+03  0.00000000000E+00 0. -1.
         21   -1    0    0  501  503 -0.00000000000E+00 -0.00000000000E+00 -0.62262879517E+02  0.62262879517E+02  0.00000000000E+00 0. -1.
          6    1    1    2  501    0  0.15599007095E+03  0.24072406031E+02  0.64700692471E+03  0.68808382018E+03  0.17300000000E+03 0. -1.
         -6    1    1    2    0  502 -0.15599007095E+03 -0.24072406031E+02  0.28686831725E+03  0.37031718082E+03  0.17300000000E+03 0. -1.
<mgrwt>
<rscale>  2 0.23418237E+03</rscale>
<asrwt>0</asrwt>
<pdfrwt beam="1">  1       21 0.15325201E+00 0.23418237E+03</pdfrwt>
<pdfrwt beam="2">  1       21 0.95789052E-02 0.23418237E+03</pdfrwt>
<totfact> 0.24098912E+04</totfact>
</mgrwt>
</event>
<event>
 4    2  0.3964208E+000  0.2725086E+03  0.7546771E-02  0.1099852E+00
         21   -1    0    0  503  502  0.00000000000E+00  0.00000000000E+00  0.13688628937E+03  0.13688628937E+03  0.00000000000E+00 0.  1.
         21   -1    0    0  501  503 -0.00000000000E+00 -0.00000000000E+00 -0.54518387661E+03  0.54518387661E+03  0.00000000000E+00 0.  1.
          6    1    1    2  501    0  0.21018626747E+03  0.12397401852E+02 -0.18022556530E+03  0.32671427424E+03  0.17300000000E+03 0.  1.
         -6    1    1    2    0  502 -0.21018626747E+03 -0.12397401852E+02 -0.22807202194E+03  0.35535589174E+03  0.17300000000E+03 0.  1.
<mgrwt>
<rscale>  2 0.27250865E+03</rscale>
<asrwt>0</asrwt>
<pdfrwt beam="1">  1       21 0.21059430E-01 0.27250865E+03</pdfrwt>
<pdfrwt beam="2">  1       21 0.83874441E-01 0.27250865E+03</pdfrwt>
<totfact> 0.24860430E+04</totfact>
</mgrwt>
</event>
<event>
 4    2  0.3964208E+000  0.1863369E+03  0.7546771E-02  0.1161807E+00
         21   -1    0    0  501  502  0.00000000000E+00  0.00000000000E+00  0.67635845633E+03  0.67635845633E+03  0.00000000000E+00 0.  1.
         21   -1    0    0  502  503 -0.00000000000E+00 -0.00000000000E+00 -0.52425509645E+02  0.52425509645E+02  0.00000000000E+00 0. -1.
          6    1    1    2  501    0 -0.69214698389E+02  0.13244192812E+01  0.36450104378E+03  0.40936834205E+03  0.17300000000E+03 0. -1.
         -6    1    1    2    0  503  0.69214698389E+02 -0.13244192812E+01  0.25943190291E+03  0.31941562392E+03  0.17300000000E+03 0. -1.
<mgrwt>
<rscale>  2 0.18633687E+03</rscale>
<asrwt>0</asrwt>
<pdfrwt beam="1">  1       21 0.10405514E+00 0.18633687E+03</pdfrwt>
<pdfrwt beam="2">  1       21 0.80654635E-02 0.18633687E+03</pdfrwt>
<totfact> 0.88574091E+04</totfact>
</mgrwt>
</event>
<event>
 4    2  0.3964208E+000  0.1774563E+03  0.7546771E-02  0.1170288E+00
         21   -1    0    0  501  502  0.00000000000E+00  0.00000000000E+00  0.46858647581E+03  0.46858647581E+03  0.00000000000E+00 0. -1.
         21   -1    0    0  502  503 -0.00000000000E+00 -0.00000000000E+00 -0.18870062935E+03  0.18870062935E+03  0.00000000000E+00 0. -1.
          6    1    1    2  501    0 -0.14401955384E+02 -0.36801118597E+02  0.40364959481E+03  0.44093506783E+03  0.17300000000E+03 0. -1.
         -6    1    1    2    0  503  0.14401955384E+02  0.36801118597E+02 -0.12376374835E+03  0.21635203732E+03  0.17300000000E+03 0. -1.
<mgrwt>
<rscale>  2 0.17745630E+03</rscale>
<asrwt>0</asrwt>
<pdfrwt beam="1">  1       21 0.72090227E-01 0.17745630E+03</pdfrwt>
<pdfrwt beam="2">  1       21 0.29030866E-01 0.17745630E+03</pdfrwt>
<totfact> 0.19904401E+04</totfact>
</mgrwt>
</event>
<event>
 4    2  0.3964208E+000  0.1822267E+03  0.7546771E-02  0.1165665E+00
         21   -1    0    0  503  502  0.00000000000E+00  0.00000000000E+00  0.30755960513E+02  0.30755960513E+02  0.00000000000E+00 0. -1.
         21   -1    0    0  501  503 -0.00000000000E+00 -0.00000000000E+00 -0.17539182473E+04  0.17539182473E+04  0.00000000000E+00 0. -1.
          6    1    1    2  501    0  0.42958650486E+02  0.37843296901E+02 -0.14148437697E+04  0.14265305652E+04  0.17300000000E+03 0. -1.
         -6    1    1    2    0  502 -0.42958650486E+02 -0.37843296901E+02 -0.30831851711E+03  0.35814364264E+03  0.17300000000E+03 0. -1.
<mgrwt>
<rscale>  2 0.18222667E+03</rscale>
<asrwt>0</asrwt>
<pdfrwt beam="1">  1       21 0.47316849E-02 0.18222667E+03</pdfrwt>
<pdfrwt beam="2">  1       21 0.26983365E+00 0.18222667E+03</pdfrwt>
<totfact> 0.15199682E+04</totfact>
</mgrwt>
</event>
<event>
 4    2  0.3964208E+000  0.1851964E+03  0.7546771E-02  0.1162867E+00
         21   -1    0    0  501  502  0.00000000000E+00  0.00000000000E+00  0.86684158741E+02  0.86684158741E+02  0.00000000000E+00 0. -1.
         21   -1    0    0  502  503 -0.00000000000E+00 -0.00000000000E+00 -0.83163646227E+03  0.83163646227E+03  0.00000000000E+00 0. -1.
          6    1    1    2  501    0 -0.64550298183E+02  0.14211340654E+02 -0.40025130954E+02  0.18947219930E+03  0.17300000000E+03 0. -1.
         -6    1    1    2    0  503  0.64550298183E+02 -0.14211340654E+02 -0.70492717258E+03  0.72884842172E+03  0.17300000000E+03 0. -1.
<mgrwt>
<rscale>  2 0.18519639E+03</rscale>
<asrwt>0</asrwt>
<pdfrwt beam="1">  1       21 0.13336024E-01 0.18519639E+03</pdfrwt>
<pdfrwt beam="2">  1       21 0.12794408E+00 0.18519639E+03</pdfrwt>
<totfact> 0.21946712E+04</totfact>
</mgrwt>
</event>
<event>
 4    2  0.3964208E+000  0.2161266E+03  0.7546771E-02  0.1136804E+00
         21   -1    0    0  503  502  0.00000000000E+00  0.00000000000E+00  0.45077982113E+03  0.45077982113E+03  0.00000000000E+00 0.  1.
         21   -1    0    0  501  503 -0.00000000000E+00 -0.00000000000E+00 -0.11116453289E+03  0.11116453289E+03  0.00000000000E+00 0. -1.
          6    1    1    2  501    0  0.10841469663E+02  0.12908971286E+03  0.96619662638E+02  0.23674047106E+03  0.17300000000E+03 0. -1.
         -6    1    1    2    0  502 -0.10841469663E+02 -0.12908971286E+03  0.24299562560E+03  0.32520388296E+03  0.17300000000E+03 0.  1.
<mgrwt>
<rscale>  2 0.21612656E+03</rscale>
<asrwt>0</asrwt>
<pdfrwt beam="1">  1       21 0.69350741E-01 0.21612656E+03</pdfrwt>
<pdfrwt beam="2">  1       21 0.17102236E-01 0.21612656E+03</pdfrwt>
<totfact> 0.57719655E+04</totfact>
</mgrwt>
</event>
<event>
 4    2  0.3964208E+000  0.2201180E+03  0.7546771E-02  0.1133795E+00
         21   -1    0    0  503  502  0.00000000000E+00  0.00000000000E+00  0.13817551975E+03  0.13817551975E+03  0.00000000000E+00 0. -1.
         21   -1    0    0  501  503 -0.00000000000E+00 -0.00000000000E+00 -0.35108461046E+03  0.35108461046E+03  0.00000000000E+00 0.  1.
          6    1    1    2  501    0  0.10124228932E+03  0.90955625391E+02 -0.11501265241E+03  0.24835425737E+03  0.17300000000E+03 0.  1.
         -6    1    1    2    0  502 -0.10124228932E+03 -0.90955625391E+02 -0.97896438299E+02  0.24090587284E+03  0.17300000000E+03 0. -1.
<mgrwt>
<rscale>  2 0.22011798E+03</rscale>
<asrwt>0</asrwt>
<pdfrwt beam="1">  1       21 0.21257772E-01 0.22011798E+03</pdfrwt>
<pdfrwt beam="2">  1       21 0.54013017E-01 0.22011798E+03</pdfrwt>
<totfact> 0.65923786E+04</totfact>
</mgrwt>
</event>
<event>
 4    2  0.3964208E+000  0.2032344E+03  0.7546771E-02  0.1147038E+00
         21   -1    0    0  501  502  0.00000000000E+00  0.00000000000E+00  0.32686373798E+02  0.32686373798E+02  0.00000000000E+00 0. -1.
         21   -1    0    0  502  503 -0.00000000000E+00 -0.00000000000E+00 -0.13369815860E+04  0.13369815860E+04  0.00000000000E+00 0. -1.
          6    1    1    2  501    0 -0.10162256618E+03  0.32374167613E+02 -0.49176421556E+03  0.53210551246E+03  0.17300000000E+03 0. -1.
         -6    1    1    2    0  503  0.10162256618E+03 -0.32374167613E+02 -0.81253099667E+03  0.83756244737E+03  0.17300000000E+03 0. -1.
<mgrwt>
<rscale>  2 0.20323443E+03</rscale>
<asrwt>0</asrwt>
<pdfrwt beam="1">  1       21 0.50286739E-02 0.20323443E+03</pdfrwt>
<pdfrwt beam="2">  1       21 0.20568944E+00 0.20323443E+03</pdfrwt>
<totfact> 0.32657280E+04</totfact>
</mgrwt>
</event>
<event>
 4    2  0.3964208E+000  0.2023427E+03  0.7546771E-02  0.1147777E+00
         21   -1    0    0  503  502  0.00000000000E+00  0.00000000000E+00  0.10662823083E+04  0.10662823083E+04  0.00000000000E+00 0. -1.
         21   -1    0    0  501  503 -0.00000000000E+00 -0.00000000000E+00 -0.12317728117E+03  0.12317728117E+03  0.00000000000E+00 0.  1.
          6    1    1    2  501    0  0.85179127063E+02  0.61303288261E+02 -0.21849060213E+02  0.20351893836E+03  0.17300000000E+03 0.  1.
         -6    1    1    2    0  502 -0.85179127063E+02 -0.61303288261E+02  0.96495408734E+03  0.98594065111E+03  0.17300000000E+03 0. -1.
<mgrwt>
<rscale>  2 0.20234272E+03</rscale>
<asrwt>0</asrwt>
<pdfrwt beam="1">  1       21 0.16404343E+00 0.20234272E+03</pdfrwt>
<pdfrwt beam="2">  1       21 0.18950352E-01 0.20234272E+03</pdfrwt>
<totfact> 0.59554455E+03</totfact>
</mgrwt>
</event>
<event>
 4    2  0.3964208E+000  0.2898733E+03  0.7546771E-02  0.1090415E+00
         21   -1    0    0  501  502  0.00000000000E+00  0.00000000000E+00  0.48359641049E+03  0.48359641049E+03  0.00000000000E+00 0.  1.
         21   -1    0    0  502  503 -0.00000000000E+00 -0.00000000000E+00 -0.38119628922E+03  0.38119628922E+03  0.00000000000E+00 0.  1.
          6    1    1    2  501    0 -0.77819599043E+02 -0.21918397416E+03  0.37017531904E+03  0.47016621673E+03  0.17300000000E+03 0.  1.
         -6    1    1    2    0  503  0.77819599043E+02  0.21918397416E+03 -0.26777519777E+03  0.39462648298E+03  0.17300000000E+03 0.  1.
<mgrwt>
<rscale>  2 0.28987326E+03</rscale>
<asrwt>0</asrwt>
<pdfrwt beam="1">  1       21 0.74399448E-01 0.28987326E+03</pdfrwt>
<pdfrwt beam="2">  1       21 0.58645583E-01 0.28987326E+03</pdfrwt>
<totfact> 0.41282892E+03</totfact>
</mgrwt>
</event>
<event>
 4    2  0.3964208E+000  0.1921791E+03  0.7546771E-02  0.1156510E+00
         21   -1    0    0  503  502  0.00000000000E+00  0.00000000000E+00  0.99755569958E+02  0.99755569958E+02  0.00000000000E+00 0. -1.
         21   -1    0    0  501  503 -0.00000000000E+00 -0.00000000000E+00 -0.42144723993E+03  0.42144723993E+03  0.00000000000E+00 0. -1.
          6    1    1    2  501    0 -0.79183288764E+02  0.27089095079E+02 -0.70001017587E+02  0.20453106061E+03  0.17300000000E+03 0. -1.
         -6    1    1    2    0  502  0.79183288764E+02 -0.27089095079E+02 -0.25169065238E+03  0.31667174927E+03  0.17300000000E+03 0. -1.
<mgrwt>
<rscale>  2 0.19217912E+03</rscale>
<asrwt>0</asrwt>
<pdfrwt beam="1">  1       21 0.15347011E-01 0.19217912E+03</pdfrwt>
<pdfrwt beam="2">  1       21 0.64838036E-01 0.19217912E+03</pdfrwt>
<totfact> 0.82474101E+04</totfact>
</mgrwt>
</event>
<event>
 4    2  0.3964208E+000  0.1859748E+03  0.7546771E-02  0.1162143E+00
         21   -1    0    0  501  502  0.00000000000E+00  0.00000000000E+00  0.53225956672E+03  0.53225956672E+03  0.00000000000E+00 0. -1.
         21   -1    0    0  502  503 -0.00000000000E+00 -0.00000000000E+00 -0.65856637873E+02  0.65856637873E+02  0.00000000000E+00 0. -1.
          6    1    1    2  501    0 -0.35339530471E+02 -0.58384434329E+02  0.19871246172E+03  0.27216404434E+03  0.17300000000E+03 0.  1.
         -6    1    1    2    0  503  0.35339530471E+02  0.58384434329E+02  0.26769046712E+03  0.32595216026E+03  0.17300000000E+03 0.  1.
<mgrwt>
<rscale>  2 0.18597480E+03</rscale>
<asrwt>0</asrwt>
<pdfrwt beam="1">  1       21 0.81886084E-01 0.18597480E+03</pdfrwt>
<pdfrwt beam="2">  1       21 0.10131791E-01 0.18597480E+03</pdfrwt>
<totfact> 0.10371241E+05</totfact>
</mgrwt>
</event>
<event>
 4    2  0.3964208E+000  0.2385922E+03  0.7546771E-02  0.1120734E+00
         21   -1    0    0  501  502  0.00000000000E+00  0.00000000000E+00  0.39440860536E+03  0.39440860536E+03  0.00000000000E+00 0.  1.
         21   -1    0    0  502  503 -0.00000000000E+00 -0.00000000000E+00 -0.23854191959E+03  0.23854191959E+03  0.00000000000E+00 0. -1.
          6    1    1    2  501    0  0.15831968122E+03  0.43955629226E+02  0.27681887084E+03  0.36545164667E+03  0.17300000000E+03 0.  1.
         -6    1    1    2    0  503 -0.15831968122E+03 -0.43955629226E+02 -0.12095218508E+03  0.26749887827E+03  0.17300000000E+03 0. -1.
<mgrwt>
<rscale>  2 0.23859216E+03</rscale>
<asrwt>0</asrwt>
<pdfrwt beam="1">  1       21 0.60678247E-01 0.23859216E+03</pdfrwt>
<pdfrwt beam="2">  1       21 0.36698757E-01 0.23859216E+03</pdfrwt>
<totfact> 0.17640372E+04</totfact>
</mgrwt>
</event>
<event>
 4    2  0.3964208E+000  0.3038412E+03  0.7546771E-02  0.1083336E+00
         21   -1    0    0  501  502  0.00000000000E+00  0.00000000000E+00  0.25940908273E+03  0.25940908273E+03  0.00000000000E+00 0. -1.
         21   -1    0    0  502  503 -0.00000000000E+00 -0.00000000000E+00 -0.95086099076E+03  0.95086099076E+03  0.00000000000E+00 0. -1.
          6    1    1    2  501    0 -0.23644225608E+03  0.80533002651E+02  0.13295254551E+03  0.33165627438E+03  0.17300000000E+03 0. -1.
         -6    1    1    2    0  503  0.23644225608E+03 -0.80533002651E+02 -0.82440445354E+03  0.87861379912E+03  0.17300000000E+03 0. -1.
<mgrwt>
<rscale>  2 0.30384125E+03</rscale>
<asrwt>0</asrwt>
<pdfrwt beam="1">  1       21 0.39909090E-01 0.30384125E+03</pdfrwt>
<pdfrwt beam="2">  1       21 0.14628630E+00 0.30384125E+03</pdfrwt>
<totfact> 0.17725384E+03</totfact>
</mgrwt>
</event>
<event>
 4    2  0.3964208E+000  0.1988524E+03  0.7546771E-02  0.1150711E+00
         21   -1    0    0  503  502  0.00000000000E+00  0.00000000000E+00  0.45669343986E+02  0.45669343986E+02  0.00000000000E+00 0.  1.
         21   -1    0    0  501  503 -0.00000000000E+00 -0.00000000000E+00 -0.14379753201E+04  0.14379753201E+04  0.00000000000E+00 0.  1.
          6    1    1    2  501    0  0.69437994060E+02 -0.69221804675E+02 -0.11640755596E+04  0.11809378484E+04  0.17300000000E+03 0.  1.
         -6    1    1    2    0  502 -0.69437994060E+02  0.69221804675E+02 -0.22823041654E+03  0.30270681574E+03  0.17300000000E+03 0.  1.
<mgrwt>
<rscale>  2 0.19885244E+03</rscale>
<asrwt>0</asrwt>
<pdfrwt beam="1">  1       21 0.70260530E-02 0.19885244E+03</pdfrwt>
<pdfrwt beam="2">  1       21 0.22122697E+00 0.19885244E+03</pdfrwt>
<totfact> 0.14782945E+04</totfact>
</mgrwt>
</event>
<event>
 4    2  0.3964208E+000  0.2265083E+03  0.7546771E-02  0.1129122E+00
         21   -1    0    0  503  502  0.00000000000E+00  0.00000000000E+00  0.62823760996E+02  0.62823760996E+02  0.00000000000E+00 0.  1.
         21   -1    0    0  501  503 -0.00000000000E+00 -0.00000000000E+00 -0.95899307065E+03  0.95899307065E+03  0.00000000000E+00 0.  1.
          6    1    1    2  501    0 -0.14496964694E+03 -0.18995105686E+02 -0.64490930620E+03  0.68353055952E+03  0.17300000000E+03 0.  1.
         -6    1    1    2    0  502  0.14496964694E+03  0.18995105686E+02 -0.25126000345E+03  0.33828627213E+03  0.17300000000E+03 0.  1.
<mgrwt>
<rscale>  2 0.22650831E+03</rscale>
<asrwt>0</asrwt>
<pdfrwt beam="1">  1       21 0.96651948E-02 0.22650831E+03</pdfrwt>
<pdfrwt beam="2">  1       21 0.14753738E+00 0.22650831E+03</pdfrwt>
<totfact> 0.26350002E+04</totfact>
</mgrwt>
</event>
<event>
 4    2  0.3964208E+000  0.1952869E+03  0.7546771E-02  0.1153778E+00
         21   -1    0    0  501  502  0.00000000000E+00  0.00000000000E+00  0.18147996580E+03  0.18147996580E+03  0.00000000000E+00 0. -1.
         21   -1    0    0  502  503 -0.00000000000E+00 -0.00000000000E+00 -0.21990700698E+03  0.21990700698E+03  0.00000000000E+00 0.  1.
          6    1    1    2  501    0 -0.39709541162E+02  0.81431700295E+02 -0.61499871315E+02  0.20474179750E+03  0.17300000000E+03 0.  1.
         -6    1    1    2    0  503  0.39709541162E+02 -0.81431700295E+02  0.23072830130E+02  0.19664517528E+03  0.17300000000E+03 0. -1.
<mgrwt>
<rscale>  2 0.19528689E+03</rscale>
<asrwt>0</asrwt>
<pdfrwt beam="1">  1       21 0.27919995E-01 0.19528689E+03</pdfrwt>
<pdfrwt beam="2">  1       21 0.33831847E-01 0.19528689E+03</pdfrwt>
<totfact> 0.10301057E+05</totfact>
</mgrwt>
</event>
<event>
 4    2  0.3964208E+000  0.2146856E+03  0.7546771E-02  0.1137908E+00
         21   -1    0    0  503  502  0.00000000000E+00  0.00000000000E+00  0.25318939018E+02  0.25318939018E+02  0.00000000000E+00 0. -1.
         21   -1    0    0  501  503 -0.00000000000E+00 -0.00000000000E+00 -0.18591194606E+04  0.18591194606E+04  0.00000000000E+00 0. -1.
          6    1    1    2  501    0 -0.15590798874E+02  0.12616586483E+03 -0.10529248846E+04  0.10745886241E+04  0.17300000000E+03 0. -1.
         -6    1    1    2    0  502  0.15590798874E+02 -0.12616586483E+03 -0.78087563702E+03  0.80984977554E+03  0.17300000000E+03 0. -1.
<mgrwt>
<rscale>  2 0.21468558E+03</rscale>
<asrwt>0</asrwt>
<pdfrwt beam="1">  1       21 0.38952205E-02 0.21468558E+03</pdfrwt>
<pdfrwt beam="2">  1       21 0.28601844E+00 0.21468558E+03</pdfrwt>
<totfact> 0.16484403E+04</totfact>
</mgrwt>
</event>
<event>
 4    2  0.3964208E+000  0.1996268E+03  0.7546771E-02  0.1150054E+00
         21   -1    0    0  501  502  0.00000000000E+00  0.00000000000E+00  0.11260727477E+03  0.11260727477E+03  0.00000000000E+00 0.  1.
         21   -1    0    0  502  503 -0.00000000000E+00 -0.00000000000E+00 -0.38001429785E+03  0.38001429785E+03  0.00000000000E+00 0. -1.
          6    1    1    2  501    0 -0.92568410812E+02  0.36782696551E+02 -0.19828148966E+03  0.28136529031E+03  0.17300000000E+03 0. -1.
         -6    1    1    2    0  503  0.92568410812E+02 -0.36782696551E+02 -0.69125533424E+02  0.21125628231E+03  0.17300000000E+03 0.  1.
<mgrwt>
<rscale>  2 0.19962685E+03</rscale>
<asrwt>0</asrwt>
<pdfrwt beam="1">  1       21 0.17324196E-01 0.19962685E+03</pdfrwt>
<pdfrwt beam="2">  1       21 0.58463737E-01 0.19962685E+03</pdfrwt>
<totfact> 0.82288526E+04</totfact>
</mgrwt>
</event>
<event>
 4    2  0.3964208E+000  0.1755581E+03  0.7546771E-02  0.1172172E+00
         21   -1    0    0  501  502  0.00000000000E+00  0.00000000000E+00  0.45561082415E+03  0.45561082415E+03  0.00000000000E+00 0.  1.
         21   -1    0    0  502  503 -0.00000000000E+00 -0.00000000000E+00 -0.15745356315E+03  0.15745356315E+03  0.00000000000E+00 0. -1.
          6    1    1    2  501    0  0.18973965536E+02  0.23057372370E+02  0.38058031682E+03  0.41912054511E+03  0.17300000000E+03 0.  1.
         -6    1    1    2    0  503 -0.18973965536E+02 -0.23057372370E+02 -0.82423055815E+02  0.19394384218E+03  0.17300000000E+03 0. -1.
<mgrwt>
<rscale>  2 0.17555812E+03</rscale>
<asrwt>0</asrwt>
<pdfrwt beam="1">  1       21 0.70093972E-01 0.17555812E+03</pdfrwt>
<pdfrwt beam="2">  1       21 0.24223625E-01 0.17555812E+03</pdfrwt>
<totfact> 0.29998577E+04</totfact>
</mgrwt>
</event>
<event>
 4    2  0.3964208E+000  0.1909941E+03  0.7546771E-02  0.1157568E+00
         21   -1    0    0  503  502  0.00000000000E+00  0.00000000000E+00  0.12683683253E+03  0.12683683253E+03  0.00000000000E+00 0. -1.
         21   -1    0    0  501  503 -0.00000000000E+00 -0.00000000000E+00 -0.37407118395E+03  0.37407118395E+03  0.00000000000E+00 0. -1.
          6    1    1    2  501    0 -0.59274757772E+02  0.55102032571E+02 -0.32030333899E+01  0.19102091594E+03  0.17300000000E+03 0. -1.
         -6    1    1    2    0  502  0.59274757772E+02 -0.55102032571E+02 -0.24403131803E+03  0.30988710054E+03  0.17300000000E+03 0. -1.
<mgrwt>
<rscale>  2 0.19099406E+03</rscale>
<asrwt>0</asrwt>
<pdfrwt beam="1">  1       21 0.19513359E-01 0.19099406E+03</pdfrwt>
<pdfrwt beam="2">  1       21 0.57549413E-01 0.19099406E+03</pdfrwt>
<totfact> 0.68522764E+04</totfact>
</mgrwt>
</event>
<event>
 4    2  0.3964208E+000  0.1775454E+03  0.7546771E-02  0.1170200E+00
         21   -1    0    0  503  502  0.00000000000E+00  0.00000000000E+00  0.30151641719E+03  0.30151641719E+03  0.00000000000E+00 0.  1.
         21   -1    0    0  501  503 -0.00000000000E+00 -0.00000000000E+00 -0.12557073840E+03  0.12557073840E+03  0.00000000000E+00 0.  1.
          6    1    1    2  501    0  0.34653821344E+02  0.19810713877E+02  0.59384735509E+00  0.17754634430E+03  0.17300000000E+03 0.  1.
         -6    1    1    2    0  502 -0.34653821344E+02 -0.19810713877E+02  0.17535183143E+03  0.24954081130E+03  0.17300000000E+03 0.  1.
<mgrwt>
<rscale>  2 0.17754535E+03</rscale>
<asrwt>0</asrwt>
<pdfrwt beam="1">  1       21 0.46387141E-01 0.17754535E+03</pdfrwt>
<pdfrwt beam="2">  1       21 0.19318575E-01 0.17754535E+03</pdfrwt>
<totfact> 0.11022831E+05</totfact>
</mgrwt>
</event>
<event>
 4    2  0.3964208E+000  0.2029074E+03  0.7546771E-02  0.1147309E+00
         21   -1    0    0  503  502  0.00000000000E+00  0.00000000000E+00  0.72153210519E+03  0.72153210519E+03  0.00000000000E+00 0.  1.
         21   -1    0    0  501  503 -0.00000000000E+00 -0.00000000000E+00 -0.34520150914E+03  0.34520150914E+03  0.00000000000E+00 0.  1.
          6    1    1    2  501    0 -0.67213148609E+02  0.82004906712E+02 -0.29912944926E+03  0.36145516940E+03  0.17300000000E+03 0.  1.
         -6    1    1    2    0  502  0.67213148609E+02 -0.82004906712E+02  0.67546004531E+03  0.70527844493E+03  0.17300000000E+03 0.  1.
<mgrwt>
<rscale>  2 0.20290740E+03</rscale>
<asrwt>0</asrwt>
<pdfrwt beam="1">  1       21 0.11100494E+00 0.20290740E+03</pdfrwt>
<pdfrwt beam="2">  1       21 0.53107925E-01 0.20290740E+03</pdfrwt>
<totfact> 0.21257253E+03</totfact>
</mgrwt>
</event>
<event>
 4    2  0.3964208E+000  0.1838824E+03  0.7546771E-02  0.1164098E+00
         21   -1    0    0  501  502  0.00000000000E+00  0.00000000000E+00  0.27940900089E+03  0.27940900089E+03  0.00000000000E+00 0. -1.
         21   -1    0    0  502  503 -0.00000000000E+00 -0.00000000000E+00 -0.13373839772E+03  0.13373839772E+03  0.00000000000E+00 0. -1.
          6    1    1    2  501    0 -0.30620288684E+02  0.54278452135E+02  0.91199461299E+01  0.18410846222E+03  0.17300000000E+03 0. -1.
         -6    1    1    2    0  503  0.30620288684E+02 -0.54278452135E+02  0.13655065703E+03  0.22903893639E+03  0.17300000000E+03 0. -1.
<mgrwt>
<rscale>  2 0.18388244E+03</rscale>
<asrwt>0</asrwt>
<pdfrwt beam="1">  1       21 0.42986000E-01 0.18388244E+03</pdfrwt>
<pdfrwt beam="2">  1       21 0.20575138E-01 0.18388244E+03</pdfrwt>
<totfact> 0.11428457E+05</totfact>
</mgrwt>
</event>
<event>
 4    2  0.3964208E+000  0.2141064E+03  0.7546771E-02  0.1138355E+00
         21   -1    0    0  503  502  0.00000000000E+00  0.00000000000E+00  0.50472592476E+03  0.50472592476E+03  0.00000000000E+00 0.  1.
         21   -1    0    0  501  503 -0.00000000000E+00 -0.00000000000E+00 -0.96654728788E+02  0.96654728788E+02  0.00000000000E+00 0.  1.
          6    1    1    2  501    0  0.12584161874E+03 -0.87437406397E+01  0.13018664581E+03  0.25057958567E+03  0.17300000000E+03 0.  1.
         -6    1    1    2    0  502 -0.12584161874E+03  0.87437406397E+01  0.27788455016E+03  0.35080106788E+03  0.17300000000E+03 0.  1.
<mgrwt>
<rscale>  2 0.21410644E+03</rscale>
<asrwt>0</asrwt>
<pdfrwt beam="1">  1       21 0.77650141E-01 0.21410644E+03</pdfrwt>
<pdfrwt beam="2">  1       21 0.14869959E-01 0.21410644E+03</pdfrwt>
<totfact> 0.58032820E+04</totfact>
</mgrwt>
</event>
<event>
 4    2  0.3964208E+000  0.1861594E+03  0.7546771E-02  0.1161972E+00
         21   -1    0    0  503  502  0.00000000000E+00  0.00000000000E+00  0.70182597228E+02  0.70182597228E+02  0.00000000000E+00 0.  1.
         21   -1    0    0  501  503 -0.00000000000E+00 -0.00000000000E+00 -0.63297979003E+03  0.63297979003E+03  0.00000000000E+00 0.  1.
          6    1    1    2  501    0  0.11913315790E+02  0.67708126531E+02 -0.44626709237E+03  0.48353865949E+03  0.17300000000E+03 0.  1.
         -6    1    1    2    0  502 -0.11913315790E+02 -0.67708126531E+02 -0.11653010043E+03  0.21962372777E+03  0.17300000000E+03 0.  1.
<mgrwt>
<rscale>  2 0.18615939E+03</rscale>
<asrwt>0</asrwt>
<pdfrwt beam="1">  1       21 0.10797322E-01 0.18615939E+03</pdfrwt>
<pdfrwt beam="2">  1       21 0.97381510E-01 0.18615939E+03</pdfrwt>
<totfact> 0.62101283E+04</totfact>
</mgrwt>
</event>
<event>
 4    2  0.3964208E+000  0.2034340E+03  0.7546771E-02  0.1146874E+00
         21   -1    0    0  503  502  0.00000000000E+00  0.00000000000E+00  0.11331034644E+04  0.11331034644E+04  0.00000000000E+00 0. -1.
         21   -1    0    0  501  503 -0.00000000000E+00 -0.00000000000E+00 -0.37175045491E+02  0.37175045491E+02  0.00000000000E+00 0. -1.
          6    1    1    2  501    0 -0.69268928915E+02  0.81597902277E+02  0.62540314734E+03  0.65765834510E+03  0.17300000000E+03 0. -1.
         -6    1    1    2    0  502  0.69268928915E+02 -0.81597902277E+02  0.47052527154E+03  0.51262016477E+03  0.17300000000E+03 0. -1.
<mgrwt>
<rscale>  2 0.20343402E+03</rscale>
<asrwt>0</asrwt>
<pdfrwt beam="1">  1       21 0.17432358E+00 0.20343402E+03</pdfrwt>
<pdfrwt beam="2">  1       21 0.57192386E-02 0.20343402E+03</pdfrwt>
<totfact> 0.42315414E+04</totfact>
</mgrwt>
</event>
<event>
 4    2  0.3964208E+000  0.3120565E+03  0.7546771E-02  0.1079364E+00
         21   -1    0    0  501  502  0.00000000000E+00  0.00000000000E+00  0.14981276543E+04  0.14981276543E+04  0.00000000000E+00 0. -1.
         21   -1    0    0  502  503 -0.00000000000E+00 -0.00000000000E+00 -0.69851111567E+02  0.69851111567E+02  0.00000000000E+00 0. -1.
          6    1    1    2  501    0 -0.16942577623E+03 -0.19683791401E+03  0.92073119933E+03  0.97217549828E+03  0.17300000000E+03 0. -1.
         -6    1    1    2    0  503  0.16942577623E+03  0.19683791401E+03  0.50754534336E+03  0.59580326754E+03  0.17300000000E+03 0. -1.
<mgrwt>
<rscale>  2 0.31205650E+03</rscale>
<asrwt>0</asrwt>
<pdfrwt beam="1">  1       21 0.23048115E+00 0.31205650E+03</pdfrwt>
<pdfrwt beam="2">  1       21 0.10746326E-01 0.31205650E+03</pdfrwt>
<totfact> 0.56628407E+03</totfact>
</mgrwt>
</event>
<event>
 4    2  0.3964208E+000  0.1817120E+03  0.7546771E-02  0.1166156E+00
         21   -1    0    0  503  502  0.00000000000E+00  0.00000000000E+00  0.16283843866E+03  0.16283843866E+03  0.00000000000E+00 0. -1.
         21   -1    0    0  501  503 -0.00000000000E+00 -0.00000000000E+00 -0.23383916029E+03  0.23383916029E+03  0.00000000000E+00 0.  1.
          6    1    1    2  501    0 -0.41823721368E+02  0.36619891473E+02  0.36792063354E+02  0.18539928815E+03  0.17300000000E+03 0. -1.
         -6    1    1    2    0  502  0.41823721368E+02 -0.36619891473E+02 -0.10779278498E+03  0.21127831080E+03  0.17300000000E+03 0.  1.
<mgrwt>
<rscale>  2 0.18171197E+03</rscale>
<asrwt>0</asrwt>
<pdfrwt beam="1">  1       21 0.25052067E-01 0.18171197E+03</pdfrwt>
<pdfrwt beam="2">  1       21 0.35975255E-01 0.18171197E+03</pdfrwt>
<totfact> 0.11285147E+05</totfact>
</mgrwt>
</event>
<event>
 4    2  0.3964208E+000  0.3189263E+03  0.7546771E-02  0.1076145E+00
         21   -1    0    0  503  502  0.00000000000E+00  0.00000000000E+00  0.25355574208E+04  0.25355574208E+04  0.00000000000E+00 0. -1.
         21   -1    0    0  501  503 -0.00000000000E+00 -0.00000000000E+00 -0.50462086790E+02  0.50462086790E+02  0.00000000000E+00 0.  1.
          6    1    1    2  501    0 -0.17158091274E+02  0.26737718892E+03  0.65704669492E+03  0.73035903538E+03  0.17300000000E+03 0.  1.
         -6    1    1    2    0  502  0.17158091274E+02 -0.26737718892E+03  0.18280486390E+04  0.18556604722E+04  0.17300000000E+03 0. -1.
<mgrwt>
<rscale>  2 0.31892626E+03</rscale>
<asrwt>0</asrwt>
<pdfrwt beam="1">  1       21 0.39008566E+00 0.31892626E+03</pdfrwt>
<pdfrwt beam="2">  1       21 0.77634000E-02 0.31892626E+03</pdfrwt>
<totfact> 0.10973736E+03</totfact>
</mgrwt>
</event>
<event>
 4    2  0.3964208E+000  0.1967667E+03  0.7546771E-02  0.1152496E+00
         21   -1    0    0  503  502  0.00000000000E+00  0.00000000000E+00  0.33483638859E+03  0.33483638859E+03  0.00000000000E+00 0. -1.
         21   -1    0    0  501  503 -0.00000000000E+00 -0.00000000000E+00 -0.15592085386E+03  0.15592085386E+03  0.00000000000E+00 0. -1.
          6    1    1    2  501    0  0.59635586718E+02  0.72330687565E+02 -0.35277096101E+02  0.19990398965E+03  0.17300000000E+03 0. -1.
         -6    1    1    2    0  502 -0.59635586718E+02 -0.72330687565E+02  0.21419263083E+03  0.29085325281E+03  0.17300000000E+03 0. -1.
<mgrwt>
<rscale>  2 0.19676669E+03</rscale>
<asrwt>0</asrwt>
<pdfrwt beam="1">  1       21 0.51513290E-01 0.19676669E+03</pdfrwt>
<pdfrwt beam="2">  1       21 0.23987824E-01 0.19676669E+03</pdfrwt>
<totfact> 0.58559395E+04</totfact>
</mgrwt>
</event>
<event>
 4    2  0.3964208E+000  0.2042232E+03  0.7546771E-02  0.1146224E+00
         21   -1    0    0  503  502  0.00000000000E+00  0.00000000000E+00  0.83859297211E+03  0.83859297211E+03  0.00000000000E+00 0.  1.
         21   -1    0    0  501  503 -0.00000000000E+00 -0.00000000000E+00 -0.15053912618E+03  0.15053912618E+03  0.00000000000E+00 0.  1.
          6    1    1    2  501    0  0.34612161056E+01 -0.10847190375E+03 -0.60678941438E+02  0.21304710243E+03  0.17300000000E+03 0.  1.
         -6    1    1    2    0  502 -0.34612161056E+01  0.10847190375E+03  0.74873278737E+03  0.77608499586E+03  0.17300000000E+03 0.  1.
<mgrwt>
<rscale>  2 0.20422325E+03</rscale>
<asrwt>0</asrwt>
<pdfrwt beam="1">  1       21 0.12901430E+00 0.20422325E+03</pdfrwt>
<pdfrwt beam="2">  1       21 0.23159866E-01 0.20422325E+03</pdfrwt>
<totfact> 0.76509028E+03</totfact>
</mgrwt>
</event>
<event>
 4    2  0.3964208E+000  0.3083112E+03  0.7546771E-02  0.1081158E+00
         21   -1    0    0  501  502  0.00000000000E+00  0.00000000000E+00  0.15774670355E+04  0.15774670355E+04  0.00000000000E+00 0. -1.
         21   -1    0    0  502  503 -0.00000000000E+00 -0.00000000000E+00 -0.97058271090E+02  0.97058271090E+02  0.00000000000E+00 0.  1.
          6    1    1    2  501    0  0.90674085934E+01 -0.25503838940E+03  0.22465769502E+03  0.38147985255E+03  0.17300000000E+03 0.  1.
         -6    1    1    2    0  503 -0.90674085934E+01  0.25503838940E+03  0.12557510694E+04  0.12930454541E+04  0.17300000000E+03 0. -1.
<mgrwt>
<rscale>  2 0.30831120E+03</rscale>
<asrwt>0</asrwt>
<pdfrwt beam="1">  1       21 0.24268722E+00 0.30831120E+03</pdfrwt>
<pdfrwt beam="2">  1       21 0.14932043E-01 0.30831120E+03</pdfrwt>
<totfact> 0.26290953E+03</totfact>
</mgrwt>
</event>
<event>
 4    2  0.3964208E+000  0.2227354E+03  0.7546771E-02  0.1131860E+00
         21   -1    0    0  503  502  0.00000000000E+00  0.00000000000E+00  0.12606589317E+03  0.12606589317E+03  0.00000000000E+00 0.  1.
         21   -1    0    0  501  503 -0.00000000000E+00 -0.00000000000E+00 -0.43767042180E+03  0.43767042180E+03  0.00000000000E+00 0.  1.
          6    1    1    2  501    0 -0.12291458357E+03  0.67631896248E+02 -0.24531332710E+03  0.33134528320E+03  0.17300000000E+03 0.  1.
         -6    1    1    2    0  502  0.12291458357E+03 -0.67631896248E+02 -0.66291201526E+02  0.23239103176E+03  0.17300000000E+03 0.  1.
<mgrwt>
<rscale>  2 0.22273542E+03</rscale>
<asrwt>0</asrwt>
<pdfrwt beam="1">  1       21 0.19394752E-01 0.22273542E+03</pdfrwt>
<pdfrwt beam="2">  1       21 0.67333912E-01 0.22273542E+03</pdfrwt>
<totfact> 0.48621110E+04</totfact>
</mgrwt>
</event>
<event>
 4    2  0.3964208E+000  0.1742064E+03  0.7546771E-02  0.1173531E+00
         21   -1    0    0  503  502  0.00000000000E+00  0.00000000000E+00  0.30647635782E+03  0.30647635782E+03  0.00000000000E+00 0. -1.
         21   -1    0    0  501  503 -0.00000000000E+00 -0.00000000000E+00 -0.13702693468E+03  0.13702693468E+03  0.00000000000E+00 0. -1.
          6    1    1    2  501    0  0.18744158378E+02 -0.82169968093E+01 -0.32059628521E+02  0.17713182179E+03  0.17300000000E+03 0. -1.
         -6    1    1    2    0  502 -0.18744158378E+02  0.82169968093E+01  0.20150905166E+03  0.26637147072E+03  0.17300000000E+03 0. -1.
<mgrwt>
<rscale>  2 0.17420638E+03</rscale>
<asrwt>0</asrwt>
<pdfrwt beam="1">  1       21 0.47150209E-01 0.17420638E+03</pdfrwt>
<pdfrwt beam="2">  1       21 0.21081067E-01 0.17420638E+03</pdfrwt>
<totfact> 0.90686016E+04</totfact>
</mgrwt>
</event>
<event>
 4    2  0.3964208E+000  0.1887507E+03  0.7546771E-02  0.1159593E+00
         21   -1    0    0  501  502  0.00000000000E+00  0.00000000000E+00  0.72718883712E+03  0.72718883712E+03  0.00000000000E+00 0. -1.
         21   -1    0    0  502  503 -0.00000000000E+00 -0.00000000000E+00 -0.83018658496E+02  0.83018658496E+02  0.00000000000E+00 0. -1.
          6    1    1    2  501    0  0.49174653426E+02 -0.57268541689E+02  0.62736091889E+02  0.19890361895E+03  0.17300000000E+03 0. -1.
         -6    1    1    2    0  503 -0.49174653426E+02  0.57268541689E+02  0.58143408674E+03  0.61130387667E+03  0.17300000000E+03 0. -1.
<mgrwt>
<rscale>  2 0.18875071E+03</rscale>
<asrwt>0</asrwt>
<pdfrwt beam="1">  1       21 0.11187520E+00 0.18875071E+03</pdfrwt>
<pdfrwt beam="2">  1       21 0.12772102E-01 0.18875071E+03</pdfrwt>
<totfact> 0.32967791E+04</totfact>
</mgrwt>
</event>
<event>
 4    2  0.3964208E+000  0.1819021E+03  0.7546771E-02  0.1165975E+00
         21   -1    0    0  501  502  0.00000000000E+00  0.00000000000E+00  0.41439129660E+03  0.41439129660E+03  0.00000000000E+00 0. -1.
         21   -1    0    0  502  503 -0.00000000000E+00 -0.00000000000E+00 -0.81928158123E+02  0.81928158123E+02  0.00000000000E+00 0. -1.
          6    1    1    2  501    0  0.23804238077E+02 -0.50919002005E+02  0.20577234459E+03  0.27464639869E+03  0.17300000000E+03 0. -1.
         -6    1    1    2    0  503 -0.23804238077E+02  0.50919002005E+02  0.12669079389E+03  0.22167305604E+03  0.17300000000E+03 0. -1.
<mgrwt>
<rscale>  2 0.18190213E+03</rscale>
<asrwt>0</asrwt>
<pdfrwt beam="1">  1       21 0.63752506E-01 0.18190213E+03</pdfrwt>
<pdfrwt beam="2">  1       21 0.12604332E-01 0.18190213E+03</pdfrwt>
<totfact> 0.12262258E+05</totfact>
</mgrwt>
</event>
<event>
 4    2  0.3964208E+000  0.2336005E+03  0.7546771E-02  0.1124131E+00
         21   -1    0    0  503  502  0.00000000000E+00  0.00000000000E+00  0.10957054548E+03  0.10957054548E+03  0.00000000000E+00 0.  1.
         21   -1    0    0  501  503 -0.00000000000E+00 -0.00000000000E+00 -0.85345737894E+03  0.85345737894E+03  0.00000000000E+00 0.  1.
          6    1    1    2  501    0 -0.18501220549E+02  0.15587784392E+03 -0.68268161242E+03  0.72154236281E+03  0.17300000000E+03 0.  1.
         -6    1    1    2    0  502  0.18501220549E+02 -0.15587784392E+03 -0.61205221047E+02  0.24148556162E+03  0.17300000000E+03 0.  1.
<mgrwt>
<rscale>  2 0.23360051E+03</rscale>
<asrwt>0</asrwt>
<pdfrwt beam="1">  1       21 0.16857007E-01 0.23360051E+03</pdfrwt>
<pdfrwt beam="2">  1       21 0.13130114E+00 0.23360051E+03</pdfrwt>
<totfact> 0.12999568E+04</totfact>
</mgrwt>
</event>
<event>
 4    2  0.3964208E+000  0.1927309E+03  0.7546771E-02  0.1156021E+00
         21   -1    0    0  501  502  0.00000000000E+00  0.00000000000E+00  0.48514083202E+03  0.48514083202E+03  0.00000000000E+00 0.  1.
         21   -1    0    0  502  503 -0.00000000000E+00 -0.00000000000E+00 -0.10492946491E+03  0.10492946491E+03  0.00000000000E+00 0. -1.
          6    1    1    2  501    0  0.82874510003E+02 -0.18655393856E+02  0.36712518321E+02  0.19619637390E+03  0.17300000000E+03 0. -1.
         -6    1    1    2    0  503 -0.82874510003E+02  0.18655393856E+02  0.34349884879E+03  0.39387392304E+03  0.17300000000E+03 0.  1.
<mgrwt>
<rscale>  2 0.19273092E+03</rscale>
<asrwt>0</asrwt>
<pdfrwt beam="1">  1       21 0.74637050E-01 0.19273092E+03</pdfrwt>
<pdfrwt beam="2">  1       21 0.16142995E-01 0.19273092E+03</pdfrwt>
<totfact> 0.55136908E+04</totfact>
</mgrwt>
</event>
<event>
 4    2  0.3964208E+000  0.1862980E+03  0.7546771E-02  0.1161843E+00
         21   -1    0    0  501  502  0.00000000000E+00  0.00000000000E+00  0.77756023557E+02  0.77756023557E+02  0.00000000000E+00 0.  1.
         21   -1    0    0  502  503 -0.00000000000E+00 -0.00000000000E+00 -0.80531211613E+03  0.80531211613E+03  0.00000000000E+00 0. -1.
          6    1    1    2  501    0 -0.62772976114E+02 -0.28939284914E+02 -0.68995132523E+02  0.19866367824E+03  0.17300000000E+03 0.  1.
         -6    1    1    2    0  503  0.62772976114E+02  0.28939284914E+02 -0.65856096005E+03  0.68440446144E+03  0.17300000000E+03 0. -1.
<mgrwt>
<rscale>  2 0.18629796E+03</rscale>
<asrwt>0</asrwt>
<pdfrwt beam="1">  1       21 0.11962466E-01 0.18629796E+03</pdfrwt>
<pdfrwt beam="2">  1       21 0.12389417E+00 0.18629796E+03</pdfrwt>
<totfact> 0.28890580E+04</totfact>
</mgrwt>
</event>
<event>
 4    2  0.3964208E+000  0.1849203E+03  0.7546771E-02  0.1163124E+00
         21   -1    0    0  501  502  0.00000000000E+00  0.00000000000E+00  0.34669490545E+03  0.34669490545E+03  0.00000000000E+00 0.  1.
         21   -1    0    0  502  503 -0.00000000000E+00 -0.00000000000E+00 -0.98648966963E+02  0.98648966963E+02  0.00000000000E+00 0.  1.
          6    1    1    2  501    0  0.65070881725E+02  0.56819190053E+01  0.12686984012E+03  0.22425757554E+03  0.17300000000E+03 0.  1.
         -6    1    1    2    0  503 -0.65070881725E+02 -0.56819190053E+01  0.12117609836E+03  0.22108629688E+03  0.17300000000E+03 0.  1.
<mgrwt>
<rscale>  2 0.18492026E+03</rscale>
<asrwt>0</asrwt>
<pdfrwt beam="1">  1       21 0.53337677E-01 0.18492026E+03</pdfrwt>
<pdfrwt beam="2">  1       21 0.15176764E-01 0.18492026E+03</pdfrwt>
<totfact> 0.12813404E+05</totfact>
</mgrwt>
</event>
<event>
 4    2  0.3964208E+000  0.1958745E+03  0.7546771E-02  0.1153267E+00
         21   -1    0    0  503  502  0.00000000000E+00  0.00000000000E+00  0.17037462278E+02  0.17037462278E+02  0.00000000000E+00 0.  1.
         21   -1    0    0  501  503 -0.00000000000E+00 -0.00000000000E+00 -0.24351582403E+04  0.24351582403E+04  0.00000000000E+00 0.  1.
          6    1    1    2  501    0  0.91801686798E+02 -0.32068633877E+01 -0.15454025463E+04  0.15577663059E+04  0.17300000000E+03 0.  1.
         -6    1    1    2    0  502 -0.91801686798E+02  0.32068633877E+01 -0.87271823172E+03  0.89442939668E+03  0.17300000000E+03 0.  1.
<mgrwt>
<rscale>  2 0.19587454E+03</rscale>
<asrwt>0</asrwt>
<pdfrwt beam="1">  1       21 0.26211491E-02 0.19587454E+03</pdfrwt>
<pdfrwt beam="2">  1       21 0.37463958E+00 0.19587454E+03</pdfrwt>
<totfact> 0.98136995E+03</totfact>
</mgrwt>
</event>
<event>
 4    2  0.3964208E+000  0.2720668E+03  0.7546771E-02  0.1100103E+00
         21   -1    0    0  501  502  0.00000000000E+00  0.00000000000E+00  0.70936438409E+03  0.70936438409E+03  0.00000000000E+00 0. -1.
         21   -1    0    0  502  503 -0.00000000000E+00 -0.00000000000E+00 -0.11812307956E+03  0.11812307956E+03  0.00000000000E+00 0. -1.
          6    1    1    2  501    0  0.45833243249E+01  0.20992933311E+03  0.43691360609E+03  0.51469780546E+03  0.17300000000E+03 0. -1.
         -6    1    1    2    0  503 -0.45833243249E+01 -0.20992933311E+03  0.15432769844E+03  0.31278965818E+03  0.17300000000E+03 0. -1.
<mgrwt>
<rscale>  2 0.27206678E+03</rscale>
<asrwt>0</asrwt>
<pdfrwt beam="1">  1       21 0.10913298E+00 0.27206678E+03</pdfrwt>
<pdfrwt beam="2">  1       21 0.18172782E-01 0.27206678E+03</pdfrwt>
<totfact> 0.17567203E+04</totfact>
</mgrwt>
</event>
<event>
 4    2  0.3964208E+000  0.3125517E+03  0.7546771E-02  0.1079129E+00
         21   -1    0    0  503  502  0.00000000000E+00  0.00000000000E+00  0.72140933182E+02  0.72140933182E+02  0.00000000000E+00 0. -1.
         21   -1    0    0  501  503 -0.00000000000E+00 -0.00000000000E+00 -0.14158252974E+04  0.14158252974E+04  0.00000000000E+00 0. -1.
          6    1    1    2  501    0 -0.85511787304E+02  0.24586035633E+03 -0.82714015886E+03  0.88422249631E+03  0.17300000000E+03 0. -1.
         -6    1    1    2    0  502  0.85511787304E+02 -0.24586035633E+03 -0.51654420536E+03  0.60374373428E+03  0.17300000000E+03 0. -1.
<mgrwt>
<rscale>  2 0.31255172E+03</rscale>
<asrwt>0</asrwt>
<pdfrwt beam="1">  1       21 0.11098606E-01 0.31255172E+03</pdfrwt>
<pdfrwt beam="2">  1       21 0.21781925E+00 0.31255172E+03</pdfrwt>
<totfact> 0.64089288E+03</totfact>
</mgrwt>
</event>
<event>
 4    2  0.3964208E+000  0.1777695E+03  0.7546771E-02  0.1169979E+00
         21   -1    0    0  501  502  0.00000000000E+00  0.00000000000E+00  0.17510156679E+03  0.17510156679E+03  0.00000000000E+00 0. -1.
         21   -1    0    0  502  503 -0.00000000000E+00 -0.00000000000E+00 -0.21315826149E+03  0.21315826149E+03  0.00000000000E+00 0. -1.
          6    1    1    2  501    0  0.70045617725E+01  0.40298171547E+02  0.56983826785E+02  0.18667930531E+03  0.17300000000E+03 0. -1.
         -6    1    1    2    0  503 -0.70045617725E+01 -0.40298171547E+02 -0.95040521489E+02  0.20158052297E+03  0.17300000000E+03 0. -1.
<mgrwt>
<rscale>  2 0.17776953E+03</rscale>
<asrwt>0</asrwt>
<pdfrwt beam="1">  1       21 0.26938703E-01 0.17776953E+03</pdfrwt>
<pdfrwt beam="2">  1       21 0.32793579E-01 0.17776953E+03</pdfrwt>
<totfact> 0.11811113E+05</totfact>
</mgrwt>
</event>
<event>
 4    2  0.3964208E+000  0.1874572E+03  0.7546771E-02  0.1160775E+00
         21   -1    0    0  503  502  0.00000000000E+00  0.00000000000E+00  0.41062136987E+03  0.41062136987E+03  0.00000000000E+00 0.  1.
         21   -1    0    0  501  503 -0.00000000000E+00 -0.00000000000E+00 -0.87556384959E+02  0.87556384959E+02  0.00000000000E+00 0.  1.
          6    1    1    2  501    0  0.26091621371E+02 -0.67308586480E+02  0.12409135764E+03  0.22480854868E+03  0.17300000000E+03 0. -1.
         -6    1    1    2    0  502 -0.26091621371E+02  0.67308586480E+02  0.19897362727E+03  0.27336920615E+03  0.17300000000E+03 0. -1.
<mgrwt>
<rscale>  2 0.18745724E+03</rscale>
<asrwt>0</asrwt>
<pdfrwt beam="1">  1       21 0.63172517E-01 0.18745724E+03</pdfrwt>
<pdfrwt beam="2">  1       21 0.13470213E-01 0.18745724E+03</pdfrwt>
<totfact> 0.11076089E+05</totfact>
</mgrwt>
</event>
<event>
 4    2  0.3964208E+000  0.3590655E+03  0.7546771E-02  0.1058954E+00
         21   -1    0    0  501  502  0.00000000000E+00  0.00000000000E+00  0.45377889386E+03  0.45377889386E+03  0.00000000000E+00 0.  1.
         21   -1    0    0  502  503 -0.00000000000E+00 -0.00000000000E+00 -0.65298716911E+03  0.65298716911E+03  0.00000000000E+00 0.  1.
          6    1    1    2  501    0 -0.73905753554E+02 -0.30583817590E+03  0.31631414244E+03  0.47852135475E+03  0.17300000000E+03 0.  1.
         -6    1    1    2    0  503  0.73905753554E+02  0.30583817590E+03 -0.51552241769E+03  0.62824470821E+03  0.17300000000E+03 0.  1.
<mgrwt>
<rscale>  2 0.35906552E+03</rscale>
<asrwt>0</asrwt>
<pdfrwt beam="1">  1       21 0.69812138E-01 0.35906552E+03</pdfrwt>
<pdfrwt beam="2">  1       21 0.10045956E+00 0.35906552E+03</pdfrwt>
<totfact> 0.13478592E+03</totfact>
</mgrwt>
</event>
<event>
 4    2  0.3964208E+000  0.2415807E+03  0.7546771E-02  0.1118744E+00
         21   -1    0    0  501  502  0.00000000000E+00  0.00000000000E+00  0.18399397261E+03  0.18399397261E+03  0.00000000000E+00 0.  1.
         21   -1    0    0  502  503 -0.00000000000E+00 -0.00000000000E+00 -0.36979118362E+03  0.36979118362E+03  0.00000000000E+00 0.  1.
          6    1    1    2  501    0 -0.14951595514E+03  0.77956614351E+02  0.11531608090E+02  0.24185580941E+03  0.17300000000E+03 0.  1.
         -6    1    1    2    0  503  0.14951595514E+03 -0.77956614351E+02 -0.19732881909E+03  0.31192934682E+03  0.17300000000E+03 0.  1.
<mgrwt>
<rscale>  2 0.24158074E+03</rscale>
<asrwt>0</asrwt>
<pdfrwt beam="1">  1       21 0.28306765E-01 0.24158074E+03</pdfrwt>
<pdfrwt beam="2">  1       21 0.56890951E-01 0.24158074E+03</pdfrwt>
<totfact> 0.33801954E+04</totfact>
</mgrwt>
</event>
<event>
 4    2  0.3964208E+000  0.1954274E+03  0.7546771E-02  0.1153655E+00
         21   -1    0    0  503  502  0.00000000000E+00  0.00000000000E+00  0.56913672251E+02  0.56913672251E+02  0.00000000000E+00 0.  1.
         21   -1    0    0  501  503 -0.00000000000E+00 -0.00000000000E+00 -0.80658343321E+03  0.80658343321E+03  0.00000000000E+00 0. -1.
          6    1    1    2  501    0 -0.32161168247E+02  0.85020779684E+02 -0.55181755656E+03  0.58540113550E+03  0.17300000000E+03 0. -1.
         -6    1    1    2    0  502  0.32161168247E+02 -0.85020779684E+02 -0.19785220440E+03  0.27809596996E+03  0.17300000000E+03 0.  1.
<mgrwt>
<rscale>  2 0.19542741E+03</rscale>
<asrwt>0</asrwt>
<pdfrwt beam="1">  1       21 0.87559492E-02 0.19542741E+03</pdfrwt>
<pdfrwt beam="2">  1       21 0.12408976E+00 0.19542741E+03</pdfrwt>
<totfact> 0.49725839E+04</totfact>
</mgrwt>
</event>
<event>
 4    2  0.3964208E+000  0.2213780E+03  0.7546771E-02  0.1132860E+00
         21   -1    0    0  501  502  0.00000000000E+00  0.00000000000E+00  0.10295513170E+03  0.10295513170E+03  0.00000000000E+00 0. -1.
         21   -1    0    0  502  503 -0.00000000000E+00 -0.00000000000E+00 -0.10193539174E+04  0.10193539174E+04  0.00000000000E+00 0. -1.
          6    1    1    2  501    0  0.57827828516E+02 -0.12543991915E+03 -0.48509541090E+02  0.22663055099E+03  0.17300000000E+03 0. -1.
         -6    1    1    2    0  503 -0.57827828516E+02  0.12543991915E+03 -0.86788924464E+03  0.89567849814E+03  0.17300000000E+03 0. -1.
<mgrwt>
<rscale>  2 0.22137803E+03</rscale>
<asrwt>0</asrwt>
<pdfrwt beam="1">  1       21 0.15839251E-01 0.22137803E+03</pdfrwt>
<pdfrwt beam="2">  1       21 0.15682368E+00 0.22137803E+03</pdfrwt>
<totfact> 0.92346413E+03</totfact>
</mgrwt>
</event>
<event>
 4    2  0.3964208E+000  0.1986595E+03  0.7546771E-02  0.1150875E+00
         21   -1    0    0  503  502  0.00000000000E+00  0.00000000000E+00  0.47650734340E+02  0.47650734340E+02  0.00000000000E+00 0. -1.
         21   -1    0    0  501  503 -0.00000000000E+00 -0.00000000000E+00 -0.85150148491E+03  0.85150148491E+03  0.00000000000E+00 0.  1.
          6    1    1    2  501    0  0.63968013025E+02  0.73788144330E+02 -0.47625398429E+03  0.51602660250E+03  0.17300000000E+03 0.  1.
         -6    1    1    2    0  502 -0.63968013025E+02 -0.73788144330E+02 -0.32759676628E+03  0.38312561675E+03  0.17300000000E+03 0.  1.
<mgrwt>
<rscale>  2 0.19865950E+03</rscale>
<asrwt>0</asrwt>
<pdfrwt beam="1">  1       21 0.73308827E-02 0.19865950E+03</pdfrwt>
<pdfrwt beam="2">  1       21 0.13100022E+00 0.19865950E+03</pdfrwt>
<totfact> 0.59021918E+04</totfact>
</mgrwt>
</event>
<event>
 4    2  0.3964208E+000  0.2266595E+03  0.7546771E-02  0.1129013E+00
         21   -1    0    0  503  502  0.00000000000E+00  0.00000000000E+00  0.70397901254E+03  0.70397901254E+03  0.00000000000E+00 0. -1.
         21   -1    0    0  501  503 -0.00000000000E+00 -0.00000000000E+00 -0.12324629246E+03  0.12324629246E+03  0.00000000000E+00 0.  1.
          6    1    1    2  501    0  0.12633891884E+03  0.74053947036E+02  0.26212573974E+02  0.22817013065E+03  0.17300000000E+03 0.  1.
         -6    1    1    2    0  502 -0.12633891884E+03 -0.74053947036E+02  0.55452014611E+03  0.59905517436E+03  0.17300000000E+03 0. -1.
<mgrwt>
<rscale>  2 0.22665946E+03</rscale>
<asrwt>0</asrwt>
<pdfrwt beam="1">  1       21 0.10830446E+00 0.22665946E+03</pdfrwt>
<pdfrwt beam="2">  1       21 0.18960968E-01 0.22665946E+03</pdfrwt>
<totfact> 0.16928091E+04</totfact>
</mgrwt>
</event>
<event>
 4    2  0.3964208E+000  0.2359168E+03  0.7546771E-02  0.1122543E+00
         21   -1    0    0  503  502  0.00000000000E+00  0.00000000000E+00  0.10934850118E+03  0.10934850118E+03  0.00000000000E+00 0. -1.
         21   -1    0    0  501  503 -0.00000000000E+00 -0.00000000000E+00 -0.79489644041E+03  0.79489644041E+03  0.00000000000E+00 0. -1.
          6    1    1    2  501    0 -0.12399470463E+03 -0.10175002914E+03 -0.61392828781E+03  0.65769650887E+03  0.17300000000E+03 0. -1.
         -6    1    1    2    0  502  0.12399470463E+03  0.10175002914E+03 -0.71619651410E+02  0.24654843272E+03  0.17300000000E+03 0. -1.
<mgrwt>
<rscale>  2 0.23591684E+03</rscale>
<asrwt>0</asrwt>
<pdfrwt beam="1">  1       21 0.16822847E-01 0.23591684E+03</pdfrwt>
<pdfrwt beam="2">  1       21 0.12229176E+00 0.23591684E+03</pdfrwt>
<totfact> 0.15594807E+04</totfact>
</mgrwt>
</event>
<event>
 4    2  0.3964208E+000  0.3627885E+03  0.7546771E-02  0.1057485E+00
         21   -1    0    0  503  502  0.00000000000E+00  0.00000000000E+00  0.14180911076E+04  0.14180911076E+04  0.00000000000E+00 0.  1.
         21   -1    0    0  501  503 -0.00000000000E+00 -0.00000000000E+00 -0.96646611254E+02  0.96646611254E+02  0.00000000000E+00 0. -1.
          6    1    1    2  501    0  0.31760270004E+03  0.28548401004E+02  0.81158783910E+03  0.88898273709E+03  0.17300000000E+03 0.  1.
         -6    1    1    2    0  502 -0.31760270004E+03 -0.28548401004E+02  0.50985665727E+03  0.62575498179E+03  0.17300000000E+03 0. -1.
<mgrwt>
<rscale>  2 0.36278849E+03</rscale>
<asrwt>0</asrwt>
<pdfrwt beam="1">  1       21 0.21816785E+00 0.36278849E+03</pdfrwt>
<pdfrwt beam="2">  1       21 0.14868710E-01 0.36278849E+03</pdfrwt>
<totfact> 0.36414353E+03</totfact>
</mgrwt>
</event>
<event>
 4    2  0.3964208E+000  0.2046221E+03  0.7546771E-02  0.1145897E+00
         21   -1    0    0  501  502  0.00000000000E+00  0.00000000000E+00  0.47354728934E+02  0.47354728934E+02  0.00000000000E+00 0. -1.
         21   -1    0    0  502  503 -0.00000000000E+00 -0.00000000000E+00 -0.11914114949E+04  0.11914114949E+04  0.00000000000E+00 0. -1.
          6    1    1    2  501    0  0.57410493647E+02  0.92979691215E+02 -0.25749982267E+03  0.32890172763E+03  0.17300000000E+03 0. -1.
         -6    1    1    2    0  503 -0.57410493647E+02 -0.92979691215E+02 -0.88655694334E+03  0.90986449626E+03  0.17300000000E+03 0. -1.
<mgrwt>
<rscale>  2 0.20462206E+03</rscale>
<asrwt>0</asrwt>
<pdfrwt beam="1">  1       21 0.72853424E-02 0.20462206E+03</pdfrwt>
<pdfrwt beam="2">  1       21 0.18329409E+00 0.20462206E+03</pdfrwt>
<totfact> 0.24197467E+04</totfact>
</mgrwt>
</event>
<event>
 4    2  0.3964208E+000  0.2010596E+03  0.7546771E-02  0.1148848E+00
         21   -1    0    0  501  502  0.00000000000E+00  0.00000000000E+00  0.23264879073E+03  0.23264879073E+03  0.00000000000E+00 0.  1.
         21   -1    0    0  502  503 -0.00000000000E+00 -0.00000000000E+00 -0.33963669420E+03  0.33963669420E+03  0.00000000000E+00 0.  1.
          6    1    1    2  501    0 -0.26419601283E+02 -0.98984625991E+02  0.14647782002E+03  0.24875832302E+03  0.17300000000E+03 0.  1.
         -6    1    1    2    0  503  0.26419601283E+02  0.98984625991E+02 -0.25346572349E+03  0.32352716191E+03  0.17300000000E+03 0.  1.
<mgrwt>
<rscale>  2 0.20105957E+03</rscale>
<asrwt>0</asrwt>
<pdfrwt beam="1">  1       21 0.35792122E-01 0.20105957E+03</pdfrwt>
<pdfrwt beam="2">  1       21 0.52251799E-01 0.20105957E+03</pdfrwt>
<totfact> 0.26031144E+04</totfact>
</mgrwt>
</event>
<event>
 4    2  0.3964208E+000  0.1851457E+03  0.7546771E-02  0.1162914E+00
         21   -1    0    0  501  502  0.00000000000E+00  0.00000000000E+00  0.10432446249E+04  0.10432446249E+04  0.00000000000E+00 0.  1.
         21   -1    0    0  502  503 -0.00000000000E+00 -0.00000000000E+00 -0.43690325857E+02  0.43690325857E+02  0.00000000000E+00 0. -1.
          6    1    1    2  501    0  0.43656650701E+02  0.49437135778E+02  0.77038584173E+03  0.79232144909E+03  0.17300000000E+03 0. -1.
         -6    1    1    2    0  503 -0.43656650701E+02 -0.49437135778E+02  0.22916845735E+03  0.29461350171E+03  0.17300000000E+03 0. -1.
<mgrwt>
<rscale>  2 0.18514571E+03</rscale>
<asrwt>0</asrwt>
<pdfrwt beam="1">  1       21 0.16049915E+00 0.18514571E+03</pdfrwt>
<pdfrwt beam="2">  1       21 0.67215894E-02 0.18514571E+03</pdfrwt>
<totfact> 0.40675409E+04</totfact>
</mgrwt>
</event>
<event>
 4    2  0.3964208E+000  0.2030999E+03  0.7546771E-02  0.1147150E+00
         21   -1    0    0  501  502  0.00000000000E+00  0.00000000000E+00  0.62141724178E+02  0.62141724178E+02  0.00000000000E+00 0.  1.
         21   -1    0    0  502  503 -0.00000000000E+00 -0.00000000000E+00 -0.66498972212E+03  0.66498972212E+03  0.00000000000E+00 0.  1.
          6    1    1    2  501    0  0.86693874261E+02 -0.61682538650E+02 -0.28603429830E+03  0.35080647545E+03  0.17300000000E+03 0.  1.
         -6    1    1    2    0  503 -0.86693874261E+02  0.61682538650E+02 -0.31681369964E+03  0.37632497085E+03  0.17300000000E+03 0.  1.
<mgrwt>
<rscale>  2 0.20309989E+03</rscale>
<asrwt>0</asrwt>
<pdfrwt beam="1">  1       21 0.95602653E-02 0.20309989E+03</pdfrwt>
<pdfrwt beam="2">  1       21 0.10230611E+00 0.20309989E+03</pdfrwt>
<totfact> 0.67961047E+04</totfact>
</mgrwt>
</event>
<event>
 4    2  0.3964208E+000  0.2742113E+03  0.7546771E-02  0.1098893E+00
         21   -1    0    0  501  502  0.00000000000E+00  0.00000000000E+00  0.39120831967E+03  0.39120831967E+03  0.00000000000E+00 0. -1.
         21   -1    0    0  502  503 -0.00000000000E+00 -0.00000000000E+00 -0.30935335544E+03  0.30935335544E+03  0.00000000000E+00 0. -1.
          6    1    1    2  501    0  0.19924292333E+03 -0.74599506821E+02  0.25648282750E+03  0.37546673583E+03  0.17300000000E+03 0. -1.
         -6    1    1    2    0  503 -0.19924292333E+03  0.74599506821E+02 -0.17462786327E+03  0.32509493928E+03  0.17300000000E+03 0. -1.
<mgrwt>
<rscale>  2 0.27421129E+03</rscale>
<asrwt>0</asrwt>
<pdfrwt beam="1">  1       21 0.60185896E-01 0.27421129E+03</pdfrwt>
<pdfrwt beam="2">  1       21 0.47592824E-01 0.27421129E+03</pdfrwt>
<totfact> 0.10357888E+04</totfact>
</mgrwt>
</event>
<event>
 4    2  0.3964208E+000  0.2799637E+03  0.7546771E-02  0.1095709E+00
         21   -1    0    0  501  502  0.00000000000E+00  0.00000000000E+00  0.12234480602E+03  0.12234480602E+03  0.00000000000E+00 0.  1.
         21   -1    0    0  502  503 -0.00000000000E+00 -0.00000000000E+00 -0.14390329747E+04  0.14390329747E+04  0.00000000000E+00 0.  1.
          6    1    1    2  501    0 -0.94774210928E+02 -0.19866681300E+03 -0.76844411885E+02  0.29031830339E+03  0.17300000000E+03 0.  1.
         -6    1    1    2    0  503  0.94774210928E+02  0.19866681300E+03 -0.12398437568E+04  0.12710594773E+04  0.17300000000E+03 0.  1.
<mgrwt>
<rscale>  2 0.27996366E+03</rscale>
<asrwt>0</asrwt>
<pdfrwt beam="1">  1       21 0.18822278E-01 0.27996366E+03</pdfrwt>
<pdfrwt beam="2">  1       21 0.22138968E+00 0.27996366E+03</pdfrwt>
<totfact> 0.23593384E+03</totfact>
</mgrwt>
</event>
<event>
 4    2  0.3964208E+000  0.1789494E+03  0.7546771E-02  0.1168824E+00
         21   -1    0    0  503  502  0.00000000000E+00  0.00000000000E+00  0.63901556571E+02  0.63901556571E+02  0.00000000000E+00 0.  1.
         21   -1    0    0  501  503 -0.00000000000E+00 -0.00000000000E+00 -0.61180730697E+03  0.61180730697E+03  0.00000000000E+00 0.  1.
          6    1    1    2  501    0  0.30242170749E+02 -0.34341016123E+02 -0.41765210158E+03  0.45437448458E+03  0.17300000000E+03 0.  1.
         -6    1    1    2    0  502 -0.30242170749E+02  0.34341016123E+02 -0.13025364882E+03  0.22133437896E+03  0.17300000000E+03 0.  1.
<mgrwt>
<rscale>  2 0.17894942E+03</rscale>
<asrwt>0</asrwt>
<pdfrwt beam="1">  1       21 0.98310089E-02 0.17894942E+03</pdfrwt>
<pdfrwt beam="2">  1       21 0.94124199E-01 0.17894942E+03</pdfrwt>
<totfact> 0.79634881E+04</totfact>
</mgrwt>
</event>
<event>
 4    2  0.3964208E+000  0.2005142E+03  0.7546771E-02  0.1149306E+00
         21   -1    0    0  503  502  0.00000000000E+00  0.00000000000E+00  0.18497067252E+04  0.18497067252E+04  0.00000000000E+00 0. -1.
         21   -1    0    0  501  503 -0.00000000000E+00 -0.00000000000E+00 -0.25096602000E+02  0.25096602000E+02  0.00000000000E+00 0. -1.
          6    1    1    2  501    0  0.87770429705E+02 -0.50727799657E+02  0.56929946568E+03  0.60357919084E+03  0.17300000000E+03 0. -1.
         -6    1    1    2    0  502 -0.87770429705E+02  0.50727799657E+02  0.12553106575E+04  0.12712241363E+04  0.17300000000E+03 0. -1.
<mgrwt>
<rscale>  2 0.20051423E+03</rscale>
<asrwt>0</asrwt>
<pdfrwt beam="1">  1       21 0.28457016E+00 0.20051423E+03</pdfrwt>
<pdfrwt beam="2">  1       21 0.38610171E-02 0.20051423E+03</pdfrwt>
<totfact> 0.17282020E+04</totfact>
</mgrwt>
</event>
<event>
 4    2  0.3964208E+000  0.2360862E+03  0.7546771E-02  0.1122428E+00
         21   -1    0    0  503  502  0.00000000000E+00  0.00000000000E+00  0.25361181371E+03  0.25361181371E+03  0.00000000000E+00 0. -1.
         21   -1    0    0  501  503 -0.00000000000E+00 -0.00000000000E+00 -0.11557338986E+04  0.11557338986E+04  0.00000000000E+00 0.  1.
          6    1    1    2  501    0  0.26458554666E+02  0.15845389878E+03 -0.10852048812E+04  0.11105882799E+04  0.17300000000E+03 0.  1.
         -6    1    1    2    0  502 -0.26458554666E+02 -0.15845389878E+03  0.18308279630E+03  0.29875743247E+03  0.17300000000E+03 0. -1.
<mgrwt>
<rscale>  2 0.23608620E+03</rscale>
<asrwt>0</asrwt>
<pdfrwt beam="1">  1       21 0.39017201E-01 0.23608620E+03</pdfrwt>
<pdfrwt beam="2">  1       21 0.17780522E+00 0.23608620E+03</pdfrwt>
<totfact> 0.11428738E+03</totfact>
</mgrwt>
</event>
<event>
 4    2  0.3964208E+000  0.2524222E+03  0.7546771E-02  0.1111784E+00
         21   -1    0    0  501  502  0.00000000000E+00  0.00000000000E+00  0.16322665550E+03  0.16322665550E+03  0.00000000000E+00 0. -1.
         21   -1    0    0  502  503 -0.00000000000E+00 -0.00000000000E+00 -0.40526811406E+03  0.40526811406E+03  0.00000000000E+00 0. -1.
          6    1    1    2  501    0 -0.48526135818E+01  0.18375091399E+03 -0.66500780336E+02  0.26103505518E+03  0.17300000000E+03 0. -1.
         -6    1    1    2    0  503  0.48526135818E+01 -0.18375091399E+03 -0.17554067823E+03  0.30745971437E+03  0.17300000000E+03 0. -1.
<mgrwt>
<rscale>  2 0.25242216E+03</rscale>
<asrwt>0</asrwt>
<pdfrwt beam="1">  1       21 0.25111793E-01 0.25242216E+03</pdfrwt>
<pdfrwt beam="2">  1       21 0.62348941E-01 0.25242216E+03</pdfrwt>
<totfact> 0.34803414E+04</totfact>
</mgrwt>
</event>
<event>
 4    2  0.3964208E+000  0.1943024E+03  0.7546771E-02  0.1154637E+00
         21   -1    0    0  501  502  0.00000000000E+00  0.00000000000E+00  0.51757191793E+03  0.51757191793E+03  0.00000000000E+00 0.  1.
         21   -1    0    0  502  503 -0.00000000000E+00 -0.00000000000E+00 -0.12731153763E+03  0.12731153763E+03  0.00000000000E+00 0. -1.
          6    1    1    2  501    0  0.47005778889E+02 -0.74932618835E+02  0.40584239940E+03  0.44995721326E+03  0.17300000000E+03 0.  1.
         -6    1    1    2    0  503 -0.47005778889E+02  0.74932618835E+02 -0.15582019103E+02  0.19492624229E+03  0.17300000000E+03 0. -1.
<mgrwt>
<rscale>  2 0.19430245E+03</rscale>
<asrwt>0</asrwt>
<pdfrwt beam="1">  1       21 0.79626448E-01 0.19430245E+03</pdfrwt>
<pdfrwt beam="2">  1       21 0.19586391E-01 0.19430245E+03</pdfrwt>
<totfact> 0.33332364E+04</totfact>
</mgrwt>
</event>
<event>
 4    2  0.3964208E+000  0.1891239E+03  0.7546771E-02  0.1159254E+00
         21   -1    0    0  501  502  0.00000000000E+00  0.00000000000E+00  0.10249049002E+03  0.10249049002E+03  0.00000000000E+00 0. -1.
         21   -1    0    0  502  503 -0.00000000000E+00 -0.00000000000E+00 -0.48088849958E+03  0.48088849958E+03  0.00000000000E+00 0.  1.
          6    1    1    2  501    0  0.72481378742E+02 -0.24192867307E+02 -0.36434127231E+02  0.19260137777E+03  0.17300000000E+03 0. -1.
         -6    1    1    2    0  503 -0.72481378742E+02  0.24192867307E+02 -0.34196388232E+03  0.39077761183E+03  0.17300000000E+03 0.  1.
<mgrwt>
<rscale>  2 0.18912389E+03</rscale>
<asrwt>0</asrwt>
<pdfrwt beam="1">  1       21 0.15767768E-01 0.18912389E+03</pdfrwt>
<pdfrwt beam="2">  1       21 0.73982846E-01 0.18912389E+03</pdfrwt>
<totfact> 0.58796516E+04</totfact>
</mgrwt>
</event>
<event>
 4    2  0.3964208E+000  0.2593871E+03  0.7546771E-02  0.1107512E+00
         21   -1    0    0  501  502  0.00000000000E+00  0.00000000000E+00  0.66058072630E+03  0.66058072630E+03  0.00000000000E+00 0. -1.
         21   -1    0    0  502  503 -0.00000000000E+00 -0.00000000000E+00 -0.10190682230E+03  0.10190682230E+03  0.00000000000E+00 0. -1.
          6    1    1    2  501    0 -0.10782459235E+03 -0.16039486890E+03  0.28815649788E+03  0.38770584720E+03  0.17300000000E+03 0. -1.
         -6    1    1    2    0  503  0.10782459235E+03  0.16039486890E+03  0.27051740612E+03  0.37478170139E+03  0.17300000000E+03 0. -1.
<mgrwt>
<rscale>  2 0.25938708E+03</rscale>
<asrwt>0</asrwt>
<pdfrwt beam="1">  1       21 0.10162780E+00 0.25938708E+03</pdfrwt>
<pdfrwt beam="2">  1       21 0.15677973E-01 0.25938708E+03</pdfrwt>
<totfact> 0.27613097E+04</totfact>
</mgrwt>
</event>
<event>
 4    2  0.3964208E+000  0.3408805E+03  0.7546771E-02  0.1066422E+00
         21   -1    0    0  503  502  0.00000000000E+00  0.00000000000E+00  0.17538095771E+04  0.17538095771E+04  0.00000000000E+00 0.  1.
         21   -1    0    0  501  503 -0.00000000000E+00 -0.00000000000E+00 -0.39726167223E+03  0.39726167223E+03  0.00000000000E+00 0. -1.
          6    1    1    2  501    0 -0.50138759198E+02  0.28940731797E+03 -0.30348422560E+03  0.45640132127E+03  0.17300000000E+03 0. -1.
         -6    1    1    2    0  502  0.50138759198E+02 -0.28940731797E+03  0.16600321304E+04  0.16946699280E+04  0.17300000000E+03 0.  1.
<mgrwt>
<rscale>  2 0.34088046E+03</rscale>
<asrwt>0</asrwt>
<pdfrwt beam="1">  1       21 0.26981685E+00 0.34088046E+03</pdfrwt>
<pdfrwt beam="2">  1       21 0.61117181E-01 0.34088046E+03</pdfrwt>
<totfact> 0.10712486E+02</totfact>
</mgrwt>
</event>
<event>
 4    2  0.3964208E+000  0.1936743E+03  0.7546771E-02  0.1155189E+00
         21   -1    0    0  501  502  0.00000000000E+00  0.00000000000E+00  0.86159875217E+03  0.86159875217E+03  0.00000000000E+00 0.  1.
         21   -1    0    0  502  503 -0.00000000000E+00 -0.00000000000E+00 -0.51699765510E+02  0.51699765510E+02  0.00000000000E+00 0.  1.
          6    1    1    2  501    0 -0.31192045321E+02 -0.81288266589E+02  0.58642147367E+03  0.61757580163E+03  0.17300000000E+03 0.  1.
         -6    1    1    2    0  503  0.31192045321E+02  0.81288266589E+02  0.22347751299E+03  0.29572271605E+03  0.17300000000E+03 0.  1.
<mgrwt>
<rscale>  2 0.19367428E+03</rscale>
<asrwt>0</asrwt>
<pdfrwt beam="1">  1       21 0.13255364E+00 0.19367428E+03</pdfrwt>
<pdfrwt beam="2">  1       21 0.79538107E-02 0.19367428E+03</pdfrwt>
<totfact> 0.49856516E+04</totfact>
</mgrwt>
</event>
<event>
 4    2  0.3964208E+000  0.1896666E+03  0.7546771E-02  0.1158762E+00
         21   -1    0    0  503  502  0.00000000000E+00  0.00000000000E+00  0.57733511906E+02  0.57733511906E+02  0.00000000000E+00 0.  1.
         21   -1    0    0  501  503 -0.00000000000E+00 -0.00000000000E+00 -0.68603360090E+03  0.68603360090E+03  0.00000000000E+00 0.  1.
          6    1    1    2  501    0 -0.74038391868E+02  0.23721941045E+02 -0.20150924326E+03  0.27672981241E+03  0.17300000000E+03 0.  1.
         -6    1    1    2    0  502  0.74038391868E+02 -0.23721941045E+02 -0.42679084573E+03  0.46703730040E+03  0.17300000000E+03 0.  1.
<mgrwt>
<rscale>  2 0.18966659E+03</rscale>
<asrwt>0</asrwt>
<pdfrwt beam="1">  1       21 0.88820793E-02 0.18966659E+03</pdfrwt>
<pdfrwt beam="2">  1       21 0.10554362E+00 0.18966659E+03</pdfrwt>
<totfact> 0.72236830E+04</totfact>
</mgrwt>
</event>
<event>
 4    2  0.3964208E+000  0.1735896E+03  0.7546771E-02  0.1174155E+00
         21   -1    0    0  501  502  0.00000000000E+00  0.00000000000E+00  0.51514555935E+02  0.51514555935E+02  0.00000000000E+00 0. -1.
         21   -1    0    0  502  503 -0.00000000000E+00 -0.00000000000E+00 -0.24010426915E+04  0.24010426915E+04  0.00000000000E+00 0. -1.
          6    1    1    2  501    0 -0.10531170149E+02 -0.96666815874E+01 -0.10827003663E+03  0.20458678137E+03  0.17300000000E+03 0. -1.
         -6    1    1    2    0  503  0.10531170149E+02  0.96666815874E+01 -0.22412580989E+04  0.22479704660E+04  0.17300000000E+03 0. -1.
<mgrwt>
<rscale>  2 0.17358960E+03</rscale>
<asrwt>0</asrwt>
<pdfrwt beam="1">  1       21 0.79253195E-02 0.17358960E+03</pdfrwt>
<pdfrwt beam="2">  1       21 0.36939103E+00 0.17358960E+03</pdfrwt>
<totfact> 0.16831111E+03</totfact>
</mgrwt>
</event>
<event>
 4    2  0.3964208E+000  0.1902643E+03  0.7546771E-02  0.1158223E+00
         21   -1    0    0  501  502  0.00000000000E+00  0.00000000000E+00  0.33714640178E+03  0.33714640178E+03  0.00000000000E+00 0. -1.
         21   -1    0    0  502  503 -0.00000000000E+00 -0.00000000000E+00 -0.12086990133E+03  0.12086990133E+03  0.00000000000E+00 0. -1.
          6    1    1    2  501    0  0.96080045042E+01 -0.78607794859E+02  0.18466356856E+03  0.26514360772E+03  0.17300000000E+03 0. -1.
         -6    1    1    2    0  503 -0.96080045042E+01  0.78607794859E+02  0.31612931901E+02  0.19287269539E+03  0.17300000000E+03 0. -1.
<mgrwt>
<rscale>  2 0.19026429E+03</rscale>
<asrwt>0</asrwt>
<pdfrwt beam="1">  1       21 0.51868677E-01 0.19026429E+03</pdfrwt>
<pdfrwt beam="2">  1       21 0.18595369E-01 0.19026429E+03</pdfrwt>
<totfact> 0.93375667E+04</totfact>
</mgrwt>
</event>
<event>
 4    2  0.3964208E+000  0.1948577E+03  0.7546771E-02  0.1154152E+00
         21   -1    0    0  501  502  0.00000000000E+00  0.00000000000E+00  0.33108686403E+03  0.33108686403E+03  0.00000000000E+00 0. -1.
         21   -1    0    0  502  503 -0.00000000000E+00 -0.00000000000E+00 -0.11698618061E+03  0.11698618061E+03  0.00000000000E+00 0. -1.
          6    1    1    2  501    0  0.64800754267E+01 -0.89434489445E+02  0.13849611646E+03  0.23906211234E+03  0.17300000000E+03 0.  1.
         -6    1    1    2    0  503 -0.64800754267E+01  0.89434489445E+02  0.75604566960E+02  0.20901093231E+03  0.17300000000E+03 0.  1.
<mgrwt>
<rscale>  2 0.19485769E+03</rscale>
<asrwt>0</asrwt>
<pdfrwt beam="1">  1       21 0.50936440E-01 0.19485769E+03</pdfrwt>
<pdfrwt beam="2">  1       21 0.17997874E-01 0.19485769E+03</pdfrwt>
<totfact> 0.10285121E+05</totfact>
</mgrwt>
</event>
<event>
 4    2  0.3964208E+000  0.1837595E+03  0.7546771E-02  0.1164213E+00
         21   -1    0    0  501  502  0.00000000000E+00  0.00000000000E+00  0.22355048441E+03  0.22355048441E+03  0.00000000000E+00 0. -1.
         21   -1    0    0  502  503 -0.00000000000E+00 -0.00000000000E+00 -0.26505642531E+03  0.26505642531E+03  0.00000000000E+00 0. -1.
          6    1    1    2  501    0  0.58703678388E+02 -0.19810125382E+02  0.13946929576E+03  0.23069297211E+03  0.17300000000E+03 0. -1.
         -6    1    1    2    0  503 -0.58703678388E+02  0.19810125382E+02 -0.18097523667E+03  0.25791393760E+03  0.17300000000E+03 0. -1.
<mgrwt>
<rscale>  2 0.18375952E+03</rscale>
<asrwt>0</asrwt>
<pdfrwt beam="1">  1       21 0.34392382E-01 0.18375952E+03</pdfrwt>
<pdfrwt beam="2">  1       21 0.40777911E-01 0.18375952E+03</pdfrwt>
<totfact> 0.47400112E+04</totfact>
</mgrwt>
</event>
<event>
 4    2  0.3964208E+000  0.1734949E+03  0.7546771E-02  0.1174251E+00
         21   -1    0    0  503  502  0.00000000000E+00  0.00000000000E+00  0.10189172248E+04  0.10189172248E+04  0.00000000000E+00 0. -1.
         21   -1    0    0  501  503 -0.00000000000E+00 -0.00000000000E+00 -0.44443096229E+02  0.44443096229E+02  0.00000000000E+00 0. -1.
          6    1    1    2  501    0 -0.97720216925E+01 -0.87170659419E+01  0.17937034362E+03  0.24954799101E+03  0.17300000000E+03 0. -1.
         -6    1    1    2    0  502  0.97720216925E+01  0.87170659419E+01  0.79510378493E+03  0.81381232999E+03  0.17300000000E+03 0. -1.
<mgrwt>
<rscale>  2 0.17349490E+03</rscale>
<asrwt>0</asrwt>
<pdfrwt beam="1">  1       21 0.15675648E+00 0.17349490E+03</pdfrwt>
<pdfrwt beam="2">  1       21 0.68374002E-02 0.17349490E+03</pdfrwt>
<totfact> 0.42379399E+04</totfact>
</mgrwt>
</event>
<event>
 4    2  0.3964208E+000  0.1789769E+03  0.7546771E-02  0.1168797E+00
         21   -1    0    0  503  502  0.00000000000E+00  0.00000000000E+00  0.32223242134E+03  0.32223242134E+03  0.00000000000E+00 0.  1.
         21   -1    0    0  501  503 -0.00000000000E+00 -0.00000000000E+00 -0.35728090935E+03  0.35728090935E+03  0.00000000000E+00 0.  1.
          6    1    1    2  501    0  0.20218354982E+02 -0.41169813398E+02 -0.30617006481E+03  0.35464467288E+03  0.17300000000E+03 0.  1.
         -6    1    1    2    0  502 -0.20218354982E+02  0.41169813398E+02  0.27112157680E+03  0.32486865780E+03  0.17300000000E+03 0.  1.
<mgrwt>
<rscale>  2 0.17897691E+03</rscale>
<asrwt>0</asrwt>
<pdfrwt beam="1">  1       21 0.49574219E-01 0.17897691E+03</pdfrwt>
<pdfrwt beam="2">  1       21 0.54966294E-01 0.17897691E+03</pdfrwt>
<totfact> 0.12225735E+04</totfact>
</mgrwt>
</event>
<event>
 4    2  0.3964208E+000  0.2120772E+03  0.7546771E-02  0.1139932E+00
         21   -1    0    0  501  502  0.00000000000E+00  0.00000000000E+00  0.10729368362E+03  0.10729368362E+03  0.00000000000E+00 0. -1.
         21   -1    0    0  502  503 -0.00000000000E+00 -0.00000000000E+00 -0.69213636614E+03  0.69213636614E+03  0.00000000000E+00 0. -1.
          6    1    1    2  501    0 -0.76838358168E+02 -0.95622255822E+02 -0.41411355062E+02  0.21608250605E+03  0.17300000000E+03 0. -1.
         -6    1    1    2    0  503  0.76838358168E+02  0.95622255822E+02 -0.54343132746E+03  0.58334754371E+03  0.17300000000E+03 0. -1.
<mgrwt>
<rscale>  2 0.21207722E+03</rscale>
<asrwt>0</asrwt>
<pdfrwt beam="1">  1       21 0.16506721E-01 0.21207722E+03</pdfrwt>
<pdfrwt beam="2">  1       21 0.10648251E+00 0.21207722E+03</pdfrwt>
<totfact> 0.22992740E+04</totfact>
</mgrwt>
</event>
<event>
 4    2  0.3964208E+000  0.2298968E+03  0.7546771E-02  0.1126712E+00
         21   -1    0    0  503  502  0.00000000000E+00  0.00000000000E+00  0.29558929974E+02  0.29558929974E+02  0.00000000000E+00 0.  1.
         21   -1    0    0  501  503 -0.00000000000E+00 -0.00000000000E+00 -0.18510597474E+04  0.18510597474E+04  0.00000000000E+00 0. -1.
          6    1    1    2  501    0 -0.51675688333E+02 -0.14231364246E+03 -0.10842501406E+04  0.11083550500E+04  0.17300000000E+03 0.  1.
         -6    1    1    2    0  502  0.51675688333E+02  0.14231364246E+03 -0.73725067684E+03  0.77226362733E+03  0.17300000000E+03 0. -1.
<mgrwt>
<rscale>  2 0.22989682E+03</rscale>
<asrwt>0</asrwt>
<pdfrwt beam="1">  1       21 0.45475261E-02 0.22989682E+03</pdfrwt>
<pdfrwt beam="2">  1       21 0.28477852E+00 0.22989682E+03</pdfrwt>
<totfact> 0.12733766E+04</totfact>
</mgrwt>
</event>
<event>
 4    2  0.3964208E+000  0.2126378E+03  0.7546771E-02  0.1139494E+00
         21   -1    0    0  501  502  0.00000000000E+00  0.00000000000E+00  0.27272308160E+03  0.27272308160E+03  0.00000000000E+00 0.  1.
         21   -1    0    0  502  503 -0.00000000000E+00 -0.00000000000E+00 -0.38435515356E+03  0.38435515356E+03  0.00000000000E+00 0.  1.
          6    1    1    2  501    0 -0.99748817450E+02 -0.73048017221E+02  0.19193238938E+03  0.28644874148E+03  0.17300000000E+03 0.  1.
         -6    1    1    2    0  503  0.99748817450E+02  0.73048017221E+02 -0.30356446133E+03  0.37062949368E+03  0.17300000000E+03 0.  1.
<mgrwt>
<rscale>  2 0.21263781E+03</rscale>
<asrwt>0</asrwt>
<pdfrwt beam="1">  1       21 0.41957397E-01 0.21263781E+03</pdfrwt>
<pdfrwt beam="2">  1       21 0.59131562E-01 0.21263781E+03</pdfrwt>
<totfact> 0.14433996E+04</totfact>
</mgrwt>
</event>
<event>
 4    2  0.3964208E+000  0.1982406E+03  0.7546771E-02  0.1151232E+00
         21   -1    0    0  503  502  0.00000000000E+00  0.00000000000E+00  0.18959904141E+02  0.18959904141E+02  0.00000000000E+00 0.  1.
         21   -1    0    0  501  503 -0.00000000000E+00 -0.00000000000E+00 -0.20727732628E+04  0.20727732628E+04  0.00000000000E+00 0. -1.
          6    1    1    2  501    0  0.96701158938E+02  0.43837217584E+01 -0.10242624317E+04  0.10432702718E+04  0.17300000000E+03 0.  1.
         -6    1    1    2    0  502 -0.96701158938E+02 -0.43837217584E+01 -0.10295509270E+04  0.10484628951E+04  0.17300000000E+03 0.  1.
<mgrwt>
<rscale>  2 0.19824059E+03</rscale>
<asrwt>0</asrwt>
<pdfrwt beam="1">  1       21 0.29169070E-02 0.19824059E+03</pdfrwt>
<pdfrwt beam="2">  1       21 0.31888834E+00 0.19824059E+03</pdfrwt>
<totfact> 0.17504236E+04</totfact>
</mgrwt>
</event>
<event>
 4    2  0.3964208E+000  0.2454311E+03  0.7546771E-02  0.1116227E+00
         21   -1    0    0  503  502  0.00000000000E+00  0.00000000000E+00  0.29650959089E+03  0.29650959089E+03  0.00000000000E+00 0.  1.
         21   -1    0    0  501  503 -0.00000000000E+00 -0.00000000000E+00 -0.23682640669E+03  0.23682640669E+03  0.00000000000E+00 0. -1.
          6    1    1    2  501    0 -0.13405493372E+03 -0.11107077052E+03  0.13039746685E+03  0.27792074532E+03  0.17300000000E+03 0.  1.
         -6    1    1    2    0  502  0.13405493372E+03  0.11107077052E+03 -0.70714282648E+02  0.25541525226E+03  0.17300000000E+03 0. -1.
<mgrwt>
<rscale>  2 0.24543113E+03</rscale>
<asrwt>0</asrwt>
<pdfrwt beam="1">  1       21 0.45616860E-01 0.24543113E+03</pdfrwt>
<pdfrwt beam="2">  1       21 0.36434832E-01 0.24543113E+03</pdfrwt>
<totfact> 0.32610773E+04</totfact>
</mgrwt>
</event>
<event>
 4    2  0.3964208E+000  0.2108534E+03  0.7546771E-02  0.1140892E+00
         21   -1    0    0  501  502  0.00000000000E+00  0.00000000000E+00  0.29085380132E+03  0.29085380132E+03  0.00000000000E+00 0.  1.
         21   -1    0    0  502  503 -0.00000000000E+00 -0.00000000000E+00 -0.15893269472E+03  0.15893269472E+03  0.00000000000E+00 0. -1.
          6    1    1    2  501    0  0.13290269194E+02  0.11980612589E+03  0.21990647783E+02  0.21199699914E+03  0.17300000000E+03 0. -1.
         -6    1    1    2    0  503 -0.13290269194E+02 -0.11980612589E+03  0.10993045882E+03  0.23778949689E+03  0.17300000000E+03 0.  1.
<mgrwt>
<rscale>  2 0.21085336E+03</rscale>
<asrwt>0</asrwt>
<pdfrwt beam="1">  1       21 0.44746739E-01 0.21085336E+03</pdfrwt>
<pdfrwt beam="2">  1       21 0.24451184E-01 0.21085336E+03</pdfrwt>
<totfact> 0.75155334E+04</totfact>
</mgrwt>
</event>
<event>
 4    2  0.3964208E+000  0.2613038E+03  0.7546771E-02  0.1106362E+00
         21   -1    0    0  501  502  0.00000000000E+00  0.00000000000E+00  0.70806850977E+03  0.70806850977E+03  0.00000000000E+00 0.  1.
         21   -1    0    0  502  503 -0.00000000000E+00 -0.00000000000E+00 -0.98182260562E+02  0.98182260562E+02  0.00000000000E+00 0. -1.
          6    1    1    2  501    0  0.19446940246E+03 -0.23072400088E+02  0.25110234593E+03  0.36239767145E+03  0.17300000000E+03 0. -1.
         -6    1    1    2    0  503 -0.19446940246E+03  0.23072400088E+02  0.35878390328E+03  0.44385309889E+03  0.17300000000E+03 0.  1.
<mgrwt>
<rscale>  2 0.26130382E+03</rscale>
<asrwt>0</asrwt>
<pdfrwt beam="1">  1       21 0.10893361E+00 0.26130382E+03</pdfrwt>
<pdfrwt beam="2">  1       21 0.15104964E-01 0.26130382E+03</pdfrwt>
<totfact> 0.24967287E+04</totfact>
</mgrwt>
</event>
<event>
 4    2  0.3964208E+000  0.2056450E+03  0.7546771E-02  0.1145062E+00
         21   -1    0    0  501  502  0.00000000000E+00  0.00000000000E+00  0.10445183636E+03  0.10445183636E+03  0.00000000000E+00 0. -1.
         21   -1    0    0  502  503 -0.00000000000E+00 -0.00000000000E+00 -0.40535728453E+03  0.40535728453E+03  0.00000000000E+00 0.  1.
          6    1    1    2  501    0 -0.38483268907E+02  0.10430682645E+03 -0.15925052241E+03  0.26009729894E+03  0.17300000000E+03 0.  1.
         -6    1    1    2    0  503  0.38483268907E+02 -0.10430682645E+03 -0.14165492576E+03  0.24971182195E+03  0.17300000000E+03 0.  1.
<mgrwt>
<rscale>  2 0.20564502E+03</rscale>
<asrwt>0</asrwt>
<pdfrwt beam="1">  1       21 0.16069513E-01 0.20564502E+03</pdfrwt>
<pdfrwt beam="2">  1       21 0.62362659E-01 0.20564502E+03</pdfrwt>
<totfact> 0.82018572E+04</totfact>
</mgrwt>
</event>
<event>
 4    2  0.3964208E+000  0.1805926E+03  0.7546771E-02  0.1167231E+00
         21   -1    0    0  503  502  0.00000000000E+00  0.00000000000E+00  0.19225227767E+03  0.19225227767E+03  0.00000000000E+00 0. -1.
         21   -1    0    0  501  503 -0.00000000000E+00 -0.00000000000E+00 -0.17318664181E+03  0.17318664181E+03  0.00000000000E+00 0. -1.
          6    1    1    2  501    0 -0.18800687273E+02  0.48282560944E+02 -0.16615142347E+02  0.18135527147E+03  0.17300000000E+03 0.  1.
         -6    1    1    2    0  502  0.18800687273E+02 -0.48282560944E+02  0.35680778211E+02  0.18408364802E+03  0.17300000000E+03 0.  1.
<mgrwt>
<rscale>  2 0.18059256E+03</rscale>
<asrwt>0</asrwt>
<pdfrwt beam="1">  1       21 0.29577273E-01 0.18059256E+03</pdfrwt>
<pdfrwt beam="2">  1       21 0.26644099E-01 0.18059256E+03</pdfrwt>
<totfact> 0.14744449E+05</totfact>
</mgrwt>
</event>
<event>
 4    2  0.3964208E+000  0.2047682E+03  0.7546771E-02  0.1145777E+00
         21   -1    0    0  501  502  0.00000000000E+00  0.00000000000E+00  0.12525938822E+03  0.12525938822E+03  0.00000000000E+00 0. -1.
         21   -1    0    0  502  503 -0.00000000000E+00 -0.00000000000E+00 -0.37176358186E+03  0.37176358186E+03  0.00000000000E+00 0. -1.
          6    1    1    2  501    0  0.98531718352E+02  0.47880300129E+02 -0.44833383604E+02  0.20961883252E+03  0.17300000000E+03 0. -1.
         -6    1    1    2    0  503 -0.98531718352E+02 -0.47880300129E+02 -0.20167081004E+03  0.28740413756E+03  0.17300000000E+03 0. -1.
<mgrwt>
<rscale>  2 0.20476822E+03</rscale>
<asrwt>0</asrwt>
<pdfrwt beam="1">  1       21 0.19270676E-01 0.20476822E+03</pdfrwt>
<pdfrwt beam="2">  1       21 0.57194396E-01 0.20476822E+03</pdfrwt>
<totfact> 0.70631936E+04</totfact>
</mgrwt>
</event>
<event>
 4    2  0.3964208E+000  0.1812270E+03  0.7546771E-02  0.1166621E+00
         21   -1    0    0  501  502  0.00000000000E+00  0.00000000000E+00  0.47948453444E+03  0.47948453444E+03  0.00000000000E+00 0.  1.
         21   -1    0    0  502  503 -0.00000000000E+00 -0.00000000000E+00 -0.16249777095E+03  0.16249777095E+03  0.00000000000E+00 0.  1.
          6    1    1    2  501    0  0.33524241667E+02 -0.42312428624E+02  0.40263130076E+03  0.44153729259E+03  0.17300000000E+03 0.  1.
         -6    1    1    2    0  503 -0.33524241667E+02  0.42312428624E+02 -0.85644537265E+02  0.20044501281E+03  0.17300000000E+03 0.  1.
<mgrwt>
<rscale>  2 0.18122697E+03</rscale>
<asrwt>0</asrwt>
<pdfrwt beam="1">  1       21 0.73766851E-01 0.18122697E+03</pdfrwt>
<pdfrwt beam="2">  1       21 0.24999657E-01 0.18122697E+03</pdfrwt>
<totfact> 0.25152933E+04</totfact>
</mgrwt>
</event>
<event>
 4    2  0.3964208E+000  0.1991661E+03  0.7546771E-02  0.1150444E+00
         21   -1    0    0  503  502  0.00000000000E+00  0.00000000000E+00  0.19957004090E+03  0.19957004090E+03  0.00000000000E+00 0. -1.
         21   -1    0    0  501  503 -0.00000000000E+00 -0.00000000000E+00 -0.19923370907E+03  0.19923370907E+03  0.00000000000E+00 0. -1.
          6    1    1    2  501    0 -0.98405583959E+02 -0.73803741817E+01 -0.95246488308E+01  0.19939370053E+03  0.17300000000E+03 0. -1.
         -6    1    1    2    0  502  0.98405583959E+02  0.73803741817E+01  0.98609806621E+01  0.19941004944E+03  0.17300000000E+03 0. -1.
<mgrwt>
<rscale>  2 0.19916608E+03</rscale>
<asrwt>0</asrwt>
<pdfrwt beam="1">  1       21 0.30703083E-01 0.19916608E+03</pdfrwt>
<pdfrwt beam="2">  1       21 0.30651340E-01 0.19916608E+03</pdfrwt>
<totfact> 0.10381151E+05</totfact>
</mgrwt>
</event>
<event>
 4    2  0.3964208E+000  0.1733661E+03  0.7546771E-02  0.1174382E+00
         21   -1    0    0  501  502  0.00000000000E+00  0.00000000000E+00  0.12310221350E+03  0.12310221350E+03  0.00000000000E+00 0. -1.
         21   -1    0    0  502  503 -0.00000000000E+00 -0.00000000000E+00 -0.48729419585E+03  0.48729419585E+03  0.00000000000E+00 0. -1.
          6    1    1    2  501    0 -0.10545862160E+02 -0.39482156442E+01  0.33487459932E+02  0.17657070422E+03  0.17300000000E+03 0. -1.
         -6    1    1    2    0  503  0.10545862160E+02  0.39482156442E+01 -0.39767944229E+03  0.43382570513E+03  0.17300000000E+03 0. -1.
<mgrwt>
<rscale>  2 0.17336610E+03</rscale>
<asrwt>0</asrwt>
<pdfrwt beam="1">  1       21 0.18938801E-01 0.17336610E+03</pdfrwt>
<pdfrwt beam="2">  1       21 0.74968340E-01 0.17336610E+03</pdfrwt>
<totfact> 0.41068065E+04</totfact>
</mgrwt>
</event>
<event>
 4    2  0.3964208E+000  0.2515889E+03  0.7546771E-02  0.1112305E+00
         21   -1    0    0  501  502  0.00000000000E+00  0.00000000000E+00  0.25320145922E+03  0.25320145922E+03  0.00000000000E+00 0.  1.
         21   -1    0    0  502  503 -0.00000000000E+00 -0.00000000000E+00 -0.45199478219E+03  0.45199478219E+03  0.00000000000E+00 0.  1.
          6    1    1    2  501    0 -0.37015756295E+02 -0.17887936873E+03 -0.33511733091E+03  0.41904727686E+03  0.17300000000E+03 0.  1.
         -6    1    1    2    0  503  0.37015756295E+02  0.17887936873E+03  0.13632400793E+03  0.28614896455E+03  0.17300000000E+03 0.  1.
<mgrwt>
<rscale>  2 0.25158894E+03</rscale>
<asrwt>0</asrwt>
<pdfrwt beam="1">  1       21 0.38954071E-01 0.25158894E+03</pdfrwt>
<pdfrwt beam="2">  1       21 0.69537658E-01 0.25158894E+03</pdfrwt>
<totfact> 0.11527162E+04</totfact>
</mgrwt>
</event>
<event>
 4    2  0.3964208E+000  0.2603959E+03  0.7546771E-02  0.1106906E+00
         21   -1    0    0  501  502  0.00000000000E+00  0.00000000000E+00  0.66304162290E+02  0.66304162290E+02  0.00000000000E+00 0. -1.
         21   -1    0    0  502  503 -0.00000000000E+00 -0.00000000000E+00 -0.10289941847E+04  0.10289941847E+04  0.00000000000E+00 0. -1.
          6    1    1    2  501    0 -0.19459932502E+03 -0.28528920129E+01 -0.52434220815E+03  0.58544067807E+03  0.17300000000E+03 0. -1.
         -6    1    1    2    0  503  0.19459932502E+03  0.28528920129E+01 -0.43834781424E+03  0.50985766891E+03  0.17300000000E+03 0. -1.
<mgrwt>
<rscale>  2 0.26039592E+03</rscale>
<asrwt>0</asrwt>
<pdfrwt beam="1">  1       21 0.10200641E-01 0.26039592E+03</pdfrwt>
<pdfrwt beam="2">  1       21 0.15830679E+00 0.26039592E+03</pdfrwt>
<totfact> 0.19469232E+04</totfact>
</mgrwt>
</event>
<event>
 4    2  0.3964208E+000  0.1930990E+03  0.7546771E-02  0.1155696E+00
         21   -1    0    0  503  502  0.00000000000E+00  0.00000000000E+00  0.16184294586E+03  0.16184294586E+03  0.00000000000E+00 0.  1.
         21   -1    0    0  501  503 -0.00000000000E+00 -0.00000000000E+00 -0.23054006772E+03  0.23054006772E+03  0.00000000000E+00 0.  1.
          6    1    1    2  501    0  0.32618588661E+02 -0.79336236773E+02 -0.39331945186E+02  0.19706398124E+03  0.17300000000E+03 0.  1.
         -6    1    1    2    0  502 -0.32618588661E+02  0.79336236773E+02 -0.29365176678E+02  0.19531903234E+03  0.17300000000E+03 0.  1.
<mgrwt>
<rscale>  2 0.19309897E+03</rscale>
<asrwt>0</asrwt>
<pdfrwt beam="1">  1       21 0.24898915E-01 0.19309897E+03</pdfrwt>
<pdfrwt beam="2">  1       21 0.35467703E-01 0.19309897E+03</pdfrwt>
<totfact> 0.11698468E+05</totfact>
</mgrwt>
</event>
<event>
 4    2  0.3964208E+000  0.1848888E+03  0.7546771E-02  0.1163154E+00
         21   -1    0    0  501  502  0.00000000000E+00  0.00000000000E+00  0.44797341804E+03  0.44797341804E+03  0.00000000000E+00 0. -1.
         21   -1    0    0  502  503 -0.00000000000E+00 -0.00000000000E+00 -0.78039775953E+02  0.78039775953E+02  0.00000000000E+00 0. -1.
          6    1    1    2  501    0 -0.89619968455E+01 -0.64610857288E+02  0.14578581637E+03  0.23545144833E+03  0.17300000000E+03 0. -1.
         -6    1    1    2    0  503  0.89619968455E+01  0.64610857288E+02  0.22414782572E+03  0.29056174566E+03  0.17300000000E+03 0. -1.
<mgrwt>
<rscale>  2 0.18488883E+03</rscale>
<asrwt>0</asrwt>
<pdfrwt beam="1">  1       21 0.68918986E-01 0.18488883E+03</pdfrwt>
<pdfrwt beam="2">  1       21 0.12006120E-01 0.18488883E+03</pdfrwt>
<totfact> 0.11274402E+05</totfact>
</mgrwt>
</event>
<event>
 4    2  0.3964208E+000  0.1851612E+03  0.7546771E-02  0.1162899E+00
         21   -1    0    0  501  502  0.00000000000E+00  0.00000000000E+00  0.79449332269E+02  0.79449332269E+02  0.00000000000E+00 0.  1.
         21   -1    0    0  502  503 -0.00000000000E+00 -0.00000000000E+00 -0.54182347284E+03  0.54182347284E+03  0.00000000000E+00 0.  1.
          6    1    1    2  501    0  0.65534269189E+02  0.78060208096E+01 -0.91034610642E+02  0.20632977181E+03  0.17300000000E+03 0.  1.
         -6    1    1    2    0  503 -0.65534269189E+02 -0.78060208096E+01 -0.37133952993E+03  0.41494303331E+03  0.17300000000E+03 0.  1.
<mgrwt>
<rscale>  2 0.18516121E+03</rscale>
<asrwt>0</asrwt>
<pdfrwt beam="1">  1       21 0.12222975E-01 0.18516121E+03</pdfrwt>
<pdfrwt beam="2">  1       21 0.83357455E-01 0.18516121E+03</pdfrwt>
<totfact> 0.71369369E+04</totfact>
</mgrwt>
</event>
<event>
 4    2  0.3964208E+000  0.1819906E+03  0.7546771E-02  0.1165890E+00
         21   -1    0    0  503  502  0.00000000000E+00  0.00000000000E+00  0.35098613377E+02  0.35098613377E+02  0.00000000000E+00 0.  1.
         21   -1    0    0  501  503 -0.00000000000E+00 -0.00000000000E+00 -0.10007173386E+04  0.10007173386E+04  0.00000000000E+00 0. -1.
          6    1    1    2  501    0  0.47583248193E+02 -0.30453161117E+02 -0.35912426891E+03  0.40260501866E+03  0.17300000000E+03 0.  1.
         -6    1    1    2    0  502 -0.47583248193E+02  0.30453161117E+02 -0.60649445627E+03  0.63321093328E+03  0.17300000000E+03 0. -1.
<mgrwt>
<rscale>  2 0.18199055E+03</rscale>
<asrwt>0</asrwt>
<pdfrwt beam="1">  1       21 0.53997864E-02 0.18199055E+03</pdfrwt>
<pdfrwt beam="2">  1       21 0.15395652E+00 0.18199055E+03</pdfrwt>
<totfact> 0.66238461E+04</totfact>
</mgrwt>
</event>
<event>
 4    2  0.3964208E+000  0.1839098E+03  0.7546771E-02  0.1164072E+00
         21   -1    0    0  501  502  0.00000000000E+00  0.00000000000E+00  0.83206677615E+03  0.83206677615E+03  0.00000000000E+00 0. -1.
         21   -1    0    0  502  503 -0.00000000000E+00 -0.00000000000E+00 -0.88759660822E+02  0.88759660822E+02  0.00000000000E+00 0. -1.
          6    1    1    2  501    0 -0.26409121766E+01  0.62344544782E+02  0.71062249305E+03  0.73403483862E+03  0.17300000000E+03 0. -1.
         -6    1    1    2    0  503  0.26409121766E+01 -0.62344544782E+02  0.32684622280E+02  0.18679159835E+03  0.17300000000E+03 0. -1.
<mgrwt>
<rscale>  2 0.18390981E+03</rscale>
<asrwt>0</asrwt>
<pdfrwt beam="1">  1       21 0.12801027E+00 0.18390981E+03</pdfrwt>
<pdfrwt beam="2">  1       21 0.13655333E-01 0.18390981E+03</pdfrwt>
<totfact> 0.21019637E+04</totfact>
</mgrwt>
</event>
<event>
 4    2  0.3964208E+000  0.2233760E+03  0.7546771E-02  0.1131391E+00
         21   -1    0    0  501  502  0.00000000000E+00  0.00000000000E+00  0.14299003104E+04  0.14299003104E+04  0.00000000000E+00 0.  1.
         21   -1    0    0  502  503 -0.00000000000E+00 -0.00000000000E+00 -0.40391672735E+02  0.40391672735E+02  0.00000000000E+00 0.  1.
          6    1    1    2  501    0 -0.94629708083E+02  0.10494314212E+03  0.42357002378E+03  0.47886157684E+03  0.17300000000E+03 0.  1.
         -6    1    1    2    0  503  0.94629708083E+02 -0.10494314212E+03  0.96593861390E+03  0.99143040631E+03  0.17300000000E+03 0.  1.
<mgrwt>
<rscale>  2 0.22337602E+03</rscale>
<asrwt>0</asrwt>
<pdfrwt beam="1">  1       21 0.21998462E+00 0.22337602E+03</pdfrwt>
<pdfrwt beam="2">  1       21 0.62141046E-02 0.22337602E+03</pdfrwt>
<totfact> 0.18242233E+04</totfact>
</mgrwt>
</event>
<event>
 4    2  0.3964208E+000  0.1776606E+03  0.7546771E-02  0.1170087E+00
         21   -1    0    0  501  502  0.00000000000E+00  0.00000000000E+00  0.25954312815E+02  0.25954312815E+02  0.00000000000E+00 0. -1.
         21   -1    0    0  502  503 -0.00000000000E+00 -0.00000000000E+00 -0.13081073019E+04  0.13081073019E+04  0.00000000000E+00 0. -1.
          6    1    1    2  501    0 -0.12656868680E+02 -0.38393950075E+02 -0.46418276156E+03  0.49702004774E+03  0.17300000000E+03 0. -1.
         -6    1    1    2    0  503  0.12656868680E+02  0.38393950075E+02 -0.81797022756E+03  0.83704156701E+03  0.17300000000E+03 0. -1.
<mgrwt>
<rscale>  2 0.17766061E+03</rscale>
<asrwt>0</asrwt>
<pdfrwt beam="1">  1       21 0.39929699E-02 0.17766061E+03</pdfrwt>
<pdfrwt beam="2">  1       21 0.20124734E+00 0.17766061E+03</pdfrwt>
<totfact> 0.52321931E+04</totfact>
</mgrwt>
</event>
<event>
 4    2  0.3964208E+000  0.2142850E+03  0.7546771E-02  0.1138217E+00
         21   -1    0    0  503  502  0.00000000000E+00  0.00000000000E+00  0.36150248086E+02  0.36150248086E+02  0.00000000000E+00 0.  1.
         21   -1    0    0  501  503 -0.00000000000E+00 -0.00000000000E+00 -0.12952344290E+04  0.12952344290E+04  0.00000000000E+00 0. -1.
          6    1    1    2  501    0 -0.10353984990E+03 -0.72584796714E+02 -0.72208992636E+03  0.75321438846E+03  0.17300000000E+03 0. -1.
         -6    1    1    2    0  502  0.10353984990E+03  0.72584796714E+02 -0.53699425459E+03  0.57817028867E+03  0.17300000000E+03 0.  1.
<mgrwt>
<rscale>  2 0.21428498E+03</rscale>
<asrwt>0</asrwt>
<pdfrwt beam="1">  1       21 0.55615772E-02 0.21428498E+03</pdfrwt>
<pdfrwt beam="2">  1       21 0.19926681E+00 0.21428498E+03</pdfrwt>
<totfact> 0.30012486E+04</totfact>
</mgrwt>
</event>
<event>
 4    2  0.3964208E+000  0.1987459E+03  0.7546771E-02  0.1150801E+00
         21   -1    0    0  501  502  0.00000000000E+00  0.00000000000E+00  0.18675990818E+04  0.18675990818E+04  0.00000000000E+00 0. -1.
         21   -1    0    0  502  503 -0.00000000000E+00 -0.00000000000E+00 -0.55513605401E+02  0.55513605401E+02  0.00000000000E+00 0. -1.
          6    1    1    2  501    0 -0.77517593193E+02  0.59682035615E+02  0.16625684597E+04  0.16744055081E+04  0.17300000000E+03 0. -1.
         -6    1    1    2    0  503  0.77517593193E+02 -0.59682035615E+02  0.14951701677E+03  0.24870717910E+03  0.17300000000E+03 0. -1.
<mgrwt>
<rscale>  2 0.19874587E+03</rscale>
<asrwt>0</asrwt>
<pdfrwt beam="1">  1       21 0.28732289E+00 0.19874587E+03</pdfrwt>
<pdfrwt beam="2">  1       21 0.85405561E-02 0.19874587E+03</pdfrwt>
<totfact> 0.42937640E+03</totfact>
</mgrwt>
</event>
<event>
 4    2  0.3964208E+000  0.1889699E+03  0.7546771E-02  0.1159394E+00
         21   -1    0    0  501  502  0.00000000000E+00  0.00000000000E+00  0.92255333710E+02  0.92255333710E+02  0.00000000000E+00 0. -1.
         21   -1    0    0  502  503 -0.00000000000E+00 -0.00000000000E+00 -0.38774309774E+03  0.38774309774E+03  0.00000000000E+00 0. -1.
          6    1    1    2  501    0 -0.75920931380E+02  0.40794943325E+01 -0.13777328727E+03  0.23386130244E+03  0.17300000000E+03 0.  1.
         -6    1    1    2    0  503  0.75920931380E+02 -0.40794943325E+01 -0.15771447676E+03  0.24613712901E+03  0.17300000000E+03 0.  1.
<mgrwt>
<rscale>  2 0.18896992E+03</rscale>
<asrwt>0</asrwt>
<pdfrwt beam="1">  1       21 0.14193128E-01 0.18896992E+03</pdfrwt>
<pdfrwt beam="2">  1       21 0.59652784E-01 0.18896992E+03</pdfrwt>
<totfact> 0.11395396E+05</totfact>
</mgrwt>
</event>
<event>
 4    2  0.3964208E+000  0.1748889E+03  0.7546771E-02  0.1172843E+00
         21   -1    0    0  503  502  0.00000000000E+00  0.00000000000E+00  0.27391973360E+03  0.27391973360E+03  0.00000000000E+00 0.  1.
         21   -1    0    0  501  503 -0.00000000000E+00 -0.00000000000E+00 -0.11701489056E+03  0.11701489056E+03  0.00000000000E+00 0.  1.
          6    1    1    2  501    0  0.24613088317E+02  0.71636229092E+01  0.36641212383E+02  0.17868603766E+03  0.17300000000E+03 0.  1.
         -6    1    1    2    0  502 -0.24613088317E+02 -0.71636229092E+01  0.12026363066E+03  0.21224858649E+03  0.17300000000E+03 0.  1.
<mgrwt>
<rscale>  2 0.17488888E+03</rscale>
<asrwt>0</asrwt>
<pdfrwt beam="1">  1       21 0.42141497E-01 0.17488888E+03</pdfrwt>
<pdfrwt beam="2">  1       21 0.18002291E-01 0.17488888E+03</pdfrwt>
<totfact> 0.15298315E+05</totfact>
</mgrwt>
</event>
<event>
 4    2  0.3964208E+000  0.2575925E+03  0.7546771E-02  0.1108598E+00
         21   -1    0    0  503  502  0.00000000000E+00  0.00000000000E+00  0.31010784123E+03  0.31010784123E+03  0.00000000000E+00 0. -1.
         21   -1    0    0  501  503 -0.00000000000E+00 -0.00000000000E+00 -0.39882555257E+03  0.39882555257E+03  0.00000000000E+00 0. -1.
          6    1    1    2  501    0 -0.19032995375E+03 -0.14120480267E+02 -0.28568246094E+03  0.38466654098E+03  0.17300000000E+03 0. -1.
         -6    1    1    2    0  502  0.19032995375E+03  0.14120480267E+02  0.19696474960E+03  0.32426685282E+03  0.17300000000E+03 0. -1.
<mgrwt>
<rscale>  2 0.25759247E+03</rscale>
<asrwt>0</asrwt>
<pdfrwt beam="1">  1       21 0.47708899E-01 0.25759247E+03</pdfrwt>
<pdfrwt beam="2">  1       21 0.61357777E-01 0.25759247E+03</pdfrwt>
<totfact> 0.99679513E+03</totfact>
</mgrwt>
</event>
<event>
 4    2  0.3964208E+000  0.1924324E+03  0.7546771E-02  0.1156286E+00
         21   -1    0    0  503  502  0.00000000000E+00  0.00000000000E+00  0.74851168683E+03  0.74851168683E+03  0.00000000000E+00 0. -1.
         21   -1    0    0  501  503 -0.00000000000E+00 -0.00000000000E+00 -0.21150409256E+03  0.21150409256E+03  0.00000000000E+00 0. -1.
          6    1    1    2  501    0 -0.83107719167E+02  0.13940391029E+02 -0.15163207479E+03  0.24499492565E+03  0.17300000000E+03 0. -1.
         -6    1    1    2    0  502  0.83107719167E+02 -0.13940391029E+02  0.68863966906E+03  0.71502085375E+03  0.17300000000E+03 0. -1.
<mgrwt>
<rscale>  2 0.19243240E+03</rscale>
<asrwt>0</asrwt>
<pdfrwt beam="1">  1       21 0.11515564E+00 0.19243240E+03</pdfrwt>
<pdfrwt beam="2">  1       21 0.32539092E-01 0.19243240E+03</pdfrwt>
<totfact> 0.53121270E+03</totfact>
</mgrwt>
</event>
<event>
 4    2  0.3964208E+000  0.1798673E+03  0.7546771E-02  0.1167932E+00
         21   -1    0    0  501  502  0.00000000000E+00  0.00000000000E+00  0.82874066666E+02  0.82874066666E+02  0.00000000000E+00 0. -1.
         21   -1    0    0  502  503 -0.00000000000E+00 -0.00000000000E+00 -0.40526899969E+03  0.40526899969E+03  0.00000000000E+00 0. -1.
          6    1    1    2  501    0  0.45673688540E+01 -0.49014176862E+02 -0.20798182498E+03  0.27497034370E+03  0.17300000000E+03 0.  1.
         -6    1    1    2    0  503 -0.45673688540E+01  0.49014176862E+02 -0.11441310804E+03  0.21317272265E+03  0.17300000000E+03 0.  1.
<mgrwt>
<rscale>  2 0.17986731E+03</rscale>
<asrwt>0</asrwt>
<pdfrwt beam="1">  1       21 0.12749856E-01 0.17986731E+03</pdfrwt>
<pdfrwt beam="2">  1       21 0.62349077E-01 0.17986731E+03</pdfrwt>
<totfact> 0.12613711E+05</totfact>
</mgrwt>
</event>
<event>
 4    2  0.3964208E+000  0.2120325E+03  0.7546771E-02  0.1139966E+00
         21   -1    0    0  503  502  0.00000000000E+00  0.00000000000E+00  0.10797938201E+04  0.10797938201E+04  0.00000000000E+00 0. -1.
         21   -1    0    0  501  503 -0.00000000000E+00 -0.00000000000E+00 -0.76521739340E+02  0.76521739340E+02  0.00000000000E+00 0. -1.
          6    1    1    2  501    0 -0.11726683558E+03 -0.35739125340E+02  0.11126211330E+03  0.23945156851E+03  0.17300000000E+03 0. -1.
         -6    1    1    2    0  502  0.11726683558E+03  0.35739125340E+02  0.89200996744E+03  0.91686399090E+03  0.17300000000E+03 0. -1.
<mgrwt>
<rscale>  2 0.21203253E+03</rscale>
<asrwt>0</asrwt>
<pdfrwt beam="1">  1       21 0.16612212E+00 0.21203253E+03</pdfrwt>
<pdfrwt beam="2">  1       21 0.11772576E-01 0.21203253E+03</pdfrwt>
<totfact> 0.13609314E+04</totfact>
</mgrwt>
</event>
<event>
 4    2  0.3964208E+000  0.2823686E+03  0.7546771E-02  0.1094402E+00
         21   -1    0    0  501  502  0.00000000000E+00  0.00000000000E+00  0.78932151448E+03  0.78932151448E+03  0.00000000000E+00 0. -1.
         21   -1    0    0  502  503 -0.00000000000E+00 -0.00000000000E+00 -0.10951927677E+03  0.10951927677E+03  0.00000000000E+00 0. -1.
          6    1    1    2  501    0  0.96205511961E+02 -0.20136411284E+03  0.46514843867E+03  0.54414619034E+03  0.17300000000E+03 0. -1.
         -6    1    1    2    0  503 -0.96205511961E+02  0.20136411284E+03  0.21465379904E+03  0.35469460091E+03  0.17300000000E+03 0. -1.
<mgrwt>
<rscale>  2 0.28236856E+03</rscale>
<asrwt>0</asrwt>
<pdfrwt beam="1">  1       21 0.12143408E+00 0.28236856E+03</pdfrwt>
<pdfrwt beam="2">  1       21 0.16849120E-01 0.28236856E+03</pdfrwt>
<totfact> 0.15451383E+04</totfact>
</mgrwt>
</event>
<event>
 4    2  0.3964208E+000  0.1937551E+03  0.7546771E-02  0.1155117E+00
         21   -1    0    0  503  502  0.00000000000E+00  0.00000000000E+00  0.31575169475E+03  0.31575169475E+03  0.00000000000E+00 0. -1.
         21   -1    0    0  501  503 -0.00000000000E+00 -0.00000000000E+00 -0.18638914883E+03  0.18638914883E+03  0.00000000000E+00 0. -1.
          6    1    1    2  501    0  0.75884829973E+02 -0.43052674386E+02 -0.86403580029E+02  0.21214763452E+03  0.17300000000E+03 0. -1.
         -6    1    1    2    0  502 -0.75884829973E+02  0.43052674386E+02  0.21576612595E+03  0.28999320906E+03  0.17300000000E+03 0. -1.
<mgrwt>
<rscale>  2 0.19375510E+03</rscale>
<asrwt>0</asrwt>
<pdfrwt beam="1">  1       21 0.48577184E-01 0.19375510E+03</pdfrwt>
<pdfrwt beam="2">  1       21 0.28675254E-01 0.19375510E+03</pdfrwt>
<totfact> 0.47052631E+04</totfact>
</mgrwt>
</event>
<event>
 4    2  0.3964208E+000  0.2165474E+03  0.7546771E-02  0.1136484E+00
         21   -1    0    0  503  502  0.00000000000E+00  0.00000000000E+00  0.18194521872E+03  0.18194521872E+03  0.00000000000E+00 0.  1.
         21   -1    0    0  501  503 -0.00000000000E+00 -0.00000000000E+00 -0.25792215393E+03  0.25792215393E+03  0.00000000000E+00 0.  1.
          6    1    1    2  501    0  0.95163905835E+02 -0.88924614504E+02 -0.31986688586E+02  0.21889701753E+03  0.17300000000E+03 0.  1.
         -6    1    1    2    0  502 -0.95163905835E+02  0.88924614504E+02 -0.43990246626E+02  0.22097035511E+03  0.17300000000E+03 0.  1.
<mgrwt>
<rscale>  2 0.21654735E+03</rscale>
<asrwt>0</asrwt>
<pdfrwt beam="1">  1       21 0.27991572E-01 0.21654735E+03</pdfrwt>
<pdfrwt beam="2">  1       21 0.39680331E-01 0.21654735E+03</pdfrwt>
<totfact> 0.73866732E+04</totfact>
</mgrwt>
</event>
<event>
 4    2  0.3964208E+000  0.2551316E+03  0.7546771E-02  0.1110104E+00
         21   -1    0    0  503  502  0.00000000000E+00  0.00000000000E+00  0.36857126835E+03  0.36857126835E+03  0.00000000000E+00 0. -1.
         21   -1    0    0  501  503 -0.00000000000E+00 -0.00000000000E+00 -0.56828209870E+03  0.56828209870E+03  0.00000000000E+00 0. -1.
          6    1    1    2  501    0 -0.18221540331E+03  0.44279557851E+02 -0.48874187312E+03  0.55132635615E+03  0.17300000000E+03 0. -1.
         -6    1    1    2    0  502  0.18221540331E+03 -0.44279557851E+02  0.28903104277E+03  0.38552701090E+03  0.17300000000E+03 0. -1.
<mgrwt>
<rscale>  2 0.25513160E+03</rscale>
<asrwt>0</asrwt>
<pdfrwt beam="1">  1       21 0.56703272E-01 0.25513160E+03</pdfrwt>
<pdfrwt beam="2">  1       21 0.87428015E-01 0.25513160E+03</pdfrwt>
<totfact> 0.31337544E+03</totfact>
</mgrwt>
</event>
<event>
 4    2  0.3964208E+000  0.1765749E+03  0.7546771E-02  0.1171160E+00
         21   -1    0    0  501  502  0.00000000000E+00  0.00000000000E+00  0.15343519685E+03  0.15343519685E+03  0.00000000000E+00 0. -1.
         21   -1    0    0  502  503 -0.00000000000E+00 -0.00000000000E+00 -0.23618206724E+03  0.23618206724E+03  0.00000000000E+00 0. -1.
          6    1    1    2  501    0  0.14174197217E+02 -0.32385116287E+02  0.31420442136E+02  0.17934867663E+03  0.17300000000E+03 0. -1.
         -6    1    1    2    0  503 -0.14174197217E+02  0.32385116287E+02 -0.11416731253E+03  0.21026858746E+03  0.17300000000E+03 0. -1.
<mgrwt>
<rscale>  2 0.17657492E+03</rscale>
<asrwt>0</asrwt>
<pdfrwt beam="1">  1       21 0.23605415E-01 0.17657492E+03</pdfrwt>
<pdfrwt beam="2">  1       21 0.36335703E-01 0.17657492E+03</pdfrwt>
<totfact> 0.12410486E+05</totfact>
</mgrwt>
</event>
<event>
 4    2  0.3964208E+000  0.2007170E+03  0.7546771E-02  0.1149135E+00
         21   -1    0    0  501  502  0.00000000000E+00  0.00000000000E+00  0.36026449773E+02  0.36026449773E+02  0.00000000000E+00 0. -1.
         21   -1    0    0  502  503 -0.00000000000E+00 -0.00000000000E+00 -0.18147699834E+04  0.18147699834E+04  0.00000000000E+00 0. -1.
          6    1    1    2  501    0 -0.40397349957E+02  0.93415063917E+02 -0.31607666818E+03  0.37442192807E+03  0.17300000000E+03 0. -1.
         -6    1    1    2    0  503  0.40397349957E+02 -0.93415063917E+02 -0.14626668655E+04  0.14763745051E+04  0.17300000000E+03 0. -1.
<mgrwt>
<rscale>  2 0.20071701E+03</rscale>
<asrwt>0</asrwt>
<pdfrwt beam="1">  1       21 0.55425331E-02 0.20071701E+03</pdfrwt>
<pdfrwt beam="2">  1       21 0.27919526E+00 0.20071701E+03</pdfrwt>
<totfact> 0.10072956E+04</totfact>
</mgrwt>
</event>
<event>
 4    2  0.3964208E+000  0.1961841E+03  0.7546771E-02  0.1152999E+00
         21   -1    0    0  503  502  0.00000000000E+00  0.00000000000E+00  0.36906572853E+02  0.36906572853E+02  0.00000000000E+00 0.  1.
         21   -1    0    0  501  503 -0.00000000000E+00 -0.00000000000E+00 -0.12083594175E+04  0.12083594175E+04  0.00000000000E+00 0.  1.
          6    1    1    2  501    0  0.55793948468E+02 -0.73798658115E+02 -0.81615628914E+03  0.83940413087E+03  0.17300000000E+03 0. -1.
         -6    1    1    2    0  502 -0.55793948468E+02  0.73798658115E+02 -0.35529655552E+03  0.40586185949E+03  0.17300000000E+03 0. -1.
<mgrwt>
<rscale>  2 0.19618411E+03</rscale>
<asrwt>0</asrwt>
<pdfrwt beam="1">  1       21 0.56779341E-02 0.19618411E+03</pdfrwt>
<pdfrwt beam="2">  1       21 0.18590146E+00 0.19618411E+03</pdfrwt>
<totfact> 0.35892322E+04</totfact>
</mgrwt>
</event>
<event>
 4    2  0.3964208E+000  0.1735988E+03  0.7546771E-02  0.1174146E+00
         21   -1    0    0  501  502  0.00000000000E+00  0.00000000000E+00  0.36158149925E+02  0.36158149925E+02  0.00000000000E+00 0.  1.
         21   -1    0    0  502  503 -0.00000000000E+00 -0.00000000000E+00 -0.83671612947E+03  0.83671612947E+03  0.00000000000E+00 0.  1.
          6    1    1    2  501    0 -0.82645109782E+00  0.14382803554E+02 -0.42748455980E+03  0.46138876984E+03  0.17300000000E+03 0. -1.
         -6    1    1    2    0  503  0.82645109782E+00 -0.14382803554E+02 -0.37307341974E+03  0.41148550955E+03  0.17300000000E+03 0. -1.
<mgrwt>
<rscale>  2 0.17359881E+03</rscale>
<asrwt>0</asrwt>
<pdfrwt beam="1">  1       21 0.55627927E-02 0.17359881E+03</pdfrwt>
<pdfrwt beam="2">  1       21 0.12872555E+00 0.17359881E+03</pdfrwt>
<totfact> 0.10028328E+05</totfact>
</mgrwt>
</event>
<event>
 4    2  0.3964208E+000  0.2022180E+03  0.7546771E-02  0.1147881E+00
         21   -1    0    0  501  502  0.00000000000E+00  0.00000000000E+00  0.23206903256E+03  0.23206903256E+03  0.00000000000E+00 0. -1.
         21   -1    0    0  502  503 -0.00000000000E+00 -0.00000000000E+00 -0.34782638163E+03  0.34782638163E+03  0.00000000000E+00 0. -1.
          6    1    1    2  501    0  0.36114346006E+02  0.98279652447E+02  0.14578888942E+03  0.24929207037E+03  0.17300000000E+03 0. -1.
         -6    1    1    2    0  503 -0.36114346006E+02 -0.98279652447E+02 -0.26154623849E+03  0.33060334381E+03  0.17300000000E+03 0. -1.
<mgrwt>
<rscale>  2 0.20221804E+03</rscale>
<asrwt>0</asrwt>
<pdfrwt beam="1">  1       21 0.35702928E-01 0.20221804E+03</pdfrwt>
<pdfrwt beam="2">  1       21 0.53511751E-01 0.20221804E+03</pdfrwt>
<totfact> 0.24864579E+04</totfact>
</mgrwt>
</event>
<event>
 4    2  0.3964208E+000  0.2126444E+03  0.7546771E-02  0.1139489E+00
         21   -1    0    0  503  502  0.00000000000E+00  0.00000000000E+00  0.17634143203E+04  0.17634143203E+04  0.00000000000E+00 0.  1.
         21   -1    0    0  501  503 -0.00000000000E+00 -0.00000000000E+00 -0.33551447102E+02  0.33551447102E+02  0.00000000000E+00 0.  1.
          6    1    1    2  501    0 -0.12364725796E+03 -0.15900572991E-01  0.42869240188E+03  0.47853403231E+03  0.17300000000E+03 0.  1.
         -6    1    1    2    0  502  0.12364725796E+03  0.15900572991E-01  0.13011704713E+04  0.13184317350E+04  0.17300000000E+03 0.  1.
<mgrwt>
<rscale>  2 0.21264441E+03</rscale>
<asrwt>0</asrwt>
<pdfrwt beam="1">  1       21 0.27129444E+00 0.21264441E+03</pdfrwt>
<pdfrwt beam="2">  1       21 0.51617625E-02 0.21264441E+03</pdfrwt>
<totfact> 0.12494325E+04</totfact>
</mgrwt>
</event>
<event>
 4    2  0.3964208E+000  0.1837812E+03  0.7546771E-02  0.1164193E+00
         21   -1    0    0  501  502  0.00000000000E+00  0.00000000000E+00  0.57739911779E+02  0.57739911779E+02  0.00000000000E+00 0.  1.
         21   -1    0    0  502  503 -0.00000000000E+00 -0.00000000000E+00 -0.81058538858E+03  0.81058538858E+03  0.00000000000E+00 0.  1.
          6    1    1    2  501    0 -0.21861489819E+02  0.58039537409E+02 -0.14736366813E+03  0.23556647326E+03  0.17300000000E+03 0.  1.
         -6    1    1    2    0  503  0.21861489819E+02 -0.58039537409E+02 -0.60548180867E+03  0.63275882710E+03  0.17300000000E+03 0.  1.
<mgrwt>
<rscale>  2 0.18378115E+03</rscale>
<asrwt>0</asrwt>
<pdfrwt beam="1">  1       21 0.88830633E-02 0.18378115E+03</pdfrwt>
<pdfrwt beam="2">  1       21 0.12470545E+00 0.18378115E+03</pdfrwt>
<totfact> 0.48185079E+04</totfact>
</mgrwt>
</event>
<event>
 4    2  0.3964208E+000  0.1969376E+03  0.7546771E-02  0.1152349E+00
         21   -1    0    0  501  502  0.00000000000E+00  0.00000000000E+00  0.61607306790E+02  0.61607306790E+02  0.00000000000E+00 0. -1.
         21   -1    0    0  502  503 -0.00000000000E+00 -0.00000000000E+00 -0.62957454661E+03  0.62957454661E+03  0.00000000000E+00 0. -1.
          6    1    1    2  501    0  0.77686137359E+02  0.53106360993E+02 -0.28152021619E+03  0.34356666550E+03  0.17300000000E+03 0. -1.
         -6    1    1    2    0  503 -0.77686137359E+02 -0.53106360993E+02 -0.28644702363E+03  0.34761518791E+03  0.17300000000E+03 0. -1.
<mgrwt>
<rscale>  2 0.19693761E+03</rscale>
<asrwt>0</asrwt>
<pdfrwt beam="1">  1       21 0.94780476E-02 0.19693761E+03</pdfrwt>
<pdfrwt beam="2">  1       21 0.96857619E-01 0.19693761E+03</pdfrwt>
<totfact> 0.78798104E+04</totfact>
</mgrwt>
</event>
<event>
 4    2  0.3964208E+000  0.1893875E+03  0.7546771E-02  0.1159015E+00
         21   -1    0    0  503  502  0.00000000000E+00  0.00000000000E+00  0.45824148558E+03  0.45824148558E+03  0.00000000000E+00 0.  1.
         21   -1    0    0  501  503 -0.00000000000E+00 -0.00000000000E+00 -0.23521386442E+03  0.23521386442E+03  0.00000000000E+00 0.  1.
          6    1    1    2  501    0 -0.75979670111E+02 -0.12873736135E+02 -0.17170751560E+03  0.25563864001E+03  0.17300000000E+03 0.  1.
         -6    1    1    2    0  502  0.75979670111E+02  0.12873736135E+02  0.39473513676E+03  0.43781670999E+03  0.17300000000E+03 0.  1.
<mgrwt>
<rscale>  2 0.18938755E+03</rscale>
<asrwt>0</asrwt>
<pdfrwt beam="1">  1       21 0.70498690E-01 0.18938755E+03</pdfrwt>
<pdfrwt beam="2">  1       21 0.36186749E-01 0.18938755E+03</pdfrwt>
<totfact> 0.13462238E+04</totfact>
</mgrwt>
</event>
<event>
 4    2  0.3964208E+000  0.2435727E+03  0.7546771E-02  0.1117435E+00
         21   -1    0    0  501  502  0.00000000000E+00  0.00000000000E+00  0.98294748825E+02  0.98294748825E+02  0.00000000000E+00 0. -1.
         21   -1    0    0  502  503 -0.00000000000E+00 -0.00000000000E+00 -0.92273681985E+03  0.92273681985E+03  0.00000000000E+00 0. -1.
          6    1    1    2  501    0 -0.17142345125E+03  0.35561287262E+01 -0.11197317656E+03  0.26807767150E+03  0.17300000000E+03 0. -1.
         -6    1    1    2    0  503  0.17142345125E+03 -0.35561287262E+01 -0.71246889446E+03  0.75295389717E+03  0.17300000000E+03 0. -1.
<mgrwt>
<rscale>  2 0.24357267E+03</rscale>
<asrwt>0</asrwt>
<pdfrwt beam="1">  1       21 0.15122268E-01 0.24357267E+03</pdfrwt>
<pdfrwt beam="2">  1       21 0.14195952E+00 0.24357267E+03</pdfrwt>
<totfact> 0.12903272E+04</totfact>
</mgrwt>
</event>
<event>
 4    2  0.3964208E+000  0.1955613E+03  0.7546771E-02  0.1153539E+00
         21   -1    0    0  501  502  0.00000000000E+00  0.00000000000E+00  0.20141722911E+03  0.20141722911E+03  0.00000000000E+00 0. -1.
         21   -1    0    0  502  503 -0.00000000000E+00 -0.00000000000E+00 -0.19017832320E+03  0.19017832320E+03  0.00000000000E+00 0.  1.
          6    1    1    2  501    0  0.35926848062E+02 -0.83812174345E+02  0.13431122389E+02  0.19602197333E+03  0.17300000000E+03 0. -1.
         -6    1    1    2    0  503 -0.35926848062E+02  0.83812174345E+02 -0.21922164837E+01  0.19557357898E+03  0.17300000000E+03 0.  1.
<mgrwt>
<rscale>  2 0.19556129E+03</rscale>
<asrwt>0</asrwt>
<pdfrwt beam="1">  1       21 0.30987266E-01 0.19556129E+03</pdfrwt>
<pdfrwt beam="2">  1       21 0.29258204E-01 0.19556129E+03</pdfrwt>
<totfact> 0.11179885E+05</totfact>
</mgrwt>
</event>
<event>
 4    2  0.3964208E+000  0.2048252E+03  0.7546771E-02  0.1145731E+00
         21   -1    0    0  501  502  0.00000000000E+00  0.00000000000E+00  0.14276488276E+04  0.14276488276E+04  0.00000000000E+00 0. -1.
         21   -1    0    0  502  503 -0.00000000000E+00 -0.00000000000E+00 -0.29515533346E+02  0.29515533346E+02  0.00000000000E+00 0.  1.
          6    1    1    2  501    0  0.14884268404E+02 -0.10864085331E+03  0.74726922168E+03  0.77483202446E+03  0.17300000000E+03 0.  1.
         -6    1    1    2    0  503 -0.14884268404E+02  0.10864085331E+03  0.65086407262E+03  0.68233233653E+03  0.17300000000E+03 0.  1.
<mgrwt>
<rscale>  2 0.20482523E+03</rscale>
<asrwt>0</asrwt>
<pdfrwt beam="1">  1       21 0.21963823E+00 0.20482523E+03</pdfrwt>
<pdfrwt beam="2">  1       21 0.45408524E-02 0.20482523E+03</pdfrwt>
<totfact> 0.31722917E+04</totfact>
</mgrwt>
</event>
<event>
 4    2  0.3964208E+000  0.1785137E+03  0.7546771E-02  0.1169249E+00
         21   -1    0    0  503  502  0.00000000000E+00  0.00000000000E+00  0.88011282598E+02  0.88011282598E+02  0.00000000000E+00 0.  1.
         21   -1    0    0  501  503 -0.00000000000E+00 -0.00000000000E+00 -0.50675540294E+03  0.50675540294E+03  0.00000000000E+00 0. -1.
          6    1    1    2  501    0  0.28841465789E+01  0.43929825628E+02 -0.36826858849E+03  0.40925407896E+03  0.17300000000E+03 0. -1.
         -6    1    1    2    0  502 -0.28841465789E+01 -0.43929825628E+02 -0.50475531852E+02  0.18551260657E+03  0.17300000000E+03 0.  1.
<mgrwt>
<rscale>  2 0.17851372E+03</rscale>
<asrwt>0</asrwt>
<pdfrwt beam="1">  1       21 0.13540197E-01 0.17851372E+03</pdfrwt>
<pdfrwt beam="2">  1       21 0.77962369E-01 0.17851372E+03</pdfrwt>
<totfact> 0.69283195E+04</totfact>
</mgrwt>
</event>
<event>
 4    2  0.3964208E+000  0.1755208E+03  0.7546771E-02  0.1172210E+00
         21   -1    0    0  503  502  0.00000000000E+00  0.00000000000E+00  0.99325063871E+02  0.99325063871E+02  0.00000000000E+00 0.  1.
         21   -1    0    0  501  503 -0.00000000000E+00 -0.00000000000E+00 -0.33390818411E+03  0.33390818411E+03  0.00000000000E+00 0.  1.
          6    1    1    2  501    0  0.63088180584E+01 -0.28960956831E+02 -0.17504964170E+03  0.24789093421E+03  0.17300000000E+03 0.  1.
         -6    1    1    2    0  502 -0.63088180584E+01  0.28960956831E+02 -0.59533478538E+02  0.18534231377E+03  0.17300000000E+03 0.  1.
<mgrwt>
<rscale>  2 0.17552076E+03</rscale>
<asrwt>0</asrwt>
<pdfrwt beam="1">  1       21 0.15280779E-01 0.17552076E+03</pdfrwt>
<pdfrwt beam="2">  1       21 0.51370490E-01 0.17552076E+03</pdfrwt>
<totfact> 0.13737033E+05</totfact>
</mgrwt>
</event>
<event>
 4    2  0.3964208E+000  0.1768697E+03  0.7546771E-02  0.1170867E+00
         21   -1    0    0  501  502  0.00000000000E+00  0.00000000000E+00  0.25691802597E+03  0.25691802597E+03  0.00000000000E+00 0.  1.
         21   -1    0    0  502  503 -0.00000000000E+00 -0.00000000000E+00 -0.36907852704E+03  0.36907852704E+03  0.00000000000E+00 0.  1.
          6    1    1    2  501    0  0.22258714483E+02 -0.29299391089E+02  0.20013734348E+03  0.26709148422E+03  0.17300000000E+03 0.  1.
         -6    1    1    2    0  503 -0.22258714483E+02  0.29299391089E+02 -0.31229784456E+03  0.35890506879E+03  0.17300000000E+03 0.  1.
<mgrwt>
<rscale>  2 0.17686974E+03</rscale>
<asrwt>0</asrwt>
<pdfrwt beam="1">  1       21 0.39525850E-01 0.17686974E+03</pdfrwt>
<pdfrwt beam="2">  1       21 0.56781312E-01 0.17686974E+03</pdfrwt>
<totfact> 0.18163489E+04</totfact>
</mgrwt>
</event>
<event>
 4    2  0.3964208E+000  0.3561084E+03  0.7546771E-02  0.1060135E+00
         21   -1    0    0  501  502  0.00000000000E+00  0.00000000000E+00  0.15490005576E+04  0.15490005576E+04  0.00000000000E+00 0.  1.
         21   -1    0    0  502  503 -0.00000000000E+00 -0.00000000000E+00 -0.10908918554E+03  0.10908918554E+03  0.00000000000E+00 0.  1.
          6    1    1    2  501    0 -0.30620016951E+03  0.55907509756E+02  0.11340913993E+04  0.11886868787E+04  0.17300000000E+03 0.  1.
         -6    1    1    2    0  503  0.30620016951E+03 -0.55907509756E+02  0.30581997269E+03  0.46940286444E+03  0.17300000000E+03 0.  1.
<mgrwt>
<rscale>  2 0.35610840E+03</rscale>
<asrwt>0</asrwt>
<pdfrwt beam="1">  1       21 0.23830776E+00 0.35610840E+03</pdfrwt>
<pdfrwt beam="2">  1       21 0.16782953E-01 0.35610840E+03</pdfrwt>
<totfact> 0.21853507E+03</totfact>
</mgrwt>
</event>
<event>
 4    2  0.3964208E+000  0.1829670E+03  0.7546771E-02  0.1164962E+00
         21   -1    0    0  501  502  0.00000000000E+00  0.00000000000E+00  0.64521067690E+03  0.64521067690E+03  0.00000000000E+00 0.  1.
         21   -1    0    0  502  503 -0.00000000000E+00 -0.00000000000E+00 -0.15286261165E+03  0.15286261165E+03  0.00000000000E+00 0. -1.
          6    1    1    2  501    0  0.50073178187E+02 -0.32258229882E+02  0.57049434819E+03  0.59911661460E+03  0.17300000000E+03 0.  1.
         -6    1    1    2    0  503 -0.50073178187E+02  0.32258229882E+02 -0.78146282945E+02  0.19895667394E+03  0.17300000000E+03 0. -1.
<mgrwt>
<rscale>  2 0.18296698E+03</rscale>
<asrwt>0</asrwt>
<pdfrwt beam="1">  1       21 0.99263180E-01 0.18296698E+03</pdfrwt>
<pdfrwt beam="2">  1       21 0.23517325E-01 0.18296698E+03</pdfrwt>
<totfact> 0.14307193E+04</totfact>
</mgrwt>
</event>
<event>
 4    2  0.3964208E+000  0.1818611E+03  0.7546771E-02  0.1166014E+00
         21   -1    0    0  503  502  0.00000000000E+00  0.00000000000E+00  0.85891162804E+02  0.85891162804E+02  0.00000000000E+00 0.  1.
         21   -1    0    0  501  503 -0.00000000000E+00 -0.00000000000E+00 -0.38776492403E+03  0.38776492403E+03  0.00000000000E+00 0.  1.
          6    1    1    2  501    0 -0.54702039259E+02 -0.12334869411E+02 -0.17070790376E+03  0.24942864813E+03  0.17300000000E+03 0.  1.
         -6    1    1    2    0  502  0.54702039259E+02  0.12334869411E+02 -0.13116585746E+03  0.22422743870E+03  0.17300000000E+03 0.  1.
<mgrwt>
<rscale>  2 0.18186111E+03</rscale>
<asrwt>0</asrwt>
<pdfrwt beam="1">  1       21 0.13214025E-01 0.18186111E+03</pdfrwt>
<pdfrwt beam="2">  1       21 0.59656142E-01 0.18186111E+03</pdfrwt>
<totfact> 0.12996844E+05</totfact>
</mgrwt>
</event>
<event>
 4    2  0.3964208E+000  0.2151204E+03  0.7546771E-02  0.1137574E+00
         21   -1    0    0  501  502  0.00000000000E+00  0.00000000000E+00  0.34579735800E+03  0.34579735800E+03  0.00000000000E+00 0. -1.
         21   -1    0    0  502  503 -0.00000000000E+00 -0.00000000000E+00 -0.19805485780E+03  0.19805485780E+03  0.00000000000E+00 0. -1.
          6    1    1    2  501    0 -0.12696808076E+03  0.15063427963E+02  0.22872511617E+03  0.31399359733E+03  0.17300000000E+03 0. -1.
         -6    1    1    2    0  503  0.12696808076E+03 -0.15063427963E+02 -0.80982615974E+02  0.22985861847E+03  0.17300000000E+03 0. -1.
<mgrwt>
<rscale>  2 0.21512043E+03</rscale>
<asrwt>0</asrwt>
<pdfrwt beam="1">  1       21 0.53199593E-01 0.21512043E+03</pdfrwt>
<pdfrwt beam="2">  1       21 0.30469978E-01 0.21512043E+03</pdfrwt>
<totfact> 0.34186511E+04</totfact>
</mgrwt>
</event>
<event>
 4    2  0.3964208E+000  0.2295334E+03  0.7546771E-02  0.1126969E+00
         21   -1    0    0  503  502  0.00000000000E+00  0.00000000000E+00  0.54837157011E+03  0.54837157011E+03  0.00000000000E+00 0. -1.
         21   -1    0    0  501  503 -0.00000000000E+00 -0.00000000000E+00 -0.15417223079E+03  0.15417223079E+03  0.00000000000E+00 0. -1.
          6    1    1    2  501    0  0.13627977600E+03 -0.64686980355E+02 -0.18532078243E+02  0.23028030897E+03  0.17300000000E+03 0. -1.
         -6    1    1    2    0  502 -0.13627977600E+03  0.64686980355E+02  0.41273141756E+03  0.47226349194E+03  0.17300000000E+03 0. -1.
<mgrwt>
<rscale>  2 0.22953340E+03</rscale>
<asrwt>0</asrwt>
<pdfrwt beam="1">  1       21 0.84364856E-01 0.22953340E+03</pdfrwt>
<pdfrwt beam="2">  1       21 0.23718805E-01 0.22953340E+03</pdfrwt>
<totfact> 0.19976004E+04</totfact>
</mgrwt>
</event>
<event>
 4    2  0.3964208E+000  0.1882069E+03  0.7546771E-02  0.1160089E+00
         21   -1    0    0  501  502  0.00000000000E+00  0.00000000000E+00  0.16278365979E+03  0.16278365979E+03  0.00000000000E+00 0. -1.
         21   -1    0    0  502  503 -0.00000000000E+00 -0.00000000000E+00 -0.33394287657E+03  0.33394287657E+03  0.00000000000E+00 0. -1.
          6    1    1    2  501    0 -0.13355195159E+02  0.72900566987E+02  0.61015570448E+02  0.19785033167E+03  0.17300000000E+03 0. -1.
         -6    1    1    2    0  503  0.13355195159E+02 -0.72900566987E+02 -0.23217478723E+03  0.29887620469E+03  0.17300000000E+03 0. -1.
<mgrwt>
<rscale>  2 0.18820694E+03</rscale>
<asrwt>0</asrwt>
<pdfrwt beam="1">  1       21 0.25043640E-01 0.18820694E+03</pdfrwt>
<pdfrwt beam="2">  1       21 0.51375827E-01 0.18820694E+03</pdfrwt>
<totfact> 0.54463204E+04</totfact>
</mgrwt>
</event>
<event>
 4    2  0.3964208E+000  0.1784702E+03  0.7546771E-02  0.1169292E+00
         21   -1    0    0  501  502  0.00000000000E+00  0.00000000000E+00  0.60928901545E+03  0.60928901545E+03  0.00000000000E+00 0.  1.
         21   -1    0    0  502  503 -0.00000000000E+00 -0.00000000000E+00 -0.62577465459E+02  0.62577465459E+02  0.00000000000E+00 0.  1.
          6    1    1    2  501    0 -0.35438768754E+02  0.25820824507E+02  0.40965038041E+03  0.44683895923E+03  0.17300000000E+03 0.  1.
         -6    1    1    2    0  503  0.35438768754E+02 -0.25820824507E+02  0.13706116958E+03  0.22502752168E+03  0.17300000000E+03 0.  1.
<mgrwt>
<rscale>  2 0.17847023E+03</rscale>
<asrwt>0</asrwt>
<pdfrwt beam="1">  1       21 0.93736767E-01 0.17847023E+03</pdfrwt>
<pdfrwt beam="2">  1       21 0.96273028E-02 0.17847023E+03</pdfrwt>
<totfact> 0.83440359E+04</totfact>
</mgrwt>
</event>
<event>
 4    2  0.3964208E+000  0.3031570E+03  0.7546771E-02  0.1083673E+00
         21   -1    0    0  503  502  0.00000000000E+00  0.00000000000E+00  0.61640537240E+03  0.61640537240E+03  0.00000000000E+00 0. -1.
         21   -1    0    0  501  503 -0.00000000000E+00 -0.00000000000E+00 -0.26102934737E+03  0.26102934737E+03  0.00000000000E+00 0. -1.
          6    1    1    2  501    0  0.48508165354E+02 -0.24417646632E+03 -0.10960030510E+03  0.32236069191E+03  0.17300000000E+03 0. -1.
         -6    1    1    2    0  502 -0.48508165354E+02  0.24417646632E+03  0.46497633013E+03  0.55507402785E+03  0.17300000000E+03 0. -1.
<mgrwt>
<rscale>  2 0.30315704E+03</rscale>
<asrwt>0</asrwt>
<pdfrwt beam="1">  1       21 0.94831596E-01 0.30315704E+03</pdfrwt>
<pdfrwt beam="2">  1       21 0.40158361E-01 0.30315704E+03</pdfrwt>
<totfact> 0.51828860E+03</totfact>
</mgrwt>
</event>
<event>
 4    2  0.3964208E+000  0.2263850E+03  0.7546771E-02  0.1129210E+00
         21   -1    0    0  501  502  0.00000000000E+00  0.00000000000E+00  0.17715198114E+04  0.17715198114E+04  0.00000000000E+00 0. -1.
         21   -1    0    0  502  503 -0.00000000000E+00 -0.00000000000E+00 -0.31264512916E+02  0.31264512916E+02  0.00000000000E+00 0. -1.
          6    1    1    2  501    0  0.12288273372E+03 -0.78873426130E+02  0.11164365025E+04  0.11391578678E+04  0.17300000000E+03 0. -1.
         -6    1    1    2    0  503 -0.12288273372E+03  0.78873426130E+02  0.62381879594E+03  0.66362645650E+03  0.17300000000E+03 0. -1.
<mgrwt>
<rscale>  2 0.22638503E+03</rscale>
<asrwt>0</asrwt>
<pdfrwt beam="1">  1       21 0.27254143E+00 0.22638503E+03</pdfrwt>
<pdfrwt beam="2">  1       21 0.48099265E-02 0.22638503E+03</pdfrwt>
<totfact> 0.13685484E+04</totfact>
</mgrwt>
</event>
<event>
 4    2  0.3964208E+000  0.2072144E+03  0.7546771E-02  0.1143791E+00
         21   -1    0    0  501  502  0.00000000000E+00  0.00000000000E+00  0.18586382070E+03  0.18586382070E+03  0.00000000000E+00 0.  1.
         21   -1    0    0  502  503 -0.00000000000E+00 -0.00000000000E+00 -0.32772410386E+03  0.32772410386E+03  0.00000000000E+00 0.  1.
          6    1    1    2  501    0 -0.84345840955E+01 -0.11374390046E+03  0.68564786580E+02  0.21826348082E+03  0.17300000000E+03 0.  1.
         -6    1    1    2    0  503  0.84345840955E+01  0.11374390046E+03 -0.21042506974E+03  0.29532444375E+03  0.17300000000E+03 0.  1.
<mgrwt>
<rscale>  2 0.20721442E+03</rscale>
<asrwt>0</asrwt>
<pdfrwt beam="1">  1       21 0.28594434E-01 0.20721442E+03</pdfrwt>
<pdfrwt beam="2">  1       21 0.50419093E-01 0.20721442E+03</pdfrwt>
<totfact> 0.43484710E+04</totfact>
</mgrwt>
</event>
<event>
 4    2  0.3964208E+000  0.2476935E+03  0.7546771E-02  0.1114771E+00
         21   -1    0    0  501  502  0.00000000000E+00  0.00000000000E+00  0.32468178434E+03  0.32468178434E+03  0.00000000000E+00 0. -1.
         21   -1    0    0  502  503 -0.00000000000E+00 -0.00000000000E+00 -0.25089421998E+03  0.25089421998E+03  0.00000000000E+00 0.  1.
          6    1    1    2  501    0 -0.15327969113E+03 -0.89041695471E+02  0.17987873817E+03  0.30611835569E+03  0.17300000000E+03 0. -1.
         -6    1    1    2    0  503  0.15327969113E+03  0.89041695471E+02 -0.10609117381E+03  0.26945764863E+03  0.17300000000E+03 0.  1.
<mgrwt>
<rscale>  2 0.24769353E+03</rscale>
<asrwt>0</asrwt>
<pdfrwt beam="1">  1       21 0.49951044E-01 0.24769353E+03</pdfrwt>
<pdfrwt beam="2">  1       21 0.38599111E-01 0.24769353E+03</pdfrwt>
<totfact> 0.24004983E+04</totfact>
</mgrwt>
</event>
<event>
 4    2  0.3964208E+000  0.1950363E+03  0.7546771E-02  0.1153996E+00
         21   -1    0    0  501  502  0.00000000000E+00  0.00000000000E+00  0.48982986962E+03  0.48982986962E+03  0.00000000000E+00 0. -1.
         21   -1    0    0  502  503 -0.00000000000E+00 -0.00000000000E+00 -0.78690492433E+02  0.78690492433E+02  0.00000000000E+00 0. -1.
          6    1    1    2  501    0  0.53690134280E+02 -0.72301511262E+02  0.17300642354E+03  0.26071126105E+03  0.17300000000E+03 0. -1.
         -6    1    1    2    0  503 -0.53690134280E+02  0.72301511262E+02  0.23813295364E+03  0.30780910100E+03  0.17300000000E+03 0. -1.
<mgrwt>
<rscale>  2 0.19503625E+03</rscale>
<asrwt>0</asrwt>
<pdfrwt beam="1">  1       21 0.75358440E-01 0.19503625E+03</pdfrwt>
<pdfrwt beam="2">  1       21 0.12106230E-01 0.19503625E+03</pdfrwt>
<totfact> 0.90778450E+04</totfact>
</mgrwt>
</event>
<event>
 4    2  0.3964208E+000  0.2016346E+03  0.7546771E-02  0.1148367E+00
         21   -1    0    0  503  502  0.00000000000E+00  0.00000000000E+00  0.10199351310E+04  0.10199351310E+04  0.00000000000E+00 0.  1.
         21   -1    0    0  501  503 -0.00000000000E+00 -0.00000000000E+00 -0.98534365274E+02  0.98534365274E+02  0.00000000000E+00 0.  1.
          6    1    1    2  501    0 -0.61900140882E+02 -0.83041471213E+02  0.29163822127E+02  0.20373277081E+03  0.17300000000E+03 0.  1.
         -6    1    1    2    0  502  0.61900140882E+02  0.83041471213E+02  0.89223694360E+03  0.91473672546E+03  0.17300000000E+03 0.  1.
<mgrwt>
<rscale>  2 0.20163460E+03</rscale>
<asrwt>0</asrwt>
<pdfrwt beam="1">  1       21 0.15691309E+00 0.20163460E+03</pdfrwt>
<pdfrwt beam="2">  1       21 0.15159134E-01 0.20163460E+03</pdfrwt>
<totfact> 0.10136599E+04</totfact>
</mgrwt>
</event>
<event>
 4    2  0.3964208E+000  0.1850057E+03  0.7546771E-02  0.1163045E+00
         21   -1    0    0  503  502  0.00000000000E+00  0.00000000000E+00  0.33956983390E+03  0.33956983390E+03  0.00000000000E+00 0.  1.
         21   -1    0    0  501  503 -0.00000000000E+00 -0.00000000000E+00 -0.16660846196E+03  0.16660846196E+03  0.00000000000E+00 0.  1.
          6    1    1    2  501    0 -0.58590626740E+02  0.29415248870E+02 -0.72586516974E+02  0.19873580667E+03  0.17300000000E+03 0.  1.
         -6    1    1    2    0  502  0.58590626740E+02 -0.29415248870E+02  0.24554788891E+03  0.30744248919E+03  0.17300000000E+03 0.  1.
<mgrwt>
<rscale>  2 0.18500573E+03</rscale>
<asrwt>0</asrwt>
<pdfrwt beam="1">  1       21 0.52241513E-01 0.18500573E+03</pdfrwt>
<pdfrwt beam="2">  1       21 0.25632071E-01 0.18500573E+03</pdfrwt>
<totfact> 0.50381924E+04</totfact>
</mgrwt>
</event>
<event>
 4    2  0.3964208E+000  0.2063785E+03  0.7546771E-02  0.1144466E+00
         21   -1    0    0  503  502  0.00000000000E+00  0.00000000000E+00  0.19380881229E+03  0.19380881229E+03  0.00000000000E+00 0. -1.
         21   -1    0    0  501  503 -0.00000000000E+00 -0.00000000000E+00 -0.42376301886E+03  0.42376301886E+03  0.00000000000E+00 0. -1.
          6    1    1    2  501    0 -0.42137549628E+02 -0.10434315915E+03 -0.32922211534E+03  0.38856050903E+03  0.17300000000E+03 0. -1.
         -6    1    1    2    0  502  0.42137549628E+02  0.10434315915E+03  0.99267908768E+02  0.22901132212E+03  0.17300000000E+03 0. -1.
<mgrwt>
<rscale>  2 0.20637846E+03</rscale>
<asrwt>0</asrwt>
<pdfrwt beam="1">  1       21 0.29816741E-01 0.20637846E+03</pdfrwt>
<pdfrwt beam="2">  1       21 0.65194310E-01 0.20637846E+03</pdfrwt>
<totfact> 0.23165613E+04</totfact>
</mgrwt>
</event>
<event>
 4    2  0.3964208E+000  0.2483662E+03  0.7546771E-02  0.1114342E+00
         21   -1    0    0  501  502  0.00000000000E+00  0.00000000000E+00  0.74814496160E+03  0.74814496160E+03  0.00000000000E+00 0. -1.
         21   -1    0    0  502  503 -0.00000000000E+00 -0.00000000000E+00 -0.22929044773E+03  0.22929044773E+03  0.00000000000E+00 0.  1.
          6    1    1    2  501    0  0.10104015994E+03 -0.14679127185E+03  0.65052516372E+03  0.69632519705E+03  0.17300000000E+03 0. -1.
         -6    1    1    2    0  503 -0.10104015994E+03  0.14679127185E+03 -0.13167064986E+03  0.28111021228E+03  0.17300000000E+03 0.  1.
<mgrwt>
<rscale>  2 0.24836624E+03</rscale>
<asrwt>0</asrwt>
<pdfrwt beam="1">  1       21 0.11509922E+00 0.24836624E+03</pdfrwt>
<pdfrwt beam="2">  1       21 0.35275454E-01 0.24836624E+03</pdfrwt>
<totfact> 0.43493221E+03</totfact>
</mgrwt>
</event>
<event>
 4    2  0.3964208E+000  0.1767342E+03  0.7546771E-02  0.1171002E+00
         21   -1    0    0  501  502  0.00000000000E+00  0.00000000000E+00  0.32960701796E+02  0.32960701796E+02  0.00000000000E+00 0.  1.
         21   -1    0    0  502  503 -0.00000000000E+00 -0.00000000000E+00 -0.11483542958E+04  0.11483542958E+04  0.00000000000E+00 0.  1.
          6    1    1    2  501    0  0.24953870899E+02 -0.26139557455E+02 -0.31076109602E+03  0.35750165165E+03  0.17300000000E+03 0.  1.
         -6    1    1    2    0  503 -0.24953870899E+02  0.26139557455E+02 -0.80463249798E+03  0.82381334593E+03  0.17300000000E+03 0.  1.
<mgrwt>
<rscale>  2 0.17673418E+03</rscale>
<asrwt>0</asrwt>
<pdfrwt beam="1">  1       21 0.50708765E-02 0.17673418E+03</pdfrwt>
<pdfrwt beam="2">  1       21 0.17666991E+00 0.17673418E+03</pdfrwt>
<totfact> 0.50859220E+04</totfact>
</mgrwt>
</event>
<event>
 4    2  0.3964208E+000  0.1743389E+03  0.7546771E-02  0.1173397E+00
         21   -1    0    0  501  502  0.00000000000E+00  0.00000000000E+00  0.17735699936E+03  0.17735699936E+03  0.00000000000E+00 0.  1.
         21   -1    0    0  502  503 -0.00000000000E+00 -0.00000000000E+00 -0.35051456905E+03  0.35051456905E+03  0.00000000000E+00 0.  1.
          6    1    1    2  501    0  0.20697204497E+02 -0.60560860863E+01  0.10210929052E+03  0.20204048521E+03  0.17300000000E+03 0.  1.
         -6    1    1    2    0  503 -0.20697204497E+02  0.60560860863E+01 -0.27526686021E+03  0.32583108321E+03  0.17300000000E+03 0.  1.
<mgrwt>
<rscale>  2 0.17433890E+03</rscale>
<asrwt>0</asrwt>
<pdfrwt beam="1">  1       21 0.27285692E-01 0.17433890E+03</pdfrwt>
<pdfrwt beam="2">  1       21 0.53925318E-01 0.17433890E+03</pdfrwt>
<totfact> 0.42031989E+04</totfact>
</mgrwt>
</event>
<event>
 4    2  0.3964208E+000  0.1781814E+03  0.7546771E-02  0.1169575E+00
         21   -1    0    0  503  502  0.00000000000E+00  0.00000000000E+00  0.16019167199E+04  0.16019167199E+04  0.00000000000E+00 0. -1.
         21   -1    0    0  501  503 -0.00000000000E+00 -0.00000000000E+00 -0.29077831938E+02  0.29077831938E+02  0.00000000000E+00 0. -1.
          6    1    1    2  501    0  0.67168435847E+01  0.42124830258E+02  0.12465872581E+04  0.12592570862E+04  0.17300000000E+03 0. -1.
         -6    1    1    2    0  502 -0.67168435847E+01 -0.42124830258E+02  0.32625162994E+03  0.37173746563E+03  0.17300000000E+03 0. -1.
<mgrwt>
<rscale>  2 0.17818142E+03</rscale>
<asrwt>0</asrwt>
<pdfrwt beam="1">  1       21 0.24644866E+00 0.17818142E+03</pdfrwt>
<pdfrwt beam="2">  1       21 0.44735139E-02 0.17818142E+03</pdfrwt>
<totfact> 0.22941589E+04</totfact>
</mgrwt>
</event>
<event>
 4    2  0.3964208E+000  0.1758221E+03  0.7546771E-02  0.1171909E+00
         21   -1    0    0  503  502  0.00000000000E+00  0.00000000000E+00  0.54539578803E+03  0.54539578803E+03  0.00000000000E+00 0.  1.
         21   -1    0    0  501  503 -0.00000000000E+00 -0.00000000000E+00 -0.64635234306E+02  0.64635234306E+02  0.00000000000E+00 0.  1.
          6    1    1    2  501    0  0.27197507437E+02 -0.15643023061E+02  0.13337752062E+03  0.22068749758E+03  0.17300000000E+03 0.  1.
         -6    1    1    2    0  502 -0.27197507437E+02  0.15643023061E+02  0.34738303310E+03  0.38934352475E+03  0.17300000000E+03 0.  1.
<mgrwt>
<rscale>  2 0.17582209E+03</rscale>
<asrwt>0</asrwt>
<pdfrwt beam="1">  1       21 0.83907041E-01 0.17582209E+03</pdfrwt>
<pdfrwt beam="2">  1       21 0.99438826E-02 0.17582209E+03</pdfrwt>
<totfact> 0.10183033E+05</totfact>
</mgrwt>
</event>
<event>
 4    2  0.3964208E+000  0.3986182E+03  0.7546771E-02  0.1044259E+00
         21   -1    0    0  503  502  0.00000000000E+00  0.00000000000E+00  0.16158419608E+04  0.16158419608E+04  0.00000000000E+00 0. -1.
         21   -1    0    0  501  503 -0.00000000000E+00 -0.00000000000E+00 -0.10080894840E+03  0.10080894840E+03  0.00000000000E+00 0. -1.
          6    1    1    2  501    0 -0.10200500985E+03 -0.34432897515E+03  0.89193344218E+03  0.97695533697E+03  0.17300000000E+03 0. -1.
         -6    1    1    2    0  502  0.10200500985E+03  0.34432897515E+03  0.62309957018E+03  0.73969557219E+03  0.17300000000E+03 0. -1.
<mgrwt>
<rscale>  2 0.39861819E+03</rscale>
<asrwt>0</asrwt>
<pdfrwt beam="1">  1       21 0.24859105E+00 0.39861819E+03</pdfrwt>
<pdfrwt beam="2">  1       21 0.15509070E-01 0.39861819E+03</pdfrwt>
<totfact> 0.21376139E+03</totfact>
</mgrwt>
</event>
<event>
 4    2  0.3964208E+000  0.1758559E+03  0.7546771E-02  0.1171875E+00
         21   -1    0    0  501  502  0.00000000000E+00  0.00000000000E+00  0.55072895608E+03  0.55072895608E+03  0.00000000000E+00 0.  1.
         21   -1    0    0  502  503 -0.00000000000E+00 -0.00000000000E+00 -0.66398765807E+02  0.66398765807E+02  0.00000000000E+00 0.  1.
          6    1    1    2  501    0 -0.13755074362E+02  0.28409477120E+02  0.12095776001E+03  0.21343870354E+03  0.17300000000E+03 0.  1.
         -6    1    1    2    0  503  0.13755074362E+02 -0.28409477120E+02  0.36337243026E+03  0.40368901835E+03  0.17300000000E+03 0.  1.
<mgrwt>
<rscale>  2 0.17585591E+03</rscale>
<asrwt>0</asrwt>
<pdfrwt beam="1">  1       21 0.84727529E-01 0.17585591E+03</pdfrwt>
<pdfrwt beam="2">  1       21 0.10215195E-01 0.17585591E+03</pdfrwt>
<totfact> 0.94978542E+04</totfact>
</mgrwt>
</event>
<event>
 4    2  0.3964208E+000  0.1823177E+03  0.7546771E-02  0.1165579E+00
         21   -1    0    0  503  502  0.00000000000E+00  0.00000000000E+00  0.64717394996E+03  0.64717394996E+03  0.00000000000E+00 0. -1.
         21   -1    0    0  501  503 -0.00000000000E+00 -0.00000000000E+00 -0.51922102195E+02  0.51922102195E+02  0.00000000000E+00 0. -1.
          6    1    1    2  501    0  0.54079430152E+02 -0.19651147268E+02  0.33395057831E+03  0.38047699156E+03  0.17300000000E+03 0. -1.
         -6    1    1    2    0  502 -0.54079430152E+02  0.19651147268E+02  0.26130126946E+03  0.31861906060E+03  0.17300000000E+03 0. -1.
<mgrwt>
<rscale>  2 0.18231772E+03</rscale>
<asrwt>0</asrwt>
<pdfrwt beam="1">  1       21 0.99565217E-01 0.18231772E+03</pdfrwt>
<pdfrwt beam="2">  1       21 0.79880162E-02 0.18231772E+03</pdfrwt>
<totfact> 0.10022267E+05</totfact>
</mgrwt>
</event>
<event>
 4    2  0.3964208E+000  0.2048151E+03  0.7546771E-02  0.1145739E+00
         21   -1    0    0  501  502  0.00000000000E+00  0.00000000000E+00  0.83854102298E+02  0.83854102298E+02  0.00000000000E+00 0. -1.
         21   -1    0    0  502  503 -0.00000000000E+00 -0.00000000000E+00 -0.69462004931E+03  0.69462004931E+03  0.00000000000E+00 0. -1.
          6    1    1    2  501    0  0.71039430056E+02  0.83508304489E+02 -0.99491233654E+02  0.22770099498E+03  0.17300000000E+03 0. -1.
         -6    1    1    2    0  503 -0.71039430056E+02 -0.83508304489E+02 -0.51127471336E+03  0.55077315663E+03  0.17300000000E+03 0. -1.
<mgrwt>
<rscale>  2 0.20481513E+03</rscale>
<asrwt>0</asrwt>
<pdfrwt beam="1">  1       21 0.12900631E-01 0.20481513E+03</pdfrwt>
<pdfrwt beam="2">  1       21 0.10686463E+00 0.20481513E+03</pdfrwt>
<totfact> 0.35849970E+04</totfact>
</mgrwt>
</event>
<event>
 4    2  0.3964208E+000  0.1939025E+03  0.7546771E-02  0.1154988E+00
         21   -1    0    0  503  502  0.00000000000E+00  0.00000000000E+00  0.19673635417E+03  0.19673635417E+03  0.00000000000E+00 0. -1.
         21   -1    0    0  501  503 -0.00000000000E+00 -0.00000000000E+00 -0.19812475492E+03  0.19812475492E+03  0.00000000000E+00 0. -1.
          6    1    1    2  501    0 -0.87547451527E+02 -0.21474080777E+01 -0.37845127502E+02  0.19756118370E+03  0.17300000000E+03 0. -1.
         -6    1    1    2    0  502  0.87547451527E+02  0.21474080777E+01  0.36456726755E+02  0.19729992538E+03  0.17300000000E+03 0. -1.
<mgrwt>
<rscale>  2 0.19390247E+03</rscale>
<asrwt>0</asrwt>
<pdfrwt beam="1">  1       21 0.30267131E-01 0.19390247E+03</pdfrwt>
<pdfrwt beam="2">  1       21 0.30480732E-01 0.19390247E+03</pdfrwt>
<totfact> 0.10815481E+05</totfact>
</mgrwt>
</event>
<event>
 4    2  0.3964208E+000  0.1851067E+03  0.7546771E-02  0.1162950E+00
         21   -1    0    0  503  502  0.00000000000E+00  0.00000000000E+00  0.11990491999E+03  0.11990491999E+03  0.00000000000E+00 0.  1.
         21   -1    0    0  501  503 -0.00000000000E+00 -0.00000000000E+00 -0.30876511018E+03  0.30876511018E+03  0.00000000000E+00 0.  1.
          6    1    1    2  501    0  0.58630117192E+02 -0.29966770055E+02 -0.15292988802E+03  0.24010841010E+03  0.17300000000E+03 0.  1.
         -6    1    1    2    0  502 -0.58630117192E+02  0.29966770055E+02 -0.35930302176E+02  0.18856162007E+03  0.17300000000E+03 0.  1.
<mgrwt>
<rscale>  2 0.18510672E+03</rscale>
<asrwt>0</asrwt>
<pdfrwt beam="1">  1       21 0.18446911E-01 0.18510672E+03</pdfrwt>
<pdfrwt beam="2">  1       21 0.47502325E-01 0.18510672E+03</pdfrwt>
<totfact> 0.11402429E+05</totfact>
</mgrwt>
</event>
<event>
 4    2  0.3964208E+000  0.2671259E+03  0.7546771E-02  0.1102936E+00
         21   -1    0    0  501  502  0.00000000000E+00  0.00000000000E+00  0.15130410132E+03  0.15130410132E+03  0.00000000000E+00 0.  1.
         21   -1    0    0  502  503 -0.00000000000E+00 -0.00000000000E+00 -0.50732094334E+03  0.50732094334E+03  0.00000000000E+00 0.  1.
          6    1    1    2  501    0  0.51970799756E+02  0.19679001266E+03 -0.90635325323E+02  0.28208338361E+03  0.17300000000E+03 0.  1.
         -6    1    1    2    0  503 -0.51970799756E+02 -0.19679001266E+03 -0.26538151669E+03  0.37654166106E+03  0.17300000000E+03 0.  1.
<mgrwt>
<rscale>  2 0.26712595E+03</rscale>
<asrwt>0</asrwt>
<pdfrwt beam="1">  1       21 0.23277554E-01 0.26712595E+03</pdfrwt>
<pdfrwt beam="2">  1       21 0.78049376E-01 0.26712595E+03</pdfrwt>
<totfact> 0.24283317E+04</totfact>
</mgrwt>
</event>
<event>
 4    2  0.3964208E+000  0.2168718E+03  0.7546771E-02  0.1136237E+00
         21   -1    0    0  501  502  0.00000000000E+00  0.00000000000E+00  0.14356287478E+04  0.14356287478E+04  0.00000000000E+00 0. -1.
         21   -1    0    0  502  503 -0.00000000000E+00 -0.00000000000E+00 -0.32901192277E+02  0.32901192277E+02  0.00000000000E+00 0.  1.
          6    1    1    2  501    0 -0.86595332891E+02  0.98008192691E+02  0.65351989948E+03  0.68856489638E+03  0.17300000000E+03 0.  1.
         -6    1    1    2    0  503  0.86595332891E+02 -0.98008192691E+02  0.74920765604E+03  0.77996504370E+03  0.17300000000E+03 0.  1.
<mgrwt>
<rscale>  2 0.21687175E+03</rscale>
<asrwt>0</asrwt>
<pdfrwt beam="1">  1       21 0.22086591E+00 0.21687175E+03</pdfrwt>
<pdfrwt beam="2">  1       21 0.50617230E-02 0.21687175E+03</pdfrwt>
<totfact> 0.25708225E+04</totfact>
</mgrwt>
</event>
<event>
 4    2  0.3964208E+000  0.2152929E+03  0.7546771E-02  0.1137442E+00
         21   -1    0    0  503  502  0.00000000000E+00  0.00000000000E+00  0.17631288829E+03  0.17631288829E+03  0.00000000000E+00 0.  1.
         21   -1    0    0  501  503 -0.00000000000E+00 -0.00000000000E+00 -0.44376344721E+03  0.44376344721E+03  0.00000000000E+00 0.  1.
          6    1    1    2  501    0  0.10654507463E+03 -0.71205266545E+02 -0.33166174020E+03  0.39541187744E+03  0.17300000000E+03 0.  1.
         -6    1    1    2    0  502 -0.10654507463E+03  0.71205266545E+02  0.64211181278E+02  0.22466445805E+03  0.17300000000E+03 0.  1.
<mgrwt>
<rscale>  2 0.21529292E+03</rscale>
<asrwt>0</asrwt>
<pdfrwt beam="1">  1       21 0.27125060E-01 0.21529292E+03</pdfrwt>
<pdfrwt beam="2">  1       21 0.68271298E-01 0.21529292E+03</pdfrwt>
<totfact> 0.25036649E+04</totfact>
</mgrwt>
</event>
<event>
 4    2  0.3964208E+000  0.2169056E+03  0.7546771E-02  0.1136211E+00
         21   -1    0    0  501  502  0.00000000000E+00  0.00000000000E+00  0.22638358545E+03  0.22638358545E+03  0.00000000000E+00 0. -1.
         21   -1    0    0  502  503 -0.00000000000E+00 -0.00000000000E+00 -0.34180432634E+03  0.34180432634E+03  0.00000000000E+00 0. -1.
          6    1    1    2  501    0  0.11470473309E+03  0.62943388778E+02  0.12015565050E+03  0.24796255026E+03  0.17300000000E+03 0. -1.
         -6    1    1    2    0  503 -0.11470473309E+03 -0.62943388778E+02 -0.23557639139E+03  0.32022536152E+03  0.17300000000E+03 0. -1.
<mgrwt>
<rscale>  2 0.21690562E+03</rscale>
<asrwt>0</asrwt>
<pdfrwt beam="1">  1       21 0.34828244E-01 0.21690562E+03</pdfrwt>
<pdfrwt beam="2">  1       21 0.52585281E-01 0.21690562E+03</pdfrwt>
<totfact> 0.26885862E+04</totfact>
</mgrwt>
</event>
<event>
 4    2  0.3964208E+000  0.2268468E+03  0.7546771E-02  0.1128879E+00
         21   -1    0    0  503  502  0.00000000000E+00  0.00000000000E+00  0.18266464935E+03  0.18266464935E+03  0.00000000000E+00 0. -1.
         21   -1    0    0  501  503 -0.00000000000E+00 -0.00000000000E+00 -0.37707204217E+03  0.37707204217E+03  0.00000000000E+00 0. -1.
          6    1    1    2  501    0  0.14455684602E+03  0.25175245637E+02  0.43536034246E+02  0.23098671174E+03  0.17300000000E+03 0. -1.
         -6    1    1    2    0  502 -0.14455684602E+03 -0.25175245637E+02 -0.23794342706E+03  0.32874997978E+03  0.17300000000E+03 0. -1.
<mgrwt>
<rscale>  2 0.22684681E+03</rscale>
<asrwt>0</asrwt>
<pdfrwt beam="1">  1       21 0.28102254E-01 0.22684681E+03</pdfrwt>
<pdfrwt beam="2">  1       21 0.58011084E-01 0.22684681E+03</pdfrwt>
<totfact> 0.33104573E+04</totfact>
</mgrwt>
</event>
<event>
 4    2  0.3964208E+000  0.1966408E+03  0.7546771E-02  0.1152605E+00
         21   -1    0    0  503  502  0.00000000000E+00  0.00000000000E+00  0.30684297536E+03  0.30684297536E+03  0.00000000000E+00 0. -1.
         21   -1    0    0  501  503 -0.00000000000E+00 -0.00000000000E+00 -0.43609103935E+03  0.43609103935E+03  0.00000000000E+00 0. -1.
          6    1    1    2  501    0  0.93385357787E+02 -0.42150895415E+01 -0.37785450184E+03  0.42595964197E+03  0.17300000000E+03 0. -1.
         -6    1    1    2    0  502 -0.93385357787E+02  0.42150895415E+01  0.24860643785E+03  0.31697437273E+03  0.17300000000E+03 0. -1.
<mgrwt>
<rscale>  2 0.19664077E+03</rscale>
<asrwt>0</asrwt>
<pdfrwt beam="1">  1       21 0.47206612E-01 0.19664077E+03</pdfrwt>
<pdfrwt beam="2">  1       21 0.67090928E-01 0.19664077E+03</pdfrwt>
<totfact> 0.87084093E+03</totfact>
</mgrwt>
</event>
<event>
 4    2  0.3964208E+000  0.1849821E+03  0.7546771E-02  0.1163067E+00
         21   -1    0    0  501  502  0.00000000000E+00  0.00000000000E+00  0.87334233139E+03  0.87334233139E+03  0.00000000000E+00 0.  1.
         21   -1    0    0  502  503 -0.00000000000E+00 -0.00000000000E+00 -0.61561089549E+02  0.61561089549E+02  0.00000000000E+00 0. -1.
          6    1    1    2  501    0  0.13959997016E+02  0.63988116736E+02  0.68773880413E+03  0.71218187516E+03  0.17300000000E+03 0.  1.
         -6    1    1    2    0  503 -0.13959997016E+02 -0.63988116736E+02  0.12404243771E+03  0.22272154577E+03  0.17300000000E+03 0. -1.
<mgrwt>
<rscale>  2 0.18498205E+03</rscale>
<asrwt>0</asrwt>
<pdfrwt beam="1">  1       21 0.13436035E+00 0.18498205E+03</pdfrwt>
<pdfrwt beam="2">  1       21 0.94709375E-02 0.18498205E+03</pdfrwt>
<totfact> 0.35667199E+04</totfact>
</mgrwt>
</event>
<event>
 4    2  0.3964208E+000  0.2455519E+03  0.7546771E-02  0.1116149E+00
         21   -1    0    0  503  502  0.00000000000E+00  0.00000000000E+00  0.20990895570E+03  0.20990895570E+03  0.00000000000E+00 0. -1.
         21   -1    0    0  501  503 -0.00000000000E+00 -0.00000000000E+00 -0.45933043218E+03  0.45933043218E+03  0.00000000000E+00 0. -1.
          6    1    1    2  501    0  0.44210130696E+02 -0.16855917549E+03 -0.32952412368E+03  0.41095240526E+03  0.17300000000E+03 0. -1.
         -6    1    1    2    0  502 -0.44210130696E+02  0.16855917549E+03  0.80102647206E+02  0.25828698262E+03  0.17300000000E+03 0. -1.
<mgrwt>
<rscale>  2 0.24555189E+03</rscale>
<asrwt>0</asrwt>
<pdfrwt beam="1">  1       21 0.32293686E-01 0.24555189E+03</pdfrwt>
<pdfrwt beam="2">  1       21 0.70666219E-01 0.24555189E+03</pdfrwt>
<totfact> 0.16236298E+04</totfact>
</mgrwt>
</event>
<event>
 4    2  0.3964208E+000  0.2082989E+03  0.7546771E-02  0.1142920E+00
         21   -1    0    0  503  502  0.00000000000E+00  0.00000000000E+00  0.14408959120E+04  0.14408959120E+04  0.00000000000E+00 0.  1.
         21   -1    0    0  501  503 -0.00000000000E+00 -0.00000000000E+00 -0.42881577231E+02  0.42881577231E+02  0.00000000000E+00 0.  1.
          6    1    1    2  501    0 -0.11371645796E+03 -0.22978016641E+02  0.29416128474E+03  0.36044317652E+03  0.17300000000E+03 0.  1.
         -6    1    1    2    0  502  0.11371645796E+03  0.22978016641E+02  0.11038530500E+04  0.11233343127E+04  0.17300000000E+03 0.  1.
<mgrwt>
<rscale>  2 0.20829888E+03</rscale>
<asrwt>0</asrwt>
<pdfrwt beam="1">  1       21 0.22167626E+00 0.20829888E+03</pdfrwt>
<pdfrwt beam="2">  1       21 0.65971668E-02 0.20829888E+03</pdfrwt>
<totfact> 0.16251617E+04</totfact>
</mgrwt>
</event>
<event>
 4    2  0.3964208E+000  0.2356414E+03  0.7546771E-02  0.1122731E+00
         21   -1    0    0  501  502  0.00000000000E+00  0.00000000000E+00  0.22055074069E+03  0.22055074069E+03  0.00000000000E+00 0.  1.
         21   -1    0    0  502  503 -0.00000000000E+00 -0.00000000000E+00 -0.42072538163E+03  0.42072538163E+03  0.00000000000E+00 0.  1.
          6    1    1    2  501    0 -0.25448560255E+02 -0.15795645434E+03  0.10310564210E+03  0.25721128304E+03  0.17300000000E+03 0.  1.
         -6    1    1    2    0  503  0.25448560255E+02  0.15795645434E+03 -0.30328028305E+03  0.38406483928E+03  0.17300000000E+03 0.  1.
<mgrwt>
<rscale>  2 0.23564140E+03</rscale>
<asrwt>0</asrwt>
<pdfrwt beam="1">  1       21 0.33930884E-01 0.23564140E+03</pdfrwt>
<pdfrwt beam="2">  1       21 0.64726981E-01 0.23564140E+03</pdfrwt>
<totfact> 0.17954685E+04</totfact>
</mgrwt>
</event>
<event>
 4    2  0.3964208E+000  0.2208116E+03  0.7546771E-02  0.1133279E+00
         21   -1    0    0  501  502  0.00000000000E+00  0.00000000000E+00  0.15357749560E+03  0.15357749560E+03  0.00000000000E+00 0. -1.
         21   -1    0    0  502  503 -0.00000000000E+00 -0.00000000000E+00 -0.32346182030E+03  0.32346182030E+03  0.00000000000E+00 0.  1.
          6    1    1    2  501    0  0.29358213438E+02 -0.13404056203E+03 -0.11737842768E+03  0.25007093444E+03  0.17300000000E+03 0.  1.
         -6    1    1    2    0  503 -0.29358213438E+02  0.13404056203E+03 -0.52505897019E+02  0.22696838147E+03  0.17300000000E+03 0.  1.
<mgrwt>
<rscale>  2 0.22081163E+03</rscale>
<asrwt>0</asrwt>
<pdfrwt beam="1">  1       21 0.23627307E-01 0.22081163E+03</pdfrwt>
<pdfrwt beam="2">  1       21 0.49763356E-01 0.22081163E+03</pdfrwt>
<totfact> 0.64096514E+04</totfact>
</mgrwt>
</event>
<event>
 4    2  0.3964208E+000  0.2391726E+03  0.7546771E-02  0.1120345E+00
         21   -1    0    0  501  502  0.00000000000E+00  0.00000000000E+00  0.28074068899E+02  0.28074068899E+02  0.00000000000E+00 0.  1.
         21   -1    0    0  502  503 -0.00000000000E+00 -0.00000000000E+00 -0.20378659276E+04  0.20378659276E+04  0.00000000000E+00 0. -1.
          6    1    1    2  501    0 -0.56613108280E+02 -0.15514337942E+03 -0.99293067839E+03  0.10213299390E+04  0.17300000000E+03 0. -1.
         -6    1    1    2    0  503  0.56613108280E+02  0.15514337942E+03 -0.10168611803E+04  0.10446100575E+04  0.17300000000E+03 0.  1.
<mgrwt>
<rscale>  2 0.23917256E+03</rscale>
<asrwt>0</asrwt>
<pdfrwt beam="1">  1       21 0.43190867E-02 0.23917256E+03</pdfrwt>
<pdfrwt beam="2">  1       21 0.31351790E+00 0.23917256E+03</pdfrwt>
<totfact> 0.93742598E+03</totfact>
</mgrwt>
</event>
<event>
 4    2  0.3964208E+000  0.2662272E+03  0.7546771E-02  0.1103458E+00
         21   -1    0    0  503  502  0.00000000000E+00  0.00000000000E+00  0.88225046171E+02  0.88225046171E+02  0.00000000000E+00 0. -1.
         21   -1    0    0  501  503 -0.00000000000E+00 -0.00000000000E+00 -0.80412990759E+03  0.80412990759E+03  0.00000000000E+00 0. -1.
          6    1    1    2  501    0  0.77439999413E+02  0.18695184610E+03 -0.37171013168E+03  0.45721479445E+03  0.17300000000E+03 0. -1.
         -6    1    1    2    0  502 -0.77439999413E+02 -0.18695184610E+03 -0.34419472974E+03  0.43514015931E+03  0.17300000000E+03 0. -1.
<mgrwt>
<rscale>  2 0.26622725E+03</rscale>
<asrwt>0</asrwt>
<pdfrwt beam="1">  1       21 0.13573083E-01 0.26622725E+03</pdfrwt>
<pdfrwt beam="2">  1       21 0.12371230E+00 0.26622725E+03</pdfrwt>
<totfact> 0.22102846E+04</totfact>
</mgrwt>
</event>
<event>
 4    2  0.3964208E+000  0.1796941E+03  0.7546771E-02  0.1168099E+00
         21   -1    0    0  503  502  0.00000000000E+00  0.00000000000E+00  0.24626103935E+03  0.24626103935E+03  0.00000000000E+00 0. -1.
         21   -1    0    0  501  503 -0.00000000000E+00 -0.00000000000E+00 -0.14241519873E+03  0.14241519873E+03  0.00000000000E+00 0. -1.
          6    1    1    2  501    0 -0.47836683426E+02 -0.85213612689E+01 -0.28051360976E+01  0.17971597221E+03  0.17300000000E+03 0. -1.
         -6    1    1    2    0  502  0.47836683426E+02  0.85213612689E+01  0.10665097672E+03  0.20896026587E+03  0.17300000000E+03 0. -1.
<mgrwt>
<rscale>  2 0.17969408E+03</rscale>
<asrwt>0</asrwt>
<pdfrwt beam="1">  1       21 0.37886314E-01 0.17969408E+03</pdfrwt>
<pdfrwt beam="2">  1       21 0.21910031E-01 0.17969408E+03</pdfrwt>
<totfact> 0.13127655E+05</totfact>
</mgrwt>
</event>
<event>
 4    2  0.3964208E+000  0.2879234E+03  0.7546771E-02  0.1091438E+00
         21   -1    0    0  503  502  0.00000000000E+00  0.00000000000E+00  0.19168708538E+03  0.19168708538E+03  0.00000000000E+00 0. -1.
         21   -1    0    0  501  503 -0.00000000000E+00 -0.00000000000E+00 -0.53212868941E+03  0.53212868941E+03  0.00000000000E+00 0.  1.
          6    1    1    2  501    0 -0.21273157872E+03 -0.87841591805E+02 -0.32683691080E+03  0.43557116077E+03  0.17300000000E+03 0.  1.
         -6    1    1    2    0  502  0.21273157872E+03  0.87841591805E+02 -0.13604693235E+02  0.28824461402E+03  0.17300000000E+03 0. -1.
<mgrwt>
<rscale>  2 0.28792337E+03</rscale>
<asrwt>0</asrwt>
<pdfrwt beam="1">  1       21 0.29490321E-01 0.28792337E+03</pdfrwt>
<pdfrwt beam="2">  1       21 0.81865952E-01 0.28792337E+03</pdfrwt>
<totfact> 0.13647858E+04</totfact>
</mgrwt>
</event>
<event>
 4    2  0.3964208E+000  0.1738566E+03  0.7546771E-02  0.1173885E+00
         21   -1    0    0  503  502  0.00000000000E+00  0.00000000000E+00  0.22796534892E+03  0.22796534892E+03  0.00000000000E+00 0.  1.
         21   -1    0    0  501  503 -0.00000000000E+00 -0.00000000000E+00 -0.18846716824E+03  0.18846716824E+03  0.00000000000E+00 0.  1.
          6    1    1    2  501    0 -0.11943050072E+02 -0.12429210857E+02 -0.93624170225E+02  0.19746292558E+03  0.17300000000E+03 0. -1.
         -6    1    1    2    0  502  0.11943050072E+02  0.12429210857E+02  0.13312235091E+03  0.21896959159E+03  0.17300000000E+03 0. -1.
<mgrwt>
<rscale>  2 0.17385661E+03</rscale>
<asrwt>0</asrwt>
<pdfrwt beam="1">  1       21 0.35071592E-01 0.17385661E+03</pdfrwt>
<pdfrwt beam="2">  1       21 0.28994949E-01 0.17385661E+03</pdfrwt>
<totfact> 0.89906651E+04</totfact>
</mgrwt>
</event>
<event>
 4    2  0.3964208E+000  0.1836765E+03  0.7546771E-02  0.1164292E+00
         21   -1    0    0  503  502  0.00000000000E+00  0.00000000000E+00  0.62172191954E+03  0.62172191954E+03  0.00000000000E+00 0.  1.
         21   -1    0    0  501  503 -0.00000000000E+00 -0.00000000000E+00 -0.56639947442E+02  0.56639947442E+02  0.00000000000E+00 0.  1.
          6    1    1    2  501    0  0.42418868691E+02 -0.44818350710E+02  0.21307068288E+03  0.28131150152E+03  0.17300000000E+03 0.  1.
         -6    1    1    2    0  502 -0.42418868691E+02  0.44818350710E+02  0.35201128922E+03  0.39705036547E+03  0.17300000000E+03 0.  1.
<mgrwt>
<rscale>  2 0.18367647E+03</rscale>
<asrwt>0</asrwt>
<pdfrwt beam="1">  1       21 0.95649522E-01 0.18367647E+03</pdfrwt>
<pdfrwt beam="2">  1       21 0.87138385E-02 0.18367647E+03</pdfrwt>
<totfact> 0.94591278E+04</totfact>
</mgrwt>
</event>
<event>
 4    2  0.3964208E+000  0.2132484E+03  0.7546771E-02  0.1139019E+00
         21   -1    0    0  503  502  0.00000000000E+00  0.00000000000E+00  0.64437347194E+02  0.64437347194E+02  0.00000000000E+00 0.  1.
         21   -1    0    0  501  503 -0.00000000000E+00 -0.00000000000E+00 -0.15311950263E+04  0.15311950263E+04  0.00000000000E+00 0.  1.
          6    1    1    2  501    0 -0.11956204920E+03  0.35366633747E+02 -0.13191647397E+04  0.13362898237E+04  0.17300000000E+03 0.  1.
         -6    1    1    2    0  502  0.11956204920E+03 -0.35366633747E+02 -0.14759293944E+03  0.25934254985E+03  0.17300000000E+03 0.  1.
<mgrwt>
<rscale>  2 0.21324841E+03</rscale>
<asrwt>0</asrwt>
<pdfrwt beam="1">  1       21 0.99134390E-02 0.21324841E+03</pdfrwt>
<pdfrwt beam="2">  1       21 0.23556844E+00 0.21324841E+03</pdfrwt>
<totfact> 0.65440688E+03</totfact>
</mgrwt>
</event>
<event>
 4    2  0.3964208E+000  0.1900399E+03  0.7546771E-02  0.1158425E+00
         21   -1    0    0  503  502  0.00000000000E+00  0.00000000000E+00  0.38812075080E+02  0.38812075080E+02  0.00000000000E+00 0. -1.
         21   -1    0    0  501  503 -0.00000000000E+00 -0.00000000000E+00 -0.96847655673E+03  0.96847655673E+03  0.00000000000E+00 0. -1.
          6    1    1    2  501    0  0.62809266987E+02  0.47340766278E+02 -0.56454737904E+03  0.59567515926E+03  0.17300000000E+03 0. -1.
         -6    1    1    2    0  502 -0.62809266987E+02 -0.47340766278E+02 -0.36511710260E+03  0.41161347255E+03  0.17300000000E+03 0. -1.
<mgrwt>
<rscale>  2 0.19003987E+03</rscale>
<asrwt>0</asrwt>
<pdfrwt beam="1">  1       21 0.59710883E-02 0.19003987E+03</pdfrwt>
<pdfrwt beam="2">  1       21 0.14899640E+00 0.19003987E+03</pdfrwt>
<totfact> 0.60569696E+04</totfact>
</mgrwt>
</event>
<event>
 4    2  0.3964208E+000  0.1872288E+03  0.7546771E-02  0.1160985E+00
         21   -1    0    0  501  502  0.00000000000E+00  0.00000000000E+00  0.10713843836E+04  0.10713843836E+04  0.00000000000E+00 0.  1.
         21   -1    0    0  502  503 -0.00000000000E+00 -0.00000000000E+00 -0.14858189144E+03  0.14858189144E+03  0.00000000000E+00 0.  1.
          6    1    1    2  501    0  0.48999474340E+02 -0.52198241642E+02  0.10000517936E+04  0.10174272430E+04  0.17300000000E+03 0.  1.
         -6    1    1    2    0  503 -0.48999474340E+02  0.52198241642E+02 -0.77249301459E+02  0.20253903202E+03  0.17300000000E+03 0.  1.
<mgrwt>
<rscale>  2 0.18722875E+03</rscale>
<asrwt>0</asrwt>
<pdfrwt beam="1">  1       21 0.16482836E+00 0.18722875E+03</pdfrwt>
<pdfrwt beam="2">  1       21 0.22858753E-01 0.18722875E+03</pdfrwt>
<totfact> 0.41899967E+03</totfact>
</mgrwt>
</event>
<event>
 4    2  0.3964208E+000  0.1866167E+03  0.7546771E-02  0.1161549E+00
         21   -1    0    0  503  502  0.00000000000E+00  0.00000000000E+00  0.37427105715E+03  0.37427105715E+03  0.00000000000E+00 0. -1.
         21   -1    0    0  501  503 -0.00000000000E+00 -0.00000000000E+00 -0.14802131599E+03  0.14802131599E+03  0.00000000000E+00 0. -1.
          6    1    1    2  501    0 -0.31419334886E+02 -0.62527075725E+02 -0.46019326558E+02  0.19220714924E+03  0.17300000000E+03 0. -1.
         -6    1    1    2    0  502  0.31419334886E+02  0.62527075725E+02  0.27226906771E+03  0.33008522390E+03  0.17300000000E+03 0. -1.
<mgrwt>
<rscale>  2 0.18661675E+03</rscale>
<asrwt>0</asrwt>
<pdfrwt beam="1">  1       21 0.57580162E-01 0.18661675E+03</pdfrwt>
<pdfrwt beam="2">  1       21 0.22772510E-01 0.18661675E+03</pdfrwt>
<totfact> 0.51323316E+04</totfact>
</mgrwt>
</event>
<event>
 4    2  0.3964208E+000  0.1906323E+03  0.7546771E-02  0.1157892E+00
         21   -1    0    0  501  502  0.00000000000E+00  0.00000000000E+00  0.65577328542E+03  0.65577328542E+03  0.00000000000E+00 0.  1.
         21   -1    0    0  502  503 -0.00000000000E+00 -0.00000000000E+00 -0.65171555873E+02  0.65171555873E+02  0.00000000000E+00 0.  1.
          6    1    1    2  501    0 -0.54209615586E+02 -0.58931975234E+02  0.15583822421E+03  0.24622390674E+03  0.17300000000E+03 0.  1.
         -6    1    1    2    0  503  0.54209615586E+02  0.58931975234E+02  0.43476350533E+03  0.47472093455E+03  0.17300000000E+03 0.  1.
<mgrwt>
<rscale>  2 0.19063226E+03</rscale>
<asrwt>0</asrwt>
<pdfrwt beam="1">  1       21 0.10088819E+00 0.19063226E+03</pdfrwt>
<pdfrwt beam="2">  1       21 0.10026394E-01 0.19063226E+03</pdfrwt>
<totfact> 0.64989809E+04</totfact>
</mgrwt>
</event>
<event>
 4    2  0.3964208E+000  0.1747522E+03  0.7546771E-02  0.1172981E+00
         21   -1    0    0  503  502  0.00000000000E+00  0.00000000000E+00  0.20233643312E+03  0.20233643312E+03  0.00000000000E+00 0. -1.
         21   -1    0    0  501  503 -0.00000000000E+00 -0.00000000000E+00 -0.30657165028E+03  0.30657165028E+03  0.00000000000E+00 0. -1.
          6    1    1    2  501    0  0.20783451958E+02 -0.13318355646E+02 -0.23342202807E+03  0.29158904928E+03  0.17300000000E+03 0. -1.
         -6    1    1    2    0  502 -0.20783451958E+02  0.13318355646E+02  0.12918681091E+03  0.21731903411E+03  0.17300000000E+03 0. -1.
<mgrwt>
<rscale>  2 0.17475220E+03</rscale>
<asrwt>0</asrwt>
<pdfrwt beam="1">  1       21 0.31128682E-01 0.17475220E+03</pdfrwt>
<pdfrwt beam="2">  1       21 0.47164869E-01 0.17475220E+03</pdfrwt>
<totfact> 0.43027377E+04</totfact>
</mgrwt>
</event>
<event>
 4    2  0.3964208E+000  0.1778064E+03  0.7546771E-02  0.1169943E+00
         21   -1    0    0  501  502  0.00000000000E+00  0.00000000000E+00  0.18519154953E+03  0.18519154953E+03  0.00000000000E+00 0.  1.
         21   -1    0    0  502  503 -0.00000000000E+00 -0.00000000000E+00 -0.17770490954E+03  0.17770490954E+03  0.00000000000E+00 0.  1.
          6    1    1    2  501    0 -0.16095140024E+02 -0.37776396880E+02 -0.32241245818E+02  0.18070585941E+03  0.17300000000E+03 0.  1.
         -6    1    1    2    0  503  0.16095140024E+02  0.37776396880E+02  0.39727885810E+02  0.18219059966E+03  0.17300000000E+03 0.  1.
<mgrwt>
<rscale>  2 0.17780638E+03</rscale>
<asrwt>0</asrwt>
<pdfrwt beam="1">  1       21 0.28491008E-01 0.17780638E+03</pdfrwt>
<pdfrwt beam="2">  1       21 0.27339217E-01 0.17780638E+03</pdfrwt>
<totfact> 0.15101845E+05</totfact>
</mgrwt>
</event>
<event>
 4    2  0.3964208E+000  0.1985116E+03  0.7546771E-02  0.1151001E+00
         21   -1    0    0  503  502  0.00000000000E+00  0.00000000000E+00  0.22550919670E+03  0.22550919670E+03  0.00000000000E+00 0.  1.
         21   -1    0    0  501  503 -0.00000000000E+00 -0.00000000000E+00 -0.19378950992E+03  0.19378950992E+03  0.00000000000E+00 0.  1.
          6    1    1    2  501    0 -0.64300284269E+02  0.73097979402E+02 -0.49860728466E+02  0.20467763286E+03  0.17300000000E+03 0.  1.
         -6    1    1    2    0  502  0.64300284269E+02 -0.73097979402E+02  0.81580415246E+02  0.21462107376E+03  0.17300000000E+03 0.  1.
<mgrwt>
<rscale>  2 0.19851156E+03</rscale>
<asrwt>0</asrwt>
<pdfrwt beam="1">  1       21 0.34693723E-01 0.19851156E+03</pdfrwt>
<pdfrwt beam="2">  1       21 0.29813771E-01 0.19851156E+03</pdfrwt>
<totfact> 0.86162640E+04</totfact>
</mgrwt>
</event>
<event>
 4    2  0.3964208E+000  0.1764869E+03  0.7546771E-02  0.1171247E+00
         21   -1    0    0  501  502  0.00000000000E+00  0.00000000000E+00  0.11363898189E+03  0.11363898189E+03  0.00000000000E+00 0.  1.
         21   -1    0    0  502  503 -0.00000000000E+00 -0.00000000000E+00 -0.46996188827E+03  0.46996188827E+03  0.00000000000E+00 0.  1.
          6    1    1    2  501    0 -0.23292831969E+02  0.26001552741E+02  0.10219707346E+02  0.17678257602E+03  0.17300000000E+03 0.  1.
         -6    1    1    2    0  503  0.23292831969E+02 -0.26001552741E+02 -0.36654261373E+03  0.40681829414E+03  0.17300000000E+03 0.  1.
<mgrwt>
<rscale>  2 0.17648693E+03</rscale>
<asrwt>0</asrwt>
<pdfrwt beam="1">  1       21 0.17482920E-01 0.17648693E+03</pdfrwt>
<pdfrwt beam="2">  1       21 0.72301829E-01 0.17648693E+03</pdfrwt>
<totfact> 0.51505417E+04</totfact>
</mgrwt>
</event>
<event>
 4    2  0.3964208E+000  0.3947408E+03  0.7546771E-02  0.1045616E+00
         21   -1    0    0  503  502  0.00000000000E+00  0.00000000000E+00  0.61524902199E+03  0.61524902199E+03  0.00000000000E+00 0.  1.
         21   -1    0    0  501  503 -0.00000000000E+00 -0.00000000000E+00 -0.48786722029E+03  0.48786722029E+03  0.00000000000E+00 0. -1.
          6    1    1    2  501    0 -0.27321874708E+01 -0.35480108010E+03 -0.31878817810E+03  0.50739153894E+03  0.17300000000E+03 0. -1.
         -6    1    1    2    0  502  0.27321874708E+01  0.35480108010E+03  0.44616997980E+03  0.59572470333E+03  0.17300000000E+03 0.  1.
<mgrwt>
<rscale>  2 0.39474076E+03</rscale>
<asrwt>0</asrwt>
<pdfrwt beam="1">  1       21 0.94653696E-01 0.39474076E+03</pdfrwt>
<pdfrwt beam="2">  1       21 0.75056495E-01 0.39474076E+03</pdfrwt>
<totfact> 0.12978426E+03</totfact>
</mgrwt>
</event>
<event>
 4    2  0.3964208E+000  0.1801769E+03  0.7546771E-02  0.1167632E+00
         21   -1    0    0  501  502  0.00000000000E+00  0.00000000000E+00  0.56610071731E+03  0.56610071731E+03  0.00000000000E+00 0.  1.
         21   -1    0    0  502  503 -0.00000000000E+00 -0.00000000000E+00 -0.46582891066E+03  0.46582891066E+03  0.00000000000E+00 0.  1.
          6    1    1    2  501    0 -0.19880697698E+02  0.46254272403E+02  0.53329897109E+03  0.56291339691E+03  0.17300000000E+03 0.  1.
         -6    1    1    2    0  503  0.19880697698E+02 -0.46254272403E+02 -0.43302716443E+03  0.46901623106E+03  0.17300000000E+03 0.  1.
<mgrwt>
<rscale>  2 0.18017686E+03</rscale>
<asrwt>0</asrwt>
<pdfrwt beam="1">  1       21 0.87092418E-01 0.18017686E+03</pdfrwt>
<pdfrwt beam="2">  1       21 0.71665986E-01 0.18017686E+03</pdfrwt>
<totfact> 0.20167006E+03</totfact>
</mgrwt>
</event>
<event>
 4    2  0.3964208E+000  0.2705058E+03  0.7546771E-02  0.1100990E+00
         21   -1    0    0  503  502  0.00000000000E+00  0.00000000000E+00  0.12056638089E+04  0.12056638089E+04  0.00000000000E+00 0.  1.
         21   -1    0    0  501  503 -0.00000000000E+00 -0.00000000000E+00 -0.81523795367E+02  0.81523795367E+02  0.00000000000E+00 0.  1.
          6    1    1    2  501    0  0.10366460441E+03  0.18027212124E+03  0.23672842113E+03  0.35946311810E+03  0.17300000000E+03 0.  1.
         -6    1    1    2    0  502 -0.10366460441E+03 -0.18027212124E+03  0.88741159245E+03  0.92772448621E+03  0.17300000000E+03 0.  1.
<mgrwt>
<rscale>  2 0.27050580E+03</rscale>
<asrwt>0</asrwt>
<pdfrwt beam="1">  1       21 0.18548673E+00 0.27050580E+03</pdfrwt>
<pdfrwt beam="2">  1       21 0.12542123E-01 0.27050580E+03</pdfrwt>
<totfact> 0.85673361E+03</totfact>
</mgrwt>
</event>
<event>
 4    2  0.3964208E+000  0.1793026E+03  0.7546771E-02  0.1168480E+00
         21   -1    0    0  503  502  0.00000000000E+00  0.00000000000E+00  0.25259050571E+03  0.25259050571E+03  0.00000000000E+00 0. -1.
         21   -1    0    0  501  503 -0.00000000000E+00 -0.00000000000E+00 -0.12959566450E+03  0.12959566450E+03  0.00000000000E+00 0. -1.
          6    1    1    2  501    0  0.46862601673E+02 -0.49314463847E+01  0.35947016445E+02  0.18287047490E+03  0.17300000000E+03 0. -1.
         -6    1    1    2    0  502 -0.46862601673E+02  0.49314463847E+01  0.87047824761E+02  0.19931569530E+03  0.17300000000E+03 0. -1.
<mgrwt>
<rscale>  2 0.17930260E+03</rscale>
<asrwt>0</asrwt>
<pdfrwt beam="1">  1       21 0.38860078E-01 0.17930260E+03</pdfrwt>
<pdfrwt beam="2">  1       21 0.19937795E-01 0.17930260E+03</pdfrwt>
<totfact> 0.14888735E+05</totfact>
</mgrwt>
</event>
<event>
 4    2  0.3964208E+000  0.2047821E+03  0.7546771E-02  0.1145766E+00
         21   -1    0    0  501  502  0.00000000000E+00  0.00000000000E+00  0.42208606230E+03  0.42208606230E+03  0.00000000000E+00 0.  1.
         21   -1    0    0  502  503 -0.00000000000E+00 -0.00000000000E+00 -0.18467390054E+03  0.18467390054E+03  0.00000000000E+00 0. -1.
          6    1    1    2  501    0  0.96611491380E+02 -0.51700371952E+02  0.32491655268E+03  0.38406571694E+03  0.17300000000E+03 0. -1.
         -6    1    1    2    0  503 -0.96611491380E+02  0.51700371952E+02 -0.87504390923E+02  0.22269424590E+03  0.17300000000E+03 0. -1.
<mgrwt>
<rscale>  2 0.20478210E+03</rscale>
<asrwt>0</asrwt>
<pdfrwt beam="1">  1       21 0.64936317E-01 0.20478210E+03</pdfrwt>
<pdfrwt beam="2">  1       21 0.28411369E-01 0.20478210E+03</pdfrwt>
<totfact> 0.25691052E+04</totfact>
</mgrwt>
</event>
<event>
 4    2  0.3964208E+000  0.2685081E+03  0.7546771E-02  0.1102137E+00
         21   -1    0    0  503  502  0.00000000000E+00  0.00000000000E+00  0.14057442168E+03  0.14057442168E+03  0.00000000000E+00 0. -1.
         21   -1    0    0  501  503 -0.00000000000E+00 -0.00000000000E+00 -0.56375539110E+03  0.56375539110E+03  0.00000000000E+00 0. -1.
          6    1    1    2  501    0  0.61456418372E+02  0.19593543012E+03 -0.31739197893E+03  0.41573339103E+03  0.17300000000E+03 0. -1.
         -6    1    1    2    0  502 -0.61456418372E+02 -0.19593543012E+03 -0.10578899049E+03  0.28859642174E+03  0.17300000000E+03 0. -1.
<mgrwt>
<rscale>  2 0.26850807E+03</rscale>
<asrwt>0</asrwt>
<pdfrwt beam="1">  1       21 0.21626834E-01 0.26850807E+03</pdfrwt>
<pdfrwt beam="2">  1       21 0.86731599E-01 0.26850807E+03</pdfrwt>
<totfact> 0.21917045E+04</totfact>
</mgrwt>
</event>
<event>
 4    2  0.3964208E+000  0.1982883E+03  0.7546771E-02  0.1151191E+00
         21   -1    0    0  503  502  0.00000000000E+00  0.00000000000E+00  0.46611538006E+03  0.46611538006E+03  0.00000000000E+00 0. -1.
         21   -1    0    0  501  503 -0.00000000000E+00 -0.00000000000E+00 -0.51097514039E+03  0.51097514039E+03  0.00000000000E+00 0. -1.
          6    1    1    2  501    0  0.61647085748E+02 -0.74758743535E+02 -0.46883237287E+03  0.50904029974E+03  0.17300000000E+03 0. -1.
         -6    1    1    2    0  502 -0.61647085748E+02  0.74758743535E+02  0.42397261254E+03  0.46805022070E+03  0.17300000000E+03 0. -1.
<mgrwt>
<rscale>  2 0.19828826E+03</rscale>
<asrwt>0</asrwt>
<pdfrwt beam="1">  1       21 0.71710059E-01 0.19828826E+03</pdfrwt>
<pdfrwt beam="2">  1       21 0.78611560E-01 0.19828826E+03</pdfrwt>
<totfact> 0.25010782E+03</totfact>
</mgrwt>
</event>
<event>
 4    2  0.3964208E+000  0.1921687E+03  0.7546771E-02  0.1156520E+00
         21   -1    0    0  501  502  0.00000000000E+00  0.00000000000E+00  0.49736746481E+03  0.49736746481E+03  0.00000000000E+00 0.  1.
         21   -1    0    0  502  503 -0.00000000000E+00 -0.00000000000E+00 -0.74389674824E+02  0.74389674824E+02  0.00000000000E+00 0.  1.
          6    1    1    2  501    0  0.82232827218E+02 -0.15413380048E+02  0.22394080631E+03  0.29509031649E+03  0.17300000000E+03 0.  1.
         -6    1    1    2    0  503 -0.82232827218E+02  0.15413380048E+02  0.19903698368E+03  0.27666682314E+03  0.17300000000E+03 0.  1.
<mgrwt>
<rscale>  2 0.19216870E+03</rscale>
<asrwt>0</asrwt>
<pdfrwt beam="1">  1       21 0.76518069E-01 0.19216870E+03</pdfrwt>
<pdfrwt beam="2">  1       21 0.11444566E-01 0.19216870E+03</pdfrwt>
<totfact> 0.97113300E+04</totfact>
</mgrwt>
</event>
<event>
 4    2  0.3964208E+000  0.2050555E+03  0.7546771E-02  0.1145542E+00
         21   -1    0    0  503  502  0.00000000000E+00  0.00000000000E+00  0.40800708202E+03  0.40800708202E+03  0.00000000000E+00 0.  1.
         21   -1    0    0  501  503 -0.00000000000E+00 -0.00000000000E+00 -0.10607774916E+03  0.10607774916E+03  0.00000000000E+00 0. -1.
          6    1    1    2  501    0  0.24762549589E+02 -0.10726395488E+03  0.10758429061E+03  0.23156450390E+03  0.17300000000E+03 0. -1.
         -6    1    1    2    0  502 -0.24762549589E+02  0.10726395488E+03  0.19434504225E+03  0.28252032728E+03  0.17300000000E+03 0.  1.
<mgrwt>
<rscale>  2 0.20505546E+03</rscale>
<asrwt>0</asrwt>
<pdfrwt beam="1">  1       21 0.62770319E-01 0.20505546E+03</pdfrwt>
<pdfrwt beam="2">  1       21 0.16319654E-01 0.20505546E+03</pdfrwt>
<totfact> 0.78629115E+04</totfact>
</mgrwt>
</event>
<event>
 4    2  0.3964208E+000  0.2821896E+03  0.7546771E-02  0.1094499E+00
         21   -1    0    0  503  502  0.00000000000E+00  0.00000000000E+00  0.12088107682E+03  0.12088107682E+03  0.00000000000E+00 0. -1.
         21   -1    0    0  501  503 -0.00000000000E+00 -0.00000000000E+00 -0.83208214404E+03  0.83208214404E+03  0.00000000000E+00 0. -1.
          6    1    1    2  501    0 -0.20331836001E+03  0.91452708136E+02 -0.13813173291E+03  0.31418359120E+03  0.17300000000E+03 0. -1.
         -6    1    1    2    0  502  0.20331836001E+03 -0.91452708136E+02 -0.57306933431E+03  0.63877962966E+03  0.17300000000E+03 0. -1.
<mgrwt>
<rscale>  2 0.28218957E+03</rscale>
<asrwt>0</asrwt>
<pdfrwt beam="1">  1       21 0.18597088E-01 0.28218957E+03</pdfrwt>
<pdfrwt beam="2">  1       21 0.12801264E+00 0.28218957E+03</pdfrwt>
<totfact> 0.11249061E+04</totfact>
</mgrwt>
</event>
<event>
 4    2  0.3964208E+000  0.2208957E+03  0.7546771E-02  0.1133217E+00
         21   -1    0    0  503  502  0.00000000000E+00  0.00000000000E+00  0.10968458715E+03  0.10968458715E+03  0.00000000000E+00 0. -1.
         21   -1    0    0  501  503 -0.00000000000E+00 -0.00000000000E+00 -0.50276670581E+03  0.50276670581E+03  0.00000000000E+00 0. -1.
          6    1    1    2  501    0  0.13077890296E+03 -0.41985806037E+02 -0.92620681110E+02  0.23952770182E+03  0.17300000000E+03 0. -1.
         -6    1    1    2    0  502 -0.13077890296E+03  0.41985806037E+02 -0.30046143755E+03  0.37292359114E+03  0.17300000000E+03 0. -1.
<mgrwt>
<rscale>  2 0.22089574E+03</rscale>
<asrwt>0</asrwt>
<pdfrwt beam="1">  1       21 0.16874552E-01 0.22089574E+03</pdfrwt>
<pdfrwt beam="2">  1       21 0.77348724E-01 0.22089574E+03</pdfrwt>
<totfact> 0.46279160E+04</totfact>
</mgrwt>
</event>
<event>
 4    2  0.3964208E+000  0.2518096E+03  0.7546771E-02  0.1112167E+00
         21   -1    0    0  501  502  0.00000000000E+00  0.00000000000E+00  0.79677603208E+02  0.79677603208E+02  0.00000000000E+00 0.  1.
         21   -1    0    0  502  503 -0.00000000000E+00 -0.00000000000E+00 -0.79582802811E+03  0.79582802811E+03  0.00000000000E+00 0.  1.
          6    1    1    2  501    0 -0.17839512116E+03 -0.40672390250E+02 -0.35587129938E+03  0.43595004795E+03  0.17300000000E+03 0.  1.
         -6    1    1    2    0  503  0.17839512116E+03  0.40672390250E+02 -0.36027912552E+03  0.43955558337E+03  0.17300000000E+03 0.  1.
<mgrwt>
<rscale>  2 0.25180958E+03</rscale>
<asrwt>0</asrwt>
<pdfrwt beam="1">  1       21 0.12258093E-01 0.25180958E+03</pdfrwt>
<pdfrwt beam="2">  1       21 0.12243508E+00 0.25180958E+03</pdfrwt>
<totfact> 0.27476062E+04</totfact>
</mgrwt>
</event>
<event>
 4    2  0.3964208E+000  0.2679787E+03  0.7546771E-02  0.1102442E+00
         21   -1    0    0  501  502  0.00000000000E+00  0.00000000000E+00  0.65933585419E+03  0.65933585419E+03  0.00000000000E+00 0. -1.
         21   -1    0    0  502  503 -0.00000000000E+00 -0.00000000000E+00 -0.12175854267E+03  0.12175854267E+03  0.00000000000E+00 0. -1.
          6    1    1    2  501    0  0.70974459937E+02 -0.19195366576E+03  0.39562393981E+03  0.47783981156E+03  0.17300000000E+03 0. -1.
         -6    1    1    2    0  503 -0.70974459937E+02  0.19195366576E+03  0.14195337171E+03  0.30325458530E+03  0.17300000000E+03 0. -1.
<mgrwt>
<rscale>  2 0.26797870E+03</rscale>
<asrwt>0</asrwt>
<pdfrwt beam="1">  1       21 0.10143628E+00 0.26797870E+03</pdfrwt>
<pdfrwt beam="2">  1       21 0.18732084E-01 0.26797870E+03</pdfrwt>
<totfact> 0.19861909E+04</totfact>
</mgrwt>
</event>
<event>
 4    2  0.3964208E+000  0.2883846E+03  0.7546771E-02  0.1091196E+00
         21   -1    0    0  501  502  0.00000000000E+00  0.00000000000E+00  0.44664082430E+04  0.44664082430E+04  0.00000000000E+00 0. -1.
         21   -1    0    0  502  503 -0.00000000000E+00 -0.00000000000E+00 -0.38580042720E+02  0.38580042720E+02  0.00000000000E+00 0. -1.
          6    1    1    2  501    0 -0.76008133619E+02 -0.21785193764E+03  0.38340825596E+04  0.38449128439E+04  0.17300000000E+03 0. -1.
         -6    1    1    2    0  503  0.76008133619E+02  0.21785193764E+03  0.59374564069E+03  0.66007544186E+03  0.17300000000E+03 0. -1.
<mgrwt>
<rscale>  2 0.28838464E+03</rscale>
<asrwt>0</asrwt>
<pdfrwt beam="1">  1       21 0.68713932E+00 0.28838464E+03</pdfrwt>
<pdfrwt beam="2">  1       21 0.59353947E-02 0.28838464E+03</pdfrwt>
<totfact> 0.11240884E+01</totfact>
</mgrwt>
</event>
<event>
 4    2  0.3964208E+000  0.2520836E+03  0.7546771E-02  0.1111995E+00
         21   -1    0    0  501  502  0.00000000000E+00  0.00000000000E+00  0.20208866483E+03  0.20208866483E+03  0.00000000000E+00 0.  1.
         21   -1    0    0  502  503 -0.00000000000E+00 -0.00000000000E+00 -0.96794548807E+03  0.96794548807E+03  0.00000000000E+00 0. -1.
          6    1    1    2  501    0 -0.18206993092E+03  0.21626207843E+02  0.97761959451E+02  0.27037668784E+03  0.17300000000E+03 0.  1.
         -6    1    1    2    0  503  0.18206993092E+03 -0.21626207843E+02 -0.86361878269E+03  0.89965746506E+03  0.17300000000E+03 0. -1.
<mgrwt>
<rscale>  2 0.25208362E+03</rscale>
<asrwt>0</asrwt>
<pdfrwt beam="1">  1       21 0.31090564E-01 0.25208362E+03</pdfrwt>
<pdfrwt beam="2">  1       21 0.14891469E+00 0.25208362E+03</pdfrwt>
<totfact> 0.28853766E+03</totfact>
</mgrwt>
</event>
<event>
 4    2  0.3964208E+000  0.1840940E+03  0.7546771E-02  0.1163899E+00
         21   -1    0    0  501  502  0.00000000000E+00  0.00000000000E+00  0.13882784287E+02  0.13882784287E+02  0.00000000000E+00 0.  1.
         21   -1    0    0  502  503 -0.00000000000E+00 -0.00000000000E+00 -0.26747214885E+04  0.26747214885E+04  0.00000000000E+00 0.  1.
          6    1    1    2  501    0 -0.50407268382E+02  0.37692046614E+02 -0.93320428503E+03  0.95118916136E+03  0.17300000000E+03 0.  1.
         -6    1    1    2    0  503  0.50407268382E+02 -0.37692046614E+02 -0.17276344192E+04  0.17374151114E+04  0.17300000000E+03 0.  1.
<mgrwt>
<rscale>  2 0.18409395E+03</rscale>
<asrwt>0</asrwt>
<pdfrwt beam="1">  1       21 0.21358137E-02 0.18409395E+03</pdfrwt>
<pdfrwt beam="2">  1       21 0.41149546E+00 0.18409395E+03</pdfrwt>
<totfact> 0.82588122E+03</totfact>
</mgrwt>
</event>
<event>
 4    2  0.3964208E+000  0.2174782E+03  0.7546771E-02  0.1135777E+00
         21   -1    0    0  501  502  0.00000000000E+00  0.00000000000E+00  0.12727073759E+04  0.12727073759E+04  0.00000000000E+00 0. -1.
         21   -1    0    0  502  503 -0.00000000000E+00 -0.00000000000E+00 -0.52895340890E+02  0.52895340890E+02  0.00000000000E+00 0.  1.
          6    1    1    2  501    0  0.28976814592E+02  0.12856165937E+03  0.97138310041E+03  0.99543050174E+03  0.17300000000E+03 0. -1.
         -6    1    1    2    0  503 -0.28976814592E+02 -0.12856165937E+03  0.24842893463E+03  0.33017221507E+03  0.17300000000E+03 0.  1.
<mgrwt>
<rscale>  2 0.21747817E+03</rscale>
<asrwt>0</asrwt>
<pdfrwt beam="1">  1       21 0.19580111E+00 0.21747817E+03</pdfrwt>
<pdfrwt beam="2">  1       21 0.81377457E-02 0.21747817E+03</pdfrwt>
<totfact> 0.16340360E+04</totfact>
</mgrwt>
</event>
<event>
 4    2  0.3964208E+000  0.1805543E+03  0.7546771E-02  0.1167268E+00
         21   -1    0    0  501  502  0.00000000000E+00  0.00000000000E+00  0.10030077172E+03  0.10030077172E+03  0.00000000000E+00 0. -1.
         21   -1    0    0  502  503 -0.00000000000E+00 -0.00000000000E+00 -0.40893614894E+03  0.40893614894E+03  0.00000000000E+00 0. -1.
          6    1    1    2  501    0  0.24516239423E+01  0.51622074215E+02 -0.38977002476E+02  0.18471344220E+03  0.17300000000E+03 0. -1.
         -6    1    1    2    0  503 -0.24516239423E+01 -0.51622074215E+02 -0.26965837474E+03  0.32452347846E+03  0.17300000000E+03 0. -1.
<mgrwt>
<rscale>  2 0.18055428E+03</rscale>
<asrwt>0</asrwt>
<pdfrwt beam="1">  1       21 0.15430888E-01 0.18055428E+03</pdfrwt>
<pdfrwt beam="2">  1       21 0.62913253E-01 0.18055428E+03</pdfrwt>
<totfact> 0.87578544E+04</totfact>
</mgrwt>
</event>
<event>
 4    2  0.3964208E+000  0.2362965E+03  0.7546771E-02  0.1122285E+00
         21   -1    0    0  501  502  0.00000000000E+00  0.00000000000E+00  0.26762798521E+03  0.26762798521E+03  0.00000000000E+00 0.  1.
         21   -1    0    0  502  503 -0.00000000000E+00 -0.00000000000E+00 -0.36463940821E+03  0.36463940821E+03  0.00000000000E+00 0. -1.
          6    1    1    2  501    0 -0.43464615086E+02 -0.15497691770E+03  0.15827511551E+03  0.28440645206E+03  0.17300000000E+03 0.  1.
         -6    1    1    2    0  503  0.43464615086E+02  0.15497691770E+03 -0.25528653851E+03  0.34786094137E+03  0.17300000000E+03 0. -1.
<mgrwt>
<rscale>  2 0.23629646E+03</rscale>
<asrwt>0</asrwt>
<pdfrwt beam="1">  1       21 0.41173536E-01 0.23629646E+03</pdfrwt>
<pdfrwt beam="2">  1       21 0.56098371E-01 0.23629646E+03</pdfrwt>
<totfact> 0.16565172E+04</totfact>
</mgrwt>
</event>
<event>
 4    2  0.3964208E+000  0.1737980E+03  0.7546771E-02  0.1173944E+00
         21   -1    0    0  501  502  0.00000000000E+00  0.00000000000E+00  0.19338641751E+03  0.19338641751E+03  0.00000000000E+00 0.  1.
         21   -1    0    0  502  503 -0.00000000000E+00 -0.00000000000E+00 -0.19163541934E+03  0.19163541934E+03  0.00000000000E+00 0.  1.
          6    1    1    2  501    0 -0.12041495644E+02 -0.11478138606E+02  0.83664892665E+02  0.19288742714E+03  0.17300000000E+03 0.  1.
         -6    1    1    2    0  503  0.12041495644E+02  0.11478138606E+02 -0.81913894496E+02  0.19213440971E+03  0.17300000000E+03 0.  1.
<mgrwt>
<rscale>  2 0.17379800E+03</rscale>
<asrwt>0</asrwt>
<pdfrwt beam="1">  1       21 0.29751756E-01 0.17379800E+03</pdfrwt>
<pdfrwt beam="2">  1       21 0.29482372E-01 0.17379800E+03</pdfrwt>
<totfact> 0.12018692E+05</totfact>
</mgrwt>
</event>
<event>
 4    2  0.3964208E+000  0.2261461E+03  0.7546771E-02  0.1129382E+00
         21   -1    0    0  503  502  0.00000000000E+00  0.00000000000E+00  0.29833572318E+04  0.29833572318E+04  0.00000000000E+00 0. -1.
         21   -1    0    0  501  503 -0.00000000000E+00 -0.00000000000E+00 -0.25128639068E+02  0.25128639068E+02  0.00000000000E+00 0.  1.
          6    1    1    2  501    0  0.14107778027E+03  0.36195387072E+02  0.63109966549E+03  0.67039453601E+03  0.17300000000E+03 0.  1.
         -6    1    1    2    0  502 -0.14107778027E+03 -0.36195387072E+02  0.23271289273E+04  0.23380913349E+04  0.17300000000E+03 0. -1.
<mgrwt>
<rscale>  2 0.22614607E+03</rscale>
<asrwt>0</asrwt>
<pdfrwt beam="1">  1       21 0.45897776E+00 0.22614607E+03</pdfrwt>
<pdfrwt beam="2">  1       21 0.38659468E-02 0.22614607E+03</pdfrwt>
<totfact> 0.14329775E+03</totfact>
</mgrwt>
</event>
<event>
 4    2  0.3964208E+000  0.2247984E+03  0.7546771E-02  0.1130355E+00
         21   -1    0    0  501  502  0.00000000000E+00  0.00000000000E+00  0.41809545522E+03  0.41809545522E+03  0.00000000000E+00 0.  1.
         21   -1    0    0  502  503 -0.00000000000E+00 -0.00000000000E+00 -0.12402878426E+03  0.12402878426E+03  0.00000000000E+00 0. -1.
          6    1    1    2  501    0  0.38191117738E+02  0.13837187173E+03  0.10376111897E+03  0.24758979415E+03  0.17300000000E+03 0.  1.
         -6    1    1    2    0  503 -0.38191117738E+02 -0.13837187173E+03  0.19030555199E+03  0.29453444532E+03  0.17300000000E+03 0. -1.
<mgrwt>
<rscale>  2 0.22479843E+03</rscale>
<asrwt>0</asrwt>
<pdfrwt beam="1">  1       21 0.64322377E-01 0.22479843E+03</pdfrwt>
<pdfrwt beam="2">  1       21 0.19081352E-01 0.22479843E+03</pdfrwt>
<totfact> 0.55354761E+04</totfact>
</mgrwt>
</event>
<event>
 4    2  0.3964208E+000  0.2732858E+03  0.7546771E-02  0.1099414E+00
         21   -1    0    0  503  502  0.00000000000E+00  0.00000000000E+00  0.10346258388E+03  0.10346258388E+03  0.00000000000E+00 0. -1.
         21   -1    0    0  501  503 -0.00000000000E+00 -0.00000000000E+00 -0.80551777302E+03  0.80551777302E+03  0.00000000000E+00 0. -1.
          6    1    1    2  501    0  0.12823159873E+03 -0.16826400623E+03 -0.49749792942E+03  0.56761722003E+03  0.17300000000E+03 0. -1.
         -6    1    1    2    0  502 -0.12823159873E+03  0.16826400623E+03 -0.20455725972E+03  0.34136313686E+03  0.17300000000E+03 0. -1.
<mgrwt>
<rscale>  2 0.27328578E+03</rscale>
<asrwt>0</asrwt>
<pdfrwt beam="1">  1       21 0.15917321E-01 0.27328578E+03</pdfrwt>
<pdfrwt beam="2">  1       21 0.12392581E+00 0.27328578E+03</pdfrwt>
<totfact> 0.16379829E+04</totfact>
</mgrwt>
</event>
<event>
 4    2  0.3964208E+000  0.2362684E+03  0.7546771E-02  0.1122304E+00
         21   -1    0    0  501  502  0.00000000000E+00  0.00000000000E+00  0.78920553199E+03  0.78920553199E+03  0.00000000000E+00 0.  1.
         21   -1    0    0  502  503 -0.00000000000E+00 -0.00000000000E+00 -0.12989251878E+03  0.12989251878E+03  0.00000000000E+00 0. -1.
          6    1    1    2  501    0 -0.15483352675E+03  0.43821791591E+02  0.63979279307E+03  0.68202462454E+03  0.17300000000E+03 0.  1.
         -6    1    1    2    0  503  0.15483352675E+03 -0.43821791591E+02  0.19520220145E+02  0.23707342622E+03  0.17300000000E+03 0. -1.
<mgrwt>
<rscale>  2 0.23626843E+03</rscale>
<asrwt>0</asrwt>
<pdfrwt beam="1">  1       21 0.12141623E+00 0.23626843E+03</pdfrwt>
<pdfrwt beam="2">  1       21 0.19983465E-01 0.23626843E+03</pdfrwt>
<totfact> 0.11522133E+04</totfact>
</mgrwt>
</event>
<event>
 4    2  0.3964208E+000  0.1843933E+03  0.7546771E-02  0.1163618E+00
         21   -1    0    0  501  502  0.00000000000E+00  0.00000000000E+00  0.92134912071E+03  0.92134912071E+03  0.00000000000E+00 0. -1.
         21   -1    0    0  502  503 -0.00000000000E+00 -0.00000000000E+00 -0.62956938101E+02  0.62956938101E+02  0.00000000000E+00 0. -1.
          6    1    1    2  501    0 -0.48574853627E+02  0.41381014612E+02  0.74579674858E+03  0.76825366577E+03  0.17300000000E+03 0. -1.
         -6    1    1    2    0  503  0.48574853627E+02 -0.41381014612E+02  0.11259543403E+03  0.21605239304E+03  0.17300000000E+03 0. -1.
<mgrwt>
<rscale>  2 0.18439334E+03</rscale>
<asrwt>0</asrwt>
<pdfrwt beam="1">  1       21 0.14174601E+00 0.18439334E+03</pdfrwt>
<pdfrwt beam="2">  1       21 0.96856834E-02 0.18439334E+03</pdfrwt>
<totfact> 0.29899659E+04</totfact>
</mgrwt>
</event>
<event>
 4    2  0.3964208E+000  0.1993686E+03  0.7546771E-02  0.1150273E+00
         21   -1    0    0  501  502  0.00000000000E+00  0.00000000000E+00  0.75475958550E+02  0.75475958550E+02  0.00000000000E+00 0.  1.
         21   -1    0    0  502  503 -0.00000000000E+00 -0.00000000000E+00 -0.83737731064E+03  0.83737731064E+03  0.00000000000E+00 0.  1.
          6    1    1    2  501    0 -0.54400077775E+01 -0.98940658737E+02 -0.10290599170E+03  0.22436018088E+03  0.17300000000E+03 0.  1.
         -6    1    1    2    0  503  0.54400077775E+01  0.98940658737E+02 -0.65899536039E+03  0.68849308832E+03  0.17300000000E+03 0.  1.
<mgrwt>
<rscale>  2 0.19936862E+03</rscale>
<asrwt>0</asrwt>
<pdfrwt beam="1">  1       21 0.11611687E-01 0.19936862E+03</pdfrwt>
<pdfrwt beam="2">  1       21 0.12882727E+00 0.19936862E+03</pdfrwt>
<totfact> 0.27409787E+04</totfact>
</mgrwt>
</event>
<event>
 4    2  0.3964208E+000  0.1925497E+03  0.7546771E-02  0.1156182E+00
         21   -1    0    0  501  502  0.00000000000E+00  0.00000000000E+00  0.19693731394E+03  0.19693731394E+03  0.00000000000E+00 0.  1.
         21   -1    0    0  502  503 -0.00000000000E+00 -0.00000000000E+00 -0.40221180451E+03  0.40221180451E+03  0.00000000000E+00 0. -1.
          6    1    1    2  501    0  0.82925015143E+02  0.16426626748E+02  0.11585480311E+03  0.22471699448E+03  0.17300000000E+03 0.  1.
         -6    1    1    2    0  503 -0.82925015143E+02 -0.16426626748E+02 -0.32112929368E+03  0.37443212397E+03  0.17300000000E+03 0. -1.
<mgrwt>
<rscale>  2 0.19254971E+03</rscale>
<asrwt>0</asrwt>
<pdfrwt beam="1">  1       21 0.30298049E-01 0.19254971E+03</pdfrwt>
<pdfrwt beam="2">  1       21 0.61878738E-01 0.19254971E+03</pdfrwt>
<totfact> 0.25348805E+04</totfact>
</mgrwt>
</event>
<event>
 4    2  0.3964208E+000  0.1845086E+03  0.7546771E-02  0.1163510E+00
         21   -1    0    0  501  502  0.00000000000E+00  0.00000000000E+00  0.27589221358E+03  0.27589221358E+03  0.00000000000E+00 0. -1.
         21   -1    0    0  502  503 -0.00000000000E+00 -0.00000000000E+00 -0.24761451587E+03  0.24761451587E+03  0.00000000000E+00 0.  1.
          6    1    1    2  501    0  0.63044258056E+02 -0.11826092980E+02  0.19953509783E+03  0.27176771371E+03  0.17300000000E+03 0. -1.
         -6    1    1    2    0  503 -0.63044258056E+02  0.11826092980E+02 -0.17125740012E+03  0.25173901574E+03  0.17300000000E+03 0.  1.
<mgrwt>
<rscale>  2 0.18450863E+03</rscale>
<asrwt>0</asrwt>
<pdfrwt beam="1">  1       21 0.42444956E-01 0.18450863E+03</pdfrwt>
<pdfrwt beam="2">  1       21 0.38094541E-01 0.18450863E+03</pdfrwt>
<totfact> 0.35637801E+04</totfact>
</mgrwt>
</event>
<event>
 4    2  0.3964208E+000  0.1806752E+03  0.7546771E-02  0.1167151E+00
         21   -1    0    0  503  502  0.00000000000E+00  0.00000000000E+00  0.24010075805E+03  0.24010075805E+03  0.00000000000E+00 0. -1.
         21   -1    0    0  501  503 -0.00000000000E+00 -0.00000000000E+00 -0.17475971072E+03  0.17475971072E+03  0.00000000000E+00 0. -1.
          6    1    1    2  501    0  0.34827777496E+02 -0.38749802405E+02 -0.65071001378E+02  0.19203582086E+03  0.17300000000E+03 0. -1.
         -6    1    1    2    0  502 -0.34827777496E+02  0.38749802405E+02  0.13041204871E+03  0.22282464792E+03  0.17300000000E+03 0. -1.
<mgrwt>
<rscale>  2 0.18067518E+03</rscale>
<asrwt>0</asrwt>
<pdfrwt beam="1">  1       21 0.36938578E-01 0.18067518E+03</pdfrwt>
<pdfrwt beam="2">  1       21 0.26886109E-01 0.18067518E+03</pdfrwt>
<totfact> 0.93561525E+04</totfact>
</mgrwt>
</event>
<event>
 4    2  0.3964208E+000  0.2231149E+03  0.7546771E-02  0.1131582E+00
         21   -1    0    0  501  502  0.00000000000E+00  0.00000000000E+00  0.34478577586E+03  0.34478577586E+03  0.00000000000E+00 0. -1.
         21   -1    0    0  502  503 -0.00000000000E+00 -0.00000000000E+00 -0.16519597564E+03  0.16519597564E+03  0.00000000000E+00 0. -1.
          6    1    1    2  501    0 -0.26177312081E+02 -0.13844140699E+03  0.18030981180E+03  0.28686565335E+03  0.17300000000E+03 0. -1.
         -6    1    1    2    0  503  0.26177312081E+02  0.13844140699E+03 -0.72001157906E+00  0.22311609815E+03  0.17300000000E+03 0. -1.
<mgrwt>
<rscale>  2 0.22311494E+03</rscale>
<asrwt>0</asrwt>
<pdfrwt beam="1">  1       21 0.53043965E-01 0.22311494E+03</pdfrwt>
<pdfrwt beam="2">  1       21 0.25414766E-01 0.22311494E+03</pdfrwt>
<totfact> 0.48707852E+04</totfact>
</mgrwt>
</event>
<event>
 4    2  0.3964208E+000  0.1772163E+03  0.7546771E-02  0.1170525E+00
         21   -1    0    0  501  502  0.00000000000E+00  0.00000000000E+00  0.11956352315E+03  0.11956352315E+03  0.00000000000E+00 0. -1.
         21   -1    0    0  502  503 -0.00000000000E+00 -0.00000000000E+00 -0.30385507431E+03  0.30385507431E+03  0.00000000000E+00 0. -1.
          6    1    1    2  501    0  0.44802605664E+01 -0.38164630805E+02 -0.14201767126E+02  0.17778442555E+03  0.17300000000E+03 0. -1.
         -6    1    1    2    0  503 -0.44802605664E+01  0.38164630805E+02 -0.17008978403E+03  0.24563417191E+03  0.17300000000E+03 0. -1.
<mgrwt>
<rscale>  2 0.17721629E+03</rscale>
<asrwt>0</asrwt>
<pdfrwt beam="1">  1       21 0.18394388E-01 0.17721629E+03</pdfrwt>
<pdfrwt beam="2">  1       21 0.46746935E-01 0.17721629E+03</pdfrwt>
<totfact> 0.11882216E+05</totfact>
</mgrwt>
</event>
<event>
 4    2  0.3964208E+000  0.1792398E+03  0.7546771E-02  0.1168541E+00
         21   -1    0    0  503  502  0.00000000000E+00  0.00000000000E+00  0.80320794968E+02  0.80320794968E+02  0.00000000000E+00 0. -1.
         21   -1    0    0  501  503 -0.00000000000E+00 -0.00000000000E+00 -0.50417170150E+03  0.50417170150E+03  0.00000000000E+00 0. -1.
          6    1    1    2  501    0  0.38129183681E+02  0.27277919117E+02 -0.34477830499E+03  0.38858589670E+03  0.17300000000E+03 0. -1.
         -6    1    1    2    0  502 -0.38129183681E+02 -0.27277919117E+02 -0.79072601541E+02  0.19590659977E+03  0.17300000000E+03 0. -1.
<mgrwt>
<rscale>  2 0.17923984E+03</rscale>
<asrwt>0</asrwt>
<pdfrwt beam="1">  1       21 0.12357045E-01 0.17923984E+03</pdfrwt>
<pdfrwt beam="2">  1       21 0.77564879E-01 0.17923984E+03</pdfrwt>
<totfact> 0.82565937E+04</totfact>
</mgrwt>
</event>
<event>
 4    2  0.3964208E+000  0.2141509E+03  0.7546771E-02  0.1138320E+00
         21   -1    0    0  501  502  0.00000000000E+00  0.00000000000E+00  0.10508350619E+04  0.10508350619E+04  0.00000000000E+00 0.  1.
         21   -1    0    0  502  503 -0.00000000000E+00 -0.00000000000E+00 -0.45660966177E+02  0.45660966177E+02  0.00000000000E+00 0.  1.
          6    1    1    2  501    0 -0.35099011320E+02  0.12124227166E+03  0.38730536336E+03  0.44256759203E+03  0.17300000000E+03 0.  1.
         -6    1    1    2    0  503  0.35099011320E+02 -0.12124227166E+03  0.61786873241E+03  0.65392843609E+03  0.17300000000E+03 0.  1.
<mgrwt>
<rscale>  2 0.21415095E+03</rscale>
<asrwt>0</asrwt>
<pdfrwt beam="1">  1       21 0.16166691E+00 0.21415095E+03</pdfrwt>
<pdfrwt beam="2">  1       21 0.70247648E-02 0.21415095E+03</pdfrwt>
<totfact> 0.36316591E+04</totfact>
</mgrwt>
</event>
<event>
 4    2  0.3964208E+000  0.1815676E+03  0.7546771E-02  0.1166294E+00
         21   -1    0    0  501  502  0.00000000000E+00  0.00000000000E+00  0.99462569543E+03  0.99462569543E+03  0.00000000000E+00 0.  1.
         21   -1    0    0  502  503 -0.00000000000E+00 -0.00000000000E+00 -0.14642853981E+03  0.14642853981E+03  0.00000000000E+00 0.  1.
          6    1    1    2  501    0 -0.51624325255E+02 -0.19306096782E+02  0.92591742775E+03  0.94355173644E+03  0.17300000000E+03 0.  1.
         -6    1    1    2    0  503  0.51624325255E+02  0.19306096782E+02 -0.77720272125E+02  0.19750249879E+03  0.17300000000E+03 0.  1.
<mgrwt>
<rscale>  2 0.18156761E+03</rscale>
<asrwt>0</asrwt>
<pdfrwt beam="1">  1       21 0.15301933E+00 0.18156761E+03</pdfrwt>
<pdfrwt beam="2">  1       21 0.22527468E-01 0.18156761E+03</pdfrwt>
<totfact> 0.52845352E+03</totfact>
</mgrwt>
</event>
<event>
 4    2  0.3964208E+000  0.2359000E+03  0.7546771E-02  0.1122555E+00
         21   -1    0    0  503  502  0.00000000000E+00  0.00000000000E+00  0.83443697089E+03  0.83443697089E+03  0.00000000000E+00 0. -1.
         21   -1    0    0  501  503 -0.00000000000E+00 -0.00000000000E+00 -0.12100725314E+03  0.12100725314E+03  0.00000000000E+00 0. -1.
          6    1    1    2  501    0  0.15764952884E+03  0.29435480252E+02  0.36650372352E+02  0.23873012218E+03  0.17300000000E+03 0. -1.
         -6    1    1    2    0  502 -0.15764952884E+03 -0.29435480252E+02  0.67677934539E+03  0.71671410185E+03  0.17300000000E+03 0. -1.
<mgrwt>
<rscale>  2 0.23590002E+03</rscale>
<asrwt>0</asrwt>
<pdfrwt beam="1">  1       21 0.12837492E+00 0.23590002E+03</pdfrwt>
<pdfrwt beam="2">  1       21 0.18616501E-01 0.23590002E+03</pdfrwt>
<totfact> 0.11434440E+04</totfact>
</mgrwt>
</event>
<event>
 4    2  0.3964208E+000  0.1765264E+03  0.7546771E-02  0.1171208E+00
         21   -1    0    0  503  502  0.00000000000E+00  0.00000000000E+00  0.41293902309E+03  0.41293902309E+03  0.00000000000E+00 0. -1.
         21   -1    0    0  501  503 -0.00000000000E+00 -0.00000000000E+00 -0.14171309492E+03  0.14171309492E+03  0.00000000000E+00 0. -1.
          6    1    1    2  501    0  0.18609062900E+02 -0.29770547724E+02 -0.54004885500E+02  0.18460257417E+03  0.17300000000E+03 0.  1.
         -6    1    1    2    0  502 -0.18609062900E+02  0.29770547724E+02  0.32523081367E+03  0.37004954383E+03  0.17300000000E+03 0.  1.
<mgrwt>
<rscale>  2 0.17652644E+03</rscale>
<asrwt>0</asrwt>
<pdfrwt beam="1">  1       21 0.63529080E-01 0.17652644E+03</pdfrwt>
<pdfrwt beam="2">  1       21 0.21802015E-01 0.17652644E+03</pdfrwt>
<totfact> 0.45333645E+04</totfact>
</mgrwt>
</event>
<event>
 4    2  0.3964208E+000  0.2364296E+03  0.7546771E-02  0.1122194E+00
         21   -1    0    0  501  502  0.00000000000E+00  0.00000000000E+00  0.12366610971E+03  0.12366610971E+03  0.00000000000E+00 0.  1.
         21   -1    0    0  502  503 -0.00000000000E+00 -0.00000000000E+00 -0.54132219731E+03  0.54132219731E+03  0.00000000000E+00 0. -1.
          6    1    1    2  501    0  0.16041086780E+03  0.15436612851E+02 -0.73776564372E+02  0.24767300413E+03  0.17300000000E+03 0. -1.
         -6    1    1    2    0  503 -0.16041086780E+03 -0.15436612851E+02 -0.34387952323E+03  0.41731530289E+03  0.17300000000E+03 0. -1.
<mgrwt>
<rscale>  2 0.23642956E+03</rscale>
<asrwt>0</asrwt>
<pdfrwt beam="1">  1       21 0.19025555E-01 0.23642956E+03</pdfrwt>
<pdfrwt beam="2">  1       21 0.83280338E-01 0.23642956E+03</pdfrwt>
<totfact> 0.31088409E+04</totfact>
</mgrwt>
</event>
<event>
 4    2  0.3964208E+000  0.2582087E+03  0.7546771E-02  0.1108224E+00
         21   -1    0    0  503  502  0.00000000000E+00  0.00000000000E+00  0.43744209523E+03  0.43744209523E+03  0.00000000000E+00 0.  1.
         21   -1    0    0  501  503 -0.00000000000E+00 -0.00000000000E+00 -0.15784353951E+03  0.15784353951E+03  0.00000000000E+00 0.  1.
          6    1    1    2  501    0 -0.19168150449E+03 -0.95617374245E+00  0.84589363192E+02  0.27171137959E+03  0.17300000000E+03 0.  1.
         -6    1    1    2    0  502  0.19168150449E+03  0.95617374245E+00  0.19500919253E+03  0.32357425516E+03  0.17300000000E+03 0.  1.
<mgrwt>
<rscale>  2 0.25820866E+03</rscale>
<asrwt>0</asrwt>
<pdfrwt beam="1">  1       21 0.67298783E-01 0.25820866E+03</pdfrwt>
<pdfrwt beam="2">  1       21 0.24283622E-01 0.25820866E+03</pdfrwt>
<totfact> 0.31319282E+04</totfact>
</mgrwt>
</event>
<event>
 4    2  0.3964208E+000  0.1741860E+03  0.7546771E-02  0.1173552E+00
         21   -1    0    0  503  502  0.00000000000E+00  0.00000000000E+00  0.49132127805E+02  0.49132127805E+02  0.00000000000E+00 0. -1.
         21   -1    0    0  501  503 -0.00000000000E+00 -0.00000000000E+00 -0.62711630281E+03  0.62711630281E+03  0.00000000000E+00 0. -1.
          6    1    1    2  501    0 -0.50299062580E+01 -0.19658374222E+02 -0.33078866891E+03  0.37384742224E+03  0.17300000000E+03 0.  1.
         -6    1    1    2    0  502  0.50299062580E+01  0.19658374222E+02 -0.24719550610E+03  0.30240100838E+03  0.17300000000E+03 0.  1.
<mgrwt>
<rscale>  2 0.17418597E+03</rscale>
<asrwt>0</asrwt>
<pdfrwt beam="1">  1       21 0.75587893E-02 0.17418597E+03</pdfrwt>
<pdfrwt beam="2">  1       21 0.96479426E-01 0.17418597E+03</pdfrwt>
<totfact> 0.11917063E+05</totfact>
</mgrwt>
</event>
<event>
 4    2  0.3964208E+000  0.1919678E+03  0.7546771E-02  0.1156698E+00
         21   -1    0    0  503  502  0.00000000000E+00  0.00000000000E+00  0.46315231670E+03  0.46315231670E+03  0.00000000000E+00 0. -1.
         21   -1    0    0  501  503 -0.00000000000E+00 -0.00000000000E+00 -0.80992642325E+02  0.80992642325E+02  0.00000000000E+00 0.  1.
          6    1    1    2  501    0 -0.36075630824E+02 -0.74974616160E+02  0.15498327326E+03  0.24672142023E+03  0.17300000000E+03 0.  1.
         -6    1    1    2    0  502  0.36075630824E+02  0.74974616160E+02  0.22717640111E+03  0.29742353879E+03  0.17300000000E+03 0. -1.
<mgrwt>
<rscale>  2 0.19196782E+03</rscale>
<asrwt>0</asrwt>
<pdfrwt beam="1">  1       21 0.71254201E-01 0.19196782E+03</pdfrwt>
<pdfrwt beam="2">  1       21 0.12460407E-01 0.19196782E+03</pdfrwt>
<totfact> 0.97762485E+04</totfact>
</mgrwt>
</event>
<event>
 4    2  0.3964208E+000  0.1761813E+03  0.7546771E-02  0.1171551E+00
         21   -1    0    0  501  502  0.00000000000E+00  0.00000000000E+00  0.19477440793E+03  0.19477440793E+03  0.00000000000E+00 0.  1.
         21   -1    0    0  502  503 -0.00000000000E+00 -0.00000000000E+00 -0.92547451971E+03  0.92547451971E+03  0.00000000000E+00 0.  1.
          6    1    1    2  501    0  0.31717073809E+02  0.10241187267E+02  0.14427206896E+03  0.22771535866E+03  0.17300000000E+03 0.  1.
         -6    1    1    2    0  503 -0.31717073809E+02 -0.10241187267E+02 -0.87497218074E+03  0.89253356898E+03  0.17300000000E+03 0.  1.
<mgrwt>
<rscale>  2 0.17618131E+03</rscale>
<asrwt>0</asrwt>
<pdfrwt beam="1">  1       21 0.29965294E-01 0.17618131E+03</pdfrwt>
<pdfrwt beam="2">  1       21 0.14238069E+00 0.17618131E+03</pdfrwt>
<totfact> 0.37128456E+03</totfact>
</mgrwt>
</event>
<event>
 4    2  0.3964208E+000  0.2026832E+03  0.7546771E-02  0.1147495E+00
         21   -1    0    0  503  502  0.00000000000E+00  0.00000000000E+00  0.16153297343E+03  0.16153297343E+03  0.00000000000E+00 0.  1.
         21   -1    0    0  501  503 -0.00000000000E+00 -0.00000000000E+00 -0.26544200222E+03  0.26544200222E+03  0.00000000000E+00 0.  1.
          6    1    1    2  501    0 -0.24798794442E+02 -0.10264753958E+03 -0.95661188639E+02  0.22412398488E+03  0.17300000000E+03 0.  1.
         -6    1    1    2    0  502  0.24798794442E+02  0.10264753958E+03 -0.82478401509E+01  0.20285099077E+03  0.17300000000E+03 0.  1.
<mgrwt>
<rscale>  2 0.20268324E+03</rscale>
<asrwt>0</asrwt>
<pdfrwt beam="1">  1       21 0.24851227E-01 0.20268324E+03</pdfrwt>
<pdfrwt beam="2">  1       21 0.40837230E-01 0.20268324E+03</pdfrwt>
<totfact> 0.88123122E+04</totfact>
</mgrwt>
</event>
<event>
 4    2  0.3964208E+000  0.2197159E+03  0.7546771E-02  0.1134095E+00
         21   -1    0    0  503  502  0.00000000000E+00  0.00000000000E+00  0.90122387075E+02  0.90122387075E+02  0.00000000000E+00 0.  1.
         21   -1    0    0  501  503 -0.00000000000E+00 -0.00000000000E+00 -0.54445614664E+03  0.54445614664E+03  0.00000000000E+00 0.  1.
          6    1    1    2  501    0 -0.74838455127E+02 -0.11289497459E+03 -0.26749328727E+03  0.34616141955E+03  0.17300000000E+03 0.  1.
         -6    1    1    2    0  502  0.74838455127E+02  0.11289497459E+03 -0.18684047230E+03  0.28841711417E+03  0.17300000000E+03 0.  1.
<mgrwt>
<rscale>  2 0.21971588E+03</rscale>
<asrwt>0</asrwt>
<pdfrwt beam="1">  1       21 0.13864983E-01 0.21971588E+03</pdfrwt>
<pdfrwt beam="2">  1       21 0.83762484E-01 0.21971588E+03</pdfrwt>
<totfact> 0.55351734E+04</totfact>
</mgrwt>
</event>
<event>
 4    2  0.3964208E+000  0.4243291E+03  0.7546771E-02  0.1035666E+00
         21   -1    0    0  501  502  0.00000000000E+00  0.00000000000E+00  0.36648485725E+03  0.36648485725E+03  0.00000000000E+00 0. -1.
         21   -1    0    0  502  503 -0.00000000000E+00 -0.00000000000E+00 -0.61342247653E+03  0.61342247653E+03  0.00000000000E+00 0. -1.
          6    1    1    2  501    0 -0.30806563093E+03  0.23499311848E+03 -0.34207739085E+03  0.54504324602E+03  0.17300000000E+03 0. -1.
         -6    1    1    2    0  503  0.30806563093E+03 -0.23499311848E+03  0.95139771577E+02  0.43486408777E+03  0.17300000000E+03 0. -1.
<mgrwt>
<rscale>  2 0.42432912E+03</rscale>
<asrwt>0</asrwt>
<pdfrwt beam="1">  1       21 0.56382286E-01 0.42432912E+03</pdfrwt>
<pdfrwt beam="2">  1       21 0.94372688E-01 0.42432912E+03</pdfrwt>
<totfact> 0.24349781E+03</totfact>
</mgrwt>
</event>
<event>
 4    2  0.3964208E+000  0.2708132E+03  0.7546771E-02  0.1100815E+00
         21   -1    0    0  503  502  0.00000000000E+00  0.00000000000E+00  0.26402831310E+03  0.26402831310E+03  0.00000000000E+00 0. -1.
         21   -1    0    0  501  503 -0.00000000000E+00 -0.00000000000E+00 -0.30704731771E+03  0.30704731771E+03  0.00000000000E+00 0.  1.
          6    1    1    2  501    0  0.18845466690E+03  0.88857407581E+02 -0.10967693552E+03  0.29217944921E+03  0.17300000000E+03 0.  1.
         -6    1    1    2    0  502 -0.18845466690E+03 -0.88857407581E+02  0.66657930909E+02  0.27889618160E+03  0.17300000000E+03 0. -1.
<mgrwt>
<rscale>  2 0.27081322E+03</rscale>
<asrwt>0</asrwt>
<pdfrwt beam="1">  1       21 0.40619741E-01 0.27081322E+03</pdfrwt>
<pdfrwt beam="2">  1       21 0.47238049E-01 0.27081322E+03</pdfrwt>
<totfact> 0.24072365E+04</totfact>
</mgrwt>
</event>
<event>
 4    2  0.3964208E+000  0.2056237E+03  0.7546771E-02  0.1145079E+00
         21   -1    0    0  501  502  0.00000000000E+00  0.00000000000E+00  0.82383997054E+02  0.82383997054E+02  0.00000000000E+00 0.  1.
         21   -1    0    0  502  503 -0.00000000000E+00 -0.00000000000E+00 -0.56578620601E+03  0.56578620601E+03  0.00000000000E+00 0. -1.
          6    1    1    2  501    0 -0.74558533854E+02  0.82420494634E+02 -0.34048503647E+03  0.39775768122E+03  0.17300000000E+03 0. -1.
         -6    1    1    2    0  503  0.74558533854E+02 -0.82420494634E+02 -0.14291717248E+03  0.25041252184E+03  0.17300000000E+03 0.  1.
<mgrwt>
<rscale>  2 0.20562372E+03</rscale>
<asrwt>0</asrwt>
<pdfrwt beam="1">  1       21 0.12674461E-01 0.20562372E+03</pdfrwt>
<pdfrwt beam="2">  1       21 0.87044031E-01 0.20562372E+03</pdfrwt>
<totfact> 0.59993773E+04</totfact>
</mgrwt>
</event>
<event>
 4    2  0.3964208E+000  0.2309584E+03  0.7546771E-02  0.1125967E+00
         21   -1    0    0  501  502  0.00000000000E+00  0.00000000000E+00  0.96635783772E+03  0.96635783772E+03  0.00000000000E+00 0.  1.
         21   -1    0    0  502  503 -0.00000000000E+00 -0.00000000000E+00 -0.10207075983E+03  0.10207075983E+03  0.00000000000E+00 0.  1.
          6    1    1    2  501    0 -0.22121854839E+02 -0.15140477026E+03  0.79415427350E+03  0.82705670364E+03  0.17300000000E+03 0.  1.
         -6    1    1    2    0  503  0.22121854839E+02  0.15140477026E+03  0.70132804391E+02  0.24137189391E+03  0.17300000000E+03 0.  1.
<mgrwt>
<rscale>  2 0.23095840E+03</rscale>
<asrwt>0</asrwt>
<pdfrwt beam="1">  1       21 0.14867043E+00 0.23095840E+03</pdfrwt>
<pdfrwt beam="2">  1       21 0.15703194E-01 0.23095840E+03</pdfrwt>
<totfact> 0.10746325E+04</totfact>
</mgrwt>
</event>
<event>
 4    2  0.3964208E+000  0.2577250E+03  0.7546771E-02  0.1108518E+00
         21   -1    0    0  503  502  0.00000000000E+00  0.00000000000E+00  0.15844885682E+03  0.15844885682E+03  0.00000000000E+00 0.  1.
         21   -1    0    0  501  503 -0.00000000000E+00 -0.00000000000E+00 -0.43228010469E+03  0.43228010469E+03  0.00000000000E+00 0.  1.
          6    1    1    2  501    0 -0.16867789885E+03 -0.89671284242E+02 -0.18828899715E+03  0.31917850683E+03  0.17300000000E+03 0.  1.
         -6    1    1    2    0  502  0.16867789885E+03  0.89671284242E+02 -0.85542250721E+02  0.27155045468E+03  0.17300000000E+03 0.  1.
<mgrwt>
<rscale>  2 0.25772499E+03</rscale>
<asrwt>0</asrwt>
<pdfrwt beam="1">  1       21 0.24376748E-01 0.25772499E+03</pdfrwt>
<pdfrwt beam="2">  1       21 0.66504630E-01 0.25772499E+03</pdfrwt>
<totfact> 0.31920998E+04</totfact>
</mgrwt>
</event>
<event>
 4    2  0.3964208E+000  0.1990992E+03  0.7546771E-02  0.1150501E+00
         21   -1    0    0  503  502  0.00000000000E+00  0.00000000000E+00  0.53570208075E+02  0.53570208075E+02  0.00000000000E+00 0. -1.
         21   -1    0    0  501  503 -0.00000000000E+00 -0.00000000000E+00 -0.20587150405E+04  0.20587150405E+04  0.00000000000E+00 0. -1.
          6    1    1    2  501    0 -0.47947144045E+02  0.86096288730E+02 -0.18478598293E+04  0.18585549355E+04  0.17300000000E+03 0. -1.
         -6    1    1    2    0  502  0.47947144045E+02 -0.86096288730E+02 -0.15728500309E+03  0.25373031303E+03  0.17300000000E+03 0. -1.
<mgrwt>
<rscale>  2 0.19909922E+03</rscale>
<asrwt>0</asrwt>
<pdfrwt beam="1">  1       21 0.82415704E-02 0.19909922E+03</pdfrwt>
<pdfrwt beam="2">  1       21 0.31672539E+00 0.19909922E+03</pdfrwt>
<totfact> 0.30902856E+03</totfact>
</mgrwt>
</event>
<event>
 4    2  0.3964208E+000  0.2375534E+03  0.7546771E-02  0.1121433E+00
         21   -1    0    0  503  502  0.00000000000E+00  0.00000000000E+00  0.84983211178E+03  0.84983211178E+03  0.00000000000E+00 0. -1.
         21   -1    0    0  501  503 -0.00000000000E+00 -0.00000000000E+00 -0.85876156253E+02  0.85876156253E+02  0.00000000000E+00 0.  1.
          6    1    1    2  501    0 -0.13274964578E+03 -0.94234513949E+02  0.15919111051E+03  0.28596052479E+03  0.17300000000E+03 0.  1.
         -6    1    1    2    0  502  0.13274964578E+03  0.94234513949E+02  0.60476484502E+03  0.64974774324E+03  0.17300000000E+03 0. -1.
<mgrwt>
<rscale>  2 0.23755339E+03</rscale>
<asrwt>0</asrwt>
<pdfrwt beam="1">  1       21 0.13074340E+00 0.23755339E+03</pdfrwt>
<pdfrwt beam="2">  1       21 0.13211717E-01 0.23755339E+03</pdfrwt>
<totfact> 0.20473646E+04</totfact>
</mgrwt>
</event>
<event>
 4    2  0.3964208E+000  0.2309613E+03  0.7546771E-02  0.1125965E+00
         21   -1    0    0  501  502  0.00000000000E+00  0.00000000000E+00  0.87180028252E+02  0.87180028252E+02  0.00000000000E+00 0. -1.
         21   -1    0    0  502  503 -0.00000000000E+00 -0.00000000000E+00 -0.29579072887E+04  0.29579072887E+04  0.00000000000E+00 0.  1.
          6    1    1    2  501    0 -0.13591822632E+03  0.70287745163E+02 -0.79410662089E+02  0.24423182556E+03  0.17300000000E+03 0. -1.
         -6    1    1    2    0  503  0.13591822632E+03 -0.70287745163E+02 -0.27913165984E+04  0.28008554914E+04  0.17300000000E+03 0.  1.
<mgrwt>
<rscale>  2 0.23096132E+03</rscale>
<asrwt>0</asrwt>
<pdfrwt beam="1">  1       21 0.13412314E-01 0.23096132E+03</pdfrwt>
<pdfrwt beam="2">  1       21 0.45506260E+00 0.23096132E+03</pdfrwt>
<totfact> 0.17363447E+02</totfact>
</mgrwt>
</event>
<event>
 4    2  0.3964208E+000  0.2305331E+03  0.7546771E-02  0.1126265E+00
         21   -1    0    0  503  502  0.00000000000E+00  0.00000000000E+00  0.29382374315E+03  0.29382374315E+03  0.00000000000E+00 0.  1.
         21   -1    0    0  501  503 -0.00000000000E+00 -0.00000000000E+00 -0.43099829170E+03  0.43099829170E+03  0.00000000000E+00 0.  1.
          6    1    1    2  501    0  0.14527682953E+02  0.15167549315E+03 -0.34467066099E+03  0.41466055195E+03  0.17300000000E+03 0.  1.
         -6    1    1    2    0  502 -0.14527682953E+02 -0.15167549315E+03  0.20749611245E+03  0.31016148290E+03  0.17300000000E+03 0.  1.
<mgrwt>
<rscale>  2 0.23053310E+03</rscale>
<asrwt>0</asrwt>
<pdfrwt beam="1">  1       21 0.45203653E-01 0.23053310E+03</pdfrwt>
<pdfrwt beam="2">  1       21 0.66307429E-01 0.23053310E+03</pdfrwt>
<totfact> 0.95565131E+03</totfact>
</mgrwt>
</event>
<event>
 4    2  0.3964208E+000  0.1774698E+03  0.7546771E-02  0.1170275E+00
         21   -1    0    0  503  502  0.00000000000E+00  0.00000000000E+00  0.73855167219E+02  0.73855167219E+02  0.00000000000E+00 0.  1.
         21   -1    0    0  501  503 -0.00000000000E+00 -0.00000000000E+00 -0.58115853352E+03  0.58115853352E+03  0.00000000000E+00 0.  1.
          6    1    1    2  501    0 -0.20130331299E+02  0.34077751201E+02 -0.42262979570E+03  0.45837917446E+03  0.17300000000E+03 0.  1.
         -6    1    1    2    0  502  0.20130331299E+02 -0.34077751201E+02 -0.84673570594E+02  0.19663452627E+03  0.17300000000E+03 0.  1.
<mgrwt>
<rscale>  2 0.17746978E+03</rscale>
<asrwt>0</asrwt>
<pdfrwt beam="1">  1       21 0.11362333E-01 0.17746978E+03</pdfrwt>
<pdfrwt beam="2">  1       21 0.89409006E-01 0.17746978E+03</pdfrwt>
<totfact> 0.69480777E+04</totfact>
</mgrwt>
</event>
<event>
 4    2  0.3964208E+000  0.1765302E+03  0.7546771E-02  0.1171204E+00
         21   -1    0    0  501  502  0.00000000000E+00  0.00000000000E+00  0.81065638418E+02  0.81065638418E+02  0.00000000000E+00 0. -1.
         21   -1    0    0  502  503 -0.00000000000E+00 -0.00000000000E+00 -0.14594393937E+04  0.14594393937E+04  0.00000000000E+00 0. -1.
          6    1    1    2  501    0  0.85052206563E+01 -0.34081775656E+02 -0.28114354861E+02  0.17875492485E+03  0.17300000000E+03 0. -1.
         -6    1    1    2    0  503 -0.85052206563E+01  0.34081775656E+02 -0.13502594004E+04  0.13617501073E+04  0.17300000000E+03 0. -1.
<mgrwt>
<rscale>  2 0.17653018E+03</rscale>
<asrwt>0</asrwt>
<pdfrwt beam="1">  1       21 0.12471637E-01 0.17653018E+03</pdfrwt>
<pdfrwt beam="2">  1       21 0.22452913E+00 0.17653018E+03</pdfrwt>
<totfact> 0.52537830E+03</totfact>
</mgrwt>
</event>
<event>
 4    2  0.3964208E+000  0.2244280E+03  0.7546771E-02  0.1130624E+00
         21   -1    0    0  501  502  0.00000000000E+00  0.00000000000E+00  0.11697304264E+03  0.11697304264E+03  0.00000000000E+00 0. -1.
         21   -1    0    0  502  503 -0.00000000000E+00 -0.00000000000E+00 -0.50649262322E+03  0.50649262322E+03  0.00000000000E+00 0. -1.
          6    1    1    2  501    0  0.39245648472E+01  0.14291089662E+03 -0.74086252209E+02  0.23634021949E+03  0.17300000000E+03 0. -1.
         -6    1    1    2    0  503 -0.39245648472E+01 -0.14291089662E+03 -0.31543332837E+03  0.38712544637E+03  0.17300000000E+03 0. -1.
<mgrwt>
<rscale>  2 0.22442800E+03</rscale>
<asrwt>0</asrwt>
<pdfrwt beam="1">  1       21 0.17995853E-01 0.22442800E+03</pdfrwt>
<pdfrwt beam="2">  1       21 0.77921943E-01 0.22442800E+03</pdfrwt>
<totfact> 0.40340681E+04</totfact>
</mgrwt>
</event>
<event>
 4    2  0.3964208E+000  0.2146730E+03  0.7546771E-02  0.1137918E+00
         21   -1    0    0  501  502  0.00000000000E+00  0.00000000000E+00  0.38725556610E+03  0.38725556610E+03  0.00000000000E+00 0.  1.
         21   -1    0    0  502  503 -0.00000000000E+00 -0.00000000000E+00 -0.20940427673E+03  0.20940427673E+03  0.00000000000E+00 0. -1.
          6    1    1    2  501    0 -0.10752523448E+03 -0.67777807854E+02  0.28494174138E+03  0.35675804584E+03  0.17300000000E+03 0.  1.
         -6    1    1    2    0  503  0.10752523448E+03  0.67777807854E+02 -0.10709045200E+03  0.23990179699E+03  0.17300000000E+03 0. -1.
<mgrwt>
<rscale>  2 0.21467302E+03</rscale>
<asrwt>0</asrwt>
<pdfrwt beam="1">  1       21 0.59577779E-01 0.21467302E+03</pdfrwt>
<pdfrwt beam="2">  1       21 0.32216043E-01 0.21467302E+03</pdfrwt>
<totfact> 0.24081352E+04</totfact>
</mgrwt>
</event>
<event>
 4    2  0.3964208E+000  0.1918010E+03  0.7546771E-02  0.1156847E+00
         21   -1    0    0  501  502  0.00000000000E+00  0.00000000000E+00  0.10959829075E+03  0.10959829075E+03  0.00000000000E+00 0. -1.
         21   -1    0    0  502  503 -0.00000000000E+00 -0.00000000000E+00 -0.40375786380E+03  0.40375786380E+03  0.00000000000E+00 0. -1.
          6    1    1    2  501    0  0.72739536286E+02 -0.39592633342E+02 -0.41665552220E+02  0.19627438701E+03  0.17300000000E+03 0. -1.
         -6    1    1    2    0  503 -0.72739536286E+02  0.39592633342E+02 -0.25249402083E+03  0.31708176754E+03  0.17300000000E+03 0. -1.
<mgrwt>
<rscale>  2 0.19180098E+03</rscale>
<asrwt>0</asrwt>
<pdfrwt beam="1">  1       21 0.16861275E-01 0.19180098E+03</pdfrwt>
<pdfrwt beam="2">  1       21 0.62116595E-01 0.19180098E+03</pdfrwt>
<totfact> 0.76192297E+04</totfact>
</mgrwt>
</event>
<event>
 4    2  0.3964208E+000  0.1817780E+03  0.7546771E-02  0.1166093E+00
         21   -1    0    0  501  502  0.00000000000E+00  0.00000000000E+00  0.10106974430E+03  0.10106974430E+03  0.00000000000E+00 0. -1.
         21   -1    0    0  502  503 -0.00000000000E+00 -0.00000000000E+00 -0.14126769498E+04  0.14126769498E+04  0.00000000000E+00 0. -1.
          6    1    1    2  501    0 -0.21846213050E+02 -0.51351513729E+02  0.77333213281E+01  0.18194240640E+03  0.17300000000E+03 0. -1.
         -6    1    1    2    0  503  0.21846213050E+02  0.51351513729E+02 -0.13193405269E+04  0.13318042877E+04  0.17300000000E+03 0. -1.
<mgrwt>
<rscale>  2 0.18177798E+03</rscale>
<asrwt>0</asrwt>
<pdfrwt beam="1">  1       21 0.15549190E-01 0.18177798E+03</pdfrwt>
<pdfrwt beam="2">  1       21 0.21733493E+00 0.18177798E+03</pdfrwt>
<totfact> 0.38807398E+03</totfact>
</mgrwt>
</event>
<event>
 4    2  0.3964208E+000  0.2235990E+03  0.7546771E-02  0.1131228E+00
         21   -1    0    0  501  502  0.00000000000E+00  0.00000000000E+00  0.12966709536E+03  0.12966709536E+03  0.00000000000E+00 0. -1.
         21   -1    0    0  502  503 -0.00000000000E+00 -0.00000000000E+00 -0.38748011618E+03  0.38748011618E+03  0.00000000000E+00 0.  1.
          6    1    1    2  501    0 -0.60941373752E+02 -0.12788150327E+03 -0.11078069939E+03  0.24953735847E+03  0.17300000000E+03 0.  1.
         -6    1    1    2    0  503  0.60941373752E+02  0.12788150327E+03 -0.14703232144E+03  0.26760985307E+03  0.17300000000E+03 0.  1.
<mgrwt>
<rscale>  2 0.22359904E+03</rscale>
<asrwt>0</asrwt>
<pdfrwt beam="1">  1       21 0.19948784E-01 0.22359904E+03</pdfrwt>
<pdfrwt beam="2">  1       21 0.59612325E-01 0.22359904E+03</pdfrwt>
<totfact> 0.60094853E+04</totfact>
</mgrwt>
</event>
<event>
 4    2  0.3964208E+000  0.1796874E+03  0.7546771E-02  0.1168106E+00
         21   -1    0    0  503  502  0.00000000000E+00  0.00000000000E+00  0.37583499443E+03  0.37583499443E+03  0.00000000000E+00 0. -1.
         21   -1    0    0  501  503 -0.00000000000E+00 -0.00000000000E+00 -0.85908954882E+02  0.85908954882E+02  0.00000000000E+00 0. -1.
          6    1    1    2  501    0  0.47056453115E+02 -0.12009872957E+02  0.14469121519E+03  0.23070131031E+03  0.17300000000E+03 0. -1.
         -6    1    1    2    0  502 -0.47056453115E+02  0.12009872957E+02  0.14523482436E+03  0.23104263900E+03  0.17300000000E+03 0. -1.
<mgrwt>
<rscale>  2 0.17968736E+03</rscale>
<asrwt>0</asrwt>
<pdfrwt beam="1">  1       21 0.57820767E-01 0.17968736E+03</pdfrwt>
<pdfrwt beam="2">  1       21 0.13216763E-01 0.17968736E+03</pdfrwt>
<totfact> 0.13899340E+05</totfact>
</mgrwt>
</event>
<event>
 4    2  0.3964208E+000  0.2975266E+03  0.7546771E-02  0.1086484E+00
         21   -1    0    0  501  502  0.00000000000E+00  0.00000000000E+00  0.24172514685E+03  0.24172514685E+03  0.00000000000E+00 0.  1.
         21   -1    0    0  502  503 -0.00000000000E+00 -0.00000000000E+00 -0.41383635075E+03  0.41383635075E+03  0.00000000000E+00 0. -1.
          6    1    1    2  501    0  0.24051630605E+03 -0.27294644714E+02 -0.19725288892E+03  0.35697449950E+03  0.17300000000E+03 0. -1.
         -6    1    1    2    0  503 -0.24051630605E+03  0.27294644714E+02  0.25141685026E+02  0.29858699810E+03  0.17300000000E+03 0. -1.
<mgrwt>
<rscale>  2 0.29752662E+03</rscale>
<asrwt>0</asrwt>
<pdfrwt beam="1">  1       21 0.37188484E-01 0.29752662E+03</pdfrwt>
<pdfrwt beam="2">  1       21 0.63667131E-01 0.29752662E+03</pdfrwt>
<totfact> 0.15047390E+04</totfact>
</mgrwt>
</event>
<event>
 4    2  0.3964208E+000  0.2286645E+03  0.7546771E-02  0.1127583E+00
         21   -1    0    0  501  502  0.00000000000E+00  0.00000000000E+00  0.47329642476E+02  0.47329642476E+02  0.00000000000E+00 0. -1.
         21   -1    0    0  502  503 -0.00000000000E+00 -0.00000000000E+00 -0.20522587371E+04  0.20522587371E+04  0.00000000000E+00 0.  1.
          6    1    1    2  501    0  0.15612052952E+02  0.14871010486E+03 -0.28915230711E+03  0.36864140868E+03  0.17300000000E+03 0. -1.
         -6    1    1    2    0  503 -0.15612052952E+02 -0.14871010486E+03 -0.17157767875E+04  0.17309469709E+04  0.17300000000E+03 0.  1.
<mgrwt>
<rscale>  2 0.22866445E+03</rscale>
<asrwt>0</asrwt>
<pdfrwt beam="1">  1       21 0.72814802E-02 0.22866445E+03</pdfrwt>
<pdfrwt beam="2">  1       21 0.31573226E+00 0.22866445E+03</pdfrwt>
<totfact> 0.37565173E+03</totfact>
</mgrwt>
</event>
<event>
 4    2  0.3964208E+000  0.2858506E+03  0.7546771E-02  0.1092536E+00
         21   -1    0    0  503  502  0.00000000000E+00  0.00000000000E+00  0.14411149112E+04  0.14411149112E+04  0.00000000000E+00 0. -1.
         21   -1    0    0  501  503 -0.00000000000E+00 -0.00000000000E+00 -0.56997112553E+02  0.56997112553E+02  0.00000000000E+00 0.  1.
          6    1    1    2  501    0  0.90301900156E+02  0.20887106451E+03  0.63793573443E+03  0.69905118269E+03  0.17300000000E+03 0.  1.
         -6    1    1    2    0  502 -0.90301900156E+02 -0.20887106451E+03  0.74618206424E+03  0.79906084108E+03  0.17300000000E+03 0. -1.
<mgrwt>
<rscale>  2 0.28585058E+03</rscale>
<asrwt>0</asrwt>
<pdfrwt beam="1">  1       21 0.22170996E+00 0.28585058E+03</pdfrwt>
<pdfrwt beam="2">  1       21 0.87687876E-02 0.28585058E+03</pdfrwt>
<totfact> 0.93664076E+03</totfact>
</mgrwt>
</event>
<event>
 4    2  0.3964208E+000  0.2977138E+03  0.7546771E-02  0.1086389E+00
         21   -1    0    0  501  502  0.00000000000E+00  0.00000000000E+00  0.68497116133E+03  0.68497116133E+03  0.00000000000E+00 0.  1.
         21   -1    0    0  502  503 -0.00000000000E+00 -0.00000000000E+00 -0.15954847175E+03  0.15954847175E+03  0.00000000000E+00 0. -1.
          6    1    1    2  501    0 -0.23524806204E+03 -0.57990218397E+02  0.44627407349E+03  0.53646441149E+03  0.17300000000E+03 0.  1.
         -6    1    1    2    0  503  0.23524806204E+03  0.57990218397E+02  0.79148616090E+02  0.30805522160E+03  0.17300000000E+03 0. -1.
<mgrwt>
<rscale>  2 0.29771382E+03</rscale>
<asrwt>0</asrwt>
<pdfrwt beam="1">  1       21 0.10538018E+00 0.29771382E+03</pdfrwt>
<pdfrwt beam="2">  1       21 0.24545919E-01 0.29771382E+03</pdfrwt>
<totfact> 0.10694586E+04</totfact>
</mgrwt>
</event>
<event>
 4    2  0.3964208E+000  0.2621523E+03  0.7546771E-02  0.1105857E+00
         21   -1    0    0  503  502  0.00000000000E+00  0.00000000000E+00  0.82505286845E+03  0.82505286845E+03  0.00000000000E+00 0.  1.
         21   -1    0    0  501  503 -0.00000000000E+00 -0.00000000000E+00 -0.11150922278E+03  0.11150922278E+03  0.00000000000E+00 0.  1.
          6    1    1    2  501    0  0.13433997649E+03  0.14404034607E+03  0.59231755049E+03  0.64773754808E+03  0.17300000000E+03 0.  1.
         -6    1    1    2    0  502 -0.13433997649E+03 -0.14404034607E+03  0.12122609518E+03  0.28882454316E+03  0.17300000000E+03 0.  1.
<mgrwt>
<rscale>  2 0.26215234E+03</rscale>
<asrwt>0</asrwt>
<pdfrwt beam="1">  1       21 0.12693121E+00 0.26215234E+03</pdfrwt>
<pdfrwt beam="2">  1       21 0.17155266E-01 0.26215234E+03</pdfrwt>
<totfact> 0.13497647E+04</totfact>
</mgrwt>
</event>
<event>
 4    2  0.3964208E+000  0.2237037E+03  0.7546771E-02  0.1131152E+00
         21   -1    0    0  501  502  0.00000000000E+00  0.00000000000E+00  0.26513465278E+03  0.26513465278E+03  0.00000000000E+00 0.  1.
         21   -1    0    0  502  503 -0.00000000000E+00 -0.00000000000E+00 -0.21466931044E+03  0.21466931044E+03  0.00000000000E+00 0. -1.
          6    1    1    2  501    0 -0.11974962989E+03 -0.75989174616E+02  0.10859829966E+03  0.24867030222E+03  0.17300000000E+03 0. -1.
         -6    1    1    2    0  503  0.11974962989E+03  0.75989174616E+02 -0.58132957321E+02  0.23113366099E+03  0.17300000000E+03 0. -1.
<mgrwt>
<rscale>  2 0.22370366E+03</rscale>
<asrwt>0</asrwt>
<pdfrwt beam="1">  1       21 0.40789946E-01 0.22370366E+03</pdfrwt>
<pdfrwt beam="2">  1       21 0.33026048E-01 0.22370366E+03</pdfrwt>
<totfact> 0.50367822E+04</totfact>
</mgrwt>
</event>
<event>
 4    2  0.3964208E+000  0.1957254E+03  0.7546771E-02  0.1153396E+00
         21   -1    0    0  503  502  0.00000000000E+00  0.00000000000E+00  0.82321428532E+03  0.82321428532E+03  0.00000000000E+00 0. -1.
         21   -1    0    0  501  503 -0.00000000000E+00 -0.00000000000E+00 -0.15940873453E+03  0.15940873453E+03  0.00000000000E+00 0. -1.
          6    1    1    2  501    0  0.29376575406E+02  0.86697409306E+02 -0.81522462081E+02  0.21202437545E+03  0.17300000000E+03 0. -1.
         -6    1    1    2    0  502 -0.29376575406E+02 -0.86697409306E+02  0.74532801287E+03  0.77059864439E+03  0.17300000000E+03 0. -1.
<mgrwt>
<rscale>  2 0.19572538E+03</rscale>
<asrwt>0</asrwt>
<pdfrwt beam="1">  1       21 0.12664835E+00 0.19572538E+03</pdfrwt>
<pdfrwt beam="2">  1       21 0.24524421E-01 0.19572538E+03</pdfrwt>
<totfact> 0.72358971E+03</totfact>
</mgrwt>
</event>
<event>
 4    2  0.3964208E+000  0.2038084E+03  0.7546771E-02  0.1146565E+00
         21   -1    0    0  503  502  0.00000000000E+00  0.00000000000E+00  0.20119378413E+04  0.20119378413E+04  0.00000000000E+00 0. -1.
         21   -1    0    0  501  503 -0.00000000000E+00 -0.00000000000E+00 -0.29389469131E+03  0.29389469131E+03  0.00000000000E+00 0. -1.
          6    1    1    2  501    0  0.10772488308E+03 -0.20558667394E+01 -0.25266196385E+03  0.32461661233E+03  0.17300000000E+03 0. -1.
         -6    1    1    2    0  502 -0.10772488308E+03  0.20558667394E+01  0.19707051139E+04  0.19812159203E+04  0.17300000000E+03 0. -1.
<mgrwt>
<rscale>  2 0.20380843E+03</rscale>
<asrwt>0</asrwt>
<pdfrwt beam="1">  1       21 0.30952889E+00 0.20380843E+03</pdfrwt>
<pdfrwt beam="2">  1       21 0.45214569E-01 0.20380843E+03</pdfrwt>
<totfact> 0.13870251E+02</totfact>
</mgrwt>
</event>
<event>
 4    2  0.3964208E+000  0.2259921E+03  0.7546771E-02  0.1129493E+00
         21   -1    0    0  503  502  0.00000000000E+00  0.00000000000E+00  0.32284016084E+03  0.32284016084E+03  0.00000000000E+00 0.  1.
         21   -1    0    0  501  503 -0.00000000000E+00 -0.00000000000E+00 -0.25480162447E+03  0.25480162447E+03  0.00000000000E+00 0.  1.
          6    1    1    2  501    0  0.13860831674E+03 -0.43945109741E+02 -0.14381924506E+03  0.26787387590E+03  0.17300000000E+03 0.  1.
         -6    1    1    2    0  502 -0.13860831674E+03  0.43945109741E+02  0.21185778144E+03  0.30976790940E+03  0.17300000000E+03 0.  1.
<mgrwt>
<rscale>  2 0.22599212E+03</rscale>
<asrwt>0</asrwt>
<pdfrwt beam="1">  1       21 0.49667717E-01 0.22599212E+03</pdfrwt>
<pdfrwt beam="2">  1       21 0.39200250E-01 0.22599212E+03</pdfrwt>
<totfact> 0.23797200E+04</totfact>
</mgrwt>
</event>
<event>
 4    2  0.3964208E+000  0.2257684E+03  0.7546771E-02  0.1129654E+00
         21   -1    0    0  501  502  0.00000000000E+00  0.00000000000E+00  0.54231906041E+03  0.54231906041E+03  0.00000000000E+00 0.  1.
         21   -1    0    0  502  503 -0.00000000000E+00 -0.00000000000E+00 -0.94246755089E+02  0.94246755089E+02  0.00000000000E+00 0. -1.
          6    1    1    2  501    0  0.13549971614E+03 -0.51789770515E+02  0.24072115709E+03  0.33002731535E+03  0.17300000000E+03 0. -1.
         -6    1    1    2    0  503 -0.13549971614E+03  0.51789770515E+02  0.20735114823E+03  0.30653850015E+03  0.17300000000E+03 0. -1.
<mgrwt>
<rscale>  2 0.22576836E+03</rscale>
<asrwt>0</asrwt>
<pdfrwt beam="1">  1       21 0.83433700E-01 0.22576836E+03</pdfrwt>
<pdfrwt beam="2">  1       21 0.14499501E-01 0.22576836E+03</pdfrwt>
<totfact> 0.51346479E+04</totfact>
</mgrwt>
</event>
<event>
 4    2  0.3964208E+000  0.1769918E+03  0.7546771E-02  0.1170747E+00
         21   -1    0    0  501  502  0.00000000000E+00  0.00000000000E+00  0.65917420220E+02  0.65917420220E+02  0.00000000000E+00 0.  1.
         21   -1    0    0  502  503 -0.00000000000E+00 -0.00000000000E+00 -0.47897780919E+03  0.47897780919E+03  0.00000000000E+00 0.  1.
          6    1    1    2  501    0 -0.27055103864E+02 -0.25789571420E+02 -0.18243743551E+03  0.25418398556E+03  0.17300000000E+03 0. -1.
         -6    1    1    2    0  503  0.27055103864E+02  0.25789571420E+02 -0.23062295346E+03  0.29071124386E+03  0.17300000000E+03 0. -1.
<mgrwt>
<rscale>  2 0.17699175E+03</rscale>
<asrwt>0</asrwt>
<pdfrwt beam="1">  1       21 0.10141142E-01 0.17699175E+03</pdfrwt>
<pdfrwt beam="2">  1       21 0.73688890E-01 0.17699175E+03</pdfrwt>
<totfact> 0.13163737E+05</totfact>
</mgrwt>
</event>
<event>
 4    2  0.3964208E+000  0.2205066E+03  0.7546771E-02  0.1133506E+00
         21   -1    0    0  501  502  0.00000000000E+00  0.00000000000E+00  0.31079655417E+03  0.31079655417E+03  0.00000000000E+00 0. -1.
         21   -1    0    0  502  503 -0.00000000000E+00 -0.00000000000E+00 -0.17053484907E+03  0.17053484907E+03  0.00000000000E+00 0. -1.
          6    1    1    2  501    0  0.12299806404E+03  0.59713043406E+02  0.13930293155E+03  0.26082269466E+03  0.17300000000E+03 0. -1.
         -6    1    1    2    0  503 -0.12299806404E+03 -0.59713043406E+02  0.95877354930E+00  0.22050870857E+03  0.17300000000E+03 0. -1.
<mgrwt>
<rscale>  2 0.22050662E+03</rscale>
<asrwt>0</asrwt>
<pdfrwt beam="1">  1       21 0.47814855E-01 0.22050662E+03</pdfrwt>
<pdfrwt beam="2">  1       21 0.26236131E-01 0.22050662E+03</pdfrwt>
<totfact> 0.57012100E+04</totfact>
</mgrwt>
</event>
<event>
 4    2  0.3964208E+000  0.2841413E+03  0.7546771E-02  0.1093448E+00
         21   -1    0    0  503  502  0.00000000000E+00  0.00000000000E+00  0.52162895757E+02  0.52162895757E+02  0.00000000000E+00 0.  1.
         21   -1    0    0  501  503 -0.00000000000E+00 -0.00000000000E+00 -0.15992764383E+04  0.15992764383E+04  0.00000000000E+00 0. -1.
          6    1    1    2  501    0  0.20469713253E+03 -0.94373478359E+02 -0.92173799855E+03  0.96453989418E+03  0.17300000000E+03 0.  1.
         -6    1    1    2    0  502 -0.20469713253E+03  0.94373478359E+02 -0.62537554396E+03  0.68689943985E+03  0.17300000000E+03 0. -1.
<mgrwt>
<rscale>  2 0.28414128E+03</rscale>
<asrwt>0</asrwt>
<pdfrwt beam="1">  1       21 0.80250606E-02 0.28414128E+03</pdfrwt>
<pdfrwt beam="2">  1       21 0.24604254E+00 0.28414128E+03</pdfrwt>
<totfact> 0.77760555E+03</totfact>
</mgrwt>
</event>
<event>
 4    2  0.3964208E+000  0.1842547E+03  0.7546771E-02  0.1163748E+00
         21   -1    0    0  501  502  0.00000000000E+00  0.00000000000E+00  0.31455057145E+03  0.31455057145E+03  0.00000000000E+00 0. -1.
         21   -1    0    0  502  503 -0.00000000000E+00 -0.00000000000E+00 -0.12667789805E+03  0.12667789805E+03  0.00000000000E+00 0. -1.
          6    1    1    2  501    0  0.62783770259E+02 -0.88884440212E+01  0.17880473950E+03  0.25675073732E+03  0.17300000000E+03 0. -1.
         -6    1    1    2    0  503 -0.62783770259E+02  0.88884440212E+01  0.90679338964E+01  0.18447773218E+03  0.17300000000E+03 0. -1.
<mgrwt>
<rscale>  2 0.18425473E+03</rscale>
<asrwt>0</asrwt>
<pdfrwt beam="1">  1       21 0.48392396E-01 0.18425473E+03</pdfrwt>
<pdfrwt beam="2">  1       21 0.19488907E-01 0.18425473E+03</pdfrwt>
<totfact> 0.99115621E+04</totfact>
</mgrwt>
</event>
<event>
 4    2  0.3964208E+000  0.2122851E+03  0.7546771E-02  0.1139769E+00
         21   -1    0    0  501  502  0.00000000000E+00  0.00000000000E+00  0.34591183795E+03  0.34591183795E+03  0.00000000000E+00 0.  1.
         21   -1    0    0  502  503 -0.00000000000E+00 -0.00000000000E+00 -0.18493436430E+03  0.18493436430E+03  0.00000000000E+00 0.  1.
          6    1    1    2  501    0 -0.11949205509E+03  0.29284664410E+02  0.22478248623E+03  0.30917973561E+03  0.17300000000E+03 0.  1.
         -6    1    1    2    0  503  0.11949205509E+03 -0.29284664410E+02 -0.63805012585E+02  0.22166646664E+03  0.17300000000E+03 0.  1.
<mgrwt>
<rscale>  2 0.21228505E+03</rscale>
<asrwt>0</asrwt>
<pdfrwt beam="1">  1       21 0.53217206E-01 0.21228505E+03</pdfrwt>
<pdfrwt beam="2">  1       21 0.28451441E-01 0.21228505E+03</pdfrwt>
<totfact> 0.39102428E+04</totfact>
</mgrwt>
</event>
<event>
 4    2  0.3964208E+000  0.2118677E+03  0.7546771E-02  0.1140095E+00
         21   -1    0    0  503  502  0.00000000000E+00  0.00000000000E+00  0.25666469288E+04  0.25666469288E+04  0.00000000000E+00 0.  1.
         21   -1    0    0  501  503 -0.00000000000E+00 -0.00000000000E+00 -0.19538220089E+02  0.19538220089E+02  0.00000000000E+00 0.  1.
          6    1    1    2  501    0  0.77631618417E+02  0.94510631267E+02  0.16923363954E+04  0.17055469512E+04  0.17300000000E+03 0.  1.
         -6    1    1    2    0  502 -0.77631618417E+02 -0.94510631267E+02  0.85477231334E+03  0.88063819771E+03  0.17300000000E+03 0.  1.
<mgrwt>
<rscale>  2 0.21186771E+03</rscale>
<asrwt>0</asrwt>
<pdfrwt beam="1">  1       21 0.39486849E+00 0.21186771E+03</pdfrwt>
<pdfrwt beam="2">  1       21 0.30058820E-02 0.21186771E+03</pdfrwt>
<totfact> 0.57695501E+03</totfact>
</mgrwt>
</event>
<event>
 4    2  0.3964208E+000  0.2533956E+03  0.7546771E-02  0.1111178E+00
         21   -1    0    0  503  502  0.00000000000E+00  0.00000000000E+00  0.26883276318E+04  0.26883276318E+04  0.00000000000E+00 0. -1.
         21   -1    0    0  501  503 -0.00000000000E+00 -0.00000000000E+00 -0.24990928695E+02  0.24990928695E+02  0.00000000000E+00 0. -1.
          6    1    1    2  501    0 -0.58559493860E+02 -0.17564481690E+03  0.10462087769E+04  0.10764581371E+04  0.17300000000E+03 0. -1.
         -6    1    1    2    0  502  0.58559493860E+02  0.17564481690E+03  0.16171279262E+04  0.16368604234E+04  0.17300000000E+03 0. -1.
<mgrwt>
<rscale>  2 0.25339557E+03</rscale>
<asrwt>0</asrwt>
<pdfrwt beam="1">  1       21 0.41358864E+00 0.25339557E+03</pdfrwt>
<pdfrwt beam="2">  1       21 0.38447604E-02 0.25339557E+03</pdfrwt>
<totfact> 0.27782944E+03</totfact>
</mgrwt>
</event>
<event>
 4    2  0.3964208E+000  0.2306427E+03  0.7546771E-02  0.1126188E+00
         21   -1    0    0  503  502  0.00000000000E+00  0.00000000000E+00  0.94969445882E+03  0.94969445882E+03  0.00000000000E+00 0.  1.
         21   -1    0    0  501  503 -0.00000000000E+00 -0.00000000000E+00 -0.12724640796E+03  0.12724640796E+03  0.00000000000E+00 0.  1.
          6    1    1    2  501    0 -0.15083102980E+03 -0.22739051441E+02  0.83416226191E+01  0.23079351524E+03  0.17300000000E+03 0.  1.
         -6    1    1    2    0  502  0.15083102980E+03  0.22739051441E+02  0.81410642824E+03  0.84614735154E+03  0.17300000000E+03 0.  1.
<mgrwt>
<rscale>  2 0.23064272E+03</rscale>
<asrwt>0</asrwt>
<pdfrwt beam="1">  1       21 0.14610684E+00 0.23064272E+03</pdfrwt>
<pdfrwt beam="2">  1       21 0.19576371E-01 0.23064272E+03</pdfrwt>
<totfact> 0.74794101E+03</totfact>
</mgrwt>
</event>
<event>
 4    2  0.3964208E+000  0.2491744E+03  0.7546771E-02  0.1113828E+00
         21   -1    0    0  503  502  0.00000000000E+00  0.00000000000E+00  0.39699204351E+03  0.39699204351E+03  0.00000000000E+00 0.  1.
         21   -1    0    0  501  503 -0.00000000000E+00 -0.00000000000E+00 -0.17297826487E+03  0.17297826487E+03  0.00000000000E+00 0. -1.
          6    1    1    2  501    0 -0.41262079394E+02 -0.17451743062E+03  0.20024391523E+03  0.31966469679E+03  0.17300000000E+03 0. -1.
         -6    1    1    2    0  502  0.41262079394E+02  0.17451743062E+03  0.23769863413E+02  0.25030561159E+03  0.17300000000E+03 0.  1.
<mgrwt>
<rscale>  2 0.24917442E+03</rscale>
<asrwt>0</asrwt>
<pdfrwt beam="1">  1       21 0.61075699E-01 0.24917442E+03</pdfrwt>
<pdfrwt beam="2">  1       21 0.26612041E-01 0.24917442E+03</pdfrwt>
<totfact> 0.32591931E+04</totfact>
</mgrwt>
</event>
<event>
 4    2  0.3964208E+000  0.1826272E+03  0.7546771E-02  0.1165284E+00
         21   -1    0    0  503  502  0.00000000000E+00  0.00000000000E+00  0.40757901583E+03  0.40757901583E+03  0.00000000000E+00 0. -1.
         21   -1    0    0  501  503 -0.00000000000E+00 -0.00000000000E+00 -0.16640541796E+03  0.16640541796E+03  0.00000000000E+00 0. -1.
          6    1    1    2  501    0  0.55963179487E+02  0.17082909522E+02 -0.84013015947E+02  0.20102460074E+03  0.17300000000E+03 0. -1.
         -6    1    1    2    0  502 -0.55963179487E+02 -0.17082909522E+02  0.32518661382E+03  0.37295983304E+03  0.17300000000E+03 0. -1.
<mgrwt>
<rscale>  2 0.18262722E+03</rscale>
<asrwt>0</asrwt>
<pdfrwt beam="1">  1       21 0.62704464E-01 0.18262722E+03</pdfrwt>
<pdfrwt beam="2">  1       21 0.25600834E-01 0.18262722E+03</pdfrwt>
<totfact> 0.34286182E+04</totfact>
</mgrwt>
</event>
<event>
 4    2  0.3964208E+000  0.1922473E+03  0.7546771E-02  0.1156450E+00
         21   -1    0    0  503  502  0.00000000000E+00  0.00000000000E+00  0.11163403922E+03  0.11163403922E+03  0.00000000000E+00 0. -1.
         21   -1    0    0  501  503 -0.00000000000E+00 -0.00000000000E+00 -0.37529743888E+03  0.37529743888E+03  0.00000000000E+00 0. -1.
          6    1    1    2  501    0  0.81050053561E+02  0.21468679150E+02 -0.21540763792E+03  0.28872039387E+03  0.17300000000E+03 0. -1.
         -6    1    1    2    0  502 -0.81050053561E+02 -0.21468679150E+02 -0.48255761740E+02  0.19821108422E+03  0.17300000000E+03 0. -1.
<mgrwt>
<rscale>  2 0.19224728E+03</rscale>
<asrwt>0</asrwt>
<pdfrwt beam="1">  1       21 0.17174467E-01 0.19224728E+03</pdfrwt>
<pdfrwt beam="2">  1       21 0.57738068E-01 0.19224728E+03</pdfrwt>
<totfact> 0.86152790E+04</totfact>
</mgrwt>
</event>
<event>
 4    2  0.3964208E+000  0.2427132E+03  0.7546771E-02  0.1117998E+00
         21   -1    0    0  503  502  0.00000000000E+00  0.00000000000E+00  0.26298012964E+03  0.26298012964E+03  0.00000000000E+00 0. -1.
         21   -1    0    0  501  503 -0.00000000000E+00 -0.00000000000E+00 -0.28834264390E+03  0.28834264390E+03  0.00000000000E+00 0.  1.
          6    1    1    2  501    0  0.80944774349E+02  0.14976198961E+03 -0.14289092039E+03  0.28165142491E+03  0.17300000000E+03 0.  1.
         -6    1    1    2    0  502 -0.80944774349E+02 -0.14976198961E+03  0.11752840613E+03  0.26967134863E+03  0.17300000000E+03 0. -1.
<mgrwt>
<rscale>  2 0.24271323E+03</rscale>
<asrwt>0</asrwt>
<pdfrwt beam="1">  1       21 0.40458482E-01 0.24271323E+03</pdfrwt>
<pdfrwt beam="2">  1       21 0.44360407E-01 0.24271323E+03</pdfrwt>
<totfact> 0.27992518E+04</totfact>
</mgrwt>
</event>
<event>
 4    2  0.3964208E+000  0.1833598E+03  0.7546771E-02  0.1164590E+00
         21   -1    0    0  501  502  0.00000000000E+00  0.00000000000E+00  0.13079949645E+03  0.13079949645E+03  0.00000000000E+00 0. -1.
         21   -1    0    0  502  503 -0.00000000000E+00 -0.00000000000E+00 -0.40388599664E+03  0.40388599664E+03  0.00000000000E+00 0. -1.
          6    1    1    2  501    0 -0.29210071325E+01  0.60689996157E+02  0.24658173262E+02  0.18501036032E+03  0.17300000000E+03 0.  1.
         -6    1    1    2    0  503  0.29210071325E+01 -0.60689996157E+02 -0.29774467345E+03  0.34967513278E+03  0.17300000000E+03 0.  1.
<mgrwt>
<rscale>  2 0.18335978E+03</rscale>
<asrwt>0</asrwt>
<pdfrwt beam="1">  1       21 0.20123000E-01 0.18335978E+03</pdfrwt>
<pdfrwt beam="2">  1       21 0.62136306E-01 0.18335978E+03</pdfrwt>
<totfact> 0.55075085E+04</totfact>
</mgrwt>
</event>
<event>
 4    2  0.3964208E+000  0.1998789E+03  0.7546771E-02  0.1149841E+00
         21   -1    0    0  503  502  0.00000000000E+00  0.00000000000E+00  0.12748878653E+03  0.12748878653E+03  0.00000000000E+00 0.  1.
         21   -1    0    0  501  503 -0.00000000000E+00 -0.00000000000E+00 -0.31771440333E+03  0.31771440333E+03  0.00000000000E+00 0.  1.
          6    1    1    2  501    0  0.34527918917E+02 -0.93970113358E+02 -0.12113348909E+03  0.23371966449E+03  0.17300000000E+03 0. -1.
         -6    1    1    2    0  502 -0.34527918917E+02  0.93970113358E+02 -0.69092127714E+02  0.21148352537E+03  0.17300000000E+03 0. -1.
<mgrwt>
<rscale>  2 0.19987886E+03</rscale>
<asrwt>0</asrwt>
<pdfrwt beam="1">  1       21 0.19613659E-01 0.19987886E+03</pdfrwt>
<pdfrwt beam="2">  1       21 0.48879139E-01 0.19987886E+03</pdfrwt>
<totfact> 0.95342138E+04</totfact>
</mgrwt>
</event>
<event>
 4    2  0.3964208E+000  0.2303250E+03  0.7546771E-02  0.1126411E+00
         21   -1    0    0  501  502  0.00000000000E+00  0.00000000000E+00  0.28569814703E+03  0.28569814703E+03  0.00000000000E+00 0.  1.
         21   -1    0    0  502  503 -0.00000000000E+00 -0.00000000000E+00 -0.19154090812E+03  0.19154090812E+03  0.00000000000E+00 0.  1.
          6    1    1    2  501    0  0.54938148121E+02  0.14178290002E+03  0.88804674189E+02  0.24685190098E+03  0.17300000000E+03 0.  1.
         -6    1    1    2    0  503 -0.54938148121E+02 -0.14178290002E+03  0.53525647261E+01  0.23038715417E+03  0.17300000000E+03 0.  1.
<mgrwt>
<rscale>  2 0.23032497E+03</rscale>
<asrwt>0</asrwt>
<pdfrwt beam="1">  1       21 0.43953561E-01 0.23032497E+03</pdfrwt>
<pdfrwt beam="2">  1       21 0.29467832E-01 0.23032497E+03</pdfrwt>
<totfact> 0.53939050E+04</totfact>
</mgrwt>
</event>
<event>
 4    2  0.3964208E+000  0.2107795E+03  0.7546771E-02  0.1140950E+00
         21   -1    0    0  503  502  0.00000000000E+00  0.00000000000E+00  0.10051501196E+03  0.10051501196E+03  0.00000000000E+00 0.  1.
         21   -1    0    0  501  503 -0.00000000000E+00 -0.00000000000E+00 -0.44210226162E+03  0.44210226162E+03  0.00000000000E+00 0. -1.
          6    1    1    2  501    0 -0.87582860647E+02 -0.82633228043E+02 -0.17484443273E+03  0.27385869260E+03  0.17300000000E+03 0.  1.
         -6    1    1    2    0  502  0.87582860647E+02  0.82633228043E+02 -0.16674281693E+03  0.26875858099E+03  0.17300000000E+03 0. -1.
<mgrwt>
<rscale>  2 0.21077952E+03</rscale>
<asrwt>0</asrwt>
<pdfrwt beam="1">  1       21 0.15463848E-01 0.21077952E+03</pdfrwt>
<pdfrwt beam="2">  1       21 0.68015732E-01 0.21077952E+03</pdfrwt>
<totfact> 0.72661149E+04</totfact>
</mgrwt>
</event>
<event>
 4    2  0.3964208E+000  0.2063710E+03  0.7546771E-02  0.1144472E+00
         21   -1    0    0  503  502  0.00000000000E+00  0.00000000000E+00  0.56612859934E+02  0.56612859934E+02  0.00000000000E+00 0. -1.
         21   -1    0    0  501  503 -0.00000000000E+00 -0.00000000000E+00 -0.12354166886E+04  0.12354166886E+04  0.00000000000E+00 0.  1.
          6    1    1    2  501    0 -0.62446244588E+02 -0.93597313786E+02 -0.99339003732E+03  0.10145998013E+04  0.17300000000E+03 0.  1.
         -6    1    1    2    0  502  0.62446244588E+02  0.93597313786E+02 -0.18541379134E+03  0.27742974720E+03  0.17300000000E+03 0. -1.
<mgrwt>
<rscale>  2 0.20637100E+03</rscale>
<asrwt>0</asrwt>
<pdfrwt beam="1">  1       21 0.87096714E-02 0.20637100E+03</pdfrwt>
<pdfrwt beam="2">  1       21 0.19006409E+00 0.20637100E+03</pdfrwt>
<totfact> 0.15953678E+04</totfact>
</mgrwt>
</event>
<event>
 4    2  0.3964208E+000  0.3040131E+03  0.7546771E-02  0.1083252E+00
         21   -1    0    0  503  502  0.00000000000E+00  0.00000000000E+00  0.82838625767E+03  0.82838625767E+03  0.00000000000E+00 0. -1.
         21   -1    0    0  501  503 -0.00000000000E+00 -0.00000000000E+00 -0.22526064591E+03  0.22526064591E+03  0.00000000000E+00 0.  1.
          6    1    1    2  501    0  0.14738402552E+03  0.20192299373E+03 -0.72705238711E+02  0.31258598515E+03  0.17300000000E+03 0.  1.
         -6    1    1    2    0  502 -0.14738402552E+03 -0.20192299373E+03  0.67583085047E+03  0.74106091843E+03  0.17300000000E+03 0. -1.
<mgrwt>
<rscale>  2 0.30401307E+03</rscale>
<asrwt>0</asrwt>
<pdfrwt beam="1">  1       21 0.12744404E+00 0.30401307E+03</pdfrwt>
<pdfrwt beam="2">  1       21 0.34655485E-01 0.30401307E+03</pdfrwt>
<totfact> 0.33755658E+03</totfact>
</mgrwt>
</event>
<event>
 4    2  0.3964208E+000  0.2447216E+03  0.7546771E-02  0.1116687E+00
         21   -1    0    0  503  502  0.00000000000E+00  0.00000000000E+00  0.86511491751E+03  0.86511491751E+03  0.00000000000E+00 0. -1.
         21   -1    0    0  501  503 -0.00000000000E+00 -0.00000000000E+00 -0.99817062740E+02  0.99817062740E+02  0.00000000000E+00 0. -1.
          6    1    1    2  501    0 -0.20768721481E+02 -0.17183805810E+03  0.11555756183E+03  0.27063297674E+03  0.17300000000E+03 0. -1.
         -6    1    1    2    0  502  0.20768721481E+02  0.17183805810E+03  0.64974029294E+03  0.69429900351E+03  0.17300000000E+03 0. -1.
<mgrwt>
<rscale>  2 0.24472159E+03</rscale>
<asrwt>0</asrwt>
<pdfrwt beam="1">  1       21 0.13309460E+00 0.24472159E+03</pdfrwt>
<pdfrwt beam="2">  1       21 0.15356472E-01 0.24472159E+03</pdfrwt>
<totfact> 0.14812933E+04</totfact>
</mgrwt>
</event>
<event>
 4    2  0.3964208E+000  0.2339018E+03  0.7546771E-02  0.1123923E+00
         21   -1    0    0  501  502  0.00000000000E+00  0.00000000000E+00  0.63591914497E+03  0.63591914497E+03  0.00000000000E+00 0.  1.
         21   -1    0    0  502  503 -0.00000000000E+00 -0.00000000000E+00 -0.16014994681E+03  0.16014994681E+03  0.00000000000E+00 0.  1.
          6    1    1    2  501    0  0.30044582802E+02  0.15452635598E+03  0.50866420008E+03  0.55986546607E+03  0.17300000000E+03 0.  1.
         -6    1    1    2    0  503 -0.30044582802E+02 -0.15452635598E+03 -0.32895001928E+02  0.23620362571E+03  0.17300000000E+03 0.  1.
<mgrwt>
<rscale>  2 0.23390184E+03</rscale>
<asrwt>0</asrwt>
<pdfrwt beam="1">  1       21 0.97833714E-01 0.23390184E+03</pdfrwt>
<pdfrwt beam="2">  1       21 0.24638454E-01 0.23390184E+03</pdfrwt>
<totfact> 0.13118470E+04</totfact>
</mgrwt>
</event>
<event>
 4    2  0.3964208E+000  0.1772029E+03  0.7546771E-02  0.1170538E+00
         21   -1    0    0  501  502  0.00000000000E+00  0.00000000000E+00  0.15957452947E+03  0.15957452947E+03  0.00000000000E+00 0. -1.
         21   -1    0    0  502  503 -0.00000000000E+00 -0.00000000000E+00 -0.33208842710E+03  0.33208842710E+03  0.00000000000E+00 0. -1.
          6    1    1    2  501    0 -0.25132243278E+02 -0.28986991564E+02  0.70661881466E+02  0.19077205462E+03  0.17300000000E+03 0. -1.
         -6    1    1    2    0  503  0.25132243278E+02  0.28986991564E+02 -0.24317577910E+03  0.30089090195E+03  0.17300000000E+03 0. -1.
<mgrwt>
<rscale>  2 0.17720292E+03</rscale>
<asrwt>0</asrwt>
<pdfrwt beam="1">  1       21 0.24549927E-01 0.17720292E+03</pdfrwt>
<pdfrwt beam="2">  1       21 0.51090528E-01 0.17720292E+03</pdfrwt>
<totfact> 0.57521058E+04</totfact>
</mgrwt>
</event>
<event>
 4    2  0.3964208E+000  0.2435467E+03  0.7546771E-02  0.1117452E+00
         21   -1    0    0  501  502  0.00000000000E+00  0.00000000000E+00  0.21791719197E+03  0.21791719197E+03  0.00000000000E+00 0. -1.
         21   -1    0    0  502  503 -0.00000000000E+00 -0.00000000000E+00 -0.38778337370E+03  0.38778337370E+03  0.00000000000E+00 0. -1.
          6    1    1    2  501    0  0.14959041932E+03 -0.83718038325E+02  0.80414853645E+02  0.25647914570E+03  0.17300000000E+03 0. -1.
         -6    1    1    2    0  503 -0.14959041932E+03  0.83718038325E+02 -0.25028103538E+03  0.34922141997E+03  0.17300000000E+03 0. -1.
<mgrwt>
<rscale>  2 0.24354672E+03</rscale>
<asrwt>0</asrwt>
<pdfrwt beam="1">  1       21 0.33525722E-01 0.24354672E+03</pdfrwt>
<pdfrwt beam="2">  1       21 0.59658980E-01 0.24354672E+03</pdfrwt>
<totfact> 0.21863876E+04</totfact>
</mgrwt>
</event>
<event>
 4    2  0.3964208E+000  0.1796118E+03  0.7546771E-02  0.1168179E+00
         21   -1    0    0  501  502  0.00000000000E+00  0.00000000000E+00  0.17412515819E+03  0.17412515819E+03  0.00000000000E+00 0. -1.
         21   -1    0    0  502  503 -0.00000000000E+00 -0.00000000000E+00 -0.19487008301E+03  0.19487008301E+03  0.00000000000E+00 0. -1.
          6    1    1    2  501    0 -0.38144554842E+02  0.29603934871E+02  0.30574863341E+02  0.18219556057E+03  0.17300000000E+03 0. -1.
         -6    1    1    2    0  503  0.38144554842E+02 -0.29603934871E+02 -0.51319788165E+02  0.18679968062E+03  0.17300000000E+03 0. -1.
<mgrwt>
<rscale>  2 0.17961180E+03</rscale>
<asrwt>0</asrwt>
<pdfrwt beam="1">  1       21 0.26788486E-01 0.17961180E+03</pdfrwt>
<pdfrwt beam="2">  1       21 0.29980013E-01 0.17961180E+03</pdfrwt>
<totfact> 0.14218244E+05</totfact>
</mgrwt>
</event>
<event>
 4    2  0.3964208E+000  0.1881795E+03  0.7546771E-02  0.1160114E+00
         21   -1    0    0  501  502  0.00000000000E+00  0.00000000000E+00  0.98882556953E+02  0.98882556953E+02  0.00000000000E+00 0. -1.
         21   -1    0    0  502  503 -0.00000000000E+00 -0.00000000000E+00 -0.36533679052E+03  0.36533679052E+03  0.00000000000E+00 0.  1.
          6    1    1    2  501    0 -0.49137435211E+02  0.55389820567E+02 -0.10059762411E+03  0.21338088419E+03  0.17300000000E+03 0. -1.
         -6    1    1    2    0  503  0.49137435211E+02 -0.55389820567E+02 -0.16585660946E+03  0.25083846328E+03  0.17300000000E+03 0.  1.
<mgrwt>
<rscale>  2 0.18817949E+03</rscale>
<asrwt>0</asrwt>
<pdfrwt beam="1">  1       21 0.15212701E-01 0.18817949E+03</pdfrwt>
<pdfrwt beam="2">  1       21 0.56205661E-01 0.18817949E+03</pdfrwt>
<totfact> 0.11409083E+05</totfact>
</mgrwt>
</event>
<event>
 4    2  0.3964208E+000  0.1754311E+03  0.7546771E-02  0.1172300E+00
         21   -1    0    0  501  502  0.00000000000E+00  0.00000000000E+00  0.12193498997E+04  0.12193498997E+04  0.00000000000E+00 0. -1.
         21   -1    0    0  502  503 -0.00000000000E+00 -0.00000000000E+00 -0.36792698521E+02  0.36792698521E+02  0.00000000000E+00 0. -1.
          6    1    1    2  501    0 -0.26778083188E+02 -0.11401775918E+02  0.94322364989E+03  0.95939924950E+03  0.17300000000E+03 0. -1.
         -6    1    1    2    0  503  0.26778083188E+02  0.11401775918E+02  0.23933355126E+03  0.29674334869E+03  0.17300000000E+03 0. -1.
<mgrwt>
<rscale>  2 0.17543109E+03</rscale>
<asrwt>0</asrwt>
<pdfrwt beam="1">  1       21 0.18759226E+00 0.17543109E+03</pdfrwt>
<pdfrwt beam="2">  1       21 0.56604161E-02 0.17543109E+03</pdfrwt>
<totfact> 0.35657377E+04</totfact>
</mgrwt>
</event>
<event>
 4    2  0.3964208E+000  0.1982014E+03  0.7546771E-02  0.1151265E+00
         21   -1    0    0  501  502  0.00000000000E+00  0.00000000000E+00  0.96721190844E+02  0.96721190844E+02  0.00000000000E+00 0. -1.
         21   -1    0    0  502  503 -0.00000000000E+00 -0.00000000000E+00 -0.40672150574E+03  0.40672150574E+03  0.00000000000E+00 0. -1.
          6    1    1    2  501    0 -0.69384239580E+02 -0.67384094827E+02 -0.16439519932E+03  0.25750644748E+03  0.17300000000E+03 0. -1.
         -6    1    1    2    0  503  0.69384239580E+02  0.67384094827E+02 -0.14560511558E+03  0.24593624910E+03  0.17300000000E+03 0. -1.
<mgrwt>
<rscale>  2 0.19820138E+03</rscale>
<asrwt>0</asrwt>
<pdfrwt beam="1">  1       21 0.14880183E-01 0.19820138E+03</pdfrwt>
<pdfrwt beam="2">  1       21 0.62572539E-01 0.19820138E+03</pdfrwt>
<totfact> 0.94005638E+04</totfact>
</mgrwt>
</event>
<event>
 4    2  0.3964208E+000  0.1905652E+03  0.7546771E-02  0.1157953E+00
         21   -1    0    0  503  502  0.00000000000E+00  0.00000000000E+00  0.40203677502E+03  0.40203677502E+03  0.00000000000E+00 0.  1.
         21   -1    0    0  501  503 -0.00000000000E+00 -0.00000000000E+00 -0.90373904100E+02  0.90373904100E+02  0.00000000000E+00 0.  1.
          6    1    1    2  501    0 -0.78884134623E+02  0.12782665126E+02  0.15027139994E+03  0.24268621070E+03  0.17300000000E+03 0.  1.
         -6    1    1    2    0  502  0.78884134623E+02 -0.12782665126E+02  0.16139147098E+03  0.24972446842E+03  0.17300000000E+03 0.  1.
<mgrwt>
<rscale>  2 0.19056522E+03</rscale>
<asrwt>0</asrwt>
<pdfrwt beam="1">  1       21 0.61851810E-01 0.19056522E+03</pdfrwt>
<pdfrwt beam="2">  1       21 0.13903678E-01 0.19056522E+03</pdfrwt>
<totfact> 0.10936334E+05</totfact>
</mgrwt>
</event>
<event>
 4    2  0.3964208E+000  0.3092551E+03  0.7546771E-02  0.1080703E+00
         21   -1    0    0  503  502  0.00000000000E+00  0.00000000000E+00  0.54083951048E+03  0.54083951048E+03  0.00000000000E+00 0. -1.
         21   -1    0    0  501  503 -0.00000000000E+00 -0.00000000000E+00 -0.28160163452E+03  0.28160163452E+03  0.00000000000E+00 0.  1.
          6    1    1    2  501    0  0.34777927214E+02 -0.25396887003E+03 -0.12120633157E+03  0.33215909739E+03  0.17300000000E+03 0.  1.
         -6    1    1    2    0  502 -0.34777927214E+02  0.25396887003E+03  0.38044420753E+03  0.49028204761E+03  0.17300000000E+03 0. -1.
<mgrwt>
<rscale>  2 0.30925506E+03</rscale>
<asrwt>0</asrwt>
<pdfrwt beam="1">  1       21 0.83206079E-01 0.30925506E+03</pdfrwt>
<pdfrwt beam="2">  1       21 0.43323328E-01 0.30925506E+03</pdfrwt>
<totfact> 0.60033236E+03</totfact>
</mgrwt>
</event>
<event>
 4    2  0.3964208E+000  0.1842132E+03  0.7546771E-02  0.1163787E+00
         21   -1    0    0  501  502  0.00000000000E+00  0.00000000000E+00  0.12251926054E+03  0.12251926054E+03  0.00000000000E+00 0.  1.
         21   -1    0    0  502  503 -0.00000000000E+00 -0.00000000000E+00 -0.66655630703E+03  0.66655630703E+03  0.00000000000E+00 0.  1.
          6    1    1    2  501    0 -0.53319686684E+02 -0.34095759634E+02  0.29608625271E+02  0.18657754555E+03  0.17300000000E+03 0.  1.
         -6    1    1    2    0  503  0.53319686684E+02  0.34095759634E+02 -0.57364567175E+03  0.60249802202E+03  0.17300000000E+03 0.  1.
<mgrwt>
<rscale>  2 0.18421322E+03</rscale>
<asrwt>0</asrwt>
<pdfrwt beam="1">  1       21 0.18849117E-01 0.18421322E+03</pdfrwt>
<pdfrwt beam="2">  1       21 0.10254712E+00 0.18421322E+03</pdfrwt>
<totfact> 0.20034692E+04</totfact>
</mgrwt>
</event>
<event>
 4    2  0.3964208E+000  0.2281659E+03  0.7546771E-02  0.1127937E+00
         21   -1    0    0  503  502  0.00000000000E+00  0.00000000000E+00  0.39663693029E+03  0.39663693029E+03  0.00000000000E+00 0. -1.
         21   -1    0    0  501  503 -0.00000000000E+00 -0.00000000000E+00 -0.13175052528E+03  0.13175052528E+03  0.00000000000E+00 0.  1.
          6    1    1    2  501    0 -0.11191104500E+03 -0.98013178693E+02  0.14868327305E+03  0.27233505260E+03  0.17300000000E+03 0. -1.
         -6    1    1    2    0  502  0.11191104500E+03  0.98013178693E+02  0.11620313196E+03  0.25605240297E+03  0.17300000000E+03 0. -1.
<mgrwt>
<rscale>  2 0.22816587E+03</rscale>
<asrwt>0</asrwt>
<pdfrwt beam="1">  1       21 0.61021066E-01 0.22816587E+03</pdfrwt>
<pdfrwt beam="2">  1       21 0.20269312E-01 0.22816587E+03</pdfrwt>
<totfact> 0.55350103E+04</totfact>
</mgrwt>
</event>
<event>
 4    2  0.3964208E+000  0.2055326E+03  0.7546771E-02  0.1145153E+00
         21   -1    0    0  503  502  0.00000000000E+00  0.00000000000E+00  0.21614031341E+03  0.21614031341E+03  0.00000000000E+00 0. -1.
         21   -1    0    0  501  503 -0.00000000000E+00 -0.00000000000E+00 -0.22757912872E+03  0.22757912872E+03  0.00000000000E+00 0.  1.
          6    1    1    2  501    0  0.74905970903E+02 -0.81876468322E+02 -0.89085962469E+02  0.22400885976E+03  0.17300000000E+03 0.  1.
         -6    1    1    2    0  502 -0.74905970903E+02  0.81876468322E+02  0.77647147159E+02  0.21971058237E+03  0.17300000000E+03 0.  1.
<mgrwt>
<rscale>  2 0.20553263E+03</rscale>
<asrwt>0</asrwt>
<pdfrwt beam="1">  1       21 0.33252356E-01 0.20553263E+03</pdfrwt>
<pdfrwt beam="2">  1       21 0.35012174E-01 0.20553263E+03</pdfrwt>
<totfact> 0.68091276E+04</totfact>
</mgrwt>
</event>
<event>
 4    2  0.3964208E+000  0.1945277E+03  0.7546771E-02  0.1154440E+00
         21   -1    0    0  501  502  0.00000000000E+00  0.00000000000E+00  0.17237272936E+03  0.17237272936E+03  0.00000000000E+00 0.  1.
         21   -1    0    0  502  503 -0.00000000000E+00 -0.00000000000E+00 -0.46553347405E+03  0.46553347405E+03  0.00000000000E+00 0.  1.
          6    1    1    2  501    0  0.35960037175E+02 -0.81356567276E+02  0.85277496167E+02  0.21239883866E+03  0.17300000000E+03 0.  1.
         -6    1    1    2    0  503 -0.35960037175E+02  0.81356567276E+02 -0.37843824086E+03  0.42550736475E+03  0.17300000000E+03 0.  1.
<mgrwt>
<rscale>  2 0.19452767E+03</rscale>
<asrwt>0</asrwt>
<pdfrwt beam="1">  1       21 0.26518882E-01 0.19452767E+03</pdfrwt>
<pdfrwt beam="2">  1       21 0.71620533E-01 0.19452767E+03</pdfrwt>
<totfact> 0.23806994E+04</totfact>
</mgrwt>
</event>
<event>
 4    2  0.3964208E+000  0.1874689E+03  0.7546771E-02  0.1160764E+00
         21   -1    0    0  503  502  0.00000000000E+00  0.00000000000E+00  0.52845499511E+03  0.52845499511E+03  0.00000000000E+00 0.  1.
         21   -1    0    0  501  503 -0.00000000000E+00 -0.00000000000E+00 -0.66509043755E+02  0.66509043755E+02  0.00000000000E+00 0. -1.
          6    1    1    2  501    0 -0.69245378992E+02  0.20510303367E+02  0.22849366942E+03  0.29555701991E+03  0.17300000000E+03 0. -1.
         -6    1    1    2    0  502  0.69245378992E+02 -0.20510303367E+02  0.23345228194E+03  0.29940701896E+03  0.17300000000E+03 0.  1.
<mgrwt>
<rscale>  2 0.18746892E+03</rscale>
<asrwt>0</asrwt>
<pdfrwt beam="1">  1       21 0.81300766E-01 0.18746892E+03</pdfrwt>
<pdfrwt beam="2">  1       21 0.10232161E-01 0.18746892E+03</pdfrwt>
<totfact> 0.10353244E+05</totfact>
</mgrwt>
</event>
<event>
 4    2  0.3964208E+000  0.1816381E+03  0.7546771E-02  0.1166227E+00
         21   -1    0    0  501  502  0.00000000000E+00  0.00000000000E+00  0.19273408488E+03  0.19273408488E+03  0.00000000000E+00 0.  1.
         21   -1    0    0  502  503 -0.00000000000E+00 -0.00000000000E+00 -0.36577545359E+03  0.36577545359E+03  0.00000000000E+00 0.  1.
          6    1    1    2  501    0  0.55230999645E+02 -0.35977219860E+01  0.11716409943E+03  0.21614771135E+03  0.17300000000E+03 0.  1.
         -6    1    1    2    0  503 -0.55230999645E+02  0.35977219860E+01 -0.29020546814E+03  0.34236182711E+03  0.17300000000E+03 0.  1.
<mgrwt>
<rscale>  2 0.18163812E+03</rscale>
<asrwt>0</asrwt>
<pdfrwt beam="1">  1       21 0.29651398E-01 0.18163812E+03</pdfrwt>
<pdfrwt beam="2">  1       21 0.56273147E-01 0.18163812E+03</pdfrwt>
<totfact> 0.32583368E+04</totfact>
</mgrwt>
</event>
<event>
 4    2  0.3964208E+000  0.1795450E+03  0.7546771E-02  0.1168244E+00
         21   -1    0    0  501  502  0.00000000000E+00  0.00000000000E+00  0.23529836211E+03  0.23529836211E+03  0.00000000000E+00 0. -1.
         21   -1    0    0  502  503 -0.00000000000E+00 -0.00000000000E+00 -0.13803301352E+03  0.13803301352E+03  0.00000000000E+00 0. -1.
          6    1    1    2  501    0 -0.24995436399E+02 -0.41020114184E+02  0.64762797597E+02  0.19086812610E+03  0.17300000000E+03 0. -1.
         -6    1    1    2    0  503  0.24995436399E+02  0.41020114184E+02  0.32502550999E+02  0.18246324953E+03  0.17300000000E+03 0. -1.
<mgrwt>
<rscale>  2 0.17954504E+03</rscale>
<asrwt>0</asrwt>
<pdfrwt beam="1">  1       21 0.36199748E-01 0.17954504E+03</pdfrwt>
<pdfrwt beam="2">  1       21 0.21235848E-01 0.17954504E+03</pdfrwt>
<totfact> 0.15246225E+05</totfact>
</mgrwt>
</event>
<event>
 4    2  0.3964208E+000  0.2449435E+03  0.7546771E-02  0.1116543E+00
         21   -1    0    0  503  502  0.00000000000E+00  0.00000000000E+00  0.35930529790E+03  0.35930529790E+03  0.00000000000E+00 0.  1.
         21   -1    0    0  501  503 -0.00000000000E+00 -0.00000000000E+00 -0.29786604636E+03  0.29786604636E+03  0.00000000000E+00 0.  1.
          6    1    1    2  501    0 -0.10474089991E+03 -0.13819423345E+03 -0.18709270930E+03  0.30822229664E+03  0.17300000000E+03 0.  1.
         -6    1    1    2    0  502  0.10474089991E+03  0.13819423345E+03  0.24853196084E+03  0.34894904761E+03  0.17300000000E+03 0.  1.
<mgrwt>
<rscale>  2 0.24494347E+03</rscale>
<asrwt>0</asrwt>
<pdfrwt beam="1">  1       21 0.55277738E-01 0.24494347E+03</pdfrwt>
<pdfrwt beam="2">  1       21 0.45825545E-01 0.24494347E+03</pdfrwt>
<totfact> 0.13656364E+04</totfact>
</mgrwt>
</event>
<event>
 4    2  0.3964208E+000  0.2500201E+03  0.7546771E-02  0.1113292E+00
         21   -1    0    0  503  502  0.00000000000E+00  0.00000000000E+00  0.51944904204E+03  0.51944904204E+03  0.00000000000E+00 0. -1.
         21   -1    0    0  501  503 -0.00000000000E+00 -0.00000000000E+00 -0.14275947299E+03  0.14275947299E+03  0.00000000000E+00 0. -1.
          6    1    1    2  501    0 -0.17574297081E+03 -0.41175752079E+02  0.57129738610E+02  0.25646411324E+03  0.17300000000E+03 0. -1.
         -6    1    1    2    0  502  0.17574297081E+03  0.41175752079E+02  0.31955983044E+03  0.40574440178E+03  0.17300000000E+03 0. -1.
<mgrwt>
<rscale>  2 0.25002007E+03</rscale>
<asrwt>0</asrwt>
<pdfrwt beam="1">  1       21 0.79915236E-01 0.25002007E+03</pdfrwt>
<pdfrwt beam="2">  1       21 0.21962996E-01 0.25002007E+03</pdfrwt>
<totfact> 0.25905087E+04</totfact>
</mgrwt>
</event>
<event>
 4    2  0.3964208E+000  0.1979242E+03  0.7546771E-02  0.1151502E+00
         21   -1    0    0  503  502  0.00000000000E+00  0.00000000000E+00  0.16279802321E+03  0.16279802321E+03  0.00000000000E+00 0.  1.
         21   -1    0    0  501  503 -0.00000000000E+00 -0.00000000000E+00 -0.24503131427E+03  0.24503131427E+03  0.00000000000E+00 0.  1.
          6    1    1    2  501    0  0.94275918512E+02 -0.18895471682E+02 -0.13785403492E+02  0.19840369203E+03  0.17300000000E+03 0.  1.
         -6    1    1    2    0  502 -0.94275918512E+02  0.18895471682E+02 -0.68447887567E+02  0.20942564545E+03  0.17300000000E+03 0.  1.
<mgrwt>
<rscale>  2 0.19792420E+03</rscale>
<asrwt>0</asrwt>
<pdfrwt beam="1">  1       21 0.25045850E-01 0.19792420E+03</pdfrwt>
<pdfrwt beam="2">  1       21 0.37697125E-01 0.19792420E+03</pdfrwt>
<totfact> 0.10222169E+05</totfact>
</mgrwt>
</event>
<event>
 4    2  0.3964208E+000  0.1731200E+03  0.7546771E-02  0.1174633E+00
         21   -1    0    0  503  502  0.00000000000E+00  0.00000000000E+00  0.11674143172E+03  0.11674143172E+03  0.00000000000E+00 0. -1.
         21   -1    0    0  501  503 -0.00000000000E+00 -0.00000000000E+00 -0.27010203258E+03  0.27010203258E+03  0.00000000000E+00 0. -1.
          6    1    1    2  501    0 -0.43733854317E+01  0.47338710072E+01 -0.33636714495E+02  0.17635749090E+03  0.17300000000E+03 0.  1.
         -6    1    1    2    0  502  0.43733854317E+01 -0.47338710072E+01 -0.11972388636E+03  0.21048597341E+03  0.17300000000E+03 0.  1.
<mgrwt>
<rscale>  2 0.17312000E+03</rscale>
<asrwt>0</asrwt>
<pdfrwt beam="1">  1       21 0.17960220E-01 0.17312000E+03</pdfrwt>
<pdfrwt beam="2">  1       21 0.41554159E-01 0.17312000E+03</pdfrwt>
<totfact> 0.15817364E+05</totfact>
</mgrwt>
</event>
<event>
 4    2  0.3964208E+000  0.1813212E+03  0.7546771E-02  0.1166530E+00
         21   -1    0    0  503  502  0.00000000000E+00  0.00000000000E+00  0.66389660831E+03  0.66389660831E+03  0.00000000000E+00 0.  1.
         21   -1    0    0  501  503 -0.00000000000E+00 -0.00000000000E+00 -0.13393532620E+03  0.13393532620E+03  0.00000000000E+00 0.  1.
          6    1    1    2  501    0  0.39226434625E+02  0.37545476881E+02 -0.51713325927E+02  0.18855143618E+03  0.17300000000E+03 0.  1.
         -6    1    1    2    0  502 -0.39226434625E+02 -0.37545476881E+02  0.58167460804E+03  0.60928049833E+03  0.17300000000E+03 0.  1.
<mgrwt>
<rscale>  2 0.18132120E+03</rscale>
<asrwt>0</asrwt>
<pdfrwt beam="1">  1       21 0.10213794E+00 0.18132120E+03</pdfrwt>
<pdfrwt beam="2">  1       21 0.20605435E-01 0.18132120E+03</pdfrwt>
<totfact> 0.17165114E+04</totfact>
</mgrwt>
</event>
<event>
 4    2  0.3964208E+000  0.1827480E+03  0.7546771E-02  0.1165170E+00
         21   -1    0    0  501  502  0.00000000000E+00  0.00000000000E+00  0.49828442116E+03  0.49828442116E+03  0.00000000000E+00 0. -1.
         21   -1    0    0  502  503 -0.00000000000E+00 -0.00000000000E+00 -0.10326531614E+03  0.10326531614E+03  0.00000000000E+00 0. -1.
          6    1    1    2  501    0 -0.19575692959E+02 -0.55539311388E+02  0.37569350890E+03  0.41778276113E+03  0.17300000000E+03 0. -1.
         -6    1    1    2    0  503  0.19575692959E+02  0.55539311388E+02  0.19325596122E+02  0.18376697617E+03  0.17300000000E+03 0. -1.
<mgrwt>
<rscale>  2 0.18274798E+03</rscale>
<asrwt>0</asrwt>
<pdfrwt beam="1">  1       21 0.76659141E-01 0.18274798E+03</pdfrwt>
<pdfrwt beam="2">  1       21 0.15886972E-01 0.18274798E+03</pdfrwt>
<totfact> 0.53728339E+04</totfact>
</mgrwt>
</event>
<event>
 4    2  0.3964208E+000  0.2028977E+03  0.7546771E-02  0.1147317E+00
         21   -1    0    0  501  502  0.00000000000E+00  0.00000000000E+00  0.43775747183E+03  0.43775747183E+03  0.00000000000E+00 0. -1.
         21   -1    0    0  502  503 -0.00000000000E+00 -0.00000000000E+00 -0.14474112323E+03  0.14474112323E+03  0.00000000000E+00 0.  1.
          6    1    1    2  501    0 -0.65966280538E+02  0.82987621572E+02  0.31888149505E+03  0.37795886467E+03  0.17300000000E+03 0. -1.
         -6    1    1    2    0  503  0.65966280538E+02 -0.82987621572E+02 -0.25865146446E+02  0.20453973038E+03  0.17300000000E+03 0.  1.
<mgrwt>
<rscale>  2 0.20289775E+03</rscale>
<asrwt>0</asrwt>
<pdfrwt beam="1">  1       21 0.67347303E-01 0.20289775E+03</pdfrwt>
<pdfrwt beam="2">  1       21 0.22267865E-01 0.20289775E+03</pdfrwt>
<totfact> 0.37852016E+04</totfact>
</mgrwt>
</event>
<event>
 4    2  0.3964208E+000  0.1832249E+03  0.7546771E-02  0.1164718E+00
         21   -1    0    0  503  502  0.00000000000E+00  0.00000000000E+00  0.58337155789E+02  0.58337155789E+02  0.00000000000E+00 0. -1.
         21   -1    0    0  501  503 -0.00000000000E+00 -0.00000000000E+00 -0.90452852057E+03  0.90452852057E+03  0.00000000000E+00 0.  1.
          6    1    1    2  501    0 -0.50194481822E+02  0.33509110692E+02 -0.71347148942E+03  0.73662263929E+03  0.17300000000E+03 0.  1.
         -6    1    1    2    0  502  0.50194481822E+02 -0.33509110692E+02 -0.13271987536E+03  0.22624303707E+03  0.17300000000E+03 0. -1.
<mgrwt>
<rscale>  2 0.18322485E+03</rscale>
<asrwt>0</asrwt>
<pdfrwt beam="1">  1       21 0.89749473E-02 0.18322485E+03</pdfrwt>
<pdfrwt beam="2">  1       21 0.13915823E+00 0.18322485E+03</pdfrwt>
<totfact> 0.35873288E+04</totfact>
</mgrwt>
</event>
<event>
 4    2  0.3964208E+000  0.1804884E+03  0.7546771E-02  0.1167331E+00
         21   -1    0    0  503  502  0.00000000000E+00  0.00000000000E+00  0.55355980181E+02  0.55355980181E+02  0.00000000000E+00 0.  1.
         21   -1    0    0  501  503 -0.00000000000E+00 -0.00000000000E+00 -0.68071921875E+03  0.68071921875E+03  0.00000000000E+00 0.  1.
          6    1    1    2  501    0  0.16262058451E+02 -0.48812038788E+02 -0.44815632974E+03  0.48313576307E+03  0.17300000000E+03 0.  1.
         -6    1    1    2    0  502 -0.16262058451E+02  0.48812038788E+02 -0.17720690884E+03  0.25293943586E+03  0.17300000000E+03 0.  1.
<mgrwt>
<rscale>  2 0.18048842E+03</rscale>
<asrwt>0</asrwt>
<pdfrwt beam="1">  1       21 0.85163054E-02 0.18048842E+03</pdfrwt>
<pdfrwt beam="2">  1       21 0.10472602E+00 0.18048842E+03</pdfrwt>
<totfact> 0.79538385E+04</totfact>
</mgrwt>
</event>
<event>
 4    2  0.3964208E+000  0.1846583E+03  0.7546771E-02  0.1163369E+00
         21   -1    0    0  501  502  0.00000000000E+00  0.00000000000E+00  0.11278752400E+03  0.11278752400E+03  0.00000000000E+00 0. -1.
         21   -1    0    0  502  503 -0.00000000000E+00 -0.00000000000E+00 -0.61308089252E+03  0.61308089252E+03  0.00000000000E+00 0. -1.
          6    1    1    2  501    0  0.48073719958E+02  0.43111578208E+02  0.82443530351E+01  0.18484225730E+03  0.17300000000E+03 0. -1.
         -6    1    1    2    0  503 -0.48073719958E+02 -0.43111578208E+02 -0.50853772155E+03  0.54102615923E+03  0.17300000000E+03 0. -1.
<mgrwt>
<rscale>  2 0.18465831E+03</rscale>
<asrwt>0</asrwt>
<pdfrwt beam="1">  1       21 0.17351927E-01 0.18465831E+03</pdfrwt>
<pdfrwt beam="2">  1       21 0.94320137E-01 0.18465831E+03</pdfrwt>
<totfact> 0.28428666E+04</totfact>
</mgrwt>
</event>
<event>
 4    2  0.3964208E+000  0.2129125E+03  0.7546771E-02  0.1139280E+00
         21   -1    0    0  503  502  0.00000000000E+00  0.00000000000E+00  0.97675663064E+03  0.97675663064E+03  0.00000000000E+00 0. -1.
         21   -1    0    0  501  503 -0.00000000000E+00 -0.00000000000E+00 -0.56365702718E+02  0.56365702718E+02  0.00000000000E+00 0.  1.
          6    1    1    2  501    0 -0.49352614322E+02 -0.11387295562E+03  0.24310533165E+03  0.32315929948E+03  0.17300000000E+03 0.  1.
         -6    1    1    2    0  502  0.49352614322E+02  0.11387295562E+03  0.67728559627E+03  0.70996303388E+03  0.17300000000E+03 0. -1.
<mgrwt>
<rscale>  2 0.21291250E+03</rscale>
<asrwt>0</asrwt>
<pdfrwt beam="1">  1       21 0.15027024E+00 0.21291250E+03</pdfrwt>
<pdfrwt beam="2">  1       21 0.86716473E-02 0.21291250E+03</pdfrwt>
<totfact> 0.30630634E+04</totfact>
</mgrwt>
</event>
<event>
 4    2  0.3964208E+000  0.2362859E+03  0.7546771E-02  0.1122292E+00
         21   -1    0    0  503  502  0.00000000000E+00  0.00000000000E+00  0.51386986831E+03  0.51386986831E+03  0.00000000000E+00 0.  1.
         21   -1    0    0  501  503 -0.00000000000E+00 -0.00000000000E+00 -0.29334626146E+03  0.29334626146E+03  0.00000000000E+00 0. -1.
          6    1    1    2  501    0 -0.14649055492E+03  0.66652518338E+02 -0.20999673315E+03  0.31611654309E+03  0.17300000000E+03 0. -1.
         -6    1    1    2    0  502  0.14649055492E+03 -0.66652518338E+02  0.43052034001E+03  0.49109958668E+03  0.17300000000E+03 0.  1.
<mgrwt>
<rscale>  2 0.23628593E+03</rscale>
<asrwt>0</asrwt>
<pdfrwt beam="1">  1       21 0.79056903E-01 0.23628593E+03</pdfrwt>
<pdfrwt beam="2">  1       21 0.45130194E-01 0.23628593E+03</pdfrwt>
<totfact> 0.64549728E+03</totfact>
</mgrwt>
</event>
<event>
 4    2  0.3964208E+000  0.1915243E+03  0.7546771E-02  0.1157094E+00
         21   -1    0    0  501  502  0.00000000000E+00  0.00000000000E+00  0.10166495764E+04  0.10166495764E+04  0.00000000000E+00 0. -1.
         21   -1    0    0  502  503 -0.00000000000E+00 -0.00000000000E+00 -0.40712010870E+02  0.40712010870E+02  0.00000000000E+00 0.  1.
          6    1    1    2  501    0 -0.65807157662E+02 -0.49213755436E+02  0.66627949193E+03  0.69326036746E+03  0.17300000000E+03 0. -1.
         -6    1    1    2    0  503  0.65807157662E+02  0.49213755436E+02  0.30965807361E+03  0.36410121982E+03  0.17300000000E+03 0.  1.
<mgrwt>
<rscale>  2 0.19152435E+03</rscale>
<asrwt>0</asrwt>
<pdfrwt beam="1">  1       21 0.15640761E+00 0.19152435E+03</pdfrwt>
<pdfrwt beam="2">  1       21 0.62633870E-02 0.19152435E+03</pdfrwt>
<totfact> 0.49040015E+04</totfact>
</mgrwt>
</event>
<event>
 4    2  0.3964208E+000  0.1826578E+03  0.7546771E-02  0.1165255E+00
         21   -1    0    0  501  502  0.00000000000E+00  0.00000000000E+00  0.90921701573E+03  0.90921701573E+03  0.00000000000E+00 0. -1.
         21   -1    0    0  502  503 -0.00000000000E+00 -0.00000000000E+00 -0.36918533663E+02  0.36918533663E+02  0.00000000000E+00 0. -1.
          6    1    1    2  501    0 -0.16003227821E+02 -0.56380533519E+02  0.39935220345E+03  0.43914240317E+03  0.17300000000E+03 0. -1.
         -6    1    1    2    0  503  0.16003227821E+02  0.56380533519E+02  0.47294627862E+03  0.50699314622E+03  0.17300000000E+03 0. -1.
<mgrwt>
<rscale>  2 0.18265779E+03</rscale>
<asrwt>0</asrwt>
<pdfrwt beam="1">  1       21 0.13987952E+00 0.18265779E+03</pdfrwt>
<pdfrwt beam="2">  1       21 0.56797751E-02 0.18265779E+03</pdfrwt>
<totfact> 0.78043232E+04</totfact>
</mgrwt>
</event>
<event>
 4    2  0.3964208E+000  0.1849189E+03  0.7546771E-02  0.1163126E+00
         21   -1    0    0  503  502  0.00000000000E+00  0.00000000000E+00  0.31723067098E+03  0.31723067098E+03  0.00000000000E+00 0. -1.
         21   -1    0    0  501  503 -0.00000000000E+00 -0.00000000000E+00 -0.10821588685E+03  0.10821588685E+03  0.00000000000E+00 0. -1.
          6    1    1    2  501    0  0.38659104678E+02 -0.52644883556E+02  0.91197866231E+02  0.20618453129E+03  0.17300000000E+03 0. -1.
         -6    1    1    2    0  502 -0.38659104678E+02  0.52644883556E+02  0.11781691790E+03  0.21926202654E+03  0.17300000000E+03 0. -1.
<mgrwt>
<rscale>  2 0.18491893E+03</rscale>
<asrwt>0</asrwt>
<pdfrwt beam="1">  1       21 0.48804718E-01 0.18491893E+03</pdfrwt>
<pdfrwt beam="2">  1       21 0.16648598E-01 0.18491893E+03</pdfrwt>
<totfact> 0.13025134E+05</totfact>
</mgrwt>
</event>
<event>
 4    2  0.3964208E+000  0.1825150E+03  0.7546771E-02  0.1165391E+00
         21   -1    0    0  501  502  0.00000000000E+00  0.00000000000E+00  0.12329528770E+03  0.12329528770E+03  0.00000000000E+00 0.  1.
         21   -1    0    0  502  503 -0.00000000000E+00 -0.00000000000E+00 -0.27327757632E+03  0.27327757632E+03  0.00000000000E+00 0.  1.
          6    1    1    2  501    0 -0.26829750341E+00  0.58160552412E+02 -0.53874975843E+02  0.19030038062E+03  0.17300000000E+03 0.  1.
         -6    1    1    2    0  503  0.26829750341E+00 -0.58160552412E+02 -0.96107312781E+02  0.20627248341E+03  0.17300000000E+03 0.  1.
<mgrwt>
<rscale>  2 0.18251499E+03</rscale>
<asrwt>0</asrwt>
<pdfrwt beam="1">  1       21 0.18968506E-01 0.18251499E+03</pdfrwt>
<pdfrwt beam="2">  1       21 0.42042704E-01 0.18251499E+03</pdfrwt>
<totfact> 0.13918724E+05</totfact>
</mgrwt>
</event>
<event>
 4    2  0.3964208E+000  0.2750504E+03  0.7546771E-02  0.1098423E+00
         21   -1    0    0  501  502  0.00000000000E+00  0.00000000000E+00  0.39469612164E+03  0.39469612164E+03  0.00000000000E+00 0. -1.
         21   -1    0    0  502  503 -0.00000000000E+00 -0.00000000000E+00 -0.19175106558E+03  0.19175106558E+03  0.00000000000E+00 0. -1.
          6    1    1    2  501    0 -0.66861862999E+02 -0.20310880712E+03  0.95566333413E+02  0.29117970454E+03  0.17300000000E+03 0. -1.
         -6    1    1    2    0  503  0.66861862999E+02  0.20310880712E+03  0.10737872264E+03  0.29526748268E+03  0.17300000000E+03 0. -1.
<mgrwt>
<rscale>  2 0.27505035E+03</rscale>
<asrwt>0</asrwt>
<pdfrwt beam="1">  1       21 0.60722480E-01 0.27505035E+03</pdfrwt>
<pdfrwt beam="2">  1       21 0.29500164E-01 0.27505035E+03</pdfrwt>
<totfact> 0.26707422E+04</totfact>
</mgrwt>
</event>
<event>
 4    2  0.3964208E+000  0.2486548E+03  0.7546771E-02  0.1114158E+00
         21   -1    0    0  503  502  0.00000000000E+00  0.00000000000E+00  0.76803050860E+02  0.76803050860E+02  0.00000000000E+00 0.  1.
         21   -1    0    0  501  503 -0.00000000000E+00 -0.00000000000E+00 -0.17190546547E+04  0.17190546547E+04  0.00000000000E+00 0. -1.
          6    1    1    2  501    0 -0.12789858357E+03  0.12466818363E+03 -0.14758745359E+04  0.14966745971E+04  0.17300000000E+03 0. -1.
         -6    1    1    2    0  502  0.12789858357E+03 -0.12466818363E+03 -0.16637706794E+03  0.29918310852E+03  0.17300000000E+03 0.  1.
<mgrwt>
<rscale>  2 0.24865479E+03</rscale>
<asrwt>0</asrwt>
<pdfrwt beam="1">  1       21 0.11815854E-01 0.24865479E+03</pdfrwt>
<pdfrwt beam="2">  1       21 0.26446995E+00 0.24865479E+03</pdfrwt>
<totfact> 0.31216451E+03</totfact>
</mgrwt>
</event>
<event>
 4    2  0.3964208E+000  0.2091578E+03  0.7546771E-02  0.1142235E+00
         21   -1    0    0  501  502  0.00000000000E+00  0.00000000000E+00  0.32984292038E+03  0.32984292038E+03  0.00000000000E+00 0.  1.
         21   -1    0    0  502  503 -0.00000000000E+00 -0.00000000000E+00 -0.18397991893E+03  0.18397991893E+03  0.00000000000E+00 0. -1.
          6    1    1    2  501    0 -0.90316076938E+02  0.75239547629E+02  0.20865940578E+03  0.29544158628E+03  0.17300000000E+03 0.  1.
         -6    1    1    2    0  503  0.90316076938E+02 -0.75239547629E+02 -0.62796404321E+02  0.21838125303E+03  0.17300000000E+03 0. -1.
<mgrwt>
<rscale>  2 0.20915780E+03</rscale>
<asrwt>0</asrwt>
<pdfrwt beam="1">  1       21 0.50745064E-01 0.20915780E+03</pdfrwt>
<pdfrwt beam="2">  1       21 0.28304603E-01 0.20915780E+03</pdfrwt>
<totfact> 0.43717343E+04</totfact>
</mgrwt>
</event>
<event>
 4    2  0.3964208E+000  0.1927443E+03  0.7546771E-02  0.1156009E+00
         21   -1    0    0  503  502  0.00000000000E+00  0.00000000000E+00  0.13192580183E+04  0.13192580183E+04  0.00000000000E+00 0. -1.
         21   -1    0    0  501  503 -0.00000000000E+00 -0.00000000000E+00 -0.65385922790E+02  0.65385922790E+02  0.00000000000E+00 0.  1.
          6    1    1    2  501    0  0.71755305408E+02  0.45525006971E+02  0.10455366082E+03  0.21927566692E+03  0.17300000000E+03 0.  1.
         -6    1    1    2    0  502 -0.71755305408E+02 -0.45525006971E+02  0.11493184347E+04  0.11653682742E+04  0.17300000000E+03 0. -1.
<mgrwt>
<rscale>  2 0.19274426E+03</rscale>
<asrwt>0</asrwt>
<pdfrwt beam="1">  1       21 0.20296275E+00 0.19274426E+03</pdfrwt>
<pdfrwt beam="2">  1       21 0.10059374E-01 0.19274426E+03</pdfrwt>
<totfact> 0.10321218E+04</totfact>
</mgrwt>
</event>
<event>
 4    2  0.3964208E+000  0.1902656E+03  0.7546771E-02  0.1158222E+00
         21   -1    0    0  503  502  0.00000000000E+00  0.00000000000E+00  0.43385280919E+03  0.43385280919E+03  0.00000000000E+00 0.  1.
         21   -1    0    0  501  503 -0.00000000000E+00 -0.00000000000E+00 -0.11098545270E+03  0.11098545270E+03  0.00000000000E+00 0.  1.
          6    1    1    2  501    0  0.69656203963E+02 -0.37682995674E+02  0.25719950374E+02  0.19199612173E+03  0.17300000000E+03 0.  1.
         -6    1    1    2    0  502 -0.69656203963E+02  0.37682995674E+02  0.29714740612E+03  0.35284214016E+03  0.17300000000E+03 0.  1.
<mgrwt>
<rscale>  2 0.19026559E+03</rscale>
<asrwt>0</asrwt>
<pdfrwt beam="1">  1       21 0.66746585E-01 0.19026559E+03</pdfrwt>
<pdfrwt beam="2">  1       21 0.17074685E-01 0.19026559E+03</pdfrwt>
<totfact> 0.63725882E+04</totfact>
</mgrwt>
</event>
<event>
 4    2  0.3964208E+000  0.1891407E+03  0.7546771E-02  0.1159239E+00
         21   -1    0    0  503  502  0.00000000000E+00  0.00000000000E+00  0.91686055233E+03  0.91686055233E+03  0.00000000000E+00 0.  1.
         21   -1    0    0  501  503 -0.00000000000E+00 -0.00000000000E+00 -0.45300511990E+03  0.45300511990E+03  0.00000000000E+00 0.  1.
          6    1    1    2  501    0 -0.42670992686E+02 -0.63438010711E+02 -0.42284379059E+03  0.46321816249E+03  0.17300000000E+03 0.  1.
         -6    1    1    2    0  502  0.42670992686E+02  0.63438010711E+02  0.88669922301E+03  0.90664750974E+03  0.17300000000E+03 0.  1.
<mgrwt>
<rscale>  2 0.18914067E+03</rscale>
<asrwt>0</asrwt>
<pdfrwt beam="1">  1       21 0.14105547E+00 0.18914067E+03</pdfrwt>
<pdfrwt beam="2">  1       21 0.69693095E-01 0.18914067E+03</pdfrwt>
<totfact> 0.65917024E+02</totfact>
</mgrwt>
</event>
<event>
 4    2  0.3964208E+000  0.2304483E+03  0.7546771E-02  0.1126325E+00
         21   -1    0    0  501  502  0.00000000000E+00  0.00000000000E+00  0.76847857506E+03  0.76847857506E+03  0.00000000000E+00 0.  1.
         21   -1    0    0  502  503 -0.00000000000E+00 -0.00000000000E+00 -0.11252080817E+03  0.11252080817E+03  0.00000000000E+00 0. -1.
          6    1    1    2  501    0  0.83015216141E+02 -0.12761617105E+03  0.60159934289E+03  0.64422680989E+03  0.17300000000E+03 0.  1.
         -6    1    1    2    0  503 -0.83015216141E+02  0.12761617105E+03  0.54358424009E+02  0.23677257334E+03  0.17300000000E+03 0. -1.
<mgrwt>
<rscale>  2 0.23044829E+03</rscale>
<asrwt>0</asrwt>
<pdfrwt beam="1">  1       21 0.11822747E+00 0.23044829E+03</pdfrwt>
<pdfrwt beam="2">  1       21 0.17310894E-01 0.23044829E+03</pdfrwt>
<totfact> 0.16144526E+04</totfact>
</mgrwt>
</event>
<event>
 4    2  0.3964208E+000  0.1834769E+03  0.7546771E-02  0.1164480E+00
         21   -1    0    0  501  502  0.00000000000E+00  0.00000000000E+00  0.66715717010E+03  0.66715717010E+03  0.00000000000E+00 0. -1.
         21   -1    0    0  502  503 -0.00000000000E+00 -0.00000000000E+00 -0.59942561692E+02  0.59942561692E+02  0.00000000000E+00 0.  1.
          6    1    1    2  501    0 -0.52319979998E+02 -0.31581278719E+02  0.44821562077E+03  0.48431498033E+03  0.17300000000E+03 0. -1.
         -6    1    1    2    0  503  0.52319979998E+02  0.31581278719E+02  0.15899898765E+03  0.24278475147E+03  0.17300000000E+03 0. -1.
<mgrwt>
<rscale>  2 0.18347686E+03</rscale>
<asrwt>0</asrwt>
<pdfrwt beam="1">  1       21 0.10263956E+00 0.18347686E+03</pdfrwt>
<pdfrwt beam="2">  1       21 0.92219330E-02 0.18347686E+03</pdfrwt>
<totfact> 0.72508703E+04</totfact>
</mgrwt>
</event>
<event>
 4    2  0.3964208E+000  0.2073037E+03  0.7546771E-02  0.1143719E+00
         21   -1    0    0  501  502  0.00000000000E+00  0.00000000000E+00  0.13331089119E+03  0.13331089119E+03  0.00000000000E+00 0.  1.
         21   -1    0    0  502  503 -0.00000000000E+00 -0.00000000000E+00 -0.33989726568E+03  0.33989726568E+03  0.00000000000E+00 0.  1.
          6    1    1    2  501    0  0.19738162317E+02 -0.11249994139E+03 -0.49557693831E+02  0.21314501374E+03  0.17300000000E+03 0.  1.
         -6    1    1    2    0  503 -0.19738162317E+02  0.11249994139E+03 -0.15702868066E+03  0.26006314313E+03  0.17300000000E+03 0.  1.
<mgrwt>
<rscale>  2 0.20730372E+03</rscale>
<asrwt>0</asrwt>
<pdfrwt beam="1">  1       21 0.20509368E-01 0.20730372E+03</pdfrwt>
<pdfrwt beam="2">  1       21 0.52291887E-01 0.20730372E+03</pdfrwt>
<totfact> 0.75916983E+04</totfact>
</mgrwt>
</event>
<event>
 4    2  0.3964208E+000  0.2633364E+03  0.7546771E-02  0.1105155E+00
         21   -1    0    0  501  502  0.00000000000E+00  0.00000000000E+00  0.57941617629E+02  0.57941617629E+02  0.00000000000E+00 0.  1.
         21   -1    0    0  502  503 -0.00000000000E+00 -0.00000000000E+00 -0.12572398809E+04  0.12572398809E+04  0.00000000000E+00 0. -1.
          6    1    1    2  501    0 -0.32811358133E+02 -0.19580719846E+03 -0.45549921871E+03  0.52614216942E+03  0.17300000000E+03 0.  1.
         -6    1    1    2    0  503  0.32811358133E+02  0.19580719846E+03 -0.74379904451E+03  0.78903932906E+03  0.17300000000E+03 0. -1.
<mgrwt>
<rscale>  2 0.26333637E+03</rscale>
<asrwt>0</asrwt>
<pdfrwt beam="1">  1       21 0.89140962E-02 0.26333637E+03</pdfrwt>
<pdfrwt beam="2">  1       21 0.19342150E+00 0.26333637E+03</pdfrwt>
<totfact> 0.14012056E+04</totfact>
</mgrwt>
</event>
<event>
 4    2  0.3964208E+000  0.1889838E+03  0.7546771E-02  0.1159381E+00
         21   -1    0    0  501  502  0.00000000000E+00  0.00000000000E+00  0.10666619421E+03  0.10666619421E+03  0.00000000000E+00 0.  1.
         21   -1    0    0  502  503 -0.00000000000E+00 -0.00000000000E+00 -0.40405049990E+03  0.40405049990E+03  0.00000000000E+00 0. -1.
          6    1    1    2  501    0  0.48034005843E+02 -0.58979664579E+02 -0.42997077158E+02  0.19381335144E+03  0.17300000000E+03 0.  1.
         -6    1    1    2    0  503 -0.48034005843E+02  0.58979664579E+02 -0.25438722853E+03  0.31690334267E+03  0.17300000000E+03 0. -1.
<mgrwt>
<rscale>  2 0.18898377E+03</rscale>
<asrwt>0</asrwt>
<pdfrwt beam="1">  1       21 0.16410183E-01 0.18898377E+03</pdfrwt>
<pdfrwt beam="2">  1       21 0.62161616E-01 0.18898377E+03</pdfrwt>
<totfact> 0.80046981E+04</totfact>
</mgrwt>
</event>
<event>
 4    2  0.3964208E+000  0.2258342E+03  0.7546771E-02  0.1129607E+00
         21   -1    0    0  501  502  0.00000000000E+00  0.00000000000E+00  0.64955558244E+03  0.64955558244E+03  0.00000000000E+00 0. -1.
         21   -1    0    0  502  503 -0.00000000000E+00 -0.00000000000E+00 -0.10148879234E+03  0.10148879234E+03  0.00000000000E+00 0. -1.
          6    1    1    2  501    0 -0.82259406936E+02  0.11960544107E+03  0.45269252900E+03  0.50589682484E+03  0.17300000000E+03 0. -1.
         -6    1    1    2    0  503  0.82259406936E+02 -0.11960544107E+03  0.95374261095E+02  0.24514754994E+03  0.17300000000E+03 0. -1.
<mgrwt>
<rscale>  2 0.22583417E+03</rscale>
<asrwt>0</asrwt>
<pdfrwt beam="1">  1       21 0.99931626E-01 0.22583417E+03</pdfrwt>
<pdfrwt beam="2">  1       21 0.15613661E-01 0.22583417E+03</pdfrwt>
<totfact> 0.29438994E+04</totfact>
</mgrwt>
</event>
<event>
 4    2  0.3964208E+000  0.5084273E+03  0.7546771E-02  0.1011602E+00
         21   -1    0    0  503  502  0.00000000000E+00  0.00000000000E+00  0.21595883730E+03  0.21595883730E+03  0.00000000000E+00 0.  1.
         21   -1    0    0  501  503 -0.00000000000E+00 -0.00000000000E+00 -0.15641956891E+04  0.15641956891E+04  0.00000000000E+00 0. -1.
          6    1    1    2  501    0 -0.22945505869E+03  0.41942776983E+03 -0.11053823572E+04  0.12167039220E+04  0.17300000000E+03 0. -1.
         -6    1    1    2    0  502  0.22945505869E+03 -0.41942776983E+03 -0.24285449450E+03  0.56345060437E+03  0.17300000000E+03 0.  1.
<mgrwt>
<rscale>  2 0.50842726E+03</rscale>
<asrwt>0</asrwt>
<pdfrwt beam="1">  1       21 0.33224436E-01 0.50842726E+03</pdfrwt>
<pdfrwt beam="2">  1       21 0.24064549E+00 0.50842726E+03</pdfrwt>
<totfact> 0.52131462E+02</totfact>
</mgrwt>
</event>
<event>
 4    2  0.3964208E+000  0.2344465E+03  0.7546771E-02  0.1123549E+00
         21   -1    0    0  503  502  0.00000000000E+00  0.00000000000E+00  0.66239026441E+03  0.66239026441E+03  0.00000000000E+00 0.  1.
         21   -1    0    0  501  503 -0.00000000000E+00 -0.00000000000E+00 -0.85135359563E+02  0.85135359563E+02  0.00000000000E+00 0. -1.
          6    1    1    2  501    0 -0.15527784832E+03 -0.30412936409E+02  0.22915730306E+03  0.32783872014E+03  0.17300000000E+03 0. -1.
         -6    1    1    2    0  502  0.15527784832E+03  0.30412936409E+02  0.34809760178E+03  0.41968690383E+03  0.17300000000E+03 0. -1.
<mgrwt>
<rscale>  2 0.23444649E+03</rscale>
<asrwt>0</asrwt>
<pdfrwt beam="1">  1       21 0.10190619E+00 0.23444649E+03</pdfrwt>
<pdfrwt beam="2">  1       21 0.13097748E-01 0.23444649E+03</pdfrwt>
<totfact> 0.38523735E+04</totfact>
</mgrwt>
</event>
<event>
 4    2  0.3964208E+000  0.2113506E+03  0.7546771E-02  0.1140501E+00
         21   -1    0    0  501  502  0.00000000000E+00  0.00000000000E+00  0.48465694567E+02  0.48465694567E+02  0.00000000000E+00 0. -1.
         21   -1    0    0  502  503 -0.00000000000E+00 -0.00000000000E+00 -0.92386281725E+03  0.92386281725E+03  0.00000000000E+00 0. -1.
          6    1    1    2  501    0 -0.62187978644E+02 -0.10427246800E+03 -0.46141562426E+03  0.50751696581E+03  0.17300000000E+03 0. -1.
         -6    1    1    2    0  503  0.62187978644E+02  0.10427246800E+03 -0.41398149842E+03  0.46481154601E+03  0.17300000000E+03 0. -1.
<mgrwt>
<rscale>  2 0.21135064E+03</rscale>
<asrwt>0</asrwt>
<pdfrwt beam="1">  1       21 0.74562615E-02 0.21135064E+03</pdfrwt>
<pdfrwt beam="2">  1       21 0.14213273E+00 0.21135064E+03</pdfrwt>
<totfact> 0.46176560E+04</totfact>
</mgrwt>
</event>
<event>
 4    2  0.3964208E+000  0.2020654E+03  0.7546771E-02  0.1148008E+00
         21   -1    0    0  501  502  0.00000000000E+00  0.00000000000E+00  0.41064693333E+03  0.41064693333E+03  0.00000000000E+00 0. -1.
         21   -1    0    0  502  503 -0.00000000000E+00 -0.00000000000E+00 -0.10532841335E+03  0.10532841335E+03  0.00000000000E+00 0.  1.
          6    1    1    2  501    0  0.10219664115E+03 -0.21384318702E+02  0.21371269528E+03  0.29411487326E+03  0.17300000000E+03 0. -1.
         -6    1    1    2    0  503 -0.10219664115E+03  0.21384318702E+02  0.91605824694E+02  0.22186047342E+03  0.17300000000E+03 0.  1.
<mgrwt>
<rscale>  2 0.20206544E+03</rscale>
<asrwt>0</asrwt>
<pdfrwt beam="1">  1       21 0.63176450E-01 0.20206544E+03</pdfrwt>
<pdfrwt beam="2">  1       21 0.16204372E-01 0.20206544E+03</pdfrwt>
<totfact> 0.78655139E+04</totfact>
</mgrwt>
</event>
<event>
 4    2  0.3964208E+000  0.1843972E+03  0.7546771E-02  0.1163614E+00
         21   -1    0    0  501  502  0.00000000000E+00  0.00000000000E+00  0.22341893983E+03  0.22341893983E+03  0.00000000000E+00 0.  1.
         21   -1    0    0  502  503 -0.00000000000E+00 -0.00000000000E+00 -0.56590774078E+03  0.56590774078E+03  0.00000000000E+00 0.  1.
          6    1    1    2  501    0 -0.34500834031E+02 -0.53693674389E+02  0.16620261893E+03  0.24824509815E+03  0.17300000000E+03 0.  1.
         -6    1    1    2    0  503  0.34500834031E+02  0.53693674389E+02 -0.50869141988E+03  0.54108158246E+03  0.17300000000E+03 0.  1.
<mgrwt>
<rscale>  2 0.18439718E+03</rscale>
<asrwt>0</asrwt>
<pdfrwt beam="1">  1       21 0.34372145E-01 0.18439718E+03</pdfrwt>
<pdfrwt beam="2">  1       21 0.87062728E-01 0.18439718E+03</pdfrwt>
<totfact> 0.93053586E+03</totfact>
</mgrwt>
</event>
<event>
 4    2  0.3964208E+000  0.1765326E+03  0.7546771E-02  0.1171202E+00
         21   -1    0    0  503  502  0.00000000000E+00  0.00000000000E+00  0.13555392039E+03  0.13555392039E+03  0.00000000000E+00 0. -1.
         21   -1    0    0  501  503 -0.00000000000E+00 -0.00000000000E+00 -0.42133516657E+03  0.42133516657E+03  0.00000000000E+00 0. -1.
          6    1    1    2  501    0  0.29446882614E+02  0.19174015634E+02 -0.33057858779E+03  0.37476120994E+03  0.17300000000E+03 0. -1.
         -6    1    1    2    0  502 -0.29446882614E+02 -0.19174015634E+02  0.44797341608E+02  0.18212787702E+03  0.17300000000E+03 0. -1.
<mgrwt>
<rscale>  2 0.17653261E+03</rscale>
<asrwt>0</asrwt>
<pdfrwt beam="1">  1       21 0.20854449E-01 0.17653261E+03</pdfrwt>
<pdfrwt beam="2">  1       21 0.64820795E-01 0.17653261E+03</pdfrwt>
<totfact> 0.47170088E+04</totfact>
</mgrwt>
</event>
<event>
 4    2  0.3964208E+000  0.2090962E+03  0.7546771E-02  0.1142284E+00
         21   -1    0    0  501  502  0.00000000000E+00  0.00000000000E+00  0.10960926567E+03  0.10960926567E+03  0.00000000000E+00 0.  1.
         21   -1    0    0  502  503 -0.00000000000E+00 -0.00000000000E+00 -0.48601684232E+03  0.48601684232E+03  0.00000000000E+00 0.  1.
          6    1    1    2  501    0 -0.58922093017E+02 -0.10158936217E+03 -0.62104424979E+02  0.21812421038E+03  0.17300000000E+03 0.  1.
         -6    1    1    2    0  503  0.58922093017E+02  0.10158936217E+03 -0.31430315168E+03  0.37750189762E+03  0.17300000000E+03 0.  1.
<mgrwt>
<rscale>  2 0.20909618E+03</rscale>
<asrwt>0</asrwt>
<pdfrwt beam="1">  1       21 0.16862964E-01 0.20909618E+03</pdfrwt>
<pdfrwt beam="2">  1       21 0.74771821E-01 0.20909618E+03</pdfrwt>
<totfact> 0.50279524E+04</totfact>
</mgrwt>
</event>
<event>
 4    2  0.3964208E+000  0.1920012E+03  0.7546771E-02  0.1156669E+00
         21   -1    0    0  501  502  0.00000000000E+00  0.00000000000E+00  0.19450988649E+03  0.19450988649E+03  0.00000000000E+00 0. -1.
         21   -1    0    0  502  503 -0.00000000000E+00 -0.00000000000E+00 -0.18953703269E+03  0.18953703269E+03  0.00000000000E+00 0. -1.
          6    1    1    2  501    0  0.53042952565E+02  0.64202157454E+02  0.95173734275E+00  0.19200358758E+03  0.17300000000E+03 0. -1.
         -6    1    1    2    0  503 -0.53042952565E+02 -0.64202157454E+02  0.40211164560E+01  0.19204333161E+03  0.17300000000E+03 0. -1.
<mgrwt>
<rscale>  2 0.19200123E+03</rscale>
<asrwt>0</asrwt>
<pdfrwt beam="1">  1       21 0.29924598E-01 0.19200123E+03</pdfrwt>
<pdfrwt beam="2">  1       21 0.29159543E-01 0.19200123E+03</pdfrwt>
<totfact> 0.12063401E+05</totfact>
</mgrwt>
</event>
<event>
 4    2  0.3964208E+000  0.2227803E+03  0.7546771E-02  0.1131827E+00
         21   -1    0    0  503  502  0.00000000000E+00  0.00000000000E+00  0.28479762530E+03  0.28479762530E+03  0.00000000000E+00 0.  1.
         21   -1    0    0  501  503 -0.00000000000E+00 -0.00000000000E+00 -0.18468331961E+03  0.18468331961E+03  0.00000000000E+00 0.  1.
          6    1    1    2  501    0 -0.13799563130E+03 -0.25675822461E+02  0.10580339490E+03  0.24662806103E+03  0.17300000000E+03 0.  1.
         -6    1    1    2    0  502  0.13799563130E+03  0.25675822461E+02 -0.56890892080E+01  0.22285288388E+03  0.17300000000E+03 0.  1.
<mgrwt>
<rscale>  2 0.22278026E+03</rscale>
<asrwt>0</asrwt>
<pdfrwt beam="1">  1       21 0.43815019E-01 0.22278026E+03</pdfrwt>
<pdfrwt beam="2">  1       21 0.28412818E-01 0.22278026E+03</pdfrwt>
<totfact> 0.58473700E+04</totfact>
</mgrwt>
</event>
<event>
 4    2  0.3964208E+000  0.1850484E+03  0.7546771E-02  0.1163005E+00
         21   -1    0    0  503  502  0.00000000000E+00  0.00000000000E+00  0.16781033899E+03  0.16781033899E+03  0.00000000000E+00 0.  1.
         21   -1    0    0  501  503 -0.00000000000E+00 -0.00000000000E+00 -0.64906015780E+03  0.64906015780E+03  0.00000000000E+00 0.  1.
          6    1    1    2  501    0 -0.47029730228E+02 -0.45848751122E+02 -0.57881603034E+03  0.60767664139E+03  0.17300000000E+03 0.  1.
         -6    1    1    2    0  502  0.47029730228E+02  0.45848751122E+02  0.97566211532E+02  0.20919385540E+03  0.17300000000E+03 0.  1.
<mgrwt>
<rscale>  2 0.18504838E+03</rscale>
<asrwt>0</asrwt>
<pdfrwt beam="1">  1       21 0.25816976E-01 0.18504838E+03</pdfrwt>
<pdfrwt beam="2">  1       21 0.99855406E-01 0.18504838E+03</pdfrwt>
<totfact> 0.11794725E+04</totfact>
</mgrwt>
</event>
<event>
 4    2  0.3964208E+000  0.1746642E+03  0.7546771E-02  0.1173069E+00
         21   -1    0    0  501  502  0.00000000000E+00  0.00000000000E+00  0.25181963341E+02  0.25181963341E+02  0.00000000000E+00 0.  1.
         21   -1    0    0  502  503 -0.00000000000E+00 -0.00000000000E+00 -0.12245374950E+04  0.12245374950E+04  0.00000000000E+00 0.  1.
          6    1    1    2  501    0 -0.23979344619E+02 -0.18919712664E+01 -0.66418844109E+03  0.68677061222E+03  0.17300000000E+03 0.  1.
         -6    1    1    2    0  503  0.23979344619E+02  0.18919712664E+01 -0.53516709052E+03  0.56294884607E+03  0.17300000000E+03 0.  1.
<mgrwt>
<rscale>  2 0.17466422E+03</rscale>
<asrwt>0</asrwt>
<pdfrwt beam="1">  1       21 0.38741481E-02 0.17466422E+03</pdfrwt>
<pdfrwt beam="2">  1       21 0.18839039E+00 0.17466422E+03</pdfrwt>
<totfact> 0.66800858E+04</totfact>
</mgrwt>
</event>
<event>
 4    2  0.3964208E+000  0.2015766E+03  0.7546771E-02  0.1148416E+00
         21   -1    0    0  501  502  0.00000000000E+00  0.00000000000E+00  0.41004214410E+03  0.41004214410E+03  0.00000000000E+00 0. -1.
         21   -1    0    0  502  503 -0.00000000000E+00 -0.00000000000E+00 -0.22776306829E+03  0.22776306829E+03  0.00000000000E+00 0.  1.
          6    1    1    2  501    0 -0.77054179473E+02 -0.69041850657E+02  0.33083058745E+03  0.38740418339E+03  0.17300000000E+03 0. -1.
         -6    1    1    2    0  503  0.77054179473E+02  0.69041850657E+02 -0.14855151164E+03  0.25040102900E+03  0.17300000000E+03 0.  1.
<mgrwt>
<rscale>  2 0.20157660E+03</rscale>
<asrwt>0</asrwt>
<pdfrwt beam="1">  1       21 0.63083407E-01 0.20157660E+03</pdfrwt>
<pdfrwt beam="2">  1       21 0.35040472E-01 0.20157660E+03</pdfrwt>
<totfact> 0.18160600E+04</totfact>
</mgrwt>
</event>
<event>
 4    2  0.3964208E+000  0.1767833E+03  0.7546771E-02  0.1170953E+00
         21   -1    0    0  501  502  0.00000000000E+00  0.00000000000E+00  0.27155286912E+03  0.27155286912E+03  0.00000000000E+00 0.  1.
         21   -1    0    0  502  503 -0.00000000000E+00 -0.00000000000E+00 -0.13124502067E+03  0.13124502067E+03  0.00000000000E+00 0.  1.
          6    1    1    2  501    0 -0.18242211005E+02  0.31472873070E+02  0.14081889176E+03  0.22601389400E+03  0.17300000000E+03 0.  1.
         -6    1    1    2    0  503  0.18242211005E+02 -0.31472873070E+02 -0.51104331700E+00  0.17678399579E+03  0.17300000000E+03 0.  1.
<mgrwt>
<rscale>  2 0.17678326E+03</rscale>
<asrwt>0</asrwt>
<pdfrwt beam="1">  1       21 0.41777365E-01 0.17678326E+03</pdfrwt>
<pdfrwt beam="2">  1       21 0.20191542E-01 0.17678326E+03</pdfrwt>
<totfact> 0.12576022E+05</totfact>
</mgrwt>
</event>
<event>
 4    2  0.3964208E+000  0.1997988E+03  0.7546771E-02  0.1149909E+00
         21   -1    0    0  501  502  0.00000000000E+00  0.00000000000E+00  0.21080313988E+04  0.21080313988E+04  0.00000000000E+00 0. -1.
         21   -1    0    0  502  503 -0.00000000000E+00 -0.00000000000E+00 -0.52059837941E+02  0.52059837941E+02  0.00000000000E+00 0.  1.
          6    1    1    2  501    0  0.82637393727E+02  0.56228192034E+02  0.18894856509E+04  0.19000198876E+04  0.17300000000E+03 0. -1.
         -6    1    1    2    0  503 -0.82637393727E+02 -0.56228192034E+02  0.16648590999E+03  0.26007134915E+03  0.17300000000E+03 0.  1.
<mgrwt>
<rscale>  2 0.19979877E+03</rscale>
<asrwt>0</asrwt>
<pdfrwt beam="1">  1       21 0.32431246E+00 0.19979877E+03</pdfrwt>
<pdfrwt beam="2">  1       21 0.80092075E-02 0.19979877E+03</pdfrwt>
<totfact> 0.29328381E+03</totfact>
</mgrwt>
</event>
<event>
 4    2  0.3964208E+000  0.1976091E+03  0.7546771E-02  0.1151772E+00
         21   -1    0    0  501  502  0.00000000000E+00  0.00000000000E+00  0.26320098232E+03  0.26320098232E+03  0.00000000000E+00 0. -1.
         21   -1    0    0  502  503 -0.00000000000E+00 -0.00000000000E+00 -0.18921562469E+03  0.18921562469E+03  0.00000000000E+00 0. -1.
          6    1    1    2  501    0  0.61906389850E+01 -0.95299706574E+02  0.14210136271E+03  0.24339711454E+03  0.17300000000E+03 0. -1.
         -6    1    1    2    0  503 -0.61906389850E+01  0.95299706574E+02 -0.68116005073E+02  0.20901949247E+03  0.17300000000E+03 0. -1.
<mgrwt>
<rscale>  2 0.19760910E+03</rscale>
<asrwt>0</asrwt>
<pdfrwt beam="1">  1       21 0.40492459E-01 0.19760910E+03</pdfrwt>
<pdfrwt beam="2">  1       21 0.29110096E-01 0.19760910E+03</pdfrwt>
<totfact> 0.66249443E+04</totfact>
</mgrwt>
</event>
<event>
 4    2  0.3964208E+000  0.1961478E+03  0.7546771E-02  0.1153030E+00
         21   -1    0    0  503  502  0.00000000000E+00  0.00000000000E+00  0.21466966445E+03  0.21466966445E+03  0.00000000000E+00 0. -1.
         21   -1    0    0  501  503 -0.00000000000E+00 -0.00000000000E+00 -0.32203818480E+03  0.32203818480E+03  0.00000000000E+00 0. -1.
          6    1    1    2  501    0 -0.83274414214E+02 -0.40128948493E+02 -0.23239057779E+03  0.30410416179E+03  0.17300000000E+03 0. -1.
         -6    1    1    2    0  502  0.83274414214E+02  0.40128948493E+02  0.12502205745E+03  0.23260368746E+03  0.17300000000E+03 0. -1.
<mgrwt>
<rscale>  2 0.19614780E+03</rscale>
<asrwt>0</asrwt>
<pdfrwt beam="1">  1       21 0.33026102E-01 0.19614780E+03</pdfrwt>
<pdfrwt beam="2">  1       21 0.49544336E-01 0.19614780E+03</pdfrwt>
<totfact> 0.34218602E+04</totfact>
</mgrwt>
</event>
<event>
 4    2  0.3964208E+000  0.2243969E+03  0.7546771E-02  0.1130647E+00
         21   -1    0    0  503  502  0.00000000000E+00  0.00000000000E+00  0.13974204637E+03  0.13974204637E+03  0.00000000000E+00 0.  1.
         21   -1    0    0  501  503 -0.00000000000E+00 -0.00000000000E+00 -0.37146031962E+03  0.37146031962E+03  0.00000000000E+00 0.  1.
          6    1    1    2  501    0 -0.72446665446E+02 -0.12319282377E+03 -0.16009323540E+03  0.27565165551E+03  0.17300000000E+03 0.  1.
         -6    1    1    2    0  502  0.72446665446E+02  0.12319282377E+03 -0.71625037855E+02  0.23555071049E+03  0.17300000000E+03 0.  1.
<mgrwt>
<rscale>  2 0.22439695E+03</rscale>
<asrwt>0</asrwt>
<pdfrwt beam="1">  1       21 0.21498776E-01 0.22439695E+03</pdfrwt>
<pdfrwt beam="2">  1       21 0.57147741E-01 0.22439695E+03</pdfrwt>
<totfact> 0.57136824E+04</totfact>
</mgrwt>
</event>
<event>
 4    2  0.3964208E+000  0.1973319E+03  0.7546771E-02  0.1152010E+00
         21   -1    0    0  503  502  0.00000000000E+00  0.00000000000E+00  0.51939561305E+02  0.51939561305E+02  0.00000000000E+00 0. -1.
         21   -1    0    0  501  503 -0.00000000000E+00 -0.00000000000E+00 -0.11278607221E+04  0.11278607221E+04  0.00000000000E+00 0.  1.
          6    1    1    2  501    0 -0.93342215772E+02 -0.17265758192E+02 -0.87953101922E+03  0.90139596706E+03  0.17300000000E+03 0.  1.
         -6    1    1    2    0  502  0.93342215772E+02  0.17265758192E+02 -0.19639014155E+03  0.27840431633E+03  0.17300000000E+03 0. -1.
<mgrwt>
<rscale>  2 0.19733189E+03</rscale>
<asrwt>0</asrwt>
<pdfrwt beam="1">  1       21 0.79907015E-02 0.19733189E+03</pdfrwt>
<pdfrwt beam="2">  1       21 0.17351704E+00 0.19733189E+03</pdfrwt>
<totfact> 0.24169102E+04</totfact>
</mgrwt>
</event>
<event>
 4    2  0.3964208E+000  0.2140799E+03  0.7546771E-02  0.1138375E+00
         21   -1    0    0  501  502  0.00000000000E+00  0.00000000000E+00  0.11405997526E+04  0.11405997526E+04  0.00000000000E+00 0. -1.
         21   -1    0    0  502  503 -0.00000000000E+00 -0.00000000000E+00 -0.10822410383E+03  0.10822410383E+03  0.00000000000E+00 0. -1.
          6    1    1    2  501    0 -0.48885661185E+02 -0.11623855379E+03  0.10112980450E+04  0.10337088299E+04  0.17300000000E+03 0. -1.
         -6    1    1    2    0  503  0.48885661185E+02  0.11623855379E+03  0.21077603798E+02  0.21511502653E+03  0.17300000000E+03 0. -1.
<mgrwt>
<rscale>  2 0.21407991E+03</rscale>
<asrwt>0</asrwt>
<pdfrwt beam="1">  1       21 0.17547688E+00 0.21407991E+03</pdfrwt>
<pdfrwt beam="2">  1       21 0.16649863E-01 0.21407991E+03</pdfrwt>
<totfact> 0.62228663E+03</totfact>
</mgrwt>
</event>
<event>
 4    2  0.3964208E+000  0.2390015E+03  0.7546771E-02  0.1120460E+00
         21   -1    0    0  503  502  0.00000000000E+00  0.00000000000E+00  0.61928981392E+02  0.61928981392E+02  0.00000000000E+00 0.  1.
         21   -1    0    0  501  503 -0.00000000000E+00 -0.00000000000E+00 -0.92400556864E+03  0.92400556864E+03  0.00000000000E+00 0. -1.
          6    1    1    2  501    0 -0.14346908193E+03  0.81297951142E+02 -0.41032869949E+03  0.47485932228E+03  0.17300000000E+03 0. -1.
         -6    1    1    2    0  502  0.14346908193E+03 -0.81297951142E+02 -0.45174788776E+03  0.51107522775E+03  0.17300000000E+03 0.  1.
<mgrwt>
<rscale>  2 0.23900154E+03</rscale>
<asrwt>0</asrwt>
<pdfrwt beam="1">  1       21 0.95275361E-02 0.23900154E+03</pdfrwt>
<pdfrwt beam="2">  1       21 0.14215470E+00 0.23900154E+03</pdfrwt>
<totfact> 0.29596978E+04</totfact>
</mgrwt>
</event>
<event>
 4    2  0.3964208E+000  0.2098814E+03  0.7546771E-02  0.1141660E+00
         21   -1    0    0  503  502  0.00000000000E+00  0.00000000000E+00  0.64591627676E+02  0.64591627676E+02  0.00000000000E+00 0. -1.
         21   -1    0    0  501  503 -0.00000000000E+00 -0.00000000000E+00 -0.12081782663E+04  0.12081782663E+04  0.00000000000E+00 0. -1.
          6    1    1    2  501    0  0.11830613277E+03 -0.11174861172E+02 -0.99177366371E+03  0.10137382397E+04  0.17300000000E+03 0. -1.
         -6    1    1    2    0  502 -0.11830613277E+03  0.11174861172E+02 -0.15181297492E+03  0.25903165430E+03  0.17300000000E+03 0. -1.
<mgrwt>
<rscale>  2 0.20988144E+03</rscale>
<asrwt>0</asrwt>
<pdfrwt beam="1">  1       21 0.99371749E-02 0.20988144E+03</pdfrwt>
<pdfrwt beam="2">  1       21 0.18587355E+00 0.20988144E+03</pdfrwt>
<totfact> 0.13451110E+04</totfact>
</mgrwt>
</event>
<event>
 4    2  0.3964208E+000  0.1973012E+03  0.7546771E-02  0.1152036E+00
         21   -1    0    0  501  502  0.00000000000E+00  0.00000000000E+00  0.15634336681E+04  0.15634336681E+04  0.00000000000E+00 0.  1.
         21   -1    0    0  502  503 -0.00000000000E+00 -0.00000000000E+00 -0.24962369773E+02  0.24962369773E+02  0.00000000000E+00 0.  1.
          6    1    1    2  501    0 -0.26327143382E+01  0.94825272690E+02  0.72918567317E+03  0.75540685030E+03  0.17300000000E+03 0.  1.
         -6    1    1    2    0  503  0.26327143382E+01 -0.94825272690E+02  0.80928562515E+03  0.83298918756E+03  0.17300000000E+03 0.  1.
<mgrwt>
<rscale>  2 0.19730120E+03</rscale>
<asrwt>0</asrwt>
<pdfrwt beam="1">  1       21 0.24052818E+00 0.19730120E+03</pdfrwt>
<pdfrwt beam="2">  1       21 0.38403658E-02 0.19730120E+03</pdfrwt>
<totfact> 0.31614103E+04</totfact>
</mgrwt>
</event>
<event>
 4    2  0.3964208E+000  0.3872197E+03  0.7546771E-02  0.1048297E+00
         21   -1    0    0  503  502  0.00000000000E+00  0.00000000000E+00  0.10462055581E+04  0.10462055581E+04  0.00000000000E+00 0.  1.
         21   -1    0    0  501  503 -0.00000000000E+00 -0.00000000000E+00 -0.14335757942E+03  0.14335757942E+03  0.00000000000E+00 0. -1.
          6    1    1    2  501    0  0.76798923530E+02  0.33780473864E+03  0.44142581870E+03  0.58719321310E+03  0.17300000000E+03 0. -1.
         -6    1    1    2    0  502 -0.76798923530E+02 -0.33780473864E+03  0.46142215993E+03  0.60236992436E+03  0.17300000000E+03 0. -1.
<mgrwt>
<rscale>  2 0.38721973E+03</rscale>
<asrwt>0</asrwt>
<pdfrwt beam="1">  1       21 0.16095470E+00 0.38721973E+03</pdfrwt>
<pdfrwt beam="2">  1       21 0.22055013E-01 0.38721973E+03</pdfrwt>
<totfact> 0.42250362E+03</totfact>
</mgrwt>
</event>
<event>
 4    2  0.3964208E+000  0.1944956E+03  0.7546771E-02  0.1154468E+00
         21   -1    0    0  501  502  0.00000000000E+00  0.00000000000E+00  0.33271768082E+03  0.33271768082E+03  0.00000000000E+00 0.  1.
         21   -1    0    0  502  503 -0.00000000000E+00 -0.00000000000E+00 -0.22755944650E+03  0.22755944650E+03  0.00000000000E+00 0.  1.
          6    1    1    2  501    0  0.86731988081E+02  0.19419283568E+02  0.25074018389E+03  0.31733135072E+03  0.17300000000E+03 0.  1.
         -6    1    1    2    0  503 -0.86731988081E+02 -0.19419283568E+02 -0.14558194957E+03  0.24294577661E+03  0.17300000000E+03 0.  1.
<mgrwt>
<rscale>  2 0.19449562E+03</rscale>
<asrwt>0</asrwt>
<pdfrwt beam="1">  1       21 0.51187335E-01 0.19449562E+03</pdfrwt>
<pdfrwt beam="2">  1       21 0.35009146E-01 0.19449562E+03</pdfrwt>
<totfact> 0.28508532E+04</totfact>
</mgrwt>
</event>
<event>
 4    2  0.3964208E+000  0.1990805E+03  0.7546771E-02  0.1150517E+00
         21   -1    0    0  501  502  0.00000000000E+00  0.00000000000E+00  0.24824394883E+03  0.24824394883E+03  0.00000000000E+00 0.  1.
         21   -1    0    0  502  503 -0.00000000000E+00 -0.00000000000E+00 -0.18909911253E+03  0.18909911253E+03  0.00000000000E+00 0. -1.
          6    1    1    2  501    0  0.65257331013E+02  0.73793738118E+02  0.11586177050E+03  0.23034101871E+03  0.17300000000E+03 0.  1.
         -6    1    1    2    0  503 -0.65257331013E+02 -0.73793738118E+02 -0.56716934197E+02  0.20700204265E+03  0.17300000000E+03 0. -1.
<mgrwt>
<rscale>  2 0.19908047E+03</rscale>
<asrwt>0</asrwt>
<pdfrwt beam="1">  1       21 0.38191377E-01 0.19908047E+03</pdfrwt>
<pdfrwt beam="2">  1       21 0.29092171E-01 0.19908047E+03</pdfrwt>
<totfact> 0.74585362E+04</totfact>
</mgrwt>
</event>
<event>
 4    2  0.3964208E+000  0.2384279E+03  0.7546771E-02  0.1120845E+00
         21   -1    0    0  503  502  0.00000000000E+00  0.00000000000E+00  0.53229348640E+03  0.53229348640E+03  0.00000000000E+00 0. -1.
         21   -1    0    0  501  503 -0.00000000000E+00 -0.00000000000E+00 -0.10728626179E+03  0.10728626179E+03  0.00000000000E+00 0.  1.
          6    1    1    2  501    0  0.19145074141E+02 -0.16294884717E+03  0.23407782629E+03  0.33412615794E+03  0.17300000000E+03 0. -1.
         -6    1    1    2    0  502 -0.19145074141E+02  0.16294884717E+03  0.19092939831E+03  0.30545359025E+03  0.17300000000E+03 0.  1.
<mgrwt>
<rscale>  2 0.23842789E+03</rscale>
<asrwt>0</asrwt>
<pdfrwt beam="1">  1       21 0.81891304E-01 0.23842789E+03</pdfrwt>
<pdfrwt beam="2">  1       21 0.16505579E-01 0.23842789E+03</pdfrwt>
<totfact> 0.42016355E+04</totfact>
</mgrwt>
</event>
<event>
 4    2  0.3964208E+000  0.1793560E+03  0.7546771E-02  0.1168428E+00
         21   -1    0    0  503  502  0.00000000000E+00  0.00000000000E+00  0.58473767644E+02  0.58473767644E+02  0.00000000000E+00 0.  1.
         21   -1    0    0  501  503 -0.00000000000E+00 -0.00000000000E+00 -0.73794978130E+03  0.73794978130E+03  0.00000000000E+00 0.  1.
          6    1    1    2  501    0  0.16073378519E+02 -0.44510827518E+02 -0.54063043982E+03  0.56960498569E+03  0.17300000000E+03 0.  1.
         -6    1    1    2    0  502 -0.16073378519E+02  0.44510827518E+02 -0.13884557384E+03  0.22681856326E+03  0.17300000000E+03 0.  1.
<mgrwt>
<rscale>  2 0.17935598E+03</rscale>
<asrwt>0</asrwt>
<pdfrwt beam="1">  1       21 0.89959641E-02 0.17935598E+03</pdfrwt>
<pdfrwt beam="2">  1       21 0.11353074E+00 0.17935598E+03</pdfrwt>
<totfact> 0.59523248E+04</totfact>
</mgrwt>
</event>
<event>
 4    2  0.3964208E+000  0.1947324E+03  0.7546771E-02  0.1154261E+00
         21   -1    0    0  501  502  0.00000000000E+00  0.00000000000E+00  0.23190626502E+03  0.23190626502E+03  0.00000000000E+00 0. -1.
         21   -1    0    0  502  503 -0.00000000000E+00 -0.00000000000E+00 -0.39848897224E+03  0.39848897224E+03  0.00000000000E+00 0. -1.
          6    1    1    2  501    0 -0.13601947150E+02 -0.88355407895E+02  0.15874606303E+03  0.25123893727E+03  0.17300000000E+03 0. -1.
         -6    1    1    2    0  503  0.13601947150E+02  0.88355407895E+02 -0.32532877025E+03  0.37915629999E+03  0.17300000000E+03 0. -1.
<mgrwt>
<rscale>  2 0.19473236E+03</rscale>
<asrwt>0</asrwt>
<pdfrwt beam="1">  1       21 0.35677887E-01 0.19473236E+03</pdfrwt>
<pdfrwt beam="2">  1       21 0.61305995E-01 0.19473236E+03</pdfrwt>
<totfact> 0.18717028E+04</totfact>
</mgrwt>
</event>
<event>
 4    2  0.3964208E+000  0.2069794E+03  0.7546771E-02  0.1143981E+00
         21   -1    0    0  503  502  0.00000000000E+00  0.00000000000E+00  0.42988036948E+03  0.42988036948E+03  0.00000000000E+00 0.  1.
         21   -1    0    0  501  503 -0.00000000000E+00 -0.00000000000E+00 -0.99934121584E+02  0.99934121584E+02  0.00000000000E+00 0.  1.
          6    1    1    2  501    0 -0.93985609888E+02  0.63860617830E+02  0.17892976518E+03  0.27359885643E+03  0.17300000000E+03 0.  1.
         -6    1    1    2    0  502  0.93985609888E+02 -0.63860617830E+02  0.15101648272E+03  0.25621563463E+03  0.17300000000E+03 0.  1.
<mgrwt>
<rscale>  2 0.20697940E+03</rscale>
<asrwt>0</asrwt>
<pdfrwt beam="1">  1       21 0.66135440E-01 0.20697940E+03</pdfrwt>
<pdfrwt beam="2">  1       21 0.15374480E-01 0.20697940E+03</pdfrwt>
<totfact> 0.78219366E+04</totfact>
</mgrwt>
</event>
<event>
 4    2  0.3964208E+000  0.1865208E+03  0.7546771E-02  0.1161637E+00
         21   -1    0    0  503  502  0.00000000000E+00  0.00000000000E+00  0.18251914589E+03  0.18251914589E+03  0.00000000000E+00 0. -1.
         21   -1    0    0  501  503 -0.00000000000E+00 -0.00000000000E+00 -0.21089819105E+03  0.21089819105E+03  0.00000000000E+00 0. -1.
          6    1    1    2  501    0  0.62500329164E+02 -0.30898210727E+02 -0.75200472359E+02  0.20110967559E+03  0.17300000000E+03 0. -1.
         -6    1    1    2    0  502 -0.62500329164E+02  0.30898210727E+02  0.46821427193E+02  0.19230766136E+03  0.17300000000E+03 0. -1.
<mgrwt>
<rscale>  2 0.18652075E+03</rscale>
<asrwt>0</asrwt>
<pdfrwt beam="1">  1       21 0.28079869E-01 0.18652075E+03</pdfrwt>
<pdfrwt beam="2">  1       21 0.32445876E-01 0.18652075E+03</pdfrwt>
<totfact> 0.11099426E+05</totfact>
</mgrwt>
</event>
<event>
 4    2  0.3964208E+000  0.1804704E+03  0.7546771E-02  0.1167349E+00
         21   -1    0    0  501  502  0.00000000000E+00  0.00000000000E+00  0.60301433875E+03  0.60301433875E+03  0.00000000000E+00 0.  1.
         21   -1    0    0  502  503 -0.00000000000E+00 -0.00000000000E+00 -0.54538819530E+02  0.54538819530E+02  0.00000000000E+00 0.  1.
          6    1    1    2  501    0 -0.32136345359E+02  0.40097642150E+02  0.30657350002E+03  0.35574833312E+03  0.17300000000E+03 0.  1.
         -6    1    1    2    0  503  0.32136345359E+02 -0.40097642150E+02  0.24190201919E+03  0.30180482516E+03  0.17300000000E+03 0.  1.
<mgrwt>
<rscale>  2 0.18047040E+03</rscale>
<asrwt>0</asrwt>
<pdfrwt beam="1">  1       21 0.92771432E-01 0.18047040E+03</pdfrwt>
<pdfrwt beam="2">  1       21 0.83905881E-02 0.18047040E+03</pdfrwt>
<totfact> 0.10865002E+05</totfact>
</mgrwt>
</event>
<event>
 4    2  0.3964208E+000  0.2057767E+03  0.7546771E-02  0.1144955E+00
         21   -1    0    0  503  502  0.00000000000E+00  0.00000000000E+00  0.27531374510E+03  0.27531374510E+03  0.00000000000E+00 0.  1.
         21   -1    0    0  501  503 -0.00000000000E+00 -0.00000000000E+00 -0.23450707726E+03  0.23450707726E+03  0.00000000000E+00 0.  1.
          6    1    1    2  501    0  0.93587096777E+02  0.60468911476E+02 -0.12913680654E+03  0.24294103964E+03  0.17300000000E+03 0.  1.
         -6    1    1    2    0  502 -0.93587096777E+02 -0.60468911476E+02  0.16994347438E+03  0.26687978272E+03  0.17300000000E+03 0.  1.
<mgrwt>
<rscale>  2 0.20577666E+03</rscale>
<asrwt>0</asrwt>
<pdfrwt beam="1">  1       21 0.42355961E-01 0.20577666E+03</pdfrwt>
<pdfrwt beam="2">  1       21 0.36078012E-01 0.20577666E+03</pdfrwt>
<totfact> 0.39467604E+04</totfact>
</mgrwt>
</event>
<event>
 4    2  0.3964208E+000  0.1890278E+03  0.7546771E-02  0.1159341E+00
         21   -1    0    0  501  502  0.00000000000E+00  0.00000000000E+00  0.52062189301E+03  0.52062189301E+03  0.00000000000E+00 0.  1.
         21   -1    0    0  502  503 -0.00000000000E+00 -0.00000000000E+00 -0.69329870484E+02  0.69329870484E+02  0.00000000000E+00 0. -1.
          6    1    1    2  501    0  0.64319989672E+01  0.75902130559E+02  0.25523327230E+03  0.31760907941E+03  0.17300000000E+03 0. -1.
         -6    1    1    2    0  503 -0.64319989672E+01 -0.75902130559E+02  0.19605875022E+03  0.27234268408E+03  0.17300000000E+03 0.  1.
<mgrwt>
<rscale>  2 0.18902779E+03</rscale>
<asrwt>0</asrwt>
<pdfrwt beam="1">  1       21 0.80095673E-01 0.18902779E+03</pdfrwt>
<pdfrwt beam="2">  1       21 0.10666134E-01 0.18902779E+03</pdfrwt>
<totfact> 0.99436176E+04</totfact>
</mgrwt>
</event>
<event>
 4    2  0.3964208E+000  0.2202610E+03  0.7546771E-02  0.1133689E+00
         21   -1    0    0  503  502  0.00000000000E+00  0.00000000000E+00  0.11506185748E+04  0.11506185748E+04  0.00000000000E+00 0.  1.
         21   -1    0    0  501  503 -0.00000000000E+00 -0.00000000000E+00 -0.42630780616E+02  0.42630780616E+02  0.00000000000E+00 0. -1.
          6    1    1    2  501    0  0.12415492148E+03  0.56315733860E+02  0.49157658512E+03  0.53866728641E+03  0.17300000000E+03 0.  1.
         -6    1    1    2    0  502 -0.12415492148E+03 -0.56315733860E+02  0.61641120907E+03  0.65458206902E+03  0.17300000000E+03 0. -1.
<mgrwt>
<rscale>  2 0.22026100E+03</rscale>
<asrwt>0</asrwt>
<pdfrwt beam="1">  1       21 0.17701822E+00 0.22026100E+03</pdfrwt>
<pdfrwt beam="2">  1       21 0.65585825E-02 0.22026100E+03</pdfrwt>
<totfact> 0.31708692E+04</totfact>
</mgrwt>
</event>
<event>
 4    2  0.3964208E+000  0.2730316E+03  0.7546771E-02  0.1099557E+00
         21   -1    0    0  501  502  0.00000000000E+00  0.00000000000E+00  0.31266090578E+03  0.31266090578E+03  0.00000000000E+00 0.  1.
         21   -1    0    0  502  503 -0.00000000000E+00 -0.00000000000E+00 -0.42582571207E+03  0.42582571207E+03  0.00000000000E+00 0.  1.
          6    1    1    2  501    0  0.17002132727E+03  0.12533952234E+03  0.18837019391E+03  0.33170706585E+03  0.17300000000E+03 0.  1.
         -6    1    1    2    0  503 -0.17002132727E+03 -0.12533952234E+03 -0.30153500019E+03  0.40677955200E+03  0.17300000000E+03 0.  1.
<mgrwt>
<rscale>  2 0.27303159E+03</rscale>
<asrwt>0</asrwt>
<pdfrwt beam="1">  1       21 0.48101677E-01 0.27303159E+03</pdfrwt>
<pdfrwt beam="2">  1       21 0.65511649E-01 0.27303159E+03</pdfrwt>
<totfact> 0.84234260E+03</totfact>
</mgrwt>
</event>
<event>
 4    2  0.3964208E+000  0.2157181E+03  0.7546771E-02  0.1137116E+00
         21   -1    0    0  503  502  0.00000000000E+00  0.00000000000E+00  0.59426282308E+02  0.59426282308E+02  0.00000000000E+00 0. -1.
         21   -1    0    0  501  503 -0.00000000000E+00 -0.00000000000E+00 -0.14221691524E+04  0.14221691524E+04  0.00000000000E+00 0. -1.
          6    1    1    2  501    0 -0.12033502887E+03 -0.46095246107E+02 -0.11779772883E+04  0.11975661913E+04  0.17300000000E+03 0. -1.
         -6    1    1    2    0  502  0.12033502887E+03  0.46095246107E+02 -0.18476558185E+03  0.28402924343E+03  0.17300000000E+03 0. -1.
<mgrwt>
<rscale>  2 0.21571808E+03</rscale>
<asrwt>0</asrwt>
<pdfrwt beam="1">  1       21 0.91425052E-02 0.21571808E+03</pdfrwt>
<pdfrwt beam="2">  1       21 0.21879525E+00 0.21571808E+03</pdfrwt>
<totfact> 0.95331885E+03</totfact>
</mgrwt>
</event>
<event>
 4    2  0.3964208E+000  0.2769801E+03  0.7546771E-02  0.1097350E+00
         21   -1    0    0  503  502  0.00000000000E+00  0.00000000000E+00  0.79604770075E+02  0.79604770075E+02  0.00000000000E+00 0.  1.
         21   -1    0    0  501  503 -0.00000000000E+00 -0.00000000000E+00 -0.14342943620E+04  0.14342943620E+04  0.00000000000E+00 0. -1.
          6    1    1    2  501    0  0.15523769670E+03 -0.15063273679E+03 -0.11109102347E+04  0.11449189986E+04  0.17300000000E+03 0. -1.
         -6    1    1    2    0  502 -0.15523769670E+03  0.15063273679E+03 -0.24377935724E+03  0.36898013346E+03  0.17300000000E+03 0.  1.
<mgrwt>
<rscale>  2 0.27698008E+03</rscale>
<asrwt>0</asrwt>
<pdfrwt beam="1">  1       21 0.12246887E-01 0.27698008E+03</pdfrwt>
<pdfrwt beam="2">  1       21 0.22066068E+00 0.27698008E+03</pdfrwt>
<totfact> 0.52655382E+03</totfact>
</mgrwt>
</event>
<event>
 4    2  0.3964208E+000  0.1781118E+03  0.7546771E-02  0.1169643E+00
         21   -1    0    0  501  502  0.00000000000E+00  0.00000000000E+00  0.79313619878E+02  0.79313619878E+02  0.00000000000E+00 0. -1.
         21   -1    0    0  502  503 -0.00000000000E+00 -0.00000000000E+00 -0.47580828504E+03  0.47580828504E+03  0.00000000000E+00 0. -1.
          6    1    1    2  501    0 -0.37066445256E+02 -0.20515706657E+02 -0.87442257997E+02  0.19841865857E+03  0.17300000000E+03 0. -1.
         -6    1    1    2    0  503  0.37066445256E+02  0.20515706657E+02 -0.30905240717E+03  0.35670324635E+03  0.17300000000E+03 0. -1.
<mgrwt>
<rscale>  2 0.17811181E+03</rscale>
<asrwt>0</asrwt>
<pdfrwt beam="1">  1       21 0.12202095E-01 0.17811181E+03</pdfrwt>
<pdfrwt beam="2">  1       21 0.73201275E-01 0.17811181E+03</pdfrwt>
<totfact> 0.96135770E+04</totfact>
</mgrwt>
</event>
<event>
 4    2  0.3964208E+000  0.1791732E+03  0.7546771E-02  0.1168606E+00
         21   -1    0    0  503  502  0.00000000000E+00  0.00000000000E+00  0.19338638436E+03  0.19338638436E+03  0.00000000000E+00 0.  1.
         21   -1    0    0  501  503 -0.00000000000E+00 -0.00000000000E+00 -0.38120288574E+03  0.38120288574E+03  0.00000000000E+00 0.  1.
          6    1    1    2  501    0 -0.17137709585E+02  0.43362973050E+02 -0.30976653958E+03  0.35785242428E+03  0.17300000000E+03 0.  1.
         -6    1    1    2    0  502  0.17137709585E+02 -0.43362973050E+02  0.12195003819E+03  0.21673684582E+03  0.17300000000E+03 0.  1.
<mgrwt>
<rscale>  2 0.17917324E+03</rscale>
<asrwt>0</asrwt>
<pdfrwt beam="1">  1       21 0.29751751E-01 0.17917324E+03</pdfrwt>
<pdfrwt beam="2">  1       21 0.58646598E-01 0.17917324E+03</pdfrwt>
<totfact> 0.29686432E+04</totfact>
</mgrwt>
</event>
<event>
 4    2  0.3964208E+000  0.2049288E+03  0.7546771E-02  0.1145646E+00
         21   -1    0    0  501  502  0.00000000000E+00  0.00000000000E+00  0.58384990658E+02  0.58384990658E+02  0.00000000000E+00 0. -1.
         21   -1    0    0  502  503 -0.00000000000E+00 -0.00000000000E+00 -0.74489201923E+03  0.74489201923E+03  0.00000000000E+00 0. -1.
          6    1    1    2  501    0  0.51281169522E+02 -0.97144440576E+02 -0.26879455441E+03  0.33800342182E+03  0.17300000000E+03 0. -1.
         -6    1    1    2    0  503 -0.51281169522E+02  0.97144440576E+02 -0.41771247416E+03  0.46527358806E+03  0.17300000000E+03 0. -1.
<mgrwt>
<rscale>  2 0.20492877E+03</rscale>
<asrwt>0</asrwt>
<pdfrwt beam="1">  1       21 0.89823064E-02 0.20492877E+03</pdfrwt>
<pdfrwt beam="2">  1       21 0.11459877E+00 0.20492877E+03</pdfrwt>
<totfact> 0.57596228E+04</totfact>
</mgrwt>
</event>
<event>
 4    2  0.3964208E+000  0.2504655E+03  0.7546771E-02  0.1113011E+00
         21   -1    0    0  501  502  0.00000000000E+00  0.00000000000E+00  0.58576232221E+02  0.58576232221E+02  0.00000000000E+00 0. -1.
         21   -1    0    0  502  503 -0.00000000000E+00 -0.00000000000E+00 -0.10802567759E+04  0.10802567759E+04  0.00000000000E+00 0. -1.
          6    1    1    2  501    0 -0.17598958035E+03  0.42797817423E+02 -0.45802501630E+03  0.52203438692E+03  0.17300000000E+03 0. -1.
         -6    1    1    2    0  503  0.17598958035E+03 -0.42797817423E+02 -0.56365552733E+03  0.61679862115E+03  0.17300000000E+03 0. -1.
<mgrwt>
<rscale>  2 0.25046554E+03</rscale>
<asrwt>0</asrwt>
<pdfrwt beam="1">  1       21 0.90117277E-02 0.25046554E+03</pdfrwt>
<pdfrwt beam="2">  1       21 0.16619336E+00 0.25046554E+03</pdfrwt>
<totfact> 0.21341842E+04</totfact>
</mgrwt>
</event>
<event>
 4    2  0.3964208E+000  0.1766708E+03  0.7546771E-02  0.1171064E+00
         21   -1    0    0  501  502  0.00000000000E+00  0.00000000000E+00  0.27751843683E+03  0.27751843683E+03  0.00000000000E+00 0.  1.
         21   -1    0    0  502  503 -0.00000000000E+00 -0.00000000000E+00 -0.14010267241E+03  0.14010267241E+03  0.00000000000E+00 0.  1.
          6    1    1    2  501    0 -0.19181987141E+02  0.30259438614E+02 -0.24025972420E+02  0.17829702635E+03  0.17300000000E+03 0.  1.
         -6    1    1    2    0  503  0.19181987141E+02 -0.30259438614E+02  0.16144173684E+03  0.23932408288E+03  0.17300000000E+03 0.  1.
<mgrwt>
<rscale>  2 0.17667083E+03</rscale>
<asrwt>0</asrwt>
<pdfrwt beam="1">  1       21 0.42695144E-01 0.17667083E+03</pdfrwt>
<pdfrwt beam="2">  1       21 0.21554257E-01 0.17667083E+03</pdfrwt>
<totfact> 0.10649164E+05</totfact>
</mgrwt>
</event>
<event>
 4    2  0.3964208E+000  0.2465534E+03  0.7546771E-02  0.1115503E+00
         21   -1    0    0  501  502  0.00000000000E+00  0.00000000000E+00  0.22104345535E+03  0.22104345535E+03  0.00000000000E+00 0. -1.
         21   -1    0    0  502  503 -0.00000000000E+00 -0.00000000000E+00 -0.37243281172E+03  0.37243281172E+03  0.00000000000E+00 0.  1.
          6    1    1    2  501    0 -0.81387081638E+02 -0.15567830251E+03  0.76075158701E+02  0.25802329488E+03  0.17300000000E+03 0. -1.
         -6    1    1    2    0  503  0.81387081638E+02  0.15567830251E+03 -0.22746451507E+03  0.33545297218E+03  0.17300000000E+03 0.  1.
<mgrwt>
<rscale>  2 0.24655342E+03</rscale>
<asrwt>0</asrwt>
<pdfrwt beam="1">  1       21 0.34006686E-01 0.24655342E+03</pdfrwt>
<pdfrwt beam="2">  1       21 0.57297355E-01 0.24655342E+03</pdfrwt>
<totfact> 0.23149475E+04</totfact>
</mgrwt>
</event>
<event>
 4    2  0.3964208E+000  0.1756558E+03  0.7546771E-02  0.1172075E+00
         21   -1    0    0  503  502  0.00000000000E+00  0.00000000000E+00  0.48379212185E+03  0.48379212185E+03  0.00000000000E+00 0. -1.
         21   -1    0    0  501  503 -0.00000000000E+00 -0.00000000000E+00 -0.22126841757E+03  0.22126841757E+03  0.00000000000E+00 0. -1.
          6    1    1    2  501    0  0.42427799054E+01  0.30132492970E+02 -0.16615439792E+03  0.24178968601E+03  0.17300000000E+03 0. -1.
         -6    1    1    2    0  502 -0.42427799054E+01 -0.30132492970E+02  0.42867810220E+03  0.46327085341E+03  0.17300000000E+03 0. -1.
<mgrwt>
<rscale>  2 0.17565582E+03</rscale>
<asrwt>0</asrwt>
<pdfrwt beam="1">  1       21 0.74429557E-01 0.17565582E+03</pdfrwt>
<pdfrwt beam="2">  1       21 0.34041295E-01 0.17565582E+03</pdfrwt>
<totfact> 0.13598770E+04</totfact>
</mgrwt>
</event>
<event>
 4    2  0.3964208E+000  0.2744422E+03  0.7546771E-02  0.1098764E+00
         21   -1    0    0  503  502  0.00000000000E+00  0.00000000000E+00  0.30345457499E+03  0.30345457499E+03  0.00000000000E+00 0. -1.
         21   -1    0    0  501  503 -0.00000000000E+00 -0.00000000000E+00 -0.29927408745E+03  0.29927408745E+03  0.00000000000E+00 0. -1.
          6    1    1    2  501    0  0.20757009894E+02 -0.21203453801E+03  0.12658256413E+03  0.30222780201E+03  0.17300000000E+03 0. -1.
         -6    1    1    2    0  502 -0.20757009894E+02  0.21203453801E+03 -0.12240207659E+03  0.30050086043E+03  0.17300000000E+03 0. -1.
<mgrwt>
<rscale>  2 0.27444216E+03</rscale>
<asrwt>0</asrwt>
<pdfrwt beam="1">  1       21 0.46685319E-01 0.27444216E+03</pdfrwt>
<pdfrwt beam="2">  1       21 0.46042167E-01 0.27444216E+03</pdfrwt>
<totfact> 0.19028160E+04</totfact>
</mgrwt>
</event>
<event>
 4    2  0.3964208E+000  0.1913936E+03  0.7546771E-02  0.1157210E+00
         21   -1    0    0  501  502  0.00000000000E+00  0.00000000000E+00  0.70775238475E+03  0.70775238475E+03  0.00000000000E+00 0. -1.
         21   -1    0    0  502  503 -0.00000000000E+00 -0.00000000000E+00 -0.10291511873E+03  0.10291511873E+03  0.00000000000E+00 0. -1.
          6    1    1    2  501    0 -0.59591222247E+02 -0.56137141802E+02  0.58819634104E+03  0.61855187985E+03  0.17300000000E+03 0. -1.
         -6    1    1    2    0  503  0.59591222247E+02  0.56137141802E+02  0.16640924983E+02  0.19211562363E+03  0.17300000000E+03 0. -1.
<mgrwt>
<rscale>  2 0.19139355E+03</rscale>
<asrwt>0</asrwt>
<pdfrwt beam="1">  1       21 0.10888498E+00 0.19139355E+03</pdfrwt>
<pdfrwt beam="2">  1       21 0.15833096E-01 0.19139355E+03</pdfrwt>
<totfact> 0.23811514E+04</totfact>
</mgrwt>
</event>
<event>
 4    2  0.3964208E+000  0.1806728E+03  0.7546771E-02  0.1167154E+00
         21   -1    0    0  503  502  0.00000000000E+00  0.00000000000E+00  0.14237456446E+03  0.14237456446E+03  0.00000000000E+00 0.  1.
         21   -1    0    0  501  503 -0.00000000000E+00 -0.00000000000E+00 -0.33877523524E+03  0.33877523524E+03  0.00000000000E+00 0.  1.
          6    1    1    2  501    0  0.10886904669E+02  0.50942312255E+02 -0.23497509910E+03  0.29640502875E+03  0.17300000000E+03 0.  1.
         -6    1    1    2    0  502 -0.10886904669E+02 -0.50942312255E+02  0.38574428325E+02  0.18474477095E+03  0.17300000000E+03 0.  1.
<mgrwt>
<rscale>  2 0.18067275E+03</rscale>
<asrwt>0</asrwt>
<pdfrwt beam="1">  1       21 0.21903779E-01 0.18067275E+03</pdfrwt>
<pdfrwt beam="2">  1       21 0.52119267E-01 0.18067275E+03</pdfrwt>
<totfact> 0.68346320E+04</totfact>
</mgrwt>
</event>
<event>
 4    2  0.3964208E+000  0.3473819E+03  0.7546771E-02  0.1063695E+00
         21   -1    0    0  503  502  0.00000000000E+00  0.00000000000E+00  0.28781076226E+03  0.28781076226E+03  0.00000000000E+00 0.  1.
         21   -1    0    0  501  503 -0.00000000000E+00 -0.00000000000E+00 -0.43638727538E+03  0.43638727538E+03  0.00000000000E+00 0.  1.
          6    1    1    2  501    0  0.28267290772E+03 -0.10412098544E+03 -0.14597584617E+03  0.37680644903E+03  0.17300000000E+03 0.  1.
         -6    1    1    2    0  502 -0.28267290772E+03  0.10412098544E+03 -0.26006669423E+01  0.34739158861E+03  0.17300000000E+03 0.  1.
<mgrwt>
<rscale>  2 0.34738185E+03</rscale>
<asrwt>0</asrwt>
<pdfrwt beam="1">  1       21 0.44278579E-01 0.34738185E+03</pdfrwt>
<pdfrwt beam="2">  1       21 0.67136504E-01 0.34738185E+03</pdfrwt>
<totfact> 0.91718793E+03</totfact>
</mgrwt>
</event>
<event>
 4    2  0.3964208E+000  0.1799901E+03  0.7546771E-02  0.1167813E+00
         21   -1    0    0  501  502  0.00000000000E+00  0.00000000000E+00  0.50364414975E+03  0.50364414975E+03  0.00000000000E+00 0. -1.
         21   -1    0    0  502  503 -0.00000000000E+00 -0.00000000000E+00 -0.15159240395E+03  0.15159240395E+03  0.00000000000E+00 0. -1.
          6    1    1    2  501    0  0.12734501159E+02  0.48013262559E+02  0.42460104419E+03  0.46117511601E+03  0.17300000000E+03 0. -1.
         -6    1    1    2    0  503 -0.12734501159E+02 -0.48013262559E+02 -0.72549298382E+02  0.19406143769E+03  0.17300000000E+03 0. -1.
<mgrwt>
<rscale>  2 0.17999011E+03</rscale>
<asrwt>0</asrwt>
<pdfrwt beam="1">  1       21 0.77483715E-01 0.17999011E+03</pdfrwt>
<pdfrwt beam="2">  1       21 0.23321908E-01 0.17999011E+03</pdfrwt>
<totfact> 0.25736629E+04</totfact>
</mgrwt>
</event>
<event>
 4    2  0.3964208E+000  0.1985888E+03  0.7546771E-02  0.1150935E+00
         21   -1    0    0  501  502  0.00000000000E+00  0.00000000000E+00  0.22538016662E+03  0.22538016662E+03  0.00000000000E+00 0.  1.
         21   -1    0    0  502  503 -0.00000000000E+00 -0.00000000000E+00 -0.24691715330E+03  0.24691715330E+03  0.00000000000E+00 0. -1.
          6    1    1    2  501    0  0.91847028721E+02 -0.32751283208E+02 -0.13823020889E+03  0.24196097596E+03  0.17300000000E+03 0. -1.
         -6    1    1    2    0  503 -0.91847028721E+02  0.32751283208E+02  0.11669322222E+03  0.23033634396E+03  0.17300000000E+03 0.  1.
<mgrwt>
<rscale>  2 0.19858883E+03</rscale>
<asrwt>0</asrwt>
<pdfrwt beam="1">  1       21 0.34673872E-01 0.19858883E+03</pdfrwt>
<pdfrwt beam="2">  1       21 0.37987254E-01 0.19858883E+03</pdfrwt>
<totfact> 0.53425824E+04</totfact>
</mgrwt>
</event>
<event>
 4    2  0.3964208E+000  0.2999888E+03  0.7546771E-02  0.1085246E+00
         21   -1    0    0  503  502  0.00000000000E+00  0.00000000000E+00  0.78647235393E+03  0.78647235393E+03  0.00000000000E+00 0.  1.
         21   -1    0    0  501  503 -0.00000000000E+00 -0.00000000000E+00 -0.13980102870E+03  0.13980102870E+03  0.00000000000E+00 0.  1.
          6    1    1    2  501    0 -0.20726992809E+03 -0.13078015829E+03  0.12602386114E+03  0.32538482827E+03  0.17300000000E+03 0.  1.
         -6    1    1    2    0  502  0.20726992809E+03  0.13078015829E+03  0.52064746409E+03  0.60088855436E+03  0.17300000000E+03 0.  1.
<mgrwt>
<rscale>  2 0.29998879E+03</rscale>
<asrwt>0</asrwt>
<pdfrwt beam="1">  1       21 0.12099574E+00 0.29998879E+03</pdfrwt>
<pdfrwt beam="2">  1       21 0.21507851E-01 0.29998879E+03</pdfrwt>
<totfact> 0.97798504E+03</totfact>
</mgrwt>
</event>
<event>
 4    2  0.3964208E+000  0.2284001E+03  0.7546771E-02  0.1127771E+00
         21   -1    0    0  501  502  0.00000000000E+00  0.00000000000E+00  0.16099734000E+03  0.16099734000E+03  0.00000000000E+00 0. -1.
         21   -1    0    0  502  503 -0.00000000000E+00 -0.00000000000E+00 -0.38110621050E+03  0.38110621050E+03  0.00000000000E+00 0.  1.
          6    1    1    2  501    0 -0.94262584032E+02  0.11555159479E+03 -0.51511720560E+01  0.22845818081E+03  0.17300000000E+03 0. -1.
         -6    1    1    2    0  503  0.94262584032E+02 -0.11555159479E+03 -0.21495769844E+03  0.31364536969E+03  0.17300000000E+03 0.  1.
<mgrwt>
<rscale>  2 0.22840010E+03</rscale>
<asrwt>0</asrwt>
<pdfrwt beam="1">  1       21 0.24768822E-01 0.22840010E+03</pdfrwt>
<pdfrwt beam="2">  1       21 0.58631724E-01 0.22840010E+03</pdfrwt>
<totfact> 0.41246018E+04</totfact>
</mgrwt>
</event>
<event>
 4    2  0.3964208E+000  0.3370752E+03  0.7546771E-02  0.1068049E+00
         21   -1    0    0  503  502  0.00000000000E+00  0.00000000000E+00  0.78422045842E+02  0.78422045842E+02  0.00000000000E+00 0.  1.
         21   -1    0    0  501  503 -0.00000000000E+00 -0.00000000000E+00 -0.14574038343E+04  0.14574038343E+04  0.00000000000E+00 0. -1.
          6    1    1    2  501    0  0.53451500873E+02  0.28431251035E+03 -0.63056775193E+03  0.71500724211E+03  0.17300000000E+03 0.  1.
         -6    1    1    2    0  502 -0.53451500873E+02 -0.28431251035E+03 -0.74841403656E+03  0.82081863807E+03  0.17300000000E+03 0. -1.
<mgrwt>
<rscale>  2 0.33707516E+03</rscale>
<asrwt>0</asrwt>
<pdfrwt beam="1">  1       21 0.12064931E-01 0.33707516E+03</pdfrwt>
<pdfrwt beam="2">  1       21 0.22421596E+00 0.33707516E+03</pdfrwt>
<totfact> 0.49547519E+03</totfact>
</mgrwt>
</event>
<event>
 4    2  0.3964208E+000  0.1958183E+03  0.7546771E-02  0.1153316E+00
         21   -1    0    0  503  502  0.00000000000E+00  0.00000000000E+00  0.73424395538E+03  0.73424395538E+03  0.00000000000E+00 0. -1.
         21   -1    0    0  501  503 -0.00000000000E+00 -0.00000000000E+00 -0.70421472495E+02  0.70421472495E+02  0.00000000000E+00 0. -1.
          6    1    1    2  501    0 -0.70124412484E+02  0.59147121189E+02  0.12738743071E+03  0.23360730441E+03  0.17300000000E+03 0. -1.
         -6    1    1    2    0  502  0.70124412484E+02 -0.59147121189E+02  0.53643505217E+03  0.57105812346E+03  0.17300000000E+03 0. -1.
<mgrwt>
<rscale>  2 0.19581832E+03</rscale>
<asrwt>0</asrwt>
<pdfrwt beam="1">  1       21 0.11296060E+00 0.19581832E+03</pdfrwt>
<pdfrwt beam="2">  1       21 0.10834073E-01 0.19581832E+03</pdfrwt>
<totfact> 0.43043203E+04</totfact>
</mgrwt>
</event>
<event>
 4    2  0.3964208E+000  0.2235740E+03  0.7546771E-02  0.1131246E+00
         21   -1    0    0  501  502  0.00000000000E+00  0.00000000000E+00  0.50311762469E+03  0.50311762469E+03  0.00000000000E+00 0.  1.
         21   -1    0    0  502  503 -0.00000000000E+00 -0.00000000000E+00 -0.32645274935E+03  0.32645274935E+03  0.00000000000E+00 0. -1.
          6    1    1    2  501    0  0.14065322948E+03  0.16522858955E+02  0.43429023953E+03  0.48846018055E+03  0.17300000000E+03 0.  1.
         -6    1    1    2    0  503 -0.14065322948E+03 -0.16522858955E+02 -0.25762536418E+03  0.34111019349E+03  0.17300000000E+03 0. -1.
<mgrwt>
<rscale>  2 0.22357401E+03</rscale>
<asrwt>0</asrwt>
<pdfrwt beam="1">  1       21 0.77402711E-01 0.22357401E+03</pdfrwt>
<pdfrwt beam="2">  1       21 0.50223500E-01 0.22357401E+03</pdfrwt>
<totfact> 0.54669029E+03</totfact>
</mgrwt>
</event>
<event>
 4    2  0.3964208E+000  0.2046495E+03  0.7546771E-02  0.1145874E+00
         21   -1    0    0  503  502  0.00000000000E+00  0.00000000000E+00  0.21667431459E+03  0.21667431459E+03  0.00000000000E+00 0.  1.
         21   -1    0    0  501  503 -0.00000000000E+00 -0.00000000000E+00 -0.26435919260E+03  0.26435919260E+03  0.00000000000E+00 0.  1.
          6    1    1    2  501    0 -0.10798147104E+03 -0.17100428928E+02 -0.14854706022E+03  0.25287872955E+03  0.17300000000E+03 0.  1.
         -6    1    1    2    0  502  0.10798147104E+03  0.17100428928E+02  0.10086218221E+03  0.22815477764E+03  0.17300000000E+03 0.  1.
<mgrwt>
<rscale>  2 0.20464951E+03</rscale>
<asrwt>0</asrwt>
<pdfrwt beam="1">  1       21 0.33334510E-01 0.20464951E+03</pdfrwt>
<pdfrwt beam="2">  1       21 0.40670645E-01 0.20464951E+03</pdfrwt>
<totfact> 0.50182662E+04</totfact>
</mgrwt>
</event>
<event>
 4    2  0.3964208E+000  0.2565787E+03  0.7546771E-02  0.1109216E+00
         21   -1    0    0  503  502  0.00000000000E+00  0.00000000000E+00  0.93401046641E+02  0.93401046641E+02  0.00000000000E+00 0. -1.
         21   -1    0    0  501  503 -0.00000000000E+00 -0.00000000000E+00 -0.72373461053E+03  0.72373461053E+03  0.00000000000E+00 0. -1.
          6    1    1    2  501    0 -0.92185490710E+01 -0.18925812319E+03 -0.38118518031E+03  0.45949402665E+03  0.17300000000E+03 0. -1.
         -6    1    1    2    0  502  0.92185490710E+01  0.18925812319E+03 -0.24914838358E+03  0.35764163052E+03  0.17300000000E+03 0. -1.
<mgrwt>
<rscale>  2 0.25657868E+03</rscale>
<asrwt>0</asrwt>
<pdfrwt beam="1">  1       21 0.14369392E-01 0.25657868E+03</pdfrwt>
<pdfrwt beam="2">  1       21 0.11134379E+00 0.25657868E+03</pdfrwt>
<totfact> 0.25989842E+04</totfact>
</mgrwt>
</event>
<event>
 4    2  0.3964208E+000  0.2782563E+03  0.7546771E-02  0.1096645E+00
         21   -1    0    0  503  502  0.00000000000E+00  0.00000000000E+00  0.18875204585E+03  0.18875204585E+03  0.00000000000E+00 0.  1.
         21   -1    0    0  501  503 -0.00000000000E+00 -0.00000000000E+00 -0.83513550021E+03  0.83513550021E+03  0.00000000000E+00 0.  1.
          6    1    1    2  501    0 -0.15631570276E+02  0.21737809495E+03 -0.68836918844E+03  0.74248146223E+03  0.17300000000E+03 0.  1.
         -6    1    1    2    0  502  0.15631570276E+02 -0.21737809495E+03  0.41985734086E+02  0.28140608384E+03  0.17300000000E+03 0.  1.
<mgrwt>
<rscale>  2 0.27825632E+03</rscale>
<asrwt>0</asrwt>
<pdfrwt beam="1">  1       21 0.29038776E-01 0.27825632E+03</pdfrwt>
<pdfrwt beam="2">  1       21 0.12848239E+00 0.27825632E+03</pdfrwt>
<totfact> 0.47618913E+03</totfact>
</mgrwt>
</event>
<event>
 4    2  0.3964208E+000  0.2190844E+03  0.7546771E-02  0.1134568E+00
         21   -1    0    0  503  502  0.00000000000E+00  0.00000000000E+00  0.38921828477E+03  0.38921828477E+03  0.00000000000E+00 0. -1.
         21   -1    0    0  501  503 -0.00000000000E+00 -0.00000000000E+00 -0.19631580696E+03  0.19631580696E+03  0.00000000000E+00 0. -1.
          6    1    1    2  501    0 -0.15655587748E+02  0.13350611449E+03 -0.82072804224E+02  0.23395282693E+03  0.17300000000E+03 0. -1.
         -6    1    1    2    0  502  0.15655587748E+02 -0.13350611449E+03  0.27497528204E+03  0.35158126481E+03  0.17300000000E+03 0. -1.
<mgrwt>
<rscale>  2 0.21908441E+03</rscale>
<asrwt>0</asrwt>
<pdfrwt beam="1">  1       21 0.59879736E-01 0.21908441E+03</pdfrwt>
<pdfrwt beam="2">  1       21 0.30202432E-01 0.21908441E+03</pdfrwt>
<totfact> 0.26975556E+04</totfact>
</mgrwt>
</event>
<event>
 4    2  0.3964208E+000  0.2195600E+03  0.7546771E-02  0.1134212E+00
         21   -1    0    0  501  502  0.00000000000E+00  0.00000000000E+00  0.49653114692E+02  0.49653114692E+02  0.00000000000E+00 0.  1.
         21   -1    0    0  502  503 -0.00000000000E+00 -0.00000000000E+00 -0.10713651369E+04  0.10713651369E+04  0.00000000000E+00 0.  1.
          6    1    1    2  501    0  0.12758504028E+03  0.44717531473E+02 -0.33918710129E+03  0.40404763309E+03  0.17300000000E+03 0.  1.
         -6    1    1    2    0  503 -0.12758504028E+03 -0.44717531473E+02 -0.68252492095E+03  0.71697061853E+03  0.17300000000E+03 0.  1.
<mgrwt>
<rscale>  2 0.21956001E+03</rscale>
<asrwt>0</asrwt>
<pdfrwt beam="1">  1       21 0.76389400E-02 0.21956001E+03</pdfrwt>
<pdfrwt beam="2">  1       21 0.16482542E+00 0.21956001E+03</pdfrwt>
<totfact> 0.29687997E+04</totfact>
</mgrwt>
</event>
<event>
 4    2  0.3964208E+000  0.1792441E+03  0.7546771E-02  0.1168537E+00
         21   -1    0    0  501  502  0.00000000000E+00  0.00000000000E+00  0.74171771502E+02  0.74171771502E+02  0.00000000000E+00 0. -1.
         21   -1    0    0  502  503 -0.00000000000E+00 -0.00000000000E+00 -0.55087606488E+03  0.55087606488E+03  0.00000000000E+00 0. -1.
          6    1    1    2  501    0  0.26879978017E+02 -0.38430839348E+02 -0.93885113899E+02  0.20234346355E+03  0.17300000000E+03 0. -1.
         -6    1    1    2    0  503 -0.26879978017E+02  0.38430839348E+02 -0.38281917948E+03  0.42270437283E+03  0.17300000000E+03 0. -1.
<mgrwt>
<rscale>  2 0.17924414E+03</rscale>
<asrwt>0</asrwt>
<pdfrwt beam="1">  1       21 0.11411042E-01 0.17924414E+03</pdfrwt>
<pdfrwt beam="2">  1       21 0.84750163E-01 0.17924414E+03</pdfrwt>
<totfact> 0.77895848E+04</totfact>
</mgrwt>
</event>
<event>
 4    2  0.3964208E+000  0.2271623E+03  0.7546771E-02  0.1128653E+00
         21   -1    0    0  503  502  0.00000000000E+00  0.00000000000E+00  0.90351664389E+02  0.90351664389E+02  0.00000000000E+00 0. -1.
         21   -1    0    0  501  503 -0.00000000000E+00 -0.00000000000E+00 -0.58931873551E+03  0.58931873551E+03  0.00000000000E+00 0.  1.
          6    1    1    2  501    0 -0.82304681754E+02  0.12206419588E+03 -0.30918299219E+03  0.38366241830E+03  0.17300000000E+03 0.  1.
         -6    1    1    2    0  502  0.82304681754E+02 -0.12206419588E+03 -0.18978407893E+03  0.29600798160E+03  0.17300000000E+03 0. -1.
<mgrwt>
<rscale>  2 0.22716234E+03</rscale>
<asrwt>0</asrwt>
<pdfrwt beam="1">  1       21 0.13900256E-01 0.22716234E+03</pdfrwt>
<pdfrwt beam="2">  1       21 0.90664420E-01 0.22716234E+03</pdfrwt>
<totfact> 0.45735182E+04</totfact>
</mgrwt>
</event>
<event>
 4    2  0.3964208E+000  0.2035466E+03  0.7546771E-02  0.1146781E+00
         21   -1    0    0  503  502  0.00000000000E+00  0.00000000000E+00  0.12478822448E+03  0.12478822448E+03  0.00000000000E+00 0.  1.
         21   -1    0    0  501  503 -0.00000000000E+00 -0.00000000000E+00 -0.33252744360E+03  0.33252744360E+03  0.00000000000E+00 0.  1.
          6    1    1    2  501    0 -0.86660369300E+02 -0.63183935365E+02 -0.11286921383E+03  0.23274597467E+03  0.17300000000E+03 0.  1.
         -6    1    1    2    0  502  0.86660369300E+02  0.63183935365E+02 -0.94870005290E+02  0.22456969341E+03  0.17300000000E+03 0.  1.
<mgrwt>
<rscale>  2 0.20354663E+03</rscale>
<asrwt>0</asrwt>
<pdfrwt beam="1">  1       21 0.19198189E-01 0.20354663E+03</pdfrwt>
<pdfrwt beam="2">  1       21 0.51158068E-01 0.20354663E+03</pdfrwt>
<totfact> 0.90083945E+04</totfact>
</mgrwt>
</event>
<event>
 4    2  0.3964208E+000  0.2029316E+03  0.7546771E-02  0.1147289E+00
         21   -1    0    0  503  502  0.00000000000E+00  0.00000000000E+00  0.38299981931E+02  0.38299981931E+02  0.00000000000E+00 0. -1.
         21   -1    0    0  501  503 -0.00000000000E+00 -0.00000000000E+00 -0.10811851708E+04  0.10811851708E+04  0.00000000000E+00 0.  1.
          6    1    1    2  501    0  0.10607032742E+03  0.11487899960E+01 -0.56298945780E+03  0.59844662559E+03  0.17300000000E+03 0. -1.
         -6    1    1    2    0  502 -0.10607032742E+03 -0.11487899960E+01 -0.47989573110E+03  0.52103852718E+03  0.17300000000E+03 0. -1.
<mgrwt>
<rscale>  2 0.20293160E+03</rscale>
<asrwt>0</asrwt>
<pdfrwt beam="1">  1       21 0.58923057E-02 0.20293160E+03</pdfrwt>
<pdfrwt beam="2">  1       21 0.16633616E+00 0.20293160E+03</pdfrwt>
<totfact> 0.45784326E+04</totfact>
</mgrwt>
</event>
<event>
 4    2  0.3964208E+000  0.1985000E+03  0.7546771E-02  0.1151011E+00
         21   -1    0    0  501  502  0.00000000000E+00  0.00000000000E+00  0.11085591213E+04  0.11085591213E+04  0.00000000000E+00 0.  1.
         21   -1    0    0  502  503 -0.00000000000E+00 -0.00000000000E+00 -0.73328116291E+02  0.73328116291E+02  0.00000000000E+00 0.  1.
          6    1    1    2  501    0  0.85080493857E+02  0.47271128076E+02  0.94181227892E+03  0.96250330842E+03  0.17300000000E+03 0.  1.
         -6    1    1    2    0  503 -0.85080493857E+02 -0.47271128076E+02  0.93418726039E+02  0.21938392913E+03  0.17300000000E+03 0.  1.
<mgrwt>
<rscale>  2 0.19850000E+03</rscale>
<asrwt>0</asrwt>
<pdfrwt beam="1">  1       21 0.17054755E+00 0.19850000E+03</pdfrwt>
<pdfrwt beam="2">  1       21 0.11281249E-01 0.19850000E+03</pdfrwt>
<totfact> 0.13797194E+04</totfact>
</mgrwt>
</event>
<event>
 4    2  0.3964208E+000  0.2494604E+03  0.7546771E-02  0.1113646E+00
         21   -1    0    0  501  502  0.00000000000E+00  0.00000000000E+00  0.21019993119E+03  0.21019993119E+03  0.00000000000E+00 0.  1.
         21   -1    0    0  502  503 -0.00000000000E+00 -0.00000000000E+00 -0.44967607067E+03  0.44967607067E+03  0.00000000000E+00 0. -1.
          6    1    1    2  501    0 -0.13943487117E+03 -0.11339941637E+03 -0.31258351614E+03  0.39992369959E+03  0.17300000000E+03 0. -1.
         -6    1    1    2    0  503  0.13943487117E+03  0.11339941637E+03  0.73107376667E+02  0.25995230227E+03  0.17300000000E+03 0.  1.
<mgrwt>
<rscale>  2 0.24946044E+03</rscale>
<asrwt>0</asrwt>
<pdfrwt beam="1">  1       21 0.32338452E-01 0.24946044E+03</pdfrwt>
<pdfrwt beam="2">  1       21 0.69180933E-01 0.24946044E+03</pdfrwt>
<totfact> 0.16939840E+04</totfact>
</mgrwt>
</event>
<event>
 4    2  0.3964208E+000  0.3186106E+03  0.7546771E-02  0.1076291E+00
         21   -1    0    0  501  502  0.00000000000E+00  0.00000000000E+00  0.24482496773E+02  0.24482496773E+02  0.00000000000E+00 0.  1.
         21   -1    0    0  502  503 -0.00000000000E+00 -0.00000000000E+00 -0.42350787684E+04  0.42350787684E+04  0.00000000000E+00 0. -1.
          6    1    1    2  501    0  0.82921038032E+02 -0.25437735042E+03 -0.17970056810E+04  0.18250320963E+04  0.17300000000E+03 0.  1.
         -6    1    1    2    0  503 -0.82921038032E+02  0.25437735042E+03 -0.24135905907E+04  0.24345291689E+04  0.17300000000E+03 0. -1.
<mgrwt>
<rscale>  2 0.31861063E+03</rscale>
<asrwt>0</asrwt>
<pdfrwt beam="1">  1       21 0.37665361E-02 0.31861063E+03</pdfrwt>
<pdfrwt beam="2">  1       21 0.65155089E+00 0.31861063E+03</pdfrwt>
<totfact> 0.48069007E+01</totfact>
</mgrwt>
</event>
<event>
 4    2  0.3964208E+000  0.2302499E+03  0.7546771E-02  0.1126464E+00
         21   -1    0    0  503  502  0.00000000000E+00  0.00000000000E+00  0.45484234927E+02  0.45484234927E+02  0.00000000000E+00 0. -1.
         21   -1    0    0  501  503 -0.00000000000E+00 -0.00000000000E+00 -0.11800799714E+04  0.11800799714E+04  0.00000000000E+00 0. -1.
          6    1    1    2  501    0 -0.64572876268E+02  0.13753677010E+03 -0.63524902694E+03  0.67568953352E+03  0.17300000000E+03 0. -1.
         -6    1    1    2    0  502  0.64572876268E+02 -0.13753677010E+03 -0.49934670958E+03  0.54987467285E+03  0.17300000000E+03 0. -1.
<mgrwt>
<rscale>  2 0.23024991E+03</rscale>
<asrwt>0</asrwt>
<pdfrwt beam="1">  1       21 0.69975754E-02 0.23024991E+03</pdfrwt>
<pdfrwt beam="2">  1       21 0.18155074E+00 0.23024991E+03</pdfrwt>
<totfact> 0.26224367E+04</totfact>
</mgrwt>
</event>
<event>
 4    2  0.3964208E+000  0.2621592E+03  0.7546771E-02  0.1105853E+00
         21   -1    0    0  501  502  0.00000000000E+00  0.00000000000E+00  0.22186892114E+03  0.22186892114E+03  0.00000000000E+00 0.  1.
         21   -1    0    0  502  503 -0.00000000000E+00 -0.00000000000E+00 -0.31298684497E+03  0.31298684497E+03  0.00000000000E+00 0.  1.
          6    1    1    2  501    0  0.19261248884E+03  0.41217140298E+02 -0.18429819533E+02  0.26280616766E+03  0.17300000000E+03 0.  1.
         -6    1    1    2    0  503 -0.19261248884E+03 -0.41217140298E+02 -0.72688104301E+02  0.27204959845E+03  0.17300000000E+03 0.  1.
<mgrwt>
<rscale>  2 0.26215916E+03</rscale>
<asrwt>0</asrwt>
<pdfrwt beam="1">  1       21 0.34133680E-01 0.26215916E+03</pdfrwt>
<pdfrwt beam="2">  1       21 0.48151822E-01 0.26215916E+03</pdfrwt>
<totfact> 0.32967241E+04</totfact>
</mgrwt>
</event>
<event>
 4    2  0.3964208E+000  0.2041525E+03  0.7546771E-02  0.1146282E+00
         21   -1    0    0  501  502  0.00000000000E+00  0.00000000000E+00  0.60040954681E+03  0.60040954681E+03  0.00000000000E+00 0.  1.
         21   -1    0    0  502  503 -0.00000000000E+00 -0.00000000000E+00 -0.12185337186E+03  0.12185337186E+03  0.00000000000E+00 0.  1.
          6    1    1    2  501    0  0.75347803933E+02  0.77922617402E+02  0.47617840817E+03  0.51809661480E+03  0.17300000000E+03 0.  1.
         -6    1    1    2    0  503 -0.75347803933E+02 -0.77922617402E+02  0.23777667790E+01  0.20416630387E+03  0.17300000000E+03 0.  1.
<mgrwt>
<rscale>  2 0.20415246E+03</rscale>
<asrwt>0</asrwt>
<pdfrwt beam="1">  1       21 0.92370698E-01 0.20415246E+03</pdfrwt>
<pdfrwt beam="2">  1       21 0.18746673E-01 0.20415246E+03</pdfrwt>
<totfact> 0.25581966E+04</totfact>
</mgrwt>
</event>
<event>
 4    2  0.3964208E+000  0.1891473E+03  0.7546771E-02  0.1159233E+00
         21   -1    0    0  503  502  0.00000000000E+00  0.00000000000E+00  0.73370231547E+03  0.73370231547E+03  0.00000000000E+00 0.  1.
         21   -1    0    0  501  503 -0.00000000000E+00 -0.00000000000E+00 -0.59082170729E+02  0.59082170729E+02  0.00000000000E+00 0.  1.
          6    1    1    2  501    0  0.18568337209E+02 -0.74181632205E+02  0.17164037472E+03  0.25541557497E+03  0.17300000000E+03 0.  1.
         -6    1    1    2    0  502 -0.18568337209E+02  0.74181632205E+02  0.50297977003E+03  0.53736891123E+03  0.17300000000E+03 0.  1.
<mgrwt>
<rscale>  2 0.18914729E+03</rscale>
<asrwt>0</asrwt>
<pdfrwt beam="1">  1       21 0.11287727E+00 0.18914729E+03</pdfrwt>
<pdfrwt beam="2">  1       21 0.90895653E-02 0.18914729E+03</pdfrwt>
<totfact> 0.58993485E+04</totfact>
</mgrwt>
</event>
<event>
 4    2  0.3964208E+000  0.2056478E+03  0.7546771E-02  0.1145060E+00
         21   -1    0    0  501  502  0.00000000000E+00  0.00000000000E+00  0.12834810388E+03  0.12834810388E+03  0.00000000000E+00 0. -1.
         21   -1    0    0  502  503 -0.00000000000E+00 -0.00000000000E+00 -0.70307051449E+03  0.70307051449E+03  0.00000000000E+00 0. -1.
          6    1    1    2  501    0  0.35449011787E+02 -0.10538209785E+03  0.15661491698E+02  0.20624330609E+03  0.17300000000E+03 0. -1.
         -6    1    1    2    0  503 -0.35449011787E+02  0.10538209785E+03 -0.59038390231E+03  0.62517531228E+03  0.17300000000E+03 0. -1.
<mgrwt>
<rscale>  2 0.20564780E+03</rscale>
<asrwt>0</asrwt>
<pdfrwt beam="1">  1       21 0.19745862E-01 0.20564780E+03</pdfrwt>
<pdfrwt beam="2">  1       21 0.10816470E+00 0.20564780E+03</pdfrwt>
<totfact> 0.15944881E+04</totfact>
</mgrwt>
</event>
<event>
 4    2  0.3964208E+000  0.2285368E+03  0.7546771E-02  0.1127674E+00
         21   -1    0    0  501  502  0.00000000000E+00  0.00000000000E+00  0.12726146598E+03  0.12726146598E+03  0.00000000000E+00 0.  1.
         21   -1    0    0  502  503 -0.00000000000E+00 -0.00000000000E+00 -0.56506566813E+03  0.56506566813E+03  0.00000000000E+00 0.  1.
          6    1    1    2  501    0 -0.13952573413E+03  0.53222528461E+02 -0.37802188712E+02  0.23164212374E+03  0.17300000000E+03 0.  1.
         -6    1    1    2    0  503  0.13952573413E+03 -0.53222528461E+02 -0.40000201344E+03  0.46068501036E+03  0.17300000000E+03 0.  1.
<mgrwt>
<rscale>  2 0.22853680E+03</rscale>
<asrwt>0</asrwt>
<pdfrwt beam="1">  1       21 0.19578687E-01 0.22853680E+03</pdfrwt>
<pdfrwt beam="2">  1       21 0.86933178E-01 0.22853680E+03</pdfrwt>
<totfact> 0.26799369E+04</totfact>
</mgrwt>
</event>
<event>
 4    2  0.3964208E+000  0.3128195E+03  0.7546771E-02  0.1079002E+00
         21   -1    0    0  501  502  0.00000000000E+00  0.00000000000E+00  0.25305505116E+03  0.25305505116E+03  0.00000000000E+00 0.  1.
         21   -1    0    0  502  503 -0.00000000000E+00 -0.00000000000E+00 -0.38679260913E+03  0.38679260913E+03  0.00000000000E+00 0.  1.
          6    1    1    2  501    0  0.28630679793E+02  0.25905087286E+03 -0.71852556693E+02  0.32096551288E+03  0.17300000000E+03 0.  1.
         -6    1    1    2    0  503 -0.28630679793E+02 -0.25905087286E+03 -0.61885001276E+02  0.31888214741E+03  0.17300000000E+03 0.  1.
<mgrwt>
<rscale>  2 0.31281955E+03</rscale>
<asrwt>0</asrwt>
<pdfrwt beam="1">  1       21 0.38931547E-01 0.31281955E+03</pdfrwt>
<pdfrwt beam="2">  1       21 0.59506555E-01 0.31281955E+03</pdfrwt>
<totfact> 0.15791443E+04</totfact>
</mgrwt>
</event>
<event>
 4    2  0.3964208E+000  0.2190469E+03  0.7546771E-02  0.1134596E+00
         21   -1    0    0  501  502  0.00000000000E+00  0.00000000000E+00  0.21825656444E+03  0.21825656444E+03  0.00000000000E+00 0.  1.
         21   -1    0    0  502  503 -0.00000000000E+00 -0.00000000000E+00 -0.21992673410E+03  0.21992673410E+03  0.00000000000E+00 0.  1.
          6    1    1    2  501    0 -0.12805275594E+03  0.40682004458E+02  0.35146157546E+01  0.21907507004E+03  0.17300000000E+03 0.  1.
         -6    1    1    2    0  503  0.12805275594E+03 -0.40682004458E+02 -0.51847854141E+01  0.21910822849E+03  0.17300000000E+03 0.  1.
<mgrwt>
<rscale>  2 0.21904688E+03</rscale>
<asrwt>0</asrwt>
<pdfrwt beam="1">  1       21 0.33577933E-01 0.21904688E+03</pdfrwt>
<pdfrwt beam="2">  1       21 0.33834882E-01 0.21904688E+03</pdfrwt>
<totfact> 0.71074667E+04</totfact>
</mgrwt>
</event>
<event>
 4    2  0.3964208E+000  0.1747284E+03  0.7546771E-02  0.1173005E+00
         21   -1    0    0  501  502  0.00000000000E+00  0.00000000000E+00  0.26065589411E+03  0.26065589411E+03  0.00000000000E+00 0. -1.
         21   -1    0    0  502  503 -0.00000000000E+00 -0.00000000000E+00 -0.28391513574E+03  0.28391513574E+03  0.00000000000E+00 0. -1.
          6    1    1    2  501    0  0.42546559827E+01 -0.24143561871E+02  0.19706535300E+03  0.26337191770E+03  0.17300000000E+03 0. -1.
         -6    1    1    2    0  503 -0.42546559827E+01  0.24143561871E+02 -0.22032459463E+03  0.28119911216E+03  0.17300000000E+03 0. -1.
<mgrwt>
<rscale>  2 0.17472840E+03</rscale>
<asrwt>0</asrwt>
<pdfrwt beam="1">  1       21 0.40100907E-01 0.17472840E+03</pdfrwt>
<pdfrwt beam="2">  1       21 0.43679251E-01 0.17472840E+03</pdfrwt>
<totfact> 0.30481845E+04</totfact>
</mgrwt>
</event>
<event>
 4    2  0.3964208E+000  0.2328277E+03  0.7546771E-02  0.1124665E+00
         21   -1    0    0  503  502  0.00000000000E+00  0.00000000000E+00  0.66471416561E+02  0.66471416561E+02  0.00000000000E+00 0. -1.
         21   -1    0    0  501  503 -0.00000000000E+00 -0.00000000000E+00 -0.81558755249E+03  0.81558755249E+03  0.00000000000E+00 0.  1.
          6    1    1    2  501    0 -0.38599909042E+02  0.15096293114E+03 -0.37857634350E+03  0.44444213056E+03  0.17300000000E+03 0. -1.
         -6    1    1    2    0  502  0.38599909042E+02 -0.15096293114E+03 -0.37053979243E+03  0.43761683849E+03  0.17300000000E+03 0.  1.
<mgrwt>
<rscale>  2 0.23282775E+03</rscale>
<asrwt>0</asrwt>
<pdfrwt beam="1">  1       21 0.10226372E-01 0.23282775E+03</pdfrwt>
<pdfrwt beam="2">  1       21 0.12547500E+00 0.23282775E+03</pdfrwt>
<totfact> 0.36057645E+04</totfact>
</mgrwt>
</event>
<event>
 4    2  0.3964208E+000  0.2009056E+03  0.7546771E-02  0.1148977E+00
         21   -1    0    0  503  502  0.00000000000E+00  0.00000000000E+00  0.10845160844E+04  0.10845160844E+04  0.00000000000E+00 0.  1.
         21   -1    0    0  501  503 -0.00000000000E+00 -0.00000000000E+00 -0.51908377044E+02  0.51908377044E+02  0.00000000000E+00 0.  1.
          6    1    1    2  501    0 -0.61266977120E+02 -0.81733862571E+02  0.21402031629E+03  0.29354345940E+03  0.17300000000E+03 0.  1.
         -6    1    1    2    0  502  0.61266977120E+02  0.81733862571E+02  0.81858739102E+03  0.84288100199E+03  0.17300000000E+03 0.  1.
<mgrwt>
<rscale>  2 0.20090562E+03</rscale>
<asrwt>0</asrwt>
<pdfrwt beam="1">  1       21 0.16684861E+00 0.20090562E+03</pdfrwt>
<pdfrwt beam="2">  1       21 0.79859050E-02 0.20090562E+03</pdfrwt>
<totfact> 0.26889150E+04</totfact>
</mgrwt>
</event>
<event>
 4    2  0.3964208E+000  0.1877570E+03  0.7546771E-02  0.1160500E+00
         21   -1    0    0  501  502  0.00000000000E+00  0.00000000000E+00  0.19854720784E+02  0.19854720784E+02  0.00000000000E+00 0.  1.
         21   -1    0    0  502  503 -0.00000000000E+00 -0.00000000000E+00 -0.18263757506E+04  0.18263757506E+04  0.00000000000E+00 0. -1.
          6    1    1    2  501    0  0.57424950790E+02  0.45011640184E+02 -0.74923814177E+03  0.77240563554E+03  0.17300000000E+03 0.  1.
         -6    1    1    2    0  503 -0.57424950790E+02 -0.45011640184E+02 -0.10572828880E+04  0.10738248358E+04  0.17300000000E+03 0. -1.
<mgrwt>
<rscale>  2 0.18775695E+03</rscale>
<asrwt>0</asrwt>
<pdfrwt beam="1">  1       21 0.30545710E-02 0.18775695E+03</pdfrwt>
<pdfrwt beam="2">  1       21 0.28098102E+00 0.18775695E+03</pdfrwt>
<totfact> 0.27098898E+04</totfact>
</mgrwt>
</event>
<event>
 4    2  0.3964208E+000  0.1742673E+03  0.7546771E-02  0.1173469E+00
         21   -1    0    0  501  502  0.00000000000E+00  0.00000000000E+00  0.31228013291E+03  0.31228013291E+03  0.00000000000E+00 0.  1.
         21   -1    0    0  502  503 -0.00000000000E+00 -0.00000000000E+00 -0.27736465758E+03  0.27736465758E+03  0.00000000000E+00 0.  1.
          6    1    1    2  501    0 -0.22543175729E+01 -0.20857122072E+02  0.25503779561E+03  0.30889056101E+03  0.17300000000E+03 0.  1.
         -6    1    1    2    0  503  0.22543175729E+01  0.20857122072E+02 -0.22012232027E+03  0.28075422948E+03  0.17300000000E+03 0.  1.
<mgrwt>
<rscale>  2 0.17426733E+03</rscale>
<asrwt>0</asrwt>
<pdfrwt beam="1">  1       21 0.48043098E-01 0.17426733E+03</pdfrwt>
<pdfrwt beam="2">  1       21 0.42671485E-01 0.17426733E+03</pdfrwt>
<totfact> 0.22110418E+04</totfact>
</mgrwt>
</event>
<event>
 4    2  0.3964208E+000  0.2681682E+03  0.7546771E-02  0.1102333E+00
         21   -1    0    0  501  502  0.00000000000E+00  0.00000000000E+00  0.20982236900E+04  0.20982236900E+04  0.00000000000E+00 0. -1.
         21   -1    0    0  502  503 -0.00000000000E+00 -0.00000000000E+00 -0.34645220635E+02  0.34645220635E+02  0.00000000000E+00 0.  1.
          6    1    1    2  501    0 -0.17817584451E+03 -0.10118582380E+03  0.92137712591E+03  0.95960930105E+03  0.17300000000E+03 0.  1.
         -6    1    1    2    0  503  0.17817584451E+03  0.10118582380E+03  0.11422013435E+04  0.11732596096E+04  0.17300000000E+03 0. -1.
<mgrwt>
<rscale>  2 0.26816824E+03</rscale>
<asrwt>0</asrwt>
<pdfrwt beam="1">  1       21 0.32280355E+00 0.26816824E+03</pdfrwt>
<pdfrwt beam="2">  1       21 0.53300356E-02 0.26816824E+03</pdfrwt>
<totfact> 0.56357186E+03</totfact>
</mgrwt>
</event>
<event>
 4    2  0.3964208E+000  0.1806141E+03  0.7546771E-02  0.1167210E+00
         21   -1    0    0  501  502  0.00000000000E+00  0.00000000000E+00  0.21086932975E+03  0.21086932975E+03  0.00000000000E+00 0.  1.
         21   -1    0    0  502  503 -0.00000000000E+00 -0.00000000000E+00 -0.25894264210E+03  0.25894264210E+03  0.00000000000E+00 0.  1.
          6    1    1    2  501    0 -0.24262059714E+02  0.45867256196E+02  0.12500762720E+03  0.21965509234E+03  0.17300000000E+03 0.  1.
         -6    1    1    2    0  503  0.24262059714E+02 -0.45867256196E+02 -0.17308093955E+03  0.25015687951E+03  0.17300000000E+03 0.  1.
<mgrwt>
<rscale>  2 0.18061410E+03</rscale>
<asrwt>0</asrwt>
<pdfrwt beam="1">  1       21 0.32441435E-01 0.18061410E+03</pdfrwt>
<pdfrwt beam="2">  1       21 0.39837330E-01 0.18061410E+03</pdfrwt>
<totfact> 0.55831347E+04</totfact>
</mgrwt>
</event>
<event>
 4    2  0.3964208E+000  0.1933396E+03  0.7546771E-02  0.1155483E+00
         21   -1    0    0  503  502  0.00000000000E+00  0.00000000000E+00  0.19366650807E+03  0.19366650807E+03  0.00000000000E+00 0. -1.
         21   -1    0    0  501  503 -0.00000000000E+00 -0.00000000000E+00 -0.27468129199E+03  0.27468129199E+03  0.00000000000E+00 0. -1.
          6    1    1    2  501    0 -0.31367798145E+02  0.80419388532E+02 -0.16819531371E+03  0.25626135168E+03  0.17300000000E+03 0. -1.
         -6    1    1    2    0  502  0.31367798145E+02 -0.80419388532E+02  0.87180529782E+02  0.21208644838E+03  0.17300000000E+03 0. -1.
<mgrwt>
<rscale>  2 0.19333964E+03</rscale>
<asrwt>0</asrwt>
<pdfrwt beam="1">  1       21 0.29794848E-01 0.19333964E+03</pdfrwt>
<pdfrwt beam="2">  1       21 0.42258660E-01 0.19333964E+03</pdfrwt>
<totfact> 0.58179304E+04</totfact>
</mgrwt>
</event>
<event>
 4    2  0.3964208E+000  0.2341635E+03  0.7546771E-02  0.1123743E+00
         21   -1    0    0  503  502  0.00000000000E+00  0.00000000000E+00  0.10153169463E+04  0.10153169463E+04  0.00000000000E+00 0. -1.
         21   -1    0    0  501  503 -0.00000000000E+00 -0.00000000000E+00 -0.79745789982E+02  0.79745789982E+02  0.00000000000E+00 0. -1.
          6    1    1    2  501    0 -0.10619036503E+03  0.11673547979E+03  0.15671212565E+03  0.28176454034E+03  0.17300000000E+03 0. -1.
         -6    1    1    2    0  502  0.10619036503E+03 -0.11673547979E+03  0.77885903064E+03  0.81329819591E+03  0.17300000000E+03 0. -1.
<mgrwt>
<rscale>  2 0.23416355E+03</rscale>
<asrwt>0</asrwt>
<pdfrwt beam="1">  1       21 0.15620260E+00 0.23416355E+03</pdfrwt>
<pdfrwt beam="2">  1       21 0.12268584E-01 0.23416355E+03</pdfrwt>
<totfact> 0.14723461E+04</totfact>
</mgrwt>
</event>
<event>
 4    2  0.3964208E+000  0.1781229E+03  0.7546771E-02  0.1169632E+00
         21   -1    0    0  501  502  0.00000000000E+00  0.00000000000E+00  0.22367690936E+03  0.22367690936E+03  0.00000000000E+00 0. -1.
         21   -1    0    0  502  503 -0.00000000000E+00 -0.00000000000E+00 -0.17096040524E+03  0.17096040524E+03  0.00000000000E+00 0. -1.
          6    1    1    2  501    0  0.42408624549E+02 -0.52966562733E+00  0.10778575293E+03  0.20819591859E+03  0.17300000000E+03 0. -1.
         -6    1    1    2    0  503 -0.42408624549E+02  0.52966562733E+00 -0.55069248805E+02  0.18644139601E+03  0.17300000000E+03 0. -1.
<mgrwt>
<rscale>  2 0.17812291E+03</rscale>
<asrwt>0</asrwt>
<pdfrwt beam="1">  1       21 0.34411832E-01 0.17812291E+03</pdfrwt>
<pdfrwt beam="2">  1       21 0.26301601E-01 0.17812291E+03</pdfrwt>
<totfact> 0.11244458E+05</totfact>
</mgrwt>
</event>
<event>
 4    2  0.3964208E+000  0.1836726E+03  0.7546771E-02  0.1164295E+00
         21   -1    0    0  503  502  0.00000000000E+00  0.00000000000E+00  0.29892763550E+03  0.29892763550E+03  0.00000000000E+00 0. -1.
         21   -1    0    0  501  503 -0.00000000000E+00 -0.00000000000E+00 -0.18169363701E+03  0.18169363701E+03  0.00000000000E+00 0. -1.
          6    1    1    2  501    0  0.61548561182E+02  0.42904543475E+01 -0.89299843740E+02  0.20423049595E+03  0.17300000000E+03 0. -1.
         -6    1    1    2    0  502 -0.61548561182E+02 -0.42904543475E+01  0.20653384224E+03  0.27639077657E+03  0.17300000000E+03 0. -1.
<mgrwt>
<rscale>  2 0.18367263E+03</rscale>
<asrwt>0</asrwt>
<pdfrwt beam="1">  1       21 0.45988867E-01 0.18367263E+03</pdfrwt>
<pdfrwt beam="2">  1       21 0.27952867E-01 0.18367263E+03</pdfrwt>
<totfact> 0.55615427E+04</totfact>
</mgrwt>
</event>
<event>
 4    2  0.3964208E+000  0.1842629E+03  0.7546771E-02  0.1163740E+00
         21   -1    0    0  501  502  0.00000000000E+00  0.00000000000E+00  0.21890306879E+03  0.21890306879E+03  0.00000000000E+00 0.  1.
         21   -1    0    0  502  503 -0.00000000000E+00 -0.00000000000E+00 -0.18751494066E+03  0.18751494066E+03  0.00000000000E+00 0.  1.
          6    1    1    2  501    0 -0.62601611416E+02 -0.10240294815E+02 -0.68788728919E+02  0.19668430191E+03  0.17300000000E+03 0.  1.
         -6    1    1    2    0  503  0.62601611416E+02  0.10240294815E+02  0.10017685705E+03  0.20973370754E+03  0.17300000000E+03 0.  1.
<mgrwt>
<rscale>  2 0.18426292E+03</rscale>
<asrwt>0</asrwt>
<pdfrwt beam="1">  1       21 0.33677395E-01 0.18426292E+03</pdfrwt>
<pdfrwt beam="2">  1       21 0.28848452E-01 0.18426292E+03</pdfrwt>
<totfact> 0.97971421E+04</totfact>
</mgrwt>
</event>
<event>
 4    2  0.3964208E+000  0.1830987E+03  0.7546771E-02  0.1164837E+00
         21   -1    0    0  501  502  0.00000000000E+00  0.00000000000E+00  0.11674347494E+04  0.11674347494E+04  0.00000000000E+00 0. -1.
         21   -1    0    0  502  503 -0.00000000000E+00 -0.00000000000E+00 -0.28954592258E+02  0.28954592258E+02  0.00000000000E+00 0. -1.
          6    1    1    2  501    0  0.37976570586E+02 -0.46410352345E+02  0.62343578825E+03  0.64976712966E+03  0.17300000000E+03 0.  1.
         -6    1    1    2    0  503 -0.37976570586E+02  0.46410352345E+02  0.51504436888E+03  0.54662221198E+03  0.17300000000E+03 0.  1.
<mgrwt>
<rscale>  2 0.18309872E+03</rscale>
<asrwt>0</asrwt>
<pdfrwt beam="1">  1       21 0.17960531E+00 0.18309872E+03</pdfrwt>
<pdfrwt beam="2">  1       21 0.44545536E-02 0.18309872E+03</pdfrwt>
<totfact> 0.60208558E+04</totfact>
</mgrwt>
</event>
<event>
 4    2  0.3964208E+000  0.2193799E+03  0.7546771E-02  0.1134346E+00
         21   -1    0    0  501  502  0.00000000000E+00  0.00000000000E+00  0.59577221986E+03  0.59577221986E+03  0.00000000000E+00 0.  1.
         21   -1    0    0  502  503 -0.00000000000E+00 -0.00000000000E+00 -0.15917360378E+03  0.15917360378E+03  0.00000000000E+00 0.  1.
          6    1    1    2  501    0 -0.44029623076E+02 -0.12751445286E+03  0.48320155189E+03  0.53067059759E+03  0.17300000000E+03 0.  1.
         -6    1    1    2    0  503  0.44029623076E+02  0.12751445286E+03 -0.46602935815E+02  0.22427522606E+03  0.17300000000E+03 0.  1.
<mgrwt>
<rscale>  2 0.21937991E+03</rscale>
<asrwt>0</asrwt>
<pdfrwt beam="1">  1       21 0.91657264E-01 0.21937991E+03</pdfrwt>
<pdfrwt beam="2">  1       21 0.24488247E-01 0.21937991E+03</pdfrwt>
<totfact> 0.15603973E+04</totfact>
</mgrwt>
</event>
<event>
 4    2  0.3964208E+000  0.1748665E+03  0.7546771E-02  0.1172866E+00
         21   -1    0    0  501  502  0.00000000000E+00  0.00000000000E+00  0.13014687711E+03  0.13014687711E+03  0.00000000000E+00 0.  1.
         21   -1    0    0  502  503 -0.00000000000E+00 -0.00000000000E+00 -0.70841056697E+03  0.70841056697E+03  0.00000000000E+00 0.  1.
          6    1    1    2  501    0 -0.23297023975E+02  0.10322382412E+02  0.53636871381E+02  0.18290767309E+03  0.17300000000E+03 0.  1.
         -6    1    1    2    0  503  0.23297023975E+02 -0.10322382412E+02 -0.63190056124E+03  0.65564977099E+03  0.17300000000E+03 0.  1.
<mgrwt>
<rscale>  2 0.17486653E+03</rscale>
<asrwt>0</asrwt>
<pdfrwt beam="1">  1       21 0.20022597E-01 0.17486653E+03</pdfrwt>
<pdfrwt beam="2">  1       21 0.10898624E+00 0.17486653E+03</pdfrwt>
<totfact> 0.15568415E+04</totfact>
</mgrwt>
</event>
<event>
 4    2  0.3964208E+000  0.2307278E+03  0.7546771E-02  0.1126129E+00
         21   -1    0    0  503  502  0.00000000000E+00  0.00000000000E+00  0.40560646922E+02  0.40560646922E+02  0.00000000000E+00 0. -1.
         21   -1    0    0  501  503 -0.00000000000E+00 -0.00000000000E+00 -0.16863636265E+04  0.16863636265E+04  0.00000000000E+00 0. -1.
          6    1    1    2  501    0  0.10667866902E+03 -0.10920614649E+03 -0.12294682381E+04  0.12509306413E+04  0.17300000000E+03 0. -1.
         -6    1    1    2    0  502 -0.10667866902E+03  0.10920614649E+03 -0.41633474145E+03  0.47599363209E+03  0.17300000000E+03 0. -1.
<mgrwt>
<rscale>  2 0.23072781E+03</rscale>
<asrwt>0</asrwt>
<pdfrwt beam="1">  1       21 0.62400979E-02 0.23072781E+03</pdfrwt>
<pdfrwt beam="2">  1       21 0.25944063E+00 0.23072781E+03</pdfrwt>
<totfact> 0.10426111E+04</totfact>
</mgrwt>
</event>
<event>
 4    2  0.3964208E+000  0.2604896E+03  0.7546771E-02  0.1106849E+00
         21   -1    0    0  501  502  0.00000000000E+00  0.00000000000E+00  0.55945997810E+03  0.55945997810E+03  0.00000000000E+00 0. -1.
         21   -1    0    0  502  503 -0.00000000000E+00 -0.00000000000E+00 -0.21719303347E+03  0.21719303347E+03  0.00000000000E+00 0. -1.
          6    1    1    2  501    0  0.15772300087E+03 -0.11423357787E+03  0.42918030908E+03  0.50204640524E+03  0.17300000000E+03 0. -1.
         -6    1    1    2    0  503 -0.15772300087E+03  0.11423357787E+03 -0.86913364451E+02  0.27460660632E+03  0.17300000000E+03 0. -1.
<mgrwt>
<rscale>  2 0.26048965E+03</rscale>
<asrwt>0</asrwt>
<pdfrwt beam="1">  1       21 0.86070765E-01 0.26048965E+03</pdfrwt>
<pdfrwt beam="2">  1       21 0.33414313E-01 0.26048965E+03</pdfrwt>
<totfact> 0.96298871E+03</totfact>
</mgrwt>
</event>
<event>
 4    2  0.3964208E+000  0.1882111E+03  0.7546771E-02  0.1160085E+00
         21   -1    0    0  503  502  0.00000000000E+00  0.00000000000E+00  0.57336494833E+02  0.57336494833E+02  0.00000000000E+00 0. -1.
         21   -1    0    0  501  503 -0.00000000000E+00 -0.00000000000E+00 -0.75170292924E+03  0.75170292924E+03  0.00000000000E+00 0. -1.
          6    1    1    2  501    0 -0.52451895814E+02 -0.52375671833E+02 -0.51790361681E+03  0.55104225671E+03  0.17300000000E+03 0. -1.
         -6    1    1    2    0  502  0.52451895814E+02  0.52375671833E+02 -0.17646281760E+03  0.25799716737E+03  0.17300000000E+03 0. -1.
<mgrwt>
<rscale>  2 0.18821108E+03</rscale>
<asrwt>0</asrwt>
<pdfrwt beam="1">  1       21 0.88209994E-02 0.18821108E+03</pdfrwt>
<pdfrwt beam="2">  1       21 0.11564660E+00 0.18821108E+03</pdfrwt>
<totfact> 0.58642396E+04</totfact>
</mgrwt>
</event>
<event>
 4    2  0.3964208E+000  0.2014441E+03  0.7546771E-02  0.1148526E+00
         21   -1    0    0  503  502  0.00000000000E+00  0.00000000000E+00  0.11113967286E+04  0.11113967286E+04  0.00000000000E+00 0. -1.
         21   -1    0    0  501  503 -0.00000000000E+00 -0.00000000000E+00 -0.38845921070E+02  0.38845921070E+02  0.00000000000E+00 0.  1.
          6    1    1    2  501    0  0.71062250429E+01  0.10295731173E+03  0.39531495796E+03  0.44368189332E+03  0.17300000000E+03 0.  1.
         -6    1    1    2    0  502 -0.71062250429E+01 -0.10295731173E+03  0.67723584960E+03  0.70656075638E+03  0.17300000000E+03 0.  1.
<mgrwt>
<rscale>  2 0.20144405E+03</rscale>
<asrwt>0</asrwt>
<pdfrwt beam="1">  1       21 0.17098409E+00 0.20144405E+03</pdfrwt>
<pdfrwt beam="2">  1       21 0.59762964E-02 0.20144405E+03</pdfrwt>
<totfact> 0.41464101E+04</totfact>
</mgrwt>
</event>
<event>
 4    2  0.3964208E+000  0.1999926E+03  0.7546771E-02  0.1149745E+00
         21   -1    0    0  503  502  0.00000000000E+00  0.00000000000E+00  0.11161989526E+03  0.11161989526E+03  0.00000000000E+00 0. -1.
         21   -1    0    0  501  503 -0.00000000000E+00 -0.00000000000E+00 -0.57984481415E+03  0.57984481415E+03  0.00000000000E+00 0. -1.
          6    1    1    2  501    0 -0.99732058972E+02  0.11024505050E+02 -0.44780196052E+03  0.49043207394E+03  0.17300000000E+03 0. -1.
         -6    1    1    2    0  502  0.99732058972E+02 -0.11024505050E+02 -0.20422958364E+02  0.20103263548E+03  0.17300000000E+03 0. -1.
<mgrwt>
<rscale>  2 0.19999256E+03</rscale>
<asrwt>0</asrwt>
<pdfrwt beam="1">  1       21 0.17172291E-01 0.19999256E+03</pdfrwt>
<pdfrwt beam="2">  1       21 0.89206896E-01 0.19999256E+03</pdfrwt>
<totfact> 0.32703811E+04</totfact>
</mgrwt>
</event>
<event>
 4    2  0.3964208E+000  0.1810534E+03  0.7546771E-02  0.1166787E+00
         21   -1    0    0  501  502  0.00000000000E+00  0.00000000000E+00  0.86930732922E+02  0.86930732922E+02  0.00000000000E+00 0.  1.
         21   -1    0    0  502  503 -0.00000000000E+00 -0.00000000000E+00 -0.40868964884E+03  0.40868964884E+03  0.00000000000E+00 0.  1.
          6    1    1    2  501    0 -0.36816095990E+02  0.38677176922E+02 -0.91967908146E+02  0.20307251185E+03  0.17300000000E+03 0.  1.
         -6    1    1    2    0  503  0.36816095990E+02 -0.38677176922E+02 -0.22979100777E+03  0.29254786991E+03  0.17300000000E+03 0.  1.
<mgrwt>
<rscale>  2 0.18105344E+03</rscale>
<asrwt>0</asrwt>
<pdfrwt beam="1">  1       21 0.13373959E-01 0.18105344E+03</pdfrwt>
<pdfrwt beam="2">  1       21 0.62875332E-01 0.18105344E+03</pdfrwt>
<totfact> 0.11361974E+05</totfact>
</mgrwt>
</event>
<event>
 4    2  0.3964208E+000  0.2964940E+03  0.7546771E-02  0.1087006E+00
         21   -1    0    0  503  502  0.00000000000E+00  0.00000000000E+00  0.36715270672E+03  0.36715270672E+03  0.00000000000E+00 0. -1.
         21   -1    0    0  501  503 -0.00000000000E+00 -0.00000000000E+00 -0.26227116095E+03  0.26227116095E+03  0.00000000000E+00 0.  1.
          6    1    1    2  501    0  0.14409963620E+03 -0.19291179803E+03 -0.40426674889E+02  0.29923733560E+03  0.17300000000E+03 0. -1.
         -6    1    1    2    0  502 -0.14409963620E+03  0.19291179803E+03  0.14530822066E+03  0.33018653208E+03  0.17300000000E+03 0.  1.
<mgrwt>
<rscale>  2 0.29649396E+03</rscale>
<asrwt>0</asrwt>
<pdfrwt beam="1">  1       21 0.56485032E-01 0.29649396E+03</pdfrwt>
<pdfrwt beam="2">  1       21 0.40349409E-01 0.29649396E+03</pdfrwt>
<totfact> 0.16538086E+04</totfact>
</mgrwt>
</event>
<event>
 4    2  0.3964208E+000  0.2791962E+03  0.7546771E-02  0.1096129E+00
         21   -1    0    0  501  502  0.00000000000E+00  0.00000000000E+00  0.19795018055E+03  0.19795018055E+03  0.00000000000E+00 0.  1.
         21   -1    0    0  502  503 -0.00000000000E+00 -0.00000000000E+00 -0.85710002796E+03  0.85710002796E+03  0.00000000000E+00 0. -1.
          6    1    1    2  501    0 -0.15479099625E+03 -0.15511697539E+03  0.58275146081E+02  0.28521311545E+03  0.17300000000E+03 0.  1.
         -6    1    1    2    0  503  0.15479099625E+03  0.15511697539E+03 -0.71742499349E+03  0.76983709306E+03  0.17300000000E+03 0. -1.
<mgrwt>
<rscale>  2 0.27919622E+03</rscale>
<asrwt>0</asrwt>
<pdfrwt beam="1">  1       21 0.30453873E-01 0.27919622E+03</pdfrwt>
<pdfrwt beam="2">  1       21 0.13186155E+00 0.27919622E+03</pdfrwt>
<totfact> 0.40563042E+03</totfact>
</mgrwt>
</event>
<event>
 4    2  0.3964208E+000  0.2382545E+03  0.7546771E-02  0.1120961E+00
         21   -1    0    0  501  502  0.00000000000E+00  0.00000000000E+00  0.45010512938E+03  0.45010512938E+03  0.00000000000E+00 0. -1.
         21   -1    0    0  502  503 -0.00000000000E+00 -0.00000000000E+00 -0.20234709156E+03  0.20234709156E+03  0.00000000000E+00 0.  1.
          6    1    1    2  501    0 -0.57216463996E+02  0.15350072499E+03  0.32411308354E+03  0.40226171486E+03  0.17300000000E+03 0. -1.
         -6    1    1    2    0  503  0.57216463996E+02 -0.15350072499E+03 -0.76355045713E+02  0.25019050608E+03  0.17300000000E+03 0.  1.
<mgrwt>
<rscale>  2 0.23825448E+03</rscale>
<asrwt>0</asrwt>
<pdfrwt beam="1">  1       21 0.69246943E-01 0.23825448E+03</pdfrwt>
<pdfrwt beam="2">  1       21 0.31130322E-01 0.23825448E+03</pdfrwt>
<totfact> 0.18326532E+04</totfact>
</mgrwt>
</event>
<event>
 4    2  0.3964208E+000  0.1752263E+03  0.7546771E-02  0.1172505E+00
         21   -1    0    0  501  502  0.00000000000E+00  0.00000000000E+00  0.83259666241E+02  0.83259666241E+02  0.00000000000E+00 0. -1.
         21   -1    0    0  502  503 -0.00000000000E+00 -0.00000000000E+00 -0.48832264310E+03  0.48832264310E+03  0.00000000000E+00 0. -1.
          6    1    1    2  501    0  0.21675649447E+02  0.17475853246E+02 -0.61127238705E+02  0.18558226892E+03  0.17300000000E+03 0. -1.
         -6    1    1    2    0  503 -0.21675649447E+02 -0.17475853246E+02 -0.34393573816E+03  0.38600004042E+03  0.17300000000E+03 0. -1.
<mgrwt>
<rscale>  2 0.17522625E+03</rscale>
<asrwt>0</asrwt>
<pdfrwt beam="1">  1       21 0.12809180E-01 0.17522625E+03</pdfrwt>
<pdfrwt beam="2">  1       21 0.75126560E-01 0.17522625E+03</pdfrwt>
<totfact> 0.83289565E+04</totfact>
</mgrwt>
</event>
<event>
 4    2  0.3964208E+000  0.2425564E+03  0.7546771E-02  0.1118101E+00
         21   -1    0    0  501  502  0.00000000000E+00  0.00000000000E+00  0.10688616397E+04  0.10688616397E+04  0.00000000000E+00 0.  1.
         21   -1    0    0  502  503 -0.00000000000E+00 -0.00000000000E+00 -0.74353949534E+02  0.74353949534E+02  0.00000000000E+00 0.  1.
          6    1    1    2  501    0  0.16908355930E+03 -0.17758415496E+02  0.78855700735E+03  0.82501864535E+03  0.17300000000E+03 0.  1.
         -6    1    1    2    0  503 -0.16908355930E+03  0.17758415496E+02  0.20595068284E+03  0.31819694390E+03  0.17300000000E+03 0.  1.
<mgrwt>
<rscale>  2 0.24255641E+03</rscale>
<asrwt>0</asrwt>
<pdfrwt beam="1">  1       21 0.16444024E+00 0.24255641E+03</pdfrwt>
<pdfrwt beam="2">  1       21 0.11439070E-01 0.24255641E+03</pdfrwt>
<totfact> 0.14443305E+04</totfact>
</mgrwt>
</event>
<event>
 4    2  0.3964208E+000  0.3324883E+03  0.7546771E-02  0.1070041E+00
         21   -1    0    0  501  502  0.00000000000E+00  0.00000000000E+00  0.61680436738E+03  0.61680436738E+03  0.00000000000E+00 0. -1.
         21   -1    0    0  502  503 -0.00000000000E+00 -0.00000000000E+00 -0.17975262250E+03  0.17975262250E+03  0.00000000000E+00 0.  1.
          6    1    1    2  501    0 -0.12592012320E+03 -0.25448694480E+03  0.19700497607E+03  0.38647049447E+03  0.17300000000E+03 0.  1.
         -6    1    1    2    0  503  0.12592012320E+03  0.25448694480E+03  0.24004676882E+03  0.41008649541E+03  0.17300000000E+03 0.  1.
<mgrwt>
<rscale>  2 0.33248832E+03</rscale>
<asrwt>0</asrwt>
<pdfrwt beam="1">  1       21 0.94892979E-01 0.33248832E+03</pdfrwt>
<pdfrwt beam="2">  1       21 0.27654250E-01 0.33248832E+03</pdfrwt>
<totfact> 0.10757237E+04</totfact>
</mgrwt>
</event>
<event>
 4    2  0.3964208E+000  0.1860828E+03  0.7546771E-02  0.1162043E+00
         21   -1    0    0  503  502  0.00000000000E+00  0.00000000000E+00  0.22275646733E+03  0.22275646733E+03  0.00000000000E+00 0. -1.
         21   -1    0    0  501  503 -0.00000000000E+00 -0.00000000000E+00 -0.17564068046E+03  0.17564068046E+03  0.00000000000E+00 0. -1.
          6    1    1    2  501    0 -0.52607238043E+00  0.68538647061E+02 -0.43985284520E+02  0.19121069046E+03  0.17300000000E+03 0.  1.
         -6    1    1    2    0  502  0.52607238043E+00 -0.68538647061E+02  0.91101071389E+02  0.20718645733E+03  0.17300000000E+03 0.  1.
<mgrwt>
<rscale>  2 0.18608284E+03</rscale>
<asrwt>0</asrwt>
<pdfrwt beam="1">  1       21 0.34270226E-01 0.18608284E+03</pdfrwt>
<pdfrwt beam="2">  1       21 0.27021643E-01 0.18608284E+03</pdfrwt>
<totfact> 0.10732556E+05</totfact>
</mgrwt>
</event>
<event>
 4    2  0.3964208E+000  0.1858366E+03  0.7546771E-02  0.1162271E+00
         21   -1    0    0  503  502  0.00000000000E+00  0.00000000000E+00  0.76262746215E+02  0.76262746215E+02  0.00000000000E+00 0.  1.
         21   -1    0    0  501  503 -0.00000000000E+00 -0.00000000000E+00 -0.45286350647E+03  0.45286350647E+03  0.00000000000E+00 0.  1.
          6    1    1    2  501    0  0.68830271905E+01  0.67519477985E+02 -0.18995977668E+03  0.26574418663E+03  0.17300000000E+03 0.  1.
         -6    1    1    2    0  502 -0.68830271905E+01 -0.67519477985E+02 -0.18664098357E+03  0.26338206606E+03  0.17300000000E+03 0.  1.
<mgrwt>
<rscale>  2 0.18583664E+03</rscale>
<asrwt>0</asrwt>
<pdfrwt beam="1">  1       21 0.11732730E-01 0.18583664E+03</pdfrwt>
<pdfrwt beam="2">  1       21 0.69671310E-01 0.18583664E+03</pdfrwt>
<totfact> 0.11466794E+05</totfact>
</mgrwt>
</event>
<event>
 4    2  0.3964208E+000  0.1873718E+03  0.7546771E-02  0.1160853E+00
         21   -1    0    0  501  502  0.00000000000E+00  0.00000000000E+00  0.86640455927E+02  0.86640455927E+02  0.00000000000E+00 0.  1.
         21   -1    0    0  502  503 -0.00000000000E+00 -0.00000000000E+00 -0.90408366507E+03  0.90408366507E+03  0.00000000000E+00 0.  1.
          6    1    1    2  501    0  0.71728880897E+02  0.58444511886E+01 -0.40753097716E+02  0.19175245745E+03  0.17300000000E+03 0.  1.
         -6    1    1    2    0  503 -0.71728880897E+02 -0.58444511886E+01 -0.77669011143E+03  0.79897166355E+03  0.17300000000E+03 0.  1.
<mgrwt>
<rscale>  2 0.18737180E+03</rscale>
<asrwt>0</asrwt>
<pdfrwt beam="1">  1       21 0.13329302E-01 0.18737180E+03</pdfrwt>
<pdfrwt beam="2">  1       21 0.13908979E+00 0.18737180E+03</pdfrwt>
<totfact> 0.17745038E+04</totfact>
</mgrwt>
</event>
<event>
 4    2  0.3964208E+000  0.2420433E+03  0.7546771E-02  0.1118439E+00
         21   -1    0    0  503  502  0.00000000000E+00  0.00000000000E+00  0.28428334565E+03  0.28428334565E+03  0.00000000000E+00 0. -1.
         21   -1    0    0  501  503 -0.00000000000E+00 -0.00000000000E+00 -0.30211699639E+03  0.30211699639E+03  0.00000000000E+00 0. -1.
          6    1    1    2  501    0  0.96635527437E+02 -0.13898749221E+03 -0.17422610244E+03  0.29822756903E+03  0.17300000000E+03 0. -1.
         -6    1    1    2    0  502 -0.96635527437E+02  0.13898749221E+03  0.15639245170E+03  0.28817277301E+03  0.17300000000E+03 0. -1.
<mgrwt>
<rscale>  2 0.24204328E+03</rscale>
<asrwt>0</asrwt>
<pdfrwt beam="1">  1       21 0.43735899E-01 0.24204328E+03</pdfrwt>
<pdfrwt beam="2">  1       21 0.46479538E-01 0.24204328E+03</pdfrwt>
<totfact> 0.21679812E+04</totfact>
</mgrwt>
</event>
<event>
 4    2  0.3964208E+000  0.1973066E+03  0.7546771E-02  0.1152032E+00
         21   -1    0    0  501  502  0.00000000000E+00  0.00000000000E+00  0.10093608336E+03  0.10093608336E+03  0.00000000000E+00 0. -1.
         21   -1    0    0  502  503 -0.00000000000E+00 -0.00000000000E+00 -0.40089058451E+03  0.40089058451E+03  0.00000000000E+00 0. -1.
          6    1    1    2  501    0  0.37606685422E+02  0.87101167513E+02 -0.19883842014E+03  0.28011889171E+03  0.17300000000E+03 0. -1.
         -6    1    1    2    0  503 -0.37606685422E+02 -0.87101167513E+02 -0.10111608101E+03  0.22170777616E+03  0.17300000000E+03 0. -1.
<mgrwt>
<rscale>  2 0.19730655E+03</rscale>
<asrwt>0</asrwt>
<pdfrwt beam="1">  1       21 0.15528628E-01 0.19730655E+03</pdfrwt>
<pdfrwt beam="2">  1       21 0.61675476E-01 0.19730655E+03</pdfrwt>
<totfact> 0.89760546E+04</totfact>
</mgrwt>
</event>
<event>
 4    2  0.3964208E+000  0.2405259E+03  0.7546771E-02  0.1119443E+00
         21   -1    0    0  501  502  0.00000000000E+00  0.00000000000E+00  0.91956281824E+02  0.91956281824E+02  0.00000000000E+00 0. -1.
         21   -1    0    0  502  503 -0.00000000000E+00 -0.00000000000E+00 -0.10859794762E+04  0.10859794762E+04  0.00000000000E+00 0. -1.
          6    1    1    2  501    0 -0.11188111007E+03 -0.12412218293E+03 -0.11500918248E+03  0.26660797277E+03  0.17300000000E+03 0. -1.
         -6    1    1    2    0  503  0.11188111007E+03  0.12412218293E+03 -0.87901401192E+03  0.91132778529E+03  0.17300000000E+03 0. -1.
<mgrwt>
<rscale>  2 0.24052588E+03</rscale>
<asrwt>0</asrwt>
<pdfrwt beam="1">  1       21 0.14147120E-01 0.24052588E+03</pdfrwt>
<pdfrwt beam="2">  1       21 0.16707377E+00 0.24052588E+03</pdfrwt>
<totfact> 0.94295977E+03</totfact>
</mgrwt>
</event>
<event>
 4    2  0.3964208E+000  0.1856841E+03  0.7546771E-02  0.1162413E+00
         21   -1    0    0  501  502  0.00000000000E+00  0.00000000000E+00  0.13125994708E+03  0.13125994708E+03  0.00000000000E+00 0.  1.
         21   -1    0    0  502  503 -0.00000000000E+00 -0.00000000000E+00 -0.28883181025E+03  0.28883181025E+03  0.00000000000E+00 0.  1.
          6    1    1    2  501    0  0.34924341092E+02  0.57704985264E+02 -0.15574973601E+02  0.18633613371E+03  0.17300000000E+03 0. -1.
         -6    1    1    2    0  503 -0.34924341092E+02 -0.57704985264E+02 -0.14199688956E+03  0.23375562361E+03  0.17300000000E+03 0. -1.
<mgrwt>
<rscale>  2 0.18568407E+03</rscale>
<asrwt>0</asrwt>
<pdfrwt beam="1">  1       21 0.20193838E-01 0.18568407E+03</pdfrwt>
<pdfrwt beam="2">  1       21 0.44435663E-01 0.18568407E+03</pdfrwt>
<totfact> 0.11052571E+05</totfact>
</mgrwt>
</event>
<event>
 4    2  0.3964208E+000  0.2000432E+03  0.7546771E-02  0.1149703E+00
         21   -1    0    0  501  502  0.00000000000E+00  0.00000000000E+00  0.10121291251E+03  0.10121291251E+03  0.00000000000E+00 0. -1.
         21   -1    0    0  502  503 -0.00000000000E+00 -0.00000000000E+00 -0.46411128419E+03  0.46411128419E+03  0.00000000000E+00 0.  1.
          6    1    1    2  501    0 -0.53406077972E+02  0.85065224057E+02 -0.29022738248E+03  0.35249004957E+03  0.17300000000E+03 0.  1.
         -6    1    1    2    0  503  0.53406077972E+02 -0.85065224057E+02 -0.72670989205E+02  0.21283414712E+03  0.17300000000E+03 0. -1.
<mgrwt>
<rscale>  2 0.20004325E+03</rscale>
<asrwt>0</asrwt>
<pdfrwt beam="1">  1       21 0.15571218E-01 0.20004325E+03</pdfrwt>
<pdfrwt beam="2">  1       21 0.71401735E-01 0.20004325E+03</pdfrwt>
<totfact> 0.64765243E+04</totfact>
</mgrwt>
</event>
<event>
 4    2  0.3964208E+000  0.1927621E+03  0.7546771E-02  0.1155993E+00
         21   -1    0    0  501  502  0.00000000000E+00  0.00000000000E+00  0.19464322036E+03  0.19464322036E+03  0.00000000000E+00 0. -1.
         21   -1    0    0  502  503 -0.00000000000E+00 -0.00000000000E+00 -0.20233032892E+03  0.20233032892E+03  0.00000000000E+00 0. -1.
          6    1    1    2  501    0  0.21723725047E+02 -0.82196748445E+02 -0.51022318004E+02  0.19940035762E+03  0.17300000000E+03 0. -1.
         -6    1    1    2    0  503 -0.21723725047E+02  0.82196748445E+02  0.43335209445E+02  0.19757319166E+03  0.17300000000E+03 0. -1.
<mgrwt>
<rscale>  2 0.19276210E+03</rscale>
<asrwt>0</asrwt>
<pdfrwt beam="1">  1       21 0.29945111E-01 0.19276210E+03</pdfrwt>
<pdfrwt beam="2">  1       21 0.31127743E-01 0.19276210E+03</pdfrwt>
<totfact> 0.10603881E+05</totfact>
</mgrwt>
</event>
<event>
 4    2  0.3964208E+000  0.2013616E+03  0.7546771E-02  0.1148595E+00
         21   -1    0    0  501  502  0.00000000000E+00  0.00000000000E+00  0.43420185483E+03  0.43420185483E+03  0.00000000000E+00 0. -1.
         21   -1    0    0  502  503 -0.00000000000E+00 -0.00000000000E+00 -0.35886509434E+03  0.35886509434E+03  0.00000000000E+00 0. -1.
          6    1    1    2  501    0 -0.45938372522E+02 -0.92234316409E+02  0.37873006670E+03  0.42893235669E+03  0.17300000000E+03 0. -1.
         -6    1    1    2    0  503  0.45938372522E+02  0.92234316409E+02 -0.30339330620E+03  0.36413459248E+03  0.17300000000E+03 0. -1.
<mgrwt>
<rscale>  2 0.20136162E+03</rscale>
<asrwt>0</asrwt>
<pdfrwt beam="1">  1       21 0.66800286E-01 0.20136162E+03</pdfrwt>
<pdfrwt beam="2">  1       21 0.55210014E-01 0.20136162E+03</pdfrwt>
<totfact> 0.63121236E+03</totfact>
</mgrwt>
</event>
<event>
 4    2  0.3964208E+000  0.1978804E+03  0.7546771E-02  0.1151540E+00
         21   -1    0    0  503  502  0.00000000000E+00  0.00000000000E+00  0.10721076244E+03  0.10721076244E+03  0.00000000000E+00 0. -1.
         21   -1    0    0  501  503 -0.00000000000E+00 -0.00000000000E+00 -0.36533184527E+03  0.36533184527E+03  0.00000000000E+00 0.  1.
          6    1    1    2  501    0 -0.47960503604E+02  0.83231220637E+02 -0.12512634031E+03  0.23412229077E+03  0.17300000000E+03 0.  1.
         -6    1    1    2    0  502  0.47960503604E+02 -0.83231220637E+02 -0.13299474252E+03  0.23842031695E+03  0.17300000000E+03 0. -1.
<mgrwt>
<rscale>  2 0.19788038E+03</rscale>
<asrwt>0</asrwt>
<pdfrwt beam="1">  1       21 0.16493963E-01 0.19788038E+03</pdfrwt>
<pdfrwt beam="2">  1       21 0.56204899E-01 0.19788038E+03</pdfrwt>
<totfact> 0.98039061E+04</totfact>
</mgrwt>
</event>
<event>
 4    2  0.3964208E+000  0.3005712E+03  0.7546771E-02  0.1084955E+00
         21   -1    0    0  501  502  0.00000000000E+00  0.00000000000E+00  0.91780005264E+02  0.91780005264E+02  0.00000000000E+00 0. -1.
         21   -1    0    0  502  503 -0.00000000000E+00 -0.00000000000E+00 -0.10623600474E+04  0.10623600474E+04  0.00000000000E+00 0.  1.
          6    1    1    2  501    0  0.18073302142E+03  0.16658218987E+03 -0.64167175849E+03  0.70858005664E+03  0.17300000000E+03 0.  1.
         -6    1    1    2    0  503 -0.18073302142E+03 -0.16658218987E+03 -0.32890828366E+03  0.44555999605E+03  0.17300000000E+03 0. -1.
<mgrwt>
<rscale>  2 0.30057121E+03</rscale>
<asrwt>0</asrwt>
<pdfrwt beam="1">  1       21 0.14120000E-01 0.30057121E+03</pdfrwt>
<pdfrwt beam="2">  1       21 0.16344002E+00 0.30057121E+03</pdfrwt>
<totfact> 0.97144081E+03</totfact>
</mgrwt>
</event>
<event>
 4    2  0.3964208E+000  0.1953949E+03  0.7546771E-02  0.1153684E+00
         21   -1    0    0  501  502  0.00000000000E+00  0.00000000000E+00  0.14105706258E+03  0.14105706258E+03  0.00000000000E+00 0. -1.
         21   -1    0    0  502  503 -0.00000000000E+00 -0.00000000000E+00 -0.61993125855E+03  0.61993125855E+03  0.00000000000E+00 0. -1.
          6    1    1    2  501    0  0.35855906202E+02  0.83453787862E+02  0.46160580431E+02  0.20077345418E+03  0.17300000000E+03 0. -1.
         -6    1    1    2    0  503 -0.35855906202E+02 -0.83453787862E+02 -0.52503477640E+03  0.56021486695E+03  0.17300000000E+03 0. -1.
<mgrwt>
<rscale>  2 0.19539494E+03</rscale>
<asrwt>0</asrwt>
<pdfrwt beam="1">  1       21 0.21701086E-01 0.19539494E+03</pdfrwt>
<pdfrwt beam="2">  1       21 0.95374040E-01 0.19539494E+03</pdfrwt>
<totfact> 0.18149190E+04</totfact>
</mgrwt>
</event>
<event>
 4    2  0.3964208E+000  0.2259955E+03  0.7546771E-02  0.1129490E+00
         21   -1    0    0  501  502  0.00000000000E+00  0.00000000000E+00  0.25399914650E+04  0.25399914650E+04  0.00000000000E+00 0.  1.
         21   -1    0    0  502  503 -0.00000000000E+00 -0.00000000000E+00 -0.25109517541E+02  0.25109517541E+02  0.00000000000E+00 0. -1.
          6    1    1    2  501    0  0.57546288209E+02 -0.13354174936E+03  0.18298535464E+04  0.18437564849E+04  0.17300000000E+03 0.  1.
         -6    1    1    2    0  503 -0.57546288209E+02  0.13354174936E+03  0.68502840105E+03  0.72134449769E+03  0.17300000000E+03 0. -1.
<mgrwt>
<rscale>  2 0.22599552E+03</rscale>
<asrwt>0</asrwt>
<pdfrwt beam="1">  1       21 0.39076772E+00 0.22599552E+03</pdfrwt>
<pdfrwt beam="2">  1       21 0.38630047E-02 0.22599552E+03</pdfrwt>
<totfact> 0.39557166E+03</totfact>
</mgrwt>
</event>
<event>
 4    2  0.3964208E+000  0.2912032E+03  0.7546771E-02  0.1089723E+00
         21   -1    0    0  503  502  0.00000000000E+00  0.00000000000E+00  0.30248676767E+03  0.30248676767E+03  0.00000000000E+00 0. -1.
         21   -1    0    0  501  503 -0.00000000000E+00 -0.00000000000E+00 -0.32131874985E+03  0.32131874985E+03  0.00000000000E+00 0. -1.
          6    1    1    2  501    0  0.98819667054E+02  0.21237934504E+03 -0.12080119778E+03  0.31526535201E+03  0.17300000000E+03 0. -1.
         -6    1    1    2    0  502 -0.98819667054E+02 -0.21237934504E+03  0.10196921560E+03  0.30854016550E+03  0.17300000000E+03 0. -1.
<mgrwt>
<rscale>  2 0.29120322E+03</rscale>
<asrwt>0</asrwt>
<pdfrwt beam="1">  1       21 0.46536426E-01 0.29120322E+03</pdfrwt>
<pdfrwt beam="2">  1       21 0.49433654E-01 0.29120322E+03</pdfrwt>
<totfact> 0.16391352E+04</totfact>
</mgrwt>
</event>
<event>
 4    2  0.3964208E+000  0.2043109E+03  0.7546771E-02  0.1146152E+00
         21   -1    0    0  503  502  0.00000000000E+00  0.00000000000E+00  0.48150092367E+03  0.48150092367E+03  0.00000000000E+00 0. -1.
         21   -1    0    0  501  503 -0.00000000000E+00 -0.00000000000E+00 -0.11123904689E+03  0.11123904689E+03  0.00000000000E+00 0.  1.
          6    1    1    2  501    0  0.23384084311E+02  0.10614666810E+03  0.45913631724E+02  0.20940628483E+03  0.17300000000E+03 0.  1.
         -6    1    1    2    0  502 -0.23384084311E+02 -0.10614666810E+03  0.32434824505E+03  0.38333368573E+03  0.17300000000E+03 0. -1.
<mgrwt>
<rscale>  2 0.20431087E+03</rscale>
<asrwt>0</asrwt>
<pdfrwt beam="1">  1       21 0.74077064E-01 0.20431087E+03</pdfrwt>
<pdfrwt beam="2">  1       21 0.17113700E-01 0.20431087E+03</pdfrwt>
<totfact> 0.50077466E+04</totfact>
</mgrwt>
</event>
<event>
 4    2  0.3964208E+000  0.1738068E+03  0.7546771E-02  0.1173935E+00
         21   -1    0    0  501  502  0.00000000000E+00  0.00000000000E+00  0.24930374456E+03  0.24930374456E+03  0.00000000000E+00 0.  1.
         21   -1    0    0  502  503 -0.00000000000E+00 -0.00000000000E+00 -0.12150247367E+03  0.12150247367E+03  0.00000000000E+00 0.  1.
          6    1    1    2  501    0 -0.67225282304E+01 -0.15317429519E+02  0.73559160816E+02  0.18873199563E+03  0.17300000000E+03 0. -1.
         -6    1    1    2    0  503  0.67225282304E+01  0.15317429519E+02  0.54242110073E+02  0.18207422261E+03  0.17300000000E+03 0. -1.
<mgrwt>
<rscale>  2 0.17380684E+03</rscale>
<asrwt>0</asrwt>
<pdfrwt beam="1">  1       21 0.38354422E-01 0.17380684E+03</pdfrwt>
<pdfrwt beam="2">  1       21 0.18692688E-01 0.17380684E+03</pdfrwt>
<totfact> 0.17260949E+05</totfact>
</mgrwt>
</event>
<event>
 4    2  0.3964208E+000  0.3880995E+03  0.7546771E-02  0.1047980E+00
         21   -1    0    0  501  502  0.00000000000E+00  0.00000000000E+00  0.67762098106E+03  0.67762098106E+03  0.00000000000E+00 0. -1.
         21   -1    0    0  502  503 -0.00000000000E+00 -0.00000000000E+00 -0.24665183138E+03  0.24665183138E+03  0.00000000000E+00 0.  1.
          6    1    1    2  501    0  0.29515436910E+03 -0.18323779613E+03  0.36075504904E+03  0.52987300076E+03  0.17300000000E+03 0. -1.
         -6    1    1    2    0  503 -0.29515436910E+03  0.18323779613E+03  0.70214100633E+02  0.39439981168E+03  0.17300000000E+03 0.  1.
<mgrwt>
<rscale>  2 0.38809946E+03</rscale>
<asrwt>0</asrwt>
<pdfrwt beam="1">  1       21 0.10424938E+00 0.38809946E+03</pdfrwt>
<pdfrwt beam="2">  1       21 0.37946436E-01 0.38809946E+03</pdfrwt>
<totfact> 0.44586627E+03</totfact>
</mgrwt>
</event>
<event>
 4    2  0.3964208E+000  0.1834289E+03  0.7546771E-02  0.1164525E+00
         21   -1    0    0  503  502  0.00000000000E+00  0.00000000000E+00  0.49803428821E+03  0.49803428821E+03  0.00000000000E+00 0. -1.
         21   -1    0    0  501  503 -0.00000000000E+00 -0.00000000000E+00 -0.71486071588E+02  0.71486071588E+02  0.00000000000E+00 0.  1.
          6    1    1    2  501    0 -0.50145381918E+02 -0.34678353072E+02  0.14652213383E+03  0.23476559203E+03  0.17300000000E+03 0.  1.
         -6    1    1    2    0  502  0.50145381918E+02  0.34678353072E+02  0.28002608279E+03  0.33475476776E+03  0.17300000000E+03 0. -1.
<mgrwt>
<rscale>  2 0.18342886E+03</rscale>
<asrwt>0</asrwt>
<pdfrwt beam="1">  1       21 0.76620658E-01 0.18342886E+03</pdfrwt>
<pdfrwt beam="2">  1       21 0.10997857E-01 0.18342886E+03</pdfrwt>
<totfact> 0.10427948E+05</totfact>
</mgrwt>
</event>
<event>
 4    2  0.3964208E+000  0.1823091E+03  0.7546771E-02  0.1165587E+00
         21   -1    0    0  501  502  0.00000000000E+00  0.00000000000E+00  0.46145565298E+03  0.46145565298E+03  0.00000000000E+00 0. -1.
         21   -1    0    0  502  503 -0.00000000000E+00 -0.00000000000E+00 -0.73063097220E+02  0.73063097220E+02  0.00000000000E+00 0.  1.
          6    1    1    2  501    0 -0.55144985952E+02  0.16328694500E+02  0.22604474324E+03  0.29040113926E+03  0.17300000000E+03 0.  1.
         -6    1    1    2    0  503  0.55144985952E+02 -0.16328694500E+02  0.16234781253E+03  0.24411761094E+03  0.17300000000E+03 0. -1.
<mgrwt>
<rscale>  2 0.18230907E+03</rscale>
<asrwt>0</asrwt>
<pdfrwt beam="1">  1       21 0.70993176E-01 0.18230907E+03</pdfrwt>
<pdfrwt beam="2">  1       21 0.11240477E-01 0.18230907E+03</pdfrwt>
<totfact> 0.11889842E+05</totfact>
</mgrwt>
</event>
<event>
 4    2  0.3964208E+000  0.1925828E+03  0.7546771E-02  0.1156152E+00
         21   -1    0    0  501  502  0.00000000000E+00  0.00000000000E+00  0.25480127131E+03  0.25480127131E+03  0.00000000000E+00 0. -1.
         21   -1    0    0  502  503 -0.00000000000E+00 -0.00000000000E+00 -0.18801440329E+03  0.18801440329E+03  0.00000000000E+00 0. -1.
          6    1    1    2  501    0 -0.96468619144E+01 -0.84059949471E+02  0.13860744420E+03  0.23727654886E+03  0.17300000000E+03 0. -1.
         -6    1    1    2    0  503  0.96468619144E+01  0.84059949471E+02 -0.71820576177E+02  0.20553912575E+03  0.17300000000E+03 0. -1.
<mgrwt>
<rscale>  2 0.19258281E+03</rscale>
<asrwt>0</asrwt>
<pdfrwt beam="1">  1       21 0.39200195E-01 0.19258281E+03</pdfrwt>
<pdfrwt beam="2">  1       21 0.28925293E-01 0.19258281E+03</pdfrwt>
<totfact> 0.71780235E+04</totfact>
</mgrwt>
</event>
<event>
 4    2  0.3964208E+000  0.2092667E+03  0.7546771E-02  0.1142148E+00
         21   -1    0    0  501  502  0.00000000000E+00  0.00000000000E+00  0.99957687779E+02  0.99957687779E+02  0.00000000000E+00 0.  1.
         21   -1    0    0  502  503 -0.00000000000E+00 -0.00000000000E+00 -0.82295542440E+03  0.82295542440E+03  0.00000000000E+00 0.  1.
          6    1    1    2  501    0  0.11555393020E+03  0.22602071926E+02 -0.45936466244E+02  0.21424920857E+03  0.17300000000E+03 0.  1.
         -6    1    1    2    0  503 -0.11555393020E+03 -0.22602071926E+02 -0.67706127038E+03  0.70866390361E+03  0.17300000000E+03 0.  1.
<mgrwt>
<rscale>  2 0.20926673E+03</rscale>
<asrwt>0</asrwt>
<pdfrwt beam="1">  1       21 0.15378107E-01 0.20926673E+03</pdfrwt>
<pdfrwt beam="2">  1       21 0.12660852E+00 0.20926673E+03</pdfrwt>
<totfact> 0.17130928E+04</totfact>
</mgrwt>
</event>
<event>
 4    2  0.3964208E+000  0.1868930E+03  0.7546771E-02  0.1161294E+00
         21   -1    0    0  501  502  0.00000000000E+00  0.00000000000E+00  0.14529900631E+03  0.14529900631E+03  0.00000000000E+00 0.  1.
         21   -1    0    0  502  503 -0.00000000000E+00 -0.00000000000E+00 -0.26489110889E+03  0.26489110889E+03  0.00000000000E+00 0.  1.
          6    1    1    2  501    0 -0.70695518128E+02  0.14667324424E+01  0.25744200784E+01  0.18691076809E+03  0.17300000000E+03 0.  1.
         -6    1    1    2    0  503  0.70695518128E+02 -0.14667324424E+01 -0.12216652266E+03  0.22327934711E+03  0.17300000000E+03 0.  1.
<mgrwt>
<rscale>  2 0.18689304E+03</rscale>
<asrwt>0</asrwt>
<pdfrwt beam="1">  1       21 0.22353693E-01 0.18689304E+03</pdfrwt>
<pdfrwt beam="2">  1       21 0.40752478E-01 0.18689304E+03</pdfrwt>
<totfact> 0.10887992E+05</totfact>
</mgrwt>
</event>
<event>
 4    2  0.3964208E+000  0.2150360E+03  0.7546771E-02  0.1137639E+00
         21   -1    0    0  503  502  0.00000000000E+00  0.00000000000E+00  0.64531454466E+03  0.64531454466E+03  0.00000000000E+00 0. -1.
         21   -1    0    0  501  503 -0.00000000000E+00 -0.00000000000E+00 -0.88884172860E+02  0.88884172860E+02  0.00000000000E+00 0. -1.
          6    1    1    2  501    0 -0.12400224504E+03  0.30576878150E+02  0.43983480554E+03  0.48958672206E+03  0.17300000000E+03 0. -1.
         -6    1    1    2    0  502  0.12400224504E+03 -0.30576878150E+02  0.11659556626E+03  0.24461199546E+03  0.17300000000E+03 0. -1.
<mgrwt>
<rscale>  2 0.21503605E+03</rscale>
<asrwt>0</asrwt>
<pdfrwt beam="1">  1       21 0.99279158E-01 0.21503605E+03</pdfrwt>
<pdfrwt beam="2">  1       21 0.13674489E-01 0.21503605E+03</pdfrwt>
<totfact> 0.38288986E+04</totfact>
</mgrwt>
</event>
<event>
 4    2  0.3964208E+000  0.1921542E+03  0.7546771E-02  0.1156533E+00
         21   -1    0    0  503  502  0.00000000000E+00  0.00000000000E+00  0.99527599547E+02  0.99527599547E+02  0.00000000000E+00 0. -1.
         21   -1    0    0  501  503 -0.00000000000E+00 -0.00000000000E+00 -0.66537072462E+03  0.66537072462E+03  0.00000000000E+00 0. -1.
          6    1    1    2  501    0 -0.83317355789E+02 -0.72417784723E+01 -0.53731177681E+03  0.57063751246E+03  0.17300000000E+03 0. -1.
         -6    1    1    2    0  502  0.83317355789E+02  0.72417784723E+01 -0.28531348266E+02  0.19426081171E+03  0.17300000000E+03 0. -1.
<mgrwt>
<rscale>  2 0.19215417E+03</rscale>
<asrwt>0</asrwt>
<pdfrwt beam="1">  1       21 0.15311939E-01 0.19215417E+03</pdfrwt>
<pdfrwt beam="2">  1       21 0.10236472E+00 0.19215417E+03</pdfrwt>
<totfact> 0.29348316E+04</totfact>
</mgrwt>
</event>
<event>
 4    2  0.3964208E+000  0.1885352E+03  0.7546771E-02  0.1159789E+00
         21   -1    0    0  501  502  0.00000000000E+00  0.00000000000E+00  0.52082809709E+03  0.52082809709E+03  0.00000000000E+00 0. -1.
         21   -1    0    0  502  503 -0.00000000000E+00 -0.00000000000E+00 -0.10345249613E+03  0.10345249613E+03  0.00000000000E+00 0. -1.
          6    1    1    2  501    0 -0.17695003521E+02 -0.72824466356E+02  0.39077438239E+03  0.43387801740E+03  0.17300000000E+03 0. -1.
         -6    1    1    2    0  503  0.17695003521E+02  0.72824466356E+02  0.26601218570E+02  0.19040257582E+03  0.17300000000E+03 0. -1.
<mgrwt>
<rscale>  2 0.18853519E+03</rscale>
<asrwt>0</asrwt>
<pdfrwt beam="1">  1       21 0.80127398E-01 0.18853519E+03</pdfrwt>
<pdfrwt beam="2">  1       21 0.15915769E-01 0.18853519E+03</pdfrwt>
<totfact> 0.48344730E+04</totfact>
</mgrwt>
</event>
<event>
 4    2  0.3964208E+000  0.2282537E+03  0.7546771E-02  0.1127875E+00
         21   -1    0    0  501  502  0.00000000000E+00  0.00000000000E+00  0.14632864854E+03  0.14632864854E+03  0.00000000000E+00 0. -1.
         21   -1    0    0  502  503 -0.00000000000E+00 -0.00000000000E+00 -0.35642102753E+03  0.35642102753E+03  0.00000000000E+00 0. -1.
          6    1    1    2  501    0 -0.46059239407E+02  0.14159549136E+03 -0.11319970998E+03  0.25478208541E+03  0.17300000000E+03 0. -1.
         -6    1    1    2    0  503  0.46059239407E+02 -0.14159549136E+03 -0.96892669014E+02  0.24796759066E+03  0.17300000000E+03 0. -1.
<mgrwt>
<rscale>  2 0.22825367E+03</rscale>
<asrwt>0</asrwt>
<pdfrwt beam="1">  1       21 0.22512100E-01 0.22825367E+03</pdfrwt>
<pdfrwt beam="2">  1       21 0.54834003E-01 0.22825367E+03</pdfrwt>
<totfact> 0.57094311E+04</totfact>
</mgrwt>
</event>
<event>
 4    2  0.3964208E+000  0.1903821E+03  0.7546771E-02  0.1158117E+00
         21   -1    0    0  503  502  0.00000000000E+00  0.00000000000E+00  0.30619682888E+03  0.30619682888E+03  0.00000000000E+00 0. -1.
         21   -1    0    0  501  503 -0.00000000000E+00 -0.00000000000E+00 -0.11849068594E+03  0.11849068594E+03  0.00000000000E+00 0. -1.
          6    1    1    2  501    0  0.52160155128E+02  0.59963964857E+02  0.10055240160E+03  0.21530477081E+03  0.17300000000E+03 0. -1.
         -6    1    1    2    0  502 -0.52160155128E+02 -0.59963964857E+02  0.87153741333E+02  0.20938274402E+03  0.17300000000E+03 0. -1.
<mgrwt>
<rscale>  2 0.19038214E+03</rscale>
<asrwt>0</asrwt>
<pdfrwt beam="1">  1       21 0.47107204E-01 0.19038214E+03</pdfrwt>
<pdfrwt beam="2">  1       21 0.18229336E-01 0.19038214E+03</pdfrwt>
<totfact> 0.11836666E+05</totfact>
</mgrwt>
</event>
<event>
 4    2  0.3964208E+000  0.1788153E+03  0.7546771E-02  0.1168955E+00
         21   -1    0    0  501  502  0.00000000000E+00  0.00000000000E+00  0.14467074188E+03  0.14467074188E+03  0.00000000000E+00 0.  1.
         21   -1    0    0  502  503 -0.00000000000E+00 -0.00000000000E+00 -0.33153227930E+03  0.33153227930E+03  0.00000000000E+00 0.  1.
          6    1    1    2  501    0 -0.29270328771E+02 -0.34484195356E+02  0.44039074064E+02  0.18415849674E+03  0.17300000000E+03 0.  1.
         -6    1    1    2    0  503  0.29270328771E+02  0.34484195356E+02 -0.23090061149E+03  0.29204452445E+03  0.17300000000E+03 0.  1.
<mgrwt>
<rscale>  2 0.17881530E+03</rscale>
<asrwt>0</asrwt>
<pdfrwt beam="1">  1       21 0.22257038E-01 0.17881530E+03</pdfrwt>
<pdfrwt beam="2">  1       21 0.51004965E-01 0.17881530E+03</pdfrwt>
<totfact> 0.69440866E+04</totfact>
</mgrwt>
</event>
<event>
 4    2  0.3964208E+000  0.1846814E+03  0.7546771E-02  0.1163348E+00
         21   -1    0    0  503  502  0.00000000000E+00  0.00000000000E+00  0.11450171435E+03  0.11450171435E+03  0.00000000000E+00 0.  1.
         21   -1    0    0  501  503 -0.00000000000E+00 -0.00000000000E+00 -0.38903699888E+03  0.38903699888E+03  0.00000000000E+00 0.  1.
          6    1    1    2  501    0  0.27330237350E+02 -0.58577214447E+02 -0.25914236316E+03  0.31821690136E+03  0.17300000000E+03 0.  1.
         -6    1    1    2    0  502 -0.27330237350E+02  0.58577214447E+02 -0.15392921359E+02  0.18532181187E+03  0.17300000000E+03 0.  1.
<mgrwt>
<rscale>  2 0.18468143E+03</rscale>
<asrwt>0</asrwt>
<pdfrwt beam="1">  1       21 0.17615649E-01 0.18468143E+03</pdfrwt>
<pdfrwt beam="2">  1       21 0.59851845E-01 0.18468143E+03</pdfrwt>
<totfact> 0.76364459E+04</totfact>
</mgrwt>
</event>
<event>
 4    2  0.3964208E+000  0.1918599E+03  0.7546771E-02  0.1156794E+00
         21   -1    0    0  501  502  0.00000000000E+00  0.00000000000E+00  0.21197403382E+03  0.21197403382E+03  0.00000000000E+00 0. -1.
         21   -1    0    0  502  503 -0.00000000000E+00 -0.00000000000E+00 -0.26003957324E+03  0.26003957324E+03  0.00000000000E+00 0. -1.
          6    1    1    2  501    0  0.82951281164E+02  0.56450875160E+00  0.11199396891E+03  0.22215508725E+03  0.17300000000E+03 0. -1.
         -6    1    1    2    0  503 -0.82951281164E+02 -0.56450875160E+00 -0.16005950833E+03  0.24985851981E+03  0.17300000000E+03 0. -1.
<mgrwt>
<rscale>  2 0.19185993E+03</rscale>
<asrwt>0</asrwt>
<pdfrwt beam="1">  1       21 0.32611390E-01 0.19185993E+03</pdfrwt>
<pdfrwt beam="2">  1       21 0.40006088E-01 0.19185993E+03</pdfrwt>
<totfact> 0.54514228E+04</totfact>
</mgrwt>
</event>
<event>
 4    2  0.3964208E+000  0.2812860E+03  0.7546771E-02  0.1094989E+00
         21   -1    0    0  503  502  0.00000000000E+00  0.00000000000E+00  0.10682442468E+03  0.10682442468E+03  0.00000000000E+00 0.  1.
         21   -1    0    0  501  503 -0.00000000000E+00 -0.00000000000E+00 -0.74724177289E+03  0.74724177289E+03  0.00000000000E+00 0. -1.
          6    1    1    2  501    0  0.19414657571E+03  0.10723774300E+03 -0.28016659390E+03  0.39700774139E+03  0.17300000000E+03 0. -1.
         -6    1    1    2    0  502 -0.19414657571E+03 -0.10723774300E+03 -0.36025075432E+03  0.45705845618E+03  0.17300000000E+03 0. -1.
<mgrwt>
<rscale>  2 0.28128602E+03</rscale>
<asrwt>0</asrwt>
<pdfrwt beam="1">  1       21 0.16434527E-01 0.28128602E+03</pdfrwt>
<pdfrwt beam="2">  1       21 0.11496027E+00 0.28128602E+03</pdfrwt>
<totfact> 0.18556626E+04</totfact>
</mgrwt>
</event>
<event>
 4    2  0.3964208E+000  0.2089785E+03  0.7546771E-02  0.1142377E+00
         21   -1    0    0  501  502  0.00000000000E+00  0.00000000000E+00  0.24539658126E+03  0.24539658126E+03  0.00000000000E+00 0.  1.
         21   -1    0    0  502  503 -0.00000000000E+00 -0.00000000000E+00 -0.17933531651E+03  0.17933531651E+03  0.00000000000E+00 0.  1.
          6    1    1    2  501    0 -0.97144466954E+02  0.65619827912E+02  0.51594056827E+02  0.21525323685E+03  0.17300000000E+03 0.  1.
         -6    1    1    2    0  503  0.97144466954E+02 -0.65619827912E+02  0.14467207930E+02  0.20947866092E+03  0.17300000000E+03 0.  1.
<mgrwt>
<rscale>  2 0.20897849E+03</rscale>
<asrwt>0</asrwt>
<pdfrwt beam="1">  1       21 0.37753320E-01 0.20897849E+03</pdfrwt>
<pdfrwt beam="2">  1       21 0.27590049E-01 0.20897849E+03</pdfrwt>
<totfact> 0.84241091E+04</totfact>
</mgrwt>
</event>
<event>
 4    2  0.3964208E+000  0.2407522E+03  0.7546771E-02  0.1119293E+00
         21   -1    0    0  501  502  0.00000000000E+00  0.00000000000E+00  0.24965261263E+03  0.24965261263E+03  0.00000000000E+00 0. -1.
         21   -1    0    0  502  503 -0.00000000000E+00 -0.00000000000E+00 -0.24862662274E+03  0.24862662274E+03  0.00000000000E+00 0.  1.
          6    1    1    2  501    0 -0.15749105757E+03  0.56825805667E+02  0.64612120917E+02  0.24927160202E+03  0.17300000000E+03 0. -1.
         -6    1    1    2    0  503  0.15749105757E+03 -0.56825805667E+02 -0.63586131026E+02  0.24900763334E+03  0.17300000000E+03 0.  1.
<mgrwt>
<rscale>  2 0.24075217E+03</rscale>
<asrwt>0</asrwt>
<pdfrwt beam="1">  1       21 0.38408094E-01 0.24075217E+03</pdfrwt>
<pdfrwt beam="2">  1       21 0.38250250E-01 0.24075217E+03</pdfrwt>
<totfact> 0.42120145E+04</totfact>
</mgrwt>
</event>
<event>
 4    2  0.3964208E+000  0.1889856E+03  0.7546771E-02  0.1159379E+00
         21   -1    0    0  501  502  0.00000000000E+00  0.00000000000E+00  0.98678352305E+03  0.98678352305E+03  0.00000000000E+00 0.  1.
         21   -1    0    0  502  503 -0.00000000000E+00 -0.00000000000E+00 -0.39409602638E+02  0.39409602638E+02  0.00000000000E+00 0.  1.
          6    1    1    2  501    0 -0.71639745076E+02 -0.25579422105E+02  0.62025353554E+03  0.64840574354E+03  0.17300000000E+03 0.  1.
         -6    1    1    2    0  503  0.71639745076E+02  0.25579422105E+02  0.32712038488E+03  0.37778738215E+03  0.17300000000E+03 0.  1.
<mgrwt>
<rscale>  2 0.18898561E+03</rscale>
<asrwt>0</asrwt>
<pdfrwt beam="1">  1       21 0.15181283E+00 0.18898561E+03</pdfrwt>
<pdfrwt beam="2">  1       21 0.60630165E-02 0.18898561E+03</pdfrwt>
<totfact> 0.56200119E+04</totfact>
</mgrwt>
</event>
<event>
 4    2  0.3964208E+000  0.2349535E+03  0.7546771E-02  0.1123201E+00
         21   -1    0    0  501  502  0.00000000000E+00  0.00000000000E+00  0.26089528864E+03  0.26089528864E+03  0.00000000000E+00 0. -1.
         21   -1    0    0  502  503 -0.00000000000E+00 -0.00000000000E+00 -0.25962517935E+03  0.25962517935E+03  0.00000000000E+00 0.  1.
          6    1    1    2  501    0 -0.98872736628E+02  0.12449230310E+03  0.11258106457E+03  0.26053339072E+03  0.17300000000E+03 0. -1.
         -6    1    1    2    0  503  0.98872736628E+02 -0.12449230310E+03 -0.11131095529E+03  0.25998707727E+03  0.17300000000E+03 0.  1.
<mgrwt>
<rscale>  2 0.23495351E+03</rscale>
<asrwt>0</asrwt>
<pdfrwt beam="1">  1       21 0.40137737E-01 0.23495351E+03</pdfrwt>
<pdfrwt beam="2">  1       21 0.39942335E-01 0.23495351E+03</pdfrwt>
<totfact> 0.35383992E+04</totfact>
</mgrwt>
</event>
<event>
 4    2  0.3964208E+000  0.1935441E+03  0.7546771E-02  0.1155303E+00
         21   -1    0    0  503  502  0.00000000000E+00  0.00000000000E+00  0.21834813500E+02  0.21834813500E+02  0.00000000000E+00 0.  1.
         21   -1    0    0  501  503 -0.00000000000E+00 -0.00000000000E+00 -0.17493229002E+04  0.17493229002E+04  0.00000000000E+00 0. -1.
          6    1    1    2  501    0  0.26779906892E+02  0.82541804259E+02 -0.98674262354E+03  0.10055447867E+04  0.17300000000E+03 0. -1.
         -6    1    1    2    0  502 -0.26779906892E+02 -0.82541804259E+02 -0.74074546320E+03  0.76561292708E+03  0.17300000000E+03 0.  1.
<mgrwt>
<rscale>  2 0.19354409E+03</rscale>
<asrwt>0</asrwt>
<pdfrwt beam="1">  1       21 0.33592014E-02 0.19354409E+03</pdfrwt>
<pdfrwt beam="2">  1       21 0.26912666E+00 0.19354409E+03</pdfrwt>
<totfact> 0.26952722E+04</totfact>
</mgrwt>
</event>
<event>
 4    2  0.3964208E+000  0.2178904E+03  0.7546771E-02  0.1135466E+00
         21   -1    0    0  503  502  0.00000000000E+00  0.00000000000E+00  0.10033203711E+04  0.10033203711E+04  0.00000000000E+00 0. -1.
         21   -1    0    0  501  503 -0.00000000000E+00 -0.00000000000E+00 -0.69577745048E+02  0.69577745048E+02  0.00000000000E+00 0. -1.
          6    1    1    2  501    0  0.13174584926E+03  0.13793077287E+02  0.16345238726E+03  0.27238373792E+03  0.17300000000E+03 0. -1.
         -6    1    1    2    0  502 -0.13174584926E+03 -0.13793077287E+02  0.77029023876E+03  0.80051437820E+03  0.17300000000E+03 0. -1.
<mgrwt>
<rscale>  2 0.21789038E+03</rscale>
<asrwt>0</asrwt>
<pdfrwt beam="1">  1       21 0.15435697E+00 0.21789038E+03</pdfrwt>
<pdfrwt beam="2">  1       21 0.10704269E-01 0.21789038E+03</pdfrwt>
<totfact> 0.19602701E+04</totfact>
</mgrwt>
</event>
<event>
 4    2  0.3964208E+000  0.1764294E+03  0.7546771E-02  0.1171304E+00
         21   -1    0    0  503  502  0.00000000000E+00  0.00000000000E+00  0.67219567722E+02  0.67219567722E+02  0.00000000000E+00 0.  1.
         21   -1    0    0  501  503 -0.00000000000E+00 -0.00000000000E+00 -0.53663762615E+03  0.53663762615E+03  0.00000000000E+00 0.  1.
          6    1    1    2  501    0  0.30273431151E+02 -0.16788422537E+02 -0.34650046383E+03  0.38883145861E+03  0.17300000000E+03 0.  1.
         -6    1    1    2    0  502 -0.30273431151E+02  0.16788422537E+02 -0.12291759459E+03  0.21502573526E+03  0.17300000000E+03 0.  1.
<mgrwt>
<rscale>  2 0.17642940E+03</rscale>
<asrwt>0</asrwt>
<pdfrwt beam="1">  1       21 0.10341472E-01 0.17642940E+03</pdfrwt>
<pdfrwt beam="2">  1       21 0.82559637E-01 0.17642940E+03</pdfrwt>
<totfact> 0.98559791E+04</totfact>
</mgrwt>
</event>
<event>
 4    2  0.3964208E+000  0.1985893E+03  0.7546771E-02  0.1150935E+00
         21   -1    0    0  501  502  0.00000000000E+00  0.00000000000E+00  0.34018336962E+02  0.34018336962E+02  0.00000000000E+00 0. -1.
         21   -1    0    0  502  503 -0.00000000000E+00 -0.00000000000E+00 -0.12625391772E+04  0.12625391772E+04  0.00000000000E+00 0. -1.
          6    1    1    2  501    0  0.48975483776E+02  0.84321583154E+02 -0.42888806332E+03  0.47263378874E+03  0.17300000000E+03 0. -1.
         -6    1    1    2    0  503 -0.48975483776E+02 -0.84321583154E+02 -0.79963277690E+03  0.82392372540E+03  0.17300000000E+03 0. -1.
<mgrwt>
<rscale>  2 0.19858934E+03</rscale>
<asrwt>0</asrwt>
<pdfrwt beam="1">  1       21 0.52335903E-02 0.19858934E+03</pdfrwt>
<pdfrwt beam="2">  1       21 0.19423680E+00 0.19858934E+03</pdfrwt>
<totfact> 0.36273179E+04</totfact>
</mgrwt>
</event>
<event>
 4    2  0.3964208E+000  0.1768879E+03  0.7546771E-02  0.1170849E+00
         21   -1    0    0  501  502  0.00000000000E+00  0.00000000000E+00  0.71454538398E+02  0.71454538398E+02  0.00000000000E+00 0. -1.
         21   -1    0    0  502  503 -0.00000000000E+00 -0.00000000000E+00 -0.11333625855E+04  0.11333625855E+04  0.00000000000E+00 0. -1.
          6    1    1    2  501    0  0.50456969675E+01  0.36535710910E+02 -0.59058000823E+02  0.18648636596E+03  0.17300000000E+03 0. -1.
         -6    1    1    2    0  503 -0.50456969675E+01 -0.36535710910E+02 -0.10028500463E+04  0.10183307579E+04  0.17300000000E+03 0. -1.
<mgrwt>
<rscale>  2 0.17688787E+03</rscale>
<asrwt>0</asrwt>
<pdfrwt beam="1">  1       21 0.10993006E-01 0.17688787E+03</pdfrwt>
<pdfrwt beam="2">  1       21 0.17436347E+00 0.17688787E+03</pdfrwt>
<totfact> 0.13816320E+04</totfact>
</mgrwt>
</event>
<event>
 4    2  0.3964208E+000  0.2390943E+03  0.7546771E-02  0.1120398E+00
         21   -1    0    0  501  502  0.00000000000E+00  0.00000000000E+00  0.33583522570E+03  0.33583522570E+03  0.00000000000E+00 0. -1.
         21   -1    0    0  502  503 -0.00000000000E+00 -0.00000000000E+00 -0.18912510814E+03  0.18912510814E+03  0.00000000000E+00 0.  1.
          6    1    1    2  501    0 -0.14007983660E+03  0.87262497196E+02  0.15634081379E+03  0.28567210941E+03  0.17300000000E+03 0. -1.
         -6    1    1    2    0  503  0.14007983660E+03 -0.87262497196E+02 -0.96306962296E+01  0.23928822442E+03  0.17300000000E+03 0.  1.
<mgrwt>
<rscale>  2 0.23909434E+03</rscale>
<asrwt>0</asrwt>
<pdfrwt beam="1">  1       21 0.51666957E-01 0.23909434E+03</pdfrwt>
<pdfrwt beam="2">  1       21 0.29096171E-01 0.23909434E+03</pdfrwt>
<totfact> 0.39347924E+04</totfact>
</mgrwt>
</event>
<event>
 4    2  0.3964208E+000  0.1734469E+03  0.7546771E-02  0.1174300E+00
         21   -1    0    0  501  502  0.00000000000E+00  0.00000000000E+00  0.27755454679E+03  0.27755454679E+03  0.00000000000E+00 0.  1.
         21   -1    0    0  502  503 -0.00000000000E+00 -0.00000000000E+00 -0.19298263247E+03  0.19298263247E+03  0.00000000000E+00 0.  1.
          6    1    1    2  501    0  0.64044129994E+01 -0.10667428572E+02  0.19805248105E+03  0.26326525747E+03  0.17300000000E+03 0.  1.
         -6    1    1    2    0  503 -0.64044129994E+01  0.10667428572E+02 -0.11348056673E+03  0.20727192179E+03  0.17300000000E+03 0.  1.
<mgrwt>
<rscale>  2 0.17344685E+03</rscale>
<asrwt>0</asrwt>
<pdfrwt beam="1">  1       21 0.42700699E-01 0.17344685E+03</pdfrwt>
<pdfrwt beam="2">  1       21 0.29689636E-01 0.17344685E+03</pdfrwt>
<totfact> 0.57872029E+04</totfact>
</mgrwt>
</event>
<event>
 4    2  0.3964208E+000  0.2192004E+03  0.7546771E-02  0.1134481E+00
         21   -1    0    0  501  502  0.00000000000E+00  0.00000000000E+00  0.47366285546E+02  0.47366285546E+02  0.00000000000E+00 0. -1.
         21   -1    0    0  502  503 -0.00000000000E+00 -0.00000000000E+00 -0.13280975866E+04  0.13280975866E+04  0.00000000000E+00 0.  1.
          6    1    1    2  501    0  0.69068538456E+02  0.11553934197E+03 -0.30612957731E+03  0.37651576414E+03  0.17300000000E+03 0. -1.
         -6    1    1    2    0  503 -0.69068538456E+02 -0.11553934197E+03 -0.97460172374E+03  0.99894810800E+03  0.17300000000E+03 0.  1.
<mgrwt>
<rscale>  2 0.21920037E+03</rscale>
<asrwt>0</asrwt>
<pdfrwt beam="1">  1       21 0.72871207E-02 0.21920037E+03</pdfrwt>
<pdfrwt beam="2">  1       21 0.20432271E+00 0.21920037E+03</pdfrwt>
<totfact> 0.17426376E+04</totfact>
</mgrwt>
</event>
<event>
 4    2  0.3964208E+000  0.2510364E+03  0.7546771E-02  0.1112652E+00
         21   -1    0    0  503  502  0.00000000000E+00  0.00000000000E+00  0.21986545305E+03  0.21986545305E+03  0.00000000000E+00 0. -1.
         21   -1    0    0  501  503 -0.00000000000E+00 -0.00000000000E+00 -0.29854155975E+03  0.29854155975E+03  0.00000000000E+00 0. -1.
          6    1    1    2  501    0 -0.34058267729E+02  0.17869048374E+03 -0.91121084981E+02  0.26706236483E+03  0.17300000000E+03 0. -1.
         -6    1    1    2    0  502  0.34058267729E+02 -0.17869048374E+03  0.12444978278E+02  0.25134464797E+03  0.17300000000E+03 0. -1.
<mgrwt>
<rscale>  2 0.25103636E+03</rscale>
<asrwt>0</asrwt>
<pdfrwt beam="1">  1       21 0.33825454E-01 0.25103636E+03</pdfrwt>
<pdfrwt beam="2">  1       21 0.45929471E-01 0.25103636E+03</pdfrwt>
<totfact> 0.37208805E+04</totfact>
</mgrwt>
</event>
<event>
 4    2  0.3964208E+000  0.1972956E+03  0.7546771E-02  0.1152041E+00
         21   -1    0    0  503  502  0.00000000000E+00  0.00000000000E+00  0.25525711883E+03  0.25525711883E+03  0.00000000000E+00 0. -1.
         21   -1    0    0  501  503 -0.00000000000E+00 -0.00000000000E+00 -0.24831764487E+03  0.24831764487E+03  0.00000000000E+00 0. -1.
          6    1    1    2  501    0  0.35293770292E+02 -0.88039154461E+02 -0.15293981948E+03  0.24963199178E+03  0.17300000000E+03 0.  1.
         -6    1    1    2    0  502 -0.35293770292E+02  0.88039154461E+02  0.15987929343E+03  0.25394277192E+03  0.17300000000E+03 0.  1.
<mgrwt>
<rscale>  2 0.19729557E+03</rscale>
<asrwt>0</asrwt>
<pdfrwt beam="1">  1       21 0.39270326E-01 0.19729557E+03</pdfrwt>
<pdfrwt beam="2">  1       21 0.38202714E-01 0.19729557E+03</pdfrwt>
<totfact> 0.41210680E+04</totfact>
</mgrwt>
</event>
<event>
 4    2  0.3964208E+000  0.1853810E+03  0.7546771E-02  0.1162695E+00
         21   -1    0    0  503  502  0.00000000000E+00  0.00000000000E+00  0.10267094408E+04  0.10267094408E+04  0.00000000000E+00 0. -1.
         21   -1    0    0  501  503 -0.00000000000E+00 -0.00000000000E+00 -0.10893093736E+03  0.10893093736E+03  0.00000000000E+00 0. -1.
          6    1    1    2  501    0 -0.63604174070E+02  0.19789347318E+02 -0.13707026901E+02  0.18588704046E+03  0.17300000000E+03 0. -1.
         -6    1    1    2    0  502  0.63604174070E+02 -0.19789347318E+02  0.93148553037E+03  0.94975333773E+03  0.17300000000E+03 0. -1.
<mgrwt>
<rscale>  2 0.18538098E+03</rscale>
<asrwt>0</asrwt>
<pdfrwt beam="1">  1       21 0.15795529E+00 0.18538098E+03</pdfrwt>
<pdfrwt beam="2">  1       21 0.16758606E-01 0.18538098E+03</pdfrwt>
<totfact> 0.83937400E+03</totfact>
</mgrwt>
</event>
<event>
 4    2  0.3964208E+000  0.1897789E+03  0.7546771E-02  0.1158661E+00
         21   -1    0    0  503  502  0.00000000000E+00  0.00000000000E+00  0.26315382333E+03  0.26315382333E+03  0.00000000000E+00 0. -1.
         21   -1    0    0  501  503 -0.00000000000E+00 -0.00000000000E+00 -0.31110242334E+03  0.31110242334E+03  0.00000000000E+00 0. -1.
          6    1    1    2  501    0  0.61018170838E+02 -0.48618984485E+02 -0.23885491718E+03  0.30506998260E+03  0.17300000000E+03 0. -1.
         -6    1    1    2    0  502 -0.61018170838E+02  0.48618984485E+02  0.19090631717E+03  0.26918626406E+03  0.17300000000E+03 0. -1.
<mgrwt>
<rscale>  2 0.18977888E+03</rscale>
<asrwt>0</asrwt>
<pdfrwt beam="1">  1       21 0.40485203E-01 0.18977888E+03</pdfrwt>
<pdfrwt beam="2">  1       21 0.47861911E-01 0.18977888E+03</pdfrwt>
<totfact> 0.24569443E+04</totfact>
</mgrwt>
</event>
<event>
 4    2  0.3964208E+000  0.1961403E+03  0.7546771E-02  0.1153037E+00
         21   -1    0    0  503  502  0.00000000000E+00  0.00000000000E+00  0.20450271451E+03  0.20450271451E+03  0.00000000000E+00 0.  1.
         21   -1    0    0  501  503 -0.00000000000E+00 -0.00000000000E+00 -0.19083615005E+03  0.19083615005E+03  0.00000000000E+00 0.  1.
          6    1    1    2  501    0  0.21644033498E+02 -0.89852963341E+02  0.30416244888E+02  0.19848467739E+03  0.17300000000E+03 0. -1.
         -6    1    1    2    0  502 -0.21644033498E+02  0.89852963341E+02 -0.16749680427E+02  0.19685418716E+03  0.17300000000E+03 0. -1.
<mgrwt>
<rscale>  2 0.19614030E+03</rscale>
<asrwt>0</asrwt>
<pdfrwt beam="1">  1       21 0.31461956E-01 0.19614030E+03</pdfrwt>
<pdfrwt beam="2">  1       21 0.29359407E-01 0.19614030E+03</pdfrwt>
<totfact> 0.10776726E+05</totfact>
</mgrwt>
</event>
<event>
 4    2  0.3964208E+000  0.2452296E+03  0.7546771E-02  0.1116357E+00
         21   -1    0    0  503  502  0.00000000000E+00  0.00000000000E+00  0.10230829052E+03  0.10230829052E+03  0.00000000000E+00 0. -1.
         21   -1    0    0  501  503 -0.00000000000E+00 -0.00000000000E+00 -0.60179458922E+03  0.60179458922E+03  0.00000000000E+00 0.  1.
          6    1    1    2  501    0  0.85053390185E+02 -0.15157329404E+03 -0.30341559674E+03  0.39012634747E+03  0.17300000000E+03 0.  1.
         -6    1    1    2    0  502 -0.85053390185E+02  0.15157329404E+03 -0.19607070196E+03  0.31397653227E+03  0.17300000000E+03 0. -1.
<mgrwt>
<rscale>  2 0.24522957E+03</rscale>
<asrwt>0</asrwt>
<pdfrwt beam="1">  1       21 0.15739737E-01 0.24522957E+03</pdfrwt>
<pdfrwt beam="2">  1       21 0.92583783E-01 0.24522957E+03</pdfrwt>
<totfact> 0.34417439E+04</totfact>
</mgrwt>
</event>
<event>
 4    2  0.3964208E+000  0.2513366E+03  0.7546771E-02  0.1112463E+00
         21   -1    0    0  503  502  0.00000000000E+00  0.00000000000E+00  0.34030653919E+03  0.34030653919E+03  0.00000000000E+00 0.  1.
         21   -1    0    0  501  503 -0.00000000000E+00 -0.00000000000E+00 -0.24183905974E+03  0.24183905974E+03  0.00000000000E+00 0. -1.
          6    1    1    2  501    0 -0.17967925909E+03 -0.30926297918E+02 -0.91097144579E+02  0.26733642064E+03  0.17300000000E+03 0.  1.
         -6    1    1    2    0  502  0.17967925909E+03  0.30926297918E+02  0.18956462403E+03  0.31480917829E+03  0.17300000000E+03 0.  1.
<mgrwt>
<rscale>  2 0.25133657E+03</rscale>
<asrwt>0</asrwt>
<pdfrwt beam="1">  1       21 0.52354852E-01 0.25133657E+03</pdfrwt>
<pdfrwt beam="2">  1       21 0.37206009E-01 0.25133657E+03</pdfrwt>
<totfact> 0.23377114E+04</totfact>
</mgrwt>
</event>
<event>
 4    2  0.3964208E+000  0.2242748E+03  0.7546771E-02  0.1130736E+00
         21   -1    0    0  501  502  0.00000000000E+00  0.00000000000E+00  0.29084211353E+03  0.29084211353E+03  0.00000000000E+00 0.  1.
         21   -1    0    0  502  503 -0.00000000000E+00 -0.00000000000E+00 -0.22077005074E+03  0.22077005074E+03  0.00000000000E+00 0. -1.
          6    1    1    2  501    0 -0.14070170700E+03  0.23941736701E+02 -0.84026881507E+02  0.23949883909E+03  0.17300000000E+03 0. -1.
         -6    1    1    2    0  503  0.14070170700E+03 -0.23941736701E+02  0.15409894430E+03  0.27211332518E+03  0.17300000000E+03 0.  1.
<mgrwt>
<rscale>  2 0.22427478E+03</rscale>
<asrwt>0</asrwt>
<pdfrwt beam="1">  1       21 0.44744941E-01 0.22427478E+03</pdfrwt>
<pdfrwt beam="2">  1       21 0.33964623E-01 0.22427478E+03</pdfrwt>
<totfact> 0.39416249E+04</totfact>
</mgrwt>
</event>
<event>
 4    2  0.3964208E+000  0.2195433E+03  0.7546771E-02  0.1134224E+00
         21   -1    0    0  503  502  0.00000000000E+00  0.00000000000E+00  0.63347910534E+02  0.63347910534E+02  0.00000000000E+00 0.  1.
         21   -1    0    0  501  503 -0.00000000000E+00 -0.00000000000E+00 -0.89901733291E+03  0.89901733291E+03  0.00000000000E+00 0. -1.
          6    1    1    2  501    0 -0.69602611458E+02 -0.11586942184E+03 -0.22920762412E+03  0.31738837627E+03  0.17300000000E+03 0.  1.
         -6    1    1    2    0  502  0.69602611458E+02  0.11586942184E+03 -0.60646179826E+03  0.64497686718E+03  0.17300000000E+03 0. -1.
<mgrwt>
<rscale>  2 0.21954327E+03</rscale>
<asrwt>0</asrwt>
<pdfrwt beam="1">  1       21 0.97458330E-02 0.21954327E+03</pdfrwt>
<pdfrwt beam="2">  1       21 0.13831035E+00 0.21954327E+03</pdfrwt>
<totfact> 0.30859407E+04</totfact>
</mgrwt>
</event>
<event>
 4    2  0.3964208E+000  0.1745311E+03  0.7546771E-02  0.1173203E+00
         21   -1    0    0  501  502  0.00000000000E+00  0.00000000000E+00  0.49134380195E+02  0.49134380195E+02  0.00000000000E+00 0. -1.
         21   -1    0    0  502  503 -0.00000000000E+00 -0.00000000000E+00 -0.74491943218E+03  0.74491943218E+03  0.00000000000E+00 0. -1.
          6    1    1    2  501    0  0.23067206935E+02  0.15475450530E+00 -0.18527851716E+03  0.25453732321E+03  0.17300000000E+03 0. -1.
         -6    1    1    2    0  503 -0.23067206935E+02 -0.15475450530E+00 -0.51050653483E+03  0.53951648917E+03  0.17300000000E+03 0. -1.
<mgrwt>
<rscale>  2 0.17453114E+03</rscale>
<asrwt>0</asrwt>
<pdfrwt beam="1">  1       21 0.75591359E-02 0.17453114E+03</pdfrwt>
<pdfrwt beam="2">  1       21 0.11460298E+00 0.17453114E+03</pdfrwt>
<totfact> 0.78949905E+04</totfact>
</mgrwt>
</event>
<event>
 4    2  0.3964208E+000  0.2077772E+03  0.7546771E-02  0.1143338E+00
         21   -1    0    0  501  502  0.00000000000E+00  0.00000000000E+00  0.99025813267E+02  0.99025813267E+02  0.00000000000E+00 0. -1.
         21   -1    0    0  502  503 -0.00000000000E+00 -0.00000000000E+00 -0.67616665864E+03  0.67616665864E+03  0.00000000000E+00 0.  1.
          6    1    1    2  501    0 -0.70333819149E+01 -0.11486036976E+03 -0.57553140374E+02  0.21560087423E+03  0.17300000000E+03 0. -1.
         -6    1    1    2    0  503  0.70333819149E+01  0.11486036976E+03 -0.51958770500E+03  0.55959159767E+03  0.17300000000E+03 0.  1.
<mgrwt>
<rscale>  2 0.20777722E+03</rscale>
<asrwt>0</asrwt>
<pdfrwt beam="1">  1       21 0.15234741E-01 0.20777722E+03</pdfrwt>
<pdfrwt beam="2">  1       21 0.10402564E+00 0.20777722E+03</pdfrwt>
<totfact> 0.28242613E+04</totfact>
</mgrwt>
</event>
<event>
 4    2  0.3964208E+000  0.1759265E+03  0.7546771E-02  0.1171805E+00
         21   -1    0    0  501  502  0.00000000000E+00  0.00000000000E+00  0.10186391978E+03  0.10186391978E+03  0.00000000000E+00 0. -1.
         21   -1    0    0  502  503 -0.00000000000E+00 -0.00000000000E+00 -0.39552151122E+03  0.39552151122E+03  0.00000000000E+00 0. -1.
          6    1    1    2  501    0  0.50092550994E+01  0.31560189303E+02 -0.27093158285E+02  0.17800049835E+03  0.17300000000E+03 0.  1.
         -6    1    1    2    0  503 -0.50092550994E+01 -0.31560189303E+02 -0.26656443316E+03  0.31938493266E+03  0.17300000000E+03 0.  1.
<mgrwt>
<rscale>  2 0.17592651E+03</rscale>
<asrwt>0</asrwt>
<pdfrwt beam="1">  1       21 0.15671372E-01 0.17592651E+03</pdfrwt>
<pdfrwt beam="2">  1       21 0.60849463E-01 0.17592651E+03</pdfrwt>
<totfact> 0.91659570E+04</totfact>
</mgrwt>
</event>
<event>
 4    2  0.3964208E+000  0.2015599E+03  0.7546771E-02  0.1148430E+00
         21   -1    0    0  501  502  0.00000000000E+00  0.00000000000E+00  0.20864922809E+04  0.20864922809E+04  0.00000000000E+00 0.  1.
         21   -1    0    0  502  503 -0.00000000000E+00 -0.00000000000E+00 -0.27236194276E+02  0.27236194276E+02  0.00000000000E+00 0. -1.
          6    1    1    2  501    0  0.10627010978E+00  0.10342816847E+03  0.46531764784E+03  0.50709654970E+03  0.17300000000E+03 0. -1.
         -6    1    1    2    0  503 -0.10627010978E+00 -0.10342816847E+03  0.15939384388E+04  0.16066319255E+04  0.17300000000E+03 0. -1.
<mgrwt>
<rscale>  2 0.20155991E+03</rscale>
<asrwt>0</asrwt>
<pdfrwt beam="1">  1       21 0.32099869E+00 0.20155991E+03</pdfrwt>
<pdfrwt beam="2">  1       21 0.41901853E-02 0.20155991E+03</pdfrwt>
<totfact> 0.92689442E+03</totfact>
</mgrwt>
</event>
<event>
 4    2  0.3964208E+000  0.2020111E+03  0.7546771E-02  0.1148053E+00
         21   -1    0    0  503  502  0.00000000000E+00  0.00000000000E+00  0.59047807541E+02  0.59047807541E+02  0.00000000000E+00 0.  1.
         21   -1    0    0  501  503 -0.00000000000E+00 -0.00000000000E+00 -0.10025467572E+04  0.10025467572E+04  0.00000000000E+00 0.  1.
          6    1    1    2  501    0 -0.10223485400E+03 -0.20676323965E+02 -0.76759291948E+03  0.79373003331E+03  0.17300000000E+03 0.  1.
         -6    1    1    2    0  502  0.10223485400E+03  0.20676323965E+02 -0.17590603018E+03  0.26786453143E+03  0.17300000000E+03 0.  1.
<mgrwt>
<rscale>  2 0.20201108E+03</rscale>
<asrwt>0</asrwt>
<pdfrwt beam="1">  1       21 0.90842777E-02 0.20201108E+03</pdfrwt>
<pdfrwt beam="2">  1       21 0.15423797E+00 0.20201108E+03</pdfrwt>
<totfact> 0.26523737E+04</totfact>
</mgrwt>
</event>
<event>
 4    2  0.3964208E+000  0.1814563E+03  0.7546771E-02  0.1166401E+00
         21   -1    0    0  501  502  0.00000000000E+00  0.00000000000E+00  0.12278925637E+03  0.12278925637E+03  0.00000000000E+00 0.  1.
         21   -1    0    0  502  503 -0.00000000000E+00 -0.00000000000E+00 -0.32324922098E+03  0.32324922098E+03  0.00000000000E+00 0.  1.
          6    1    1    2  501    0  0.12333248102E+01  0.54734593270E+02 -0.19230284031E+03  0.26439890163E+03  0.17300000000E+03 0.  1.
         -6    1    1    2    0  503 -0.12333248102E+01 -0.54734593270E+02 -0.81571242971E+01  0.18163957572E+03  0.17300000000E+03 0.  1.
<mgrwt>
<rscale>  2 0.18145632E+03</rscale>
<asrwt>0</asrwt>
<pdfrwt beam="1">  1       21 0.18890655E-01 0.18145632E+03</pdfrwt>
<pdfrwt beam="2">  1       21 0.49730649E-01 0.18145632E+03</pdfrwt>
<totfact> 0.99350100E+04</totfact>
</mgrwt>
</event>
<event>
 4    2  0.3964208E+000  0.2304209E+03  0.7546771E-02  0.1126344E+00
         21   -1    0    0  503  502  0.00000000000E+00  0.00000000000E+00  0.45289784870E+03  0.45289784870E+03  0.00000000000E+00 0.  1.
         21   -1    0    0  501  503 -0.00000000000E+00 -0.00000000000E+00 -0.11766291009E+03  0.11766291009E+03  0.00000000000E+00 0.  1.
          6    1    1    2  501    0  0.14946213850E+03 -0.28737938304E+02  0.18489580608E+03  0.29543232567E+03  0.17300000000E+03 0.  1.
         -6    1    1    2    0  502 -0.14946213850E+03  0.28737938304E+02  0.15033913253E+03  0.27512843312E+03  0.17300000000E+03 0.  1.
<mgrwt>
<rscale>  2 0.23042092E+03</rscale>
<asrwt>0</asrwt>
<pdfrwt beam="1">  1       21 0.69676591E-01 0.23042092E+03</pdfrwt>
<pdfrwt beam="2">  1       21 0.18101986E-01 0.23042092E+03</pdfrwt>
<totfact> 0.51098219E+04</totfact>
</mgrwt>
</event>
<event>
 4    2  0.3964208E+000  0.1843712E+03  0.7546771E-02  0.1163638E+00
         21   -1    0    0  503  502  0.00000000000E+00  0.00000000000E+00  0.34641047659E+03  0.34641047659E+03  0.00000000000E+00 0.  1.
         21   -1    0    0  501  503 -0.00000000000E+00 -0.00000000000E+00 -0.98765714889E+02  0.98765714889E+02  0.00000000000E+00 0.  1.
          6    1    1    2  501    0 -0.20536329260E+02 -0.60349038691E+02  0.10594371701E+03  0.21264246628E+03  0.17300000000E+03 0.  1.
         -6    1    1    2    0  502  0.20536329260E+02  0.60349038691E+02  0.14170104469E+03  0.23253372520E+03  0.17300000000E+03 0.  1.
<mgrwt>
<rscale>  2 0.18437122E+03</rscale>
<asrwt>0</asrwt>
<pdfrwt beam="1">  1       21 0.53293919E-01 0.18437122E+03</pdfrwt>
<pdfrwt beam="2">  1       21 0.15194726E-01 0.18437122E+03</pdfrwt>
<totfact> 0.12810356E+05</totfact>
</mgrwt>
</event>
<event>
 4    2  0.3964208E+000  0.2212974E+03  0.7546771E-02  0.1132919E+00
         21   -1    0    0  501  502  0.00000000000E+00  0.00000000000E+00  0.15747563594E+03  0.15747563594E+03  0.00000000000E+00 0.  1.
         21   -1    0    0  502  503 -0.00000000000E+00 -0.00000000000E+00 -0.59539354617E+03  0.59539354617E+03  0.00000000000E+00 0. -1.
          6    1    1    2  501    0 -0.16640973715E+02  0.13699138156E+03  0.41211983844E+02  0.22510217289E+03  0.17300000000E+03 0.  1.
         -6    1    1    2    0  503  0.16640973715E+02 -0.13699138156E+03 -0.47912989407E+03  0.52776700922E+03  0.17300000000E+03 0. -1.
<mgrwt>
<rscale>  2 0.22129745E+03</rscale>
<asrwt>0</asrwt>
<pdfrwt beam="1">  1       21 0.24227021E-01 0.22129745E+03</pdfrwt>
<pdfrwt beam="2">  1       21 0.91599007E-01 0.22129745E+03</pdfrwt>
<totfact> 0.15932531E+04</totfact>
</mgrwt>
</event>
<event>
 4    2  0.3964208E+000  0.1873312E+03  0.7546771E-02  0.1160891E+00
         21   -1    0    0  503  502  0.00000000000E+00  0.00000000000E+00  0.13827226039E+03  0.13827226039E+03  0.00000000000E+00 0. -1.
         21   -1    0    0  501  503 -0.00000000000E+00 -0.00000000000E+00 -0.25385344906E+03  0.25385344906E+03  0.00000000000E+00 0. -1.
          6    1    1    2  501    0  0.56750517628E+02  0.44083555545E+02 -0.54847531830E+02  0.19519537102E+03  0.17300000000E+03 0. -1.
         -6    1    1    2    0  502 -0.56750517628E+02 -0.44083555545E+02 -0.60733656833E+02  0.19693033843E+03  0.17300000000E+03 0. -1.
<mgrwt>
<rscale>  2 0.18733121E+03</rscale>
<asrwt>0</asrwt>
<pdfrwt beam="1">  1       21 0.21272656E-01 0.18733121E+03</pdfrwt>
<pdfrwt beam="2">  1       21 0.39054376E-01 0.18733121E+03</pdfrwt>
<totfact> 0.13022606E+05</totfact>
</mgrwt>
</event>
<event>
 4    2  0.3964208E+000  0.1756404E+03  0.7546771E-02  0.1172090E+00
         21   -1    0    0  503  502  0.00000000000E+00  0.00000000000E+00  0.22943967071E+03  0.22943967071E+03  0.00000000000E+00 0.  1.
         21   -1    0    0  501  503 -0.00000000000E+00 -0.00000000000E+00 -0.31288153933E+03  0.31288153933E+03  0.00000000000E+00 0.  1.
          6    1    1    2  501    0 -0.10952162423E+02 -0.28295087288E+02 -0.24649031637E+03  0.30266654571E+03  0.17300000000E+03 0.  1.
         -6    1    1    2    0  502  0.10952162423E+02  0.28295087288E+02  0.16304844774E+03  0.23965466433E+03  0.17300000000E+03 0.  1.
<mgrwt>
<rscale>  2 0.17564043E+03</rscale>
<asrwt>0</asrwt>
<pdfrwt beam="1">  1       21 0.35298411E-01 0.17564043E+03</pdfrwt>
<pdfrwt beam="2">  1       21 0.48135621E-01 0.17564043E+03</pdfrwt>
<totfact> 0.32200706E+04</totfact>
</mgrwt>
</event>
<event>
 4    2  0.3964208E+000  0.1823111E+03  0.7546771E-02  0.1165585E+00
         21   -1    0    0  501  502  0.00000000000E+00  0.00000000000E+00  0.11866363561E+03  0.11866363561E+03  0.00000000000E+00 0. -1.
         21   -1    0    0  502  503 -0.00000000000E+00 -0.00000000000E+00 -0.29279266176E+03  0.29279266176E+03  0.00000000000E+00 0. -1.
          6    1    1    2  501    0 -0.56577066661E+02 -0.10362038893E+02 -0.44225432064E+02  0.18759857452E+03  0.17300000000E+03 0. -1.
         -6    1    1    2    0  503  0.56577066661E+02  0.10362038893E+02 -0.12990359409E+03  0.22385772285E+03  0.17300000000E+03 0. -1.
<mgrwt>
<rscale>  2 0.18231110E+03</rscale>
<asrwt>0</asrwt>
<pdfrwt beam="1">  1       21 0.18255944E-01 0.18231110E+03</pdfrwt>
<pdfrwt beam="2">  1       21 0.45045025E-01 0.18231110E+03</pdfrwt>
<totfact> 0.12980291E+05</totfact>
</mgrwt>
</event>
<event>
 4    2  0.3964208E+000  0.2591982E+03  0.7546771E-02  0.1107626E+00
         21   -1    0    0  501  502  0.00000000000E+00  0.00000000000E+00  0.32300306016E+03  0.32300306016E+03  0.00000000000E+00 0. -1.
         21   -1    0    0  502  503 -0.00000000000E+00 -0.00000000000E+00 -0.72485288858E+03  0.72485288858E+03  0.00000000000E+00 0.  1.
          6    1    1    2  501    0  0.48926255875E+02 -0.18671085113E+03  0.24149158617E+03  0.35426248268E+03  0.17300000000E+03 0. -1.
         -6    1    1    2    0  503 -0.48926255875E+02  0.18671085113E+03 -0.64334141459E+03  0.69359346606E+03  0.17300000000E+03 0.  1.
<mgrwt>
<rscale>  2 0.25919823E+03</rscale>
<asrwt>0</asrwt>
<pdfrwt beam="1">  1       21 0.49692779E-01 0.25919823E+03</pdfrwt>
<pdfrwt beam="2">  1       21 0.11151583E+00 0.25919823E+03</pdfrwt>
<totfact> 0.23137276E+03</totfact>
</mgrwt>
</event>
<event>
 4    2  0.3964208E+000  0.1782547E+03  0.7546771E-02  0.1169503E+00
         21   -1    0    0  503  502  0.00000000000E+00  0.00000000000E+00  0.75708405942E+02  0.75708405942E+02  0.00000000000E+00 0. -1.
         21   -1    0    0  501  503 -0.00000000000E+00 -0.00000000000E+00 -0.44037317365E+03  0.44037317365E+03  0.00000000000E+00 0. -1.
          6    1    1    2  501    0 -0.42870186242E+02 -0.28058491061E+01 -0.23824300522E+03  0.29754739991E+03  0.17300000000E+03 0. -1.
         -6    1    1    2    0  502  0.42870186242E+02  0.28058491061E+01 -0.12642176248E+03  0.21853417968E+03  0.17300000000E+03 0. -1.
<mgrwt>
<rscale>  2 0.17825467E+03</rscale>
<asrwt>0</asrwt>
<pdfrwt beam="1">  1       21 0.11647447E-01 0.17825467E+03</pdfrwt>
<pdfrwt beam="2">  1       21 0.67749720E-01 0.17825467E+03</pdfrwt>
<totfact> 0.12386618E+05</totfact>
</mgrwt>
</event>
<event>
 4    2  0.3964208E+000  0.2047459E+03  0.7546771E-02  0.1145796E+00
         21   -1    0    0  501  502  0.00000000000E+00  0.00000000000E+00  0.30911538359E+04  0.30911538359E+04  0.00000000000E+00 0. -1.
         21   -1    0    0  502  503 -0.00000000000E+00 -0.00000000000E+00 -0.31294760916E+02  0.31294760916E+02  0.00000000000E+00 0. -1.
          6    1    1    2  501    0 -0.10940721477E+03  0.46849320009E+01  0.27051598236E+04  0.27128970785E+04  0.17300000000E+03 0. -1.
         -6    1    1    2    0  503  0.10940721477E+03 -0.46849320009E+01  0.35469925135E+03  0.40955151829E+03  0.17300000000E+03 0. -1.
<mgrwt>
<rscale>  2 0.20474591E+03</rscale>
<asrwt>0</asrwt>
<pdfrwt beam="1">  1       21 0.47556189E+00 0.20474591E+03</pdfrwt>
<pdfrwt beam="2">  1       21 0.48145811E-02 0.20474591E+03</pdfrwt>
<totfact> 0.78751833E+02</totfact>
</mgrwt>
</event>
<event>
 4    2  0.3964208E+000  0.2097609E+03  0.7546771E-02  0.1141755E+00
         21   -1    0    0  501  502  0.00000000000E+00  0.00000000000E+00  0.12901033833E+03  0.12901033833E+03  0.00000000000E+00 0.  1.
         21   -1    0    0  502  503 -0.00000000000E+00 -0.00000000000E+00 -0.88918025035E+03  0.88918025035E+03  0.00000000000E+00 0.  1.
          6    1    1    2  501    0  0.43357473043E+02 -0.11041180371E+03  0.19624142760E+02  0.21067687070E+03  0.17300000000E+03 0.  1.
         -6    1    1    2    0  503 -0.43357473043E+02  0.11041180371E+03 -0.77979405478E+03  0.80751371799E+03  0.17300000000E+03 0.  1.
<mgrwt>
<rscale>  2 0.20976090E+03</rscale>
<asrwt>0</asrwt>
<pdfrwt beam="1">  1       21 0.19847744E-01 0.20976090E+03</pdfrwt>
<pdfrwt beam="2">  1       21 0.13679696E+00 0.20976090E+03</pdfrwt>
<totfact> 0.87807189E+03</totfact>
</mgrwt>
</event>
<event>
 4    2  0.3964208E+000  0.1752331E+03  0.7546771E-02  0.1172498E+00
         21   -1    0    0  501  502  0.00000000000E+00  0.00000000000E+00  0.31052709581E+03  0.31052709581E+03  0.00000000000E+00 0.  1.
         21   -1    0    0  502  503 -0.00000000000E+00 -0.00000000000E+00 -0.14100367291E+03  0.14100367291E+03  0.00000000000E+00 0.  1.
          6    1    1    2  501    0  0.14536684885E+02 -0.23797270037E+02  0.20815085052E+03  0.27209079705E+03  0.17300000000E+03 0.  1.
         -6    1    1    2    0  503 -0.14536684885E+02  0.23797270037E+02 -0.38627427620E+02  0.17943997167E+03  0.17300000000E+03 0.  1.
<mgrwt>
<rscale>  2 0.17523306E+03</rscale>
<asrwt>0</asrwt>
<pdfrwt beam="1">  1       21 0.47773399E-01 0.17523306E+03</pdfrwt>
<pdfrwt beam="2">  1       21 0.21692873E-01 0.17523306E+03</pdfrwt>
<totfact> 0.83615351E+04</totfact>
</mgrwt>
</event>
<event>
 4    2  0.3964208E+000  0.1737882E+03  0.7546771E-02  0.1173954E+00
         21   -1    0    0  501  502  0.00000000000E+00  0.00000000000E+00  0.12316799268E+04  0.12316799268E+04  0.00000000000E+00 0.  1.
         21   -1    0    0  502  503 -0.00000000000E+00 -0.00000000000E+00 -0.24587231291E+02  0.24587231291E+02  0.00000000000E+00 0.  1.
          6    1    1    2  501    0  0.79386131066E+01 -0.14502311136E+02  0.57100853446E+03  0.59686940367E+03  0.17300000000E+03 0.  1.
         -6    1    1    2    0  503 -0.79386131066E+01  0.14502311136E+02  0.63608416109E+03  0.65939775447E+03  0.17300000000E+03 0.  1.
<mgrwt>
<rscale>  2 0.17378820E+03</rscale>
<asrwt>0</asrwt>
<pdfrwt beam="1">  1       21 0.18948917E+00 0.17378820E+03</pdfrwt>
<pdfrwt beam="2">  1       21 0.37826519E-02 0.17378820E+03</pdfrwt>
<totfact> 0.68410273E+04</totfact>
</mgrwt>
</event>
<event>
 4    2  0.3964208E+000  0.1871790E+03  0.7546771E-02  0.1161031E+00
         21   -1    0    0  501  502  0.00000000000E+00  0.00000000000E+00  0.31092235323E+03  0.31092235323E+03  0.00000000000E+00 0. -1.
         21   -1    0    0  502  503 -0.00000000000E+00 -0.00000000000E+00 -0.31530350091E+03  0.31530350091E+03  0.00000000000E+00 0. -1.
          6    1    1    2  501    0 -0.71238797705E+02 -0.56582270411E+01  0.24881143476E+03  0.31135688831E+03  0.17300000000E+03 0. -1.
         -6    1    1    2    0  503  0.71238797705E+02  0.56582270411E+01 -0.25319258244E+03  0.31486896582E+03  0.17300000000E+03 0. -1.
<mgrwt>
<rscale>  2 0.18717901E+03</rscale>
<asrwt>0</asrwt>
<pdfrwt beam="1">  1       21 0.47834208E-01 0.18717901E+03</pdfrwt>
<pdfrwt beam="2">  1       21 0.48508231E-01 0.18717901E+03</pdfrwt>
<totfact> 0.17011508E+04</totfact>
</mgrwt>
</event>
<event>
 4    2  0.3964208E+000  0.2224851E+03  0.7546771E-02  0.1132044E+00
         21   -1    0    0  503  502  0.00000000000E+00  0.00000000000E+00  0.35525797740E+03  0.35525797740E+03  0.00000000000E+00 0. -1.
         21   -1    0    0  501  503 -0.00000000000E+00 -0.00000000000E+00 -0.19333407636E+03  0.19333407636E+03  0.00000000000E+00 0. -1.
          6    1    1    2  501    0 -0.13513976471E+03  0.36164338414E+02 -0.64002450038E+02  0.23150794584E+03  0.17300000000E+03 0. -1.
         -6    1    1    2    0  502  0.13513976471E+03 -0.36164338414E+02  0.22592635109E+03  0.31708410792E+03  0.17300000000E+03 0. -1.
<mgrwt>
<rscale>  2 0.22248509E+03</rscale>
<asrwt>0</asrwt>
<pdfrwt beam="1">  1       21 0.54655074E-01 0.22248509E+03</pdfrwt>
<pdfrwt beam="2">  1       21 0.29743704E-01 0.22248509E+03</pdfrwt>
<totfact> 0.33725639E+04</totfact>
</mgrwt>
</event>
<event>
 4    2  0.3964208E+000  0.2269638E+03  0.7546771E-02  0.1128795E+00
         21   -1    0    0  501  502  0.00000000000E+00  0.00000000000E+00  0.24314126502E+03  0.24314126502E+03  0.00000000000E+00 0. -1.
         21   -1    0    0  502  503 -0.00000000000E+00 -0.00000000000E+00 -0.21617995113E+03  0.21617995113E+03  0.00000000000E+00 0. -1.
          6    1    1    2  501    0  0.60604517970E+02  0.13383072102E+03 -0.18974335162E+02  0.22775555950E+03  0.17300000000E+03 0. -1.
         -6    1    1    2    0  503 -0.60604517970E+02 -0.13383072102E+03  0.45935649049E+02  0.23156565665E+03  0.17300000000E+03 0. -1.
<mgrwt>
<rscale>  2 0.22696381E+03</rscale>
<asrwt>0</asrwt>
<pdfrwt beam="1">  1       21 0.37406349E-01 0.22696381E+03</pdfrwt>
<pdfrwt beam="2">  1       21 0.33258454E-01 0.22696381E+03</pdfrwt>
<totfact> 0.59092186E+04</totfact>
</mgrwt>
</event>
<event>
 4    2  0.3964208E+000  0.2268564E+03  0.7546771E-02  0.1128872E+00
         21   -1    0    0  501  502  0.00000000000E+00  0.00000000000E+00  0.40556984214E+02  0.40556984214E+02  0.00000000000E+00 0.  1.
         21   -1    0    0  502  503 -0.00000000000E+00 -0.00000000000E+00 -0.14261624100E+04  0.14261624100E+04  0.00000000000E+00 0. -1.
          6    1    1    2  501    0  0.98625391159E+01  0.14641573486E+03 -0.93630791475E+03  0.96339833315E+03  0.17300000000E+03 0. -1.
         -6    1    1    2    0  503 -0.98625391159E+01 -0.14641573486E+03 -0.44929751108E+03  0.50332106111E+03  0.17300000000E+03 0.  1.
<mgrwt>
<rscale>  2 0.22685642E+03</rscale>
<asrwt>0</asrwt>
<pdfrwt beam="1">  1       21 0.62395359E-02 0.22685642E+03</pdfrwt>
<pdfrwt beam="2">  1       21 0.21940961E+00 0.22685642E+03</pdfrwt>
<totfact> 0.18217120E+04</totfact>
</mgrwt>
</event>
<event>
 4    2  0.3964208E+000  0.1735591E+03  0.7546771E-02  0.1174186E+00
         21   -1    0    0  503  502  0.00000000000E+00  0.00000000000E+00  0.34077287705E+03  0.34077287705E+03  0.00000000000E+00 0.  1.
         21   -1    0    0  501  503 -0.00000000000E+00 -0.00000000000E+00 -0.99156132116E+02  0.99156132116E+02  0.00000000000E+00 0.  1.
          6    1    1    2  501    0  0.12222732311E+01  0.13865728178E+02  0.48345779828E+02  0.18016677495E+03  0.17300000000E+03 0.  1.
         -6    1    1    2    0  502 -0.12222732311E+01 -0.13865728178E+02  0.19327096510E+03  0.25976223421E+03  0.17300000000E+03 0.  1.
<mgrwt>
<rscale>  2 0.17355907E+03</rscale>
<asrwt>0</asrwt>
<pdfrwt beam="1">  1       21 0.52426596E-01 0.17355907E+03</pdfrwt>
<pdfrwt beam="2">  1       21 0.15254790E-01 0.17355907E+03</pdfrwt>
<totfact> 0.13214728E+05</totfact>
</mgrwt>
</event>
<event>
 4    2  0.3964208E+000  0.2795684E+03  0.7546771E-02  0.1095925E+00
         21   -1    0    0  501  502  0.00000000000E+00  0.00000000000E+00  0.24771459654E+03  0.24771459654E+03  0.00000000000E+00 0. -1.
         21   -1    0    0  502  503 -0.00000000000E+00 -0.00000000000E+00 -0.32814959137E+03  0.32814959137E+03  0.00000000000E+00 0. -1.
          6    1    1    2  501    0 -0.14134097356E+03 -0.16808396239E+03 -0.96708328035E+02  0.29582256495E+03  0.17300000000E+03 0. -1.
         -6    1    1    2    0  503  0.14134097356E+03  0.16808396239E+03  0.16273333209E+02  0.28004162297E+03  0.17300000000E+03 0. -1.
<mgrwt>
<rscale>  2 0.27956840E+03</rscale>
<asrwt>0</asrwt>
<pdfrwt beam="1">  1       21 0.38109938E-01 0.27956840E+03</pdfrwt>
<pdfrwt beam="2">  1       21 0.50484553E-01 0.27956840E+03</pdfrwt>
<totfact> 0.23752603E+04</totfact>
</mgrwt>
</event>
<event>
 4    2  0.3964208E+000  0.2324235E+03  0.7546771E-02  0.1124946E+00
         21   -1    0    0  503  502  0.00000000000E+00  0.00000000000E+00  0.87800882909E+02  0.87800882909E+02  0.00000000000E+00 0.  1.
         21   -1    0    0  501  503 -0.00000000000E+00 -0.00000000000E+00 -0.11092842981E+04  0.11092842981E+04  0.00000000000E+00 0. -1.
          6    1    1    2  501    0 -0.15403745898E+03 -0.19083018778E+02 -0.91017672280E+03  0.93938403601E+03  0.17300000000E+03 0. -1.
         -6    1    1    2    0  502  0.15403745898E+03  0.19083018778E+02 -0.11130669242E+03  0.25770114503E+03  0.17300000000E+03 0.  1.
<mgrwt>
<rscale>  2 0.23242354E+03</rscale>
<asrwt>0</asrwt>
<pdfrwt beam="1">  1       21 0.13507829E-01 0.23242354E+03</pdfrwt>
<pdfrwt beam="2">  1       21 0.17065911E+00 0.23242354E+03</pdfrwt>
<totfact> 0.97225048E+03</totfact>
</mgrwt>
</event>
<event>
 4    2  0.3964208E+000  0.1954733E+03  0.7546771E-02  0.1153615E+00
         21   -1    0    0  501  502  0.00000000000E+00  0.00000000000E+00  0.23775510772E+03  0.23775510772E+03  0.00000000000E+00 0.  1.
         21   -1    0    0  502  503 -0.00000000000E+00 -0.00000000000E+00 -0.16071830814E+03  0.16071830814E+03  0.00000000000E+00 0. -1.
          6    1    1    2  501    0 -0.78602624108E+02  0.45852437983E+02  0.39878251050E+02  0.19949960775E+03  0.17300000000E+03 0.  1.
         -6    1    1    2    0  503  0.78602624108E+02 -0.45852437983E+02  0.37158548528E+02  0.19897380811E+03  0.17300000000E+03 0. -1.
<mgrwt>
<rscale>  2 0.19547332E+03</rscale>
<asrwt>0</asrwt>
<pdfrwt beam="1">  1       21 0.36577709E-01 0.19547332E+03</pdfrwt>
<pdfrwt beam="2">  1       21 0.24725894E-01 0.19547332E+03</pdfrwt>
<totfact> 0.11138516E+05</totfact>
</mgrwt>
</event>
<event>
 4    2  0.3964208E+000  0.1944153E+03  0.7546771E-02  0.1154538E+00
         21   -1    0    0  503  502  0.00000000000E+00  0.00000000000E+00  0.41439653702E+03  0.41439653702E+03  0.00000000000E+00 0. -1.
         21   -1    0    0  501  503 -0.00000000000E+00 -0.00000000000E+00 -0.10995591168E+03  0.10995591168E+03  0.00000000000E+00 0. -1.
          6    1    1    2  501    0  0.13422820368E+02  0.87682067885E+02  0.43969428062E+02  0.19932543174E+03  0.17300000000E+03 0. -1.
         -6    1    1    2    0  502 -0.13422820368E+02 -0.87682067885E+02  0.26047119728E+03  0.32502701695E+03  0.17300000000E+03 0. -1.
<mgrwt>
<rscale>  2 0.19441532E+03</rscale>
<asrwt>0</asrwt>
<pdfrwt beam="1">  1       21 0.63753312E-01 0.19441532E+03</pdfrwt>
<pdfrwt beam="2">  1       21 0.16916294E-01 0.19441532E+03</pdfrwt>
<totfact> 0.71509817E+04</totfact>
</mgrwt>
</event>
<event>
 4    2  0.3964208E+000  0.2107033E+03  0.7546771E-02  0.1141010E+00
         21   -1    0    0  501  502  0.00000000000E+00  0.00000000000E+00  0.38367376074E+03  0.38367376074E+03  0.00000000000E+00 0. -1.
         21   -1    0    0  502  503 -0.00000000000E+00 -0.00000000000E+00 -0.11785608742E+03  0.11785608742E+03  0.00000000000E+00 0.  1.
          6    1    1    2  501    0  0.71760151057E+01 -0.12006412585E+03  0.99090600049E+02  0.23284079653E+03  0.17300000000E+03 0. -1.
         -6    1    1    2    0  503 -0.71760151057E+01  0.12006412585E+03  0.16672707327E+03  0.26868905164E+03  0.17300000000E+03 0. -1.
<mgrwt>
<rscale>  2 0.21070332E+03</rscale>
<asrwt>0</asrwt>
<pdfrwt beam="1">  1       21 0.59026732E-01 0.21070332E+03</pdfrwt>
<pdfrwt beam="2">  1       21 0.18131706E-01 0.21070332E+03</pdfrwt>
<totfact> 0.73749314E+04</totfact>
</mgrwt>
</event>
<event>
 4    2  0.3964208E+000  0.1792306E+03  0.7546771E-02  0.1168550E+00
         21   -1    0    0  503  502  0.00000000000E+00  0.00000000000E+00  0.11905848724E+04  0.11905848724E+04  0.00000000000E+00 0. -1.
         21   -1    0    0  501  503 -0.00000000000E+00 -0.00000000000E+00 -0.49736753061E+02  0.49736753061E+02  0.00000000000E+00 0. -1.
          6    1    1    2  501    0  0.46273577078E+02 -0.73057828271E+01  0.15094757396E+03  0.23432624369E+03  0.17300000000E+03 0. -1.
         -6    1    1    2    0  502 -0.46273577078E+02  0.73057828271E+01  0.98990054542E+03  0.10059953818E+04  0.17300000000E+03 0. -1.
<mgrwt>
<rscale>  2 0.17923063E+03</rscale>
<asrwt>0</asrwt>
<pdfrwt beam="1">  1       21 0.18316688E+00 0.17923063E+03</pdfrwt>
<pdfrwt beam="2">  1       21 0.76518091E-02 0.17923063E+03</pdfrwt>
<totfact> 0.22674524E+04</totfact>
</mgrwt>
</event>
<event>
 4    2  0.3964208E+000  0.1979699E+03  0.7546771E-02  0.1151463E+00
         21   -1    0    0  503  502  0.00000000000E+00  0.00000000000E+00  0.13360941465E+03  0.13360941465E+03  0.00000000000E+00 0. -1.
         21   -1    0    0  501  503 -0.00000000000E+00 -0.00000000000E+00 -0.29345283073E+03  0.29345283073E+03  0.00000000000E+00 0.  1.
          6    1    1    2  501    0  0.51207167697E+02  0.81491859740E+02 -0.84230350716E+02  0.21514378729E+03  0.17300000000E+03 0.  1.
         -6    1    1    2    0  502 -0.51207167697E+02 -0.81491859740E+02 -0.75613065354E+02  0.21191845809E+03  0.17300000000E+03 0.  1.
<mgrwt>
<rscale>  2 0.19796994E+03</rscale>
<asrwt>0</asrwt>
<pdfrwt beam="1">  1       21 0.20555295E-01 0.19796994E+03</pdfrwt>
<pdfrwt beam="2">  1       21 0.45146589E-01 0.19796994E+03</pdfrwt>
<totfact> 0.10301114E+05</totfact>
</mgrwt>
</event>
<event>
 4    2  0.3964208E+000  0.2513608E+03  0.7546771E-02  0.1112448E+00
         21   -1    0    0  501  502  0.00000000000E+00  0.00000000000E+00  0.15803972731E+03  0.15803972731E+03  0.00000000000E+00 0.  1.
         21   -1    0    0  502  503 -0.00000000000E+00 -0.00000000000E+00 -0.39983634321E+03  0.39983634321E+03  0.00000000000E+00 0. -1.
          6    1    1    2  501    0  0.16003411667E+03 -0.87420498649E+02 -0.12399032626E+03  0.28027818875E+03  0.17300000000E+03 0.  1.
         -6    1    1    2    0  503 -0.16003411667E+03  0.87420498649E+02 -0.11780628964E+03  0.27759788176E+03  0.17300000000E+03 0. -1.
<mgrwt>
<rscale>  2 0.25136082E+03</rscale>
<asrwt>0</asrwt>
<pdfrwt beam="1">  1       21 0.24313805E-01 0.25136082E+03</pdfrwt>
<pdfrwt beam="2">  1       21 0.61513282E-01 0.25136082E+03</pdfrwt>
<totfact> 0.38147506E+04</totfact>
</mgrwt>
</event>
<event>
 4    2  0.3964208E+000  0.1787351E+03  0.7546771E-02  0.1169033E+00
         21   -1    0    0  503  502  0.00000000000E+00  0.00000000000E+00  0.48487278981E+03  0.48487278981E+03  0.00000000000E+00 0. -1.
         21   -1    0    0  501  503 -0.00000000000E+00 -0.00000000000E+00 -0.71065741550E+02  0.71065741550E+02  0.00000000000E+00 0. -1.
          6    1    1    2  501    0 -0.22509013328E+01 -0.44857377197E+02  0.28194949909E+03  0.33382895453E+03  0.17300000000E+03 0. -1.
         -6    1    1    2    0  502  0.22509013328E+01  0.44857377197E+02  0.13185754917E+03  0.22210957683E+03  0.17300000000E+03 0. -1.
<mgrwt>
<rscale>  2 0.17873514E+03</rscale>
<asrwt>0</asrwt>
<pdfrwt beam="1">  1       21 0.74595812E-01 0.17873514E+03</pdfrwt>
<pdfrwt beam="2">  1       21 0.10933191E-01 0.17873514E+03</pdfrwt>
<totfact> 0.11207169E+05</totfact>
</mgrwt>
</event>
<event>
 4    2  0.3964208E+000  0.1768615E+03  0.7546771E-02  0.1170875E+00
         21   -1    0    0  501  502  0.00000000000E+00  0.00000000000E+00  0.18460585626E+03  0.18460585626E+03  0.00000000000E+00 0.  1.
         21   -1    0    0  502  503 -0.00000000000E+00 -0.00000000000E+00 -0.22513621463E+03  0.22513621463E+03  0.00000000000E+00 0.  1.
          6    1    1    2  501    0  0.79280177441E+01 -0.35890797783E+02  0.81632093119E+02  0.19479168734E+03  0.17300000000E+03 0.  1.
         -6    1    1    2    0  503 -0.79280177441E+01  0.35890797783E+02 -0.12216245149E+03  0.21495038354E+03  0.17300000000E+03 0.  1.
<mgrwt>
<rscale>  2 0.17686154E+03</rscale>
<asrwt>0</asrwt>
<pdfrwt beam="1">  1       21 0.28400901E-01 0.17686154E+03</pdfrwt>
<pdfrwt beam="2">  1       21 0.34636341E-01 0.17686154E+03</pdfrwt>
<totfact> 0.95805813E+04</totfact>
</mgrwt>
</event>
<event>
 4    2  0.3964208E+000  0.2409533E+03  0.7546771E-02  0.1119159E+00
         21   -1    0    0  503  502  0.00000000000E+00  0.00000000000E+00  0.17052074469E+03  0.17052074469E+03  0.00000000000E+00 0.  1.
         21   -1    0    0  501  503 -0.00000000000E+00 -0.00000000000E+00 -0.59432583986E+03  0.59432583986E+03  0.00000000000E+00 0. -1.
          6    1    1    2  501    0  0.13635066381E+03  0.97662738859E+02 -0.46183290290E+03  0.52091087941E+03  0.17300000000E+03 0. -1.
         -6    1    1    2    0  502 -0.13635066381E+03 -0.97662738859E+02  0.38027807733E+02  0.24393570514E+03  0.17300000000E+03 0.  1.
<mgrwt>
<rscale>  2 0.24095334E+03</rscale>
<asrwt>0</asrwt>
<pdfrwt beam="1">  1       21 0.26233961E-01 0.24095334E+03</pdfrwt>
<pdfrwt beam="2">  1       21 0.91434745E-01 0.24095334E+03</pdfrwt>
<totfact> 0.13581101E+04</totfact>
</mgrwt>
</event>
<event>
 4    2  0.3964208E+000  0.2109047E+03  0.7546771E-02  0.1140852E+00
         21   -1    0    0  503  502  0.00000000000E+00  0.00000000000E+00  0.20638999190E+03  0.20638999190E+03  0.00000000000E+00 0. -1.
         21   -1    0    0  501  503 -0.00000000000E+00 -0.00000000000E+00 -0.21907150293E+03  0.21907150293E+03  0.00000000000E+00 0.  1.
          6    1    1    2  501    0  0.58740222045E+02  0.10536308571E+03  0.20752127793E+02  0.21192320384E+03  0.17300000000E+03 0.  1.
         -6    1    1    2    0  502 -0.58740222045E+02 -0.10536308571E+03 -0.33433638818E+02  0.21353829099E+03  0.17300000000E+03 0. -1.
<mgrwt>
<rscale>  2 0.21090470E+03</rscale>
<asrwt>0</asrwt>
<pdfrwt beam="1">  1       21 0.31752306E-01 0.21090470E+03</pdfrwt>
<pdfrwt beam="2">  1       21 0.33703308E-01 0.21090470E+03</pdfrwt>
<totfact> 0.80248393E+04</totfact>
</mgrwt>
</event>
<event>
 4    2  0.3964208E+000  0.2119854E+03  0.7546771E-02  0.1140003E+00
         21   -1    0    0  501  502  0.00000000000E+00  0.00000000000E+00  0.83417237305E+03  0.83417237305E+03  0.00000000000E+00 0. -1.
         21   -1    0    0  502  503 -0.00000000000E+00 -0.00000000000E+00 -0.53896015992E+02  0.53896015992E+02  0.00000000000E+00 0. -1.
          6    1    1    2  501    0  0.97821874317E+02 -0.73754162710E+02  0.38059377543E+03  0.43564827270E+03  0.17300000000E+03 0. -1.
         -6    1    1    2    0  503 -0.97821874317E+02  0.73754162710E+02  0.39968258163E+03  0.45242011634E+03  0.17300000000E+03 0. -1.
<mgrwt>
<rscale>  2 0.21198537E+03</rscale>
<asrwt>0</asrwt>
<pdfrwt beam="1">  1       21 0.12833420E+00 0.21198537E+03</pdfrwt>
<pdfrwt beam="2">  1       21 0.82916954E-02 0.21198537E+03</pdfrwt>
<totfact> 0.49826110E+04</totfact>
</mgrwt>
</event>
<event>
 4    2  0.3964208E+000  0.2166442E+03  0.7546771E-02  0.1136410E+00
         21   -1    0    0  503  502  0.00000000000E+00  0.00000000000E+00  0.14625223103E+03  0.14625223103E+03  0.00000000000E+00 0.  1.
         21   -1    0    0  501  503 -0.00000000000E+00 -0.00000000000E+00 -0.45554176595E+03  0.45554176595E+03  0.00000000000E+00 0.  1.
          6    1    1    2  501    0  0.11652736930E+03 -0.58541431345E+02 -0.31821992276E+03  0.38496577279E+03  0.17300000000E+03 0.  1.
         -6    1    1    2    0  502 -0.11652736930E+03  0.58541431345E+02  0.89303878382E+01  0.21682822419E+03  0.17300000000E+03 0.  1.
<mgrwt>
<rscale>  2 0.21664424E+03</rscale>
<asrwt>0</asrwt>
<pdfrwt beam="1">  1       21 0.22500343E-01 0.21664424E+03</pdfrwt>
<pdfrwt beam="2">  1       21 0.70083349E-01 0.21664424E+03</pdfrwt>
<totfact> 0.33759595E+04</totfact>
</mgrwt>
</event>
<event>
 4    2  0.3964208E+000  0.2061894E+03  0.7546771E-02  0.1144620E+00
         21   -1    0    0  503  502  0.00000000000E+00  0.00000000000E+00  0.29102321111E+03  0.29102321111E+03  0.00000000000E+00 0.  1.
         21   -1    0    0  501  503 -0.00000000000E+00 -0.00000000000E+00 -0.18467907183E+03  0.18467907183E+03  0.00000000000E+00 0.  1.
          6    1    1    2  501    0 -0.11203066256E+03  0.58475365556E+01  0.16190420375E+03  0.26215841438E+03  0.17300000000E+03 0.  1.
         -6    1    1    2    0  502  0.11203066256E+03 -0.58475365556E+01 -0.55560064469E+02  0.21354386856E+03  0.17300000000E+03 0.  1.
<mgrwt>
<rscale>  2 0.20618939E+03</rscale>
<asrwt>0</asrwt>
<pdfrwt beam="1">  1       21 0.44772802E-01 0.20618939E+03</pdfrwt>
<pdfrwt beam="2">  1       21 0.28412165E-01 0.20618939E+03</pdfrwt>
<totfact> 0.56348742E+04</totfact>
</mgrwt>
</event>
<event>
 4    2  0.3964208E+000  0.2348090E+03  0.7546771E-02  0.1123300E+00
         21   -1    0    0  503  502  0.00000000000E+00  0.00000000000E+00  0.22172839710E+03  0.22172839710E+03  0.00000000000E+00 0.  1.
         21   -1    0    0  501  503 -0.00000000000E+00 -0.00000000000E+00 -0.28355243623E+03  0.28355243623E+03  0.00000000000E+00 0.  1.
          6    1    1    2  501    0 -0.13799837292E+02 -0.15816391224E+03 -0.11953453110E+03  0.26348389470E+03  0.17300000000E+03 0.  1.
         -6    1    1    2    0  502  0.13799837292E+02  0.15816391224E+03  0.57710491963E+02  0.24179693862E+03  0.17300000000E+03 0.  1.
<mgrwt>
<rscale>  2 0.23480898E+03</rscale>
<asrwt>0</asrwt>
<pdfrwt beam="1">  1       21 0.34112061E-01 0.23480898E+03</pdfrwt>
<pdfrwt beam="2">  1       21 0.43623452E-01 0.23480898E+03</pdfrwt>
<totfact> 0.40977641E+04</totfact>
</mgrwt>
</event>
<event>
 4    2  0.3964208E+000  0.1738123E+03  0.7546771E-02  0.1173930E+00
         21   -1    0    0  501  502  0.00000000000E+00  0.00000000000E+00  0.11574088644E+03  0.11574088644E+03  0.00000000000E+00 0. -1.
         21   -1    0    0  502  503 -0.00000000000E+00 -0.00000000000E+00 -0.26102458262E+03  0.26102458262E+03  0.00000000000E+00 0. -1.
          6    1    1    2  501    0  0.73631119162E+01 -0.15083539196E+02 -0.71884722408E+02  0.18809078097E+03  0.17300000000E+03 0.  1.
         -6    1    1    2    0  503 -0.73631119162E+01  0.15083539196E+02 -0.73398973780E+02  0.18867468808E+03  0.17300000000E+03 0.  1.
<mgrwt>
<rscale>  2 0.17381234E+03</rscale>
<asrwt>0</asrwt>
<pdfrwt beam="1">  1       21 0.17806290E-01 0.17381234E+03</pdfrwt>
<pdfrwt beam="2">  1       21 0.40157628E-01 0.17381234E+03</pdfrwt>
<totfact> 0.17215896E+05</totfact>
</mgrwt>
</event>
<event>
 4    2  0.3964208E+000  0.6296176E+03  0.7546771E-02  0.9845795E-01
         21   -1    0    0  503  502  0.00000000000E+00  0.00000000000E+00  0.43923381389E+03  0.43923381389E+03  0.00000000000E+00 0.  1.
         21   -1    0    0  501  503 -0.00000000000E+00 -0.00000000000E+00 -0.11550619350E+04  0.11550619350E+04  0.00000000000E+00 0.  1.
          6    1    1    2  501    0  0.11108803285E+03 -0.59510397872E+03 -0.73064982076E+03  0.96450373618E+03  0.17300000000E+03 0.  1.
         -6    1    1    2    0  502 -0.11108803285E+03  0.59510397872E+03  0.14821699628E+02  0.62979201274E+03  0.17300000000E+03 0.  1.
<mgrwt>
<rscale>  2 0.62961758E+03</rscale>
<asrwt>0</asrwt>
<pdfrwt beam="1">  1       21 0.67574435E-01 0.62961758E+03</pdfrwt>
<pdfrwt beam="2">  1       21 0.17770183E+00 0.62961758E+03</pdfrwt>
<totfact> 0.28740286E+02</totfact>
</mgrwt>
</event>
<event>
 4    2  0.3964208E+000  0.1885999E+03  0.7546771E-02  0.1159730E+00
         21   -1    0    0  501  502  0.00000000000E+00  0.00000000000E+00  0.38649630213E+03  0.38649630213E+03  0.00000000000E+00 0.  1.
         21   -1    0    0  502  503 -0.00000000000E+00 -0.00000000000E+00 -0.23985084579E+03  0.23985084579E+03  0.00000000000E+00 0.  1.
          6    1    1    2  501    0  0.34117137320E+01 -0.75028597249E+02  0.31917813028E+03  0.37073522768E+03  0.17300000000E+03 0.  1.
         -6    1    1    2    0  503 -0.34117137320E+01  0.75028597249E+02 -0.17253267393E+03  0.25561192024E+03  0.17300000000E+03 0.  1.
<mgrwt>
<rscale>  2 0.18859992E+03</rscale>
<asrwt>0</asrwt>
<pdfrwt beam="1">  1       21 0.59460970E-01 0.18859992E+03</pdfrwt>
<pdfrwt beam="2">  1       21 0.36900130E-01 0.18859992E+03</pdfrwt>
<totfact> 0.18758233E+04</totfact>
</mgrwt>
</event>
<event>
 4    2  0.3964208E+000  0.2131050E+03  0.7546771E-02  0.1139131E+00
         21   -1    0    0  503  502  0.00000000000E+00  0.00000000000E+00  0.15906555168E+03  0.15906555168E+03  0.00000000000E+00 0.  1.
         21   -1    0    0  501  503 -0.00000000000E+00 -0.00000000000E+00 -0.39961049416E+03  0.39961049416E+03  0.00000000000E+00 0.  1.
          6    1    1    2  501    0  0.12636211840E+02 -0.12379441321E+03 -0.26954099491E+03  0.34360744830E+03  0.17300000000E+03 0.  1.
         -6    1    1    2    0  502 -0.12636211840E+02  0.12379441321E+03  0.28996052425E+02  0.21506859754E+03  0.17300000000E+03 0.  1.
<mgrwt>
<rscale>  2 0.21310498E+03</rscale>
<asrwt>0</asrwt>
<pdfrwt beam="1">  1       21 0.24471624E-01 0.21310498E+03</pdfrwt>
<pdfrwt beam="2">  1       21 0.61478537E-01 0.21310498E+03</pdfrwt>
<totfact> 0.38387501E+04</totfact>
</mgrwt>
</event>
<event>
 4    2  0.3964208E+000  0.1822025E+03  0.7546771E-02  0.1165688E+00
         21   -1    0    0  501  502  0.00000000000E+00  0.00000000000E+00  0.22419588846E+02  0.22419588846E+02  0.00000000000E+00 0. -1.
         21   -1    0    0  502  503 -0.00000000000E+00 -0.00000000000E+00 -0.18476807469E+04  0.18476807469E+04  0.00000000000E+00 0. -1.
          6    1    1    2  501    0  0.56990135733E+02 -0.45703835499E+01 -0.49593910694E+03  0.52834965862E+03  0.17300000000E+03 0. -1.
         -6    1    1    2    0  503 -0.56990135733E+02  0.45703835499E+01 -0.13293220511E+04  0.13417506771E+04  0.17300000000E+03 0. -1.
<mgrwt>
<rscale>  2 0.18220254E+03</rscale>
<asrwt>0</asrwt>
<pdfrwt beam="1">  1       21 0.34491658E-02 0.18220254E+03</pdfrwt>
<pdfrwt beam="2">  1       21 0.28425872E+00 0.18220254E+03</pdfrwt>
<totfact> 0.21325027E+04</totfact>
</mgrwt>
</event>
<event>
 4    2  0.3964208E+000  0.1963243E+03  0.7546771E-02  0.1152878E+00
         21   -1    0    0  501  502  0.00000000000E+00  0.00000000000E+00  0.17308183084E+03  0.17308183084E+03  0.00000000000E+00 0. -1.
         21   -1    0    0  502  503 -0.00000000000E+00 -0.00000000000E+00 -0.22336920228E+03  0.22336920228E+03  0.00000000000E+00 0. -1.
          6    1    1    2  501    0  0.43792572596E+01 -0.92709562187E+02 -0.14196641304E+02  0.19683695141E+03  0.17300000000E+03 0. -1.
         -6    1    1    2    0  503 -0.43792572596E+01  0.92709562187E+02 -0.36090730142E+02  0.19961408171E+03  0.17300000000E+03 0. -1.
<mgrwt>
<rscale>  2 0.19632433E+03</rscale>
<asrwt>0</asrwt>
<pdfrwt beam="1">  1       21 0.26627974E-01 0.19632433E+03</pdfrwt>
<pdfrwt beam="2">  1       21 0.34364493E-01 0.19632433E+03</pdfrwt>
<totfact> 0.10938298E+05</totfact>
</mgrwt>
</event>
<event>
 4    2  0.3964208E+000  0.1804870E+03  0.7546771E-02  0.1167333E+00
         21   -1    0    0  503  502  0.00000000000E+00  0.00000000000E+00  0.40210249359E+03  0.40210249359E+03  0.00000000000E+00 0. -1.
         21   -1    0    0  501  503 -0.00000000000E+00 -0.00000000000E+00 -0.10905033828E+03  0.10905033828E+03  0.00000000000E+00 0. -1.
          6    1    1    2  501    0  0.47448359266E+02 -0.19879534549E+02  0.16934910866E+02  0.18127971176E+03  0.17300000000E+03 0. -1.
         -6    1    1    2    0  502 -0.47448359266E+02  0.19879534549E+02  0.27611724444E+03  0.32987312011E+03  0.17300000000E+03 0. -1.
<mgrwt>
<rscale>  2 0.18048696E+03</rscale>
<asrwt>0</asrwt>
<pdfrwt beam="1">  1       21 0.61861922E-01 0.18048696E+03</pdfrwt>
<pdfrwt beam="2">  1       21 0.16776975E-01 0.18048696E+03</pdfrwt>
<totfact> 0.77944650E+04</totfact>
</mgrwt>
</event>
<event>
 4    2  0.3964208E+000  0.2088785E+03  0.7546771E-02  0.1142457E+00
         21   -1    0    0  501  502  0.00000000000E+00  0.00000000000E+00  0.20698697083E+03  0.20698697083E+03  0.00000000000E+00 0.  1.
         21   -1    0    0  502  503 -0.00000000000E+00 -0.00000000000E+00 -0.21129452168E+03  0.21129452168E+03  0.00000000000E+00 0.  1.
          6    1    1    2  501    0 -0.75134817903E+02  0.89755107541E+02 -0.12400918420E+02  0.20924627349E+03  0.17300000000E+03 0. -1.
         -6    1    1    2    0  503  0.75134817903E+02 -0.89755107541E+02  0.80933675736E+01  0.20903521902E+03  0.17300000000E+03 0. -1.
<mgrwt>
<rscale>  2 0.20887848E+03</rscale>
<asrwt>0</asrwt>
<pdfrwt beam="1">  1       21 0.31844149E-01 0.20887848E+03</pdfrwt>
<pdfrwt beam="2">  1       21 0.32506850E-01 0.20887848E+03</pdfrwt>
<totfact> 0.85771475E+04</totfact>
</mgrwt>
</event>
<event>
 4    2  0.3964208E+000  0.2933263E+03  0.7546771E-02  0.1088625E+00
         21   -1    0    0  501  502  0.00000000000E+00  0.00000000000E+00  0.76093535701E+02  0.76093535701E+02  0.00000000000E+00 0.  1.
         21   -1    0    0  502  503 -0.00000000000E+00 -0.00000000000E+00 -0.11392161185E+04  0.11392161185E+04  0.00000000000E+00 0. -1.
          6    1    1    2  501    0  0.22922453410E+01 -0.23686724725E+03 -0.58404320621E+03  0.65356469758E+03  0.17300000000E+03 0.  1.
         -6    1    1    2    0  503 -0.22922453410E+01  0.23686724725E+03 -0.47907937656E+03  0.56174495659E+03  0.17300000000E+03 0.  1.
<mgrwt>
<rscale>  2 0.29332635E+03</rscale>
<asrwt>0</asrwt>
<pdfrwt beam="1">  1       21 0.11706699E-01 0.29332635E+03</pdfrwt>
<pdfrwt beam="2">  1       21 0.17526400E+00 0.29332635E+03</pdfrwt>
<totfact> 0.11271449E+04</totfact>
</mgrwt>
</event>
<event>
 4    2  0.3964208E+000  0.2192121E+03  0.7546771E-02  0.1134472E+00
         21   -1    0    0  503  502  0.00000000000E+00  0.00000000000E+00  0.68382407369E+02  0.68382407369E+02  0.00000000000E+00 0. -1.
         21   -1    0    0  501  503 -0.00000000000E+00 -0.00000000000E+00 -0.18515811047E+04  0.18515811047E+04  0.00000000000E+00 0. -1.
          6    1    1    2  501    0  0.65218913851E+02 -0.11777711164E+03 -0.16477783759E+04  0.16622958614E+04  0.17300000000E+03 0. -1.
         -6    1    1    2    0  502 -0.65218913851E+02  0.11777711164E+03 -0.13542032146E+03  0.25766765070E+03  0.17300000000E+03 0. -1.
<mgrwt>
<rscale>  2 0.21921212E+03</rscale>
<asrwt>0</asrwt>
<pdfrwt beam="1">  1       21 0.10520370E-01 0.21921212E+03</pdfrwt>
<pdfrwt beam="2">  1       21 0.28485864E+00 0.21921212E+03</pdfrwt>
<totfact> 0.30041476E+03</totfact>
</mgrwt>
</event>
<event>
 4    2  0.3964208E+000  0.2433336E+03  0.7546771E-02  0.1117592E+00
         21   -1    0    0  501  502  0.00000000000E+00  0.00000000000E+00  0.15154267349E+03  0.15154267349E+03  0.00000000000E+00 0. -1.
         21   -1    0    0  502  503 -0.00000000000E+00 -0.00000000000E+00 -0.39154737846E+03  0.39154737846E+03  0.00000000000E+00 0. -1.
          6    1    1    2  501    0  0.12285470142E+03 -0.11911734945E+03 -0.10754312455E+03  0.26603899007E+03  0.17300000000E+03 0. -1.
         -6    1    1    2    0  503 -0.12285470142E+03  0.11911734945E+03 -0.13246158042E+03  0.27705106188E+03  0.17300000000E+03 0. -1.
<mgrwt>
<rscale>  2 0.24333356E+03</rscale>
<asrwt>0</asrwt>
<pdfrwt beam="1">  1       21 0.23314258E-01 0.24333356E+03</pdfrwt>
<pdfrwt beam="2">  1       21 0.60238056E-01 0.24333356E+03</pdfrwt>
<totfact> 0.43398462E+04</totfact>
</mgrwt>
</event>
<event>
 4    2  0.3964208E+000  0.1905336E+03  0.7546771E-02  0.1157981E+00
         21   -1    0    0  501  502  0.00000000000E+00  0.00000000000E+00  0.12007395957E+03  0.12007395957E+03  0.00000000000E+00 0. -1.
         21   -1    0    0  502  503 -0.00000000000E+00 -0.00000000000E+00 -0.34271669395E+03  0.34271669395E+03  0.00000000000E+00 0.  1.
          6    1    1    2  501    0  0.36219340787E+02 -0.71149318384E+02 -0.19074624897E+03  0.26960563356E+03  0.17300000000E+03 0.  1.
         -6    1    1    2    0  503 -0.36219340787E+02  0.71149318384E+02 -0.31896485409E+02  0.19318501995E+03  0.17300000000E+03 0.  1.
<mgrwt>
<rscale>  2 0.19053364E+03</rscale>
<asrwt>0</asrwt>
<pdfrwt beam="1">  1       21 0.18472917E-01 0.19053364E+03</pdfrwt>
<pdfrwt beam="2">  1       21 0.52725644E-01 0.19053364E+03</pdfrwt>
<totfact> 0.91321259E+04</totfact>
</mgrwt>
</event>
<event>
 4    2  0.3964208E+000  0.1741998E+03  0.7546771E-02  0.1173538E+00
         21   -1    0    0  501  502  0.00000000000E+00  0.00000000000E+00  0.20159573495E+03  0.20159573495E+03  0.00000000000E+00 0.  1.
         21   -1    0    0  502  503 -0.00000000000E+00 -0.00000000000E+00 -0.52232506650E+03  0.52232506650E+03  0.00000000000E+00 0.  1.
          6    1    1    2  501    0 -0.14798718798E+02 -0.14056468127E+02  0.14501789507E+03  0.22666225152E+03  0.17300000000E+03 0.  1.
         -6    1    1    2    0  503  0.14798718798E+02  0.14056468127E+02 -0.46574722662E+03  0.49725854993E+03  0.17300000000E+03 0.  1.
<mgrwt>
<rscale>  2 0.17419985E+03</rscale>
<asrwt>0</asrwt>
<pdfrwt beam="1">  1       21 0.31014729E-01 0.17419985E+03</pdfrwt>
<pdfrwt beam="2">  1       21 0.80357701E-01 0.17419985E+03</pdfrwt>
<totfact> 0.13764307E+04</totfact>
</mgrwt>
</event>
<event>
 4    2  0.3964208E+000  0.1771340E+03  0.7546771E-02  0.1170606E+00
         21   -1    0    0  503  502  0.00000000000E+00  0.00000000000E+00  0.99510262246E+02  0.99510262246E+02  0.00000000000E+00 0.  1.
         21   -1    0    0  501  503 -0.00000000000E+00 -0.00000000000E+00 -0.32473384895E+03  0.32473384895E+03  0.00000000000E+00 0. -1.
          6    1    1    2  501    0 -0.36301362315E+02  0.11387109537E+02 -0.76473695358E+02  0.19293698777E+03  0.17300000000E+03 0.  1.
         -6    1    1    2    0  502  0.36301362315E+02 -0.11387109537E+02 -0.14874989134E+03  0.23130712342E+03  0.17300000000E+03 0. -1.
<mgrwt>
<rscale>  2 0.17713400E+03</rscale>
<asrwt>0</asrwt>
<pdfrwt beam="1">  1       21 0.15309271E-01 0.17713400E+03</pdfrwt>
<pdfrwt beam="2">  1       21 0.49959053E-01 0.17713400E+03</pdfrwt>
<totfact> 0.14501001E+05</totfact>
</mgrwt>
</event>
<event>
 4    2  0.3964208E+000  0.2014117E+03  0.7546771E-02  0.1148553E+00
         21   -1    0    0  503  502  0.00000000000E+00  0.00000000000E+00  0.32113471657E+03  0.32113471657E+03  0.00000000000E+00 0.  1.
         21   -1    0    0  501  503 -0.00000000000E+00 -0.00000000000E+00 -0.86614346800E+03  0.86614346800E+03  0.00000000000E+00 0.  1.
          6    1    1    2  501    0 -0.10192634377E+03  0.15770068708E+02 -0.82114854769E+03  0.84548897804E+03  0.17300000000E+03 0.  1.
         -6    1    1    2    0  502  0.10192634377E+03 -0.15770068708E+02  0.27613979626E+03  0.34178920653E+03  0.17300000000E+03 0.  1.
<mgrwt>
<rscale>  2 0.20141170E+03</rscale>
<asrwt>0</asrwt>
<pdfrwt beam="1">  1       21 0.49405341E-01 0.20141170E+03</pdfrwt>
<pdfrwt beam="2">  1       21 0.13325284E+00 0.20141170E+03</pdfrwt>
<totfact> 0.15729652E+03</totfact>
</mgrwt>
</event>
<event>
 4    2  0.3964208E+000  0.1863975E+03  0.7546771E-02  0.1161751E+00
         21   -1    0    0  501  502  0.00000000000E+00  0.00000000000E+00  0.10001234122E+03  0.10001234122E+03  0.00000000000E+00 0.  1.
         21   -1    0    0  502  503 -0.00000000000E+00 -0.00000000000E+00 -0.36868547251E+03  0.36868547251E+03  0.00000000000E+00 0.  1.
          6    1    1    2  501    0 -0.55400805666E+02  0.41782438770E+02 -0.19064892019E+03  0.26662901610E+03  0.17300000000E+03 0.  1.
         -6    1    1    2    0  503  0.55400805666E+02 -0.41782438770E+02 -0.78024211098E+02  0.20206879763E+03  0.17300000000E+03 0.  1.
<mgrwt>
<rscale>  2 0.18639748E+03</rscale>
<asrwt>0</asrwt>
<pdfrwt beam="1">  1       21 0.15386514E-01 0.18639748E+03</pdfrwt>
<pdfrwt beam="2">  1       21 0.56720842E-01 0.18639748E+03</pdfrwt>
<totfact> 0.10967936E+05</totfact>
</mgrwt>
</event>
<event>
 4    2  0.3964208E+000  0.1855312E+03  0.7546771E-02  0.1162555E+00
         21   -1    0    0  501  502  0.00000000000E+00  0.00000000000E+00  0.31196403629E+03  0.31196403629E+03  0.00000000000E+00 0. -1.
         21   -1    0    0  502  503 -0.00000000000E+00 -0.00000000000E+00 -0.11664738909E+03  0.11664738909E+03  0.00000000000E+00 0. -1.
          6    1    1    2  501    0  0.60408804118E+02  0.29044649914E+02  0.14749553824E+03  0.23701634776E+03  0.17300000000E+03 0.  1.
         -6    1    1    2    0  503 -0.60408804118E+02 -0.29044649914E+02  0.47821108960E+02  0.19159507761E+03  0.17300000000E+03 0.  1.
<mgrwt>
<rscale>  2 0.18553117E+03</rscale>
<asrwt>0</asrwt>
<pdfrwt beam="1">  1       21 0.47994467E-01 0.18553117E+03</pdfrwt>
<pdfrwt beam="2">  1       21 0.17945752E-01 0.18553117E+03</pdfrwt>
<totfact> 0.11743207E+05</totfact>
</mgrwt>
</event>
<event>
 4    2  0.3964208E+000  0.1861604E+03  0.7546771E-02  0.1161971E+00
         21   -1    0    0  501  502  0.00000000000E+00  0.00000000000E+00  0.12824958329E+04  0.12824958329E+04  0.00000000000E+00 0. -1.
         21   -1    0    0  502  503 -0.00000000000E+00 -0.00000000000E+00 -0.38956172312E+02  0.38956172312E+02  0.00000000000E+00 0.  1.
          6    1    1    2  501    0  0.15969687806E+02  0.66870587991E+02  0.98747233522E+03  0.10048668167E+04  0.17300000000E+03 0. -1.
         -6    1    1    2    0  503 -0.15969687806E+02 -0.66870587991E+02  0.25606732535E+03  0.31658518851E+03  0.17300000000E+03 0.  1.
<mgrwt>
<rscale>  2 0.18616043E+03</rscale>
<asrwt>0</asrwt>
<pdfrwt beam="1">  1       21 0.19730702E+00 0.18616043E+03</pdfrwt>
<pdfrwt beam="2">  1       21 0.59932583E-02 0.18616043E+03</pdfrwt>
<totfact> 0.27736164E+04</totfact>
</mgrwt>
</event>
<event>
 4    2  0.3964208E+000  0.1860803E+03  0.7546771E-02  0.1162045E+00
         21   -1    0    0  503  502  0.00000000000E+00  0.00000000000E+00  0.47260837874E+03  0.47260837874E+03  0.00000000000E+00 0. -1.
         21   -1    0    0  501  503 -0.00000000000E+00 -0.00000000000E+00 -0.78562918506E+02  0.78562918506E+02  0.00000000000E+00 0. -1.
          6    1    1    2  501    0 -0.62458994177E+02 -0.28209115662E+02  0.12546101889E+03  0.22442448044E+03  0.17300000000E+03 0. -1.
         -6    1    1    2    0  502  0.62458994177E+02  0.28209115662E+02  0.26858444135E+03  0.32674681681E+03  0.17300000000E+03 0. -1.
<mgrwt>
<rscale>  2 0.18608031E+03</rscale>
<asrwt>0</asrwt>
<pdfrwt beam="1">  1       21 0.72708980E-01 0.18608031E+03</pdfrwt>
<pdfrwt beam="2">  1       21 0.12086603E-01 0.18608031E+03</pdfrwt>
<totfact> 0.98946186E+04</totfact>
</mgrwt>
</event>
<event>
 4    2  0.3964208E+000  0.1895222E+03  0.7546771E-02  0.1158893E+00
         21   -1    0    0  503  502  0.00000000000E+00  0.00000000000E+00  0.19331227491E+02  0.19331227491E+02  0.00000000000E+00 0.  1.
         21   -1    0    0  501  503 -0.00000000000E+00 -0.00000000000E+00 -0.24414234529E+04  0.24414234529E+04  0.00000000000E+00 0.  1.
          6    1    1    2  501    0 -0.54333000459E+02  0.55114391132E+02 -0.18124754851E+04  0.18223572798E+04  0.17300000000E+03 0.  1.
         -6    1    1    2    0  502  0.54333000459E+02 -0.55114391132E+02 -0.60961674025E+03  0.63839740056E+03  0.17300000000E+03 0.  1.
<mgrwt>
<rscale>  2 0.18952222E+03</rscale>
<asrwt>0</asrwt>
<pdfrwt beam="1">  1       21 0.29740329E-02 0.18952222E+03</pdfrwt>
<pdfrwt beam="2">  1       21 0.37560387E+00 0.18952222E+03</pdfrwt>
<totfact> 0.79249135E+03</totfact>
</mgrwt>
</event>
<event>
 4    2  0.3964208E+000  0.1743828E+03  0.7546771E-02  0.1173353E+00
         21   -1    0    0  503  502  0.00000000000E+00  0.00000000000E+00  0.22231808383E+04  0.22231808383E+04  0.00000000000E+00 0. -1.
         21   -1    0    0  501  503 -0.00000000000E+00 -0.00000000000E+00 -0.17118440115E+02  0.17118440115E+02  0.00000000000E+00 0. -1.
          6    1    1    2  501    0  0.17467610680E+02  0.13238314206E+02  0.60088405719E+03  0.62567645039E+03  0.17300000000E+03 0. -1.
         -6    1    1    2    0  502 -0.17467610680E+02 -0.13238314206E+02  0.16051783410E+04  0.16146228280E+04  0.17300000000E+03 0. -1.
<mgrwt>
<rscale>  2 0.17438283E+03</rscale>
<asrwt>0</asrwt>
<pdfrwt beam="1">  1       21 0.34202759E+00 0.17438283E+03</pdfrwt>
<pdfrwt beam="2">  1       21 0.26336079E-02 0.17438283E+03</pdfrwt>
<totfact> 0.15615963E+04</totfact>
</mgrwt>
</event>
<event>
 4    2  0.3964208E+000  0.1926442E+03  0.7546771E-02  0.1156098E+00
         21   -1    0    0  503  502  0.00000000000E+00  0.00000000000E+00  0.73414587905E+03  0.73414587905E+03  0.00000000000E+00 0.  1.
         21   -1    0    0  501  503 -0.00000000000E+00 -0.00000000000E+00 -0.50811336137E+02  0.50811336137E+02  0.00000000000E+00 0. -1.
          6    1    1    2  501    0  0.83368031519E+02 -0.15249546874E+02  0.36976285764E+03  0.41693686362E+03  0.17300000000E+03 0. -1.
         -6    1    1    2    0  502 -0.83368031519E+02  0.15249546874E+02  0.31357168528E+03  0.36802035157E+03  0.17300000000E+03 0. -1.
<mgrwt>
<rscale>  2 0.19264417E+03</rscale>
<asrwt>0</asrwt>
<pdfrwt beam="1">  1       21 0.11294551E+00 0.19264417E+03</pdfrwt>
<pdfrwt beam="2">  1       21 0.78171292E-02 0.19264417E+03</pdfrwt>
<totfact> 0.76530041E+04</totfact>
</mgrwt>
</event>
<event>
 4    2  0.3964208E+000  0.1935355E+03  0.7546771E-02  0.1155311E+00
         21   -1    0    0  501  502  0.00000000000E+00  0.00000000000E+00  0.38367882868E+02  0.38367882868E+02  0.00000000000E+00 0. -1.
         21   -1    0    0  502  503 -0.00000000000E+00 -0.00000000000E+00 -0.16150545767E+04  0.16150545767E+04  0.00000000000E+00 0. -1.
          6    1    1    2  501    0  0.45768113607E+02 -0.73703906855E+02 -0.26840710795E+03  0.33090536670E+03  0.17300000000E+03 0. -1.
         -6    1    1    2    0  503 -0.45768113607E+02  0.73703906855E+02 -0.13082795859E+04  0.13225170929E+04  0.17300000000E+03 0. -1.
<mgrwt>
<rscale>  2 0.19353549E+03</rscale>
<asrwt>0</asrwt>
<pdfrwt beam="1">  1       21 0.59027530E-02 0.19353549E+03</pdfrwt>
<pdfrwt beam="2">  1       21 0.24846986E+00 0.19353549E+03</pdfrwt>
<totfact> 0.13754358E+04</totfact>
</mgrwt>
</event>
<event>
 4    2  0.3964208E+000  0.3169328E+03  0.7546771E-02  0.1077070E+00
         21   -1    0    0  503  502  0.00000000000E+00  0.00000000000E+00  0.13744883486E+04  0.13744883486E+04  0.00000000000E+00 0.  1.
         21   -1    0    0  501  503 -0.00000000000E+00 -0.00000000000E+00 -0.12788094203E+03  0.12788094203E+03  0.00000000000E+00 0. -1.
          6    1    1    2  501    0  0.16509906824E+03 -0.20798965623E+03  0.13155719331E+03  0.34315258201E+03  0.17300000000E+03 0. -1.
         -6    1    1    2    0  502 -0.16509906824E+03  0.20798965623E+03  0.11150502133E+04  0.11592167086E+04  0.17300000000E+03 0.  1.
<mgrwt>
<rscale>  2 0.31693280E+03</rscale>
<asrwt>0</asrwt>
<pdfrwt beam="1">  1       21 0.21145974E+00 0.31693280E+03</pdfrwt>
<pdfrwt beam="2">  1       21 0.19673992E-01 0.31693280E+03</pdfrwt>
<totfact> 0.24470127E+03</totfact>
</mgrwt>
</event>
<event>
 4    2  0.3964208E+000  0.1936897E+03  0.7546771E-02  0.1155175E+00
         21   -1    0    0  503  502  0.00000000000E+00  0.00000000000E+00  0.42269040087E+03  0.42269040087E+03  0.00000000000E+00 0. -1.
         21   -1    0    0  501  503 -0.00000000000E+00 -0.00000000000E+00 -0.89611606537E+02  0.89611606537E+02  0.00000000000E+00 0. -1.
          6    1    1    2  501    0  0.66722183728E+02 -0.55989728929E+02  0.19158991632E+03  0.27243787472E+03  0.17300000000E+03 0.  1.
         -6    1    1    2    0  502 -0.66722183728E+02  0.55989728929E+02  0.14148887801E+03  0.23986413268E+03  0.17300000000E+03 0.  1.
<mgrwt>
<rscale>  2 0.19368970E+03</rscale>
<asrwt>0</asrwt>
<pdfrwt beam="1">  1       21 0.65029292E-01 0.19368970E+03</pdfrwt>
<pdfrwt beam="2">  1       21 0.13786401E-01 0.19368970E+03</pdfrwt>
<totfact> 0.99510392E+04</totfact>
</mgrwt>
</event>
<event>
 4    2  0.3964208E+000  0.1880996E+03  0.7546771E-02  0.1160187E+00
         21   -1    0    0  501  502  0.00000000000E+00  0.00000000000E+00  0.13281413197E+03  0.13281413197E+03  0.00000000000E+00 0. -1.
         21   -1    0    0  502  503 -0.00000000000E+00 -0.00000000000E+00 -0.29602282748E+03  0.29602282748E+03  0.00000000000E+00 0. -1.
          6    1    1    2  501    0 -0.26538679479E+02 -0.68906747474E+02 -0.13773647663E+02  0.18860316733E+03  0.17300000000E+03 0. -1.
         -6    1    1    2    0  503  0.26538679479E+02  0.68906747474E+02 -0.14943504785E+03  0.24023379213E+03  0.17300000000E+03 0. -1.
<mgrwt>
<rscale>  2 0.18809955E+03</rscale>
<asrwt>0</asrwt>
<pdfrwt beam="1">  1       21 0.20432943E-01 0.18809955E+03</pdfrwt>
<pdfrwt beam="2">  1       21 0.45541973E-01 0.18809955E+03</pdfrwt>
<totfact> 0.10271002E+05</totfact>
</mgrwt>
</event>
<event>
 4    2  0.3964208E+000  0.2069621E+03  0.7546771E-02  0.1143995E+00
         21   -1    0    0  501  502  0.00000000000E+00  0.00000000000E+00  0.13465738264E+04  0.13465738264E+04  0.00000000000E+00 0. -1.
         21   -1    0    0  502  503 -0.00000000000E+00 -0.00000000000E+00 -0.66211889447E+02  0.66211889447E+02  0.00000000000E+00 0. -1.
          6    1    1    2  501    0 -0.41532228943E+02  0.10573252403E+03  0.11493654733E+04  0.11678502832E+04  0.17300000000E+03 0. -1.
         -6    1    1    2    0  503  0.41532228943E+02 -0.10573252403E+03  0.13099646360E+03  0.24493543262E+03  0.17300000000E+03 0. -1.
<mgrwt>
<rscale>  2 0.20696206E+03</rscale>
<asrwt>0</asrwt>
<pdfrwt beam="1">  1       21 0.20716518E+00 0.20696206E+03</pdfrwt>
<pdfrwt beam="2">  1       21 0.10186446E-01 0.20696206E+03</pdfrwt>
<totfact> 0.93800185E+03</totfact>
</mgrwt>
</event>
<event>
 4    2  0.3964208E+000  0.1903206E+03  0.7546771E-02  0.1158172E+00
         21   -1    0    0  503  502  0.00000000000E+00  0.00000000000E+00  0.26276743473E+03  0.26276743473E+03  0.00000000000E+00 0.  1.
         21   -1    0    0  501  503 -0.00000000000E+00 -0.00000000000E+00 -0.11772153675E+04  0.11772153675E+04  0.00000000000E+00 0.  1.
          6    1    1    2  501    0 -0.87409923120E+01  0.78845066086E+02 -0.11337490438E+04  0.11496124754E+04  0.17300000000E+03 0.  1.
         -6    1    1    2    0  502  0.87409923120E+01 -0.78845066086E+02  0.21930111101E+03  0.29037032680E+03  0.17300000000E+03 0.  1.
<mgrwt>
<rscale>  2 0.19032065E+03</rscale>
<asrwt>0</asrwt>
<pdfrwt beam="1">  1       21 0.40425759E-01 0.19032065E+03</pdfrwt>
<pdfrwt beam="2">  1       21 0.18111006E+00 0.19032065E+03</pdfrwt>
<totfact> 0.10570888E+03</totfact>
</mgrwt>
</event>
<event>
 4    2  0.3964208E+000  0.2012654E+03  0.7546771E-02  0.1148676E+00
         21   -1    0    0  501  502  0.00000000000E+00  0.00000000000E+00  0.46917293276E+03  0.46917293276E+03  0.00000000000E+00 0.  1.
         21   -1    0    0  502  503 -0.00000000000E+00 -0.00000000000E+00 -0.96341292098E+02  0.96341292098E+02  0.00000000000E+00 0.  1.
          6    1    1    2  501    0 -0.67136042762E+02 -0.77919851397E+02  0.27752559112E+03  0.34282386907E+03  0.17300000000E+03 0. -1.
         -6    1    1    2    0  503  0.67136042762E+02  0.77919851397E+02  0.95306049538E+02  0.22269035578E+03  0.17300000000E+03 0. -1.
<mgrwt>
<rscale>  2 0.20126538E+03</rscale>
<asrwt>0</asrwt>
<pdfrwt beam="1">  1       21 0.72180450E-01 0.20126538E+03</pdfrwt>
<pdfrwt beam="2">  1       21 0.14821738E-01 0.20126538E+03</pdfrwt>
<totfact> 0.69141317E+04</totfact>
</mgrwt>
</event>
<event>
 4    2  0.3964208E+000  0.2490048E+03  0.7546771E-02  0.1113935E+00
         21   -1    0    0  503  502  0.00000000000E+00  0.00000000000E+00  0.28259193697E+04  0.28259193697E+04  0.00000000000E+00 0. -1.
         21   -1    0    0  501  503 -0.00000000000E+00 -0.00000000000E+00 -0.22870404081E+02  0.22870404081E+02  0.00000000000E+00 0.  1.
          6    1    1    2  501    0 -0.16224158375E+03 -0.75842369834E+02  0.11143776241E+04  0.11418585226E+04  0.17300000000E+03 0.  1.
         -6    1    1    2    0  502  0.16224158375E+03  0.75842369834E+02  0.16886713415E+04  0.17069312512E+04  0.17300000000E+03 0. -1.
<mgrwt>
<rscale>  2 0.24900481E+03</rscale>
<asrwt>0</asrwt>
<pdfrwt beam="1">  1       21 0.43475655E+00 0.24900481E+03</pdfrwt>
<pdfrwt beam="2">  1       21 0.35185259E-02 0.24900481E+03</pdfrwt>
<totfact> 0.23638514E+03</totfact>
</mgrwt>
</event>
<event>
 4    2  0.3964208E+000  0.1744771E+03  0.7546771E-02  0.1173258E+00
         21   -1    0    0  503  502  0.00000000000E+00  0.00000000000E+00  0.98694953799E+02  0.98694953799E+02  0.00000000000E+00 0. -1.
         21   -1    0    0  501  503 -0.00000000000E+00 -0.00000000000E+00 -0.32136401205E+03  0.32136401205E+03  0.00000000000E+00 0. -1.
          6    1    1    2  501    0  0.82703828216E+01 -0.21091502221E+02 -0.69228175152E+02  0.18770932564E+03  0.17300000000E+03 0. -1.
         -6    1    1    2    0  502 -0.82703828216E+01  0.21091502221E+02 -0.15344088310E+03  0.23234964021E+03  0.17300000000E+03 0. -1.
<mgrwt>
<rscale>  2 0.17447708E+03</rscale>
<asrwt>0</asrwt>
<pdfrwt beam="1">  1       21 0.15183839E-01 0.17447708E+03</pdfrwt>
<pdfrwt beam="2">  1       21 0.49440618E-01 0.17447708E+03</pdfrwt>
<totfact> 0.15055895E+05</totfact>
</mgrwt>
</event>
<event>
 4    2  0.3964208E+000  0.1980257E+03  0.7546771E-02  0.1151416E+00
         21   -1    0    0  501  502  0.00000000000E+00  0.00000000000E+00  0.64761180248E+03  0.64761180248E+03  0.00000000000E+00 0.  1.
         21   -1    0    0  502  503 -0.00000000000E+00 -0.00000000000E+00 -0.68473803220E+02  0.68473803220E+02  0.00000000000E+00 0.  1.
          6    1    1    2  501    0  0.62942780982E+01  0.96153773639E+02  0.41135174299E+03  0.45653523695E+03  0.17300000000E+03 0.  1.
         -6    1    1    2    0  503 -0.62942780982E+01 -0.96153773639E+02  0.16778625627E+03  0.25955036875E+03  0.17300000000E+03 0.  1.
<mgrwt>
<rscale>  2 0.19802567E+03</rscale>
<asrwt>0</asrwt>
<pdfrwt beam="1">  1       21 0.99632580E-01 0.19802567E+03</pdfrwt>
<pdfrwt beam="2">  1       21 0.10534432E-01 0.19802567E+03</pdfrwt>
<totfact> 0.61125034E+04</totfact>
</mgrwt>
</event>
<event>
 4    2  0.3964208E+000  0.1844319E+03  0.7546771E-02  0.1163581E+00
         21   -1    0    0  501  502  0.00000000000E+00  0.00000000000E+00  0.25722579565E+02  0.25722579565E+02  0.00000000000E+00 0. -1.
         21   -1    0    0  502  503 -0.00000000000E+00 -0.00000000000E+00 -0.22674355036E+04  0.22674355036E+04  0.00000000000E+00 0. -1.
          6    1    1    2  501    0 -0.29543095836E+02 -0.56686378308E+02 -0.38063076740E+03  0.42295971568E+03  0.17300000000E+03 0. -1.
         -6    1    1    2    0  503  0.29543095836E+02  0.56686378308E+02 -0.18610821566E+04  0.18701983675E+04  0.17300000000E+03 0. -1.
<mgrwt>
<rscale>  2 0.18443194E+03</rscale>
<asrwt>0</asrwt>
<pdfrwt beam="1">  1       21 0.39573184E-02 0.18443194E+03</pdfrwt>
<pdfrwt beam="2">  1       21 0.34883636E+00 0.18443194E+03</pdfrwt>
<totfact> 0.71617147E+03</totfact>
</mgrwt>
</event>
<event>
 4    2  0.3964208E+000  0.2204912E+03  0.7546771E-02  0.1133517E+00
         21   -1    0    0  501  502  0.00000000000E+00  0.00000000000E+00  0.27205020225E+03  0.27205020225E+03  0.00000000000E+00 0. -1.
         21   -1    0    0  502  503 -0.00000000000E+00 -0.00000000000E+00 -0.20529652241E+03  0.20529652241E+03  0.00000000000E+00 0. -1.
          6    1    1    2  501    0  0.13630199383E+03 -0.10447807072E+02  0.11927720259E+03  0.25068594147E+03  0.17300000000E+03 0. -1.
         -6    1    1    2    0  503 -0.13630199383E+03  0.10447807072E+02 -0.52523522743E+02  0.22666078319E+03  0.17300000000E+03 0. -1.
<mgrwt>
<rscale>  2 0.22049125E+03</rscale>
<asrwt>0</asrwt>
<pdfrwt beam="1">  1       21 0.41853878E-01 0.22049125E+03</pdfrwt>
<pdfrwt beam="2">  1       21 0.31584080E-01 0.22049125E+03</pdfrwt>
<totfact> 0.52268195E+04</totfact>
</mgrwt>
</event>
<event>
 4    2  0.3964208E+000  0.2343710E+03  0.7546771E-02  0.1123601E+00
         21   -1    0    0  501  502  0.00000000000E+00  0.00000000000E+00  0.20263017695E+03  0.20263017695E+03  0.00000000000E+00 0.  1.
         21   -1    0    0  502  503 -0.00000000000E+00 -0.00000000000E+00 -0.11693701243E+04  0.11693701243E+04  0.00000000000E+00 0. -1.
          6    1    1    2  501    0  0.82525426363E+02 -0.13487155044E+03  0.11788070675E+03  0.26234641629E+03  0.17300000000E+03 0. -1.
         -6    1    1    2    0  503 -0.82525426363E+02  0.13487155044E+03 -0.10846206541E+04  0.11096538850E+04  0.17300000000E+03 0. -1.
<mgrwt>
<rscale>  2 0.23437103E+03</rscale>
<asrwt>0</asrwt>
<pdfrwt beam="1">  1       21 0.31173874E-01 0.23437103E+03</pdfrwt>
<pdfrwt beam="2">  1       21 0.17990309E+00 0.23437103E+03</pdfrwt>
<totfact> 0.17318908E+03</totfact>
</mgrwt>
</event>
<event>
 4    2  0.3964208E+000  0.2359818E+03  0.7546771E-02  0.1122499E+00
         21   -1    0    0  503  502  0.00000000000E+00  0.00000000000E+00  0.61137479842E+02  0.61137479842E+02  0.00000000000E+00 0.  1.
         21   -1    0    0  501  503 -0.00000000000E+00 -0.00000000000E+00 -0.10153761743E+04  0.10153761743E+04  0.00000000000E+00 0. -1.
          6    1    1    2  501    0  0.32146362284E+02  0.15724187631E+03 -0.30442519856E+03  0.38517800793E+03  0.17300000000E+03 0.  1.
         -6    1    1    2    0  502 -0.32146362284E+02 -0.15724187631E+03 -0.64981349585E+03  0.69133564617E+03  0.17300000000E+03 0. -1.
<mgrwt>
<rscale>  2 0.23598177E+03</rscale>
<asrwt>0</asrwt>
<pdfrwt beam="1">  1       21 0.94057667E-02 0.23598177E+03</pdfrwt>
<pdfrwt beam="2">  1       21 0.15621171E+00 0.23598177E+03</pdfrwt>
<totfact> 0.23620866E+04</totfact>
</mgrwt>
</event>
<event>
 4    2  0.3964208E+000  0.1767553E+03  0.7546771E-02  0.1170981E+00
         21   -1    0    0  503  502  0.00000000000E+00  0.00000000000E+00  0.25539388014E+03  0.25539388014E+03  0.00000000000E+00 0. -1.
         21   -1    0    0  501  503 -0.00000000000E+00 -0.00000000000E+00 -0.32178035623E+03  0.32178035623E+03  0.00000000000E+00 0. -1.
          6    1    1    2  501    0  0.29659230914E+02  0.20827016657E+02 -0.26039628635E+03  0.31471997164E+03  0.17300000000E+03 0. -1.
         -6    1    1    2    0  502 -0.29659230914E+02 -0.20827016657E+02  0.19400981025E+03  0.26245426473E+03  0.17300000000E+03 0. -1.
<mgrwt>
<rscale>  2 0.17675530E+03</rscale>
<asrwt>0</asrwt>
<pdfrwt beam="1">  1       21 0.39291366E-01 0.17675530E+03</pdfrwt>
<pdfrwt beam="2">  1       21 0.49504670E-01 0.17675530E+03</pdfrwt>
<totfact> 0.24515859E+04</totfact>
</mgrwt>
</event>
<event>
 4    2  0.3964208E+000  0.1925199E+03  0.7546771E-02  0.1156208E+00
         21   -1    0    0  503  502  0.00000000000E+00  0.00000000000E+00  0.84335245524E+03  0.84335245524E+03  0.00000000000E+00 0. -1.
         21   -1    0    0  501  503 -0.00000000000E+00 -0.00000000000E+00 -0.51062217468E+02  0.51062217468E+02  0.00000000000E+00 0. -1.
          6    1    1    2  501    0  0.84288227054E+02 -0.55144461576E+01  0.22922325744E+03  0.29934464433E+03  0.17300000000E+03 0. -1.
         -6    1    1    2    0  502 -0.84288227054E+02  0.55144461576E+01  0.56306698034E+03  0.59507002839E+03  0.17300000000E+03 0. -1.
<mgrwt>
<rscale>  2 0.19251991E+03</rscale>
<asrwt>0</asrwt>
<pdfrwt beam="1">  1       21 0.12974652E+00 0.19251991E+03</pdfrwt>
<pdfrwt beam="2">  1       21 0.78557264E-02 0.19251991E+03</pdfrwt>
<totfact> 0.53810392E+04</totfact>
</mgrwt>
</event>
<event>
 4    2  0.3964208E+000  0.2986586E+03  0.7546771E-02  0.1085913E+00
         21   -1    0    0  503  502  0.00000000000E+00  0.00000000000E+00  0.27506610350E+03  0.27506610350E+03  0.00000000000E+00 0.  1.
         21   -1    0    0  501  503 -0.00000000000E+00 -0.00000000000E+00 -0.81307210003E+03  0.81307210003E+03  0.00000000000E+00 0.  1.
          6    1    1    2  501    0  0.13852562203E+03  0.20019643734E+03 -0.69084906463E+03  0.75264160899E+03  0.17300000000E+03 0.  1.
         -6    1    1    2    0  502 -0.13852562203E+03 -0.20019643734E+03  0.15284306809E+03  0.33549659454E+03  0.17300000000E+03 0.  1.
<mgrwt>
<rscale>  2 0.29865860E+03</rscale>
<asrwt>0</asrwt>
<pdfrwt beam="1">  1       21 0.42317862E-01 0.29865860E+03</pdfrwt>
<pdfrwt beam="2">  1       21 0.12508801E+00 0.29865860E+03</pdfrwt>
<totfact> 0.23669714E+03</totfact>
</mgrwt>
</event>
<event>
 4    2  0.3964208E+000  0.1823903E+03  0.7546771E-02  0.1165510E+00
         21   -1    0    0  503  502  0.00000000000E+00  0.00000000000E+00  0.15590876317E+03  0.15590876317E+03  0.00000000000E+00 0. -1.
         21   -1    0    0  501  503 -0.00000000000E+00 -0.00000000000E+00 -0.25052840979E+03  0.25052840979E+03  0.00000000000E+00 0.  1.
          6    1    1    2  501    0  0.38134311076E+02  0.43393591859E+02 -0.12557424288E+03  0.22143874993E+03  0.17300000000E+03 0.  1.
         -6    1    1    2    0  502 -0.38134311076E+02 -0.43393591859E+02  0.30954596257E+02  0.18499842303E+03  0.17300000000E+03 0. -1.
<mgrwt>
<rscale>  2 0.18239032E+03</rscale>
<asrwt>0</asrwt>
<pdfrwt beam="1">  1       21 0.23985964E-01 0.18239032E+03</pdfrwt>
<pdfrwt beam="2">  1       21 0.38542832E-01 0.18239032E+03</pdfrwt>
<totfact> 0.10678965E+05</totfact>
</mgrwt>
</event>
<event>
 4    2  0.3964208E+000  0.1875901E+03  0.7546771E-02  0.1160653E+00
         21   -1    0    0  501  502  0.00000000000E+00  0.00000000000E+00  0.19231498714E+03  0.19231498714E+03  0.00000000000E+00 0.  1.
         21   -1    0    0  502  503 -0.00000000000E+00 -0.00000000000E+00 -0.34851386862E+03  0.34851386862E+03  0.00000000000E+00 0.  1.
          6    1    1    2  501    0 -0.59132533001E+02  0.42004459874E+02  0.10826440258E+03  0.21658996277E+03  0.17300000000E+03 0.  1.
         -6    1    1    2    0  503  0.59132533001E+02 -0.42004459874E+02 -0.26446328407E+03  0.32423889299E+03  0.17300000000E+03 0.  1.
<mgrwt>
<rscale>  2 0.18759006E+03</rscale>
<asrwt>0</asrwt>
<pdfrwt beam="1">  1       21 0.29586921E-01 0.18759006E+03</pdfrwt>
<pdfrwt beam="2">  1       21 0.53617518E-01 0.18759006E+03</pdfrwt>
<totfact> 0.36127828E+04</totfact>
</mgrwt>
</event>
<event>
 4    2  0.3964208E+000  0.2190683E+03  0.7546771E-02  0.1134580E+00
         21   -1    0    0  503  502  0.00000000000E+00  0.00000000000E+00  0.40859820904E+03  0.40859820904E+03  0.00000000000E+00 0. -1.
         21   -1    0    0  501  503 -0.00000000000E+00 -0.00000000000E+00 -0.18396228429E+03  0.18396228429E+03  0.00000000000E+00 0. -1.
          6    1    1    2  501    0  0.95926820508E+02 -0.94127376828E+02 -0.65829965909E+02  0.22874549695E+03  0.17300000000E+03 0. -1.
         -6    1    1    2    0  502 -0.95926820508E+02  0.94127376828E+02  0.29046589066E+03  0.36381499639E+03  0.17300000000E+03 0. -1.
<mgrwt>
<rscale>  2 0.21906830E+03</rscale>
<asrwt>0</asrwt>
<pdfrwt beam="1">  1       21 0.62861263E-01 0.21906830E+03</pdfrwt>
<pdfrwt beam="2">  1       21 0.28301890E-01 0.21906830E+03</pdfrwt>
<totfact> 0.27565386E+04</totfact>
</mgrwt>
</event>
<event>
 4    2  0.3964208E+000  0.3533927E+03  0.7546771E-02  0.1061231E+00
         21   -1    0    0  501  502  0.00000000000E+00  0.00000000000E+00  0.12320918250E+04  0.12320918250E+04  0.00000000000E+00 0.  1.
         21   -1    0    0  502  503 -0.00000000000E+00 -0.00000000000E+00 -0.12934076337E+03  0.12934076337E+03  0.00000000000E+00 0. -1.
          6    1    1    2  501    0 -0.21702073590E+03 -0.21876786883E+03  0.86798101587E+03  0.93716456621E+03  0.17300000000E+03 0.  1.
         -6    1    1    2    0  503  0.21702073590E+03  0.21876786883E+03  0.23477004577E+03  0.42426802217E+03  0.17300000000E+03 0. -1.
<mgrwt>
<rscale>  2 0.35339267E+03</rscale>
<asrwt>0</asrwt>
<pdfrwt beam="1">  1       21 0.18955258E+00 0.35339267E+03</pdfrwt>
<pdfrwt beam="2">  1       21 0.19898580E-01 0.35339267E+03</pdfrwt>
<totfact> 0.32695233E+03</totfact>
</mgrwt>
</event>
<event>
 4    2  0.3964208E+000  0.1829466E+03  0.7546771E-02  0.1164981E+00
         21   -1    0    0  503  502  0.00000000000E+00  0.00000000000E+00  0.19756318386E+02  0.19756318386E+02  0.00000000000E+00 0.  1.
         21   -1    0    0  501  503 -0.00000000000E+00 -0.00000000000E+00 -0.19628882990E+04  0.19628882990E+04  0.00000000000E+00 0.  1.
          6    1    1    2  501    0 -0.40447669182E+02  0.43639903036E+02 -0.13383927212E+04  0.13508384549E+04  0.17300000000E+03 0.  1.
         -6    1    1    2    0  502  0.40447669182E+02 -0.43639903036E+02 -0.60473925947E+03  0.63180616254E+03  0.17300000000E+03 0.  1.
<mgrwt>
<rscale>  2 0.18294659E+03</rscale>
<asrwt>0</asrwt>
<pdfrwt beam="1">  1       21 0.30394341E-02 0.18294659E+03</pdfrwt>
<pdfrwt beam="2">  1       21 0.30198277E+00 0.18294659E+03</pdfrwt>
<totfact> 0.20794805E+04</totfact>
</mgrwt>
</event>
<event>
 4    2  0.3964208E+000  0.1939945E+03  0.7546771E-02  0.1154907E+00
         21   -1    0    0  503  502  0.00000000000E+00  0.00000000000E+00  0.30529461916E+03  0.30529461916E+03  0.00000000000E+00 0.  1.
         21   -1    0    0  501  503 -0.00000000000E+00 -0.00000000000E+00 -0.18835827260E+03  0.18835827260E+03  0.00000000000E+00 0.  1.
          6    1    1    2  501    0 -0.87151496362E+02  0.10464279107E+02 -0.86625456183E+02  0.21245671115E+03  0.17300000000E+03 0.  1.
         -6    1    1    2    0  502  0.87151496362E+02 -0.10464279107E+02  0.20356180274E+03  0.28119618061E+03  0.17300000000E+03 0.  1.
<mgrwt>
<rscale>  2 0.19399455E+03</rscale>
<asrwt>0</asrwt>
<pdfrwt beam="1">  1       21 0.46968403E-01 0.19399455E+03</pdfrwt>
<pdfrwt beam="2">  1       21 0.28978196E-01 0.19399455E+03</pdfrwt>
<totfact> 0.49428076E+04</totfact>
</mgrwt>
</event>
<event>
 4    2  0.3964208E+000  0.2007630E+03  0.7546771E-02  0.1149097E+00
         21   -1    0    0  503  502  0.00000000000E+00  0.00000000000E+00  0.90325261193E+03  0.90325261193E+03  0.00000000000E+00 0.  1.
         21   -1    0    0  501  503 -0.00000000000E+00 -0.00000000000E+00 -0.54128657894E+02  0.54128657894E+02  0.00000000000E+00 0.  1.
          6    1    1    2  501    0  0.73372294498E+01  0.10160190421E+03  0.22396060708E+03  0.30077256423E+03  0.17300000000E+03 0.  1.
         -6    1    1    2    0  502 -0.73372294498E+01 -0.10160190421E+03  0.62516334696E+03  0.65660870559E+03  0.17300000000E+03 0.  1.
<mgrwt>
<rscale>  2 0.20076300E+03</rscale>
<asrwt>0</asrwt>
<pdfrwt beam="1">  1       21 0.13896193E+00 0.20076300E+03</pdfrwt>
<pdfrwt beam="2">  1       21 0.83274865E-02 0.20076300E+03</pdfrwt>
<totfact> 0.40626193E+04</totfact>
</mgrwt>
</event>
<event>
 4    2  0.3964208E+000  0.1841284E+03  0.7546771E-02  0.1163866E+00
         21   -1    0    0  503  502  0.00000000000E+00  0.00000000000E+00  0.52547882346E+03  0.52547882346E+03  0.00000000000E+00 0. -1.
         21   -1    0    0  501  503 -0.00000000000E+00 -0.00000000000E+00 -0.75496078285E+02  0.75496078285E+02  0.00000000000E+00 0.  1.
          6    1    1    2  501    0  0.61974113374E+02 -0.11553431013E+02  0.11041076333E+03  0.21469468823E+03  0.17300000000E+03 0. -1.
         -6    1    1    2    0  502 -0.61974113374E+02  0.11553431013E+02  0.33957198184E+03  0.38628021351E+03  0.17300000000E+03 0.  1.
<mgrwt>
<rscale>  2 0.18412841E+03</rscale>
<asrwt>0</asrwt>
<pdfrwt beam="1">  1       21 0.80842894E-01 0.18412841E+03</pdfrwt>
<pdfrwt beam="2">  1       21 0.11614782E-01 0.18412841E+03</pdfrwt>
<totfact> 0.83845579E+04</totfact>
</mgrwt>
</event>
<event>
 4    2  0.3964208E+000  0.2078766E+03  0.7546771E-02  0.1143259E+00
         21   -1    0    0  503  502  0.00000000000E+00  0.00000000000E+00  0.10283759713E+04  0.10283759713E+04  0.00000000000E+00 0. -1.
         21   -1    0    0  501  503 -0.00000000000E+00 -0.00000000000E+00 -0.31406189811E+03  0.31406189811E+03  0.00000000000E+00 0.  1.
          6    1    1    2  501    0  0.97820151434E+02 -0.60949999096E+02 -0.26754686551E+03  0.33881264684E+03  0.17300000000E+03 0.  1.
         -6    1    1    2    0  502 -0.97820151434E+02  0.60949999096E+02  0.98186093871E+03  0.10036252226E+04  0.17300000000E+03 0. -1.
<mgrwt>
<rscale>  2 0.20787661E+03</rscale>
<asrwt>0</asrwt>
<pdfrwt beam="1">  1       21 0.15821169E+00 0.20787661E+03</pdfrwt>
<pdfrwt beam="2">  1       21 0.48317216E-01 0.20787661E+03</pdfrwt>
<totfact> 0.10449540E+03</totfact>
</mgrwt>
</event>
<event>
 4    2  0.3964208E+000  0.2187015E+03  0.7546771E-02  0.1134855E+00
         21   -1    0    0  503  502  0.00000000000E+00  0.00000000000E+00  0.47392767431E+03  0.47392767431E+03  0.00000000000E+00 0.  1.
         21   -1    0    0  501  503 -0.00000000000E+00 -0.00000000000E+00 -0.14650903809E+03  0.14650903809E+03  0.00000000000E+00 0. -1.
          6    1    1    2  501    0 -0.10628810991E+03 -0.81266151525E+02 -0.93319665370E+01  0.21890051460E+03  0.17300000000E+03 0. -1.
         -6    1    1    2    0  502  0.10628810991E+03  0.81266151525E+02  0.33675060276E+03  0.40153619781E+03  0.17300000000E+03 0. -1.
<mgrwt>
<rscale>  2 0.21870151E+03</rscale>
<asrwt>0</asrwt>
<pdfrwt beam="1">  1       21 0.72911949E-01 0.21870151E+03</pdfrwt>
<pdfrwt beam="2">  1       21 0.22539852E-01 0.21870151E+03</pdfrwt>
<totfact> 0.30785449E+04</totfact>
</mgrwt>
</event>
<event>
 4    2  0.3964208E+000  0.1921301E+03  0.7546771E-02  0.1156554E+00
         21   -1    0    0  501  502  0.00000000000E+00  0.00000000000E+00  0.27178877169E+03  0.27178877169E+03  0.00000000000E+00 0. -1.
         21   -1    0    0  502  503 -0.00000000000E+00 -0.00000000000E+00 -0.23940117267E+03  0.23940117267E+03  0.00000000000E+00 0. -1.
          6    1    1    2  501    0  0.81949779267E+02  0.16408103976E+02  0.18431881947E+03  0.26624691436E+03  0.17300000000E+03 0. -1.
         -6    1    1    2    0  503 -0.81949779267E+02 -0.16408103976E+02 -0.15193122045E+03  0.24494303000E+03  0.17300000000E+03 0. -1.
<mgrwt>
<rscale>  2 0.19213014E+03</rscale>
<asrwt>0</asrwt>
<pdfrwt beam="1">  1       21 0.41813657E-01 0.19213014E+03</pdfrwt>
<pdfrwt beam="2">  1       21 0.36830950E-01 0.19213014E+03</pdfrwt>
<totfact> 0.39156572E+04</totfact>
</mgrwt>
</event>
<event>
 4    2  0.3964208E+000  0.2655685E+03  0.7546771E-02  0.1103843E+00
         21   -1    0    0  503  502  0.00000000000E+00  0.00000000000E+00  0.39941671599E+03  0.39941671599E+03  0.00000000000E+00 0.  1.
         21   -1    0    0  501  503 -0.00000000000E+00 -0.00000000000E+00 -0.18096794213E+03  0.18096794213E+03  0.00000000000E+00 0. -1.
          6    1    1    2  501    0  0.10523354770E+03  0.17182419062E+03  0.64006868605E+02  0.27317307933E+03  0.17300000000E+03 0. -1.
         -6    1    1    2    0  502 -0.10523354770E+03 -0.17182419062E+03  0.15444190525E+03  0.30721157879E+03  0.17300000000E+03 0. -1.
<mgrwt>
<rscale>  2 0.26556854E+03</rscale>
<asrwt>0</asrwt>
<pdfrwt beam="1">  1       21 0.61448725E-01 0.26556854E+03</pdfrwt>
<pdfrwt beam="2">  1       21 0.27841222E-01 0.26556854E+03</pdfrwt>
<totfact> 0.29259422E+04</totfact>
</mgrwt>
</event>
<event>
 4    2  0.3964208E+000  0.2159322E+03  0.7546771E-02  0.1136953E+00
         21   -1    0    0  501  502  0.00000000000E+00  0.00000000000E+00  0.29325800606E+03  0.29325800606E+03  0.00000000000E+00 0. -1.
         21   -1    0    0  502  503 -0.00000000000E+00 -0.00000000000E+00 -0.16315642807E+03  0.16315642807E+03  0.00000000000E+00 0.  1.
          6    1    1    2  501    0 -0.77968565585E+01  0.12898427596E+03  0.10149401775E+03  0.23859541081E+03  0.17300000000E+03 0. -1.
         -6    1    1    2    0  503  0.77968565585E+01 -0.12898427596E+03  0.28607560232E+02  0.21781902332E+03  0.17300000000E+03 0. -1.
<mgrwt>
<rscale>  2 0.21593224E+03</rscale>
<asrwt>0</asrwt>
<pdfrwt beam="1">  1       21 0.45116616E-01 0.21593224E+03</pdfrwt>
<pdfrwt beam="2">  1       21 0.25100989E-01 0.21593224E+03</pdfrwt>
<totfact> 0.70128704E+04</totfact>
</mgrwt>
</event>
<event>
 4    2  0.3964208E+000  0.1948418E+03  0.7546771E-02  0.1154165E+00
         21   -1    0    0  501  502  0.00000000000E+00  0.00000000000E+00  0.56272180364E+02  0.56272180364E+02  0.00000000000E+00 0.  1.
         21   -1    0    0  502  503 -0.00000000000E+00 -0.00000000000E+00 -0.72115590288E+03  0.72115590288E+03  0.00000000000E+00 0.  1.
          6    1    1    2  501    0 -0.66023606053E+02 -0.60623631684E+02 -0.23371699906E+03  0.30428108210E+03  0.17300000000E+03 0.  1.
         -6    1    1    2    0  503  0.66023606053E+02  0.60623631684E+02 -0.43116672346E+03  0.47314700114E+03  0.17300000000E+03 0.  1.
<mgrwt>
<rscale>  2 0.19484184E+03</rscale>
<asrwt>0</asrwt>
<pdfrwt beam="1">  1       21 0.86572581E-02 0.19484184E+03</pdfrwt>
<pdfrwt beam="2">  1       21 0.11094707E+00 0.19484184E+03</pdfrwt>
<totfact> 0.66814501E+04</totfact>
</mgrwt>
</event>
<event>
 4    2  0.3964208E+000  0.1826770E+03  0.7546771E-02  0.1165237E+00
         21   -1    0    0  503  502  0.00000000000E+00  0.00000000000E+00  0.36947255192E+02  0.36947255192E+02  0.00000000000E+00 0. -1.
         21   -1    0    0  501  503 -0.00000000000E+00 -0.00000000000E+00 -0.16998215048E+04  0.16998215048E+04  0.00000000000E+00 0. -1.
          6    1    1    2  501    0 -0.14900988701E+02 -0.56743822607E+02 -0.23695975933E+03  0.29920031486E+03  0.17300000000E+03 0. -1.
         -6    1    1    2    0  502  0.14900988701E+02  0.56743822607E+02 -0.14259144903E+04  0.14375684452E+04  0.17300000000E+03 0. -1.
<mgrwt>
<rscale>  2 0.18267704E+03</rscale>
<asrwt>0</asrwt>
<pdfrwt beam="1">  1       21 0.56841962E-02 0.18267704E+03</pdfrwt>
<pdfrwt beam="2">  1       21 0.26151086E+00 0.18267704E+03</pdfrwt>
<totfact> 0.12435811E+04</totfact>
</mgrwt>
</event>
<event>
 4    2  0.3964208E+000  0.2244963E+03  0.7546771E-02  0.1130575E+00
         21   -1    0    0  503  502  0.00000000000E+00  0.00000000000E+00  0.67939411040E+02  0.67939411040E+02  0.00000000000E+00 0.  1.
         21   -1    0    0  501  503 -0.00000000000E+00 -0.00000000000E+00 -0.76814334060E+03  0.76814334060E+03  0.00000000000E+00 0. -1.
          6    1    1    2  501    0  0.53324956974E+01 -0.14297261986E+03 -0.27271034572E+03  0.35322731803E+03  0.17300000000E+03 0.  1.
         -6    1    1    2    0  502 -0.53324956974E+01  0.14297261986E+03 -0.42749358384E+03  0.48285543361E+03  0.17300000000E+03 0.  1.
<mgrwt>
<rscale>  2 0.22449634E+03</rscale>
<asrwt>0</asrwt>
<pdfrwt beam="1">  1       21 0.10452218E-01 0.22449634E+03</pdfrwt>
<pdfrwt beam="2">  1       21 0.11817589E+00 0.22449634E+03</pdfrwt>
<totfact> 0.40465005E+04</totfact>
</mgrwt>
</event>
<event>
 4    2  0.3964208E+000  0.2569880E+03  0.7546771E-02  0.1108967E+00
         21   -1    0    0  503  502  0.00000000000E+00  0.00000000000E+00  0.36163514724E+03  0.36163514724E+03  0.00000000000E+00 0.  1.
         21   -1    0    0  501  503 -0.00000000000E+00 -0.00000000000E+00 -0.65574215646E+03  0.65574215646E+03  0.00000000000E+00 0. -1.
          6    1    1    2  501    0 -0.38062095213E+02  0.18618563698E+03 -0.57914017238E+03  0.63359778548E+03  0.17300000000E+03 0. -1.
         -6    1    1    2    0  502  0.38062095213E+02 -0.18618563698E+03  0.28503316315E+03  0.38377951822E+03  0.17300000000E+03 0.  1.
<mgrwt>
<rscale>  2 0.25698797E+03</rscale>
<asrwt>0</asrwt>
<pdfrwt beam="1">  1       21 0.55636177E-01 0.25698797E+03</pdfrwt>
<pdfrwt beam="2">  1       21 0.10088341E+00 0.25698797E+03</pdfrwt>
<totfact> 0.23265766E+03</totfact>
</mgrwt>
</event>
<event>
 4    2  0.3964208E+000  0.1928608E+03  0.7546771E-02  0.1155906E+00
         21   -1    0    0  503  502  0.00000000000E+00  0.00000000000E+00  0.66337855298E+02  0.66337855298E+02  0.00000000000E+00 0.  1.
         21   -1    0    0  501  503 -0.00000000000E+00 -0.00000000000E+00 -0.62645869921E+03  0.62645869921E+03  0.00000000000E+00 0.  1.
          6    1    1    2  501    0 -0.35163692452E+02 -0.77651906600E+02 -0.39229394971E+03  0.43713824683E+03  0.17300000000E+03 0.  1.
         -6    1    1    2    0  502  0.35163692452E+02  0.77651906600E+02 -0.16782689420E+03  0.25565830768E+03  0.17300000000E+03 0.  1.
<mgrwt>
<rscale>  2 0.19286084E+03</rscale>
<asrwt>0</asrwt>
<pdfrwt beam="1">  1       21 0.10205824E-01 0.19286084E+03</pdfrwt>
<pdfrwt beam="2">  1       21 0.96378264E-01 0.19286084E+03</pdfrwt>
<totfact> 0.70098926E+04</totfact>
</mgrwt>
</event>
<event>
 4    2  0.3964208E+000  0.3113966E+03  0.7546771E-02  0.1079678E+00
         21   -1    0    0  501  502  0.00000000000E+00  0.00000000000E+00  0.30111452916E+03  0.30111452916E+03  0.00000000000E+00 0.  1.
         21   -1    0    0  502  503 -0.00000000000E+00 -0.00000000000E+00 -0.32532105090E+03  0.32532105090E+03  0.00000000000E+00 0.  1.
          6    1    1    2  501    0  0.79670795610E+02  0.24635627075E+03 -0.43607693639E+02  0.31443517417E+03  0.17300000000E+03 0.  1.
         -6    1    1    2    0  503 -0.79670795610E+02 -0.24635627075E+03  0.19401171897E+02  0.31200040590E+03  0.17300000000E+03 0.  1.
<mgrwt>
<rscale>  2 0.31139661E+03</rscale>
<asrwt>0</asrwt>
<pdfrwt beam="1">  1       21 0.46325312E-01 0.31139661E+03</pdfrwt>
<pdfrwt beam="2">  1       21 0.50049392E-01 0.31139661E+03</pdfrwt>
<totfact> 0.15988377E+04</totfact>
</mgrwt>
</event>
<event>
 4    2  0.3964208E+000  0.2535213E+03  0.7546771E-02  0.1111099E+00
         21   -1    0    0  503  502  0.00000000000E+00  0.00000000000E+00  0.48826102499E+03  0.48826102499E+03  0.00000000000E+00 0.  1.
         21   -1    0    0  501  503 -0.00000000000E+00 -0.00000000000E+00 -0.13218115251E+03  0.13218115251E+03  0.00000000000E+00 0.  1.
          6    1    1    2  501    0 -0.14542316169E+02  0.18474999069E+03  0.15812895193E+03  0.29879391469E+03  0.17300000000E+03 0.  1.
         -6    1    1    2    0  502  0.14542316169E+02 -0.18474999069E+03  0.19795092055E+03  0.32164826280E+03  0.17300000000E+03 0.  1.
<mgrwt>
<rscale>  2 0.25352128E+03</rscale>
<asrwt>0</asrwt>
<pdfrwt beam="1">  1       21 0.75117080E-01 0.25352128E+03</pdfrwt>
<pdfrwt beam="2">  1       21 0.20335562E-01 0.25352128E+03</pdfrwt>
<totfact> 0.34413248E+04</totfact>
</mgrwt>
</event>
<event>
 4    2  0.3964208E+000  0.1836993E+03  0.7546771E-02  0.1164270E+00
         21   -1    0    0  503  502  0.00000000000E+00  0.00000000000E+00  0.34234134800E+03  0.34234134800E+03  0.00000000000E+00 0.  1.
         21   -1    0    0  501  503 -0.00000000000E+00 -0.00000000000E+00 -0.15818445513E+03  0.15818445513E+03  0.00000000000E+00 0.  1.
          6    1    1    2  501    0 -0.18231591943E+02 -0.59025623958E+02  0.24571039803E+03  0.30678822488E+03  0.17300000000E+03 0.  1.
         -6    1    1    2    0  502  0.18231591943E+02  0.59025623958E+02 -0.61553505155E+02  0.19373757825E+03  0.17300000000E+03 0.  1.
<mgrwt>
<rscale>  2 0.18369925E+03</rscale>
<asrwt>0</asrwt>
<pdfrwt beam="1">  1       21 0.52667900E-01 0.18369925E+03</pdfrwt>
<pdfrwt beam="2">  1       21 0.24336070E-01 0.18369925E+03</pdfrwt>
<totfact> 0.54714222E+04</totfact>
</mgrwt>
</event>
<event>
 4    2  0.3964208E+000  0.2429536E+03  0.7546771E-02  0.1117841E+00
         21   -1    0    0  503  502  0.00000000000E+00  0.00000000000E+00  0.28985938729E+03  0.28985938729E+03  0.00000000000E+00 0.  1.
         21   -1    0    0  501  503 -0.00000000000E+00 -0.00000000000E+00 -0.21390027491E+03  0.21390027491E+03  0.00000000000E+00 0.  1.
          6    1    1    2  501    0  0.17019710468E+03  0.11418547301E+02  0.93149909637E+02  0.26019866127E+03  0.17300000000E+03 0.  1.
         -6    1    1    2    0  502 -0.17019710468E+03 -0.11418547301E+02 -0.17190797257E+02  0.24356100093E+03  0.17300000000E+03 0.  1.
<mgrwt>
<rscale>  2 0.24295357E+03</rscale>
<asrwt>0</asrwt>
<pdfrwt beam="1">  1       21 0.44593752E-01 0.24295357E+03</pdfrwt>
<pdfrwt beam="2">  1       21 0.32907734E-01 0.24295357E+03</pdfrwt>
<totfact> 0.41912168E+04</totfact>
</mgrwt>
</event>
<event>
 4    2  0.3964208E+000  0.2507946E+03  0.7546771E-02  0.1112804E+00
         21   -1    0    0  503  502  0.00000000000E+00  0.00000000000E+00  0.79538736134E+03  0.79538736134E+03  0.00000000000E+00 0. -1.
         21   -1    0    0  501  503 -0.00000000000E+00 -0.00000000000E+00 -0.25099023120E+03  0.25099023120E+03  0.00000000000E+00 0.  1.
          6    1    1    2  501    0 -0.15577335749E+03 -0.93293013885E+02 -0.16079651741E+03  0.29791516469E+03  0.17300000000E+03 0.  1.
         -6    1    1    2    0  502  0.15577335749E+03  0.93293013885E+02  0.70519364755E+03  0.74846242784E+03  0.17300000000E+03 0. -1.
<mgrwt>
<rscale>  2 0.25079459E+03</rscale>
<asrwt>0</asrwt>
<pdfrwt beam="1">  1       21 0.12236729E+00 0.25079459E+03</pdfrwt>
<pdfrwt beam="2">  1       21 0.38613882E-01 0.25079459E+03</pdfrwt>
<totfact> 0.31092768E+03</totfact>
</mgrwt>
</event>
<event>
 4    2  0.3964208E+000  0.1780599E+03  0.7546771E-02  0.1169694E+00
         21   -1    0    0  503  502  0.00000000000E+00  0.00000000000E+00  0.27241070578E+03  0.27241070578E+03  0.00000000000E+00 0. -1.
         21   -1    0    0  501  503 -0.00000000000E+00 -0.00000000000E+00 -0.41171216863E+03  0.41171216863E+03  0.00000000000E+00 0. -1.
          6    1    1    2  501    0 -0.87821476925E+01 -0.41221258191E+02 -0.35935627844E+03  0.40105143448E+03  0.17300000000E+03 0. -1.
         -6    1    1    2    0  502  0.87821476925E+01  0.41221258191E+02  0.22005481558E+03  0.28307143993E+03  0.17300000000E+03 0. -1.
<mgrwt>
<rscale>  2 0.17805987E+03</rscale>
<asrwt>0</asrwt>
<pdfrwt beam="1">  1       21 0.41909339E-01 0.17805987E+03</pdfrwt>
<pdfrwt beam="2">  1       21 0.63340334E-01 0.17805987E+03</pdfrwt>
<totfact> 0.12757139E+04</totfact>
</mgrwt>
</event>
<event>
 4    2  0.3964208E+000  0.2539689E+03  0.7546771E-02  0.1110822E+00
         21   -1    0    0  501  502  0.00000000000E+00  0.00000000000E+00  0.70677219211E+02  0.70677219211E+02  0.00000000000E+00 0. -1.
         21   -1    0    0  502  503 -0.00000000000E+00 -0.00000000000E+00 -0.93875431279E+03  0.93875431279E+03  0.00000000000E+00 0. -1.
          6    1    1    2  501    0  0.16833084401E+03  0.78967803287E+02 -0.51827966848E+03  0.57716029122E+03  0.17300000000E+03 0. -1.
         -6    1    1    2    0  503 -0.16833084401E+03 -0.78967803287E+02 -0.34979742509E+03  0.43227124077E+03  0.17300000000E+03 0. -1.
<mgrwt>
<rscale>  2 0.25396887E+03</rscale>
<asrwt>0</asrwt>
<pdfrwt beam="1">  1       21 0.10873418E-01 0.25396887E+03</pdfrwt>
<pdfrwt beam="2">  1       21 0.14442374E+00 0.25396887E+03</pdfrwt>
<totfact> 0.22273325E+04</totfact>
</mgrwt>
</event>
<event>
 4    2  0.3964208E+000  0.1880509E+03  0.7546771E-02  0.1160231E+00
         21   -1    0    0  503  502  0.00000000000E+00  0.00000000000E+00  0.17572624474E+03  0.17572624474E+03  0.00000000000E+00 0. -1.
         21   -1    0    0  501  503 -0.00000000000E+00 -0.00000000000E+00 -0.30118628486E+03  0.30118628486E+03  0.00000000000E+00 0. -1.
          6    1    1    2  501    0 -0.14415735886E+02 -0.72293251533E+02  0.74634552389E+02  0.20232015240E+03  0.17300000000E+03 0. -1.
         -6    1    1    2    0  502  0.14415735886E+02  0.72293251533E+02 -0.20009459252E+03  0.27459237719E+03  0.17300000000E+03 0. -1.
<mgrwt>
<rscale>  2 0.18805086E+03</rscale>
<asrwt>0</asrwt>
<pdfrwt beam="1">  1       21 0.27034807E-01 0.18805086E+03</pdfrwt>
<pdfrwt beam="2">  1       21 0.46336351E-01 0.18805086E+03</pdfrwt>
<totfact> 0.58287133E+04</totfact>
</mgrwt>
</event>
<event>
 4    2  0.3964208E+000  0.2096904E+03  0.7546771E-02  0.1141811E+00
         21   -1    0    0  501  502  0.00000000000E+00  0.00000000000E+00  0.11654749435E+04  0.11654749435E+04  0.00000000000E+00 0. -1.
         21   -1    0    0  502  503 -0.00000000000E+00 -0.00000000000E+00 -0.38231680154E+02  0.38231680154E+02  0.00000000000E+00 0. -1.
          6    1    1    2  501    0  0.88536997364E+00  0.11849166162E+03  0.49448329446E+03  0.53710686669E+03  0.17300000000E+03 0. -1.
         -6    1    1    2    0  503 -0.88536997364E+00 -0.11849166162E+03  0.63275996891E+03  0.66659975698E+03  0.17300000000E+03 0. -1.
<mgrwt>
<rscale>  2 0.20969039E+03</rscale>
<asrwt>0</asrwt>
<pdfrwt beam="1">  1       21 0.17930381E+00 0.20969039E+03</pdfrwt>
<pdfrwt beam="2">  1       21 0.58817978E-02 0.20969039E+03</pdfrwt>
<totfact> 0.37120517E+04</totfact>
</mgrwt>
</event>
<event>
 4    2  0.3964208E+000  0.1733376E+03  0.7546771E-02  0.1174411E+00
         21   -1    0    0  503  502  0.00000000000E+00  0.00000000000E+00  0.46937950704E+03  0.46937950704E+03  0.00000000000E+00 0.  1.
         21   -1    0    0  501  503 -0.00000000000E+00 -0.00000000000E+00 -0.26357308326E+03  0.26357308326E+03  0.00000000000E+00 0.  1.
          6    1    1    2  501    0 -0.10343112037E+02 -0.31552313195E+01 -0.21598117261E+03  0.27693645909E+03  0.17300000000E+03 0.  1.
         -6    1    1    2    0  502  0.10343112037E+02  0.31552313195E+01  0.42178759639E+03  0.45601613121E+03  0.17300000000E+03 0.  1.
<mgrwt>
<rscale>  2 0.17333763E+03</rscale>
<asrwt>0</asrwt>
<pdfrwt beam="1">  1       21 0.72212232E-01 0.17333763E+03</pdfrwt>
<pdfrwt beam="2">  1       21 0.40549705E-01 0.17333763E+03</pdfrwt>
<totfact> 0.10274031E+04</totfact>
</mgrwt>
</event>
<event>
 4    2  0.3964208E+000  0.1807904E+03  0.7546771E-02  0.1167040E+00
         21   -1    0    0  503  502  0.00000000000E+00  0.00000000000E+00  0.45516491664E+03  0.45516491664E+03  0.00000000000E+00 0. -1.
         21   -1    0    0  501  503 -0.00000000000E+00 -0.00000000000E+00 -0.73466552530E+02  0.73466552530E+02  0.00000000000E+00 0. -1.
          6    1    1    2  501    0  0.51985452994E+02 -0.73261229640E+01  0.15115307112E+03  0.23565315680E+03  0.17300000000E+03 0. -1.
         -6    1    1    2    0  502 -0.51985452994E+02  0.73261229640E+01  0.23054529299E+03  0.29297831237E+03  0.17300000000E+03 0. -1.
<mgrwt>
<rscale>  2 0.18079037E+03</rscale>
<asrwt>0</asrwt>
<pdfrwt beam="1">  1       21 0.70025370E-01 0.18079037E+03</pdfrwt>
<pdfrwt beam="2">  1       21 0.11302547E-01 0.18079037E+03</pdfrwt>
<totfact> 0.12142398E+05</totfact>
</mgrwt>
</event>
<event>
 4    2  0.3964208E+000  0.2471846E+03  0.7546771E-02  0.1115097E+00
         21   -1    0    0  501  502  0.00000000000E+00  0.00000000000E+00  0.82715488106E+02  0.82715488106E+02  0.00000000000E+00 0. -1.
         21   -1    0    0  502  503 -0.00000000000E+00 -0.00000000000E+00 -0.88070962484E+03  0.88070962484E+03  0.00000000000E+00 0.  1.
          6    1    1    2  501    0 -0.17605970232E+03 -0.13198317211E+02 -0.59244416632E+03  0.64194260223E+03  0.17300000000E+03 0. -1.
         -6    1    1    2    0  503  0.17605970232E+03  0.13198317211E+02 -0.20554997042E+03  0.32148251072E+03  0.17300000000E+03 0. -1.
<mgrwt>
<rscale>  2 0.24718458E+03</rscale>
<asrwt>0</asrwt>
<pdfrwt beam="1">  1       21 0.12725459E-01 0.24718458E+03</pdfrwt>
<pdfrwt beam="2">  1       21 0.13549379E+00 0.24718458E+03</pdfrwt>
<totfact> 0.19897687E+04</totfact>
</mgrwt>
</event>
<event>
 4    2  0.3964208E+000  0.2495197E+03  0.7546771E-02  0.1113609E+00
         21   -1    0    0  503  502  0.00000000000E+00  0.00000000000E+00  0.46402564305E+03  0.46402564305E+03  0.00000000000E+00 0.  1.
         21   -1    0    0  501  503 -0.00000000000E+00 -0.00000000000E+00 -0.15585392566E+03  0.15585392566E+03  0.00000000000E+00 0. -1.
          6    1    1    2  501    0 -0.17980491116E+03 -0.11384453102E+01  0.38488221824E+02  0.25247068217E+03  0.17300000000E+03 0.  1.
         -6    1    1    2    0  502  0.17980491116E+03  0.11384453102E+01  0.26968349556E+03  0.36740888655E+03  0.17300000000E+03 0.  1.
<mgrwt>
<rscale>  2 0.24951974E+03</rscale>
<asrwt>0</asrwt>
<pdfrwt beam="1">  1       21 0.71388560E-01 0.24951974E+03</pdfrwt>
<pdfrwt beam="2">  1       21 0.23977527E-01 0.24951974E+03</pdfrwt>
<totfact> 0.28263115E+04</totfact>
</mgrwt>
</event>
<event>
 4    2  0.3964208E+000  0.1858817E+03  0.7546771E-02  0.1162229E+00
         21   -1    0    0  501  502  0.00000000000E+00  0.00000000000E+00  0.23234624546E+03  0.23234624546E+03  0.00000000000E+00 0. -1.
         21   -1    0    0  502  503 -0.00000000000E+00 -0.00000000000E+00 -0.25929255188E+03  0.25929255188E+03  0.00000000000E+00 0. -1.
          6    1    1    2  501    0 -0.31408369477E+02 -0.60303510329E+02  0.14706054818E+03  0.23702068235E+03  0.17300000000E+03 0. -1.
         -6    1    1    2    0  503  0.31408369477E+02  0.60303510329E+02 -0.17400685461E+03  0.25461811499E+03  0.17300000000E+03 0. -1.
<mgrwt>
<rscale>  2 0.18588168E+03</rscale>
<asrwt>0</asrwt>
<pdfrwt beam="1">  1       21 0.35745576E-01 0.18588168E+03</pdfrwt>
<pdfrwt beam="2">  1       21 0.39891162E-01 0.18588168E+03</pdfrwt>
<totfact> 0.45855910E+04</totfact>
</mgrwt>
</event>
<event>
 4    2  0.3964208E+000  0.2632721E+03  0.7546771E-02  0.1105193E+00
         21   -1    0    0  501  502  0.00000000000E+00  0.00000000000E+00  0.82818713090E+03  0.82818713090E+03  0.00000000000E+00 0. -1.
         21   -1    0    0  502  503 -0.00000000000E+00 -0.00000000000E+00 -0.10239046208E+03  0.10239046208E+03  0.00000000000E+00 0.  1.
          6    1    1    2  501    0 -0.13439791143E+03 -0.14601505901E+03  0.56173752013E+03  0.62037185427E+03  0.17300000000E+03 0. -1.
         -6    1    1    2    0  503  0.13439791143E+03  0.14601505901E+03  0.16405914869E+03  0.31020573870E+03  0.17300000000E+03 0.  1.
<mgrwt>
<rscale>  2 0.26327210E+03</rscale>
<asrwt>0</asrwt>
<pdfrwt beam="1">  1       21 0.12741340E+00 0.26327210E+03</pdfrwt>
<pdfrwt beam="2">  1       21 0.15752379E-01 0.26327210E+03</pdfrwt>
<totfact> 0.15641898E+04</totfact>
</mgrwt>
</event>
<event>
 4    2  0.3964208E+000  0.1916986E+03  0.7546771E-02  0.1156938E+00
         21   -1    0    0  503  502  0.00000000000E+00  0.00000000000E+00  0.17348385604E+04  0.17348385604E+04  0.00000000000E+00 0. -1.
         21   -1    0    0  501  503 -0.00000000000E+00 -0.00000000000E+00 -0.21326751974E+02  0.21326751974E+02  0.00000000000E+00 0.  1.
          6    1    1    2  501    0  0.76379673200E+02  0.31392438567E+02  0.78455740873E+03  0.80763770793E+03  0.17300000000E+03 0.  1.
         -6    1    1    2    0  502 -0.76379673200E+02 -0.31392438567E+02  0.92895439967E+03  0.94852760442E+03  0.17300000000E+03 0.  1.
<mgrwt>
<rscale>  2 0.19169856E+03</rscale>
<asrwt>0</asrwt>
<pdfrwt beam="1">  1       21 0.26689813E+00 0.19169856E+03</pdfrwt>
<pdfrwt beam="2">  1       21 0.32810401E-02 0.19169856E+03</pdfrwt>
<totfact> 0.28922396E+04</totfact>
</mgrwt>
</event>
<event>
 4    2  0.3964208E+000  0.1904337E+03  0.7546771E-02  0.1158071E+00
         21   -1    0    0  503  502  0.00000000000E+00  0.00000000000E+00  0.39528533168E+02  0.39528533168E+02  0.00000000000E+00 0.  1.
         21   -1    0    0  501  503 -0.00000000000E+00 -0.00000000000E+00 -0.17357976422E+04  0.17357976422E+04  0.00000000000E+00 0.  1.
          6    1    1    2  501    0  0.79298460616E+02 -0.69090834436E+01 -0.23863878407E+03  0.30530877903E+03  0.17300000000E+03 0.  1.
         -6    1    1    2    0  502 -0.79298460616E+02  0.69090834436E+01 -0.14576303249E+04  0.14700173963E+04  0.17300000000E+03 0.  1.
<mgrwt>
<rscale>  2 0.19043367E+03</rscale>
<asrwt>0</asrwt>
<pdfrwt beam="1">  1       21 0.60813131E-02 0.19043367E+03</pdfrwt>
<pdfrwt beam="2">  1       21 0.26704578E+00 0.19043367E+03</pdfrwt>
<totfact> 0.10211709E+04</totfact>
</mgrwt>
</event>
<event>
 4    2  0.3964208E+000  0.2077040E+03  0.7546771E-02  0.1143397E+00
         21   -1    0    0  501  502  0.00000000000E+00  0.00000000000E+00  0.53198343025E+02  0.53198343025E+02  0.00000000000E+00 0.  1.
         21   -1    0    0  502  503 -0.00000000000E+00 -0.00000000000E+00 -0.93518497080E+03  0.93518497080E+03  0.00000000000E+00 0.  1.
          6    1    1    2  501    0 -0.26323145872E+02  0.11188847842E+03 -0.26086706137E+03  0.33345548926E+03  0.17300000000E+03 0.  1.
         -6    1    1    2    0  503  0.26323145872E+02 -0.11188847842E+03 -0.62111956640E+03  0.65492782456E+03  0.17300000000E+03 0.  1.
<mgrwt>
<rscale>  2 0.20770397E+03</rscale>
<asrwt>0</asrwt>
<pdfrwt beam="1">  1       21 0.81843615E-02 0.20770397E+03</pdfrwt>
<pdfrwt beam="2">  1       21 0.14387459E+00 0.20770397E+03</pdfrwt>
<totfact> 0.38110113E+04</totfact>
</mgrwt>
</event>
<event>
 4    2  0.3964208E+000  0.1743431E+03  0.7546771E-02  0.1173393E+00
         21   -1    0    0  501  502  0.00000000000E+00  0.00000000000E+00  0.10474457466E+03  0.10474457466E+03  0.00000000000E+00 0.  1.
         21   -1    0    0  502  503 -0.00000000000E+00 -0.00000000000E+00 -0.38127376005E+03  0.38127376005E+03  0.00000000000E+00 0.  1.
          6    1    1    2  501    0 -0.98764065440E+01  0.19208245283E+02 -0.25704153471E+03  0.31058952116E+03  0.17300000000E+03 0.  1.
         -6    1    1    2    0  503  0.98764065440E+01 -0.19208245283E+02 -0.19487650677E+02  0.17542881355E+03  0.17300000000E+03 0.  1.
<mgrwt>
<rscale>  2 0.17434305E+03</rscale>
<asrwt>0</asrwt>
<pdfrwt beam="1">  1       21 0.16114550E-01 0.17434305E+03</pdfrwt>
<pdfrwt beam="2">  1       21 0.58657503E-01 0.17434305E+03</pdfrwt>
<totfact> 0.94288009E+04</totfact>
</mgrwt>
</event>
<event>
 4    2  0.3964208E+000  0.2811411E+03  0.7546771E-02  0.1095067E+00
         21   -1    0    0  501  502  0.00000000000E+00  0.00000000000E+00  0.11903924942E+04  0.11903924942E+04  0.00000000000E+00 0. -1.
         21   -1    0    0  502  503 -0.00000000000E+00 -0.00000000000E+00 -0.18300886829E+03  0.18300886829E+03  0.00000000000E+00 0. -1.
          6    1    1    2  501    0 -0.14755419049E+03 -0.16534535263E+03  0.10518424432E+04  0.10887666646E+04  0.17300000000E+03 0. -1.
         -6    1    1    2    0  503  0.14755419049E+03  0.16534535263E+03 -0.44458817291E+02  0.28463469782E+03  0.17300000000E+03 0. -1.
<mgrwt>
<rscale>  2 0.28114111E+03</rscale>
<asrwt>0</asrwt>
<pdfrwt beam="1">  1       21 0.18313730E+00 0.28114111E+03</pdfrwt>
<pdfrwt beam="2">  1       21 0.28155211E-01 0.28114111E+03</pdfrwt>
<totfact> 0.19379734E+03</totfact>
</mgrwt>
</event>
<event>
 4    2  0.3964208E+000  0.3321502E+03  0.7546771E-02  0.1070189E+00
         21   -1    0    0  503  502  0.00000000000E+00  0.00000000000E+00  0.15526303588E+03  0.15526303588E+03  0.00000000000E+00 0.  1.
         21   -1    0    0  501  503 -0.00000000000E+00 -0.00000000000E+00 -0.77167865353E+03  0.77167865353E+03  0.00000000000E+00 0.  1.
          6    1    1    2  501    0 -0.10230626483E+02  0.28335502397E+03 -0.43864166081E+03  0.55020927103E+03  0.17300000000E+03 0.  1.
         -6    1    1    2    0  502  0.10230626483E+02 -0.28335502397E+03 -0.17777395684E+03  0.37673241838E+03  0.17300000000E+03 0.  1.
<mgrwt>
<rscale>  2 0.33215017E+03</rscale>
<asrwt>0</asrwt>
<pdfrwt beam="1">  1       21 0.23886621E-01 0.33215017E+03</pdfrwt>
<pdfrwt beam="2">  1       21 0.11871979E+00 0.33215017E+03</pdfrwt>
<totfact> 0.82720355E+03</totfact>
</mgrwt>
</event>
<event>
 4    2  0.3964208E+000  0.1735496E+03  0.7546771E-02  0.1174196E+00
         21   -1    0    0  503  502  0.00000000000E+00  0.00000000000E+00  0.14112362250E+04  0.14112362250E+04  0.00000000000E+00 0. -1.
         21   -1    0    0  501  503 -0.00000000000E+00 -0.00000000000E+00 -0.28200198301E+02  0.28200198301E+02  0.00000000000E+00 0. -1.
          6    1    1    2  501    0  0.79134463426E+01  0.11306958383E+02  0.33660494558E+03  0.37871144600E+03  0.17300000000E+03 0.  1.
         -6    1    1    2    0  502 -0.79134463426E+01 -0.11306958383E+02  0.10464310811E+04  0.10607249773E+04  0.17300000000E+03 0.  1.
<mgrwt>
<rscale>  2 0.17354962E+03</rscale>
<asrwt>0</asrwt>
<pdfrwt beam="1">  1       21 0.21711321E+00 0.17354962E+03</pdfrwt>
<pdfrwt beam="2">  1       21 0.43384931E-02 0.17354962E+03</pdfrwt>
<totfact> 0.36343238E+04</totfact>
</mgrwt>
</event>
<event>
 4    2  0.3964208E+000  0.1985799E+03  0.7546771E-02  0.1150943E+00
         21   -1    0    0  503  502  0.00000000000E+00  0.00000000000E+00  0.61007132379E+03  0.61007132379E+03  0.00000000000E+00 0.  1.
         21   -1    0    0  501  503 -0.00000000000E+00 -0.00000000000E+00 -0.75024790190E+02  0.75024790190E+02  0.00000000000E+00 0.  1.
          6    1    1    2  501    0  0.53767596290E+02  0.81326707527E+02  0.14006939773E+03  0.24300910261E+03  0.17300000000E+03 0.  1.
         -6    1    1    2    0  502 -0.53767596290E+02 -0.81326707527E+02  0.39497713587E+03  0.44208701138E+03  0.17300000000E+03 0.  1.
<mgrwt>
<rscale>  2 0.19857993E+03</rscale>
<asrwt>0</asrwt>
<pdfrwt beam="1">  1       21 0.93857124E-01 0.19857993E+03</pdfrwt>
<pdfrwt beam="2">  1       21 0.11542276E-01 0.19857993E+03</pdfrwt>
<totfact> 0.59770737E+04</totfact>
</mgrwt>
</event>
<event>
 4    2  0.3964208E+000  0.1913696E+03  0.7546771E-02  0.1157232E+00
         21   -1    0    0  501  502  0.00000000000E+00  0.00000000000E+00  0.42266892119E+03  0.42266892119E+03  0.00000000000E+00 0.  1.
         21   -1    0    0  502  503 -0.00000000000E+00 -0.00000000000E+00 -0.13145985614E+03  0.13145985614E+03  0.00000000000E+00 0. -1.
          6    1    1    2  501    0  0.81263085967E+02 -0.94675929406E+01  0.30737272055E+03  0.36207777313E+03  0.17300000000E+03 0.  1.
         -6    1    1    2    0  503 -0.81263085967E+02  0.94675929406E+01 -0.16163655503E+02  0.19205100421E+03  0.17300000000E+03 0. -1.
<mgrwt>
<rscale>  2 0.19136960E+03</rscale>
<asrwt>0</asrwt>
<pdfrwt beam="1">  1       21 0.65025987E-01 0.19136960E+03</pdfrwt>
<pdfrwt beam="2">  1       21 0.20224593E-01 0.19136960E+03</pdfrwt>
<totfact> 0.49259622E+04</totfact>
</mgrwt>
</event>
<event>
 4    2  0.3964208E+000  0.3106372E+03  0.7546771E-02  0.1080041E+00
         21   -1    0    0  503  502  0.00000000000E+00  0.00000000000E+00  0.22845395814E+03  0.22845395814E+03  0.00000000000E+00 0. -1.
         21   -1    0    0  501  503 -0.00000000000E+00 -0.00000000000E+00 -0.58501533670E+03  0.58501533670E+03  0.00000000000E+00 0.  1.
          6    1    1    2  501    0  0.24069698353E+03 -0.92905641688E+02 -0.39273189540E+03  0.50073330007E+03  0.17300000000E+03 0. -1.
         -6    1    1    2    0  502 -0.24069698353E+03  0.92905641688E+02  0.36170516839E+02  0.31273599477E+03  0.17300000000E+03 0. -1.
<mgrwt>
<rscale>  2 0.31063724E+03</rscale>
<asrwt>0</asrwt>
<pdfrwt beam="1">  1       21 0.35146763E-01 0.31063724E+03</pdfrwt>
<pdfrwt beam="2">  1       21 0.90002359E-01 0.31063724E+03</pdfrwt>
<totfact> 0.76519082E+03</totfact>
</mgrwt>
</event>
<event>
 4    2  0.3964208E+000  0.2245566E+03  0.7546771E-02  0.1130531E+00
         21   -1    0    0  501  502  0.00000000000E+00  0.00000000000E+00  0.28912807589E+03  0.28912807589E+03  0.00000000000E+00 0.  1.
         21   -1    0    0  502  503 -0.00000000000E+00 -0.00000000000E+00 -0.18783315776E+03  0.18783315776E+03  0.00000000000E+00 0. -1.
          6    1    1    2  501    0  0.14183265055E+03  0.19497575484E+02 -0.13114234058E+02  0.22493919033E+03  0.17300000000E+03 0.  1.
         -6    1    1    2    0  503 -0.14183265055E+03 -0.19497575484E+02  0.11440915219E+03  0.25202204332E+03  0.17300000000E+03 0.  1.
<mgrwt>
<rscale>  2 0.22455658E+03</rscale>
<asrwt>0</asrwt>
<pdfrwt beam="1">  1       21 0.44481242E-01 0.22455658E+03</pdfrwt>
<pdfrwt beam="2">  1       21 0.28897409E-01 0.22455658E+03</pdfrwt>
<totfact> 0.54810806E+04</totfact>
</mgrwt>
</event>
<event>
 4    2  0.3964208E+000  0.4084014E+03  0.7546771E-02  0.1040909E+00
         21   -1    0    0  501  502  0.00000000000E+00  0.00000000000E+00  0.35854141090E+03  0.35854141090E+03  0.00000000000E+00 0. -1.
         21   -1    0    0  502  503 -0.00000000000E+00 -0.00000000000E+00 -0.54263059857E+03  0.54263059857E+03  0.00000000000E+00 0.  1.
          6    1    1    2  501    0 -0.36991163637E+03  0.53030140572E+01  0.78169433897E+02  0.41581510444E+03  0.17300000000E+03 0. -1.
         -6    1    1    2    0  503  0.36991163637E+03 -0.53030140572E+01 -0.26225862156E+03  0.48535690504E+03  0.17300000000E+03 0.  1.
<mgrwt>
<rscale>  2 0.40840145E+03</rscale>
<asrwt>0</asrwt>
<pdfrwt beam="1">  1       21 0.55160218E-01 0.40840145E+03</pdfrwt>
<pdfrwt beam="2">  1       21 0.83481630E-01 0.40840145E+03</pdfrwt>
<totfact> 0.34295883E+03</totfact>
</mgrwt>
</event>
<event>
 4    2  0.3964208E+000  0.3353595E+03  0.7546771E-02  0.1068790E+00
         21   -1    0    0  503  502  0.00000000000E+00  0.00000000000E+00  0.23482933060E+03  0.23482933060E+03  0.00000000000E+00 0.  1.
         21   -1    0    0  501  503 -0.00000000000E+00 -0.00000000000E+00 -0.52593349917E+03  0.52593349917E+03  0.00000000000E+00 0. -1.
          6    1    1    2  501    0 -0.15074747954E+03  0.24456536287E+03 -0.25927148127E+03  0.42389588380E+03  0.17300000000E+03 0. -1.
         -6    1    1    2    0  502  0.15074747954E+03 -0.24456536287E+03 -0.31832687306E+02  0.33686694597E+03  0.17300000000E+03 0.  1.
<mgrwt>
<rscale>  2 0.33535954E+03</rscale>
<asrwt>0</asrwt>
<pdfrwt beam="1">  1       21 0.36127590E-01 0.33535954E+03</pdfrwt>
<pdfrwt beam="2">  1       21 0.80912845E-01 0.33535954E+03</pdfrwt>
<totfact> 0.91699448E+03</totfact>
</mgrwt>
</event>
<event>
 4    2  0.3964208E+000  0.2148822E+03  0.7546771E-02  0.1137757E+00
         21   -1    0    0  503  502  0.00000000000E+00  0.00000000000E+00  0.26151968105E+03  0.26151968105E+03  0.00000000000E+00 0.  1.
         21   -1    0    0  501  503 -0.00000000000E+00 -0.00000000000E+00 -0.22000396010E+03  0.22000396010E+03  0.00000000000E+00 0.  1.
          6    1    1    2  501    0  0.12188512260E+03 -0.37274117485E+02 -0.86228617619E+02  0.23153772358E+03  0.17300000000E+03 0.  1.
         -6    1    1    2    0  502 -0.12188512260E+03  0.37274117485E+02  0.12774433857E+03  0.24998591757E+03  0.17300000000E+03 0.  1.
<mgrwt>
<rscale>  2 0.21488216E+03</rscale>
<asrwt>0</asrwt>
<pdfrwt beam="1">  1       21 0.40233797E-01 0.21488216E+03</pdfrwt>
<pdfrwt beam="2">  1       21 0.33846763E-01 0.21488216E+03</pdfrwt>
<totfact> 0.49530418E+04</totfact>
</mgrwt>
</event>
<event>
 4    2  0.3964208E+000  0.1794358E+03  0.7546771E-02  0.1168350E+00
         21   -1    0    0  501  502  0.00000000000E+00  0.00000000000E+00  0.18898809734E+03  0.18898809734E+03  0.00000000000E+00 0.  1.
         21   -1    0    0  502  503 -0.00000000000E+00 -0.00000000000E+00 -0.25130425602E+03  0.25130425602E+03  0.00000000000E+00 0.  1.
          6    1    1    2  501    0  0.35376287226E+02  0.31886359305E+02  0.93777770728E+02  0.20246355694E+03  0.17300000000E+03 0.  1.
         -6    1    1    2    0  503 -0.35376287226E+02 -0.31886359305E+02 -0.15609392941E+03  0.23782879642E+03  0.17300000000E+03 0.  1.
<mgrwt>
<rscale>  2 0.17943584E+03</rscale>
<asrwt>0</asrwt>
<pdfrwt beam="1">  1       21 0.29075092E-01 0.17943584E+03</pdfrwt>
<pdfrwt beam="2">  1       21 0.38662193E-01 0.17943584E+03</pdfrwt>
<totfact> 0.73465117E+04</totfact>
</mgrwt>
</event>
<event>
 4    2  0.3964208E+000  0.1767985E+03  0.7546771E-02  0.1170938E+00
         21   -1    0    0  501  502  0.00000000000E+00  0.00000000000E+00  0.59224732179E+02  0.59224732179E+02  0.00000000000E+00 0. -1.
         21   -1    0    0  502  503 -0.00000000000E+00 -0.00000000000E+00 -0.62535453713E+03  0.62535453713E+03  0.00000000000E+00 0. -1.
          6    1    1    2  501    0 -0.34525087572E+02  0.11693706292E+02 -0.14785912042E+03  0.23047785996E+03  0.17300000000E+03 0. -1.
         -6    1    1    2    0  503  0.34525087572E+02 -0.11693706292E+02 -0.41827068453E+03  0.45410140935E+03  0.17300000000E+03 0. -1.
<mgrwt>
<rscale>  2 0.17679854E+03</rscale>
<asrwt>0</asrwt>
<pdfrwt beam="1">  1       21 0.91114976E-02 0.17679854E+03</pdfrwt>
<pdfrwt beam="2">  1       21 0.96208387E-01 0.17679854E+03</pdfrwt>
<totfact> 0.86553900E+04</totfact>
</mgrwt>
</event>
<event>
 4    2  0.3964208E+000  0.2121842E+03  0.7546771E-02  0.1139848E+00
         21   -1    0    0  503  502  0.00000000000E+00  0.00000000000E+00  0.12355351983E+04  0.12355351983E+04  0.00000000000E+00 0. -1.
         21   -1    0    0  501  503 -0.00000000000E+00 -0.00000000000E+00 -0.37194115744E+02  0.37194115744E+02  0.00000000000E+00 0. -1.
          6    1    1    2  501    0  0.32863465440E+02 -0.11837703992E+03  0.50852056225E+03  0.55101297006E+03  0.17300000000E+03 0. -1.
         -6    1    1    2    0  502 -0.32863465440E+02  0.11837703992E+03  0.68982052030E+03  0.72171634398E+03  0.17300000000E+03 0. -1.
<mgrwt>
<rscale>  2 0.21218419E+03</rscale>
<asrwt>0</asrwt>
<pdfrwt beam="1">  1       21 0.19008231E+00 0.21218419E+03</pdfrwt>
<pdfrwt beam="2">  1       21 0.57221726E-02 0.21218419E+03</pdfrwt>
<totfact> 0.32874865E+04</totfact>
</mgrwt>
</event>
<event>
 4    2  0.3964208E+000  0.2128469E+03  0.7546771E-02  0.1139331E+00
         21   -1    0    0  503  502  0.00000000000E+00  0.00000000000E+00  0.11542595497E+03  0.11542595497E+03  0.00000000000E+00 0. -1.
         21   -1    0    0  501  503 -0.00000000000E+00 -0.00000000000E+00 -0.46873507864E+03  0.46873507864E+03  0.00000000000E+00 0. -1.
          6    1    1    2  501    0 -0.10640776046E+03 -0.63656905998E+02 -0.29445254569E+03  0.36332645765E+03  0.17300000000E+03 0. -1.
         -6    1    1    2    0  502  0.10640776046E+03  0.63656905998E+02 -0.58856577986E+02  0.22083457596E+03  0.17300000000E+03 0. -1.
<mgrwt>
<rscale>  2 0.21284692E+03</rscale>
<asrwt>0</asrwt>
<pdfrwt beam="1">  1       21 0.17757839E-01 0.21284692E+03</pdfrwt>
<pdfrwt beam="2">  1       21 0.72113090E-01 0.21284692E+03</pdfrwt>
<totfact> 0.49454467E+04</totfact>
</mgrwt>
</event>
<event>
 4    2  0.3964208E+000  0.1808935E+03  0.7546771E-02  0.1166941E+00
         21   -1    0    0  503  502  0.00000000000E+00  0.00000000000E+00  0.17326535228E+04  0.17326535228E+04  0.00000000000E+00 0. -1.
         21   -1    0    0  501  503 -0.00000000000E+00 -0.00000000000E+00 -0.28168092824E+02  0.28168092824E+02  0.00000000000E+00 0. -1.
          6    1    1    2  501    0  0.42181925214E+02  0.31845463822E+02  0.34684227030E+03  0.39118027666E+03  0.17300000000E+03 0. -1.
         -6    1    1    2    0  502 -0.42181925214E+02 -0.31845463822E+02  0.13576431596E+04  0.13696413389E+04  0.17300000000E+03 0. -1.
<mgrwt>
<rscale>  2 0.18089347E+03</rscale>
<asrwt>0</asrwt>
<pdfrwt beam="1">  1       21 0.26656200E+00 0.18089347E+03</pdfrwt>
<pdfrwt beam="2">  1       21 0.43335541E-02 0.18089347E+03</pdfrwt>
<totfact> 0.18434163E+04</totfact>
</mgrwt>
</event>
<event>
 4    2  0.3964208E+000  0.2008819E+03  0.7546771E-02  0.1148997E+00
         21   -1    0    0  501  502  0.00000000000E+00  0.00000000000E+00  0.41134551263E+03  0.41134551263E+03  0.00000000000E+00 0. -1.
         21   -1    0    0  502  503 -0.00000000000E+00 -0.00000000000E+00 -0.10161645469E+03  0.10161645469E+03  0.00000000000E+00 0. -1.
          6    1    1    2  501    0  0.96711088078E+02  0.32733968795E+02  0.20256720127E+03  0.28528410103E+03  0.17300000000E+03 0. -1.
         -6    1    1    2    0  503 -0.96711088078E+02 -0.32733968795E+02  0.10716185667E+03  0.22767786628E+03  0.17300000000E+03 0. -1.
<mgrwt>
<rscale>  2 0.20088192E+03</rscale>
<asrwt>0</asrwt>
<pdfrwt beam="1">  1       21 0.63283924E-01 0.20088192E+03</pdfrwt>
<pdfrwt beam="2">  1       21 0.15633301E-01 0.20088192E+03</pdfrwt>
<totfact> 0.83731572E+04</totfact>
</mgrwt>
</event>
<event>
 4    2  0.3964208E+000  0.1839897E+03  0.7546771E-02  0.1163997E+00
         21   -1    0    0  503  502  0.00000000000E+00  0.00000000000E+00  0.21137246047E+03  0.21137246047E+03  0.00000000000E+00 0.  1.
         21   -1    0    0  501  503 -0.00000000000E+00 -0.00000000000E+00 -0.16230880869E+03  0.16230880869E+03  0.00000000000E+00 0.  1.
          6    1    1    2  501    0  0.48882417470E+01  0.62444353438E+02  0.30048924453E+01  0.18401418848E+03  0.17300000000E+03 0. -1.
         -6    1    1    2    0  502 -0.48882417470E+01 -0.62444353438E+02  0.46058759333E+02  0.18966708068E+03  0.17300000000E+03 0. -1.
<mgrwt>
<rscale>  2 0.18398965E+03</rscale>
<asrwt>0</asrwt>
<pdfrwt beam="1">  1       21 0.32518840E-01 0.18398965E+03</pdfrwt>
<pdfrwt beam="2">  1       21 0.24970586E-01 0.18398965E+03</pdfrwt>
<totfact> 0.13854150E+05</totfact>
</mgrwt>
</event>
<event>
 4    2  0.3964208E+000  0.1785405E+03  0.7546771E-02  0.1169223E+00
         21   -1    0    0  503  502  0.00000000000E+00  0.00000000000E+00  0.10304006004E+04  0.10304006004E+04  0.00000000000E+00 0.  1.
         21   -1    0    0  501  503 -0.00000000000E+00 -0.00000000000E+00 -0.31006565388E+02  0.31006565388E+02  0.00000000000E+00 0.  1.
          6    1    1    2  501    0  0.22467615640E+02  0.37985894009E+02  0.47442287793E+03  0.50690609486E+03  0.17300000000E+03 0. -1.
         -6    1    1    2    0  502 -0.22467615640E+02 -0.37985894009E+02  0.52497115703E+03  0.55450107089E+03  0.17300000000E+03 0. -1.
<mgrwt>
<rscale>  2 0.17854053E+03</rscale>
<asrwt>0</asrwt>
<pdfrwt beam="1">  1       21 0.15852314E+00 0.17854053E+03</pdfrwt>
<pdfrwt beam="2">  1       21 0.47702416E-02 0.17854053E+03</pdfrwt>
<totfact> 0.75732579E+04</totfact>
</mgrwt>
</event>
<event>
 4    2  0.3964208E+000  0.2163821E+03  0.7546771E-02  0.1136609E+00
         21   -1    0    0  503  502  0.00000000000E+00  0.00000000000E+00  0.34065593583E+03  0.34065593583E+03  0.00000000000E+00 0.  1.
         21   -1    0    0  501  503 -0.00000000000E+00 -0.00000000000E+00 -0.17386575929E+03  0.17386575929E+03  0.00000000000E+00 0.  1.
          6    1    1    2  501    0 -0.10888635606E+03  0.70964718159E+02 -0.34350625598E+02  0.21909175073E+03  0.17300000000E+03 0.  1.
         -6    1    1    2    0  502  0.10888635606E+03 -0.70964718159E+02  0.20114080213E+03  0.29542994439E+03  0.17300000000E+03 0.  1.
<mgrwt>
<rscale>  2 0.21638214E+03</rscale>
<asrwt>0</asrwt>
<pdfrwt beam="1">  1       21 0.52408605E-01 0.21638214E+03</pdfrwt>
<pdfrwt beam="2">  1       21 0.26748578E-01 0.21638214E+03</pdfrwt>
<totfact> 0.45419165E+04</totfact>
</mgrwt>
</event>
<event>
 4    2  0.3964208E+000  0.1829041E+03  0.7546771E-02  0.1165022E+00
         21   -1    0    0  503  502  0.00000000000E+00  0.00000000000E+00  0.26235166344E+03  0.26235166344E+03  0.00000000000E+00 0. -1.
         21   -1    0    0  501  503 -0.00000000000E+00 -0.00000000000E+00 -0.18295612428E+03  0.18295612428E+03  0.00000000000E+00 0. -1.
          6    1    1    2  501    0  0.55902106536E+02 -0.19996562347E+02 -0.82868454777E+02  0.20080111757E+03  0.17300000000E+03 0. -1.
         -6    1    1    2    0  502 -0.55902106536E+02  0.19996562347E+02  0.16226399393E+03  0.24450667015E+03  0.17300000000E+03 0. -1.
<mgrwt>
<rscale>  2 0.18290410E+03</rscale>
<asrwt>0</asrwt>
<pdfrwt beam="1">  1       21 0.40361794E-01 0.18290410E+03</pdfrwt>
<pdfrwt beam="2">  1       21 0.28147096E-01 0.18290410E+03</pdfrwt>
<totfact> 0.71629103E+04</totfact>
</mgrwt>
</event>
<event>
 4    2  0.3964208E+000  0.1955268E+03  0.7546771E-02  0.1153569E+00
         21   -1    0    0  501  502  0.00000000000E+00  0.00000000000E+00  0.21727009332E+03  0.21727009332E+03  0.00000000000E+00 0.  1.
         21   -1    0    0  502  503 -0.00000000000E+00 -0.00000000000E+00 -0.19229843331E+03  0.19229843331E+03  0.00000000000E+00 0.  1.
          6    1    1    2  501    0  0.60541403336E+02 -0.68091751802E+02 -0.47206684337E+02  0.20114477181E+03  0.17300000000E+03 0.  1.
         -6    1    1    2    0  503 -0.60541403336E+02  0.68091751802E+02  0.72178344343E+02  0.20842375482E+03  0.17300000000E+03 0.  1.
<mgrwt>
<rscale>  2 0.19552685E+03</rscale>
<asrwt>0</asrwt>
<pdfrwt beam="1">  1       21 0.33426168E-01 0.19552685E+03</pdfrwt>
<pdfrwt beam="2">  1       21 0.29584374E-01 0.19552685E+03</pdfrwt>
<totfact> 0.94275669E+04</totfact>
</mgrwt>
</event>
<event>
 4    2  0.3964208E+000  0.1898230E+03  0.7546771E-02  0.1158621E+00
         21   -1    0    0  501  502  0.00000000000E+00  0.00000000000E+00  0.33242682263E+02  0.33242682263E+02  0.00000000000E+00 0.  1.
         21   -1    0    0  502  503 -0.00000000000E+00 -0.00000000000E+00 -0.30399385799E+04  0.30399385799E+04  0.00000000000E+00 0.  1.
          6    1    1    2  501    0 -0.32166849843E+02  0.71197276924E+02 -0.27077936419E+03  0.33068749983E+03  0.17300000000E+03 0.  1.
         -6    1    1    2    0  503  0.32166849843E+02 -0.71197276924E+02 -0.27359165334E+04  0.27424937623E+04  0.17300000000E+03 0.  1.
<mgrwt>
<rscale>  2 0.18982297E+03</rscale>
<asrwt>0</asrwt>
<pdfrwt beam="1">  1       21 0.51142584E-02 0.18982297E+03</pdfrwt>
<pdfrwt beam="2">  1       21 0.46768290E+00 0.18982297E+03</pdfrwt>
<totfact> 0.82366933E+02</totfact>
</mgrwt>
</event>
<event>
 4    2  0.3964208E+000  0.2568927E+03  0.7546771E-02  0.1109025E+00
         21   -1    0    0  501  502  0.00000000000E+00  0.00000000000E+00  0.98775534017E+03  0.98775534017E+03  0.00000000000E+00 0. -1.
         21   -1    0    0  502  503 -0.00000000000E+00 -0.00000000000E+00 -0.72030451139E+02  0.72030451139E+02  0.00000000000E+00 0. -1.
          6    1    1    2  501    0  0.10482035958E+03 -0.15835899658E+03  0.31523532453E+03  0.40665364797E+03  0.17300000000E+03 0. -1.
         -6    1    1    2    0  503 -0.10482035958E+03  0.15835899658E+03  0.60048956450E+03  0.65313214334E+03  0.17300000000E+03 0. -1.
<mgrwt>
<rscale>  2 0.25689274E+03</rscale>
<asrwt>0</asrwt>
<pdfrwt beam="1">  1       21 0.15196235E+00 0.25689274E+03</pdfrwt>
<pdfrwt beam="2">  1       21 0.11081609E-01 0.25689274E+03</pdfrwt>
<totfact> 0.18784039E+04</totfact>
</mgrwt>
</event>
<event>
 4    2  0.3964208E+000  0.1874260E+03  0.7546771E-02  0.1160804E+00
         21   -1    0    0  503  502  0.00000000000E+00  0.00000000000E+00  0.45183171251E+03  0.45183171251E+03  0.00000000000E+00 0. -1.
         21   -1    0    0  501  503 -0.00000000000E+00 -0.00000000000E+00 -0.15318132883E+03  0.15318132883E+03  0.00000000000E+00 0.  1.
          6    1    1    2  501    0 -0.12850292949E+02  0.70953417912E+02 -0.62958489781E+02  0.19771770021E+03  0.17300000000E+03 0.  1.
         -6    1    1    2    0  502  0.12850292949E+02 -0.70953417912E+02  0.36160887346E+03  0.40729534113E+03  0.17300000000E+03 0. -1.
<mgrwt>
<rscale>  2 0.18742603E+03</rscale>
<asrwt>0</asrwt>
<pdfrwt beam="1">  1       21 0.69512571E-01 0.18742603E+03</pdfrwt>
<pdfrwt beam="2">  1       21 0.23566358E-01 0.18742603E+03</pdfrwt>
<totfact> 0.31980922E+04</totfact>
</mgrwt>
</event>
<event>
 4    2  0.3964208E+000  0.3390976E+03  0.7546771E-02  0.1067181E+00
         21   -1    0    0  501  502  0.00000000000E+00  0.00000000000E+00  0.40583202769E+03  0.40583202769E+03  0.00000000000E+00 0. -1.
         21   -1    0    0  502  503 -0.00000000000E+00 -0.00000000000E+00 -0.29075906600E+03  0.29075906600E+03  0.00000000000E+00 0.  1.
          6    1    1    2  501    0 -0.85281561817E+02  0.27890002613E+03  0.11318428236E+03  0.35748825314E+03  0.17300000000E+03 0. -1.
         -6    1    1    2    0  503  0.85281561817E+02 -0.27890002613E+03  0.18886793344E+01  0.33910284055E+03  0.17300000000E+03 0.  1.
<mgrwt>
<rscale>  2 0.33909758E+03</rscale>
<asrwt>0</asrwt>
<pdfrwt beam="1">  1       21 0.62435696E-01 0.33909758E+03</pdfrwt>
<pdfrwt beam="2">  1       21 0.44732164E-01 0.33909758E+03</pdfrwt>
<totfact> 0.10573742E+04</totfact>
</mgrwt>
</event>
<event>
 4    2  0.3964208E+000  0.2260972E+03  0.7546771E-02  0.1129417E+00
         21   -1    0    0  501  502  0.00000000000E+00  0.00000000000E+00  0.63548175129E+03  0.63548175129E+03  0.00000000000E+00 0. -1.
         21   -1    0    0  502  503 -0.00000000000E+00 -0.00000000000E+00 -0.13255691352E+03  0.13255691352E+03  0.00000000000E+00 0. -1.
          6    1    1    2  501    0  0.11489315331E+03  0.89389548301E+02  0.49224751188E+03  0.54168952452E+03  0.17300000000E+03 0. -1.
         -6    1    1    2    0  503 -0.11489315331E+03 -0.89389548301E+02  0.10677325888E+02  0.22634914029E+03  0.17300000000E+03 0. -1.
<mgrwt>
<rscale>  2 0.22609717E+03</rscale>
<asrwt>0</asrwt>
<pdfrwt beam="1">  1       21 0.97766422E-01 0.22609717E+03</pdfrwt>
<pdfrwt beam="2">  1       21 0.20393372E-01 0.22609717E+03</pdfrwt>
<totfact> 0.18891469E+04</totfact>
</mgrwt>
</event>
<event>
 4    2  0.3964208E+000  0.1736676E+03  0.7546771E-02  0.1174076E+00
         21   -1    0    0  503  502  0.00000000000E+00  0.00000000000E+00  0.49676665177E+03  0.49676665177E+03  0.00000000000E+00 0.  1.
         21   -1    0    0  501  503 -0.00000000000E+00 -0.00000000000E+00 -0.98501843645E+02  0.98501843645E+02  0.00000000000E+00 0.  1.
          6    1    1    2  501    0  0.74089325077E+01 -0.13287458504E+02  0.14783918932E+02  0.17429576327E+03  0.17300000000E+03 0.  1.
         -6    1    1    2    0  502 -0.74089325077E+01  0.13287458504E+02  0.38348088920E+03  0.42097273215E+03  0.17300000000E+03 0.  1.
<mgrwt>
<rscale>  2 0.17366764E+03</rscale>
<asrwt>0</asrwt>
<pdfrwt beam="1">  1       21 0.76425637E-01 0.17366764E+03</pdfrwt>
<pdfrwt beam="2">  1       21 0.15154130E-01 0.17366764E+03</pdfrwt>
<totfact> 0.59216075E+04</totfact>
</mgrwt>
</event>
<event>
 4    2  0.3964208E+000  0.2584344E+03  0.7546771E-02  0.1108088E+00
         21   -1    0    0  501  502  0.00000000000E+00  0.00000000000E+00  0.96936446476E+03  0.96936446476E+03  0.00000000000E+00 0.  1.
         21   -1    0    0  502  503 -0.00000000000E+00 -0.00000000000E+00 -0.81861038586E+02  0.81861038586E+02  0.00000000000E+00 0. -1.
          6    1    1    2  501    0 -0.10748170165E+03  0.15908185375E+03  0.65290371199E+03  0.70219057919E+03  0.17300000000E+03 0.  1.
         -6    1    1    2    0  503  0.10748170165E+03 -0.15908185375E+03  0.23459971419E+03  0.34903492415E+03  0.17300000000E+03 0. -1.
<mgrwt>
<rscale>  2 0.25843443E+03</rscale>
<asrwt>0</asrwt>
<pdfrwt beam="1">  1       21 0.14913299E+00 0.25843443E+03</pdfrwt>
<pdfrwt beam="2">  1       21 0.12594007E-01 0.25843443E+03</pdfrwt>
<totfact> 0.15675598E+04</totfact>
</mgrwt>
</event>
<event>
 4    2  0.3964208E+000  0.1875335E+03  0.7546771E-02  0.1160705E+00
         21   -1    0    0  503  502  0.00000000000E+00  0.00000000000E+00  0.71133710823E+03  0.71133710823E+03  0.00000000000E+00 0.  1.
         21   -1    0    0  501  503 -0.00000000000E+00 -0.00000000000E+00 -0.13657240037E+03  0.13657240037E+03  0.00000000000E+00 0.  1.
          6    1    1    2  501    0 -0.51483953356E+02  0.50884331790E+02 -0.51248718163E+02  0.19440998891E+03  0.17300000000E+03 0.  1.
         -6    1    1    2    0  502  0.51483953356E+02 -0.50884331790E+02  0.62601342602E+03  0.65349951969E+03  0.17300000000E+03 0.  1.
<mgrwt>
<rscale>  2 0.18753350E+03</rscale>
<asrwt>0</asrwt>
<pdfrwt beam="1">  1       21 0.10943648E+00 0.18753350E+03</pdfrwt>
<pdfrwt beam="2">  1       21 0.21011139E-01 0.18753350E+03</pdfrwt>
<totfact> 0.13965544E+04</totfact>
</mgrwt>
</event>
<event>
 4    2  0.3964208E+000  0.2276693E+03  0.7546771E-02  0.1128291E+00
         21   -1    0    0  503  502  0.00000000000E+00  0.00000000000E+00  0.31119478517E+03  0.31119478517E+03  0.00000000000E+00 0.  1.
         21   -1    0    0  501  503 -0.00000000000E+00 -0.00000000000E+00 -0.25350241059E+03  0.25350241059E+03  0.00000000000E+00 0.  1.
          6    1    1    2  501    0 -0.87868685556E+02  0.11909404069E+03 -0.13650406630E+03  0.26545556416E+03  0.17300000000E+03 0.  1.
         -6    1    1    2    0  502  0.87868685556E+02 -0.11909404069E+03  0.19419644088E+03  0.29924163160E+03  0.17300000000E+03 0.  1.
<mgrwt>
<rscale>  2 0.22766927E+03</rscale>
<asrwt>0</asrwt>
<pdfrwt beam="1">  1       21 0.47876121E-01 0.22766927E+03</pdfrwt>
<pdfrwt beam="2">  1       21 0.39000371E-01 0.22766927E+03</pdfrwt>
<totfact> 0.25937159E+04</totfact>
</mgrwt>
</event>
<event>
 4    2  0.3964208E+000  0.1816358E+03  0.7546771E-02  0.1166229E+00
         21   -1    0    0  501  502  0.00000000000E+00  0.00000000000E+00  0.16506878100E+03  0.16506878100E+03  0.00000000000E+00 0. -1.
         21   -1    0    0  502  503 -0.00000000000E+00 -0.00000000000E+00 -0.21231378648E+03  0.21231378648E+03  0.00000000000E+00 0. -1.
          6    1    1    2  501    0 -0.60828743288E+01 -0.55005120019E+02  0.22067002690E+02  0.18297135622E+03  0.17300000000E+03 0. -1.
         -6    1    1    2    0  503  0.60828743288E+01  0.55005120019E+02 -0.69312008165E+02  0.19441121126E+03  0.17300000000E+03 0. -1.
<mgrwt>
<rscale>  2 0.18163580E+03</rscale>
<asrwt>0</asrwt>
<pdfrwt beam="1">  1       21 0.25395197E-01 0.18163580E+03</pdfrwt>
<pdfrwt beam="2">  1       21 0.32663660E-01 0.18163580E+03</pdfrwt>
<totfact> 0.13309361E+05</totfact>
</mgrwt>
</event>
<event>
 4    2  0.3964208E+000  0.1920404E+03  0.7546771E-02  0.1156634E+00
         21   -1    0    0  501  502  0.00000000000E+00  0.00000000000E+00  0.77366703911E+02  0.77366703911E+02  0.00000000000E+00 0.  1.
         21   -1    0    0  502  503 -0.00000000000E+00 -0.00000000000E+00 -0.95012887049E+03  0.95012887049E+03  0.00000000000E+00 0.  1.
          6    1    1    2  501    0  0.68759542254E+02  0.47144798989E+02 -0.73726478412E+02  0.20570634492E+03  0.17300000000E+03 0.  1.
         -6    1    1    2    0  503 -0.68759542254E+02 -0.47144798989E+02 -0.79903568817E+03  0.82178922948E+03  0.17300000000E+03 0.  1.
<mgrwt>
<rscale>  2 0.19204038E+03</rscale>
<asrwt>0</asrwt>
<pdfrwt beam="1">  1       21 0.11902570E-01 0.19204038E+03</pdfrwt>
<pdfrwt beam="2">  1       21 0.14617367E+00 0.19204038E+03</pdfrwt>
<totfact> 0.19054400E+04</totfact>
</mgrwt>
</event>
<event>
 4    2  0.3964208E+000  0.2031559E+03  0.7546771E-02  0.1147103E+00
         21   -1    0    0  503  502  0.00000000000E+00  0.00000000000E+00  0.16260972362E+03  0.16260972362E+03  0.00000000000E+00 0. -1.
         21   -1    0    0  501  503 -0.00000000000E+00 -0.00000000000E+00 -0.38714788013E+03  0.38714788013E+03  0.00000000000E+00 0.  1.
          6    1    1    2  501    0  0.58600182452E+02  0.88934503277E+02 -0.27358455691E+03  0.34076507602E+03  0.17300000000E+03 0.  1.
         -6    1    1    2    0  502 -0.58600182452E+02 -0.88934503277E+02  0.49046400394E+02  0.20899252773E+03  0.17300000000E+03 0. -1.
<mgrwt>
<rscale>  2 0.20315592E+03</rscale>
<asrwt>0</asrwt>
<pdfrwt beam="1">  1       21 0.25016881E-01 0.20315592E+03</pdfrwt>
<pdfrwt beam="2">  1       21 0.59561212E-01 0.20315592E+03</pdfrwt>
<totfact> 0.39603474E+04</totfact>
</mgrwt>
</event>
<event>
 4    2  0.3964208E+000  0.2110223E+03  0.7546771E-02  0.1140759E+00
         21   -1    0    0  503  502  0.00000000000E+00  0.00000000000E+00  0.79955624428E+03  0.79955624428E+03  0.00000000000E+00 0.  1.
         21   -1    0    0  501  503 -0.00000000000E+00 -0.00000000000E+00 -0.58266192121E+02  0.58266192121E+02  0.00000000000E+00 0. -1.
          6    1    1    2  501    0 -0.63371954092E+02  0.10288530316E+03  0.28052509506E+03  0.35103378631E+03  0.17300000000E+03 0. -1.
         -6    1    1    2    0  502  0.63371954092E+02 -0.10288530316E+03  0.46076495710E+03  0.50678865009E+03  0.17300000000E+03 0.  1.
<mgrwt>
<rscale>  2 0.21102225E+03</rscale>
<asrwt>0</asrwt>
<pdfrwt beam="1">  1       21 0.12300865E+00 0.21102225E+03</pdfrwt>
<pdfrwt beam="2">  1       21 0.89640301E-02 0.21102225E+03</pdfrwt>
<totfact> 0.48371636E+04</totfact>
</mgrwt>
</event>
<event>
 4    2  0.3964208E+000  0.2301524E+03  0.7546771E-02  0.1126533E+00
         21   -1    0    0  503  502  0.00000000000E+00  0.00000000000E+00  0.36903724289E+03  0.36903724289E+03  0.00000000000E+00 0.  1.
         21   -1    0    0  501  503 -0.00000000000E+00 -0.00000000000E+00 -0.10541821445E+04  0.10541821445E+04  0.00000000000E+00 0. -1.
          6    1    1    2  501    0  0.10670411438E+03 -0.10796009193E+03 -0.10039643044E+04  0.10300070262E+04  0.17300000000E+03 0. -1.
         -6    1    1    2    0  502 -0.10670411438E+03  0.10796009193E+03  0.31881940274E+03  0.39321236125E+03  0.17300000000E+03 0.  1.
<mgrwt>
<rscale>  2 0.23015245E+03</rscale>
<asrwt>0</asrwt>
<pdfrwt beam="1">  1       21 0.56774961E-01 0.23015245E+03</pdfrwt>
<pdfrwt beam="2">  1       21 0.16218187E+00 0.23015245E+03</pdfrwt>
<totfact> 0.68047507E+02</totfact>
</mgrwt>
</event>
<event>
 4    2  0.3964208E+000  0.2265392E+03  0.7546771E-02  0.1129100E+00
         21   -1    0    0  503  502  0.00000000000E+00  0.00000000000E+00  0.21169415964E+04  0.21169415964E+04  0.00000000000E+00 0.  1.
         21   -1    0    0  501  503 -0.00000000000E+00 -0.00000000000E+00 -0.63393670257E+02  0.63393670257E+02  0.00000000000E+00 0.  1.
          6    1    1    2  501    0 -0.11963284852E+03  0.84136750401E+02  0.17004674099E+03  0.28325943115E+03  0.17300000000E+03 0.  1.
         -6    1    1    2    0  502  0.11963284852E+03 -0.84136750401E+02  0.18835011852E+04  0.18970758355E+04  0.17300000000E+03 0.  1.
<mgrwt>
<rscale>  2 0.22653920E+03</rscale>
<asrwt>0</asrwt>
<pdfrwt beam="1">  1       21 0.32568327E+00 0.22653920E+03</pdfrwt>
<pdfrwt beam="2">  1       21 0.97528740E-02 0.22653920E+03</pdfrwt>
<totfact> 0.19731415E+03</totfact>
</mgrwt>
</event>
<event>
 4    2  0.3964208E+000  0.2336136E+03  0.7546771E-02  0.1124122E+00
         21   -1    0    0  501  502  0.00000000000E+00  0.00000000000E+00  0.16456906087E+04  0.16456906087E+04  0.00000000000E+00 0. -1.
         21   -1    0    0  502  503 -0.00000000000E+00 -0.00000000000E+00 -0.36978390926E+02  0.36978390926E+02  0.00000000000E+00 0. -1.
          6    1    1    2  501    0  0.15159307760E+03 -0.40814609195E+02  0.10746211969E+04  0.10997208784E+04  0.17300000000E+03 0.  1.
         -6    1    1    2    0  503 -0.15159307760E+03  0.40814609195E+02  0.53409102089E+03  0.58294812127E+03  0.17300000000E+03 0.  1.
<mgrwt>
<rscale>  2 0.23361356E+03</rscale>
<asrwt>0</asrwt>
<pdfrwt beam="1">  1       21 0.25318311E+00 0.23361356E+03</pdfrwt>
<pdfrwt beam="2">  1       21 0.56889845E-02 0.23361356E+03</pdfrwt>
<totfact> 0.13275779E+04</totfact>
</mgrwt>
</event>
<event>
 4    2  0.3964208E+000  0.2392664E+03  0.7546771E-02  0.1120283E+00
         21   -1    0    0  501  502  0.00000000000E+00  0.00000000000E+00  0.24181123959E+04  0.24181123959E+04  0.00000000000E+00 0. -1.
         21   -1    0    0  502  503 -0.00000000000E+00 -0.00000000000E+00 -0.25727565953E+02  0.25727565953E+02  0.00000000000E+00 0. -1.
          6    1    1    2  501    0  0.52329085670E+02  0.15678348399E+03  0.15413442733E+04  0.15598046554E+04  0.17300000000E+03 0. -1.
         -6    1    1    2    0  503 -0.52329085670E+02 -0.15678348399E+03  0.85104055665E+03  0.88403530649E+03  0.17300000000E+03 0. -1.
<mgrwt>
<rscale>  2 0.23926637E+03</rscale>
<asrwt>0</asrwt>
<pdfrwt beam="1">  1       21 0.37201711E+00 0.23926637E+03</pdfrwt>
<pdfrwt beam="2">  1       21 0.39580890E-02 0.23926637E+03</pdfrwt>
<totfact> 0.48769607E+03</totfact>
</mgrwt>
</event>
<event>
 4    2  0.3964208E+000  0.2146541E+03  0.7546771E-02  0.1137933E+00
         21   -1    0    0  503  502  0.00000000000E+00  0.00000000000E+00  0.12128335912E+03  0.12128335912E+03  0.00000000000E+00 0. -1.
         21   -1    0    0  501  503 -0.00000000000E+00 -0.00000000000E+00 -0.38514138069E+03  0.38514138069E+03  0.00000000000E+00 0. -1.
          6    1    1    2  501    0  0.14807496793E+02  0.12620661987E+03 -0.16144897149E+03  0.26859289502E+03  0.17300000000E+03 0. -1.
         -6    1    1    2    0  502 -0.14807496793E+02 -0.12620661987E+03 -0.10240905008E+03  0.23783184479E+03  0.17300000000E+03 0. -1.
<mgrwt>
<rscale>  2 0.21465408E+03</rscale>
<asrwt>0</asrwt>
<pdfrwt beam="1">  1       21 0.18658978E-01 0.21465408E+03</pdfrwt>
<pdfrwt beam="2">  1       21 0.59252520E-01 0.21465408E+03</pdfrwt>
<totfact> 0.69238990E+04</totfact>
</mgrwt>
</event>
<event>
 4    2  0.3964208E+000  0.1836581E+03  0.7546771E-02  0.1164309E+00
         21   -1    0    0  503  502  0.00000000000E+00  0.00000000000E+00  0.30429626479E+03  0.30429626479E+03  0.00000000000E+00 0.  1.
         21   -1    0    0  501  503 -0.00000000000E+00 -0.00000000000E+00 -0.15038780659E+03  0.15038780659E+03  0.00000000000E+00 0.  1.
          6    1    1    2  501    0 -0.60352144030E+02 -0.12606451578E+02 -0.39618410346E+02  0.18788273563E+03  0.17300000000E+03 0.  1.
         -6    1    1    2    0  502  0.60352144030E+02  0.12606451578E+02  0.19352686854E+03  0.26680133575E+03  0.17300000000E+03 0.  1.
<mgrwt>
<rscale>  2 0.18365812E+03</rscale>
<asrwt>0</asrwt>
<pdfrwt beam="1">  1       21 0.46814810E-01 0.18365812E+03</pdfrwt>
<pdfrwt beam="2">  1       21 0.23136586E-01 0.18365812E+03</pdfrwt>
<totfact> 0.76946602E+04</totfact>
</mgrwt>
</event>
<event>
 4    2  0.3964208E+000  0.1750370E+03  0.7546771E-02  0.1172695E+00
         21   -1    0    0  501  502  0.00000000000E+00  0.00000000000E+00  0.81186254371E+03  0.81186254371E+03  0.00000000000E+00 0.  1.
         21   -1    0    0  502  503 -0.00000000000E+00 -0.00000000000E+00 -0.53812124623E+02  0.53812124623E+02  0.00000000000E+00 0.  1.
          6    1    1    2  501    0 -0.20529570468E+01 -0.26546882191E+02  0.61559008261E+03  0.63999148541E+03  0.17300000000E+03 0.  1.
         -6    1    1    2    0  503  0.20529570468E+01  0.26546882191E+02  0.14246033648E+03  0.22568318293E+03  0.17300000000E+03 0.  1.
<mgrwt>
<rscale>  2 0.17503700E+03</rscale>
<asrwt>0</asrwt>
<pdfrwt beam="1">  1       21 0.12490192E+00 0.17503700E+03</pdfrwt>
<pdfrwt beam="2">  1       21 0.82787890E-02 0.17503700E+03</pdfrwt>
<totfact> 0.54530439E+04</totfact>
</mgrwt>
</event>
<event>
 4    2  0.3964208E+000  0.1835399E+03  0.7546771E-02  0.1164420E+00
         21   -1    0    0  501  502  0.00000000000E+00  0.00000000000E+00  0.25320146985E+02  0.25320146985E+02  0.00000000000E+00 0.  1.
         21   -1    0    0  502  503 -0.00000000000E+00 -0.00000000000E+00 -0.13467544314E+04  0.13467544314E+04  0.00000000000E+00 0.  1.
          6    1    1    2  501    0  0.17275779577E+02  0.58816898566E+02 -0.58520460775E+03  0.61331175844E+03  0.17300000000E+03 0.  1.
         -6    1    1    2    0  503 -0.17275779577E+02 -0.58816898566E+02 -0.73622967662E+03  0.75876281990E+03  0.17300000000E+03 0.  1.
<mgrwt>
<rscale>  2 0.18353986E+03</rscale>
<asrwt>0</asrwt>
<pdfrwt beam="1">  1       21 0.38954082E-02 0.18353986E+03</pdfrwt>
<pdfrwt beam="2">  1       21 0.20719294E+00 0.18353986E+03</pdfrwt>
<totfact> 0.49808289E+04</totfact>
</mgrwt>
</event>
<event>
 4    2  0.3964208E+000  0.2002381E+03  0.7546771E-02  0.1149538E+00
         21   -1    0    0  501  502  0.00000000000E+00  0.00000000000E+00  0.25086170276E+03  0.25086170276E+03  0.00000000000E+00 0. -1.
         21   -1    0    0  502  503 -0.00000000000E+00 -0.00000000000E+00 -0.17655236843E+03  0.17655236843E+03  0.00000000000E+00 0. -1.
          6    1    1    2  501    0 -0.85297393094E+02 -0.53764648262E+02  0.10292469172E+03  0.22514167725E+03  0.17300000000E+03 0. -1.
         -6    1    1    2    0  503  0.85297393094E+02  0.53764648262E+02 -0.28615357388E+02  0.20227239394E+03  0.17300000000E+03 0. -1.
<mgrwt>
<rscale>  2 0.20023806E+03</rscale>
<asrwt>0</asrwt>
<pdfrwt beam="1">  1       21 0.38594108E-01 0.20023806E+03</pdfrwt>
<pdfrwt beam="2">  1       21 0.27161903E-01 0.20023806E+03</pdfrwt>
<totfact> 0.83370650E+04</totfact>
</mgrwt>
</event>
<event>
 4    2  0.3964208E+000  0.2007903E+03  0.7546771E-02  0.1149074E+00
         21   -1    0    0  503  502  0.00000000000E+00  0.00000000000E+00  0.19569462254E+04  0.19569462254E+04  0.00000000000E+00 0.  1.
         21   -1    0    0  501  503 -0.00000000000E+00 -0.00000000000E+00 -0.29917084576E+02  0.29917084576E+02  0.00000000000E+00 0.  1.
          6    1    1    2  501    0 -0.97101576479E+02 -0.30967982271E+02  0.40917609186E+03  0.45578701850E+03  0.17300000000E+03 0.  1.
         -6    1    1    2    0  502  0.97101576479E+02  0.30967982271E+02  0.15178530489E+04  0.15310762914E+04  0.17300000000E+03 0.  1.
<mgrwt>
<rscale>  2 0.20079027E+03</rscale>
<asrwt>0</asrwt>
<pdfrwt beam="1">  1       21 0.30106855E+00 0.20079027E+03</pdfrwt>
<pdfrwt beam="2">  1       21 0.46026299E-02 0.20079027E+03</pdfrwt>
<totfact> 0.10325295E+04</totfact>
</mgrwt>
</event>
<event>
 4    2  0.3964208E+000  0.1944675E+03  0.7546771E-02  0.1154493E+00
         21   -1    0    0  501  502  0.00000000000E+00  0.00000000000E+00  0.32940266096E+03  0.32940266096E+03  0.00000000000E+00 0. -1.
         21   -1    0    0  502  503 -0.00000000000E+00 -0.00000000000E+00 -0.19375643298E+03  0.19375643298E+03  0.00000000000E+00 0. -1.
          6    1    1    2  501    0 -0.50707388408E+02  0.72920322398E+02  0.23479802328E+03  0.30487329236E+03  0.17300000000E+03 0. -1.
         -6    1    1    2    0  503  0.50707388408E+02 -0.72920322398E+02 -0.99151795302E+02  0.21828580158E+03  0.17300000000E+03 0. -1.
<mgrwt>
<rscale>  2 0.19446751E+03</rscale>
<asrwt>0</asrwt>
<pdfrwt beam="1">  1       21 0.50677332E-01 0.19446751E+03</pdfrwt>
<pdfrwt beam="2">  1       21 0.29808682E-01 0.19446751E+03</pdfrwt>
<totfact> 0.39939986E+04</totfact>
</mgrwt>
</event>
<event>
 4    2  0.3964208E+000  0.2653105E+03  0.7546771E-02  0.1103994E+00
         21   -1    0    0  501  502  0.00000000000E+00  0.00000000000E+00  0.68445500265E+02  0.68445500265E+02  0.00000000000E+00 0. -1.
         21   -1    0    0  502  503 -0.00000000000E+00 -0.00000000000E+00 -0.10616875881E+04  0.10616875881E+04  0.00000000000E+00 0. -1.
          6    1    1    2  501    0 -0.19486516346E+03 -0.49882212010E+02 -0.39657212277E+03  0.47713636998E+03  0.17300000000E+03 0. -1.
         -6    1    1    2    0  503  0.19486516346E+03  0.49882212010E+02 -0.59666996505E+03  0.65299671837E+03  0.17300000000E+03 0. -1.
<mgrwt>
<rscale>  2 0.26531051E+03</rscale>
<asrwt>0</asrwt>
<pdfrwt beam="1">  1       21 0.10530077E-01 0.26531051E+03</pdfrwt>
<pdfrwt beam="2">  1       21 0.16333655E+00 0.26531051E+03</pdfrwt>
<totfact> 0.16843368E+04</totfact>
</mgrwt>
</event>
<event>
 4    2  0.3964208E+000  0.1886693E+03  0.7546771E-02  0.1159667E+00
         21   -1    0    0  503  502  0.00000000000E+00  0.00000000000E+00  0.13073564662E+03  0.13073564662E+03  0.00000000000E+00 0. -1.
         21   -1    0    0  501  503 -0.00000000000E+00 -0.00000000000E+00 -0.28682938517E+03  0.28682938517E+03  0.00000000000E+00 0.  1.
          6    1    1    2  501    0 -0.68057230473E+02  0.32176472445E+02 -0.12507654184E+03  0.22636310061E+03  0.17300000000E+03 0.  1.
         -6    1    1    2    0  502  0.68057230473E+02 -0.32176472445E+02 -0.31017196707E+02  0.19120193119E+03  0.17300000000E+03 0.  1.
<mgrwt>
<rscale>  2 0.18866932E+03</rscale>
<asrwt>0</asrwt>
<pdfrwt beam="1">  1       21 0.20113177E-01 0.18866932E+03</pdfrwt>
<pdfrwt beam="2">  1       21 0.44127597E-01 0.18866932E+03</pdfrwt>
<totfact> 0.11283282E+05</totfact>
</mgrwt>
</event>
<event>
 4    2  0.3964208E+000  0.3460175E+03  0.7546771E-02  0.1064262E+00
         21   -1    0    0  503  502  0.00000000000E+00  0.00000000000E+00  0.53484399522E+03  0.53484399522E+03  0.00000000000E+00 0.  1.
         21   -1    0    0  501  503 -0.00000000000E+00 -0.00000000000E+00 -0.89695194819E+03  0.89695194819E+03  0.00000000000E+00 0. -1.
          6    1    1    2  501    0 -0.29522080397E+03 -0.51417758777E+02 -0.80121574305E+03  0.87273980998E+03  0.17300000000E+03 0. -1.
         -6    1    1    2    0  502  0.29522080397E+03  0.51417758777E+02  0.43910779008E+03  0.55905613343E+03  0.17300000000E+03 0.  1.
<mgrwt>
<rscale>  2 0.34601750E+03</rscale>
<asrwt>0</asrwt>
<pdfrwt beam="1">  1       21 0.82283693E-01 0.34601750E+03</pdfrwt>
<pdfrwt beam="2">  1       21 0.13799261E+00 0.34601750E+03</pdfrwt>
<totfact> 0.42101660E+02</totfact>
</mgrwt>
</event>
<event>
 4    2  0.3964208E+000  0.2660929E+03  0.7546771E-02  0.1103537E+00
         21   -1    0    0  503  502  0.00000000000E+00  0.00000000000E+00  0.22279654074E+03  0.22279654074E+03  0.00000000000E+00 0.  1.
         21   -1    0    0  501  503 -0.00000000000E+00 -0.00000000000E+00 -0.32293845324E+03  0.32293845324E+03  0.00000000000E+00 0.  1.
          6    1    1    2  501    0  0.20035346650E+03 -0.27109293028E+02 -0.84480445647E+02  0.27918160936E+03  0.17300000000E+03 0.  1.
         -6    1    1    2    0  502 -0.20035346650E+03  0.27109293028E+02 -0.15661466847E+02  0.26655338462E+03  0.17300000000E+03 0.  1.
<mgrwt>
<rscale>  2 0.26609289E+03</rscale>
<asrwt>0</asrwt>
<pdfrwt beam="1">  1       21 0.34276391E-01 0.26609289E+03</pdfrwt>
<pdfrwt beam="2">  1       21 0.49682839E-01 0.26609289E+03</pdfrwt>
<totfact> 0.30569582E+04</totfact>
</mgrwt>
</event>
<event>
 4    2  0.3964208E+000  0.1754193E+03  0.7546771E-02  0.1172311E+00
         21   -1    0    0  503  502  0.00000000000E+00  0.00000000000E+00  0.10226726820E+03  0.10226726820E+03  0.00000000000E+00 0.  1.
         21   -1    0    0  501  503 -0.00000000000E+00 -0.00000000000E+00 -0.33883710520E+03  0.33883710520E+03  0.00000000000E+00 0.  1.
          6    1    1    2  501    0 -0.28672346718E+02  0.45629074716E+01 -0.19208632291E+03  0.26013281039E+03  0.17300000000E+03 0. -1.
         -6    1    1    2    0  502  0.28672346718E+02 -0.45629074716E+01 -0.44483514086E+02  0.18097156300E+03  0.17300000000E+03 0. -1.
<mgrwt>
<rscale>  2 0.17541928E+03</rscale>
<asrwt>0</asrwt>
<pdfrwt beam="1">  1       21 0.15733426E-01 0.17541928E+03</pdfrwt>
<pdfrwt beam="2">  1       21 0.52128785E-01 0.17541928E+03</pdfrwt>
<totfact> 0.12633076E+05</totfact>
</mgrwt>
</event>
<event>
 4    2  0.3964208E+000  0.1790758E+03  0.7546771E-02  0.1168701E+00
         21   -1    0    0  503  502  0.00000000000E+00  0.00000000000E+00  0.12305082364E+04  0.12305082364E+04  0.00000000000E+00 0.  1.
         21   -1    0    0  501  503 -0.00000000000E+00 -0.00000000000E+00 -0.63566471355E+02  0.63566471355E+02  0.00000000000E+00 0.  1.
          6    1    1    2  501    0 -0.37999939057E+02 -0.26365365253E+02  0.86462963566E+02  0.19885666175E+03  0.17300000000E+03 0.  1.
         -6    1    1    2    0  502  0.37999939057E+02  0.26365365253E+02  0.10804788015E+04  0.10952180460E+04  0.17300000000E+03 0.  1.
<mgrwt>
<rscale>  2 0.17907576E+03</rscale>
<asrwt>0</asrwt>
<pdfrwt beam="1">  1       21 0.18930894E+00 0.17907576E+03</pdfrwt>
<pdfrwt beam="2">  1       21 0.97794581E-02 0.17907576E+03</pdfrwt>
<totfact> 0.13448747E+04</totfact>
</mgrwt>
</event>
<event>
 4    2  0.3964208E+000  0.1961879E+03  0.7546771E-02  0.1152996E+00
         21   -1    0    0  503  502  0.00000000000E+00  0.00000000000E+00  0.70287370814E+02  0.70287370814E+02  0.00000000000E+00 0. -1.
         21   -1    0    0  501  503 -0.00000000000E+00 -0.00000000000E+00 -0.61333099962E+03  0.61333099962E+03  0.00000000000E+00 0. -1.
          6    1    1    2  501    0 -0.52510370208E+02  0.76179838799E+02 -0.15962820370E+03  0.25292463351E+03  0.17300000000E+03 0. -1.
         -6    1    1    2    0  502  0.52510370208E+02 -0.76179838799E+02 -0.38341542511E+03  0.43069373693E+03  0.17300000000E+03 0. -1.
<mgrwt>
<rscale>  2 0.19618794E+03</rscale>
<asrwt>0</asrwt>
<pdfrwt beam="1">  1       21 0.10813442E-01 0.19618794E+03</pdfrwt>
<pdfrwt beam="2">  1       21 0.94358613E-01 0.19618794E+03</pdfrwt>
<totfact> 0.66380279E+04</totfact>
</mgrwt>
</event>
<event>
 4    2  0.3964208E+000  0.2968477E+03  0.7546771E-02  0.1086827E+00
         21   -1    0    0  501  502  0.00000000000E+00  0.00000000000E+00  0.22657051126E+03  0.22657051126E+03  0.00000000000E+00 0. -1.
         21   -1    0    0  502  503 -0.00000000000E+00 -0.00000000000E+00 -0.45189862608E+03  0.45189862608E+03  0.00000000000E+00 0.  1.
          6    1    1    2  501    0 -0.14671093235E+03  0.19148220019E+03  0.13974254177E+02  0.29717639617E+03  0.17300000000E+03 0. -1.
         -6    1    1    2    0  503  0.14671093235E+03 -0.19148220019E+03 -0.23930236900E+03  0.38129274117E+03  0.17300000000E+03 0.  1.
<mgrwt>
<rscale>  2 0.29684766E+03</rscale>
<asrwt>0</asrwt>
<pdfrwt beam="1">  1       21 0.34857002E-01 0.29684766E+03</pdfrwt>
<pdfrwt beam="2">  1       21 0.69522865E-01 0.29684766E+03</pdfrwt>
<totfact> 0.14116951E+04</totfact>
</mgrwt>
</event>
<event>
 4    2  0.3964208E+000  0.1790914E+03  0.7546771E-02  0.1168685E+00
         21   -1    0    0  501  502  0.00000000000E+00  0.00000000000E+00  0.59038841596E+02  0.59038841596E+02  0.00000000000E+00 0.  1.
         21   -1    0    0  502  503 -0.00000000000E+00 -0.00000000000E+00 -0.57507051480E+03  0.57507051480E+03  0.00000000000E+00 0.  1.
          6    1    1    2  501    0  0.17297386484E+02  0.42959450744E+02 -0.33257952929E+03  0.37773384451E+03  0.17300000000E+03 0.  1.
         -6    1    1    2    0  503 -0.17297386484E+02 -0.42959450744E+02 -0.18345214392E+03  0.25637551189E+03  0.17300000000E+03 0.  1.
<mgrwt>
<rscale>  2 0.17909136E+03</rscale>
<asrwt>0</asrwt>
<pdfrwt beam="1">  1       21 0.90828992E-02 0.17909136E+03</pdfrwt>
<pdfrwt beam="2">  1       21 0.88472382E-01 0.17909136E+03</pdfrwt>
<totfact> 0.10562328E+05</totfact>
</mgrwt>
</event>
<event>
 4    2  0.3964208E+000  0.3403318E+03  0.7546771E-02  0.1066655E+00
         21   -1    0    0  501  502  0.00000000000E+00  0.00000000000E+00  0.92531061372E+03  0.92531061372E+03  0.00000000000E+00 0. -1.
         21   -1    0    0  502  503 -0.00000000000E+00 -0.00000000000E+00 -0.12536643325E+03  0.12536643325E+03  0.00000000000E+00 0.  1.
          6    1    1    2  501    0 -0.24061357225E+02  0.29209211062E+03  0.42050094620E+03  0.54096838702E+03  0.17300000000E+03 0. -1.
         -6    1    1    2    0  503  0.24061357225E+02 -0.29209211062E+03  0.37944323427E+03  0.50970865996E+03  0.17300000000E+03 0.  1.
<mgrwt>
<rscale>  2 0.34033182E+03</rscale>
<asrwt>0</asrwt>
<pdfrwt beam="1">  1       21 0.14235548E+00 0.34033182E+03</pdfrwt>
<pdfrwt beam="2">  1       21 0.19287144E-01 0.34033182E+03</pdfrwt>
<totfact> 0.77592821E+03</totfact>
</mgrwt>
</event>
<event>
 4    2  0.3964208E+000  0.1760223E+03  0.7546771E-02  0.1171709E+00
         21   -1    0    0  503  502  0.00000000000E+00  0.00000000000E+00  0.63060746647E+03  0.63060746647E+03  0.00000000000E+00 0. -1.
         21   -1    0    0  501  503 -0.00000000000E+00 -0.00000000000E+00 -0.21247125825E+03  0.21247125825E+03  0.00000000000E+00 0. -1.
          6    1    1    2  501    0 -0.32465471225E+02  0.92741060425E+00 -0.16053151418E+03  0.23823147139E+03  0.17300000000E+03 0. -1.
         -6    1    1    2    0  502  0.32465471225E+02 -0.92741060425E+00  0.57866772241E+03  0.60484725334E+03  0.17300000000E+03 0. -1.
<mgrwt>
<rscale>  2 0.17602235E+03</rscale>
<asrwt>0</asrwt>
<pdfrwt beam="1">  1       21 0.97016532E-01 0.17602235E+03</pdfrwt>
<pdfrwt beam="2">  1       21 0.32687886E-01 0.17602235E+03</pdfrwt>
<totfact> 0.80420561E+03</totfact>
</mgrwt>
</event>
<event>
 4    2  0.3964208E+000  0.2072089E+03  0.7546771E-02  0.1143796E+00
         21   -1    0    0  503  502  0.00000000000E+00  0.00000000000E+00  0.27750942349E+03  0.27750942349E+03  0.00000000000E+00 0. -1.
         21   -1    0    0  501  503 -0.00000000000E+00 -0.00000000000E+00 -0.34447450944E+03  0.34447450944E+03  0.00000000000E+00 0. -1.
          6    1    1    2  501    0  0.84207095316E+02  0.76913497164E+02 -0.26430056627E+03  0.33584268680E+03  0.17300000000E+03 0. -1.
         -6    1    1    2    0  502 -0.84207095316E+02 -0.76913497164E+02  0.19733548031E+03  0.28614124613E+03  0.17300000000E+03 0. -1.
<mgrwt>
<rscale>  2 0.20720888E+03</rscale>
<asrwt>0</asrwt>
<pdfrwt beam="1">  1       21 0.42693758E-01 0.20720888E+03</pdfrwt>
<pdfrwt beam="2">  1       21 0.52996078E-01 0.20720888E+03</pdfrwt>
<totfact> 0.17642997E+04</totfact>
</mgrwt>
</event>
<event>
 4    2  0.3964208E+000  0.1750831E+03  0.7546771E-02  0.1172648E+00
         21   -1    0    0  501  502  0.00000000000E+00  0.00000000000E+00  0.86899217226E+03  0.86899217226E+03  0.00000000000E+00 0.  1.
         21   -1    0    0  502  503 -0.00000000000E+00 -0.00000000000E+00 -0.37039931350E+02  0.37039931350E+02  0.00000000000E+00 0.  1.
          6    1    1    2  501    0  0.25267297260E+02  0.93098165419E+01  0.31710161157E+03  0.36222581500E+03  0.17300000000E+03 0.  1.
         -6    1    1    2    0  503 -0.25267297260E+02 -0.93098165419E+01  0.51485062934E+03  0.54380628861E+03  0.17300000000E+03 0.  1.
<mgrwt>
<rscale>  2 0.17508315E+03</rscale>
<asrwt>0</asrwt>
<pdfrwt beam="1">  1       21 0.13369109E+00 0.17508315E+03</pdfrwt>
<pdfrwt beam="2">  1       21 0.56984516E-02 0.17508315E+03</pdfrwt>
<totfact> 0.87439091E+04</totfact>
</mgrwt>
</event>
<event>
 4    2  0.3964208E+000  0.1905572E+03  0.7546771E-02  0.1157960E+00
         21   -1    0    0  501  502  0.00000000000E+00  0.00000000000E+00  0.81398815608E+02  0.81398815608E+02  0.00000000000E+00 0.  1.
         21   -1    0    0  502  503 -0.00000000000E+00 -0.00000000000E+00 -0.84163263572E+03  0.84163263572E+03  0.00000000000E+00 0. -1.
          6    1    1    2  501    0  0.52622346324E+02 -0.60115918150E+02 -0.63731662919E+02  0.20093222690E+03  0.17300000000E+03 0.  1.
         -6    1    1    2    0  503 -0.52622346324E+02  0.60115918150E+02 -0.69650215719E+03  0.72209922443E+03  0.17300000000E+03 0. -1.
<mgrwt>
<rscale>  2 0.19055717E+03</rscale>
<asrwt>0</asrwt>
<pdfrwt beam="1">  1       21 0.12522895E-01 0.19055717E+03</pdfrwt>
<pdfrwt beam="2">  1       21 0.12948194E+00 0.19055717E+03</pdfrwt>
<totfact> 0.23768401E+04</totfact>
</mgrwt>
</event>
<event>
 4    2  0.3964208E+000  0.2192394E+03  0.7546771E-02  0.1134451E+00
         21   -1    0    0  501  502  0.00000000000E+00  0.00000000000E+00  0.30410903389E+03  0.30410903389E+03  0.00000000000E+00 0.  1.
         21   -1    0    0  502  503 -0.00000000000E+00 -0.00000000000E+00 -0.31596739699E+03  0.31596739699E+03  0.00000000000E+00 0. -1.
          6    1    1    2  501    0  0.13465461204E+03  0.22491983448E+01  0.21325153402E+03  0.30584659586E+03  0.17300000000E+03 0.  1.
         -6    1    1    2    0  503 -0.13465461204E+03 -0.22491983448E+01 -0.22510989711E+03  0.31422983502E+03  0.17300000000E+03 0. -1.
<mgrwt>
<rscale>  2 0.21923942E+03</rscale>
<asrwt>0</asrwt>
<pdfrwt beam="1">  1       21 0.46786005E-01 0.21923942E+03</pdfrwt>
<pdfrwt beam="2">  1       21 0.48610369E-01 0.21923942E+03</pdfrwt>
<totfact> 0.17392486E+04</totfact>
</mgrwt>
</event>
<event>
 4    2  0.3964208E+000  0.2268842E+03  0.7546771E-02  0.1128852E+00
         21   -1    0    0  503  502  0.00000000000E+00  0.00000000000E+00  0.26120029080E+03  0.26120029080E+03  0.00000000000E+00 0. -1.
         21   -1    0    0  501  503 -0.00000000000E+00 -0.00000000000E+00 -0.36038228143E+03  0.36038228143E+03  0.00000000000E+00 0. -1.
          6    1    1    2  501    0 -0.81389489666E+02  0.12216053233E+03 -0.25880361143E+03  0.34417401700E+03  0.17300000000E+03 0. -1.
         -6    1    1    2    0  502  0.81389489666E+02 -0.12216053233E+03  0.15962162080E+03  0.27740855523E+03  0.17300000000E+03 0. -1.
<mgrwt>
<rscale>  2 0.22688421E+03</rscale>
<asrwt>0</asrwt>
<pdfrwt beam="1">  1       21 0.40184660E-01 0.22688421E+03</pdfrwt>
<pdfrwt beam="2">  1       21 0.55443428E-01 0.22688421E+03</pdfrwt>
<totfact> 0.17936444E+04</totfact>
</mgrwt>
</event>
<event>
 4    2  0.3964208E+000  0.1766047E+03  0.7546771E-02  0.1171130E+00
         21   -1    0    0  503  502  0.00000000000E+00  0.00000000000E+00  0.20983275708E+04  0.20983275708E+04  0.00000000000E+00 0. -1.
         21   -1    0    0  501  503 -0.00000000000E+00 -0.00000000000E+00 -0.14863952127E+02  0.14863952127E+02  0.00000000000E+00 0. -1.
          6    1    1    2  501    0 -0.18944105120E+02 -0.30022117126E+02  0.10446254254E+04  0.10594486708E+04  0.17300000000E+03 0.  1.
         -6    1    1    2    0  502  0.18944105120E+02  0.30022117126E+02  0.10388381932E+04  0.10537428521E+04  0.17300000000E+03 0.  1.
<mgrwt>
<rscale>  2 0.17660466E+03</rscale>
<asrwt>0</asrwt>
<pdfrwt beam="1">  1       21 0.32281939E+00 0.17660466E+03</pdfrwt>
<pdfrwt beam="2">  1       21 0.22867635E-02 0.17660466E+03</pdfrwt>
<totfact> 0.25363594E+04</totfact>
</mgrwt>
</event>
<event>
 4    2  0.3964208E+000  0.1797563E+03  0.7546771E-02  0.1168039E+00
         21   -1    0    0  501  502  0.00000000000E+00  0.00000000000E+00  0.15464896575E+04  0.15464896575E+04  0.00000000000E+00 0. -1.
         21   -1    0    0  502  503 -0.00000000000E+00 -0.00000000000E+00 -0.23369409943E+02  0.23369409943E+02  0.00000000000E+00 0. -1.
          6    1    1    2  501    0 -0.46892368884E+02 -0.13580887839E+02  0.50609506729E+03  0.53707034168E+03  0.17300000000E+03 0. -1.
         -6    1    1    2    0  503  0.46892368884E+02  0.13580887839E+02  0.10170251803E+04  0.10327887258E+04  0.17300000000E+03 0. -1.
<mgrwt>
<rscale>  2 0.17975632E+03</rscale>
<asrwt>0</asrwt>
<pdfrwt beam="1">  1       21 0.23792141E+00 0.17975632E+03</pdfrwt>
<pdfrwt beam="2">  1       21 0.35952951E-02 0.17975632E+03</pdfrwt>
<totfact> 0.37091763E+04</totfact>
</mgrwt>
</event>
<event>
 4    2  0.3964208E+000  0.1783953E+03  0.7546771E-02  0.1169365E+00
         21   -1    0    0  501  502  0.00000000000E+00  0.00000000000E+00  0.72904543473E+03  0.72904543473E+03  0.00000000000E+00 0.  1.
         21   -1    0    0  502  503 -0.00000000000E+00 -0.00000000000E+00 -0.55798438313E+02  0.55798438313E+02  0.00000000000E+00 0.  1.
          6    1    1    2  501    0 -0.60801832178E+01 -0.43115225598E+02  0.15353881381E+03  0.23537004621E+03  0.17300000000E+03 0.  1.
         -6    1    1    2    0  503  0.60801832178E+01  0.43115225598E+02  0.51970818261E+03  0.54947382684E+03  0.17300000000E+03 0.  1.
<mgrwt>
<rscale>  2 0.17839532E+03</rscale>
<asrwt>0</asrwt>
<pdfrwt beam="1">  1       21 0.11216083E+00 0.17839532E+03</pdfrwt>
<pdfrwt beam="2">  1       21 0.85843757E-02 0.17839532E+03</pdfrwt>
<totfact> 0.66562389E+04</totfact>
</mgrwt>
</event>
<event>
 4    2  0.3964208E+000  0.2690216E+03  0.7546771E-02  0.1101841E+00
         21   -1    0    0  501  502  0.00000000000E+00  0.00000000000E+00  0.63330336831E+02  0.63330336831E+02  0.00000000000E+00 0.  1.
         21   -1    0    0  502  503 -0.00000000000E+00 -0.00000000000E+00 -0.27531311904E+04  0.27531311904E+04  0.00000000000E+00 0.  1.
          6    1    1    2  501    0  0.14077043862E+03  0.15042381156E+03 -0.26788808607E+03  0.37965334996E+03  0.17300000000E+03 0.  1.
         -6    1    1    2    0  503 -0.14077043862E+03 -0.15042381156E+03 -0.24219127675E+04  0.24368081773E+04  0.17300000000E+03 0.  1.
<mgrwt>
<rscale>  2 0.26902163E+03</rscale>
<asrwt>0</asrwt>
<pdfrwt beam="1">  1       21 0.97431290E-02 0.26902163E+03</pdfrwt>
<pdfrwt beam="2">  1       21 0.42355863E+00 0.26902163E+03</pdfrwt>
<totfact> 0.47271207E+02</totfact>
</mgrwt>
</event>
<event>
 4    2  0.3964208E+000  0.1799602E+03  0.7546771E-02  0.1167842E+00
         21   -1    0    0  503  502  0.00000000000E+00  0.00000000000E+00  0.49764500553E+02  0.49764500553E+02  0.00000000000E+00 0.  1.
         21   -1    0    0  501  503 -0.00000000000E+00 -0.00000000000E+00 -0.65324589591E+03  0.65324589591E+03  0.00000000000E+00 0.  1.
          6    1    1    2  501    0 -0.49523071020E+02  0.20313018756E+01 -0.32334418787E+03  0.37005016495E+03  0.17300000000E+03 0.  1.
         -6    1    1    2    0  502  0.49523071020E+02 -0.20313018756E+01 -0.28013720749E+03  0.33296023152E+03  0.17300000000E+03 0.  1.
<mgrwt>
<rscale>  2 0.17996016E+03</rscale>
<asrwt>0</asrwt>
<pdfrwt beam="1">  1       21 0.76560775E-02 0.17996016E+03</pdfrwt>
<pdfrwt beam="2">  1       21 0.10049936E+00 0.17996016E+03</pdfrwt>
<totfact> 0.10562788E+05</totfact>
</mgrwt>
</event>
<event>
 4    2  0.3964208E+000  0.3589999E+03  0.7546771E-02  0.1058981E+00
         21   -1    0    0  503  502  0.00000000000E+00  0.00000000000E+00  0.91874606241E+03  0.91874606241E+03  0.00000000000E+00 0.  1.
         21   -1    0    0  501  503 -0.00000000000E+00 -0.00000000000E+00 -0.14807802107E+03  0.14807802107E+03  0.00000000000E+00 0.  1.
          6    1    1    2  501    0  0.22153866494E+03  0.22332167041E+03  0.50774839586E+03  0.62184353501E+03  0.17300000000E+03 0.  1.
         -6    1    1    2    0  502 -0.22153866494E+03 -0.22332167041E+03  0.26291964548E+03  0.44498054847E+03  0.17300000000E+03 0.  1.
<mgrwt>
<rscale>  2 0.35899993E+03</rscale>
<asrwt>0</asrwt>
<pdfrwt beam="1">  1       21 0.14134554E+00 0.35899993E+03</pdfrwt>
<pdfrwt beam="2">  1       21 0.22781235E-01 0.35899993E+03</pdfrwt>
<totfact> 0.57140428E+03</totfact>
</mgrwt>
</event>
<event>
 4    2  0.3964208E+000  0.2033083E+03  0.7546771E-02  0.1146977E+00
         21   -1    0    0  503  502  0.00000000000E+00  0.00000000000E+00  0.94569819972E+02  0.94569819972E+02  0.00000000000E+00 0. -1.
         21   -1    0    0  501  503 -0.00000000000E+00 -0.00000000000E+00 -0.50123416239E+03  0.50123416239E+03  0.00000000000E+00 0.  1.
          6    1    1    2  501    0  0.10400428400E+03  0.24256643172E+02 -0.30991230716E+03  0.37064796500E+03  0.17300000000E+03 0.  1.
         -6    1    1    2    0  502 -0.10400428400E+03 -0.24256643172E+02 -0.96752035261E+02  0.22515601737E+03  0.17300000000E+03 0. -1.
<mgrwt>
<rscale>  2 0.20330833E+03</rscale>
<asrwt>0</asrwt>
<pdfrwt beam="1">  1       21 0.14549203E-01 0.20330833E+03</pdfrwt>
<pdfrwt beam="2">  1       21 0.77112948E-01 0.20330833E+03</pdfrwt>
<totfact> 0.61641815E+04</totfact>
</mgrwt>
</event>
<event>
 4    2  0.3964208E+000  0.2502704E+03  0.7546771E-02  0.1113134E+00
         21   -1    0    0  501  502  0.00000000000E+00  0.00000000000E+00  0.10630737386E+03  0.10630737386E+03  0.00000000000E+00 0.  1.
         21   -1    0    0  502  503 -0.00000000000E+00 -0.00000000000E+00 -0.70750185591E+03  0.70750185591E+03  0.00000000000E+00 0. -1.
          6    1    1    2  501    0  0.58098465752E+02  0.17126245415E+03 -0.13420133342E+03  0.28398108707E+03  0.17300000000E+03 0.  1.
         -6    1    1    2    0  503 -0.58098465752E+02 -0.17126245415E+03 -0.46699314864E+03  0.52982814270E+03  0.17300000000E+03 0. -1.
<mgrwt>
<rscale>  2 0.25027037E+03</rscale>
<asrwt>0</asrwt>
<pdfrwt beam="1">  1       21 0.16354980E-01 0.25027037E+03</pdfrwt>
<pdfrwt beam="2">  1       21 0.10884644E+00 0.25027037E+03</pdfrwt>
<totfact> 0.21725965E+04</totfact>
</mgrwt>
</event>
<event>
 4    2  0.3964208E+000  0.1951755E+03  0.7546771E-02  0.1153874E+00
         21   -1    0    0  503  502  0.00000000000E+00  0.00000000000E+00  0.92775711686E+02  0.92775711686E+02  0.00000000000E+00 0. -1.
         21   -1    0    0  501  503 -0.00000000000E+00 -0.00000000000E+00 -0.14532012206E+04  0.14532012206E+04  0.00000000000E+00 0. -1.
          6    1    1    2  501    0  0.67933323331E+02  0.59577980180E+02 -0.13349541188E+04  0.13491463862E+04  0.17300000000E+03 0. -1.
         -6    1    1    2    0  502 -0.67933323331E+02 -0.59577980180E+02 -0.25471390084E+02  0.19683054604E+03  0.17300000000E+03 0. -1.
<mgrwt>
<rscale>  2 0.19517549E+03</rscale>
<asrwt>0</asrwt>
<pdfrwt beam="1">  1       21 0.14273187E-01 0.19517549E+03</pdfrwt>
<pdfrwt beam="2">  1       21 0.22356941E+00 0.19517549E+03</pdfrwt>
<totfact> 0.40970054E+03</totfact>
</mgrwt>
</event>
<event>
 4    2  0.3964208E+000  0.1743341E+03  0.7546771E-02  0.1173402E+00
         21   -1    0    0  503  502  0.00000000000E+00  0.00000000000E+00  0.43036994365E+02  0.43036994365E+02  0.00000000000E+00 0. -1.
         21   -1    0    0  501  503 -0.00000000000E+00 -0.00000000000E+00 -0.81905850900E+03  0.81905850900E+03  0.00000000000E+00 0. -1.
          6    1    1    2  501    0  0.12714506441E+02 -0.17370349135E+02 -0.54802188026E+03  0.57508292354E+03  0.17300000000E+03 0. -1.
         -6    1    1    2    0  502 -0.12714506441E+02  0.17370349135E+02 -0.22799963437E+03  0.28701257983E+03  0.17300000000E+03 0. -1.
<mgrwt>
<rscale>  2 0.17433413E+03</rscale>
<asrwt>0</asrwt>
<pdfrwt beam="1">  1       21 0.66210759E-02 0.17433413E+03</pdfrwt>
<pdfrwt beam="2">  1       21 0.12600900E+00 0.17433413E+03</pdfrwt>
<totfact> 0.78523969E+04</totfact>
</mgrwt>
</event>
<event>
 4    2  0.3964208E+000  0.2166599E+03  0.7546771E-02  0.1136398E+00
         21   -1    0    0  501  502  0.00000000000E+00  0.00000000000E+00  0.11249029655E+04  0.11249029655E+04  0.00000000000E+00 0. -1.
         21   -1    0    0  502  503 -0.00000000000E+00 -0.00000000000E+00 -0.45669733471E+02  0.45669733471E+02  0.00000000000E+00 0.  1.
          6    1    1    2  501    0  0.12597590899E+03 -0.33802325959E+02  0.71153431619E+03  0.74378935863E+03  0.17300000000E+03 0. -1.
         -6    1    1    2    0  503 -0.12597590899E+03  0.33802325959E+02  0.36769891583E+03  0.42678334033E+03  0.17300000000E+03 0.  1.
<mgrwt>
<rscale>  2 0.21665993E+03</rscale>
<asrwt>0</asrwt>
<pdfrwt beam="1">  1       21 0.17306197E+00 0.21665993E+03</pdfrwt>
<pdfrwt beam="2">  1       21 0.70261137E-02 0.21665993E+03</pdfrwt>
<totfact> 0.30058393E+04</totfact>
</mgrwt>
</event>
<event>
 4    2  0.3964208E+000  0.3124940E+03  0.7546771E-02  0.1079157E+00
         21   -1    0    0  503  502  0.00000000000E+00  0.00000000000E+00  0.45950130061E+03  0.45950130061E+03  0.00000000000E+00 0.  1.
         21   -1    0    0  501  503 -0.00000000000E+00 -0.00000000000E+00 -0.21268854101E+03  0.21268854101E+03  0.00000000000E+00 0. -1.
          6    1    1    2  501    0  0.57721026441E+02  0.25375539882E+03  0.11390277213E+03  0.33260541310E+03  0.17300000000E+03 0.  1.
         -6    1    1    2    0  502 -0.57721026441E+02 -0.25375539882E+03  0.13290998747E+03  0.33958442852E+03  0.17300000000E+03 0.  1.
<mgrwt>
<rscale>  2 0.31249403E+03</rscale>
<asrwt>0</asrwt>
<pdfrwt beam="1">  1       21 0.70692508E-01 0.31249403E+03</pdfrwt>
<pdfrwt beam="2">  1       21 0.32721314E-01 0.31249403E+03</pdfrwt>
<totfact> 0.15332082E+04</totfact>
</mgrwt>
</event>
<event>
 4    2  0.3964208E+000  0.1840710E+03  0.7546771E-02  0.1163920E+00
         21   -1    0    0  503  502  0.00000000000E+00  0.00000000000E+00  0.26262345301E+03  0.26262345301E+03  0.00000000000E+00 0. -1.
         21   -1    0    0  501  503 -0.00000000000E+00 -0.00000000000E+00 -0.22828884825E+03  0.22828884825E+03  0.00000000000E+00 0. -1.
          6    1    1    2  501    0 -0.58787510866E+02 -0.22296716510E+02 -0.14469699993E+03  0.23413529591E+03  0.17300000000E+03 0. -1.
         -6    1    1    2    0  502  0.58787510866E+02  0.22296716510E+02  0.17903160469E+03  0.25677700535E+03  0.17300000000E+03 0. -1.
<mgrwt>
<rscale>  2 0.18407095E+03</rscale>
<asrwt>0</asrwt>
<pdfrwt beam="1">  1       21 0.40403608E-01 0.18407095E+03</pdfrwt>
<pdfrwt beam="2">  1       21 0.35121361E-01 0.18407095E+03</pdfrwt>
<totfact> 0.46320127E+04</totfact>
</mgrwt>
</event>
<event>
 4    2  0.3964208E+000  0.2006351E+03  0.7546771E-02  0.1149204E+00
         21   -1    0    0  503  502  0.00000000000E+00  0.00000000000E+00  0.41143309922E+02  0.41143309922E+02  0.00000000000E+00 0. -1.
         21   -1    0    0  501  503 -0.00000000000E+00 -0.00000000000E+00 -0.13689595136E+04  0.13689595136E+04  0.00000000000E+00 0. -1.
          6    1    1    2  501    0  0.99310325211E+01  0.10112779739E+03 -0.10405002188E+04  0.10596674772E+04  0.17300000000E+03 0. -1.
         -6    1    1    2    0  502 -0.99310325211E+01 -0.10112779739E+03 -0.28731598483E+03  0.35043534632E+03  0.17300000000E+03 0. -1.
<mgrwt>
<rscale>  2 0.20063513E+03</rscale>
<asrwt>0</asrwt>
<pdfrwt beam="1">  1       21 0.63297414E-02 0.20063513E+03</pdfrwt>
<pdfrwt beam="2">  1       21 0.21060911E+00 0.20063513E+03</pdfrwt>
<totfact> 0.20564914E+04</totfact>
</mgrwt>
</event>
<event>
 4    2  0.3964208E+000  0.1885686E+03  0.7546771E-02  0.1159759E+00
         21   -1    0    0  503  502  0.00000000000E+00  0.00000000000E+00  0.23679204586E+03  0.23679204586E+03  0.00000000000E+00 0. -1.
         21   -1    0    0  501  503 -0.00000000000E+00 -0.00000000000E+00 -0.27846016246E+03  0.27846016246E+03  0.00000000000E+00 0. -1.
          6    1    1    2  501    0  0.35564284655E+02 -0.66062770042E+02 -0.19570265462E+03  0.27176761572E+03  0.17300000000E+03 0. -1.
         -6    1    1    2    0  502 -0.35564284655E+02  0.66062770042E+02  0.15403453802E+03  0.24348459259E+03  0.17300000000E+03 0. -1.
<mgrwt>
<rscale>  2 0.18856858E+03</rscale>
<asrwt>0</asrwt>
<pdfrwt beam="1">  1       21 0.36429546E-01 0.18856858E+03</pdfrwt>
<pdfrwt beam="2">  1       21 0.42840025E-01 0.18856858E+03</pdfrwt>
<totfact> 0.38161037E+04</totfact>
</mgrwt>
</event>
<event>
 4    2  0.3964208E+000  0.2312238E+03  0.7546771E-02  0.1125781E+00
         21   -1    0    0  501  502  0.00000000000E+00  0.00000000000E+00  0.18084966278E+03  0.18084966278E+03  0.00000000000E+00 0.  1.
         21   -1    0    0  502  503 -0.00000000000E+00 -0.00000000000E+00 -0.52613933712E+03  0.52613933712E+03  0.00000000000E+00 0.  1.
          6    1    1    2  501    0  0.85012197516E+02 -0.12770418911E+03  0.61334403824E+02  0.23922028078E+03  0.17300000000E+03 0.  1.
         -6    1    1    2    0  503 -0.85012197516E+02  0.12770418911E+03 -0.40662407817E+03  0.46776871912E+03  0.17300000000E+03 0.  1.
<mgrwt>
<rscale>  2 0.23122377E+03</rscale>
<asrwt>0</asrwt>
<pdfrwt beam="1">  1       21 0.27823025E-01 0.23122377E+03</pdfrwt>
<pdfrwt beam="2">  1       21 0.80944514E-01 0.23122377E+03</pdfrwt>
<totfact> 0.16139928E+04</totfact>
</mgrwt>
</event>
<event>
 4    2  0.3964208E+000  0.2758025E+03  0.7546771E-02  0.1098004E+00
         21   -1    0    0  501  502  0.00000000000E+00  0.00000000000E+00  0.16043530043E+04  0.16043530043E+04  0.00000000000E+00 0.  1.
         21   -1    0    0  502  503 -0.00000000000E+00 -0.00000000000E+00 -0.67217017804E+02  0.67217017804E+02  0.00000000000E+00 0. -1.
          6    1    1    2  501    0  0.20829574470E+03  0.52448975823E+02  0.12222304283E+04  0.12529621830E+04  0.17300000000E+03 0.  1.
         -6    1    1    2    0  503 -0.20829574470E+03 -0.52448975823E+02  0.31490555819E+03  0.41860783904E+03  0.17300000000E+03 0. -1.
<mgrwt>
<rscale>  2 0.27580249E+03</rscale>
<asrwt>0</asrwt>
<pdfrwt beam="1">  1       21 0.24682351E+00 0.27580249E+03</pdfrwt>
<pdfrwt beam="2">  1       21 0.10341081E-01 0.27580249E+03</pdfrwt>
<totfact> 0.49390169E+03</totfact>
</mgrwt>
</event>
<event>
 4    2  0.3964208E+000  0.1818794E+03  0.7546771E-02  0.1165996E+00
         21   -1    0    0  503  502  0.00000000000E+00  0.00000000000E+00  0.47218369317E+02  0.47218369317E+02  0.00000000000E+00 0.  1.
         21   -1    0    0  501  503 -0.00000000000E+00 -0.00000000000E+00 -0.75937406085E+03  0.75937406085E+03  0.00000000000E+00 0.  1.
          6    1    1    2  501    0 -0.21222037747E+02  0.51968737814E+02 -0.46829840465E+03  0.50237786615E+03  0.17300000000E+03 0.  1.
         -6    1    1    2    0  502  0.21222037747E+02 -0.51968737814E+02 -0.24385728688E+03  0.30421456402E+03  0.17300000000E+03 0.  1.
<mgrwt>
<rscale>  2 0.18187942E+03</rscale>
<asrwt>0</asrwt>
<pdfrwt beam="1">  1       21 0.72643645E-02 0.18187942E+03</pdfrwt>
<pdfrwt beam="2">  1       21 0.11682678E+00 0.18187942E+03</pdfrwt>
<totfact> 0.80429098E+04</totfact>
</mgrwt>
</event>
<event>
 4    2  0.3964208E+000  0.1850849E+03  0.7546771E-02  0.1162971E+00
         21   -1    0    0  501  502  0.00000000000E+00  0.00000000000E+00  0.11621075738E+03  0.11621075738E+03  0.00000000000E+00 0.  1.
         21   -1    0    0  502  503 -0.00000000000E+00 -0.00000000000E+00 -0.50748377264E+03  0.50748377264E+03  0.00000000000E+00 0. -1.
          6    1    1    2  501    0  0.27666726449E+02  0.59682140175E+02  0.62560109224E+01  0.18519055937E+03  0.17300000000E+03 0.  1.
         -6    1    1    2    0  503 -0.27666726449E+02 -0.59682140175E+02 -0.39752902619E+03  0.43850397064E+03  0.17300000000E+03 0. -1.
<mgrwt>
<rscale>  2 0.18508486E+03</rscale>
<asrwt>0</asrwt>
<pdfrwt beam="1">  1       21 0.17878578E-01 0.18508486E+03</pdfrwt>
<pdfrwt beam="2">  1       21 0.78074428E-01 0.18508486E+03</pdfrwt>
<totfact> 0.41466221E+04</totfact>
</mgrwt>
</event>
<event>
 4    2  0.3964208E+000  0.2212472E+03  0.7546771E-02  0.1132957E+00
         21   -1    0    0  503  502  0.00000000000E+00  0.00000000000E+00  0.32713231871E+03  0.32713231871E+03  0.00000000000E+00 0.  1.
         21   -1    0    0  501  503 -0.00000000000E+00 -0.00000000000E+00 -0.26455108456E+03  0.26455108456E+03  0.00000000000E+00 0.  1.
          6    1    1    2  501    0 -0.97518344338E+02 -0.97526802149E+02 -0.16369197378E+03  0.27521876189E+03  0.17300000000E+03 0. -1.
         -6    1    1    2    0  502  0.97518344338E+02  0.97526802149E+02  0.22627320792E+03  0.31646464138E+03  0.17300000000E+03 0. -1.
<mgrwt>
<rscale>  2 0.22124716E+03</rscale>
<asrwt>0</asrwt>
<pdfrwt beam="1">  1       21 0.50328049E-01 0.22124716E+03</pdfrwt>
<pdfrwt beam="2">  1       21 0.40700167E-01 0.22124716E+03</pdfrwt>
<totfact> 0.21505410E+04</totfact>
</mgrwt>
</event>
<event>
 4    2  0.3964208E+000  0.2811299E+03  0.7546771E-02  0.1095073E+00
         21   -1    0    0  503  502  0.00000000000E+00  0.00000000000E+00  0.57532319646E+02  0.57532319646E+02  0.00000000000E+00 0. -1.
         21   -1    0    0  501  503 -0.00000000000E+00 -0.00000000000E+00 -0.13762933674E+04  0.13762933674E+04  0.00000000000E+00 0.  1.
          6    1    1    2  501    0 -0.19349857860E+03  0.10799698420E+03 -0.69030186918E+03  0.74535274811E+03  0.17300000000E+03 0. -1.
         -6    1    1    2    0  502  0.19349857860E+03 -0.10799698420E+03 -0.62845917857E+03  0.68847293893E+03  0.17300000000E+03 0.  1.
<mgrwt>
<rscale>  2 0.28112995E+03</rscale>
<asrwt>0</asrwt>
<pdfrwt beam="1">  1       21 0.88511263E-02 0.28112995E+03</pdfrwt>
<pdfrwt beam="2">  1       21 0.21173744E+00 0.28112995E+03</pdfrwt>
<totfact> 0.10677360E+04</totfact>
</mgrwt>
</event>
<event>
 4    2  0.3964208E+000  0.1800644E+03  0.7546771E-02  0.1167741E+00
         21   -1    0    0  503  502  0.00000000000E+00  0.00000000000E+00  0.11849409395E+03  0.11849409395E+03  0.00000000000E+00 0.  1.
         21   -1    0    0  501  503 -0.00000000000E+00 -0.00000000000E+00 -0.30061685777E+03  0.30061685777E+03  0.00000000000E+00 0.  1.
          6    1    1    2  501    0 -0.22431143902E+02 -0.44621004199E+02 -0.28271135783E+02  0.18227025910E+03  0.17300000000E+03 0. -1.
         -6    1    1    2    0  502  0.22431143902E+02  0.44621004199E+02 -0.15385162804E+03  0.23684069262E+03  0.17300000000E+03 0. -1.
<mgrwt>
<rscale>  2 0.18006441E+03</rscale>
<asrwt>0</asrwt>
<pdfrwt beam="1">  1       21 0.18229861E-01 0.18006441E+03</pdfrwt>
<pdfrwt beam="2">  1       21 0.46248747E-01 0.18006441E+03</pdfrwt>
<totfact> 0.12337970E+05</totfact>
</mgrwt>
</event>
<event>
 4    2  0.3964208E+000  0.2077497E+03  0.7546771E-02  0.1143360E+00
         21   -1    0    0  501  502  0.00000000000E+00  0.00000000000E+00  0.61718866339E+03  0.61718866339E+03  0.00000000000E+00 0.  1.
         21   -1    0    0  502  503 -0.00000000000E+00 -0.00000000000E+00 -0.83859228079E+02  0.83859228079E+02  0.00000000000E+00 0. -1.
          6    1    1    2  501    0  0.26222309477E+02 -0.11199703858E+03  0.40952359330E+03  0.45920531316E+03  0.17300000000E+03 0.  1.
         -6    1    1    2    0  503 -0.26222309477E+02  0.11199703858E+03  0.12380584201E+03  0.24184257830E+03  0.17300000000E+03 0. -1.
<mgrwt>
<rscale>  2 0.20774972E+03</rscale>
<asrwt>0</asrwt>
<pdfrwt beam="1">  1       21 0.94952099E-01 0.20774972E+03</pdfrwt>
<pdfrwt beam="2">  1       21 0.12901420E-01 0.20774972E+03</pdfrwt>
<totfact> 0.47424843E+04</totfact>
</mgrwt>
</event>
<event>
 4    2  0.3964208E+000  0.1867213E+03  0.7546771E-02  0.1161452E+00
         21   -1    0    0  503  502  0.00000000000E+00  0.00000000000E+00  0.12270222183E+04  0.12270222183E+04  0.00000000000E+00 0.  1.
         21   -1    0    0  501  503 -0.00000000000E+00 -0.00000000000E+00 -0.35944375637E+02  0.35944375637E+02  0.00000000000E+00 0.  1.
          6    1    1    2  501    0 -0.23401667799E+02 -0.66243534900E+02  0.30650474302E+03  0.35890110263E+03  0.17300000000E+03 0.  1.
         -6    1    1    2    0  502  0.23401667799E+02  0.66243534900E+02  0.88457309964E+03  0.90406549132E+03  0.17300000000E+03 0.  1.
<mgrwt>
<rscale>  2 0.18672130E+03</rscale>
<asrwt>0</asrwt>
<pdfrwt beam="1">  1       21 0.18877262E+00 0.18672130E+03</pdfrwt>
<pdfrwt beam="2">  1       21 0.55299049E-02 0.18672130E+03</pdfrwt>
<totfact> 0.36160652E+04</totfact>
</mgrwt>
</event>
<event>
 4    2  0.3964208E+000  0.3369217E+03  0.7546771E-02  0.1068115E+00
         21   -1    0    0  503  502  0.00000000000E+00  0.00000000000E+00  0.27485289664E+03  0.27485289664E+03  0.00000000000E+00 0. -1.
         21   -1    0    0  501  503 -0.00000000000E+00 -0.00000000000E+00 -0.46067418898E+03  0.46067418898E+03  0.00000000000E+00 0. -1.
          6    1    1    2  501    0 -0.23502417517E+03  0.16837714612E+03 -0.21120951111E+03  0.39765020286E+03  0.17300000000E+03 0. -1.
         -6    1    1    2    0  502  0.23502417517E+03 -0.16837714612E+03  0.25388218769E+02  0.33787688276E+03  0.17300000000E+03 0. -1.
<mgrwt>
<rscale>  2 0.33692169E+03</rscale>
<asrwt>0</asrwt>
<pdfrwt beam="1">  1       21 0.42285062E-01 0.33692169E+03</pdfrwt>
<pdfrwt beam="2">  1       21 0.70872951E-01 0.33692169E+03</pdfrwt>
<totfact> 0.89785719E+03</totfact>
</mgrwt>
</event>
<event>
 4    2  0.3964208E+000  0.2638980E+03  0.7546771E-02  0.1104824E+00
         21   -1    0    0  503  502  0.00000000000E+00  0.00000000000E+00  0.15057204456E+04  0.15057204456E+04  0.00000000000E+00 0. -1.
         21   -1    0    0  501  503 -0.00000000000E+00 -0.00000000000E+00 -0.58604996382E+02  0.58604996382E+02  0.00000000000E+00 0. -1.
          6    1    1    2  501    0 -0.18401534849E+03 -0.76495116555E+02  0.36445311770E+03  0.44996469455E+03  0.17300000000E+03 0. -1.
         -6    1    1    2    0  502  0.18401534849E+03  0.76495116555E+02  0.10826623315E+04  0.11143607475E+04  0.17300000000E+03 0. -1.
<mgrwt>
<rscale>  2 0.26389799E+03</rscale>
<asrwt>0</asrwt>
<pdfrwt beam="1">  1       21 0.23164927E+00 0.26389799E+03</pdfrwt>
<pdfrwt beam="2">  1       21 0.90161544E-02 0.26389799E+03</pdfrwt>
<totfact> 0.78541270E+03</totfact>
</mgrwt>
</event>
<event>
 4    2  0.3964208E+000  0.2401035E+03  0.7546771E-02  0.1119724E+00
         21   -1    0    0  503  502  0.00000000000E+00  0.00000000000E+00  0.99905380632E+03  0.99905380632E+03  0.00000000000E+00 0. -1.
         21   -1    0    0  501  503 -0.00000000000E+00 -0.00000000000E+00 -0.13611896826E+03  0.13611896826E+03  0.00000000000E+00 0.  1.
          6    1    1    2  501    0 -0.14487973702E+03  0.82040077251E+02  0.67180961274E+00  0.24010448517E+03  0.17300000000E+03 0.  1.
         -6    1    1    2    0  502  0.14487973702E+03 -0.82040077251E+02  0.86226302845E+03  0.89506828941E+03  0.17300000000E+03 0. -1.
<mgrwt>
<rscale>  2 0.24010355E+03</rscale>
<asrwt>0</asrwt>
<pdfrwt beam="1">  1       21 0.15370058E+00 0.24010355E+03</pdfrwt>
<pdfrwt beam="2">  1       21 0.20941380E-01 0.24010355E+03</pdfrwt>
<totfact> 0.57242375E+03</totfact>
</mgrwt>
</event>
<event>
 4    2  0.3964208E+000  0.2222325E+03  0.7546771E-02  0.1132230E+00
         21   -1    0    0  501  502  0.00000000000E+00  0.00000000000E+00  0.27787933655E+04  0.27787933655E+04  0.00000000000E+00 0. -1.
         21   -1    0    0  502  503 -0.00000000000E+00 -0.00000000000E+00 -0.31644177460E+02  0.31644177460E+02  0.00000000000E+00 0. -1.
          6    1    1    2  501    0 -0.43216785249E+02 -0.13262952054E+03  0.23039429012E+04  0.23146360777E+04  0.17300000000E+03 0.  1.
         -6    1    1    2    0  503  0.43216785249E+02  0.13262952054E+03  0.44320628680E+03  0.49580146521E+03  0.17300000000E+03 0.  1.
<mgrwt>
<rscale>  2 0.22223249E+03</rscale>
<asrwt>0</asrwt>
<pdfrwt beam="1">  1       21 0.42750648E+00 0.22223249E+03</pdfrwt>
<pdfrwt beam="2">  1       21 0.48683372E-02 0.22223249E+03</pdfrwt>
<totfact> 0.15745797E+03</totfact>
</mgrwt>
</event>
<event>
 4    2  0.3964208E+000  0.2792469E+03  0.7546771E-02  0.1096101E+00
         21   -1    0    0  501  502  0.00000000000E+00  0.00000000000E+00  0.67788135485E+03  0.67788135485E+03  0.00000000000E+00 0.  1.
         21   -1    0    0  502  503 -0.00000000000E+00 -0.00000000000E+00 -0.22619024842E+03  0.22619024842E+03  0.00000000000E+00 0.  1.
          6    1    1    2  501    0  0.99999510446E+02  0.19506396713E+03  0.54273255133E+03  0.61035848125E+03  0.17300000000E+03 0.  1.
         -6    1    1    2    0  503 -0.99999510446E+02 -0.19506396713E+03 -0.91041444900E+02  0.29371312203E+03  0.17300000000E+03 0.  1.
<mgrwt>
<rscale>  2 0.27924694E+03</rscale>
<asrwt>0</asrwt>
<pdfrwt beam="1">  1       21 0.10428944E+00 0.27924694E+03</pdfrwt>
<pdfrwt beam="2">  1       21 0.34798500E-01 0.27924694E+03</pdfrwt>
<totfact> 0.55817083E+03</totfact>
</mgrwt>
</event>
<event>
 4    2  0.3964208E+000  0.1845183E+03  0.7546771E-02  0.1163500E+00
         21   -1    0    0  501  502  0.00000000000E+00  0.00000000000E+00  0.42467491570E+02  0.42467491570E+02  0.00000000000E+00 0. -1.
         21   -1    0    0  502  503 -0.00000000000E+00 -0.00000000000E+00 -0.80566322877E+03  0.80566322877E+03  0.00000000000E+00 0. -1.
          6    1    1    2  501    0  0.21368046926E+02  0.60509710316E+02 -0.35192862451E+03  0.39736730518E+03  0.17300000000E+03 0. -1.
         -6    1    1    2    0  503 -0.21368046926E+02 -0.60509710316E+02 -0.41126711269E+03  0.45076341517E+03  0.17300000000E+03 0. -1.
<mgrwt>
<rscale>  2 0.18451834E+03</rscale>
<asrwt>0</asrwt>
<pdfrwt beam="1">  1       21 0.65334607E-02 0.18451834E+03</pdfrwt>
<pdfrwt beam="2">  1       21 0.12394818E+00 0.18451834E+03</pdfrwt>
<totfact> 0.83312857E+04</totfact>
</mgrwt>
</event>
<event>
 4    2  0.3964208E+000  0.2098220E+03  0.7546771E-02  0.1141707E+00
         21   -1    0    0  501  502  0.00000000000E+00  0.00000000000E+00  0.38099839909E+03  0.38099839909E+03  0.00000000000E+00 0. -1.
         21   -1    0    0  502  503 -0.00000000000E+00 -0.00000000000E+00 -0.12188584881E+03  0.12188584881E+03  0.00000000000E+00 0. -1.
          6    1    1    2  501    0  0.53449451206E+02  0.10601622359E+03  0.18687297250E+03  0.28097471657E+03  0.17300000000E+03 0. -1.
         -6    1    1    2    0  503 -0.53449451206E+02 -0.10601622359E+03  0.72239577774E+02  0.22190953133E+03  0.17300000000E+03 0. -1.
<mgrwt>
<rscale>  2 0.20982203E+03</rscale>
<asrwt>0</asrwt>
<pdfrwt beam="1">  1       21 0.58615138E-01 0.20982203E+03</pdfrwt>
<pdfrwt beam="2">  1       21 0.18751669E-01 0.20982203E+03</pdfrwt>
<totfact> 0.70360894E+04</totfact>
</mgrwt>
</event>
<event>
 4    2  0.3964208E+000  0.2105257E+03  0.7546771E-02  0.1141150E+00
         21   -1    0    0  503  502  0.00000000000E+00  0.00000000000E+00  0.13471414312E+03  0.13471414312E+03  0.00000000000E+00 0.  1.
         21   -1    0    0  501  503 -0.00000000000E+00 -0.00000000000E+00 -0.11227951263E+04  0.11227951263E+04  0.00000000000E+00 0.  1.
          6    1    1    2  501    0 -0.94520938843E+02  0.73877469270E+02  0.34629767446E+02  0.21335489012E+03  0.17300000000E+03 0.  1.
         -6    1    1    2    0  502  0.94520938843E+02 -0.73877469270E+02 -0.10227107507E+04  0.10441543793E+04  0.17300000000E+03 0.  1.
<mgrwt>
<rscale>  2 0.21052574E+03</rscale>
<asrwt>0</asrwt>
<pdfrwt beam="1">  1       21 0.20725253E-01 0.21052574E+03</pdfrwt>
<pdfrwt beam="2">  1       21 0.17273771E+00 0.21052574E+03</pdfrwt>
<totfact> 0.43407719E+03</totfact>
</mgrwt>
</event>
<event>
 4    2  0.3964208E+000  0.1928234E+03  0.7546771E-02  0.1155939E+00
         21   -1    0    0  503  502  0.00000000000E+00  0.00000000000E+00  0.21396709520E+02  0.21396709520E+02  0.00000000000E+00 0. -1.
         21   -1    0    0  501  503 -0.00000000000E+00 -0.00000000000E+00 -0.21015606642E+04  0.21015606642E+04  0.00000000000E+00 0. -1.
          6    1    1    2  501    0 -0.76515118218E+02 -0.37380643264E+02 -0.14817673977E+04  0.14942608530E+04  0.17300000000E+03 0. -1.
         -6    1    1    2    0  502  0.76515118218E+02  0.37380643264E+02 -0.59839655696E+03  0.62869652074E+03  0.17300000000E+03 0. -1.
<mgrwt>
<rscale>  2 0.19282343E+03</rscale>
<asrwt>0</asrwt>
<pdfrwt beam="1">  1       21 0.32918003E-02 0.19282343E+03</pdfrwt>
<pdfrwt beam="2">  1       21 0.32331714E+00 0.19282343E+03</pdfrwt>
<totfact> 0.13580190E+04</totfact>
</mgrwt>
</event>
<event>
 4    2  0.3964208E+000  0.1905254E+03  0.7546771E-02  0.1157988E+00
         21   -1    0    0  501  502  0.00000000000E+00  0.00000000000E+00  0.34514780409E+03  0.34514780409E+03  0.00000000000E+00 0.  1.
         21   -1    0    0  502  503 -0.00000000000E+00 -0.00000000000E+00 -0.11326144690E+03  0.11326144690E+03  0.00000000000E+00 0. -1.
          6    1    1    2  501    0 -0.75197950929E+02 -0.26761533394E+02  0.54688443343E+02  0.19821891264E+03  0.17300000000E+03 0. -1.
         -6    1    1    2    0  503  0.75197950929E+02  0.26761533394E+02  0.17719791385E+03  0.26019033834E+03  0.17300000000E+03 0.  1.
<mgrwt>
<rscale>  2 0.19052536E+03</rscale>
<asrwt>0</asrwt>
<pdfrwt beam="1">  1       21 0.53099662E-01 0.19052536E+03</pdfrwt>
<pdfrwt beam="2">  1       21 0.17424838E-01 0.19052536E+03</pdfrwt>
<totfact> 0.10022903E+05</totfact>
</mgrwt>
</event>
<event>
 4    2  0.3964208E+000  0.1831630E+03  0.7546771E-02  0.1164777E+00
         21   -1    0    0  501  502  0.00000000000E+00  0.00000000000E+00  0.38756469038E+03  0.38756469038E+03  0.00000000000E+00 0.  1.
         21   -1    0    0  502  503 -0.00000000000E+00 -0.00000000000E+00 -0.99977021180E+02  0.99977021180E+02  0.00000000000E+00 0.  1.
          6    1    1    2  501    0  0.60025594481E+02  0.40745576146E+01  0.54501358385E+02  0.19109963914E+03  0.17300000000E+03 0.  1.
         -6    1    1    2    0  503 -0.60025594481E+02 -0.40745576146E+01  0.23308631081E+03  0.29644207242E+03  0.17300000000E+03 0.  1.
<mgrwt>
<rscale>  2 0.18316297E+03</rscale>
<asrwt>0</asrwt>
<pdfrwt beam="1">  1       21 0.59625336E-01 0.18316297E+03</pdfrwt>
<pdfrwt beam="2">  1       21 0.15381080E-01 0.18316297E+03</pdfrwt>
<totfact> 0.98777154E+04</totfact>
</mgrwt>
</event>
<event>
 4    2  0.3964208E+000  0.1892359E+03  0.7546771E-02  0.1159152E+00
         21   -1    0    0  501  502  0.00000000000E+00  0.00000000000E+00  0.13798163334E+03  0.13798163334E+03  0.00000000000E+00 0. -1.
         21   -1    0    0  502  503 -0.00000000000E+00 -0.00000000000E+00 -0.99034388813E+03  0.99034388813E+03  0.00000000000E+00 0. -1.
          6    1    1    2  501    0  0.71968178724E+02  0.26491426076E+02  0.58454280760E+02  0.19805836853E+03  0.17300000000E+03 0. -1.
         -6    1    1    2    0  503 -0.71968178724E+02 -0.26491426076E+02 -0.91081653555E+03  0.93026715294E+03  0.17300000000E+03 0. -1.
<mgrwt>
<rscale>  2 0.18923587E+03</rscale>
<asrwt>0</asrwt>
<pdfrwt beam="1">  1       21 0.21227944E-01 0.18923587E+03</pdfrwt>
<pdfrwt beam="2">  1       21 0.15236060E+00 0.18923587E+03</pdfrwt>
<totfact> 0.59387609E+03</totfact>
</mgrwt>
</event>
<event>
 4    2  0.3964208E+000  0.1852550E+03  0.7546771E-02  0.1162812E+00
         21   -1    0    0  503  502  0.00000000000E+00  0.00000000000E+00  0.33122757562E+03  0.33122757562E+03  0.00000000000E+00 0.  1.
         21   -1    0    0  501  503 -0.00000000000E+00 -0.00000000000E+00 -0.13533735161E+03  0.13533735161E+03  0.00000000000E+00 0. -1.
          6    1    1    2  501    0  0.93366645784E+01  0.65599160017E+02 -0.15000891171E+02  0.18586137263E+03  0.17300000000E+03 0. -1.
         -6    1    1    2    0  502 -0.93366645784E+01 -0.65599160017E+02  0.21089111519E+03  0.28070355460E+03  0.17300000000E+03 0.  1.
<mgrwt>
<rscale>  2 0.18525502E+03</rscale>
<asrwt>0</asrwt>
<pdfrwt beam="1">  1       21 0.50958088E-01 0.18525502E+03</pdfrwt>
<pdfrwt beam="2">  1       21 0.20821131E-01 0.18525502E+03</pdfrwt>
<totfact> 0.78644164E+04</totfact>
</mgrwt>
</event>
<event>
 4    2  0.3964208E+000  0.2586700E+03  0.7546771E-02  0.1107945E+00
         21   -1    0    0  503  502  0.00000000000E+00  0.00000000000E+00  0.12448733447E+03  0.12448733447E+03  0.00000000000E+00 0.  1.
         21   -1    0    0  501  503 -0.00000000000E+00 -0.00000000000E+00 -0.54445152625E+03  0.54445152625E+03  0.00000000000E+00 0. -1.
          6    1    1    2  501    0 -0.13623132896E+03  0.13572829486E+03 -0.24781480309E+03  0.35822105137E+03  0.17300000000E+03 0.  1.
         -6    1    1    2    0  502  0.13623132896E+03 -0.13572829486E+03 -0.17214938870E+03  0.31071780935E+03  0.17300000000E+03 0.  1.
<mgrwt>
<rscale>  2 0.25866995E+03</rscale>
<asrwt>0</asrwt>
<pdfrwt beam="1">  1       21 0.19151898E-01 0.25866995E+03</pdfrwt>
<pdfrwt beam="2">  1       21 0.83761772E-01 0.25866995E+03</pdfrwt>
<totfact> 0.29998141E+04</totfact>
</mgrwt>
</event>
<event>
 4    2  0.3964208E+000  0.2077060E+03  0.7546771E-02  0.1143396E+00
         21   -1    0    0  503  502  0.00000000000E+00  0.00000000000E+00  0.71529516788E+02  0.71529516788E+02  0.00000000000E+00 0. -1.
         21   -1    0    0  501  503 -0.00000000000E+00 -0.00000000000E+00 -0.84742248364E+03  0.84742248364E+03  0.00000000000E+00 0. -1.
          6    1    1    2  501    0  0.83750867904E+00  0.11494385679E+03 -0.63464439904E+03  0.66776890079E+03  0.17300000000E+03 0. -1.
         -6    1    1    2    0  502 -0.83750867904E+00 -0.11494385679E+03 -0.14124856781E+03  0.25118309964E+03  0.17300000000E+03 0. -1.
<mgrwt>
<rscale>  2 0.20770602E+03</rscale>
<asrwt>0</asrwt>
<pdfrwt beam="1">  1       21 0.11004541E-01 0.20770602E+03</pdfrwt>
<pdfrwt beam="2">  1       21 0.13037269E+00 0.20770602E+03</pdfrwt>
<totfact> 0.29124137E+04</totfact>
</mgrwt>
</event>
<event>
 4    2  0.3964208E+000  0.2663344E+03  0.7546771E-02  0.1103396E+00
         21   -1    0    0  501  502  0.00000000000E+00  0.00000000000E+00  0.62307758976E+03  0.62307758976E+03  0.00000000000E+00 0.  1.
         21   -1    0    0  502  503 -0.00000000000E+00 -0.00000000000E+00 -0.16806089635E+03  0.16806089635E+03  0.00000000000E+00 0.  1.
          6    1    1    2  501    0 -0.17422490109E+03  0.10320211777E+03  0.45218309665E+03  0.52478904921E+03  0.17300000000E+03 0.  1.
         -6    1    1    2    0  503  0.17422490109E+03 -0.10320211777E+03  0.28335967566E+01  0.26634943691E+03  0.17300000000E+03 0.  1.
<mgrwt>
<rscale>  2 0.26633436E+03</rscale>
<asrwt>0</asrwt>
<pdfrwt beam="1">  1       21 0.95858089E-01 0.26633436E+03</pdfrwt>
<pdfrwt beam="2">  1       21 0.25855523E-01 0.26633436E+03</pdfrwt>
<totfact> 0.12332527E+04</totfact>
</mgrwt>
</event>
<event>
 4    2  0.3964208E+000  0.2440202E+03  0.7546771E-02  0.1117143E+00
         21   -1    0    0  501  502  0.00000000000E+00  0.00000000000E+00  0.36420775114E+02  0.36420775114E+02  0.00000000000E+00 0.  1.
         21   -1    0    0  502  503 -0.00000000000E+00 -0.00000000000E+00 -0.18230469084E+04  0.18230469084E+04  0.00000000000E+00 0.  1.
          6    1    1    2  501    0 -0.17201630652E+03  0.52188038336E+01 -0.59466474674E+03  0.64278457250E+03  0.17300000000E+03 0.  1.
         -6    1    1    2    0  503  0.17201630652E+03 -0.52188038336E+01 -0.11919613866E+04  0.12166831110E+04  0.17300000000E+03 0.  1.
<mgrwt>
<rscale>  2 0.24402017E+03</rscale>
<asrwt>0</asrwt>
<pdfrwt beam="1">  1       21 0.56031952E-02 0.24402017E+03</pdfrwt>
<pdfrwt beam="2">  1       21 0.28046880E+00 0.24402017E+03</pdfrwt>
<totfact> 0.93426508E+03</totfact>
</mgrwt>
</event>
<event>
 4    2  0.3964208E+000  0.2443466E+03  0.7546771E-02  0.1116931E+00
         21   -1    0    0  501  502  0.00000000000E+00  0.00000000000E+00  0.14691037688E+03  0.14691037688E+03  0.00000000000E+00 0. -1.
         21   -1    0    0  502  503 -0.00000000000E+00 -0.00000000000E+00 -0.83712803915E+03  0.83712803915E+03  0.00000000000E+00 0.  1.
          6    1    1    2  501    0  0.16827543119E+03 -0.38205201693E+02  0.78179880177E+01  0.24447163254E+03  0.17300000000E+03 0. -1.
         -6    1    1    2    0  503 -0.16827543119E+03  0.38205201693E+02 -0.69803565029E+03  0.73956678350E+03  0.17300000000E+03 0.  1.
<mgrwt>
<rscale>  2 0.24434659E+03</rscale>
<asrwt>0</asrwt>
<pdfrwt beam="1">  1       21 0.22601597E-01 0.24434659E+03</pdfrwt>
<pdfrwt beam="2">  1       21 0.12878893E+00 0.24434659E+03</pdfrwt>
<totfact> 0.78322357E+03</totfact>
</mgrwt>
</event>
<event>
 4    2  0.3964208E+000  0.2386251E+03  0.7546771E-02  0.1120712E+00
         21   -1    0    0  501  502  0.00000000000E+00  0.00000000000E+00  0.87435544129E+02  0.87435544129E+02  0.00000000000E+00 0.  1.
         21   -1    0    0  502  503 -0.00000000000E+00 -0.00000000000E+00 -0.99279164583E+03  0.99279164583E+03  0.00000000000E+00 0.  1.
          6    1    1    2  501    0 -0.32863061656E+02 -0.16103716225E+03 -0.13588098172E+03  0.27460078230E+03  0.17300000000E+03 0.  1.
         -6    1    1    2    0  503  0.32863061656E+02  0.16103716225E+03 -0.76947511998E+03  0.80562640766E+03  0.17300000000E+03 0.  1.
<mgrwt>
<rscale>  2 0.23862512E+03</rscale>
<asrwt>0</asrwt>
<pdfrwt beam="1">  1       21 0.13451622E-01 0.23862512E+03</pdfrwt>
<pdfrwt beam="2">  1       21 0.15273718E+00 0.23862512E+03</pdfrwt>
<totfact> 0.13204059E+04</totfact>
</mgrwt>
</event>
<event>
 4    2  0.3964208E+000  0.3393330E+03  0.7546771E-02  0.1067080E+00
         21   -1    0    0  501  502  0.00000000000E+00  0.00000000000E+00  0.65687110456E+03  0.65687110456E+03  0.00000000000E+00 0. -1.
         21   -1    0    0  502  503 -0.00000000000E+00 -0.00000000000E+00 -0.27589718783E+03  0.27589718783E+03  0.00000000000E+00 0.  1.
          6    1    1    2  501    0 -0.27792993136E+03  0.89290699712E+02  0.47211228006E+03  0.58140939173E+03  0.17300000000E+03 0. -1.
         -6    1    1    2    0  503  0.27792993136E+03 -0.89290699712E+02 -0.91138363331E+02  0.35135890066E+03  0.17300000000E+03 0.  1.
<mgrwt>
<rscale>  2 0.33933299E+03</rscale>
<asrwt>0</asrwt>
<pdfrwt beam="1">  1       21 0.10105709E+00 0.33933299E+03</pdfrwt>
<pdfrwt beam="2">  1       21 0.42445721E-01 0.33933299E+03</pdfrwt>
<totfact> 0.39028695E+03</totfact>
</mgrwt>
</event>
<event>
 4    2  0.3964208E+000  0.1785765E+03  0.7546771E-02  0.1169188E+00
         21   -1    0    0  501  502  0.00000000000E+00  0.00000000000E+00  0.60463231361E+03  0.60463231361E+03  0.00000000000E+00 0.  1.
         21   -1    0    0  502  503 -0.00000000000E+00 -0.00000000000E+00 -0.11114841001E+03  0.11114841001E+03  0.00000000000E+00 0.  1.
          6    1    1    2  501    0 -0.41111709168E+02  0.16443333842E+02  0.50617685040E+03  0.53675372354E+03  0.17300000000E+03 0.  1.
         -6    1    1    2    0  503  0.41111709168E+02 -0.16443333842E+02 -0.12692946788E+02  0.17902700008E+03  0.17300000000E+03 0.  1.
<mgrwt>
<rscale>  2 0.17857647E+03</rscale>
<asrwt>0</asrwt>
<pdfrwt beam="1">  1       21 0.93020354E-01 0.17857647E+03</pdfrwt>
<pdfrwt beam="2">  1       21 0.17099756E-01 0.17857647E+03</pdfrwt>
<totfact> 0.30269200E+04</totfact>
</mgrwt>
</event>
<event>
 4    2  0.3964208E+000  0.2086772E+03  0.7546771E-02  0.1142618E+00
         21   -1    0    0  503  502  0.00000000000E+00  0.00000000000E+00  0.28516102206E+03  0.28516102206E+03  0.00000000000E+00 0.  1.
         21   -1    0    0  501  503 -0.00000000000E+00 -0.00000000000E+00 -0.19645003603E+03  0.19645003603E+03  0.00000000000E+00 0. -1.
          6    1    1    2  501    0  0.11576859936E+03 -0.14656800728E+02  0.15798549395E+03  0.26173575741E+03  0.17300000000E+03 0.  1.
         -6    1    1    2    0  502 -0.11576859936E+03  0.14656800728E+02 -0.69274507919E+02  0.21987530069E+03  0.17300000000E+03 0. -1.
<mgrwt>
<rscale>  2 0.20867724E+03</rscale>
<asrwt>0</asrwt>
<pdfrwt beam="1">  1       21 0.43870926E-01 0.20867724E+03</pdfrwt>
<pdfrwt beam="2">  1       21 0.30223082E-01 0.20867724E+03</pdfrwt>
<totfact> 0.52032043E+04</totfact>
</mgrwt>
</event>
<event>
 4    2  0.3964208E+000  0.1797344E+03  0.7546771E-02  0.1168060E+00
         21   -1    0    0  501  502  0.00000000000E+00  0.00000000000E+00  0.12059561243E+03  0.12059561243E+03  0.00000000000E+00 0. -1.
         21   -1    0    0  502  503 -0.00000000000E+00 -0.00000000000E+00 -0.38845573579E+03  0.38845573579E+03  0.00000000000E+00 0. -1.
          6    1    1    2  501    0 -0.48457648121E+02 -0.52272362631E+01 -0.27573815466E+03  0.32914434158E+03  0.17300000000E+03 0. -1.
         -6    1    1    2    0  503  0.48457648121E+02  0.52272362631E+01  0.78780313015E+01  0.17990700664E+03  0.17300000000E+03 0. -1.
<mgrwt>
<rscale>  2 0.17973444E+03</rscale>
<asrwt>0</asrwt>
<pdfrwt beam="1">  1       21 0.18553171E-01 0.17973444E+03</pdfrwt>
<pdfrwt beam="2">  1       21 0.59762422E-01 0.17973444E+03</pdfrwt>
<totfact> 0.69759984E+04</totfact>
</mgrwt>
</event>
<event>
 4    2  0.3964208E+000  0.4174294E+03  0.7546771E-02  0.1037906E+00
         21   -1    0    0  501  502  0.00000000000E+00  0.00000000000E+00  0.68478031881E+03  0.68478031881E+03  0.00000000000E+00 0.  1.
         21   -1    0    0  502  503 -0.00000000000E+00 -0.00000000000E+00 -0.41701482147E+03  0.41701482147E+03  0.00000000000E+00 0. -1.
          6    1    1    2  501    0  0.18104892784E+03  0.33397541626E+03  0.47783547732E+03  0.63448722314E+03  0.17300000000E+03 0.  1.
         -6    1    1    2    0  503 -0.18104892784E+03 -0.33397541626E+03 -0.21006997998E+03  0.46730791715E+03  0.17300000000E+03 0. -1.
<mgrwt>
<rscale>  2 0.41742939E+03</rscale>
<asrwt>0</asrwt>
<pdfrwt beam="1">  1       21 0.10535082E+00 0.41742939E+03</pdfrwt>
<pdfrwt beam="2">  1       21 0.64156126E-01 0.41742939E+03</pdfrwt>
<totfact> 0.14094249E+03</totfact>
</mgrwt>
</event>
<event>
 4    2  0.3964208E+000  0.2251737E+03  0.7546771E-02  0.1130084E+00
         21   -1    0    0  503  502  0.00000000000E+00  0.00000000000E+00  0.12264536479E+03  0.12264536479E+03  0.00000000000E+00 0.  1.
         21   -1    0    0  501  503 -0.00000000000E+00 -0.00000000000E+00 -0.57651115860E+03  0.57651115860E+03  0.00000000000E+00 0.  1.
          6    1    1    2  501    0  0.14407342704E+03 -0.41261772339E+01 -0.40996161186E+02  0.22887521261E+03  0.17300000000E+03 0.  1.
         -6    1    1    2    0  502 -0.14407342704E+03  0.41261772339E+01 -0.41286963262E+03  0.47028131077E+03  0.17300000000E+03 0.  1.
<mgrwt>
<rscale>  2 0.22517366E+03</rscale>
<asrwt>0</asrwt>
<pdfrwt beam="1">  1       21 0.18868518E-01 0.22517366E+03</pdfrwt>
<pdfrwt beam="2">  1       21 0.88694023E-01 0.22517366E+03</pdfrwt>
<totfact> 0.27460364E+04</totfact>
</mgrwt>
</event>
<event>
 4    2  0.3964208E+000  0.1953188E+03  0.7546771E-02  0.1153750E+00
         21   -1    0    0  501  502  0.00000000000E+00  0.00000000000E+00  0.28912996080E+03  0.28912996080E+03  0.00000000000E+00 0. -1.
         21   -1    0    0  502  503 -0.00000000000E+00 -0.00000000000E+00 -0.13337264697E+03  0.13337264697E+03  0.00000000000E+00 0.  1.
          6    1    1    2  501    0  0.62091353773E+02 -0.66068849388E+02  0.56027038297E+02  0.20319561534E+03  0.17300000000E+03 0.  1.
         -6    1    1    2    0  503 -0.62091353773E+02  0.66068849388E+02  0.99730275534E+02  0.21930699243E+03  0.17300000000E+03 0. -1.
<mgrwt>
<rscale>  2 0.19531879E+03</rscale>
<asrwt>0</asrwt>
<pdfrwt beam="1">  1       21 0.44481532E-01 0.19531879E+03</pdfrwt>
<pdfrwt beam="2">  1       21 0.20518869E-01 0.19531879E+03</pdfrwt>
<totfact> 0.10666803E+05</totfact>
</mgrwt>
</event>
<event>
 4    2  0.3964208E+000  0.3954930E+03  0.7546771E-02  0.1045352E+00
         21   -1    0    0  503  502  0.00000000000E+00  0.00000000000E+00  0.14892193635E+03  0.14892193635E+03  0.00000000000E+00 0.  1.
         21   -1    0    0  501  503 -0.00000000000E+00 -0.00000000000E+00 -0.11628216262E+04  0.11628216262E+04  0.00000000000E+00 0.  1.
          6    1    1    2  501    0  0.27144160693E+03 -0.22979366744E+03 -0.71096147217E+03  0.81356062496E+03  0.17300000000E+03 0.  1.
         -6    1    1    2    0  502 -0.27144160693E+03  0.22979366744E+03 -0.30293821766E+03  0.49818293757E+03  0.17300000000E+03 0.  1.
<mgrwt>
<rscale>  2 0.39549295E+03</rscale>
<asrwt>0</asrwt>
<pdfrwt beam="1">  1       21 0.22911068E-01 0.39549295E+03</pdfrwt>
<pdfrwt beam="2">  1       21 0.17889563E+00 0.39549295E+03</pdfrwt>
<totfact> 0.28999669E+03</totfact>
</mgrwt>
</event>
<event>
 4    2  0.3964208E+000  0.2022098E+03  0.7546771E-02  0.1147888E+00
         21   -1    0    0  503  502  0.00000000000E+00  0.00000000000E+00  0.13818688207E+04  0.13818688207E+04  0.00000000000E+00 0.  1.
         21   -1    0    0  501  503 -0.00000000000E+00 -0.00000000000E+00 -0.86528784144E+02  0.86528784144E+02  0.00000000000E+00 0.  1.
          6    1    1    2  501    0 -0.30654916003E+02  0.10010025383E+03  0.52090937128E+02  0.20881151889E+03  0.17300000000E+03 0.  1.
         -6    1    1    2    0  502  0.30654916003E+02 -0.10010025383E+03  0.12432490994E+04  0.12595860860E+04  0.17300000000E+03 0.  1.
<mgrwt>
<rscale>  2 0.20220975E+03</rscale>
<asrwt>0</asrwt>
<pdfrwt beam="1">  1       21 0.21259519E+00 0.20220975E+03</pdfrwt>
<pdfrwt beam="2">  1       21 0.13312122E-01 0.20220975E+03</pdfrwt>
<totfact> 0.53959597E+03</totfact>
</mgrwt>
</event>
<event>
 4    2  0.3964208E+000  0.2235560E+03  0.7546771E-02  0.1131259E+00
         21   -1    0    0  503  502  0.00000000000E+00  0.00000000000E+00  0.70331216291E+02  0.70331216291E+02  0.00000000000E+00 0.  1.
         21   -1    0    0  501  503 -0.00000000000E+00 -0.00000000000E+00 -0.27612534244E+04  0.27612534244E+04  0.00000000000E+00 0. -1.
          6    1    1    2  501    0 -0.83247389578E+02 -0.11453458681E+03 -0.25655532935E+04  0.25752749370E+04  0.17300000000E+03 0. -1.
         -6    1    1    2    0  502  0.83247389578E+02  0.11453458681E+03 -0.12536891462E+03  0.25630970368E+03  0.17300000000E+03 0.  1.
<mgrwt>
<rscale>  2 0.22355603E+03</rscale>
<asrwt>0</asrwt>
<pdfrwt beam="1">  1       21 0.10820187E-01 0.22355603E+03</pdfrwt>
<pdfrwt beam="2">  1       21 0.42480824E+00 0.22355603E+03</pdfrwt>
<totfact> 0.40836446E+02</totfact>
</mgrwt>
</event>
<event>
 4    2  0.3964208E+000  0.1788920E+03  0.7546771E-02  0.1168880E+00
         21   -1    0    0  501  502  0.00000000000E+00  0.00000000000E+00  0.43144167119E+03  0.43144167119E+03  0.00000000000E+00 0. -1.
         21   -1    0    0  502  503 -0.00000000000E+00 -0.00000000000E+00 -0.14951982919E+03  0.14951982919E+03  0.00000000000E+00 0.  1.
          6    1    1    2  501    0  0.45533839797E+02  0.13433200701E+00  0.34716326661E+03  0.39054408496E+03  0.17300000000E+03 0. -1.
         -6    1    1    2    0  503 -0.45533839797E+02 -0.13433200701E+00 -0.65241424613E+02  0.19041741543E+03  0.17300000000E+03 0.  1.
<mgrwt>
<rscale>  2 0.17889200E+03</rscale>
<asrwt>0</asrwt>
<pdfrwt beam="1">  1       21 0.66375642E-01 0.17889200E+03</pdfrwt>
<pdfrwt beam="2">  1       21 0.23003051E-01 0.17889200E+03</pdfrwt>
<totfact> 0.37210687E+04</totfact>
</mgrwt>
</event>
<event>
 4    2  0.3964208E+000  0.2592998E+03  0.7546771E-02  0.1107565E+00
         21   -1    0    0  501  502  0.00000000000E+00  0.00000000000E+00  0.33175278231E+03  0.33175278231E+03  0.00000000000E+00 0.  1.
         21   -1    0    0  502  503 -0.00000000000E+00 -0.00000000000E+00 -0.22351111436E+03  0.22351111436E+03  0.00000000000E+00 0.  1.
          6    1    1    2  501    0 -0.18346167358E+03  0.60408825812E+02  0.13889782058E+03  0.29415814874E+03  0.17300000000E+03 0.  1.
         -6    1    1    2    0  503  0.18346167358E+03 -0.60408825812E+02 -0.30656152625E+02  0.26110574793E+03  0.17300000000E+03 0.  1.
<mgrwt>
<rscale>  2 0.25929985E+03</rscale>
<asrwt>0</asrwt>
<pdfrwt beam="1">  1       21 0.51038889E-01 0.25929985E+03</pdfrwt>
<pdfrwt beam="2">  1       21 0.34386325E-01 0.25929985E+03</pdfrwt>
<totfact> 0.28784670E+04</totfact>
</mgrwt>
</event>
<event>
 4    2  0.3964208E+000  0.1986783E+03  0.7546771E-02  0.1150859E+00
         21   -1    0    0  503  502  0.00000000000E+00  0.00000000000E+00  0.37882538084E+03  0.37882538084E+03  0.00000000000E+00 0.  1.
         21   -1    0    0  501  503 -0.00000000000E+00 -0.00000000000E+00 -0.16508737998E+03  0.16508737998E+03  0.00000000000E+00 0.  1.
          6    1    1    2  501    0  0.84329108521E+02  0.49321982870E+02 -0.58293374215E+02  0.20705355350E+03  0.17300000000E+03 0.  1.
         -6    1    1    2    0  502 -0.84329108521E+02 -0.49321982870E+02  0.27203137507E+03  0.33685920733E+03  0.17300000000E+03 0.  1.
<mgrwt>
<rscale>  2 0.19867827E+03</rscale>
<asrwt>0</asrwt>
<pdfrwt beam="1">  1       21 0.58280828E-01 0.19867827E+03</pdfrwt>
<pdfrwt beam="2">  1       21 0.25398059E-01 0.19867827E+03</pdfrwt>
<totfact> 0.40402427E+04</totfact>
</mgrwt>
</event>
