<event>
 4    1  0.1043382E-007  0.8907493E+03  0.7818608E-02  0.9541048E-01
          1   -1    0    0  501    0  0.00000000000E+00  0.00000000000E+00  0.12105981332E+04  0.12105981332E+04  0.50400000000E-02 0. -1.
         -1   -1    0    0    0  501 -0.00000000000E+00 -0.00000000000E+00 -0.75161347974E+03  0.75161347976E+03  0.50400000000E-02 0.  1.
    8880023    1    1    2    0    0  0.51890390344E+03 -0.30060426193E+03 -0.33837637416E+03  0.95285516221E+03  0.65864270000E+03 0.  0.
    8880022    1    1    2    0    0 -0.51890390344E+03  0.30060426193E+03  0.79736102758E+03  0.10093564507E+04  0.15294330000E+03 0.  0.
<mgrwt>
<rscale>  0 0.81323999E+03</rscale>
<asrwt>0</asrwt>
<pdfrwt beam="1">  1        1 0.18624586E+00 0.89074934E+03</pdfrwt>
<pdfrwt beam="2">  1       -1 0.11563284E+00 0.89074934E+03</pdfrwt>
<totfact> 0.72272678E+00</totfact>
</mgrwt>
</event>
<event>
 4    1  0.1043382E-007  0.6857083E+03  0.7818608E-02  0.1006263E+00
          1   -1    0    0  501    0  0.00000000000E+00  0.00000000000E+00  0.48398061127E+03  0.48398061130E+03  0.50400000000E-02 0. -1.
         -1   -1    0    0    0  501 -0.00000000000E+00 -0.00000000000E+00 -0.12936987921E+04  0.12936987922E+04  0.50400000000E-02 0.  1.
    8880023    1    1    2    0    0  0.10935283009E+03  0.15629332079E+03 -0.11617804568E+04  0.13490476936E+04  0.65864270000E+03 0.  1.
    8880022    1    1    2    0    0 -0.10935283009E+03 -0.15629332079E+03  0.35206227590E+03  0.42863170987E+03  0.15294330000E+03 0.  0.
<mgrwt>
<rscale>  0 0.52987274E+03</rscale>
<asrwt>0</asrwt>
<pdfrwt beam="1">  1        1 0.74458557E-01 0.68570828E+03</pdfrwt>
<pdfrwt beam="2">  1       -1 0.19903058E+00 0.68570828E+03</pdfrwt>
<totfact> 0.73886142E+00</totfact>
</mgrwt>
</event>
<event>
 4    1  0.1043382E-007  0.7324083E+03  0.7818608E-02  0.9882640E-01
          1   -1    0    0  501    0  0.00000000000E+00  0.00000000000E+00  0.16987270488E+04  0.16987270488E+04  0.50400000000E-02 0. -1.
         -1   -1    0    0    0  501 -0.00000000000E+00 -0.00000000000E+00 -0.36106441481E+03  0.36106441484E+03  0.50400000000E-02 0.  1.
    8880023    1    1    2    0    0  0.12791339361E+03  0.29368340777E+03  0.61278938581E+02  0.73496741073E+03  0.65864270000E+03 0.  0.
    8880022    1    1    2    0    0 -0.12791339361E+03 -0.29368340777E+03  0.12763836954E+04  0.13248240529E+04  0.15294330000E+03 0.  0.
<mgrwt>
<rscale>  0 0.61110067E+03</rscale>
<asrwt>0</asrwt>
<pdfrwt beam="1">  1        1 0.26134262E+00 0.73240835E+03</pdfrwt>
<pdfrwt beam="2">  1       -1 0.55548372E-01 0.73240835E+03</pdfrwt>
<totfact> 0.16292227E+01</totfact>
</mgrwt>
</event>
<event>
 4    1  0.1043382E-007  0.8029061E+03  0.7818608E-02  0.9704547E-01
         -1   -1    0    0    0  501 -0.00000000000E+00  0.00000000000E+00  0.89905054755E+03  0.89905054756E+03  0.50400000000E-02 0.  1.
          1   -1    0    0  501    0  0.00000000000E+00 -0.00000000000E+00 -0.93349303141E+03  0.93349303143E+03  0.50400000000E-02 0. -1.
    8880023    1    1    2    0    0  0.25683749197E+03  0.38063438232E+03  0.62293362050E+03  0.10162207103E+04  0.65864270000E+03 0.  0.
    8880022    1    1    2    0    0 -0.25683749197E+03 -0.38063438232E+03 -0.65737610437E+03  0.81632286866E+03  0.15294330000E+03 0. -1.
<mgrwt>
<rscale>  0 0.70746692E+03</rscale>
<asrwt>0</asrwt>
<pdfrwt beam="1">  1        1 0.14361431E+00 0.80290612E+03</pdfrwt>
<pdfrwt beam="2">  1       -1 0.13831547E+00 0.80290612E+03</pdfrwt>
<totfact> 0.75855896E+00</totfact>
</mgrwt>
</event>
<event>
 4    1  0.1043382E-007  0.9882216E+03  0.7818608E-02  0.9397132E-01
         -1   -1    0    0    0  501 -0.00000000000E+00  0.00000000000E+00  0.11519448678E+04  0.11519448678E+04  0.50400000000E-02 0.  1.
          1   -1    0    0  501    0  0.00000000000E+00 -0.00000000000E+00 -0.15255417823E+04  0.15255417823E+04  0.50400000000E-02 0. -1.
    8880023    1    1    2    0    0 -0.31130099307E+03 -0.66772998850E+03  0.80810540393E+03  0.12765642154E+04  0.65864270000E+03 0.  1.
    8880022    1    1    2    0    0  0.31130099307E+03  0.66772998850E+03 -0.11817023184E+04  0.14009224348E+04  0.15294330000E+03 0.  0.
<mgrwt>
<rscale>  0 0.92312063E+03</rscale>
<asrwt>0</asrwt>
<pdfrwt beam="1">  1        1 0.23469873E+00 0.98822156E+03</pdfrwt>
<pdfrwt beam="2">  1       -1 0.17722229E+00 0.98822156E+03</pdfrwt>
<totfact> 0.13799332E+00</totfact>
</mgrwt>
</event>
<event>
 4    1  0.1043382E-007  0.6765641E+03  0.7818608E-02  0.1011338E+00
          1   -1    0    0  501    0  0.00000000000E+00  0.00000000000E+00  0.85596440258E+03  0.85596440259E+03  0.50400000000E-02 0. -1.
         -1   -1    0    0    0  501 -0.00000000000E+00 -0.00000000000E+00 -0.54895437677E+03  0.54895437679E+03  0.50400000000E-02 0.  1.
    8880023    1    1    2    0    0  0.13051664957E+03  0.83031461082E+02 -0.31475631360E+03  0.74619740187E+03  0.65864270000E+03 0.  1.
    8880022    1    1    2    0    0 -0.13051664957E+03 -0.83031461082E+02  0.62176633941E+03  0.65872137751E+03  0.15294330000E+03 0.  0.
<mgrwt>
<rscale>  0 0.50946325E+03</rscale>
<asrwt>0</asrwt>
<pdfrwt beam="1">  1        1 0.13168683E+00 0.67656413E+03</pdfrwt>
<pdfrwt beam="2">  1       -1 0.84454520E-01 0.67656413E+03</pdfrwt>
<totfact> 0.28444228E+01</totfact>
</mgrwt>
</event>
<event>
 4    1  0.1043382E-007  0.8830767E+03  0.7818608E-02  0.9553764E-01
         -1   -1    0    0    0  501 -0.00000000000E+00  0.00000000000E+00  0.15358686740E+04  0.15358686740E+04  0.50400000000E-02 0.  1.
          1   -1    0    0  501    0  0.00000000000E+00 -0.00000000000E+00 -0.56235078068E+03  0.56235078071E+03  0.50400000000E-02 0. -1.
    8880023    1    1    2    0    0 -0.55422438571E+03 -0.19710299013E+03  0.11641950180E+04  0.14612236326E+04  0.65864270000E+03 0.  0.
    8880022    1    1    2    0    0  0.55422438571E+03  0.19710299013E+03 -0.19067712468E+03  0.63699582206E+03  0.15294330000E+03 0.  0.
<mgrwt>
<rscale>  0 0.80433469E+03</rscale>
<asrwt>0</asrwt>
<pdfrwt beam="1">  1        1 0.86515504E-01 0.88307670E+03</pdfrwt>
<pdfrwt beam="2">  1       -1 0.23628749E+00 0.88307670E+03</pdfrwt>
<totfact> 0.32933828E+00</totfact>
</mgrwt>
</event>
<event>
 4    1  0.1043382E-007  0.7462319E+03  0.7818608E-02  0.9842152E-01
         -1   -1    0    0    0  501 -0.00000000000E+00  0.00000000000E+00  0.16223396496E+03  0.16223396504E+03  0.50400000000E-02 0.  1.
          1   -1    0    0  501    0  0.00000000000E+00 -0.00000000000E+00 -0.23510013638E+04  0.23510013638E+04  0.50400000000E-02 0. -1.
    8880023    1    1    2    0    0  0.24701568193E+03  0.24906856089E+03 -0.90146498967E+03  0.11702569073E+04  0.65864270000E+03 0.  1.
    8880022    1    1    2    0    0 -0.24701568193E+03 -0.24906856089E+03 -0.12873024092E+04  0.13429784216E+04  0.15294330000E+03 0.  0.
<mgrwt>
<rscale>  0 0.63148662E+03</rscale>
<asrwt>0</asrwt>
<pdfrwt beam="1">  1        1 0.36169249E+00 0.74623194E+03</pdfrwt>
<pdfrwt beam="2">  1       -1 0.24959073E-01 0.74623194E+03</pdfrwt>
<totfact> 0.25182790E+01</totfact>
</mgrwt>
</event>
<event>
 4    1  0.1043382E-007  0.9702023E+03  0.7818608E-02  0.9421624E-01
          1   -1    0    0  501    0  0.00000000000E+00  0.00000000000E+00  0.16987427718E+04  0.16987427718E+04  0.50400000000E-02 0. -1.
         -1   -1    0    0    0  501 -0.00000000000E+00 -0.00000000000E+00 -0.89123100543E+03  0.89123100545E+03  0.50400000000E-02 0.  1.
    8880023    1    1    2    0    0 -0.41815559876E+03 -0.57673924493E+03 -0.50127113413E+03  0.10920463441E+04  0.65864270000E+03 0.  1.
    8880022    1    1    2    0    0  0.41815559876E+03  0.57673924493E+03  0.13087829005E+04  0.14979274332E+04  0.15294330000E+03 0.  0.
<mgrwt>
<rscale>  0 0.90317237E+03</rscale>
<asrwt>0</asrwt>
<pdfrwt beam="1">  1        1 0.26134504E+00 0.97020228E+03</pdfrwt>
<pdfrwt beam="2">  1       -1 0.13711246E+00 0.97020228E+03</pdfrwt>
<totfact> 0.21380750E+00</totfact>
</mgrwt>
</event>
<event>
 4    1  0.1043382E-007  0.6797074E+03  0.7818608E-02  0.1009490E+00
         -1   -1    0    0    0  501 -0.00000000000E+00  0.00000000000E+00  0.49131594850E+03  0.49131594852E+03  0.50400000000E-02 0.  1.
          1   -1    0    0  501    0  0.00000000000E+00 -0.00000000000E+00 -0.61758258525E+03  0.61758258527E+03  0.50400000000E-02 0. -1.
    8880023    1    1    2    0    0 -0.28180648707E+02  0.16552273087E+03 -0.37153519894E+03  0.77462283320E+03  0.65864270000E+03 0. -1.
    8880022    1    1    2    0    0  0.28180648707E+02 -0.16552273087E+03  0.24526856219E+03  0.33427570059E+03  0.15294330000E+03 0.  0.
<mgrwt>
<rscale>  0 0.51677967E+03</rscale>
<asrwt>0</asrwt>
<pdfrwt beam="1">  1        1 0.95012706E-01 0.67970739E+03</pdfrwt>
<pdfrwt beam="2">  1       -1 0.75587069E-01 0.67970739E+03</pdfrwt>
<totfact> 0.59342406E+01</totfact>
</mgrwt>
</event>
<event>
 4    1  0.1043382E-007  0.6631411E+03  0.7818608E-02  0.1021147E+00
         -1   -1    0    0    0  501 -0.00000000000E+00  0.00000000000E+00  0.16628653172E+03  0.16628653180E+03  0.50400000000E-02 0.  1.
          1   -1    0    0  501    0  0.00000000000E+00 -0.00000000000E+00 -0.13176413428E+04  0.13176413428E+04  0.50400000000E-02 0. -1.
    8880023    1    1    2    0    0  0.74782732336E+02  0.18801596359E+02 -0.55903004607E+03  0.86733543439E+03  0.65864270000E+03 0.  1.
    8880022    1    1    2    0    0 -0.74782732336E+02 -0.18801596359E+02 -0.59232476503E+03  0.61659244024E+03  0.15294330000E+03 0.  0.
<mgrwt>
<rscale>  0 0.47275112E+03</rscale>
<asrwt>0</asrwt>
<pdfrwt beam="1">  1        1 0.20271405E+00 0.66314113E+03</pdfrwt>
<pdfrwt beam="2">  1       -1 0.25582544E-01 0.66314113E+03</pdfrwt>
<totfact> 0.12151018E+02</totfact>
</mgrwt>
</event>
<event>
 4    1  0.1043382E-007  0.6870756E+03  0.7818608E-02  0.1005575E+00
          1   -1    0    0  501    0  0.00000000000E+00  0.00000000000E+00  0.58448055915E+03  0.58448055917E+03  0.50400000000E-02 0. -1.
         -1   -1    0    0    0  501 -0.00000000000E+00 -0.00000000000E+00 -0.53536905668E+03  0.53536905670E+03  0.50400000000E-02 0.  1.
    8880023    1    1    2    0    0  0.12099396673E+03 -0.15369807390E+03 -0.24996456606E+03  0.73113277074E+03  0.65864270000E+03 0.  0.
    8880022    1    1    2    0    0 -0.12099396673E+03  0.15369807390E+03  0.29907606853E+03  0.38871684513E+03  0.15294330000E+03 0.  0.
<mgrwt>
<rscale>  0 0.53271975E+03</rscale>
<asrwt>0</asrwt>
<pdfrwt beam="1">  1        1 0.89920086E-01 0.68707557E+03</pdfrwt>
<pdfrwt beam="2">  1       -1 0.82364470E-01 0.68707557E+03</pdfrwt>
<totfact> 0.53542765E+01</totfact>
</mgrwt>
</event>
<event>
 4    1  0.1043382E-007  0.6774426E+03  0.7818608E-02  0.1010809E+00
         -1   -1    0    0    0  501 -0.00000000000E+00  0.00000000000E+00  0.31193549567E+03  0.31193549571E+03  0.50400000000E-02 0.  1.
          1   -1    0    0  501    0  0.00000000000E+00 -0.00000000000E+00 -0.21418390014E+04  0.21418390015E+04  0.50400000000E-02 0. -1.
    8880023    1    1    2    0    0 -0.92887414780E+02  0.12841434299E+03 -0.71020592951E+02  0.68115522915E+03  0.65864270000E+03 0.  1.
    8880022    1    1    2    0    0  0.92887414780E+02 -0.12841434299E+03 -0.17588829128E+04  0.17726192680E+04  0.15294330000E+03 0.  0.
<mgrwt>
<rscale>  0 0.51154432E+03</rscale>
<asrwt>0</asrwt>
<pdfrwt beam="1">  1        1 0.32951368E+00 0.67744263E+03</pdfrwt>
<pdfrwt beam="2">  1       -1 0.47990077E-01 0.67744263E+03</pdfrwt>
<totfact> 0.10979836E+01</totfact>
</mgrwt>
</event>
<event>
 4    1  0.1043382E-007  0.6679307E+03  0.7818608E-02  0.1017192E+00
          1   -1    0    0  501    0  0.00000000000E+00  0.00000000000E+00  0.20115928298E+04  0.20115928298E+04  0.50400000000E-02 0. -1.
         -1   -1    0    0    0  501 -0.00000000000E+00 -0.00000000000E+00 -0.23145749988E+03  0.23145749994E+03  0.50400000000E-02 0.  1.
    8880023    1    1    2    0    0 -0.10447153685E+03 -0.37509225714E+02  0.26887060454E+03  0.72001586946E+03  0.65864270000E+03 0.  1.
    8880022    1    1    2    0    0  0.10447153685E+03  0.37509225714E+02  0.15112647254E+04  0.15230344603E+04  0.15294330000E+03 0.  0.
<mgrwt>
<rscale>  0 0.48713765E+03</rscale>
<asrwt>0</asrwt>
<pdfrwt beam="1">  1        1 0.30947584E+00 0.66793072E+03</pdfrwt>
<pdfrwt beam="2">  1       -1 0.35608844E-01 0.66793072E+03</pdfrwt>
<totfact> 0.23169127E+01</totfact>
</mgrwt>
</event>
<event>
 4    1  0.1043382E-007  0.8089226E+03  0.7818608E-02  0.9691826E-01
          1   -1    0    0  501    0  0.00000000000E+00  0.00000000000E+00  0.19601091959E+04  0.19601091959E+04  0.50400000000E-02 0. -1.
         -1   -1    0    0    0  501 -0.00000000000E+00 -0.00000000000E+00 -0.58602914138E+03  0.58602914141E+03  0.50400000000E-02 0.  1.
    8880023    1    1    2    0    0  0.41565603220E+03  0.21857635503E+03 -0.25155261887E+03  0.84713309840E+03  0.65864270000E+03 0.  0.
    8880022    1    1    2    0    0 -0.41565603220E+03 -0.21857635503E+03  0.16256326734E+04  0.16990052389E+04  0.15294330000E+03 0.  0.
<mgrwt>
<rscale>  0 0.71505588E+03</rscale>
<asrwt>0</asrwt>
<pdfrwt beam="1">  1        1 0.30155526E+00 0.80892260E+03</pdfrwt>
<pdfrwt beam="2">  1       -1 0.90158329E-01 0.80892260E+03</pdfrwt>
<totfact> 0.39679481E+00</totfact>
</mgrwt>
</event>
<event>
 4    1  0.1043382E-007  0.6745096E+03  0.7818608E-02  0.1012617E+00
          1   -1    0    0  501    0  0.00000000000E+00  0.00000000000E+00  0.63938245779E+03  0.63938245781E+03  0.50400000000E-02 0. -1.
         -1   -1    0    0    0  501 -0.00000000000E+00 -0.00000000000E+00 -0.31280088243E+03  0.31280088247E+03  0.50400000000E-02 0.  1.
    8880023    1    1    2    0    0  0.11505140945E+03 -0.88973068394E+02  0.18989075360E+03  0.70072943301E+03  0.65864270000E+03 0.  0.
    8880022    1    1    2    0    0 -0.11505140945E+03  0.88973068394E+02  0.13669082175E+03  0.25145390727E+03  0.15294330000E+03 0.  0.
<mgrwt>
<rscale>  0 0.50447611E+03</rscale>
<asrwt>0</asrwt>
<pdfrwt beam="1">  1        1 0.98366531E-01 0.67450963E+03</pdfrwt>
<pdfrwt beam="2">  1       -1 0.48123213E-01 0.67450963E+03</pdfrwt>
<totfact> 0.13756385E+02</totfact>
</mgrwt>
</event>
<event>
 4    1  0.1043382E-007  0.8304842E+03  0.7818608E-02  0.9648391E-01
          1   -1    0    0  501    0  0.00000000000E+00  0.00000000000E+00  0.20533250701E+04  0.20533250701E+04  0.50400000000E-02 0. -1.
         -1   -1    0    0    0  501 -0.00000000000E+00 -0.00000000000E+00 -0.27030166488E+03  0.27030166492E+03  0.50400000000E-02 0.  1.
    8880023    1    1    2    0    0  0.44343790229E+03  0.24342694984E+03  0.58980135554E+03  0.10186116524E+04  0.65864270000E+03 0.  0.
    8880022    1    1    2    0    0 -0.44343790229E+03 -0.24342694984E+03  0.11932220497E+04  0.13050150827E+04  0.15294330000E+03 0.  0.
<mgrwt>
<rscale>  0 0.74174494E+03</rscale>
<asrwt>0</asrwt>
<pdfrwt beam="1">  1        1 0.31589616E+00 0.83048423E+03</pdfrwt>
<pdfrwt beam="2">  1       -1 0.41584873E-01 0.83048423E+03</pdfrwt>
<totfact> 0.16038970E+01</totfact>
</mgrwt>
</event>
<event>
 4    1  0.1043382E-007  0.8000196E+03  0.7818608E-02  0.9710754E-01
          1   -1    0    0  501    0  0.00000000000E+00  0.00000000000E+00  0.15052767376E+04  0.15052767376E+04  0.50400000000E-02 0. -1.
         -1   -1    0    0    0  501 -0.00000000000E+00 -0.00000000000E+00 -0.40662879862E+03  0.40662879865E+03  0.50400000000E-02 0.  1.
    8880023    1    1    2    0    0  0.77205747709E+02 -0.44750473155E+03  0.10257769890E+03  0.80656903164E+03  0.65864270000E+03 0.  1.
    8880022    1    1    2    0    0 -0.77205747709E+02  0.44750473155E+03  0.99607024005E+03  0.11053365046E+04  0.15294330000E+03 0.  0.
<mgrwt>
<rscale>  0 0.70380122E+03</rscale>
<asrwt>0</asrwt>
<pdfrwt beam="1">  1        1 0.23158103E+00 0.80001964E+03</pdfrwt>
<pdfrwt beam="2">  1       -1 0.62558277E-01 0.80001964E+03</pdfrwt>
<totfact> 0.17295199E+01</totfact>
</mgrwt>
</event>
<event>
 4    1  0.1043382E-007  0.7264783E+03  0.7818608E-02  0.9901246E-01
          1   -1    0    0  501    0  0.00000000000E+00  0.00000000000E+00  0.12896036328E+04  0.12896036329E+04  0.50400000000E-02 0. -1.
         -1   -1    0    0    0  501 -0.00000000000E+00 -0.00000000000E+00 -0.55650483235E+03  0.55650483237E+03  0.50400000000E-02 0.  1.
    8880023    1    1    2    0    0  0.11362633600E+03  0.28469205255E+03 -0.27853736716E+03  0.77804484458E+03  0.65864270000E+03 0.  1.
    8880022    1    1    2    0    0 -0.11362633600E+03 -0.28469205255E+03  0.10116361677E+04  0.10680636206E+04  0.15294330000E+03 0.  0.
<mgrwt>
<rscale>  0 0.60200954E+03</rscale>
<asrwt>0</asrwt>
<pdfrwt beam="1">  1        1 0.19840056E+00 0.72647830E+03</pdfrwt>
<pdfrwt beam="2">  1       -1 0.85616129E-01 0.72647830E+03</pdfrwt>
<totfact> 0.12871762E+01</totfact>
</mgrwt>
</event>
<event>
 4    1  0.2684197E-007  0.1202541E+04  0.7818608E-02  0.9154657E-01
          1   -1    0    0  501    0  0.00000000000E+00  0.00000000000E+00  0.20668651607E+04  0.20668651608E+04  0.50400000000E-02 0. -1.
         -1   -1    0    0    0  501 -0.00000000000E+00 -0.00000000000E+00 -0.19494795852E+04  0.19494795852E+04  0.50400000000E-02 0.  1.
    8880023    1    1    2    0    0 -0.31448810505E+03 -0.95571491381E+03 -0.16111640864E+04  0.20104610626E+04  0.65864270000E+03 0.  1.
    8880022    1    1    2    0    0  0.31448810505E+03  0.95571491381E+03  0.17285496619E+04  0.20058836834E+04  0.15294330000E+03 0.  0.
<mgrwt>
<rscale>  0 0.11533956E+04</rscale>
<asrwt>0</asrwt>
<pdfrwt beam="1">  1        1 0.31797926E+00 0.12025406E+04</pdfrwt>
<pdfrwt beam="2">  1       -1 0.29991993E+00 0.12025406E+04</pdfrwt>
<totfact> 0.87498264E-02</totfact>
</mgrwt>
</event>
<event>
 4    1  0.1043382E-007  0.9675927E+03  0.7818608E-02  0.9425241E-01
          1   -1    0    0  501    0  0.00000000000E+00  0.00000000000E+00  0.12931896937E+04  0.12931896937E+04  0.50400000000E-02 0. -1.
         -1   -1    0    0    0  501 -0.00000000000E+00 -0.00000000000E+00 -0.69718743353E+03  0.69718743355E+03  0.50400000000E-02 0.  1.
    8880023    1    1    2    0    0 -0.46708161822E+03 -0.53316054540E+03 -0.11551884953E+03  0.97446406609E+03  0.65864270000E+03 0.  0.
    8880022    1    1    2    0    0  0.46708161822E+03  0.53316054540E+03  0.71152110968E+03  0.10159130611E+04  0.15294330000E+03 0.  0.
<mgrwt>
<rscale>  0 0.90027205E+03</rscale>
<asrwt>0</asrwt>
<pdfrwt beam="1">  1        1 0.19895226E+00 0.96759269E+03</pdfrwt>
<pdfrwt beam="2">  1       -1 0.10725961E+00 0.96759269E+03</pdfrwt>
<totfact> 0.74665323E+00</totfact>
</mgrwt>
</event>
<event>
 4    1  0.1043382E-007  0.7462636E+03  0.7818608E-02  0.9842063E-01
          1   -1    0    0  501    0  0.00000000000E+00  0.00000000000E+00  0.15602983563E+04  0.15602983563E+04  0.50400000000E-02 0. -1.
         -1   -1    0    0    0  501 -0.00000000000E+00 -0.00000000000E+00 -0.38543867328E+03  0.38543867331E+03  0.50400000000E-02 0.  1.
    8880023    1    1    2    0    0  0.14578825742E+03  0.31913151877E+03  0.39174027877E+02  0.74729107649E+03  0.65864270000E+03 0.  0.
    8880022    1    1    2    0    0 -0.14578825742E+03 -0.31913151877E+03  0.11356856551E+04  0.11984459531E+04  0.15294330000E+03 0.  0.
<mgrwt>
<rscale>  0 0.63153218E+03</rscale>
<asrwt>0</asrwt>
<pdfrwt beam="1">  1        1 0.24004590E+00 0.74626359E+03</pdfrwt>
<pdfrwt beam="2">  1       -1 0.59298257E-01 0.74626359E+03</pdfrwt>
<totfact> 0.17758853E+01</totfact>
</mgrwt>
</event>
<event>
 4    1  0.1043382E-007  0.6986399E+03  0.7818608E-02  0.1000289E+00
         -1   -1    0    0    0  501 -0.00000000000E+00  0.00000000000E+00  0.75612025284E+03  0.75612025286E+03  0.50400000000E-02 0.  1.
          1   -1    0    0  501    0  0.00000000000E+00 -0.00000000000E+00 -0.34733497998E+03  0.34733498002E+03  0.50400000000E-02 0. -1.
    8880023    1    1    2    0    0 -0.21449832696E+03  0.90983341327E+02  0.43583188013E+03  0.82343617523E+03  0.65864270000E+03 0.  1.
    8880022    1    1    2    0    0  0.21449832696E+03 -0.90983341327E+02 -0.27046607272E+02  0.28001905765E+03  0.15294330000E+03 0.  0.
<mgrwt>
<rscale>  0 0.55523662E+03</rscale>
<asrwt>0</asrwt>
<pdfrwt beam="1">  1        1 0.53436152E-01 0.69863990E+03</pdfrwt>
<pdfrwt beam="2">  1       -1 0.11632619E+00 0.69863990E+03</pdfrwt>
<totfact> 0.49504305E+01</totfact>
</mgrwt>
</event>
<event>
 4    1  0.1043382E-007  0.7233248E+03  0.7818608E-02  0.9911493E-01
         -1   -1    0    0    0  501 -0.00000000000E+00  0.00000000000E+00  0.34516754069E+03  0.34516754073E+03  0.50400000000E-02 0.  1.
          1   -1    0    0  501    0  0.00000000000E+00 -0.00000000000E+00 -0.11218237466E+04  0.11218237466E+04  0.50400000000E-02 0. -1.
    8880023    1    1    2    0    0  0.16257513525E+03  0.25091397598E+03 -0.12521584358E+03  0.73408290519E+03  0.65864270000E+03 0.  1.
    8880022    1    1    2    0    0 -0.16257513525E+03 -0.25091397598E+03 -0.65144036232E+03  0.73290838215E+03  0.15294330000E+03 0.  0.
<mgrwt>
<rscale>  0 0.59707527E+03</rscale>
<asrwt>0</asrwt>
<pdfrwt beam="1">  1        1 0.17258827E+00 0.72332476E+03</pdfrwt>
<pdfrwt beam="2">  1       -1 0.53102699E-01 0.72332476E+03</pdfrwt>
<totfact> 0.44906697E+01</totfact>
</mgrwt>
</event>
<event>
 4    1  0.1043382E-007  0.8639237E+03  0.7818608E-02  0.9586622E-01
          1   -1    0    0  501    0  0.00000000000E+00  0.00000000000E+00  0.15162330388E+04  0.15162330388E+04  0.50400000000E-02 0. -1.
         -1   -1    0    0    0  501 -0.00000000000E+00 -0.00000000000E+00 -0.80863639277E+03  0.80863639278E+03  0.50400000000E-02 0.  1.
    8880023    1    1    2    0    0 -0.48479387615E+03  0.27843991125E+03  0.12576571004E+04  0.15257999459E+04  0.65864270000E+03 0. -1.
    8880022    1    1    2    0    0  0.48479387615E+03 -0.27843991125E+03 -0.55006045434E+03  0.79906948570E+03  0.15294330000E+03 0.  0.
<mgrwt>
<rscale>  0 0.78188006E+03</rscale>
<asrwt>0</asrwt>
<pdfrwt beam="1">  1        1 0.23326662E+00 0.86392366E+03</pdfrwt>
<pdfrwt beam="2">  1       -1 0.12440560E+00 0.86392366E+03</pdfrwt>
<totfact> 0.36986918E+00</totfact>
</mgrwt>
</event>
<event>
 4    1  0.1043382E-007  0.6849598E+03  0.7818608E-02  0.1006647E+00
         -1   -1    0    0    0  501 -0.00000000000E+00  0.00000000000E+00  0.58698837175E+03  0.58698837177E+03  0.50400000000E-02 0.  1.
          1   -1    0    0  501    0  0.00000000000E+00 -0.00000000000E+00 -0.14660494699E+04  0.14660494699E+04  0.50400000000E-02 0. -1.
    8880023    1    1    2    0    0  0.18028524002E+03  0.53450052728E+02  0.37148930079E+03  0.77921382353E+03  0.65864270000E+03 0.  1.
    8880022    1    1    2    0    0 -0.18028524002E+03 -0.53450052728E+02 -0.12505503989E+04  0.12738240181E+04  0.15294330000E+03 0.  0.
<mgrwt>
<rscale>  0 0.52829440E+03</rscale>
<asrwt>0</asrwt>
<pdfrwt beam="1">  1        1 0.22554607E+00 0.68495977E+03</pdfrwt>
<pdfrwt beam="2">  1       -1 0.90305904E-01 0.68495977E+03</pdfrwt>
<totfact> 0.86916728E+00</totfact>
</mgrwt>
</event>
<event>
 4    1  0.1043382E-007  0.7115904E+03  0.7818608E-02  0.9952142E-01
         -1   -1    0    0    0  501 -0.00000000000E+00  0.00000000000E+00  0.20475109934E+03  0.20475109940E+03  0.50400000000E-02 0.  1.
          1   -1    0    0  501    0  0.00000000000E+00 -0.00000000000E+00 -0.14079227609E+04  0.14079227609E+04  0.50400000000E-02 0. -1.
    8880023    1    1    2    0    0  0.18818246635E+03 -0.19271228094E+03 -0.10466239925E+04  0.12656155229E+04  0.65864270000E+03 0.  0.
    8880022    1    1    2    0    0 -0.18818246635E+03  0.19271228094E+03 -0.15654766905E+03  0.34705833741E+03  0.15294330000E+03 0.  0.
<mgrwt>
<rscale>  0 0.57799466E+03</rscale>
<asrwt>0</asrwt>
<pdfrwt beam="1">  1        1 0.21660350E+00 0.71159038E+03</pdfrwt>
<pdfrwt beam="2">  1       -1 0.31500170E-01 0.71159038E+03</pdfrwt>
<totfact> 0.73006286E+01</totfact>
</mgrwt>
</event>
<event>
 4    1  0.1043382E-007  0.6773112E+03  0.7818608E-02  0.1010887E+00
          1   -1    0    0  501    0  0.00000000000E+00  0.00000000000E+00  0.24962008638E+03  0.24962008643E+03  0.50400000000E-02 0. -1.
         -1   -1    0    0    0  501 -0.00000000000E+00 -0.00000000000E+00 -0.27019421345E+04  0.27019421345E+04  0.50400000000E-02 0.  1.
    8880023    1    1    2    0    0 -0.10740422894E+03  0.11577790438E+03 -0.25999660657E+04  0.26867403932E+04  0.65864270000E+03 0.  1.
    8880022    1    1    2    0    0  0.10740422894E+03 -0.11577790438E+03  0.14764401752E+03  0.26482182777E+03  0.15294330000E+03 0.  0.
<mgrwt>
<rscale>  0 0.51123472E+03</rscale>
<asrwt>0</asrwt>
<pdfrwt beam="1">  1        1 0.38403092E-01 0.67731115E+03</pdfrwt>
<pdfrwt beam="2">  1       -1 0.41568338E+00 0.67731115E+03</pdfrwt>
<totfact> 0.67441100E-01</totfact>
</mgrwt>
</event>
<event>
 4    1  0.1043382E-007  0.6795759E+03  0.7818608E-02  0.1009565E+00
         -1   -1    0    0    0  501 -0.00000000000E+00  0.00000000000E+00  0.41962303306E+03  0.41962303309E+03  0.50400000000E-02 0.  1.
          1   -1    0    0  501    0  0.00000000000E+00 -0.00000000000E+00 -0.12533134403E+04  0.12533134403E+04  0.50400000000E-02 0. -1.
    8880023    1    1    2    0    0 -0.10417281450E+03  0.13100070956E+03  0.12224362489E+03  0.69048307096E+03  0.65864270000E+03 0.  1.
    8880022    1    1    2    0    0  0.10417281450E+03 -0.13100070956E+03 -0.95593403211E+03  0.98245340243E+03  0.15294330000E+03 0.  0.
<mgrwt>
<rscale>  0 0.51648051E+03</rscale>
<asrwt>0</asrwt>
<pdfrwt beam="1">  1        1 0.19281745E+00 0.67957587E+03</pdfrwt>
<pdfrwt beam="2">  1       -1 0.64557390E-01 0.67957587E+03</pdfrwt>
<totfact> 0.24726291E+01</totfact>
</mgrwt>
</event>
<event>
 4    1  0.1043382E-007  0.1580858E+04  0.7818608E-02  0.8854553E-01
         -1   -1    0    0    0  501 -0.00000000000E+00  0.00000000000E+00  0.89554010631E+03  0.89554010632E+03  0.50400000000E-02 0.  1.
          1   -1    0    0  501    0  0.00000000000E+00 -0.00000000000E+00 -0.31725032540E+04  0.31725032540E+04  0.50400000000E-02 0. -1.
    8880023    1    1    2    0    0 -0.98420277946E+03 -0.10472089364E+04 -0.20752734132E+04  0.26088065496E+04  0.65864270000E+03 0.  0.
    8880022    1    1    2    0    0  0.98420277946E+03  0.10472089364E+04 -0.20168973448E+03  0.14592368107E+04  0.15294330000E+03 0.  0.
<mgrwt>
<rscale>  0 0.15458024E+04</rscale>
<asrwt>0</asrwt>
<pdfrwt beam="1">  1        1 0.48807742E+00 0.15808580E+04</pdfrwt>
<pdfrwt beam="2">  1       -1 0.13777540E+00 0.15808580E+04</pdfrwt>
<totfact> 0.18416079E-01</totfact>
</mgrwt>
</event>
<event>
 4    1  0.1043382E-007  0.8321993E+03  0.7818608E-02  0.9645068E-01
          1   -1    0    0  501    0  0.00000000000E+00  0.00000000000E+00  0.16260571812E+04  0.16260571812E+04  0.50400000000E-02 0. -1.
         -1   -1    0    0    0  501 -0.00000000000E+00 -0.00000000000E+00 -0.39566941143E+03  0.39566941146E+03  0.50400000000E-02 0.  1.
    8880023    1    1    2    0    0 -0.14106142605E+03  0.48871994275E+03  0.19003541698E+03  0.85362121244E+03  0.65864270000E+03 0.  1.
    8880022    1    1    2    0    0  0.14106142605E+03 -0.48871994275E+03  0.10403523527E+04  0.11681053802E+04  0.15294330000E+03 0.  0.
<mgrwt>
<rscale>  0 0.74383748E+03</rscale>
<asrwt>0</asrwt>
<pdfrwt beam="1">  1        1 0.25016264E+00 0.83219932E+03</pdfrwt>
<pdfrwt beam="2">  1       -1 0.60872217E-01 0.83219932E+03</pdfrwt>
<totfact> 0.15045081E+01</totfact>
</mgrwt>
</event>
<event>
 4    1  0.1043382E-007  0.1068461E+04  0.7818608E-02  0.9297011E-01
          1   -1    0    0  501    0  0.00000000000E+00  0.00000000000E+00  0.13937630706E+04  0.13937630706E+04  0.50400000000E-02 0. -1.
         -1   -1    0    0    0  501 -0.00000000000E+00 -0.00000000000E+00 -0.10645977949E+04  0.10645977949E+04  0.50400000000E-02 0.  1.
    8880023    1    1    2    0    0 -0.27833868962E+03 -0.79393109031E+03 -0.57544501172E+03  0.12135675383E+04  0.65864270000E+03 0.  1.
    8880022    1    1    2    0    0  0.27833868962E+03  0.79393109031E+03  0.90461028744E+03  0.12447933272E+04  0.15294330000E+03 0. -1.
<mgrwt>
<rscale>  0 0.10105851E+04</rscale>
<asrwt>0</asrwt>
<pdfrwt beam="1">  1        1 0.21442509E+00 0.10684611E+04</pdfrwt>
<pdfrwt beam="2">  1       -1 0.16378428E+00 0.10684611E+04</pdfrwt>
<totfact> 0.21151332E+00</totfact>
</mgrwt>
</event>
<event>
 4    1  0.1043382E-007  0.9730452E+03  0.7818608E-02  0.9417705E-01
          1   -1    0    0  501    0  0.00000000000E+00  0.00000000000E+00  0.11476832246E+04  0.11476832246E+04  0.50400000000E-02 0. -1.
         -1   -1    0    0    0  501 -0.00000000000E+00 -0.00000000000E+00 -0.11266687001E+04  0.11266687002E+04  0.50400000000E-02 0.  1.
    8880023    1    1    2    0    0 -0.16785480848E+03  0.69629845024E+03 -0.73675026025E+03  0.12204990458E+04  0.65864270000E+03 0.  0.
    8880022    1    1    2    0    0  0.16785480848E+03 -0.69629845024E+03  0.75776478470E+03  0.10538528790E+04  0.15294330000E+03 0.  0.
<mgrwt>
<rscale>  0 0.90632863E+03</rscale>
<asrwt>0</asrwt>
<pdfrwt beam="1">  1        1 0.17656665E+00 0.97304521E+03</pdfrwt>
<pdfrwt beam="2">  1       -1 0.17333365E+00 0.97304521E+03</pdfrwt>
<totfact> 0.27360785E+00</totfact>
</mgrwt>
</event>
<event>
 4    1  0.1043382E-007  0.9854507E+03  0.7818608E-02  0.9400845E-01
          1   -1    0    0  501    0  0.00000000000E+00  0.00000000000E+00  0.10399078163E+04  0.10399078163E+04  0.50400000000E-02 0. -1.
         -1   -1    0    0    0  501 -0.00000000000E+00 -0.00000000000E+00 -0.15621976840E+04  0.15621976840E+04  0.50400000000E-02 0.  1.
    8880023    1    1    2    0    0 -0.55230107797E+03  0.48194023702E+03 -0.12270779408E+04  0.15737958418E+04  0.65864270000E+03 0.  0.
    8880022    1    1    2    0    0  0.55230107797E+03 -0.48194023702E+03  0.70478807310E+03  0.10283096585E+04  0.15294330000E+03 0.  0.
<mgrwt>
<rscale>  0 0.92006173E+03</rscale>
<asrwt>0</asrwt>
<pdfrwt beam="1">  1        1 0.15998582E+00 0.98545070E+03</pdfrwt>
<pdfrwt beam="2">  1       -1 0.24033811E+00 0.98545070E+03</pdfrwt>
<totfact> 0.11472770E+00</totfact>
</mgrwt>
</event>
<event>
 4    1  0.1043382E-007  0.1070590E+04  0.7818608E-02  0.9294530E-01
         -1   -1    0    0    0  501 -0.00000000000E+00  0.00000000000E+00  0.53107781191E+03  0.53107781194E+03  0.50400000000E-02 0.  1.
          1   -1    0    0  501    0  0.00000000000E+00 -0.00000000000E+00 -0.30901942606E+04  0.30901942606E+04  0.50400000000E-02 0. -1.
    8880023    1    1    2    0    0 -0.80949316775E+03  0.23889986672E+03 -0.17148007526E+03  0.10842361170E+04  0.65864270000E+03 0.  1.
    8880022    1    1    2    0    0  0.80949316775E+03 -0.23889986672E+03 -0.23876363735E+04  0.25370359556E+04  0.15294330000E+03 0. -1.
<mgrwt>
<rscale>  0 0.10128804E+04</rscale>
<asrwt>0</asrwt>
<pdfrwt beam="1">  1        1 0.47541449E+00 0.10705898E+04</pdfrwt>
<pdfrwt beam="2">  1       -1 0.81704281E-01 0.10705898E+04</pdfrwt>
<totfact> 0.77916672E-01</totfact>
</mgrwt>
</event>
<event>
 4    1  0.1043382E-007  0.1151188E+04  0.7818608E-02  0.9206096E-01
         -1   -1    0    0    0  501 -0.00000000000E+00  0.00000000000E+00  0.16750313995E+04  0.16750313995E+04  0.50400000000E-02 0.  1.
          1   -1    0    0  501    0  0.00000000000E+00 -0.00000000000E+00 -0.15320296892E+04  0.15320296892E+04  0.50400000000E-02 0. -1.
    8880023    1    1    2    0    0 -0.42644477705E+03 -0.84235920308E+03  0.12798323790E+04  0.17213963226E+04  0.65864270000E+03 0.  1.
    8880022    1    1    2    0    0  0.42644477705E+03  0.84235920308E+03 -0.11368306687E+04  0.14856647661E+04  0.15294330000E+03 0.  0.
<mgrwt>
<rscale>  0 0.10990728E+04</rscale>
<asrwt>0</asrwt>
<pdfrwt beam="1">  1        1 0.23569688E+00 0.11511882E+04</pdfrwt>
<pdfrwt beam="2">  1       -1 0.25769714E+00 0.11511882E+04</pdfrwt>
<totfact> 0.38156043E-01</totfact>
</mgrwt>
</event>
<event>
 4    1  0.1043382E-007  0.6616498E+03  0.7818608E-02  0.1022526E+00
          1   -1    0    0  501    0  0.00000000000E+00  0.00000000000E+00  0.22369595982E+04  0.22369595982E+04  0.50400000000E-02 0. -1.
         -1   -1    0    0    0  501 -0.00000000000E+00 -0.00000000000E+00 -0.41676519445E+03  0.41676519448E+03  0.50400000000E-02 0.  1.
    8880023    1    1    2    0    0 -0.28966567153E+02  0.55957416840E+02 -0.14848655603E+03  0.67810674535E+03  0.65864270000E+03 0.  1.
    8880022    1    1    2    0    0  0.28966567153E+02 -0.55957416840E+02  0.19686809598E+04  0.19756180473E+04  0.15294330000E+03 0.  0.
<mgrwt>
<rscale>  0 0.46785851E+03</rscale>
<asrwt>0</asrwt>
<pdfrwt beam="1">  1        1 0.34414763E+00 0.66164983E+03</pdfrwt>
<pdfrwt beam="2">  1       -1 0.64117722E-01 0.66164983E+03</pdfrwt>
<totfact> 0.54322550E+00</totfact>
</mgrwt>
</event>
<event>
 4    1  0.1043382E-007  0.8004603E+03  0.7818608E-02  0.9709802E-01
         -1   -1    0    0    0  501 -0.00000000000E+00  0.00000000000E+00  0.14409538427E+04  0.14409538427E+04  0.50400000000E-02 0.  1.
          1   -1    0    0  501    0  0.00000000000E+00 -0.00000000000E+00 -0.60935729928E+03  0.60935729930E+03  0.50400000000E-02 0. -1.
    8880023    1    1    2    0    0  0.23652602791E+03 -0.38856394550E+03  0.12019579529E+04  0.14441051306E+04  0.65864270000E+03 0.  1.
    8880022    1    1    2    0    0 -0.23652602791E+03  0.38856394550E+03 -0.37036140944E+03  0.60620601138E+03  0.15294330000E+03 0.  0.
<mgrwt>
<rscale>  0 0.70436193E+03</rscale>
<asrwt>0</asrwt>
<pdfrwt beam="1">  1        1 0.93747279E-01 0.80046031E+03</pdfrwt>
<pdfrwt beam="2">  1       -1 0.22168520E+00 0.80046031E+03</pdfrwt>
<totfact> 0.37044222E+00</totfact>
</mgrwt>
</event>
<event>
 4    1  0.1043382E-007  0.8400297E+03  0.7818608E-02  0.9630124E-01
         -1   -1    0    0    0  501 -0.00000000000E+00  0.00000000000E+00  0.43908311941E+03  0.43908311944E+03  0.50400000000E-02 0.  1.
          1   -1    0    0  501    0  0.00000000000E+00 -0.00000000000E+00 -0.27202125507E+04  0.27202125507E+04  0.50400000000E-02 0. -1.
    8880023    1    1    2    0    0  0.51062622740E+03 -0.10535932519E+03 -0.26850536249E+02  0.84045873728E+03  0.65864270000E+03 0.  0.
    8880022    1    1    2    0    0 -0.51062622740E+03  0.10535932519E+03 -0.22542788950E+04  0.23188369328E+04  0.15294330000E+03 0.  0.
<mgrwt>
<rscale>  0 0.75334048E+03</rscale>
<asrwt>0</asrwt>
<pdfrwt beam="1">  1        1 0.41849423E+00 0.84002972E+03</pdfrwt>
<pdfrwt beam="2">  1       -1 0.67551251E-01 0.84002972E+03</pdfrwt>
<totfact> 0.22124308E+00</totfact>
</mgrwt>
</event>
<event>
 4    1  0.1043382E-007  0.6961760E+03  0.7818608E-02  0.1001345E+00
          1   -1    0    0  501    0  0.00000000000E+00  0.00000000000E+00  0.23458353571E+03  0.23458353576E+03  0.50400000000E-02 0. -1.
         -1   -1    0    0    0  501 -0.00000000000E+00 -0.00000000000E+00 -0.11231516304E+04  0.11231516304E+04  0.50400000000E-02 0.  1.
    8880023    1    1    2    0    0  0.21564488725E+03 -0.65940511674E+02 -0.82210164154E+03  0.10772707105E+04  0.65864270000E+03 0.  1.
    8880022    1    1    2    0    0 -0.21564488725E+03  0.65940511674E+02 -0.66466453169E+02  0.28046445566E+03  0.15294330000E+03 0.  0.
<mgrwt>
<rscale>  0 0.55064398E+03</rscale>
<asrwt>0</asrwt>
<pdfrwt beam="1">  1        1 0.36089775E-01 0.69617604E+03</pdfrwt>
<pdfrwt beam="2">  1       -1 0.17279255E+00 0.69617604E+03</pdfrwt>
<totfact> 0.29164577E+01</totfact>
</mgrwt>
</event>
<event>
 4    1  0.1043382E-007  0.8858098E+03  0.7818608E-02  0.9549206E-01
         -1   -1    0    0    0  501 -0.00000000000E+00  0.00000000000E+00  0.40508559782E+03  0.40508559785E+03  0.50400000000E-02 0.  1.
          1   -1    0    0  501    0  0.00000000000E+00 -0.00000000000E+00 -0.40206987509E+04  0.40206987509E+04  0.50400000000E-02 0. -1.
    8880023    1    1    2    0    0 -0.46667552346E+03 -0.36477774976E+03 -0.14007376512E+03  0.89681643431E+03  0.65864270000E+03 0.  1.
    8880022    1    1    2    0    0  0.46667552346E+03  0.36477774976E+03 -0.34755393879E+04  0.35289679144E+04  0.15294330000E+03 0.  0.
<mgrwt>
<rscale>  0 0.80751244E+03</rscale>
<asrwt>0</asrwt>
<pdfrwt beam="1">  1        1 0.61856901E+00 0.88580983E+03</pdfrwt>
<pdfrwt beam="2">  1       -1 0.62320864E-01 0.88580983E+03</pdfrwt>
<totfact> 0.25954849E-01</totfact>
</mgrwt>
</event>
<event>
 4    1  0.1043382E-007  0.6895535E+03  0.7818608E-02  0.1004366E+00
         -1   -1    0    0    0  501 -0.00000000000E+00  0.00000000000E+00  0.72533939200E+03  0.72533939201E+03  0.50400000000E-02 0.  1.
          1   -1    0    0  501    0  0.00000000000E+00 -0.00000000000E+00 -0.83599332606E+03  0.83599332608E+03  0.50400000000E-02 0. -1.
    8880023    1    1    2    0    0  0.19974348217E+03 -0.42146286401E+02  0.53133986197E+03  0.87052054732E+03  0.65864270000E+03 0.  1.
    8880022    1    1    2    0    0 -0.19974348217E+03  0.42146286401E+02 -0.64199379603E+03  0.69081217077E+03  0.15294330000E+03 0.  0.
<mgrwt>
<rscale>  0 0.53776773E+03</rscale>
<asrwt>0</asrwt>
<pdfrwt beam="1">  1        1 0.12861436E+00 0.68955346E+03</pdfrwt>
<pdfrwt beam="2">  1       -1 0.11159068E+00 0.68955346E+03</pdfrwt>
<totfact> 0.15744892E+01</totfact>
</mgrwt>
</event>
<event>
 4    1  0.1043382E-007  0.1143673E+04  0.7818608E-02  0.9213922E-01
          1   -1    0    0  501    0  0.00000000000E+00  0.00000000000E+00  0.13915961143E+04  0.13915961143E+04  0.50400000000E-02 0. -1.
         -1   -1    0    0    0  501 -0.00000000000E+00 -0.00000000000E+00 -0.88126744603E+03  0.88126744604E+03  0.50400000000E-02 0.  1.
    8880023    1    1    2    0    0  0.33259771614E+03 -0.87381705878E+03 -0.96571179605E+02  0.11477428684E+04  0.65864270000E+03 0.  0.
    8880022    1    1    2    0    0 -0.33259771614E+03  0.87381705878E+03  0.60689984783E+03  0.11251206919E+04  0.15294330000E+03 0.  0.
<mgrwt>
<rscale>  0 0.10910882E+04</rscale>
<asrwt>0</asrwt>
<pdfrwt beam="1">  1        1 0.21409171E+00 0.11436729E+04</pdfrwt>
<pdfrwt beam="2">  1       -1 0.13557961E+00 0.11436729E+04</pdfrwt>
<totfact> 0.35046521E+00</totfact>
</mgrwt>
</event>
<event>
 4    1  0.1043382E-007  0.7299924E+03  0.7818608E-02  0.9890120E-01
         -1   -1    0    0    0  501 -0.00000000000E+00  0.00000000000E+00  0.25898605233E+03  0.25898605238E+03  0.50400000000E-02 0.  1.
          1   -1    0    0  501    0  0.00000000000E+00 -0.00000000000E+00 -0.13749315070E+04  0.13749315070E+04  0.50400000000E-02 0. -1.
    8880023    1    1    2    0    0  0.31351454218E+03  0.28060461923E+02 -0.38911258938E+03  0.82722280624E+03  0.65864270000E+03 0.  1.
    8880022    1    1    2    0    0 -0.31351454218E+03 -0.28060461923E+02 -0.72683286531E+03  0.80669475317E+03  0.15294330000E+03 0.  0.
<mgrwt>
<rscale>  0 0.60742501E+03</rscale>
<asrwt>0</asrwt>
<pdfrwt beam="1">  1        1 0.21152792E+00 0.72999244E+03</pdfrwt>
<pdfrwt beam="2">  1       -1 0.39844009E-01 0.72999244E+03</pdfrwt>
<totfact> 0.50513382E+01</totfact>
</mgrwt>
</event>
<event>
 4    1  0.1043382E-007  0.7597767E+03  0.7818608E-02  0.9805686E-01
         -1   -1    0    0    0  501 -0.00000000000E+00  0.00000000000E+00  0.93297672800E+03  0.93297672801E+03  0.50400000000E-02 0.  1.
          1   -1    0    0  501    0  0.00000000000E+00 -0.00000000000E+00 -0.46316306593E+03  0.46316306595E+03  0.50400000000E-02 0. -1.
    8880023    1    1    2    0    0 -0.33468565761E+03 -0.17730203481E+03  0.59925133462E+03  0.96765844660E+03  0.65864270000E+03 0.  1.
    8880022    1    1    2    0    0  0.33468565761E+03  0.17730203481E+03 -0.12943767255E+03  0.42848134737E+03  0.15294330000E+03 0.  0.
<mgrwt>
<rscale>  0 0.65058302E+03</rscale>
<asrwt>0</asrwt>
<pdfrwt beam="1">  1        1 0.71255857E-01 0.75977675E+03</pdfrwt>
<pdfrwt beam="2">  1       -1 0.14353488E+00 0.75977675E+03</pdfrwt>
<totfact> 0.19807726E+01</totfact>
</mgrwt>
</event>
<event>
 4    1  0.1043382E-007  0.1109309E+04  0.7818608E-02  0.9250762E-01
          1   -1    0    0  501    0  0.00000000000E+00  0.00000000000E+00  0.38090497127E+04  0.38090497127E+04  0.50400000000E-02 0. -1.
         -1   -1    0    0    0  501 -0.00000000000E+00 -0.00000000000E+00 -0.36580159407E+03  0.36580159410E+03  0.50400000000E-02 0.  1.
    8880023    1    1    2    0    0  0.85088636293E+03 -0.26971806980E+03  0.76468179522E+03  0.13473321394E+04  0.65864270000E+03 0.  0.
    8880022    1    1    2    0    0 -0.85088636293E+03  0.26971806980E+03  0.26785663234E+04  0.28275191673E+04  0.15294330000E+03 0.  0.
<mgrwt>
<rscale>  0 0.10544494E+04</rscale>
<asrwt>0</asrwt>
<pdfrwt beam="1">  1        1 0.58600761E+00 0.11093086E+04</pdfrwt>
<pdfrwt beam="2">  1       -1 0.56277172E-01 0.11093086E+04</pdfrwt>
<totfact> 0.46043067E-01</totfact>
</mgrwt>
</event>
<event>
 4    1  0.1043382E-007  0.7429709E+03  0.7818608E-02  0.9851376E-01
          1   -1    0    0  501    0  0.00000000000E+00  0.00000000000E+00  0.83797427096E+03  0.83797427098E+03  0.50400000000E-02 0. -1.
         -1   -1    0    0    0  501 -0.00000000000E+00 -0.00000000000E+00 -0.73025673284E+03  0.73025673286E+03  0.50400000000E-02 0.  1.
    8880023    1    1    2    0    0  0.34379044352E+03 -0.19305385449E+01 -0.46972882858E+03  0.87900567387E+03  0.65864270000E+03 0.  0.
    8880022    1    1    2    0    0 -0.34379044352E+03  0.19305385449E+01  0.57744636670E+03  0.68922532996E+03  0.15294330000E+03 0.  0.
<mgrwt>
<rscale>  0 0.62676810E+03</rscale>
<asrwt>0</asrwt>
<pdfrwt beam="1">  1        1 0.12891912E+00 0.74297093E+03</pdfrwt>
<pdfrwt beam="2">  1       -1 0.11234719E+00 0.74297093E+03</pdfrwt>
<totfact> 0.15329382E+01</totfact>
</mgrwt>
</event>
<event>
 4    1  0.1043382E-007  0.7164935E+03  0.7818608E-02  0.9934634E-01
          1   -1    0    0  501    0  0.00000000000E+00  0.00000000000E+00  0.43516967282E+03  0.43516967285E+03  0.50400000000E-02 0. -1.
         -1   -1    0    0    0  501 -0.00000000000E+00 -0.00000000000E+00 -0.96024978341E+03  0.96024978342E+03  0.50400000000E-02 0.  1.
    8880023    1    1    2    0    0  0.16910493062E+03  0.22573503291E+03 -0.72344480361E+03  0.10182020295E+04  0.65864270000E+03 0.  0.
    8880022    1    1    2    0    0 -0.16910493062E+03 -0.22573503291E+03  0.19836469302E+03  0.37721742682E+03  0.15294330000E+03 0.  0.
<mgrwt>
<rscale>  0 0.58611734E+03</rscale>
<asrwt>0</asrwt>
<pdfrwt beam="1">  1        1 0.66949181E-01 0.71649354E+03</pdfrwt>
<pdfrwt beam="2">  1       -1 0.14773074E+00 0.71649354E+03</pdfrwt>
<totfact> 0.20053292E+01</totfact>
</mgrwt>
</event>
<event>
 4    1  0.1043382E-007  0.7460934E+03  0.7818608E-02  0.9842540E-01
         -1   -1    0    0    0  501 -0.00000000000E+00  0.00000000000E+00  0.46617805335E+03  0.46617805338E+03  0.50400000000E-02 0.  1.
          1   -1    0    0  501    0  0.00000000000E+00 -0.00000000000E+00 -0.12317992592E+04  0.12317992592E+04  0.50400000000E-02 0. -1.
    8880023    1    1    2    0    0  0.30038835538E+03 -0.18058787875E+03  0.98933937376E+02  0.75262425966E+03  0.65864270000E+03 0.  0.
    8880022    1    1    2    0    0 -0.30038835538E+03  0.18058787875E+03 -0.86455514318E+03  0.94535305289E+03  0.15294330000E+03 0.  0.
<mgrwt>
<rscale>  0 0.63128719E+03</rscale>
<asrwt>0</asrwt>
<pdfrwt beam="1">  1        1 0.18950758E+00 0.74609339E+03</pdfrwt>
<pdfrwt beam="2">  1       -1 0.71719701E-01 0.74609339E+03</pdfrwt>
<totfact> 0.20512439E+01</totfact>
</mgrwt>
</event>
<event>
 4    1  0.1043382E-007  0.7771764E+03  0.7818608E-02  0.9762512E-01
          1   -1    0    0  501    0  0.00000000000E+00  0.00000000000E+00  0.88022534598E+03  0.88022534599E+03  0.50400000000E-02 0. -1.
         -1   -1    0    0    0  501 -0.00000000000E+00 -0.00000000000E+00 -0.73300872099E+03  0.73300872101E+03  0.50400000000E-02 0.  1.
    8880023    1    1    2    0    0 -0.40945988296E+03 -0.50354932261E+02 -0.42941122168E+03  0.88791734892E+03  0.65864270000E+03 0.  0.
    8880022    1    1    2    0    0  0.40945988296E+03  0.50354932261E+02  0.57662784667E+03  0.72531671808E+03  0.15294330000E+03 0.  0.
<mgrwt>
<rscale>  0 0.67413766E+03</rscale>
<asrwt>0</asrwt>
<pdfrwt beam="1">  1        1 0.13541928E+00 0.77717644E+03</pdfrwt>
<pdfrwt beam="2">  1       -1 0.11277057E+00 0.77717644E+03</pdfrwt>
<totfact> 0.13950741E+01</totfact>
</mgrwt>
</event>
<event>
 4    1  0.1043382E-007  0.6993727E+03  0.7818608E-02  0.9999813E-01
          1   -1    0    0  501    0  0.00000000000E+00  0.00000000000E+00  0.13935364650E+04  0.13935364650E+04  0.50400000000E-02 0. -1.
         -1   -1    0    0    0  501 -0.00000000000E+00 -0.00000000000E+00 -0.32257628979E+03  0.32257628983E+03  0.50400000000E-02 0.  1.
    8880023    1    1    2    0    0 -0.20453719794E+03  0.11608844215E+03  0.10128292283E+03  0.70666854215E+03  0.65864270000E+03 0.  1.
    8880022    1    1    2    0    0  0.20453719794E+03 -0.11608844215E+03  0.96967725234E+03  0.10094442126E+04  0.15294330000E+03 0.  0.
<mgrwt>
<rscale>  0 0.55658420E+03</rscale>
<asrwt>0</asrwt>
<pdfrwt beam="1">  1        1 0.21439023E+00 0.69937272E+03</pdfrwt>
<pdfrwt beam="2">  1       -1 0.49627122E-01 0.69937272E+03</pdfrwt>
<totfact> 0.32767010E+01</totfact>
</mgrwt>
</event>
<event>
 4    1  0.1043382E-007  0.8403462E+03  0.7818608E-02  0.9629528E-01
         -1   -1    0    0    0  501 -0.00000000000E+00  0.00000000000E+00  0.28347071890E+04  0.28347071890E+04  0.50400000000E-02 0.  1.
          1   -1    0    0  501    0  0.00000000000E+00 -0.00000000000E+00 -0.20024478393E+03  0.20024478399E+03  0.50400000000E-02 0. -1.
    8880023    1    1    2    0    0  0.39219011117E+03  0.34432326153E+03  0.21432684797E+04  0.23021254471E+04  0.65864270000E+03 0.  1.
    8880022    1    1    2    0    0 -0.39219011117E+03 -0.34432326153E+03  0.49119392530E+03  0.73282652585E+03  0.15294330000E+03 0.  0.
<mgrwt>
<rscale>  0 0.75372292E+03</rscale>
<asrwt>0</asrwt>
<pdfrwt beam="1">  1        1 0.30806890E-01 0.84034624E+03</pdfrwt>
<pdfrwt beam="2">  1       -1 0.43610879E+00 0.84034624E+03</pdfrwt>
<totfact> 0.63038801E-01</totfact>
</mgrwt>
</event>
<event>
 4    1  0.1043382E-007  0.6825594E+03  0.7818608E-02  0.1007911E+00
         -1   -1    0    0    0  501 -0.00000000000E+00  0.00000000000E+00  0.10771937348E+04  0.10771937348E+04  0.50400000000E-02 0.  1.
          1   -1    0    0  501    0  0.00000000000E+00 -0.00000000000E+00 -0.41282835804E+03  0.41282835807E+03  0.50400000000E-02 0. -1.
    8880023    1    1    2    0    0  0.14504245363E+03  0.10507077073E+03  0.91797142067E+03  0.11439226004E+04  0.65864270000E+03 0.  1.
    8880022    1    1    2    0    0 -0.14504245363E+03 -0.10507077073E+03 -0.25360604389E+03  0.34609949253E+03  0.15294330000E+03 0.  0.
<mgrwt>
<rscale>  0 0.52313224E+03</rscale>
<asrwt>0</asrwt>
<pdfrwt beam="1">  1        1 0.63512055E-01 0.68255944E+03</pdfrwt>
<pdfrwt beam="2">  1       -1 0.16572211E+00 0.68255944E+03</pdfrwt>
<totfact> 0.15765775E+01</totfact>
</mgrwt>
</event>
<event>
 4    1  0.1043382E-007  0.6667941E+03  0.7818608E-02  0.1018073E+00
          1   -1    0    0  501    0  0.00000000000E+00  0.00000000000E+00  0.12368688012E+04  0.12368688012E+04  0.50400000000E-02 0. -1.
         -1   -1    0    0    0  501 -0.00000000000E+00 -0.00000000000E+00 -0.34149107541E+03  0.34149107545E+03  0.50400000000E-02 0.  1.
    8880023    1    1    2    0    0  0.96128477312E+02  0.39540763046E+02  0.27715034627E+01  0.66679985272E+03  0.65864270000E+03 0.  1.
    8880022    1    1    2    0    0 -0.96128477312E+02 -0.39540763046E+02  0.89260622234E+03  0.91156002396E+03  0.15294330000E+03 0.  0.
<mgrwt>
<rscale>  0 0.48388306E+03</rscale>
<asrwt>0</asrwt>
<pdfrwt beam="1">  1        1 0.19028751E+00 0.66679409E+03</pdfrwt>
<pdfrwt beam="2">  1       -1 0.52537089E-01 0.66679409E+03</pdfrwt>
<totfact> 0.38057558E+01</totfact>
</mgrwt>
</event>
<event>
 4    1  0.1043382E-007  0.8385831E+03  0.7818608E-02  0.9632858E-01
          1   -1    0    0  501    0  0.00000000000E+00  0.00000000000E+00  0.40266045839E+04  0.40266045839E+04  0.50400000000E-02 0. -1.
         -1   -1    0    0    0  501 -0.00000000000E+00 -0.00000000000E+00 -0.16701093153E+03  0.16701093160E+03  0.50400000000E-02 0.  1.
    8880023    1    1    2    0    0  0.49762355573E+03  0.14758777215E+03  0.11093209768E+04  0.13906166221E+04  0.65864270000E+03 0.  1.
    8880022    1    1    2    0    0 -0.49762355573E+03 -0.14758777215E+03  0.27502726755E+04  0.28029988934E+04  0.15294330000E+03 0.  0.
<mgrwt>
<rscale>  0 0.75159089E+03</rscale>
<asrwt>0</asrwt>
<pdfrwt beam="1">  1        1 0.61947756E+00 0.83858307E+03</pdfrwt>
<pdfrwt beam="2">  1       -1 0.25693992E-01 0.83858307E+03</pdfrwt>
<totfact> 0.13154984E+00</totfact>
</mgrwt>
</event>
<event>
 4    1  0.1043382E-007  0.7025920E+03  0.7818608E-02  0.9986614E-01
          1   -1    0    0  501    0  0.00000000000E+00  0.00000000000E+00  0.18543746283E+04  0.18543746283E+04  0.50400000000E-02 0. -1.
         -1   -1    0    0    0  501 -0.00000000000E+00 -0.00000000000E+00 -0.32780419168E+03  0.32780419172E+03  0.50400000000E-02 0.  1.
    8880023    1    1    2    0    0  0.24089603543E+03  0.42360712526E+02  0.80007665943E+02  0.70713277588E+03  0.65864270000E+03 0.  1.
    8880022    1    1    2    0    0 -0.24089603543E+03 -0.42360712526E+02  0.14465627706E+04  0.14750460441E+04  0.15294330000E+03 0.  0.
<mgrwt>
<rscale>  0 0.56241112E+03</rscale>
<asrwt>0</asrwt>
<pdfrwt beam="1">  1        1 0.28528841E+00 0.70259201E+03</pdfrwt>
<pdfrwt beam="2">  1       -1 0.50431414E-01 0.70259201E+03</pdfrwt>
<totfact> 0.15487943E+01</totfact>
</mgrwt>
</event>
<event>
 4    1  0.1043382E-007  0.6810704E+03  0.7818608E-02  0.1008725E+00
         -1   -1    0    0    0  501 -0.00000000000E+00  0.00000000000E+00  0.94892426492E+03  0.94892426493E+03  0.50400000000E-02 0.  1.
          1   -1    0    0  501    0  0.00000000000E+00 -0.00000000000E+00 -0.49069723633E+03  0.49069723636E+03  0.50400000000E-02 0. -1.
    8880023    1    1    2    0    0 -0.34716973720E+02  0.16982776564E+03  0.78504961236E+03  0.10393073840E+04  0.65864270000E+03 0.  1.
    8880022    1    1    2    0    0  0.34716973720E+02 -0.16982776564E+03 -0.32682258377E+03  0.40031411732E+03  0.15294330000E+03 0.  0.
<mgrwt>
<rscale>  0 0.51984718E+03</rscale>
<asrwt>0</asrwt>
<pdfrwt beam="1">  1        1 0.75491883E-01 0.68107044E+03</pdfrwt>
<pdfrwt beam="2">  1       -1 0.14598835E+00 0.68107044E+03</pdfrwt>
<totfact> 0.17665776E+01</totfact>
</mgrwt>
</event>
<event>
 4    1  0.1043382E-007  0.8807289E+03  0.7818608E-02  0.9557704E-01
         -1   -1    0    0    0  501 -0.00000000000E+00  0.00000000000E+00  0.68323669417E+03  0.68323669419E+03  0.50400000000E-02 0.  1.
          1   -1    0    0  501    0  0.00000000000E+00 -0.00000000000E+00 -0.10524489078E+04  0.10524489079E+04  0.50400000000E-02 0. -1.
    8880023    1    1    2    0    0 -0.34366839645E+03 -0.47303830039E+03 -0.62443854024E+03  0.10796327603E+04  0.65864270000E+03 0. -1.
    8880022    1    1    2    0    0  0.34366839645E+03  0.47303830039E+03  0.25522632656E+03  0.65605284173E+03  0.15294330000E+03 0.  0.
<mgrwt>
<rscale>  0 0.80159994E+03</rscale>
<asrwt>0</asrwt>
<pdfrwt beam="1">  1        1 0.16191522E+00 0.88072891E+03</pdfrwt>
<pdfrwt beam="2">  1       -1 0.10511334E+00 0.88072891E+03</pdfrwt>
<totfact> 0.11884190E+01</totfact>
</mgrwt>
</event>
<event>
 4    1  0.1043382E-007  0.9498349E+03  0.7818608E-02  0.9450352E-01
         -1   -1    0    0    0  501 -0.00000000000E+00  0.00000000000E+00  0.89056979870E+03  0.89056979871E+03  0.50400000000E-02 0.  1.
          1   -1    0    0  501    0  0.00000000000E+00 -0.00000000000E+00 -0.79373676251E+03  0.79373676253E+03  0.50400000000E-02 0. -1.
    8880023    1    1    2    0    0 -0.64487291080E+03 -0.22916144796E+03 -0.10227857362E+03  0.95532567913E+03  0.65864270000E+03 0.  0.
    8880022    1    1    2    0    0  0.64487291080E+03  0.22916144796E+03  0.19911160980E+03  0.72898088211E+03  0.15294330000E+03 0.  0.
<mgrwt>
<rscale>  0 0.88045279E+03</rscale>
<asrwt>0</asrwt>
<pdfrwt beam="1">  1        1 0.12211335E+00 0.94983485E+03</pdfrwt>
<pdfrwt beam="2">  1       -1 0.13701074E+00 0.94983485E+03</pdfrwt>
<totfact> 0.10000783E+01</totfact>
</mgrwt>
</event>
<event>
 4    1  0.1043382E-007  0.6629754E+03  0.7818608E-02  0.1021296E+00
          1   -1    0    0  501    0  0.00000000000E+00  0.00000000000E+00  0.90631161708E+03  0.90631161709E+03  0.50400000000E-02 0. -1.
         -1   -1    0    0    0  501 -0.00000000000E+00 -0.00000000000E+00 -0.38259379631E+03  0.38259379634E+03  0.50400000000E-02 0.  1.
    8880023    1    1    2    0    0 -0.53129808315E+02 -0.53882916276E+02 -0.74200151453E+02  0.66711469324E+03  0.65864270000E+03 0.  1.
    8880022    1    1    2    0    0  0.53129808315E+02  0.53882916276E+02  0.59791797222E+03  0.62179072019E+03  0.15294330000E+03 0.  0.
<mgrwt>
<rscale>  0 0.47221836E+03</rscale>
<asrwt>0</asrwt>
<pdfrwt beam="1">  1        1 0.13943256E+00 0.66297538E+03</pdfrwt>
<pdfrwt beam="2">  1       -1 0.58860585E-01 0.66297538E+03</pdfrwt>
<totfact> 0.54282747E+01</totfact>
</mgrwt>
</event>
<event>
 4    1  0.1043382E-007  0.1775777E+04  0.7818608E-02  0.8736055E-01
          1   -1    0    0  501    0  0.00000000000E+00  0.00000000000E+00  0.21457895686E+04  0.21457895686E+04  0.50400000000E-02 0. -1.
         -1   -1    0    0    0  501 -0.00000000000E+00 -0.00000000000E+00 -0.15156837832E+04  0.15156837832E+04  0.50400000000E-02 0.  1.
    8880023    1    1    2    0    0 -0.15174903014E+04 -0.64559800616E+03 -0.23784215508E+03  0.17916340858E+04  0.65864270000E+03 0.  0.
    8880022    1    1    2    0    0  0.15174903014E+04  0.64559800616E+03  0.86794794050E+03  0.18698392660E+04  0.15294330000E+03 0.  0.
<mgrwt>
<rscale>  0 0.17450941E+04</rscale>
<asrwt>0</asrwt>
<pdfrwt beam="1">  1        1 0.33012147E+00 0.17757770E+04</pdfrwt>
<pdfrwt beam="2">  1       -1 0.23318212E+00 0.17757770E+04</pdfrwt>
<totfact> 0.19523258E-01</totfact>
</mgrwt>
</event>
<event>
 4    1  0.1043382E-007  0.7429607E+03  0.7818608E-02  0.9851405E-01
         -1   -1    0    0    0  501 -0.00000000000E+00  0.00000000000E+00  0.10537908073E+04  0.10537908074E+04  0.50400000000E-02 0.  1.
          1   -1    0    0  501    0  0.00000000000E+00 -0.00000000000E+00 -0.36651096052E+03  0.36651096056E+03  0.50400000000E-02 0. -1.
    8880023    1    1    2    0    0  0.33961513675E+03 -0.53309761388E+02  0.73005277930E+03  0.10416177987E+04  0.65864270000E+03 0.  1.
    8880022    1    1    2    0    0 -0.33961513675E+03  0.53309761388E+02 -0.42772932470E+02  0.37868396921E+03  0.15294330000E+03 0.  0.
<mgrwt>
<rscale>  0 0.62675319E+03</rscale>
<asrwt>0</asrwt>
<pdfrwt beam="1">  1        1 0.56386302E-01 0.74296068E+03</pdfrwt>
<pdfrwt beam="2">  1       -1 0.16212166E+00 0.74296068E+03</pdfrwt>
<totfact> 0.19487227E+01</totfact>
</mgrwt>
</event>
<event>
 4    1  0.1043382E-007  0.6754523E+03  0.7818608E-02  0.1012023E+00
         -1   -1    0    0    0  501 -0.00000000000E+00  0.00000000000E+00  0.12850958614E+03  0.12850958624E+03  0.50400000000E-02 0.  1.
          1   -1    0    0  501    0  0.00000000000E+00 -0.00000000000E+00 -0.34755406217E+04  0.34755406217E+04  0.50400000000E-02 0. -1.
    8880023    1    1    2    0    0 -0.63931768493E+02 -0.13541894585E+03 -0.79559364204E+03  0.10436498510E+04  0.65864270000E+03 0.  1.
    8880022    1    1    2    0    0  0.63931768493E+02  0.13541894585E+03 -0.25514373936E+04  0.25604003570E+04  0.15294330000E+03 0.  0.
<mgrwt>
<rscale>  0 0.50678597E+03</rscale>
<asrwt>0</asrwt>
<pdfrwt beam="1">  1        1 0.53469849E+00 0.67545227E+03</pdfrwt>
<pdfrwt beam="2">  1       -1 0.19770708E-01 0.67545227E+03</pdfrwt>
<totfact> 0.59504335E+00</totfact>
</mgrwt>
</event>
<event>
 4    1  0.1043382E-007  0.7182429E+03  0.7818608E-02  0.9928577E-01
          1   -1    0    0  501    0  0.00000000000E+00  0.00000000000E+00  0.87828205475E+03  0.87828205476E+03  0.50400000000E-02 0. -1.
         -1   -1    0    0    0  501 -0.00000000000E+00 -0.00000000000E+00 -0.37384461886E+03  0.37384461890E+03  0.50400000000E-02 0.  1.
    8880023    1    1    2    0    0  0.27691676871E+03 -0.73346436332E+02  0.87359864313E+02  0.72353614192E+03  0.65864270000E+03 0.  1.
    8880022    1    1    2    0    0 -0.27691676871E+03  0.73346436332E+02  0.41707757157E+03  0.52859053173E+03  0.15294330000E+03 0.  0.
<mgrwt>
<rscale>  0 0.58896095E+03</rscale>
<asrwt>0</asrwt>
<pdfrwt beam="1">  1        1 0.13512032E+00 0.71824286E+03</pdfrwt>
<pdfrwt beam="2">  1       -1 0.57514557E-01 0.71824286E+03</pdfrwt>
<totfact> 0.59531112E+01</totfact>
</mgrwt>
</event>
<event>
 4    1  0.1043382E-007  0.1610461E+04  0.7818608E-02  0.8835333E-01
          1   -1    0    0  501    0  0.00000000000E+00  0.00000000000E+00  0.70915087712E+03  0.70915087714E+03  0.50400000000E-02 0. -1.
         -1   -1    0    0    0  501 -0.00000000000E+00 -0.00000000000E+00 -0.50044474620E+04  0.50044474621E+04  0.50400000000E-02 0.  1.
    8880023    1    1    2    0    0  0.11098941942E+04  0.96328077125E+03 -0.38454841392E+04  0.41690926396E+04  0.65864270000E+03 0.  0.
    8880022    1    1    2    0    0 -0.11098941942E+04 -0.96328077125E+03 -0.44981244575E+03  0.15445056996E+04  0.15294330000E+03 0.  0.
<mgrwt>
<rscale>  0 0.15761537E+04</rscale>
<asrwt>0</asrwt>
<pdfrwt beam="1">  1        1 0.10910014E+00 0.16104612E+04</pdfrwt>
<pdfrwt beam="2">  1       -1 0.76991497E+00 0.16104612E+04</pdfrwt>
<totfact> 0.26042562E-03</totfact>
</mgrwt>
</event>
<event>
 4    1  0.1043382E-007  0.6690034E+03  0.7818608E-02  0.1016388E+00
          1   -1    0    0  501    0  0.00000000000E+00  0.00000000000E+00  0.31292090366E+03  0.31292090370E+03  0.50400000000E-02 0. -1.
         -1   -1    0    0    0  501 -0.00000000000E+00 -0.00000000000E+00 -0.14730338940E+04  0.14730338940E+04  0.50400000000E-02 0.  1.
    8880023    1    1    2    0    0 -0.52217644408E+02  0.10501748477E+03 -0.13554381760E+04  0.15115482823E+04  0.65864270000E+03 0.  1.
    8880022    1    1    2    0    0  0.52217644408E+02 -0.10501748477E+03  0.19532518570E+03  0.27440651537E+03  0.15294330000E+03 0.  0.
<mgrwt>
<rscale>  0 0.49013050E+03</rscale>
<asrwt>0</asrwt>
<pdfrwt beam="1">  1        1 0.48141678E-01 0.66900341E+03</pdfrwt>
<pdfrwt beam="2">  1       -1 0.22662060E+00 0.66900341E+03</pdfrwt>
<totfact> 0.86189393E+00</totfact>
</mgrwt>
</event>
<event>
 4    1  0.1043382E-007  0.8042179E+03  0.7818608E-02  0.9701749E-01
          1   -1    0    0  501    0  0.00000000000E+00  0.00000000000E+00  0.66144138764E+03  0.66144138766E+03  0.50400000000E-02 0. -1.
         -1   -1    0    0    0  501 -0.00000000000E+00 -0.00000000000E+00 -0.83822721174E+03  0.83822721175E+03  0.50400000000E-02 0.  1.
    8880023    1    1    2    0    0 -0.19564916891E+03 -0.41794461594E+03  0.26093654963E+03  0.84549061999E+03  0.65864270000E+03 0. -1.
    8880022    1    1    2    0    0  0.19564916891E+03  0.41794461594E+03 -0.43772237373E+03  0.65417797943E+03  0.15294330000E+03 0. -1.
<mgrwt>
<rscale>  0 0.70912746E+03</rscale>
<asrwt>0</asrwt>
<pdfrwt beam="1">  1        1 0.10176021E+00 0.80421795E+03</pdfrwt>
<pdfrwt beam="2">  1       -1 0.12895803E+00 0.80421795E+03</pdfrwt>
<totfact> 0.15691281E+01</totfact>
</mgrwt>
</event>
<event>
 4    1  0.1043382E-007  0.7663385E+03  0.7818608E-02  0.9788966E-01
          1   -1    0    0  501    0  0.00000000000E+00  0.00000000000E+00  0.10186866311E+04  0.10186866311E+04  0.50400000000E-02 0. -1.
         -1   -1    0    0    0  501 -0.00000000000E+00 -0.00000000000E+00 -0.10196573461E+04  0.10196573461E+04  0.50400000000E-02 0.  1.
    8880023    1    1    2    0    0 -0.63192177663E+02  0.38661515470E+03 -0.81710011320E+03  0.11202353906E+04  0.65864270000E+03 0.  0.
    8880022    1    1    2    0    0  0.63192177663E+02 -0.38661515470E+03  0.81612939822E+03  0.91810858662E+03  0.15294330000E+03 0. -1.
<mgrwt>
<rscale>  0 0.65958083E+03</rscale>
<asrwt>0</asrwt>
<pdfrwt beam="1">  1        1 0.15672102E+00 0.76633853E+03</pdfrwt>
<pdfrwt beam="2">  1       -1 0.15687036E+00 0.76633853E+03</pdfrwt>
<totfact> 0.46733918E+00</totfact>
</mgrwt>
</event>
<event>
 4    1  0.1043382E-007  0.8032230E+03  0.7818608E-02  0.9703870E-01
         -1   -1    0    0    0  501 -0.00000000000E+00  0.00000000000E+00  0.86177834239E+03  0.86177834240E+03  0.50400000000E-02 0.  1.
          1   -1    0    0  501    0  0.00000000000E+00 -0.00000000000E+00 -0.10480785114E+04  0.10480785115E+04  0.50400000000E-02 0. -1.
    8880023    1    1    2    0    0  0.44537915531E+03 -0.11399277807E+03  0.58870703155E+03  0.99586300298E+03  0.65864270000E+03 0.  1.
    8880022    1    1    2    0    0 -0.44537915531E+03  0.11399277807E+03 -0.77500720061E+03  0.91399385088E+03  0.15294330000E+03 0.  0.
<mgrwt>
<rscale>  0 0.70786831E+03</rscale>
<asrwt>0</asrwt>
<pdfrwt beam="1">  1        1 0.16124285E+00 0.80322298E+03</pdfrwt>
<pdfrwt beam="2">  1       -1 0.13258128E+00 0.80322298E+03</pdfrwt>
<totfact> 0.68812722E+00</totfact>
</mgrwt>
</event>
<event>
 4    1  0.1043382E-007  0.9531782E+03  0.7818608E-02  0.9445556E-01
         -1   -1    0    0    0  501 -0.00000000000E+00  0.00000000000E+00  0.56534468678E+03  0.56534468681E+03  0.50400000000E-02 0.  1.
          1   -1    0    0  501    0  0.00000000000E+00 -0.00000000000E+00 -0.21720921634E+04  0.21720921634E+04  0.50400000000E-02 0. -1.
    8880023    1    1    2    0    0 -0.66886998739E+03 -0.16538254164E+03  0.31422652268E+02  0.95369598638E+03  0.65864270000E+03 0.  1.
    8880022    1    1    2    0    0  0.66886998739E+03  0.16538254164E+03 -0.16381701289E+04  0.17837408639E+04  0.15294330000E+03 0.  0.
<mgrwt>
<rscale>  0 0.88419574E+03</rscale>
<asrwt>0</asrwt>
<pdfrwt beam="1">  1        1 0.33416802E+00 0.95317818E+03</pdfrwt>
<pdfrwt beam="2">  1       -1 0.86976107E-01 0.95317818E+03</pdfrwt>
<totfact> 0.30246724E+00</totfact>
</mgrwt>
</event>
<event>
 4    1  0.1043382E-007  0.8609359E+03  0.7818608E-02  0.9591901E-01
          1   -1    0    0  501    0  0.00000000000E+00  0.00000000000E+00  0.93106023993E+03  0.93106023995E+03  0.50400000000E-02 0. -1.
         -1   -1    0    0    0  501 -0.00000000000E+00 -0.00000000000E+00 -0.65873621852E+03  0.65873621854E+03  0.50400000000E-02 0.  1.
    8880023    1    1    2    0    0 -0.54446507238E+03 -0.10468118781E+03 -0.15305756024E+03  0.87443535446E+03  0.65864270000E+03 0.  0.
    8880022    1    1    2    0    0  0.54446507238E+03  0.10468118781E+03  0.42538158165E+03  0.71536110402E+03  0.15294330000E+03 0.  0.
<mgrwt>
<rscale>  0 0.77834561E+03</rscale>
<asrwt>0</asrwt>
<pdfrwt beam="1">  1        1 0.14324004E+00 0.86093587E+03</pdfrwt>
<pdfrwt beam="2">  1       -1 0.10134403E+00 0.86093587E+03</pdfrwt>
<totfact> 0.16127742E+01</totfact>
</mgrwt>
</event>
<event>
 4    1  0.1043382E-007  0.7011590E+03  0.7818608E-02  0.9992427E-01
         -1   -1    0    0    0  501 -0.00000000000E+00  0.00000000000E+00  0.85649996861E+03  0.85649996862E+03  0.50400000000E-02 0.  1.
          1   -1    0    0  501    0  0.00000000000E+00 -0.00000000000E+00 -0.30266960321E+03  0.30266960325E+03  0.50400000000E-02 0. -1.
    8880023    1    1    2    0    0  0.18254810480E+03 -0.15649258398E+03  0.51844706814E+03  0.87201565819E+03  0.65864270000E+03 0.  0.
    8880022    1    1    2    0    0 -0.18254810480E+03  0.15649258398E+03  0.35383297258E+02  0.28715391369E+03  0.15294330000E+03 0.  1.
<mgrwt>
<rscale>  0 0.55983558E+03</rscale>
<asrwt>0</asrwt>
<pdfrwt beam="1">  1        1 0.46564554E-01 0.70115900E+03</pdfrwt>
<pdfrwt beam="2">  1       -1 0.13176923E+00 0.70115900E+03</pdfrwt>
<totfact> 0.43533346E+01</totfact>
</mgrwt>
</event>
<event>
 4    1  0.1043382E-007  0.1018927E+04  0.7818608E-02  0.9357203E-01
         -1   -1    0    0    0  501 -0.00000000000E+00  0.00000000000E+00  0.53749710395E+03  0.53749710397E+03  0.50400000000E-02 0.  1.
          1   -1    0    0  501    0  0.00000000000E+00 -0.00000000000E+00 -0.18403700872E+04  0.18403700872E+04  0.50400000000E-02 0. -1.
    8880023    1    1    2    0    0 -0.77735415817E+03 -0.11102631259E+02 -0.23074000889E+03  0.10447267172E+04  0.65864270000E+03 0.  0.
    8880022    1    1    2    0    0  0.77735415817E+03  0.11102631259E+02 -0.10721329743E+04  0.13331404740E+04  0.15294330000E+03 0.  0.
<mgrwt>
<rscale>  0 0.95682959E+03</rscale>
<asrwt>0</asrwt>
<pdfrwt beam="1">  1        1 0.28313386E+00 0.10189274E+04</pdfrwt>
<pdfrwt beam="2">  1       -1 0.82691863E-01 0.10189274E+04</pdfrwt>
<totfact> 0.55962468E+00</totfact>
</mgrwt>
</event>
<event>
 4    1  0.1043382E-007  0.7904589E+03  0.7818608E-02  0.9731819E-01
          1   -1    0    0  501    0  0.00000000000E+00  0.00000000000E+00  0.58967735456E+03  0.58967735458E+03  0.50400000000E-02 0. -1.
         -1   -1    0    0    0  501 -0.00000000000E+00 -0.00000000000E+00 -0.11424039395E+04  0.11424039395E+04  0.50400000000E-02 0.  1.
    8880023    1    1    2    0    0 -0.37327562024E+03  0.22733325791E+03 -0.86639375634E+03  0.11728015374E+04  0.65864270000E+03 0.  1.
    8880022    1    1    2    0    0  0.37327562024E+03 -0.22733325791E+03  0.31366717140E+03  0.55927975669E+03  0.15294330000E+03 0.  0.
<mgrwt>
<rscale>  0 0.69153519E+03</rscale>
<asrwt>0</asrwt>
<pdfrwt beam="1">  1        1 0.90719593E-01 0.79045892E+03</pdfrwt>
<pdfrwt beam="2">  1       -1 0.17575445E+00 0.79045892E+03</pdfrwt>
<totfact> 0.80536498E+00</totfact>
</mgrwt>
</event>
<event>
 4    1  0.1043382E-007  0.7651089E+03  0.7818608E-02  0.9792056E-01
          1   -1    0    0  501    0  0.00000000000E+00  0.00000000000E+00  0.13844775979E+04  0.13844775979E+04  0.50400000000E-02 0. -1.
         -1   -1    0    0    0  501 -0.00000000000E+00 -0.00000000000E+00 -0.61178702684E+03  0.61178702686E+03  0.50400000000E-02 0.  1.
    8880023    1    1    2    0    0 -0.38474816176E+03 -0.59583974103E+02 -0.31765862172E+03  0.82843141187E+03  0.65864270000E+03 0.  1.
    8880022    1    1    2    0    0  0.38474816176E+03  0.59583974103E+02  0.10903491928E+04  0.11678332129E+04  0.15294330000E+03 0.  0.
<mgrwt>
<rscale>  0 0.65790597E+03</rscale>
<asrwt>0</asrwt>
<pdfrwt beam="1">  1        1 0.21299655E+00 0.76510888E+03</pdfrwt>
<pdfrwt beam="2">  1       -1 0.94121082E-01 0.76510888E+03</pdfrwt>
<totfact> 0.89168258E+00</totfact>
</mgrwt>
</event>
<event>
 4    1  0.1043382E-007  0.7123188E+03  0.7818608E-02  0.9949489E-01
          1   -1    0    0  501    0  0.00000000000E+00  0.00000000000E+00  0.20210213000E+04  0.20210213000E+04  0.50400000000E-02 0. -1.
         -1   -1    0    0    0  501 -0.00000000000E+00 -0.00000000000E+00 -0.26799017962E+03  0.26799017967E+03  0.50400000000E-02 0.  1.
    8880023    1    1    2    0    0  0.27095643585E+03 -0.13059026202E+02  0.25132556527E+03  0.75535599178E+03  0.65864270000E+03 0.  1.
    8880022    1    1    2    0    0 -0.27095643585E+03  0.13059026202E+02  0.15017055551E+04  0.15336554879E+04  0.15294330000E+03 0.  0.
<mgrwt>
<rscale>  0 0.57921642E+03</rscale>
<asrwt>0</asrwt>
<pdfrwt beam="1">  1        1 0.31092635E+00 0.71231884E+03</pdfrwt>
<pdfrwt beam="2">  1       -1 0.41229260E-01 0.71231884E+03</pdfrwt>
<totfact> 0.17411907E+01</totfact>
</mgrwt>
</event>
<event>
 4    1  0.1043382E-007  0.6902348E+03  0.7818608E-02  0.1004041E+00
         -1   -1    0    0    0  501 -0.00000000000E+00  0.00000000000E+00  0.13888216800E+04  0.13888216800E+04  0.50400000000E-02 0.  1.
          1   -1    0    0  501    0  0.00000000000E+00 -0.00000000000E+00 -0.38331516195E+03  0.38331516198E+03  0.50400000000E-02 0. -1.
    8880023    1    1    2    0    0  0.18034835908E+03 -0.10044097557E+03  0.12433103450E+04  0.14220565180E+04  0.65864270000E+03 0.  0.
    8880022    1    1    2    0    0 -0.18034835908E+03  0.10044097557E+03 -0.23780382687E+03  0.35008032405E+03  0.15294330000E+03 0.  0.
<mgrwt>
<rscale>  0 0.53913215E+03</rscale>
<asrwt>0</asrwt>
<pdfrwt beam="1">  1        1 0.58971563E-01 0.69023483E+03</pdfrwt>
<pdfrwt beam="2">  1       -1 0.21366487E+00 0.69023483E+03</pdfrwt>
<totfact> 0.80326599E+00</totfact>
</mgrwt>
</event>
<event>
 4    1  0.1043382E-007  0.9789305E+03  0.7818608E-02  0.9409657E-01
          1   -1    0    0  501    0  0.00000000000E+00  0.00000000000E+00  0.85235067272E+03  0.85235067274E+03  0.50400000000E-02 0. -1.
         -1   -1    0    0    0  501 -0.00000000000E+00 -0.00000000000E+00 -0.12666525206E+04  0.12666525206E+04  0.50400000000E-02 0.  1.
    8880023    1    1    2    0    0 -0.66566782475E+03 -0.28527358253E+03 -0.81815330831E+03  0.12758055149E+04  0.65864270000E+03 0.  0.
    8880022    1    1    2    0    0  0.66566782475E+03  0.28527358253E+03  0.40385146042E+03  0.84319767842E+03  0.15294330000E+03 0.  0.
<mgrwt>
<rscale>  0 0.91285163E+03</rscale>
<asrwt>0</asrwt>
<pdfrwt beam="1">  1        1 0.13113087E+00 0.97893048E+03</pdfrwt>
<pdfrwt beam="2">  1       -1 0.19486962E+00 0.97893048E+03</pdfrwt>
<totfact> 0.32774530E+00</totfact>
</mgrwt>
</event>
<event>
 4    1  0.1043382E-007  0.6691418E+03  0.7818608E-02  0.1016286E+00
         -1   -1    0    0    0  501 -0.00000000000E+00  0.00000000000E+00  0.47239348106E+03  0.47239348108E+03  0.50400000000E-02 0.  1.
          1   -1    0    0  501    0  0.00000000000E+00 -0.00000000000E+00 -0.52354036999E+03  0.52354037001E+03  0.50400000000E-02 0. -1.
    8880023    1    1    2    0    0  0.11806652692E+03  0.88724669765E+00  0.18168955667E+03  0.69336988199E+03  0.65864270000E+03 0.  1.
    8880022    1    1    2    0    0 -0.11806652692E+03 -0.88724669765E+00 -0.23283644560E+03  0.30256396911E+03  0.15294330000E+03 0.  0.
<mgrwt>
<rscale>  0 0.49051125E+03</rscale>
<asrwt>0</asrwt>
<pdfrwt beam="1">  1        1 0.80544672E-01 0.66914176E+03</pdfrwt>
<pdfrwt beam="2">  1       -1 0.72675920E-01 0.66914176E+03</pdfrwt>
<totfact> 0.81391787E+01</totfact>
</mgrwt>
</event>
<event>
 4    1  0.1474314E-007  0.6953954E+03  0.7818608E-02  0.1001687E+00
          1   -1    0    0  501    0  0.00000000000E+00  0.00000000000E+00  0.16121262340E+04  0.16121262340E+04  0.50400000000E-02 0. -1.
         -1   -1    0    0    0  501 -0.00000000000E+00 -0.00000000000E+00 -0.14188682726E+04  0.14188682726E+04  0.50400000000E-02 0.  1.
    8880023    1    1    2    0    0 -0.61149945617E+02  0.21453493361E+03 -0.13209547983E+04  0.14928149045E+04  0.65864270000E+03 0.  1.
    8880022    1    1    2    0    0  0.61149945617E+02 -0.21453493361E+03  0.15142127597E+04  0.15381796021E+04  0.15294330000E+03 0.  0.
<mgrwt>
<rscale>  0 0.54916804E+03</rscale>
<asrwt>0</asrwt>
<pdfrwt beam="1">  1        1 0.24801942E+00 0.69539540E+03</pdfrwt>
<pdfrwt beam="2">  1       -1 0.21828743E+00 0.69539540E+03</pdfrwt>
<totfact> 0.66289459E-01</totfact>
</mgrwt>
</event>
<event>
 4    1  0.1043382E-007  0.7555738E+03  0.7818608E-02  0.9816704E-01
         -1   -1    0    0    0  501 -0.00000000000E+00  0.00000000000E+00  0.25607759332E+03  0.25607759336E+03  0.50400000000E-02 0.  1.
          1   -1    0    0  501    0  0.00000000000E+00 -0.00000000000E+00 -0.36432460549E+04  0.36432460549E+04  0.50400000000E-02 0. -1.
    8880023    1    1    2    0    0 -0.33408062090E+03 -0.15959858240E+03 -0.34451166920E+03  0.83040957680E+03  0.65864270000E+03 0.  1.
    8880022    1    1    2    0    0  0.33408062090E+03  0.15959858240E+03 -0.30426567924E+04  0.30689140715E+04  0.15294330000E+03 0.  0.
<mgrwt>
<rscale>  0 0.64473759E+03</rscale>
<asrwt>0</asrwt>
<pdfrwt beam="1">  1        1 0.56049935E+00 0.75557381E+03</pdfrwt>
<pdfrwt beam="2">  1       -1 0.39396556E-01 0.75557381E+03</pdfrwt>
<totfact> 0.13123517E+00</totfact>
</mgrwt>
</event>
<event>
 4    1  0.1043382E-007  0.6983543E+03  0.7818608E-02  0.1000410E+00
         -1   -1    0    0    0  501 -0.00000000000E+00  0.00000000000E+00  0.93973926414E+03  0.93973926415E+03  0.50400000000E-02 0.  1.
          1   -1    0    0  501    0  0.00000000000E+00 -0.00000000000E+00 -0.37872289677E+03  0.37872289680E+03  0.50400000000E-02 0. -1.
    8880023    1    1    2    0    0 -0.82808919372E+02  0.21686675984E+03  0.71600671055E+03  0.10001821456E+04  0.65864270000E+03 0.  0.
    8880022    1    1    2    0    0  0.82808919372E+02 -0.21686675984E+03 -0.15499034318E+03  0.31828001531E+03  0.15294330000E+03 0.  0.
<mgrwt>
<rscale>  0 0.55470918E+03</rscale>
<asrwt>0</asrwt>
<pdfrwt beam="1">  1        1 0.58265061E-01 0.69835429E+03</pdfrwt>
<pdfrwt beam="2">  1       -1 0.14457527E+00 0.69835429E+03</pdfrwt>
<totfact> 0.25582431E+01</totfact>
</mgrwt>
</event>
<event>
 4    1  0.1043382E-007  0.9242950E+03  0.7818608E-02  0.9488105E-01
          1   -1    0    0  501    0  0.00000000000E+00  0.00000000000E+00  0.26909570435E+04  0.26909570435E+04  0.50400000000E-02 0. -1.
         -1   -1    0    0    0  501 -0.00000000000E+00 -0.00000000000E+00 -0.74704156698E+03  0.74704156700E+03  0.50400000000E-02 0.  1.
    8880023    1    1    2    0    0  0.51551100496E+03  0.39339481729E+03 -0.39564871548E+03  0.10054149347E+04  0.65864270000E+03 0.  1.
    8880022    1    1    2    0    0 -0.51551100496E+03 -0.39339481729E+03  0.23395641920E+04  0.24325836759E+04  0.15294330000E+03 0.  0.
<mgrwt>
<rscale>  0 0.85166527E+03</rscale>
<asrwt>0</asrwt>
<pdfrwt beam="1">  1        1 0.41399340E+00 0.92429502E+03</pdfrwt>
<pdfrwt beam="2">  1       -1 0.11492947E+00 0.92429502E+03</pdfrwt>
<totfact> 0.70894871E-01</totfact>
</mgrwt>
</event>
<event>
 4    1  0.1043382E-007  0.7229997E+03  0.7818608E-02  0.9912564E-01
         -1   -1    0    0    0  501 -0.00000000000E+00  0.00000000000E+00  0.46801553374E+03  0.46801553377E+03  0.50400000000E-02 0.  1.
          1   -1    0    0  501    0  0.00000000000E+00 -0.00000000000E+00 -0.69721946485E+03  0.69721946487E+03  0.50400000000E-02 0. -1.
    8880023    1    1    2    0    0  0.69248095939E+02  0.29003986023E+03  0.56015723117E+02  0.72516645456E+03  0.65864270000E+03 0.  1.
    8880022    1    1    2    0    0 -0.69248095939E+02 -0.29003986023E+03 -0.28521965423E+03  0.44006854408E+03  0.15294330000E+03 0.  0.
<mgrwt>
<rscale>  0 0.59656249E+03</rscale>
<asrwt>0</asrwt>
<pdfrwt beam="1">  1        1 0.10726453E+00 0.72299974E+03</pdfrwt>
<pdfrwt beam="2">  1       -1 0.72002390E-01 0.72299974E+03</pdfrwt>
<totfact> 0.54650451E+01</totfact>
</mgrwt>
</event>
<event>
 4    1  0.1043382E-007  0.6876378E+03  0.7818608E-02  0.1005296E+00
          1   -1    0    0  501    0  0.00000000000E+00  0.00000000000E+00  0.62623157272E+03  0.62623157274E+03  0.50400000000E-02 0. -1.
         -1   -1    0    0    0  501 -0.00000000000E+00 -0.00000000000E+00 -0.37144020285E+03  0.37144020288E+03  0.50400000000E-02 0.  1.
    8880023    1    1    2    0    0 -0.18937912071E+03 -0.56312333960E+02  0.78974829692E+02  0.69215804576E+03  0.65864270000E+03 0.  0.
    8880022    1    1    2    0    0  0.18937912071E+03  0.56312333960E+02  0.17581654018E+03  0.30551372986E+03  0.15294330000E+03 0.  0.
<mgrwt>
<rscale>  0 0.53387738E+03</rscale>
<asrwt>0</asrwt>
<pdfrwt beam="1">  1        1 0.96343318E-01 0.68763779E+03</pdfrwt>
<pdfrwt beam="2">  1       -1 0.57144647E-01 0.68763779E+03</pdfrwt>
<totfact> 0.10203698E+02</totfact>
</mgrwt>
</event>
<event>
 4    1  0.1043382E-007  0.8124550E+03  0.7818608E-02  0.9684486E-01
          1   -1    0    0  501    0  0.00000000000E+00  0.00000000000E+00  0.69267757322E+03  0.69267757324E+03  0.50400000000E-02 0. -1.
         -1   -1    0    0    0  501 -0.00000000000E+00 -0.00000000000E+00 -0.17257377389E+04  0.17257377390E+04  0.50400000000E-02 0.  1.
    8880023    1    1    2    0    0  0.41847440932E+03 -0.22616823070E+03 -0.15182355420E+04  0.17219530386E+04  0.65864270000E+03 0.  1.
    8880022    1    1    2    0    0 -0.41847440932E+03  0.22616823070E+03  0.48517537626E+03  0.69646227362E+03  0.15294330000E+03 0.  0.
<mgrwt>
<rscale>  0 0.71948061E+03</rscale>
<asrwt>0</asrwt>
<pdfrwt beam="1">  1        1 0.10656578E+00 0.81245499E+03</pdfrwt>
<pdfrwt beam="2">  1       -1 0.26549811E+00 0.81245499E+03</pdfrwt>
<totfact> 0.15880867E+00</totfact>
</mgrwt>
</event>
<event>
 4    1  0.1043382E-007  0.9797664E+03  0.7818608E-02  0.9408522E-01
         -1   -1    0    0    0  501 -0.00000000000E+00  0.00000000000E+00  0.13391449740E+04  0.13391449740E+04  0.50400000000E-02 0.  1.
          1   -1    0    0  501    0  0.00000000000E+00 -0.00000000000E+00 -0.58590172154E+03  0.58590172157E+03  0.50400000000E-02 0. -1.
    8880023    1    1    2    0    0 -0.26637193718E+03 -0.67466884737E+03  0.65196753404E+03  0.11768619011E+04  0.65864270000E+03 0.  0.
    8880022    1    1    2    0    0  0.26637193718E+03  0.67466884737E+03  0.10127571841E+03  0.74818479448E+03  0.15294330000E+03 0.  0.
<mgrwt>
<rscale>  0 0.91377700E+03</rscale>
<asrwt>0</asrwt>
<pdfrwt beam="1">  1        1 0.90138728E-01 0.97976644E+03</pdfrwt>
<pdfrwt beam="2">  1       -1 0.20602230E+00 0.97976644E+03</pdfrwt>
<totfact> 0.48834214E+00</totfact>
</mgrwt>
</event>
<event>
 4    1  0.1043382E-007  0.6945283E+03  0.7818608E-02  0.1002070E+00
          1   -1    0    0  501    0  0.00000000000E+00  0.00000000000E+00  0.27493082992E+03  0.27493082997E+03  0.50400000000E-02 0. -1.
         -1   -1    0    0    0  501 -0.00000000000E+00 -0.00000000000E+00 -0.21081300741E+04  0.21081300741E+04  0.50400000000E-02 0.  1.
    8880023    1    1    2    0    0 -0.12541902916E+03  0.18118897628E+03 -0.19650455514E+04  0.20841721626E+04  0.65864270000E+03 0.  1.
    8880022    1    1    2    0    0  0.12541902916E+03 -0.18118897628E+03  0.13184630727E+03  0.29888874143E+03  0.15294330000E+03 0.  0.
<mgrwt>
<rscale>  0 0.54751635E+03</rscale>
<asrwt>0</asrwt>
<pdfrwt beam="1">  1        1 0.42297052E-01 0.69452832E+03</pdfrwt>
<pdfrwt beam="2">  1       -1 0.32432769E+00 0.69452832E+03</pdfrwt>
<totfact> 0.23946206E+00</totfact>
</mgrwt>
</event>
<event>
 4    1  0.1043382E-007  0.7102149E+03  0.7818608E-02  0.9957204E-01
         -1   -1    0    0    0  501 -0.00000000000E+00  0.00000000000E+00  0.23484485444E+03  0.23484485450E+03  0.50400000000E-02 0.  1.
          1   -1    0    0  501    0  0.00000000000E+00 -0.00000000000E+00 -0.15363953483E+04  0.15363953483E+04  0.50400000000E-02 0. -1.
    8880023    1    1    2    0    0  0.19599852429E+03  0.17938668121E+03 -0.39157364806E+03  0.81100871206E+03  0.65864270000E+03 0.  1.
    8880022    1    1    2    0    0 -0.19599852429E+03 -0.17938668121E+03 -0.90997684579E+03  0.96023149074E+03  0.15294330000E+03 0. -1.
<mgrwt>
<rscale>  0 0.57567267E+03</rscale>
<asrwt>0</asrwt>
<pdfrwt beam="1">  1        1 0.23636851E+00 0.71021490E+03</pdfrwt>
<pdfrwt beam="2">  1       -1 0.36129979E-01 0.71021490E+03</pdfrwt>
<totfact> 0.46755765E+01</totfact>
</mgrwt>
</event>
<event>
 4    1  0.1043382E-007  0.6619002E+03  0.7818608E-02  0.1022289E+00
          1   -1    0    0  501    0  0.00000000000E+00  0.00000000000E+00  0.16286518120E+04  0.16286518120E+04  0.50400000000E-02 0. -1.
         -1   -1    0    0    0  501 -0.00000000000E+00 -0.00000000000E+00 -0.52660115038E+03  0.52660115040E+03  0.50400000000E-02 0.  1.
    8880023    1    1    2    0    0 -0.60940553994E+02  0.24247874917E+02 -0.31178528184E+03  0.73165700898E+03  0.65864270000E+03 0.  0.
    8880022    1    1    2    0    0  0.60940553994E+02 -0.24247874917E+02  0.14138359435E+04  0.14235959534E+04  0.15294330000E+03 0. -1.
<mgrwt>
<rscale>  0 0.46869613E+03</rscale>
<asrwt>0</asrwt>
<pdfrwt beam="1">  1        1 0.25056181E+00 0.66190023E+03</pdfrwt>
<pdfrwt beam="2">  1       -1 0.81015564E-01 0.66190023E+03</pdfrwt>
<totfact> 0.85558161E+00</totfact>
</mgrwt>
</event>
<event>
 4    1  0.1043382E-007  0.7306314E+03  0.7818608E-02  0.9888129E-01
         -1   -1    0    0    0  501 -0.00000000000E+00  0.00000000000E+00  0.38782116888E+03  0.38782116892E+03  0.50400000000E-02 0.  1.
          1   -1    0    0  501    0  0.00000000000E+00 -0.00000000000E+00 -0.76665127511E+03  0.76665127513E+03  0.50400000000E-02 0. -1.
    8880023    1    1    2    0    0 -0.24228806705E+03 -0.20324505180E+03 -0.18684072736E+03  0.75414303828E+03  0.65864270000E+03 0. -1.
    8880022    1    1    2    0    0  0.24228806705E+03  0.20324505180E+03 -0.19198937887E+03  0.40032940577E+03  0.15294330000E+03 0.  0.
<mgrwt>
<rscale>  0 0.60840081E+03</rscale>
<asrwt>0</asrwt>
<pdfrwt beam="1">  1        1 0.11794635E+00 0.73063142E+03</pdfrwt>
<pdfrwt beam="2">  1       -1 0.59664795E-01 0.73063142E+03</pdfrwt>
<totfact> 0.68906885E+01</totfact>
</mgrwt>
</event>
<event>
 4    1  0.1064705E-007  0.7205816E+03  0.7818608E-02  0.9920623E-01
         -1   -1    0    0    0  501 -0.00000000000E+00  0.00000000000E+00  0.10185590398E+04  0.10185590398E+04  0.50400000000E-02 0.  1.
          1   -1    0    0  501    0  0.00000000000E+00 -0.00000000000E+00 -0.11421471851E+04  0.11421471851E+04  0.50400000000E-02 0. -1.
    8880023    1    1    2    0    0  0.28812590126E+03  0.49103374638E+02  0.86075512213E+03  0.11225583561E+04  0.65864270000E+03 0.  1.
    8880022    1    1    2    0    0 -0.28812590126E+03 -0.49103374638E+02 -0.98434326739E+03  0.10381478688E+04  0.15294330000E+03 0.  0.
<mgrwt>
<rscale>  0 0.59272145E+03</rscale>
<asrwt>0</asrwt>
<pdfrwt beam="1">  1        1 0.17571495E+00 0.72058163E+03</pdfrwt>
<pdfrwt beam="2">  1       -1 0.15670139E+00 0.72058163E+03</pdfrwt>
<totfact> 0.38136852E+00</totfact>
</mgrwt>
</event>
<event>
 4    1  0.1043382E-007  0.7063568E+03  0.7818608E-02  0.9971787E-01
         -1   -1    0    0    0  501 -0.00000000000E+00  0.00000000000E+00  0.80874975721E+03  0.80874975722E+03  0.50400000000E-02 0.  1.
          1   -1    0    0  501    0  0.00000000000E+00 -0.00000000000E+00 -0.60977699541E+03  0.60977699544E+03  0.50400000000E-02 0. -1.
    8880023    1    1    2    0    0 -0.20112197874E+03 -0.15709781542E+03  0.59474262692E+03  0.92339524175E+03  0.65864270000E+03 0.  1.
    8880022    1    1    2    0    0  0.20112197874E+03  0.15709781542E+03 -0.39576986513E+03  0.49513151091E+03  0.15294330000E+03 0.  0.
<mgrwt>
<rscale>  0 0.56904835E+03</rscale>
<asrwt>0</asrwt>
<pdfrwt beam="1">  1        1 0.93811845E-01 0.70635684E+03</pdfrwt>
<pdfrwt beam="2">  1       -1 0.12442304E+00 0.70635684E+03</pdfrwt>
<totfact> 0.19539494E+01</totfact>
</mgrwt>
</event>
<event>
 4    1  0.1043382E-007  0.1611179E+04  0.7818608E-02  0.8834873E-01
         -1   -1    0    0    0  501 -0.00000000000E+00  0.00000000000E+00  0.23250603420E+04  0.23250603420E+04  0.50400000000E-02 0.  1.
          1   -1    0    0  501    0  0.00000000000E+00 -0.00000000000E+00 -0.12313790359E+04  0.12313790359E+04  0.50400000000E-02 0. -1.
    8880023    1    1    2    0    0 -0.55982771133E+03  0.13596617043E+04  0.12915164958E+04  0.20649242315E+04  0.65864270000E+03 0.  0.
    8880022    1    1    2    0    0  0.55982771133E+03 -0.13596617043E+04 -0.19783518970E+03  0.14915151464E+04  0.15294330000E+03 0.  1.
<mgrwt>
<rscale>  0 0.15768890E+04</rscale>
<asrwt>0</asrwt>
<pdfrwt beam="1">  1        1 0.18944293E+00 0.16111788E+04</pdfrwt>
<pdfrwt beam="2">  1       -1 0.35770159E+00 0.16111788E+04</pdfrwt>
<totfact> 0.13119954E-01</totfact>
</mgrwt>
</event>
<event>
 4    1  0.1043382E-007  0.7703609E+03  0.7818608E-02  0.9778987E-01
         -1   -1    0    0    0  501 -0.00000000000E+00  0.00000000000E+00  0.20632215194E+04  0.20632215194E+04  0.50400000000E-02 0.  1.
          1   -1    0    0  501    0  0.00000000000E+00 -0.00000000000E+00 -0.55913300538E+03  0.55913300540E+03  0.50400000000E-02 0. -1.
    8880023    1    1    2    0    0  0.21140547475E+03 -0.33904782070E+03  0.18932683053E+04  0.20439962773E+04  0.65864270000E+03 0.  1.
    8880022    1    1    2    0    0 -0.21140547475E+03  0.33904782070E+03 -0.38917979130E+03  0.57835824749E+03  0.15294330000E+03 0.  0.
<mgrwt>
<rscale>  0 0.66502525E+03</rscale>
<asrwt>0</asrwt>
<pdfrwt beam="1">  1        1 0.86020461E-01 0.77036089E+03</pdfrwt>
<pdfrwt beam="2">  1       -1 0.31741870E+00 0.77036089E+03</pdfrwt>
<totfact> 0.10165748E+00</totfact>
</mgrwt>
</event>
<event>
 4    1  0.1043382E-007  0.6856435E+03  0.7818608E-02  0.1006296E+00
          1   -1    0    0  501    0  0.00000000000E+00  0.00000000000E+00  0.57123475309E+03  0.57123475311E+03  0.50400000000E-02 0. -1.
         -1   -1    0    0    0  501 -0.00000000000E+00 -0.00000000000E+00 -0.42469495147E+03  0.42469495150E+03  0.50400000000E-02 0.  1.
    8880023    1    1    2    0    0 -0.27489014648E+02 -0.18852359024E+03 -0.42591600927E+02  0.68696509426E+03  0.65864270000E+03 0. -1.
    8880022    1    1    2    0    0  0.27489014648E+02  0.18852359024E+03  0.18913140254E+03  0.30896461035E+03  0.15294330000E+03 0.  0.
<mgrwt>
<rscale>  0 0.52973668E+03</rscale>
<asrwt>0</asrwt>
<pdfrwt beam="1">  1        1 0.87882269E-01 0.68564349E+03</pdfrwt>
<pdfrwt beam="2">  1       -1 0.65337685E-01 0.68564349E+03</pdfrwt>
<totfact> 0.89343583E+01</totfact>
</mgrwt>
</event>
<event>
 4    1  0.1043382E-007  0.1364111E+04  0.7818608E-02  0.9012083E-01
         -1   -1    0    0    0  501 -0.00000000000E+00  0.00000000000E+00  0.15087632402E+04  0.15087632402E+04  0.50400000000E-02 0.  1.
          1   -1    0    0  501    0  0.00000000000E+00 -0.00000000000E+00 -0.20634202838E+04  0.20634202838E+04  0.50400000000E-02 0. -1.
    8880023    1    1    2    0    0  0.11803683719E+04 -0.18362811178E+03 -0.15100283549E+04  0.20349409367E+04  0.65864270000E+03 0.  0.
    8880022    1    1    2    0    0 -0.11803683719E+04  0.18362811178E+03  0.95537131131E+03  0.15372425873E+04  0.15294330000E+03 0.  0.
<mgrwt>
<rscale>  0 0.13222773E+04</rscale>
<asrwt>0</asrwt>
<pdfrwt beam="1">  1        1 0.31744927E+00 0.13641111E+04</pdfrwt>
<pdfrwt beam="2">  1       -1 0.23211742E+00 0.13641111E+04</pdfrwt>
<totfact> 0.23678200E-01</totfact>
</mgrwt>
</event>
<event>
 4    1  0.1043382E-007  0.8821097E+03  0.7818608E-02  0.9555384E-01
          1   -1    0    0  501    0  0.00000000000E+00  0.00000000000E+00  0.18130513646E+04  0.18130513646E+04  0.50400000000E-02 0. -1.
         -1   -1    0    0    0  501 -0.00000000000E+00 -0.00000000000E+00 -0.96165312334E+03  0.96165312335E+03  0.50400000000E-02 0.  1.
    8880023    1    1    2    0    0 -0.52013131222E+03 -0.27160781380E+03 -0.68896663479E+03  0.11192821881E+04  0.65864270000E+03 0.  1.
    8880022    1    1    2    0    0  0.52013131222E+03  0.27160781380E+03  0.15403648761E+04  0.16554222999E+04  0.15294330000E+03 0.  0.
<mgrwt>
<rscale>  0 0.80320892E+03</rscale>
<asrwt>0</asrwt>
<pdfrwt beam="1">  1        1 0.27893098E+00 0.88210974E+03</pdfrwt>
<pdfrwt beam="2">  1       -1 0.14794664E+00 0.88210974E+03</pdfrwt>
<totfact> 0.14853527E+00</totfact>
</mgrwt>
</event>
<event>
 4    1  0.1043382E-007  0.9377028E+03  0.7818608E-02  0.9468032E-01
          1   -1    0    0  501    0  0.00000000000E+00  0.00000000000E+00  0.19595978815E+04  0.19595978815E+04  0.50400000000E-02 0. -1.
         -1   -1    0    0    0  501 -0.00000000000E+00 -0.00000000000E+00 -0.59368114172E+03  0.59368114174E+03  0.50400000000E-02 0.  1.
    8880023    1    1    2    0    0 -0.37782107446E+03  0.55020692767E+03  0.15787464840E+04  0.18362263190E+04  0.65864270000E+03 0. -1.
    8880022    1    1    2    0    0  0.37782107446E+03 -0.55020692767E+03 -0.21282974426E+03  0.71705270421E+03  0.15294330000E+03 0.  0.
<mgrwt>
<rscale>  0 0.86682267E+03</rscale>
<asrwt>0</asrwt>
<pdfrwt beam="1">  1        1 0.30147660E+00 0.93770285E+03</pdfrwt>
<pdfrwt beam="2">  1       -1 0.91335561E-01 0.93770285E+03</pdfrwt>
<totfact> 0.37832945E+00</totfact>
</mgrwt>
</event>
<event>
 4    1  0.1043382E-007  0.7091083E+03  0.7818608E-02  0.9961327E-01
         -1   -1    0    0    0  501 -0.00000000000E+00  0.00000000000E+00  0.28349935885E+03  0.28349935890E+03  0.50400000000E-02 0.  1.
          1   -1    0    0  501    0  0.00000000000E+00 -0.00000000000E+00 -0.14320290780E+04  0.14320290781E+04  0.50400000000E-02 0. -1.
    8880023    1    1    2    0    0  0.58009371375E+02  0.25624060176E+03 -0.22607848442E+03  0.74427550043E+03  0.65864270000E+03 0.  1.
    8880022    1    1    2    0    0 -0.58009371375E+02 -0.25624060176E+03 -0.92245123477E+03  0.97125293652E+03  0.15294330000E+03 0.  0.
<mgrwt>
<rscale>  0 0.57378977E+03</rscale>
<asrwt>0</asrwt>
<pdfrwt beam="1">  1        1 0.22031216E+00 0.70910827E+03</pdfrwt>
<pdfrwt beam="2">  1       -1 0.43615287E-01 0.70910827E+03</pdfrwt>
<totfact> 0.39170098E+01</totfact>
</mgrwt>
</event>
<event>
 4    1  0.1043382E-007  0.9798289E+03  0.7818608E-02  0.9408437E-01
         -1   -1    0    0    0  501 -0.00000000000E+00  0.00000000000E+00  0.93310714801E+03  0.93310714803E+03  0.50400000000E-02 0.  1.
          1   -1    0    0  501    0  0.00000000000E+00 -0.00000000000E+00 -0.88987423299E+03  0.88987423300E+03  0.50400000000E-02 0. -1.
    8880023    1    1    2    0    0 -0.71704834147E+03  0.10998261748E+03  0.32130754689E+03  0.10311659644E+04  0.65864270000E+03 0. -1.
    8880022    1    1    2    0    0  0.71704834147E+03 -0.10998261748E+03 -0.27807463186E+03  0.79181541665E+03  0.15294330000E+03 0.  1.
<mgrwt>
<rscale>  0 0.91384615E+03</rscale>
<asrwt>0</asrwt>
<pdfrwt beam="1">  1        1 0.13690373E+00 0.97982892E+03</pdfrwt>
<pdfrwt beam="2">  1       -1 0.14355495E+00 0.97982892E+03</pdfrwt>
<totfact> 0.73109473E+00</totfact>
</mgrwt>
</event>
<event>
 4    1  0.1043382E-007  0.7530240E+03  0.7818608E-02  0.9823514E-01
         -1   -1    0    0    0  501 -0.00000000000E+00  0.00000000000E+00  0.74849251502E+03  0.74849251504E+03  0.50400000000E-02 0.  1.
          1   -1    0    0  501    0  0.00000000000E+00 -0.00000000000E+00 -0.59270393395E+03  0.59270393397E+03  0.50400000000E-02 0. -1.
    8880023    1    1    2    0    0  0.13087370775E+03 -0.34074479054E+03  0.42297633300E+03  0.86368635754E+03  0.65864270000E+03 0.  0.
    8880022    1    1    2    0    0 -0.13087370775E+03  0.34074479054E+03 -0.26718775193E+03  0.47751009147E+03  0.15294330000E+03 0.  0.
<mgrwt>
<rscale>  0 0.64115761E+03</rscale>
<asrwt>0</asrwt>
<pdfrwt beam="1">  1        1 0.91185221E-01 0.75302400E+03</pdfrwt>
<pdfrwt beam="2">  1       -1 0.11515269E+00 0.75302400E+03</pdfrwt>
<totfact> 0.24448192E+01</totfact>
</mgrwt>
</event>
<event>
 4    1  0.1043382E-007  0.7821340E+03  0.7818608E-02  0.9750848E-01
          1   -1    0    0  501    0  0.00000000000E+00  0.00000000000E+00  0.13580559670E+04  0.13580559670E+04  0.50400000000E-02 0. -1.
         -1   -1    0    0    0  501 -0.00000000000E+00 -0.00000000000E+00 -0.55485961935E+03  0.55485961937E+03  0.50400000000E-02 0.  1.
    8880023    1    1    2    0    0 -0.26964616281E+03 -0.32436767200E+03 -0.20571405315E+03  0.80873476349E+03  0.65864270000E+03 0.  1.
    8880022    1    1    2    0    0  0.26964616281E+03  0.32436767200E+03  0.10089104008E+04  0.11041808229E+04  0.15294330000E+03 0.  0.
<mgrwt>
<rscale>  0 0.68068382E+03</rscale>
<asrwt>0</asrwt>
<pdfrwt beam="1">  1        1 0.20893168E+00 0.78213403E+03</pdfrwt>
<pdfrwt beam="2">  1       -1 0.85363019E-01 0.78213403E+03</pdfrwt>
<totfact> 0.11504625E+01</totfact>
</mgrwt>
</event>
<event>
 4    1  0.1043382E-007  0.1606693E+04  0.7818608E-02  0.8837753E-01
         -1   -1    0    0    0  501 -0.00000000000E+00  0.00000000000E+00  0.19159807117E+04  0.19159807117E+04  0.50400000000E-02 0.  1.
          1   -1    0    0  501    0  0.00000000000E+00 -0.00000000000E+00 -0.30545937321E+04  0.30545937321E+04  0.50400000000E-02 0. -1.
    8880023    1    1    2    0    0  0.38812142277E+03  0.14131577990E+04 -0.24951948765E+04  0.29677366597E+04  0.65864270000E+03 0.  0.
    8880022    1    1    2    0    0 -0.38812142277E+03 -0.14131577990E+04  0.13565818561E+04  0.20028377840E+04  0.15294330000E+03 0.  0.
<mgrwt>
<rscale>  0 0.15722925E+04</rscale>
<asrwt>0</asrwt>
<pdfrwt beam="1">  1        1 0.46993750E+00 0.16066933E+04</pdfrwt>
<pdfrwt beam="2">  1       -1 0.29476626E+00 0.16066933E+04</pdfrwt>
<totfact> 0.18123268E-02</totfact>
</mgrwt>
</event>
<event>
 4    1  0.1043382E-007  0.7590587E+03  0.7818608E-02  0.9807550E-01
          1   -1    0    0  501    0  0.00000000000E+00  0.00000000000E+00  0.41304717589E+03  0.41304717592E+03  0.50400000000E-02 0. -1.
         -1   -1    0    0    0  501 -0.00000000000E+00 -0.00000000000E+00 -0.14382033011E+04  0.14382033011E+04  0.50400000000E-02 0.  1.
    8880023    1    1    2    0    0  0.35316081344E+03 -0.13280592582E+03 -0.11904430604E+04  0.14118515717E+04  0.65864270000E+03 0.  1.
    8880022    1    1    2    0    0 -0.35316081344E+03  0.13280592582E+03  0.16528693519E+03  0.43939890538E+03  0.15294330000E+03 0.  0.
<mgrwt>
<rscale>  0 0.64958916E+03</rscale>
<asrwt>0</asrwt>
<pdfrwt beam="1">  1        1 0.63545720E-01 0.75905875E+03</pdfrwt>
<pdfrwt beam="2">  1       -1 0.22126204E+00 0.75905875E+03</pdfrwt>
<totfact> 0.64164057E+00</totfact>
</mgrwt>
</event>
<event>
 4    1  0.1043382E-007  0.7478329E+03  0.7818608E-02  0.9837691E-01
         -1   -1    0    0    0  501 -0.00000000000E+00  0.00000000000E+00  0.19938753850E+03  0.19938753857E+03  0.50400000000E-02 0.  1.
          1   -1    0    0  501    0  0.00000000000E+00 -0.00000000000E+00 -0.21414494062E+04  0.21414494062E+04  0.50400000000E-02 0. -1.
    8880023    1    1    2    0    0  0.31789566160E+03 -0.15616086634E+03 -0.17639257801E+04  0.19159040247E+04  0.65864270000E+03 0. -1.
    8880022    1    1    2    0    0 -0.31789566160E+03  0.15616086634E+03 -0.17813608757E+03  0.42493292006E+03  0.15294330000E+03 0.  0.
<mgrwt>
<rscale>  0 0.63378471E+03</rscale>
<asrwt>0</asrwt>
<pdfrwt beam="1">  1        1 0.32945374E+00 0.74783292E+03</pdfrwt>
<pdfrwt beam="2">  1       -1 0.30675007E-01 0.74783292E+03</pdfrwt>
<totfact> 0.24400530E+01</totfact>
</mgrwt>
</event>
<event>
 4    1  0.1043382E-007  0.9278262E+03  0.7818608E-02  0.9482762E-01
         -1   -1    0    0    0  501 -0.00000000000E+00  0.00000000000E+00  0.86477689904E+03  0.86477689906E+03  0.50400000000E-02 0.  1.
          1   -1    0    0  501    0  0.00000000000E+00 -0.00000000000E+00 -0.12761063193E+04  0.12761063193E+04  0.50400000000E-02 0. -1.
    8880023    1    1    2    0    0 -0.51846509849E+03 -0.39780033514E+03  0.46439249365E+03  0.10375556657E+04  0.65864270000E+03 0.  1.
    8880022    1    1    2    0    0  0.51846509849E+03  0.39780033514E+03 -0.87572191394E+03  0.11033275527E+04  0.15294330000E+03 0.  0.
<mgrwt>
<rscale>  0 0.85566726E+03</rscale>
<asrwt>0</asrwt>
<pdfrwt beam="1">  1        1 0.19632405E+00 0.92782615E+03</pdfrwt>
<pdfrwt beam="2">  1       -1 0.13304260E+00 0.92782615E+03</pdfrwt>
<totfact> 0.45575994E+00</totfact>
</mgrwt>
</event>
<event>
 4    1  0.1043382E-007  0.8311516E+03  0.7818608E-02  0.9647096E-01
          1   -1    0    0  501    0  0.00000000000E+00  0.00000000000E+00  0.77935910852E+03  0.77935910854E+03  0.50400000000E-02 0. -1.
         -1   -1    0    0    0  501 -0.00000000000E+00 -0.00000000000E+00 -0.68393133392E+03  0.68393133394E+03  0.50400000000E-02 0.  1.
    8880023    1    1    2    0    0 -0.47697228281E+03  0.17175650587E+03 -0.20283596852E+03  0.85554397448E+03  0.65864270000E+03 0.  0.
    8880022    1    1    2    0    0  0.47697228281E+03 -0.17175650587E+03  0.29826374312E+03  0.60774646800E+03  0.15294330000E+03 0.  0.
<mgrwt>
<rscale>  0 0.74255973E+03</rscale>
<asrwt>0</asrwt>
<pdfrwt beam="1">  1        1 0.11990140E+00 0.83115165E+03</pdfrwt>
<pdfrwt beam="2">  1       -1 0.10522021E+00 0.83115165E+03</pdfrwt>
<totfact> 0.19889799E+01</totfact>
</mgrwt>
</event>
<event>
 4    1  0.1043382E-007  0.1250093E+04  0.7818608E-02  0.9109903E-01
          1   -1    0    0  501    0  0.00000000000E+00  0.00000000000E+00  0.84004817356E+03  0.84004817358E+03  0.50400000000E-02 0. -1.
         -1   -1    0    0    0  501 -0.00000000000E+00 -0.00000000000E+00 -0.22976924356E+04  0.22976924356E+04  0.50400000000E-02 0.  1.
    8880023    1    1    2    0    0  0.10622927505E+04 -0.21335752088E+02 -0.16261676775E+04  0.20511344723E+04  0.65864270000E+03 0.  1.
    8880022    1    1    2    0    0 -0.10622927505E+04  0.21335752088E+02  0.16852341549E+03  0.10866061368E+04  0.15294330000E+03 0.  0.
<mgrwt>
<rscale>  0 0.12033803E+04</rscale>
<asrwt>0</asrwt>
<pdfrwt beam="1">  1        1 0.12923818E+00 0.12500925E+04</pdfrwt>
<pdfrwt beam="2">  1       -1 0.35349114E+00 0.12500925E+04</pdfrwt>
<totfact> 0.29598621E-01</totfact>
</mgrwt>
</event>
<event>
 4    1  0.1043382E-007  0.7469173E+03  0.7818608E-02  0.9840237E-01
          1   -1    0    0  501    0  0.00000000000E+00  0.00000000000E+00  0.82132840995E+03  0.82132840997E+03  0.50400000000E-02 0. -1.
         -1   -1    0    0    0  501 -0.00000000000E+00 -0.00000000000E+00 -0.96843791347E+03  0.96843791348E+03  0.50400000000E-02 0.  1.
    8880023    1    1    2    0    0 -0.34997291235E+03 -0.39927784316E+02 -0.76058751137E+03  0.10660107110E+04  0.65864270000E+03 0.  1.
    8880022    1    1    2    0    0  0.34997291235E+03  0.39927784316E+02  0.61347800786E+03  0.72375561240E+03  0.15294330000E+03 0.  0.
<mgrwt>
<rscale>  0 0.63247188E+03</rscale>
<asrwt>0</asrwt>
<pdfrwt beam="1">  1        1 0.12635822E+00 0.74691731E+03</pdfrwt>
<pdfrwt beam="2">  1       -1 0.14899045E+00 0.74691731E+03</pdfrwt>
<totfact> 0.77784401E+00</totfact>
</mgrwt>
</event>
<event>
 4    1  0.1043382E-007  0.1578172E+04  0.7818608E-02  0.8856321E-01
          1   -1    0    0  501    0  0.00000000000E+00  0.00000000000E+00  0.32276104803E+04  0.32276104803E+04  0.50400000000E-02 0. -1.
         -1   -1    0    0    0  501 -0.00000000000E+00 -0.00000000000E+00 -0.13688305474E+04  0.13688305474E+04  0.50400000000E-02 0.  1.
    8880023    1    1    2    0    0  0.12842160977E+04  0.63844052680E+03 -0.64665850969E+03  0.17055189024E+04  0.65864270000E+03 0.  0.
    8880022    1    1    2    0    0 -0.12842160977E+04 -0.63844052680E+03  0.25054384426E+04  0.28909221253E+04  0.15294330000E+03 0.  0.
<mgrwt>
<rscale>  0 0.15430470E+04</rscale>
<asrwt>0</asrwt>
<pdfrwt beam="1">  1        1 0.49655546E+00 0.15781722E+04</pdfrwt>
<pdfrwt beam="2">  1       -1 0.21058932E+00 0.15781722E+04</pdfrwt>
<totfact> 0.48441824E-02</totfact>
</mgrwt>
</event>
<event>
 4    1  0.1043382E-007  0.6807154E+03  0.7818608E-02  0.1008922E+00
          1   -1    0    0  501    0  0.00000000000E+00  0.00000000000E+00  0.38996971860E+03  0.38996971863E+03  0.50400000000E-02 0. -1.
         -1   -1    0    0    0  501 -0.00000000000E+00 -0.00000000000E+00 -0.75116936578E+03  0.75116936579E+03  0.50400000000E-02 0.  1.
    8880023    1    1    2    0    0  0.16914342489E+03 -0.30882184560E+02 -0.52418089047E+03  0.85915017296E+03  0.65864270000E+03 0.  1.
    8880022    1    1    2    0    0 -0.16914342489E+03  0.30882184560E+02  0.16298124329E+03  0.28198891146E+03  0.15294330000E+03 0.  0.
<mgrwt>
<rscale>  0 0.51905382E+03</rscale>
<asrwt>0</asrwt>
<pdfrwt beam="1">  1        1 0.59995342E-01 0.68071537E+03</pdfrwt>
<pdfrwt beam="2">  1       -1 0.11556452E+00 0.68071537E+03</pdfrwt>
<totfact> 0.43269931E+01</totfact>
</mgrwt>
</event>
<event>
 4    1  0.1308039E-007  0.6998912E+03  0.7818608E-02  0.9997653E-01
          1   -1    0    0  501    0  0.00000000000E+00  0.00000000000E+00  0.17475180226E+04  0.17475180226E+04  0.50400000000E-02 0. -1.
         -1   -1    0    0    0  501 -0.00000000000E+00 -0.00000000000E+00 -0.64734403549E+03  0.64734403551E+03  0.50400000000E-02 0.  1.
    8880023    1    1    2    0    0 -0.15256601132E+03 -0.18100043459E+03 -0.44158618495E+03  0.82755429437E+03  0.65864270000E+03 0.  1.
    8880022    1    1    2    0    0  0.15256601132E+03  0.18100043459E+03  0.15417601721E+04  0.15673077638E+04  0.15294330000E+03 0.  0.
<mgrwt>
<rscale>  0 0.55753283E+03</rscale>
<asrwt>0</asrwt>
<pdfrwt beam="1">  1        1 0.26884892E+00 0.69989124E+03</pdfrwt>
<pdfrwt beam="2">  1       -1 0.99591392E-01 0.69989124E+03</pdfrwt>
<totfact> 0.44927442E+00</totfact>
</mgrwt>
</event>
<event>
 4    1  0.1043382E-007  0.1020875E+04  0.7818608E-02  0.9354742E-01
          1   -1    0    0  501    0  0.00000000000E+00  0.00000000000E+00  0.10164286429E+04  0.10164286430E+04  0.50400000000E-02 0. -1.
         -1   -1    0    0    0  501 -0.00000000000E+00 -0.00000000000E+00 -0.81327404738E+03  0.81327404739E+03  0.50400000000E-02 0.  1.
    8880023    1    1    2    0    0 -0.69418519817E+03 -0.35564336032E+03  0.64947945862E+02  0.10229387719E+04  0.65864270000E+03 0.  1.
    8880022    1    1    2    0    0  0.69418519817E+03  0.35564336032E+03  0.13820664970E+03  0.80676391846E+03  0.15294330000E+03 0. -1.
<mgrwt>
<rscale>  0 0.95895670E+03</rscale>
<asrwt>0</asrwt>
<pdfrwt beam="1">  1        1 0.15637364E+00 0.10208749E+04</pdfrwt>
<pdfrwt beam="2">  1       -1 0.12511908E+00 0.10208749E+04</pdfrwt>
<totfact> 0.82048436E+00</totfact>
</mgrwt>
</event>
<event>
 4    1  0.1043382E-007  0.1031171E+04  0.7818608E-02  0.9341867E-01
         -1   -1    0    0    0  501 -0.00000000000E+00  0.00000000000E+00  0.20912040393E+04  0.20912040393E+04  0.50400000000E-02 0.  1.
          1   -1    0    0  501    0  0.00000000000E+00 -0.00000000000E+00 -0.41007796262E+03  0.41007796265E+03  0.50400000000E-02 0. -1.
    8880023    1    1    2    0    0 -0.31001876708E+03  0.73033662741E+03  0.79487272176E+03  0.13019739150E+04  0.65864270000E+03 0. -1.
    8880022    1    1    2    0    0  0.31001876708E+03 -0.73033662741E+03  0.88625335488E+03  0.11993080869E+04  0.15294330000E+03 0.  1.
<mgrwt>
<rscale>  0 0.97018241E+03</rscale>
<asrwt>0</asrwt>
<pdfrwt beam="1">  1        1 0.63088919E-01 0.10311709E+04</pdfrwt>
<pdfrwt beam="2">  1       -1 0.32172369E+00 0.10311709E+04</pdfrwt>
<totfact> 0.14025611E+00</totfact>
</mgrwt>
</event>
<event>
 4    1  0.1043382E-007  0.7017062E+03  0.7818608E-02  0.9990196E-01
         -1   -1    0    0    0  501 -0.00000000000E+00  0.00000000000E+00  0.34059975115E+03  0.34059975119E+03  0.50400000000E-02 0.  1.
          1   -1    0    0  501    0  0.00000000000E+00 -0.00000000000E+00 -0.13739643424E+04  0.13739643424E+04  0.50400000000E-02 0. -1.
    8880023    1    1    2    0    0 -0.11153194347E+03 -0.21480680789E+03 -0.64941848436E+02  0.70470489502E+03  0.65864270000E+03 0.  1.
    8880022    1    1    2    0    0  0.11153194347E+03  0.21480680789E+03 -0.96842274277E+03  0.10098591985E+04  0.15294330000E+03 0.  0.
<mgrwt>
<rscale>  0 0.56082236E+03</rscale>
<asrwt>0</asrwt>
<pdfrwt beam="1">  1        1 0.21137913E+00 0.70170617E+03</pdfrwt>
<pdfrwt beam="2">  1       -1 0.52399962E-01 0.70170617E+03</pdfrwt>
<totfact> 0.30483236E+01</totfact>
</mgrwt>
</event>
<event>
 4    1  0.1043382E-007  0.9669798E+03  0.7818608E-02  0.9426094E-01
          1   -1    0    0  501    0  0.00000000000E+00  0.00000000000E+00  0.14708215877E+04  0.14708215877E+04  0.50400000000E-02 0. -1.
         -1   -1    0    0    0  501 -0.00000000000E+00 -0.00000000000E+00 -0.55025353055E+03  0.55025353057E+03  0.50400000000E-02 0.  1.
    8880023    1    1    2    0    0  0.51043661801E+03  0.49060585412E+03  0.17701768057E+03  0.98304888516E+03  0.65864270000E+03 0.  1.
    8880022    1    1    2    0    0 -0.51043661801E+03 -0.49060585412E+03  0.74355037655E+03  0.10380262331E+04  0.15294330000E+03 0. -1.
<mgrwt>
<rscale>  0 0.89959040E+03</rscale>
<asrwt>0</asrwt>
<pdfrwt beam="1">  1        1 0.22628024E+00 0.96697976E+03</pdfrwt>
<pdfrwt beam="2">  1       -1 0.84654390E-01 0.96697976E+03</pdfrwt>
<totfact> 0.95556309E+00</totfact>
</mgrwt>
</event>
<event>
 4    1  0.1043382E-007  0.8658492E+03  0.7818608E-02  0.9583242E-01
         -1   -1    0    0    0  501 -0.00000000000E+00  0.00000000000E+00  0.45979308093E+03  0.45979308096E+03  0.50400000000E-02 0.  1.
          1   -1    0    0  501    0  0.00000000000E+00 -0.00000000000E+00 -0.13369701039E+04  0.13369701039E+04  0.50400000000E-02 0. -1.
    8880023    1    1    2    0    0  0.34523200517E+03  0.44350823988E+03 -0.17310580572E+03  0.88298387441E+03  0.65864270000E+03 0. -1.
    8880022    1    1    2    0    0 -0.34523200517E+03 -0.44350823988E+03 -0.70407121721E+03  0.91377931042E+03  0.15294330000E+03 0.  0.
<mgrwt>
<rscale>  0 0.78415318E+03</rscale>
<asrwt>0</asrwt>
<pdfrwt beam="1">  1        1 0.20568771E+00 0.86584924E+03</pdfrwt>
<pdfrwt beam="2">  1       -1 0.70737397E-01 0.86584924E+03</pdfrwt>
<totfact> 0.17511896E+01</totfact>
</mgrwt>
</event>
<event>
 4    1  0.1043382E-007  0.8207605E+03  0.7818608E-02  0.9667584E-01
         -1   -1    0    0    0  501 -0.00000000000E+00  0.00000000000E+00  0.74983760573E+03  0.74983760575E+03  0.50400000000E-02 0.  1.
          1   -1    0    0  501    0  0.00000000000E+00 -0.00000000000E+00 -0.22637136348E+04  0.22637136348E+04  0.50400000000E-02 0. -1.
    8880023    1    1    2    0    0  0.15520109322E+03  0.46448916248E+03  0.48265161560E+03  0.95215563313E+03  0.65864270000E+03 0.  0.
    8880022    1    1    2    0    0 -0.15520109322E+03 -0.46448916248E+03 -0.19965276447E+04  0.20613956075E+04  0.15294330000E+03 0.  0.
<mgrwt>
<rscale>  0 0.72980039E+03</rscale>
<asrwt>0</asrwt>
<pdfrwt beam="1">  1        1 0.34826363E+00 0.82076048E+03</pdfrwt>
<pdfrwt beam="2">  1       -1 0.11535963E+00 0.82076048E+03</pdfrwt>
<totfact> 0.14047358E+00</totfact>
</mgrwt>
</event>
<event>
 4    1  0.1043382E-007  0.6958268E+03  0.7818608E-02  0.1001497E+00
          1   -1    0    0  501    0  0.00000000000E+00  0.00000000000E+00  0.20804047151E+04  0.20804047151E+04  0.50400000000E-02 0. -1.
         -1   -1    0    0    0  501 -0.00000000000E+00 -0.00000000000E+00 -0.36721252362E+03  0.36721252366E+03  0.50400000000E-02 0.  1.
    8880023    1    1    2    0    0 -0.19001832170E+03  0.11940611159E+03 -0.17203213430E+02  0.69603946647E+03  0.65864270000E+03 0.  1.
    8880022    1    1    2    0    0  0.19001832170E+03 -0.11940611159E+03  0.17303954049E+04  0.17515777723E+04  0.15294330000E+03 0.  0.
<mgrwt>
<rscale>  0 0.54998503E+03</rscale>
<asrwt>0</asrwt>
<pdfrwt beam="1">  1        1 0.32006226E+00 0.69582684E+03</pdfrwt>
<pdfrwt beam="2">  1       -1 0.56494235E-01 0.69582684E+03</pdfrwt>
<totfact> 0.88128735E+00</totfact>
</mgrwt>
</event>
<event>
 4    1  0.1043382E-007  0.1130290E+04  0.7818608E-02  0.9228058E-01
         -1   -1    0    0    0  501 -0.00000000000E+00  0.00000000000E+00  0.94042701188E+03  0.94042701189E+03  0.50400000000E-02 0.  1.
          1   -1    0    0  501    0  0.00000000000E+00 -0.00000000000E+00 -0.12974150594E+04  0.12974150594E+04  0.50400000000E-02 0. -1.
    8880023    1    1    2    0    0 -0.77425360044E+03 -0.49424426825E+03 -0.59411587450E+03  0.12769220466E+04  0.65864270000E+03 0.  0.
    8880022    1    1    2    0    0  0.77425360044E+03  0.49424426825E+03  0.23712782699E+03  0.96092002469E+03  0.15294330000E+03 0.  0.
<mgrwt>
<rscale>  0 0.10768458E+04</rscale>
<asrwt>0</asrwt>
<pdfrwt beam="1">  1        1 0.19960232E+00 0.11302903E+04</pdfrwt>
<pdfrwt beam="2">  1       -1 0.14468108E+00 0.11302903E+04</pdfrwt>
<totfact> 0.34518472E+00</totfact>
</mgrwt>
</event>
<event>
 4    1  0.1043382E-007  0.6996360E+03  0.7818608E-02  0.9998715E-01
          1   -1    0    0  501    0  0.00000000000E+00  0.00000000000E+00  0.12853090565E+04  0.12853090565E+04  0.50400000000E-02 0. -1.
         -1   -1    0    0    0  501 -0.00000000000E+00 -0.00000000000E+00 -0.18880604003E+03  0.18880604010E+03  0.50400000000E-02 0.  1.
    8880023    1    1    2    0    0  0.21226483754E+03 -0.10307242833E+03  0.71702090489E+03  0.10018031099E+04  0.65864270000E+03 0.  0.
    8880022    1    1    2    0    0 -0.21226483754E+03  0.10307242833E+03  0.37948211155E+03  0.47231198665E+03  0.15294330000E+03 0.  1.
<mgrwt>
<rscale>  0 0.55706631E+03</rscale>
<asrwt>0</asrwt>
<pdfrwt beam="1">  1        1 0.19773986E+00 0.69963597E+03</pdfrwt>
<pdfrwt beam="2">  1       -1 0.29047083E-01 0.69963597E+03</pdfrwt>
<totfact> 0.10258072E+02</totfact>
</mgrwt>
</event>
<event>
 4    1  0.1043382E-007  0.7613784E+03  0.7818608E-02  0.9801552E-01
         -1   -1    0    0    0  501 -0.00000000000E+00  0.00000000000E+00  0.53353408629E+03  0.53353408631E+03  0.50400000000E-02 0.  1.
          1   -1    0    0  501    0  0.00000000000E+00 -0.00000000000E+00 -0.14668330180E+04  0.14668330180E+04  0.50400000000E-02 0. -1.
    8880023    1    1    2    0    0 -0.36372043786E+03 -0.11659486914E+03  0.20624906561E+03  0.78881924657E+03  0.65864270000E+03 0.  1.
    8880022    1    1    2    0    0  0.36372043786E+03  0.11659486914E+03 -0.11395479973E+04  0.12115478578E+04  0.15294330000E+03 0.  0.
<mgrwt>
<rscale>  0 0.65279329E+03</rscale>
<asrwt>0</asrwt>
<pdfrwt beam="1">  1        1 0.22566662E+00 0.76137844E+03</pdfrwt>
<pdfrwt beam="2">  1       -1 0.82082168E-01 0.76137844E+03</pdfrwt>
<totfact> 0.10551503E+01</totfact>
</mgrwt>
</event>
<event>
 4    1  0.1043382E-007  0.6765181E+03  0.7818608E-02  0.1011366E+00
         -1   -1    0    0    0  501 -0.00000000000E+00  0.00000000000E+00  0.14088644385E+03  0.14088644394E+03  0.50400000000E-02 0.  1.
          1   -1    0    0  501    0  0.00000000000E+00 -0.00000000000E+00 -0.23818483728E+04  0.23818483728E+04  0.50400000000E-02 0. -1.
    8880023    1    1    2    0    0  0.57258692413E+02  0.14348496642E+03 -0.72635574531E+03  0.99260735865E+03  0.65864270000E+03 0.  1.
    8880022    1    1    2    0    0 -0.57258692413E+02 -0.14348496642E+03 -0.15146061837E+04  0.15301274581E+04  0.15294330000E+03 0.  1.
<mgrwt>
<rscale>  0 0.50935331E+03</rscale>
<asrwt>0</asrwt>
<pdfrwt beam="1">  1        1 0.36643818E+00 0.67651807E+03</pdfrwt>
<pdfrwt beam="2">  1       -1 0.21674839E-01 0.67651807E+03</pdfrwt>
<totfact> 0.30775490E+01</totfact>
</mgrwt>
</event>
<event>
 4    1  0.1043382E-007  0.7522309E+03  0.7818608E-02  0.9825653E-01
         -1   -1    0    0    0  501 -0.00000000000E+00  0.00000000000E+00  0.36294416974E+03  0.36294416977E+03  0.50400000000E-02 0.  1.
          1   -1    0    0  501    0  0.00000000000E+00 -0.00000000000E+00 -0.19043118483E+04  0.19043118483E+04  0.50400000000E-02 0. -1.
    8880023    1    1    2    0    0 -0.27539681770E+03 -0.23706054847E+03 -0.83301736152E+02  0.75682923856E+03  0.65864270000E+03 0.  1.
    8880022    1    1    2    0    0  0.27539681770E+03  0.23706054847E+03 -0.14580659424E+04  0.15104267795E+04  0.15294330000E+03 0.  0.
<mgrwt>
<rscale>  0 0.64003864E+03</rscale>
<asrwt>0</asrwt>
<pdfrwt beam="1">  1        1 0.29297105E+00 0.75223089E+03</pdfrwt>
<pdfrwt beam="2">  1       -1 0.55837565E-01 0.75223089E+03</pdfrwt>
<totfact> 0.11710746E+01</totfact>
</mgrwt>
</event>
<event>
 4    1  0.1043382E-007  0.7410082E+03  0.7818608E-02  0.9857020E-01
         -1   -1    0    0    0  501 -0.00000000000E+00  0.00000000000E+00  0.15527532575E+03  0.15527532583E+03  0.50400000000E-02 0.  1.
          1   -1    0    0  501    0  0.00000000000E+00 -0.00000000000E+00 -0.23860992159E+04  0.23860992159E+04  0.50400000000E-02 0. -1.
    8880023    1    1    2    0    0  0.13251530448E+03 -0.31260618253E+03 -0.93457866839E+03  0.11926987989E+04  0.65864270000E+03 0.  1.
    8880022    1    1    2    0    0 -0.13251530448E+03  0.31260618253E+03 -0.12962452217E+04  0.13486757428E+04  0.15294330000E+03 0.  0.
<mgrwt>
<rscale>  0 0.62390270E+03</rscale>
<asrwt>0</asrwt>
<pdfrwt beam="1">  1        1 0.36709216E+00 0.74100819E+03</pdfrwt>
<pdfrwt beam="2">  1       -1 0.23888513E-01 0.74100819E+03</pdfrwt>
<totfact> 0.25706529E+01</totfact>
</mgrwt>
</event>
<event>
 4    1  0.1049680E-007  0.8351506E+03  0.7818608E-02  0.9639393E-01
         -1   -1    0    0    0  501 -0.00000000000E+00  0.00000000000E+00  0.23748790803E+04  0.23748790803E+04  0.50400000000E-02 0.  1.
          1   -1    0    0  501    0  0.00000000000E+00 -0.00000000000E+00 -0.11667459790E+04  0.11667459790E+04  0.50400000000E-02 0. -1.
    8880023    1    1    2    0    0 -0.47955042980E+03  0.18356928034E+03  0.22336010495E+04  0.23846278850E+04  0.65864270000E+03 0.  0.
    8880022    1    1    2    0    0  0.47955042980E+03 -0.18356928034E+03 -0.10254679482E+04  0.11569971743E+04  0.15294330000E+03 0.  0.
<mgrwt>
<rscale>  0 0.74742873E+03</rscale>
<asrwt>0</asrwt>
<pdfrwt beam="1">  1        1 0.17949938E+00 0.83515059E+03</pdfrwt>
<pdfrwt beam="2">  1       -1 0.36536601E+00 0.83515059E+03</pdfrwt>
<totfact> 0.14681225E-01</totfact>
</mgrwt>
</event>
<event>
 4    1  0.1043382E-007  0.7405176E+03  0.7818608E-02  0.9858442E-01
         -1   -1    0    0    0  501 -0.00000000000E+00  0.00000000000E+00  0.64528685006E+03  0.64528685008E+03  0.50400000000E-02 0.  1.
          1   -1    0    0  501    0  0.00000000000E+00 -0.00000000000E+00 -0.81109225077E+03  0.81109225078E+03  0.50400000000E-02 0. -1.
    8880023    1    1    2    0    0  0.31458707757E+02 -0.33699628906E+03  0.35137309348E+03  0.81965200312E+03  0.65864270000E+03 0.  1.
    8880022    1    1    2    0    0 -0.31458707757E+02  0.33699628906E+03 -0.51717849419E+03  0.63672709774E+03  0.15294330000E+03 0.  1.
<mgrwt>
<rscale>  0 0.62318343E+03</rscale>
<asrwt>0</asrwt>
<pdfrwt beam="1">  1        1 0.12478342E+00 0.74051763E+03</pdfrwt>
<pdfrwt beam="2">  1       -1 0.99274900E-01 0.74051763E+03</pdfrwt>
<totfact> 0.21549986E+01</totfact>
</mgrwt>
</event>
<event>
 4    1  0.1043382E-007  0.7483706E+03  0.7818608E-02  0.9836202E-01
          1   -1    0    0  501    0  0.00000000000E+00  0.00000000000E+00  0.23384395830E+04  0.23384395830E+04  0.50400000000E-02 0. -1.
         -1   -1    0    0    0  501 -0.00000000000E+00 -0.00000000000E+00 -0.13782379357E+03  0.13782379366E+03  0.50400000000E-02 0.  1.
    8880023    1    1    2    0    0  0.34567000798E+03 -0.82222797907E+02  0.14278920291E+04  0.16121210240E+04  0.65864270000E+03 0. -1.
    8880022    1    1    2    0    0 -0.34567000798E+03  0.82222797907E+02  0.77272376032E+03  0.86414235267E+03  0.15294330000E+03 0.  1.
<mgrwt>
<rscale>  0 0.63455387E+03</rscale>
<asrwt>0</asrwt>
<pdfrwt beam="1">  1        1 0.35975990E+00 0.74837060E+03</pdfrwt>
<pdfrwt beam="2">  1       -1 0.21203663E-01 0.74837060E+03</pdfrwt>
<totfact> 0.33818541E+01</totfact>
</mgrwt>
</event>
<event>
 4    1  0.1043382E-007  0.6917915E+03  0.7818608E-02  0.1003312E+00
          1   -1    0    0  501    0  0.00000000000E+00  0.00000000000E+00  0.48462850572E+03  0.48462850575E+03  0.50400000000E-02 0. -1.
         -1   -1    0    0    0  501 -0.00000000000E+00 -0.00000000000E+00 -0.68274172716E+03  0.68274172718E+03  0.50400000000E-02 0.  1.
    8880023    1    1    2    0    0 -0.13580029977E+03  0.16224554052E+03 -0.43305041535E+03  0.81615452295E+03  0.65864270000E+03 0.  0.
    8880022    1    1    2    0    0  0.13580029977E+03 -0.16224554052E+03  0.23493719391E+03  0.35121570998E+03  0.15294330000E+03 0.  0.
<mgrwt>
<rscale>  0 0.54221339E+03</rscale>
<asrwt>0</asrwt>
<pdfrwt beam="1">  1        1 0.74558231E-01 0.69179155E+03</pdfrwt>
<pdfrwt beam="2">  1       -1 0.10503719E+00 0.69179155E+03</pdfrwt>
<totfact> 0.40459360E+01</totfact>
</mgrwt>
</event>
<event>
 4    1  0.1043382E-007  0.9444528E+03  0.7818608E-02  0.9458141E-01
          1   -1    0    0  501    0  0.00000000000E+00  0.00000000000E+00  0.76739790622E+03  0.76739790623E+03  0.50400000000E-02 0. -1.
         -1   -1    0    0    0  501 -0.00000000000E+00 -0.00000000000E+00 -0.14018988018E+04  0.14018988018E+04  0.50400000000E-02 0.  1.
    8880023    1    1    2    0    0  0.60156856020E+03  0.31031623873E+03 -0.10079089907E+04  0.13812572680E+04  0.65864270000E+03 0.  1.
    8880022    1    1    2    0    0 -0.60156856020E+03 -0.31031623873E+03  0.37340809507E+03  0.78803944007E+03  0.15294330000E+03 0. -1.
<mgrwt>
<rscale>  0 0.87441563E+03</rscale>
<asrwt>0</asrwt>
<pdfrwt beam="1">  1        1 0.11806122E+00 0.94445281E+03</pdfrwt>
<pdfrwt beam="2">  1       -1 0.21567674E+00 0.94445281E+03</pdfrwt>
<totfact> 0.28135546E+00</totfact>
</mgrwt>
</event>
<event>
 4    1  0.1043382E-007  0.8217746E+03  0.7818608E-02  0.9665553E-01
          1   -1    0    0  501    0  0.00000000000E+00  0.00000000000E+00  0.15290722101E+04  0.15290722101E+04  0.50400000000E-02 0. -1.
         -1   -1    0    0    0  501 -0.00000000000E+00 -0.00000000000E+00 -0.10899024403E+04  0.10899024403E+04  0.50400000000E-02 0.  1.
    8880023    1    1    2    0    0  0.32159919850E+03  0.37158753294E+03 -0.87934864470E+03  0.12035645327E+04  0.65864270000E+03 0.  1.
    8880022    1    1    2    0    0 -0.32159919850E+03 -0.37158753294E+03  0.13185184144E+04  0.14154101177E+04  0.15294330000E+03 0.  0.
<mgrwt>
<rscale>  0 0.73105284E+03</rscale>
<asrwt>0</asrwt>
<pdfrwt beam="1">  1        1 0.23524188E+00 0.82177463E+03</pdfrwt>
<pdfrwt beam="2">  1       -1 0.16767730E+00 0.82177463E+03</pdfrwt>
<totfact> 0.16546129E+00</totfact>
</mgrwt>
</event>
<event>
 4    1  0.1043382E-007  0.7527295E+03  0.7818608E-02  0.9824307E-01
         -1   -1    0    0    0  501 -0.00000000000E+00  0.00000000000E+00  0.29242503862E+03  0.29242503866E+03  0.50400000000E-02 0.  1.
          1   -1    0    0  501    0  0.00000000000E+00 -0.00000000000E+00 -0.18552357628E+04  0.18552357628E+04  0.50400000000E-02 0. -1.
    8880023    1    1    2    0    0 -0.34842101169E+03 -0.10674404248E+03 -0.27633199707E+03  0.80184853361E+03  0.65864270000E+03 0.  0.
    8880022    1    1    2    0    0  0.34842101169E+03  0.10674404248E+03 -0.12864787271E+04  0.13458122678E+04  0.15294330000E+03 0.  0.
<mgrwt>
<rscale>  0 0.64074241E+03</rscale>
<asrwt>0</asrwt>
<pdfrwt beam="1">  1        1 0.28542088E+00 0.75272950E+03</pdfrwt>
<pdfrwt beam="2">  1       -1 0.44988469E-01 0.75272950E+03</pdfrwt>
<totfact> 0.19022677E+01</totfact>
</mgrwt>
</event>
<event>
 4    1  0.1043382E-007  0.8146838E+03  0.7818608E-02  0.9679902E-01
         -1   -1    0    0    0  501 -0.00000000000E+00  0.00000000000E+00  0.36604164526E+03  0.36604164530E+03  0.50400000000E-02 0.  1.
          1   -1    0    0  501    0  0.00000000000E+00 -0.00000000000E+00 -0.32426253074E+04  0.32426253074E+04  0.50400000000E-02 0. -1.
    8880023    1    1    2    0    0 -0.47107631164E+03  0.89367365622E+02 -0.14053576838E+03  0.82671635153E+03  0.65864270000E+03 0.  0.
    8880022    1    1    2    0    0  0.47107631164E+03 -0.89367365622E+02 -0.27360478937E+04  0.27819506012E+04  0.15294330000E+03 0.  0.
<mgrwt>
<rscale>  0 0.72226119E+03</rscale>
<asrwt>0</asrwt>
<pdfrwt beam="1">  1        1 0.49886541E+00 0.81468376E+03</pdfrwt>
<pdfrwt beam="2">  1       -1 0.56314101E-01 0.81468376E+03</pdfrwt>
<totfact> 0.13457218E+00</totfact>
</mgrwt>
</event>
<event>
 4    1  0.1043382E-007  0.7266104E+03  0.7818608E-02  0.9900822E-01
          1   -1    0    0  501    0  0.00000000000E+00  0.00000000000E+00  0.27761295738E+03  0.27761295742E+03  0.50400000000E-02 0. -1.
         -1   -1    0    0    0  501 -0.00000000000E+00 -0.00000000000E+00 -0.12817064711E+04  0.12817064711E+04  0.50400000000E-02 0.  1.
    8880023    1    1    2    0    0 -0.28969946062E+03  0.10112683708E+03 -0.97397762463E+03  0.12151522679E+04  0.65864270000E+03 0.  0.
    8880022    1    1    2    0    0  0.28969946062E+03 -0.10112683708E+03 -0.30115889094E+02  0.34416716063E+03  0.15294330000E+03 0.  1.
<mgrwt>
<rscale>  0 0.60221460E+03</rscale>
<asrwt>0</asrwt>
<pdfrwt beam="1">  1        1 0.42709686E-01 0.72661036E+03</pdfrwt>
<pdfrwt beam="2">  1       -1 0.19718561E+00 0.72661036E+03</pdfrwt>
<totfact> 0.15739151E+01</totfact>
</mgrwt>
</event>
<event>
 4    1  0.1043382E-007  0.7961916E+03  0.7818608E-02  0.9719092E-01
         -1   -1    0    0    0  501 -0.00000000000E+00  0.00000000000E+00  0.69523525909E+03  0.69523525911E+03  0.50400000000E-02 0.  1.
          1   -1    0    0  501    0  0.00000000000E+00 -0.00000000000E+00 -0.16352555267E+04  0.16352555268E+04  0.50400000000E-02 0. -1.
    8880023    1    1    2    0    0  0.16027826363E+03  0.41763821277E+03  0.41322840428E+03  0.89703886143E+03  0.65864270000E+03 0.  1.
    8880022    1    1    2    0    0 -0.16027826363E+03 -0.41763821277E+03 -0.13532486719E+04  0.14334519244E+04  0.15294330000E+03 0.  0.
<mgrwt>
<rscale>  0 0.69891356E+03</rscale>
<asrwt>0</asrwt>
<pdfrwt beam="1">  1        1 0.25157777E+00 0.79619156E+03</pdfrwt>
<pdfrwt beam="2">  1       -1 0.10695927E+00 0.79619156E+03</pdfrwt>
<totfact> 0.44600453E+00</totfact>
</mgrwt>
</event>
<event>
 4    1  0.1043382E-007  0.7352620E+03  0.7818608E-02  0.9873970E-01
          1   -1    0    0  501    0  0.00000000000E+00  0.00000000000E+00  0.83435502436E+03  0.83435502438E+03  0.50400000000E-02 0. -1.
         -1   -1    0    0    0  501 -0.00000000000E+00 -0.00000000000E+00 -0.44799937944E+03  0.44799937947E+03  0.50400000000E-02 0.  1.
    8880023    1    1    2    0    0 -0.19876504432E+03 -0.25940788279E+03 -0.24348176429E+02  0.73566502734E+03  0.65864270000E+03 0. -1.
    8880022    1    1    2    0    0  0.19876504432E+03  0.25940788279E+03  0.41070382135E+03  0.54668937650E+03  0.15294330000E+03 0.  0.
<mgrwt>
<rscale>  0 0.61539573E+03</rscale>
<asrwt>0</asrwt>
<pdfrwt beam="1">  1        1 0.12836231E+00 0.73526199E+03</pdfrwt>
<pdfrwt beam="2">  1       -1 0.68922982E-01 0.73526199E+03</pdfrwt>
<totfact> 0.45088176E+01</totfact>
</mgrwt>
</event>
<event>
 4    1  0.1043382E-007  0.8267854E+03  0.7818608E-02  0.9655620E-01
         -1   -1    0    0    0  501 -0.00000000000E+00  0.00000000000E+00  0.24999547921E+03  0.24999547926E+03  0.50400000000E-02 0.  1.
          1   -1    0    0  501    0  0.00000000000E+00 -0.00000000000E+00 -0.24584033689E+04  0.24584033689E+04  0.50400000000E-02 0. -1.
    8880023    1    1    2    0    0 -0.18319335593E+03  0.46497751806E+03 -0.61209470581E+03  0.10287050273E+04  0.65864270000E+03 0.  1.
    8880022    1    1    2    0    0  0.18319335593E+03 -0.46497751806E+03 -0.15963131839E+04  0.16796938209E+04  0.15294330000E+03 0.  0.
<mgrwt>
<rscale>  0 0.73721787E+03</rscale>
<asrwt>0</asrwt>
<pdfrwt beam="1">  1        1 0.37821589E+00 0.82678540E+03</pdfrwt>
<pdfrwt beam="2">  1       -1 0.38460845E-01 0.82678540E+03</pdfrwt>
<totfact> 0.98567484E+00</totfact>
</mgrwt>
</event>
<event>
 4    1  0.1043382E-007  0.1245396E+04  0.7818608E-02  0.9114209E-01
         -1   -1    0    0    0  501 -0.00000000000E+00  0.00000000000E+00  0.62034092351E+03  0.62034092353E+03  0.50400000000E-02 0.  1.
          1   -1    0    0  501    0  0.00000000000E+00 -0.00000000000E+00 -0.25362350989E+04  0.25362350989E+04  0.50400000000E-02 0. -1.
    8880023    1    1    2    0    0 -0.92830052142E+03 -0.50542984034E+03 -0.41146066444E+03  0.13116063686E+04  0.65864270000E+03 0.  0.
    8880022    1    1    2    0    0  0.92830052142E+03  0.50542984034E+03 -0.15044335110E+04  0.18449696538E+04  0.15294330000E+03 0.  0.
<mgrwt>
<rscale>  0 0.11984556E+04</rscale>
<asrwt>0</asrwt>
<pdfrwt beam="1">  1        1 0.39019001E+00 0.12453961E+04</pdfrwt>
<pdfrwt beam="2">  1       -1 0.95437066E-01 0.12453961E+04</pdfrwt>
<totfact> 0.13348199E+00</totfact>
</mgrwt>
</event>
<event>
 4    1  0.1043382E-007  0.6929094E+03  0.7818608E-02  0.1002799E+00
         -1   -1    0    0    0  501 -0.00000000000E+00  0.00000000000E+00  0.18244025565E+03  0.18244025572E+03  0.50400000000E-02 0.  1.
          1   -1    0    0  501    0  0.00000000000E+00 -0.00000000000E+00 -0.14738937533E+04  0.14738937533E+04  0.50400000000E-02 0. -1.
    8880023    1    1    2    0    0  0.81326135369E+02 -0.19924679769E+03 -0.60140565280E+03  0.91750323823E+03  0.65864270000E+03 0.  0.
    8880022    1    1    2    0    0 -0.81326135369E+02  0.19924679769E+03 -0.69004784480E+03  0.73883077075E+03  0.15294330000E+03 0.  1.
<mgrwt>
<rscale>  0 0.54439639E+03</rscale>
<asrwt>0</asrwt>
<pdfrwt beam="1">  1        1 0.22675288E+00 0.69290940E+03</pdfrwt>
<pdfrwt beam="2">  1       -1 0.28067733E-01 0.69290940E+03</pdfrwt>
<totfact> 0.80525734E+01</totfact>
</mgrwt>
</event>
<event>
 4    1  0.1043382E-007  0.7014447E+03  0.7818608E-02  0.9991260E-01
          1   -1    0    0  501    0  0.00000000000E+00  0.00000000000E+00  0.15972299721E+04  0.15972299721E+04  0.50400000000E-02 0. -1.
         -1   -1    0    0    0  501 -0.00000000000E+00 -0.00000000000E+00 -0.80396945372E+03  0.80396945373E+03  0.50400000000E-02 0.  1.
    8880023    1    1    2    0    0 -0.22420560288E+03 -0.89142266581E+02 -0.63407613947E+03  0.94555658369E+03  0.65864270000E+03 0.  0.
    8880022    1    1    2    0    0  0.22420560288E+03  0.89142266581E+02  0.14273366579E+04  0.14556428422E+04  0.15294330000E+03 0. -1.
<mgrwt>
<rscale>  0 0.56035139E+03</rscale>
<asrwt>0</asrwt>
<pdfrwt beam="1">  1        1 0.24572769E+00 0.70144473E+03</pdfrwt>
<pdfrwt beam="2">  1       -1 0.12368761E+00 0.70144473E+03</pdfrwt>
<totfact> 0.33963059E+00</totfact>
</mgrwt>
</event>
<event>
 4    1  0.1043382E-007  0.7013068E+03  0.7818608E-02  0.9991823E-01
         -1   -1    0    0    0  501 -0.00000000000E+00  0.00000000000E+00  0.60568249002E+03  0.60568249004E+03  0.50400000000E-02 0.  1.
          1   -1    0    0  501    0  0.00000000000E+00 -0.00000000000E+00 -0.42016419681E+03  0.42016419684E+03  0.50400000000E-02 0. -1.
    8880023    1    1    2    0    0  0.15749323532E+03  0.18225486525E+03  0.32460175249E+02  0.70205756482E+03  0.65864270000E+03 0.  1.
    8880022    1    1    2    0    0 -0.15749323532E+03 -0.18225486525E+03  0.15305811796E+03  0.32378912206E+03  0.15294330000E+03 0. -1.
<mgrwt>
<rscale>  0 0.56010245E+03</rscale>
<asrwt>0</asrwt>
<pdfrwt beam="1">  1        1 0.64640646E-01 0.70130675E+03</pdfrwt>
<pdfrwt beam="2">  1       -1 0.93181921E-01 0.70130675E+03</pdfrwt>
<totfact> 0.64291515E+01</totfact>
</mgrwt>
</event>
<event>
 4    1  0.1043382E-007  0.1183763E+04  0.7818608E-02  0.9173069E-01
         -1   -1    0    0    0  501 -0.00000000000E+00  0.00000000000E+00  0.82014017826E+03  0.82014017828E+03  0.50400000000E-02 0.  1.
          1   -1    0    0  501    0  0.00000000000E+00 -0.00000000000E+00 -0.36269349549E+04  0.36269349549E+04  0.50400000000E-02 0. -1.
    8880023    1    1    2    0    0 -0.92334595025E+03 -0.33899506601E+03 -0.31728428057E+04  0.33864770891E+04  0.65864270000E+03 0.  0.
    8880022    1    1    2    0    0  0.92334595025E+03  0.33899506601E+03  0.36604802907E+03  0.10605980441E+04  0.15294330000E+03 0.  0.
<mgrwt>
<rscale>  0 0.11335773E+04</rscale>
<asrwt>0</asrwt>
<pdfrwt beam="1">  1        1 0.55798998E+00 0.11837633E+04</pdfrwt>
<pdfrwt beam="2">  1       -1 0.12617541E+00 0.11837633E+04</pdfrwt>
<totfact> 0.10898921E-01</totfact>
</mgrwt>
</event>
<event>
 4    1  0.1043382E-007  0.1029176E+04  0.7818608E-02  0.9344344E-01
          1   -1    0    0  501    0  0.00000000000E+00  0.00000000000E+00  0.97014042291E+03  0.97014042292E+03  0.50400000000E-02 0. -1.
         -1   -1    0    0    0  501 -0.00000000000E+00 -0.00000000000E+00 -0.87032643258E+03  0.87032643259E+03  0.50400000000E-02 0.  1.
    8880023    1    1    2    0    0  0.59324837466E+03 -0.52292419312E+03  0.10908917026E+03  0.10349415438E+04  0.65864270000E+03 0.  0.
    8880022    1    1    2    0    0 -0.59324837466E+03  0.52292419312E+03 -0.92751799321E+01  0.80552531169E+03  0.15294330000E+03 0. -1.
<mgrwt>
<rscale>  0 0.96801009E+03</rscale>
<asrwt>0</asrwt>
<pdfrwt beam="1">  1        1 0.14925237E+00 0.10291762E+04</pdfrwt>
<pdfrwt beam="2">  1       -1 0.13389637E+00 0.10291762E+04</pdfrwt>
<totfact> 0.75094926E+00</totfact>
</mgrwt>
</event>
<event>
 4    1  0.1043382E-007  0.6735750E+03  0.7818608E-02  0.1013220E+00
          1   -1    0    0  501    0  0.00000000000E+00  0.00000000000E+00  0.24974063167E+04  0.24974063167E+04  0.50400000000E-02 0. -1.
         -1   -1    0    0    0  501 -0.00000000000E+00 -0.00000000000E+00 -0.16206789980E+03  0.16206789987E+03  0.50400000000E-02 0.  1.
    8880023    1    1    2    0    0  0.92338942889E+02 -0.10661436363E+03  0.57134570002E+03  0.88325489985E+03  0.65864270000E+03 0.  1.
    8880022    1    1    2    0    0 -0.92338942889E+02  0.10661436363E+03  0.17639927169E+04  0.17762193168E+04  0.15294330000E+03 0.  0.
<mgrwt>
<rscale>  0 0.50214755E+03</rscale>
<asrwt>0</asrwt>
<pdfrwt beam="1">  1        1 0.38421631E+00 0.67357502E+03</pdfrwt>
<pdfrwt beam="2">  1       -1 0.24933526E-01 0.67357502E+03</pdfrwt>
<totfact> 0.20292078E+01</totfact>
</mgrwt>
</event>
<event>
 4    1  0.1043382E-007  0.9455175E+03  0.7818608E-02  0.9456593E-01
         -1   -1    0    0    0  501 -0.00000000000E+00  0.00000000000E+00  0.15301724120E+04  0.15301724120E+04  0.50400000000E-02 0.  1.
          1   -1    0    0  501    0  0.00000000000E+00 -0.00000000000E+00 -0.75324488591E+03  0.75324488592E+03  0.50400000000E-02 0. -1.
    8880023    1    1    2    0    0  0.30939535218E+03  0.60371150517E+03 -0.30829188460E+03  0.99450850062E+03  0.65864270000E+03 0. -1.
    8880022    1    1    2    0    0 -0.30939535218E+03 -0.60371150517E+03  0.10852194107E+04  0.12889087973E+04  0.15294330000E+03 0.  0.
<mgrwt>
<rscale>  0 0.87561106E+03</rscale>
<asrwt>0</asrwt>
<pdfrwt beam="1">  1        1 0.11588383E+00 0.94551746E+03</pdfrwt>
<pdfrwt beam="2">  1       -1 0.23541114E+00 0.94551746E+03</pdfrwt>
<totfact> 0.21437589E+00</totfact>
</mgrwt>
</event>
<event>
 4    1  0.1043382E-007  0.7361861E+03  0.7818608E-02  0.9871199E-01
         -1   -1    0    0    0  501 -0.00000000000E+00  0.00000000000E+00  0.21494018998E+04  0.21494018998E+04  0.50400000000E-02 0.  1.
          1   -1    0    0  501    0  0.00000000000E+00 -0.00000000000E+00 -0.85666596092E+03  0.85666596093E+03  0.50400000000E-02 0. -1.
    8880023    1    1    2    0    0 -0.50152775369E+02  0.32502996066E+03  0.20436186175E+04  0.21721756458E+04  0.65864270000E+03 0.  1.
    8880022    1    1    2    0    0  0.50152775369E+02 -0.32502996066E+03 -0.75088267857E+03  0.83389221497E+03  0.15294330000E+03 0.  0.
<mgrwt>
<rscale>  0 0.61677627E+03</rscale>
<asrwt>0</asrwt>
<pdfrwt beam="1">  1        1 0.13179476E+00 0.73618611E+03</pdfrwt>
<pdfrwt beam="2">  1       -1 0.33067721E+00 0.73618611E+03</pdfrwt>
<totfact> 0.44067318E-01</totfact>
</mgrwt>
</event>
<event>
 4    1  0.1043382E-007  0.6772931E+03  0.7818608E-02  0.1010898E+00
         -1   -1    0    0    0  501 -0.00000000000E+00  0.00000000000E+00  0.14292288146E+03  0.14292288154E+03  0.50400000000E-02 0.  1.
          1   -1    0    0  501    0  0.00000000000E+00 -0.00000000000E+00 -0.18745235225E+04  0.18745235225E+04  0.50400000000E-02 0. -1.
    8880023    1    1    2    0    0  0.15771630461E+03 -0.64234507098E+01 -0.74581159395E+03  0.10074526457E+04  0.65864270000E+03 0.  1.
    8880022    1    1    2    0    0 -0.15771630461E+03  0.64234507098E+01 -0.98578904708E+03  0.10099937583E+04  0.15294330000E+03 0.  0.
<mgrwt>
<rscale>  0 0.51119208E+03</rscale>
<asrwt>0</asrwt>
<pdfrwt beam="1">  1        1 0.28838822E+00 0.67729307E+03</pdfrwt>
<pdfrwt beam="2">  1       -1 0.21988137E-01 0.67729307E+03</pdfrwt>
<totfact> 0.65644354E+01</totfact>
</mgrwt>
</event>
<event>
 4    1  0.1043382E-007  0.8839534E+03  0.7818608E-02  0.9552299E-01
          1   -1    0    0  501    0  0.00000000000E+00  0.00000000000E+00  0.11702602397E+04  0.11702602397E+04  0.50400000000E-02 0. -1.
         -1   -1    0    0    0  501 -0.00000000000E+00 -0.00000000000E+00 -0.13735452919E+04  0.13735452919E+04  0.50400000000E-02 0.  1.
    8880023    1    1    2    0    0 -0.23807734873E+03  0.53933527969E+03  0.91385802914E+03  0.12714204936E+04  0.65864270000E+03 0. -1.
    8880022    1    1    2    0    0  0.23807734873E+03 -0.53933527969E+03 -0.11171430813E+04  0.12723850380E+04  0.15294330000E+03 0.  0.
<mgrwt>
<rscale>  0 0.80535466E+03</rscale>
<asrwt>0</asrwt>
<pdfrwt beam="1">  1        1 0.18004004E+00 0.88395338E+03</pdfrwt>
<pdfrwt beam="2">  1       -1 0.21131466E+00 0.88395338E+03</pdfrwt>
<totfact> 0.14482476E+00</totfact>
</mgrwt>
</event>
<event>
 4    1  0.1043382E-007  0.6933515E+03  0.7818608E-02  0.1002599E+00
          1   -1    0    0  501    0  0.00000000000E+00  0.00000000000E+00  0.27344217510E+04  0.27344217510E+04  0.50400000000E-02 0. -1.
         -1   -1    0    0    0  501 -0.00000000000E+00 -0.00000000000E+00 -0.42795900183E+03  0.42795900186E+03  0.50400000000E-02 0.  1.
    8880023    1    1    2    0    0  0.19531620104E+03 -0.93688942527E+02 -0.13515826941E+03  0.70640215203E+03  0.65864270000E+03 0.  1.
    8880022    1    1    2    0    0 -0.19531620104E+03  0.93688942527E+02  0.24416210186E+04  0.24559786008E+04  0.15294330000E+03 0.  0.
<mgrwt>
<rscale>  0 0.54525311E+03</rscale>
<asrwt>0</asrwt>
<pdfrwt beam="1">  1        1 0.42068024E+00 0.69335146E+03</pdfrwt>
<pdfrwt beam="2">  1       -1 0.65839850E-01 0.69335146E+03</pdfrwt>
<totfact> 0.23450318E+00</totfact>
</mgrwt>
</event>
<event>
 4    1  0.1043382E-007  0.8451622E+03  0.7818608E-02  0.9620522E-01
         -1   -1    0    0    0  501 -0.00000000000E+00  0.00000000000E+00  0.11242839014E+04  0.11242839014E+04  0.50400000000E-02 0.  1.
          1   -1    0    0  501    0  0.00000000000E+00 -0.00000000000E+00 -0.68192078249E+03  0.68192078251E+03  0.50400000000E-02 0. -1.
    8880023    1    1    2    0    0 -0.52821643168E+03  0.38423400489E+02  0.78802261010E+03  0.11555426417E+04  0.65864270000E+03 0.  0.
    8880022    1    1    2    0    0  0.52821643168E+03 -0.38423400489E+02 -0.34565949117E+03  0.65066204227E+03  0.15294330000E+03 0.  0.
<mgrwt>
<rscale>  0 0.75952649E+03</rscale>
<asrwt>0</asrwt>
<pdfrwt beam="1">  1        1 0.10491089E+00 0.84516221E+03</pdfrwt>
<pdfrwt beam="2">  1       -1 0.17296675E+00 0.84516221E+03</pdfrwt>
<totfact> 0.67708386E+00</totfact>
</mgrwt>
</event>
<event>
 4    1  0.1043382E-007  0.1304699E+04  0.7818608E-02  0.9061512E-01
          1   -1    0    0  501    0  0.00000000000E+00  0.00000000000E+00  0.11846144741E+04  0.11846144741E+04  0.50400000000E-02 0. -1.
         -1   -1    0    0    0  501 -0.00000000000E+00 -0.00000000000E+00 -0.14848461000E+04  0.14848461000E+04  0.50400000000E-02 0.  1.
    8880023    1    1    2    0    0 -0.48869165977E+03 -0.10146973864E+04  0.36204654557E+03  0.13540008241E+04  0.65864270000E+03 0. -1.
    8880022    1    1    2    0    0  0.48869165977E+03  0.10146973864E+04 -0.66227817141E+03  0.13154597499E+04  0.15294330000E+03 0.  0.
<mgrwt>
<rscale>  0 0.12604719E+04</rscale>
<asrwt>0</asrwt>
<pdfrwt beam="1">  1        1 0.18224838E+00 0.13046994E+04</pdfrwt>
<pdfrwt beam="2">  1       -1 0.22843786E+00 0.13046994E+04</pdfrwt>
<totfact> 0.10271507E+00</totfact>
</mgrwt>
</event>
<event>
 4    1  0.1043382E-007  0.9976514E+03  0.7818608E-02  0.9384637E-01
          1   -1    0    0  501    0  0.00000000000E+00  0.00000000000E+00  0.14500176254E+04  0.14500176254E+04  0.50400000000E-02 0. -1.
         -1   -1    0    0    0  501 -0.00000000000E+00 -0.00000000000E+00 -0.14515017923E+04  0.14515017923E+04  0.50400000000E-02 0.  1.
    8880023    1    1    2    0    0 -0.73597044903E+03 -0.14087458942E+03 -0.11495195015E+04  0.15220720884E+04  0.65864270000E+03 0.  1.
    8880022    1    1    2    0    0  0.73597044903E+03  0.14087458942E+03  0.11480353346E+04  0.13794473293E+04  0.15294330000E+03 0.  0.
<mgrwt>
<rscale>  0 0.93350871E+03</rscale>
<asrwt>0</asrwt>
<pdfrwt beam="1">  1        1 0.22307963E+00 0.99765142E+03</pdfrwt>
<pdfrwt beam="2">  1       -1 0.22330797E+00 0.99765142E+03</pdfrwt>
<totfact> 0.74768968E-01</totfact>
</mgrwt>
</event>
<event>
 4    1  0.1043382E-007  0.7666699E+03  0.7818608E-02  0.9788136E-01
          1   -1    0    0  501    0  0.00000000000E+00  0.00000000000E+00  0.11090240792E+04  0.11090240792E+04  0.50400000000E-02 0. -1.
         -1   -1    0    0    0  501 -0.00000000000E+00 -0.00000000000E+00 -0.13365437640E+04  0.13365437641E+04  0.50400000000E-02 0.  1.
    8880023    1    1    2    0    0 -0.38034219480E+03 -0.96500392170E+02 -0.11782571387E+04  0.14057284951E+04  0.65864270000E+03 0.  1.
    8880022    1    1    2    0    0  0.38034219480E+03  0.96500392170E+02  0.95073745382E+03  0.10398393481E+04  0.15294330000E+03 0.  0.
<mgrwt>
<rscale>  0 0.66003131E+03</rscale>
<asrwt>0</asrwt>
<pdfrwt beam="1">  1        1 0.17061909E+00 0.76666989E+03</pdfrwt>
<pdfrwt beam="2">  1       -1 0.20562212E+00 0.76666989E+03</pdfrwt>
<totfact> 0.17914977E+00</totfact>
</mgrwt>
</event>
<event>
 4    1  0.1043382E-007  0.6767835E+03  0.7818608E-02  0.1011205E+00
         -1   -1    0    0    0  501 -0.00000000000E+00  0.00000000000E+00  0.37740639293E+03  0.37740639296E+03  0.50400000000E-02 0.  1.
          1   -1    0    0  501    0  0.00000000000E+00 -0.00000000000E+00 -0.98082455888E+03  0.98082455889E+03  0.50400000000E-02 0. -1.
    8880023    1    1    2    0    0  0.13269327584E+03  0.81352020492E+02  0.40846144284E+02  0.67801494855E+03  0.65864270000E+03 0.  1.
    8880022    1    1    2    0    0 -0.13269327584E+03 -0.81352020492E+02 -0.64426431024E+03  0.68021600331E+03  0.15294330000E+03 0.  0.
<mgrwt>
<rscale>  0 0.50998560E+03</rscale>
<asrwt>0</asrwt>
<pdfrwt beam="1">  1        1 0.15089609E+00 0.67678347E+03</pdfrwt>
<pdfrwt beam="2">  1       -1 0.58062522E-01 0.67678347E+03</pdfrwt>
<totfact> 0.48583243E+01</totfact>
</mgrwt>
</event>
<event>
 4    1  0.1043382E-007  0.9971027E+03  0.7818608E-02  0.9385358E-01
         -1   -1    0    0    0  501 -0.00000000000E+00  0.00000000000E+00  0.25384629254E+04  0.25384629254E+04  0.50400000000E-02 0.  1.
          1   -1    0    0  501    0  0.00000000000E+00 -0.00000000000E+00 -0.52165069081E+03  0.52165069083E+03  0.50400000000E-02 0. -1.
    8880023    1    1    2    0    0 -0.64073143783E+03 -0.38712622576E+03  0.20664537766E+04  0.22944378194E+04  0.65864270000E+03 0.  1.
    8880022    1    1    2    0    0  0.64073143783E+03  0.38712622576E+03 -0.49641542021E+02  0.76567579680E+03  0.15294330000E+03 0.  0.
<mgrwt>
<rscale>  0 0.93290509E+03</rscale>
<asrwt>0</asrwt>
<pdfrwt beam="1">  1        1 0.80253953E-01 0.99710265E+03</pdfrwt>
<pdfrwt beam="2">  1       -1 0.39053276E+00 0.99710265E+03</pdfrwt>
<totfact> 0.35575084E-01</totfact>
</mgrwt>
</event>
<event>
 4    1  0.1043382E-007  0.9683301E+03  0.7818608E-02  0.9424218E-01
         -1   -1    0    0    0  501 -0.00000000000E+00  0.00000000000E+00  0.41972252670E+03  0.41972252673E+03  0.50400000000E-02 0.  1.
          1   -1    0    0  501    0  0.00000000000E+00 -0.00000000000E+00 -0.36508590861E+04  0.36508590861E+04  0.50400000000E-02 0. -1.
    8880023    1    1    2    0    0 -0.25170341607E+03 -0.66370043737E+03 -0.24694715713E+03  0.99932276313E+03  0.65864270000E+03 0.  0.
    8880022    1    1    2    0    0  0.25170341607E+03  0.66370043737E+03 -0.29841894023E+04  0.30712588497E+04  0.15294330000E+03 0.  0.
<mgrwt>
<rscale>  0 0.90109186E+03</rscale>
<asrwt>0</asrwt>
<pdfrwt beam="1">  1        1 0.56167061E+00 0.96833005E+03</pdfrwt>
<pdfrwt beam="2">  1       -1 0.64572699E-01 0.96833005E+03</pdfrwt>
<totfact> 0.48323804E-01</totfact>
</mgrwt>
</event>
<event>
 4    1  0.1043382E-007  0.7208705E+03  0.7818608E-02  0.9919652E-01
          1   -1    0    0  501    0  0.00000000000E+00  0.00000000000E+00  0.10303915297E+04  0.10303915297E+04  0.50400000000E-02 0. -1.
         -1   -1    0    0    0  501 -0.00000000000E+00 -0.00000000000E+00 -0.39200525270E+03  0.39200525273E+03  0.50400000000E-02 0.  1.
    8880023    1    1    2    0    0 -0.73177644314E+02  0.28370590969E+03  0.19905832764E+02  0.72114524145E+03  0.65864270000E+03 0.  1.
    8880022    1    1    2    0    0  0.73177644314E+02 -0.28370590969E+03  0.61848044419E+03  0.70125154095E+03  0.15294330000E+03 0.  0.
<mgrwt>
<rscale>  0 0.59318270E+03</rscale>
<asrwt>0</asrwt>
<pdfrwt beam="1">  1        1 0.15852177E+00 0.72087046E+03</pdfrwt>
<pdfrwt beam="2">  1       -1 0.60308501E-01 0.72087046E+03</pdfrwt>
<totfact> 0.41095335E+01</totfact>
</mgrwt>
</event>
<event>
 4    1  0.1043382E-007  0.8225240E+03  0.7818608E-02  0.9664057E-01
         -1   -1    0    0    0  501 -0.00000000000E+00  0.00000000000E+00  0.17224348519E+04  0.17224348519E+04  0.50400000000E-02 0.  1.
          1   -1    0    0  501    0  0.00000000000E+00 -0.00000000000E+00 -0.65607309050E+03  0.65607309052E+03  0.50400000000E-02 0. -1.
    8880023    1    1    2    0    0 -0.21074585063E+03  0.44533318254E+03  0.14959638957E+04  0.17071770970E+04  0.65864270000E+03 0.  1.
    8880022    1    1    2    0    0  0.21074585063E+03 -0.44533318254E+03 -0.42960213438E+03  0.67133084534E+03  0.15294330000E+03 0.  0.
<mgrwt>
<rscale>  0 0.73197721E+03</rscale>
<asrwt>0</asrwt>
<pdfrwt beam="1">  1        1 0.10093432E+00 0.82252396E+03</pdfrwt>
<pdfrwt beam="2">  1       -1 0.26498998E+00 0.82252396E+03</pdfrwt>
<totfact> 0.17326290E+00</totfact>
</mgrwt>
</event>
<event>
 4    1  0.1043382E-007  0.1039636E+04  0.7818608E-02  0.9331445E-01
          1   -1    0    0  501    0  0.00000000000E+00  0.00000000000E+00  0.27767892139E+04  0.27767892139E+04  0.50400000000E-02 0. -1.
         -1   -1    0    0    0  501 -0.00000000000E+00 -0.00000000000E+00 -0.39196840405E+03  0.39196840408E+03  0.50400000000E-02 0.  1.
    8880023    1    1    2    0    0 -0.29931802496E+03 -0.74662044572E+03  0.58854336148E+03  0.11946660055E+04  0.65864270000E+03 0.  1.
    8880022    1    1    2    0    0  0.29931802496E+03  0.74662044572E+03  0.17962774483E+04  0.19740916125E+04  0.15294330000E+03 0. -1.
<mgrwt>
<rscale>  0 0.97938815E+03</rscale>
<asrwt>0</asrwt>
<pdfrwt beam="1">  1        1 0.42719834E+00 0.10396363E+04</pdfrwt>
<pdfrwt beam="2">  1       -1 0.60302831E-01 0.10396363E+04</pdfrwt>
<totfact> 0.24572364E+00</totfact>
</mgrwt>
</event>
<event>
 4    1  0.1043382E-007  0.1054950E+04  0.7818608E-02  0.9312954E-01
          1   -1    0    0  501    0  0.00000000000E+00  0.00000000000E+00  0.31325073172E+04  0.31325073172E+04  0.50400000000E-02 0. -1.
         -1   -1    0    0    0  501 -0.00000000000E+00 -0.00000000000E+00 -0.31524874610E+03  0.31524874614E+03  0.50400000000E-02 0.  1.
    8880023    1    1    2    0    0  0.77820460318E+03  0.27112168272E+03  0.10332110047E+04  0.14766328446E+04  0.65864270000E+03 0.  0.
    8880022    1    1    2    0    0 -0.77820460318E+03 -0.27112168272E+03  0.17840475664E+04  0.19711232188E+04  0.15294330000E+03 0.  0.
<mgrwt>
<rscale>  0 0.99598957E+03</rscale>
<asrwt>0</asrwt>
<pdfrwt beam="1">  1        1 0.48192420E+00 0.10549500E+04</pdfrwt>
<pdfrwt beam="2">  1       -1 0.48499807E-01 0.10549500E+04</pdfrwt>
<totfact> 0.20755495E+00</totfact>
</mgrwt>
</event>
<event>
 4    1  0.1043382E-007  0.7698922E+03  0.7818608E-02  0.9780139E-01
         -1   -1    0    0    0  501 -0.00000000000E+00  0.00000000000E+00  0.11910363537E+04  0.11910363537E+04  0.50400000000E-02 0.  1.
          1   -1    0    0  501    0  0.00000000000E+00 -0.00000000000E+00 -0.99869983525E+03  0.99869983526E+03  0.50400000000E-02 0. -1.
    8880023    1    1    2    0    0 -0.26763555799E+03  0.29545723902E+03  0.10084094020E+04  0.12687093837E+04  0.65864270000E+03 0.  1.
    8880022    1    1    2    0    0  0.26763555799E+03 -0.29545723902E+03 -0.81607288348E+03  0.92102680534E+03  0.15294330000E+03 0.  0.
<mgrwt>
<rscale>  0 0.66439348E+03</rscale>
<asrwt>0</asrwt>
<pdfrwt beam="1">  1        1 0.15364613E+00 0.76989219E+03</pdfrwt>
<pdfrwt beam="2">  1       -1 0.18323636E+00 0.76989219E+03</pdfrwt>
<totfact> 0.31022343E+00</totfact>
</mgrwt>
</event>
<event>
 4    1  0.1043382E-007  0.9469131E+03  0.7818608E-02  0.9454569E-01
          1   -1    0    0  501    0  0.00000000000E+00  0.00000000000E+00  0.28857885623E+04  0.28857885623E+04  0.50400000000E-02 0. -1.
         -1   -1    0    0    0  501 -0.00000000000E+00 -0.00000000000E+00 -0.47942895913E+03  0.47942895916E+03  0.50400000000E-02 0.  1.
    8880023    1    1    2    0    0 -0.64225539090E+03  0.22437079930E+03  0.95817157740E+02  0.95174858902E+03  0.65864270000E+03 0.  1.
    8880022    1    1    2    0    0  0.64225539090E+03 -0.22437079930E+03  0.23105424454E+04  0.24134689325E+04  0.15294330000E+03 0.  0.
<mgrwt>
<rscale>  0 0.87717725E+03</rscale>
<asrwt>0</asrwt>
<pdfrwt beam="1">  1        1 0.44396749E+00 0.94691312E+03</pdfrwt>
<pdfrwt beam="2">  1       -1 0.73758299E-01 0.94691312E+03</pdfrwt>
<totfact> 0.13858703E+00</totfact>
</mgrwt>
</event>
<event>
 4    1  0.1043382E-007  0.9037128E+03  0.7818608E-02  0.9520098E-01
          1   -1    0    0  501    0  0.00000000000E+00  0.00000000000E+00  0.19580329418E+04  0.19580329419E+04  0.50400000000E-02 0. -1.
         -1   -1    0    0    0  501 -0.00000000000E+00 -0.00000000000E+00 -0.74970324786E+03  0.74970324788E+03  0.50400000000E-02 0.  1.
    8880023    1    1    2    0    0  0.60020434360E+03 -0.15047026133E+03 -0.39205451132E+03  0.98509060483E+03  0.65864270000E+03 0.  0.
    8880022    1    1    2    0    0 -0.60020434360E+03  0.15047026133E+03  0.16003842053E+04  0.17226455849E+04  0.15294330000E+03 0.  0.
<mgrwt>
<rscale>  0 0.82818193E+03</rscale>
<asrwt>0</asrwt>
<pdfrwt beam="1">  1        1 0.30123583E+00 0.90371276E+03</pdfrwt>
<pdfrwt beam="2">  1       -1 0.11533896E+00 0.90371276E+03</pdfrwt>
<totfact> 0.22233413E+00</totfact>
</mgrwt>
</event>
<event>
 4    1  0.1043382E-007  0.7404989E+03  0.7818608E-02  0.9858496E-01
          1   -1    0    0  501    0  0.00000000000E+00  0.00000000000E+00  0.12650399469E+04  0.12650399469E+04  0.50400000000E-02 0. -1.
         -1   -1    0    0    0  501 -0.00000000000E+00 -0.00000000000E+00 -0.12984860087E+04  0.12984860087E+04  0.50400000000E-02 0.  1.
    8880023    1    1    2    0    0 -0.32698574584E+03  0.87227691936E+02 -0.11606318864E+04  0.13767370593E+04  0.65864270000E+03 0.  1.
    8880022    1    1    2    0    0  0.32698574584E+03 -0.87227691936E+02  0.11271858247E+04  0.11867888964E+04  0.15294330000E+03 0.  0.
<mgrwt>
<rscale>  0 0.62315588E+03</rscale>
<asrwt>0</asrwt>
<pdfrwt beam="1">  1        1 0.19462153E+00 0.74049886E+03</pdfrwt>
<pdfrwt beam="2">  1       -1 0.19976708E+00 0.74049886E+03</pdfrwt>
<totfact> 0.15196009E+00</totfact>
</mgrwt>
</event>
<event>
 4    1  0.1043382E-007  0.1146774E+04  0.7818608E-02  0.9210683E-01
         -1   -1    0    0    0  501 -0.00000000000E+00  0.00000000000E+00  0.15461770303E+04  0.15461770303E+04  0.50400000000E-02 0.  1.
          1   -1    0    0  501    0  0.00000000000E+00 -0.00000000000E+00 -0.78645515369E+03  0.78645515371E+03  0.50400000000E-02 0. -1.
    8880023    1    1    2    0    0  0.75461074693E+03 -0.55842948997E+03  0.77023468161E+03  0.13814313395E+04  0.65864270000E+03 0.  0.
    8880022    1    1    2    0    0 -0.75461074693E+03  0.55842948997E+03 -0.10512804966E+02  0.95120084458E+03  0.15294330000E+03 0.  0.
<mgrwt>
<rscale>  0 0.10943843E+04</rscale>
<asrwt>0</asrwt>
<pdfrwt beam="1">  1        1 0.12099310E+00 0.11467742E+04</pdfrwt>
<pdfrwt beam="2">  1       -1 0.23787339E+00 0.11467742E+04</pdfrwt>
<totfact> 0.18821593E+00</totfact>
</mgrwt>
</event>
<event>
 4    1  0.1043382E-007  0.8924398E+03  0.7818608E-02  0.9538279E-01
         -1   -1    0    0    0  501 -0.00000000000E+00  0.00000000000E+00  0.11948896918E+04  0.11948896919E+04  0.50400000000E-02 0.  1.
          1   -1    0    0  501    0  0.00000000000E+00 -0.00000000000E+00 -0.73284042834E+03  0.73284042835E+03  0.50400000000E-02 0. -1.
    8880023    1    1    2    0    0  0.38615857634E+03  0.46208235168E+03  0.81891116996E+03  0.12112242800E+04  0.65864270000E+03 0.  1.
    8880022    1    1    2    0    0 -0.38615857634E+03 -0.46208235168E+03 -0.35686190646E+03  0.71650584025E+03  0.15294330000E+03 0.  0.
<mgrwt>
<rscale>  0 0.81519564E+03</rscale>
<asrwt>0</asrwt>
<pdfrwt beam="1">  1        1 0.11274468E+00 0.89243978E+03</pdfrwt>
<pdfrwt beam="2">  1       -1 0.18382918E+00 0.89243978E+03</pdfrwt>
<totfact> 0.50398305E+00</totfact>
</mgrwt>
</event>
<event>
 4    1  0.1043382E-007  0.6685908E+03  0.7818608E-02  0.1016694E+00
          1   -1    0    0  501    0  0.00000000000E+00  0.00000000000E+00  0.40140396543E+03  0.40140396547E+03  0.50400000000E-02 0. -1.
         -1   -1    0    0    0  501 -0.00000000000E+00 -0.00000000000E+00 -0.16807193410E+04  0.16807193410E+04  0.50400000000E-02 0.  1.
    8880023    1    1    2    0    0  0.21843734323E+00 -0.11490601762E+03 -0.15857185870E+04  0.17209058905E+04  0.65864270000E+03 0.  1.
    8880022    1    1    2    0    0 -0.21843734323E+00  0.11490601762E+03  0.30640321143E+03  0.36121741596E+03  0.15294330000E+03 0.  0.
<mgrwt>
<rscale>  0 0.48898794E+03</rscale>
<asrwt>0</asrwt>
<pdfrwt beam="1">  1        1 0.61754457E-01 0.66859079E+03</pdfrwt>
<pdfrwt beam="2">  1       -1 0.25857220E+00 0.66859079E+03</pdfrwt>
<totfact> 0.38649924E+00</totfact>
</mgrwt>
</event>
<event>
 4    1  0.1043382E-007  0.7406269E+03  0.7818608E-02  0.9858125E-01
          1   -1    0    0  501    0  0.00000000000E+00  0.00000000000E+00  0.15527005131E+04  0.15527005132E+04  0.50400000000E-02 0. -1.
         -1   -1    0    0    0  501 -0.00000000000E+00 -0.00000000000E+00 -0.92643860746E+03  0.92643860748E+03  0.50400000000E-02 0.  1.
    8880023    1    1    2    0    0 -0.16752155788E+02 -0.33828589640E+03 -0.74972037998E+03  0.10538542769E+04  0.65864270000E+03 0.  1.
    8880022    1    1    2    0    0  0.16752155788E+02  0.33828589640E+03  0.13759822857E+04  0.14252848438E+04  0.15294330000E+03 0.  0.
<mgrwt>
<rscale>  0 0.62334374E+03</rscale>
<asrwt>0</asrwt>
<pdfrwt beam="1">  1        1 0.23887700E+00 0.74062689E+03</pdfrwt>
<pdfrwt beam="2">  1       -1 0.14252902E+00 0.74062689E+03</pdfrwt>
<totfact> 0.25212121E+00</totfact>
</mgrwt>
</event>
<event>
 4    1  0.1043382E-007  0.1075090E+04  0.7818608E-02  0.9289310E-01
          1   -1    0    0  501    0  0.00000000000E+00  0.00000000000E+00  0.10015475702E+04  0.10015475702E+04  0.50400000000E-02 0. -1.
         -1   -1    0    0    0  501 -0.00000000000E+00 -0.00000000000E+00 -0.16735367584E+04  0.16735367584E+04  0.50400000000E-02 0.  1.
    8880023    1    1    2    0    0  0.31707245436E+03  0.78833607135E+03 -0.12403538208E+04  0.16414312382E+04  0.65864270000E+03 0.  1.
    8880022    1    1    2    0    0 -0.31707245436E+03 -0.78833607135E+03  0.56836463265E+03  0.10336530904E+04  0.15294330000E+03 0.  0.
<mgrwt>
<rscale>  0 0.10177295E+04</rscale>
<asrwt>0</asrwt>
<pdfrwt beam="1">  1        1 0.15408424E+00 0.10750902E+04</pdfrwt>
<pdfrwt beam="2">  1       -1 0.25746719E+00 0.10750902E+04</pdfrwt>
<totfact> 0.93884593E-01</totfact>
</mgrwt>
</event>
<event>
 4    1  0.1043382E-007  0.8548105E+03  0.7818608E-02  0.9602862E-01
         -1   -1    0    0    0  501 -0.00000000000E+00  0.00000000000E+00  0.51970842748E+03  0.51970842751E+03  0.50400000000E-02 0.  1.
          1   -1    0    0  501    0  0.00000000000E+00 -0.00000000000E+00 -0.32245385777E+04  0.32245385777E+04  0.50400000000E-02 0. -1.
    8880023    1    1    2    0    0 -0.54408797263E+03  0.29309933476E+02  0.12008187978E+03  0.86320371772E+03  0.65864270000E+03 0.  0.
    8880022    1    1    2    0    0  0.54408797263E+03 -0.29309933476E+02 -0.28249120300E+04  0.28810432875E+04  0.15294330000E+03 0.  0.
<mgrwt>
<rscale>  0 0.77107040E+03</rscale>
<asrwt>0</asrwt>
<pdfrwt beam="1">  1        1 0.49608285E+00 0.85481051E+03</pdfrwt>
<pdfrwt beam="2">  1       -1 0.79955145E-01 0.85481051E+03</pdfrwt>
<totfact> 0.67545601E-01</totfact>
</mgrwt>
</event>
<event>
 4    1  0.1043382E-007  0.1524059E+04  0.7818608E-02  0.8892831E-01
         -1   -1    0    0    0  501 -0.00000000000E+00  0.00000000000E+00  0.13652895823E+04  0.13652895823E+04  0.50400000000E-02 0.  1.
          1   -1    0    0  501    0  0.00000000000E+00 -0.00000000000E+00 -0.18127684953E+04  0.18127684953E+04  0.50400000000E-02 0. -1.
    8880023    1    1    2    0    0 -0.13643792345E+04 -0.16557915351E+03  0.37441774700E+03  0.15693775859E+04  0.65864270000E+03 0.  0.
    8880022    1    1    2    0    0  0.13643792345E+04  0.16557915351E+03 -0.82189666000E+03  0.16086804917E+04  0.15294330000E+03 0.  0.
<mgrwt>
<rscale>  0 0.14874660E+04</rscale>
<asrwt>0</asrwt>
<pdfrwt beam="1">  1        1 0.27888746E+00 0.15240595E+04</pdfrwt>
<pdfrwt beam="2">  1       -1 0.21004455E+00 0.15240595E+04</pdfrwt>
<totfact> 0.48375295E-01</totfact>
</mgrwt>
</event>
<event>
 4    1  0.1043382E-007  0.7126078E+03  0.7818608E-02  0.9948442E-01
          1   -1    0    0  501    0  0.00000000000E+00  0.00000000000E+00  0.79305878477E+03  0.79305878478E+03  0.50400000000E-02 0. -1.
         -1   -1    0    0    0  501 -0.00000000000E+00 -0.00000000000E+00 -0.36755802991E+03  0.36755802995E+03  0.50400000000E-02 0.  1.
    8880023    1    1    2    0    0  0.14239119581E+03  0.23178543097E+03  0.45762059623E+03  0.84689229245E+03  0.65864270000E+03 0. -1.
    8880022    1    1    2    0    0 -0.14239119581E+03 -0.23178543097E+03 -0.32119841382E+02  0.31372452228E+03  0.15294330000E+03 0.  1.
<mgrwt>
<rscale>  0 0.57969963E+03</rscale>
<asrwt>0</asrwt>
<pdfrwt beam="1">  1        1 0.12200904E+00 0.71260785E+03</pdfrwt>
<pdfrwt beam="2">  1       -1 0.56547389E-01 0.71260785E+03</pdfrwt>
<totfact> 0.72662792E+01</totfact>
</mgrwt>
</event>
<event>
 4    1  0.1043382E-007  0.7932837E+03  0.7818608E-02  0.9725511E-01
          1   -1    0    0  501    0  0.00000000000E+00  0.00000000000E+00  0.43998607928E+03  0.43998607931E+03  0.50400000000E-02 0. -1.
         -1   -1    0    0    0  501 -0.00000000000E+00 -0.00000000000E+00 -0.10878786494E+04  0.10878786494E+04  0.50400000000E-02 0.  1.
    8880023    1    1    2    0    0 -0.44056654260E+03 -0.37282395472E+02 -0.87871010267E+02  0.79813556253E+03  0.65864270000E+03 0. -1.
    8880022    1    1    2    0    0  0.44056654260E+03  0.37282395472E+02 -0.56002155986E+03  0.72972916619E+03  0.15294330000E+03 0.  0.
<mgrwt>
<rscale>  0 0.69518004E+03</rscale>
<asrwt>0</asrwt>
<pdfrwt beam="1">  1        1 0.67690167E-01 0.79328372E+03</pdfrwt>
<pdfrwt beam="2">  1       -1 0.16736594E+00 0.79328372E+03</pdfrwt>
<totfact> 0.13902516E+01</totfact>
</mgrwt>
</event>
<event>
 4    1  0.1043382E-007  0.7046148E+03  0.7818608E-02  0.9978570E-01
         -1   -1    0    0    0  501 -0.00000000000E+00  0.00000000000E+00  0.13599646450E+03  0.13599646460E+03  0.50400000000E-02 0.  1.
          1   -1    0    0  501    0  0.00000000000E+00 -0.00000000000E+00 -0.18363355358E+04  0.18363355358E+04  0.50400000000E-02 0. -1.
    8880023    1    1    2    0    0  0.11592106585E+03  0.22188764609E+03 -0.12485182968E+04  0.14336247643E+04  0.65864270000E+03 0. -1.
    8880022    1    1    2    0    0 -0.11592106585E+03 -0.22188764609E+03 -0.45182077450E+03  0.53870723615E+03  0.15294330000E+03 0.  1.
<mgrwt>
<rscale>  0 0.56599968E+03</rscale>
<asrwt>0</asrwt>
<pdfrwt beam="1">  1        1 0.28251314E+00 0.70461481E+03</pdfrwt>
<pdfrwt beam="2">  1       -1 0.20922534E-01 0.70461481E+03</pdfrwt>
<totfact> 0.75414333E+01</totfact>
</mgrwt>
</event>
<event>
 4    1  0.1043382E-007  0.7020134E+03  0.7818608E-02  0.9988949E-01
         -1   -1    0    0    0  501 -0.00000000000E+00  0.00000000000E+00  0.78735623186E+03  0.78735623187E+03  0.50400000000E-02 0.  1.
          1   -1    0    0  501    0  0.00000000000E+00 -0.00000000000E+00 -0.92577578725E+03  0.92577578726E+03  0.50400000000E-02 0. -1.
    8880023    1    1    2    0    0 -0.20362150207E+03 -0.13247981661E+03  0.59835123489E+03  0.92241369486E+03  0.65864270000E+03 0.  1.
    8880022    1    1    2    0    0  0.20362150207E+03  0.13247981661E+03 -0.73677079028E+03  0.79071832427E+03  0.15294330000E+03 0.  0.
<mgrwt>
<rscale>  0 0.56137461E+03</rscale>
<asrwt>0</asrwt>
<pdfrwt beam="1">  1        1 0.14242704E+00 0.70201341E+03</pdfrwt>
<pdfrwt beam="2">  1       -1 0.12113173E+00 0.70201341E+03</pdfrwt>
<totfact> 0.10891042E+01</totfact>
</mgrwt>
</event>
<event>
 4    1  0.1043382E-007  0.7663170E+03  0.7818608E-02  0.9789020E-01
          1   -1    0    0  501    0  0.00000000000E+00  0.00000000000E+00  0.12202486465E+04  0.12202486465E+04  0.50400000000E-02 0. -1.
         -1   -1    0    0    0  501 -0.00000000000E+00 -0.00000000000E+00 -0.82187999115E+03  0.82187999117E+03  0.50400000000E-02 0.  1.
    8880023    1    1    2    0    0  0.33824067958E+03  0.19754671688E+03 -0.59058525857E+03  0.96748778626E+03  0.65864270000E+03 0.  1.
    8880022    1    1    2    0    0 -0.33824067958E+03 -0.19754671688E+03  0.98895391390E+03  0.10746408514E+04  0.15294330000E+03 0.  0.
<mgrwt>
<rscale>  0 0.65955149E+03</rscale>
<asrwt>0</asrwt>
<pdfrwt beam="1">  1        1 0.18773056E+00 0.76631695E+03</pdfrwt>
<pdfrwt beam="2">  1       -1 0.12644308E+00 0.76631695E+03</pdfrwt>
<totfact> 0.58131373E+00</totfact>
</mgrwt>
</event>
<event>
 4    1  0.1043382E-007  0.7289719E+03  0.7818608E-02  0.9893321E-01
          1   -1    0    0  501    0  0.00000000000E+00  0.00000000000E+00  0.11369553462E+04  0.11369553462E+04  0.50400000000E-02 0. -1.
         -1   -1    0    0    0  501 -0.00000000000E+00 -0.00000000000E+00 -0.40791381587E+03  0.40791381590E+03  0.50400000000E-02 0.  1.
    8880023    1    1    2    0    0 -0.18933620902E+03 -0.24847854827E+03 -0.89405037185E+01  0.72902669901E+03  0.65864270000E+03 0.  1.
    8880022    1    1    2    0    0  0.18933620902E+03  0.24847854827E+03  0.73798203405E+03  0.81584246309E+03  0.15294330000E+03 0. -1.
<mgrwt>
<rscale>  0 0.60586090E+03</rscale>
<asrwt>0</asrwt>
<pdfrwt beam="1">  1        1 0.17491621E+00 0.72897188E+03</pdfrwt>
<pdfrwt beam="2">  1       -1 0.62755971E-01 0.72897188E+03</pdfrwt>
<totfact> 0.31567468E+01</totfact>
</mgrwt>
</event>
<event>
 4    1  0.1043382E-007  0.1174470E+04  0.7818608E-02  0.9182348E-01
          1   -1    0    0  501    0  0.00000000000E+00  0.00000000000E+00  0.29576648833E+04  0.29576648834E+04  0.50400000000E-02 0. -1.
         -1   -1    0    0    0  501 -0.00000000000E+00 -0.00000000000E+00 -0.42043435184E+03  0.42043435187E+03  0.50400000000E-02 0.  1.
    8880023    1    1    2    0    0  0.62348473844E+03  0.74621436507E+03  0.95080934208E+03  0.15110981798E+04  0.65864270000E+03 0.  0.
    8880022    1    1    2    0    0 -0.62348473844E+03 -0.74621436507E+03  0.15864211894E+04  0.18670010554E+04  0.15294330000E+03 0.  0.
<mgrwt>
<rscale>  0 0.11237499E+04</rscale>
<asrwt>0</asrwt>
<pdfrwt beam="1">  1        1 0.45502539E+00 0.11744698E+04</pdfrwt>
<pdfrwt beam="2">  1       -1 0.64682205E-01 0.11744698E+04</pdfrwt>
<totfact> 0.15585749E+00</totfact>
</mgrwt>
</event>
<event>
 4    1  0.1043382E-007  0.6970297E+03  0.7818608E-02  0.1000975E+00
         -1   -1    0    0    0  501 -0.00000000000E+00  0.00000000000E+00  0.72295276228E+03  0.72295276230E+03  0.50400000000E-02 0.  1.
          1   -1    0    0  501    0  0.00000000000E+00 -0.00000000000E+00 -0.33207145158E+03  0.33207145162E+03  0.50400000000E-02 0. -1.
    8880023    1    1    2    0    0  0.10705044720E+03  0.20144589061E+03  0.34065882580E+03  0.77582142723E+03  0.65864270000E+03 0.  0.
    8880022    1    1    2    0    0 -0.10705044720E+03 -0.20144589061E+03  0.50222484901E+02  0.27920278668E+03  0.15294330000E+03 0.  0.
<mgrwt>
<rscale>  0 0.55224636E+03</rscale>
<asrwt>0</asrwt>
<pdfrwt beam="1">  1        1 0.51087915E-01 0.69702973E+03</pdfrwt>
<pdfrwt beam="2">  1       -1 0.11122350E+00 0.69702973E+03</pdfrwt>
<totfact> 0.58413822E+01</totfact>
</mgrwt>
</event>
<event>
 4    1  0.1043382E-007  0.9963044E+03  0.7818608E-02  0.9386409E-01
         -1   -1    0    0    0  501 -0.00000000000E+00  0.00000000000E+00  0.51997458361E+03  0.51997458363E+03  0.50400000000E-02 0.  1.
          1   -1    0    0  501    0  0.00000000000E+00 -0.00000000000E+00 -0.17538148636E+04  0.17538148636E+04  0.50400000000E-02 0. -1.
    8880023    1    1    2    0    0  0.73584469053E+03  0.13170006276E+03 -0.24717537709E+03  0.10265077634E+04  0.65864270000E+03 0.  0.
    8880022    1    1    2    0    0 -0.73584469053E+03 -0.13170006276E+03 -0.98666490290E+03  0.12472816838E+04  0.15294330000E+03 0.  0.
<mgrwt>
<rscale>  0 0.93202689E+03</rscale>
<asrwt>0</asrwt>
<pdfrwt beam="1">  1        1 0.26981767E+00 0.99630443E+03</pdfrwt>
<pdfrwt beam="2">  1       -1 0.79996091E-01 0.99630443E+03</pdfrwt>
<totfact> 0.68930658E+00</totfact>
</mgrwt>
</event>
<event>
 4    1  0.1043382E-007  0.7209871E+03  0.7818608E-02  0.9919260E-01
         -1   -1    0    0    0  501 -0.00000000000E+00  0.00000000000E+00  0.22871705690E+03  0.22871705696E+03  0.50400000000E-02 0.  1.
          1   -1    0    0  501    0  0.00000000000E+00 -0.00000000000E+00 -0.16567462128E+04  0.16567462128E+04  0.50400000000E-02 0. -1.
    8880023    1    1    2    0    0  0.27613737357E+03 -0.98794668936E+02 -0.44259105306E+03  0.84599602966E+03  0.65864270000E+03 0.  0.
    8880022    1    1    2    0    0 -0.27613737357E+03  0.98794668936E+02 -0.98543810281E+03  0.10394672401E+04  0.15294330000E+03 0.  0.
<mgrwt>
<rscale>  0 0.59336883E+03</rscale>
<asrwt>0</asrwt>
<pdfrwt beam="1">  1        1 0.25488402E+00 0.72098713E+03</pdfrwt>
<pdfrwt beam="2">  1       -1 0.35187241E-01 0.72098713E+03</pdfrwt>
<totfact> 0.40573635E+01</totfact>
</mgrwt>
</event>
<event>
 4    1  0.1043382E-007  0.1057911E+04  0.7818608E-02  0.9309431E-01
          1   -1    0    0  501    0  0.00000000000E+00  0.00000000000E+00  0.35278590466E+04  0.35278590466E+04  0.50400000000E-02 0. -1.
         -1   -1    0    0    0  501 -0.00000000000E+00 -0.00000000000E+00 -0.29349548226E+03  0.29349548230E+03  0.50400000000E-02 0.  1.
    8880023    1    1    2    0    0  0.82741220922E+03  0.27459945292E+02  0.24586449133E+04  0.26765855167E+04  0.65864270000E+03 0.  0.
    8880022    1    1    2    0    0 -0.82741220922E+03 -0.27459945292E+02  0.77571865103E+03  0.11447690121E+04  0.15294330000E+03 0.  0.
<mgrwt>
<rscale>  0 0.99919195E+03</rscale>
<asrwt>0</asrwt>
<pdfrwt beam="1">  1        1 0.54274755E+00 0.10579108E+04</pdfrwt>
<pdfrwt beam="2">  1       -1 0.45153151E-01 0.10579108E+04</pdfrwt>
<totfact> 0.11909716E+00</totfact>
</mgrwt>
</event>
<event>
 4    1  0.1043382E-007  0.9994319E+03  0.7818608E-02  0.9382301E-01
          1   -1    0    0  501    0  0.00000000000E+00  0.00000000000E+00  0.12912050588E+04  0.12912050588E+04  0.50400000000E-02 0. -1.
         -1   -1    0    0    0  501 -0.00000000000E+00 -0.00000000000E+00 -0.11207455032E+04  0.11207455032E+04  0.50400000000E-02 0.  1.
    8880023    1    1    2    0    0  0.74326399346E+03  0.11230519923E+03 -0.72361930768E+03  0.12338917823E+04  0.65864270000E+03 0.  1.
    8880022    1    1    2    0    0 -0.74326399346E+03 -0.11230519923E+03  0.89407886323E+03  0.11780587797E+04  0.15294330000E+03 0.  0.
<mgrwt>
<rscale>  0 0.93546635E+03</rscale>
<asrwt>0</asrwt>
<pdfrwt beam="1">  1        1 0.19864693E+00 0.99943185E+03</pdfrwt>
<pdfrwt beam="2">  1       -1 0.17242238E+00 0.99943185E+03</pdfrwt>
<totfact> 0.21775924E+00</totfact>
</mgrwt>
</event>
<event>
 4    1  0.1043382E-007  0.7260324E+03  0.7818608E-02  0.9902679E-01
         -1   -1    0    0    0  501 -0.00000000000E+00  0.00000000000E+00  0.10428559836E+04  0.10428559836E+04  0.50400000000E-02 0.  1.
          1   -1    0    0  501    0  0.00000000000E+00 -0.00000000000E+00 -0.87407716242E+03  0.87407716243E+03  0.50400000000E-02 0. -1.
    8880023    1    1    2    0    0 -0.25938552553E+03 -0.16134431283E+03  0.87226436668E+03  0.11348868533E+04  0.65864270000E+03 0.  1.
    8880022    1    1    2    0    0  0.25938552553E+03  0.16134431283E+03 -0.70348554554E+03  0.78204629271E+03  0.15294330000E+03 0.  0.
<mgrwt>
<rscale>  0 0.60131626E+03</rscale>
<asrwt>0</asrwt>
<pdfrwt beam="1">  1        1 0.13447341E+00 0.72603240E+03</pdfrwt>
<pdfrwt beam="2">  1       -1 0.16043938E+00 0.72603240E+03</pdfrwt>
<totfact> 0.57591182E+00</totfact>
</mgrwt>
</event>
<event>
 4    1  0.1043382E-007  0.6718283E+03  0.7818608E-02  0.1014385E+00
         -1   -1    0    0    0  501 -0.00000000000E+00  0.00000000000E+00  0.14008005695E+04  0.14008005695E+04  0.50400000000E-02 0.  1.
          1   -1    0    0  501    0  0.00000000000E+00 -0.00000000000E+00 -0.34912722781E+03  0.34912722785E+03  0.50400000000E-02 0. -1.
    8880023    1    1    2    0    0  0.27432050370E+02  0.12957846206E+03  0.12795468199E+04  0.14451966530E+04  0.65864270000E+03 0.  1.
    8880022    1    1    2    0    0 -0.27432050370E+02 -0.12957846206E+03 -0.22787347826E+03  0.30473114433E+03  0.15294330000E+03 0.  0.
<mgrwt>
<rscale>  0 0.49768580E+03</rscale>
<asrwt>0</asrwt>
<pdfrwt beam="1">  1        1 0.53711883E-01 0.67182833E+03</pdfrwt>
<pdfrwt beam="2">  1       -1 0.21550777E+00 0.67182833E+03</pdfrwt>
<totfact> 0.88487100E+00</totfact>
</mgrwt>
</event>
<event>
 4    1  0.1043382E-007  0.7327660E+03  0.7818608E-02  0.9881543E-01
         -1   -1    0    0    0  501 -0.00000000000E+00  0.00000000000E+00  0.10947910632E+04  0.10947910632E+04  0.50400000000E-02 0.  1.
          1   -1    0    0  501    0  0.00000000000E+00 -0.00000000000E+00 -0.49289415167E+03  0.49289415169E+03  0.50400000000E-02 0. -1.
    8880023    1    1    2    0    0 -0.32089486684E+03  0.12741643222E+02  0.87349148888E+03  0.11401462417E+04  0.65864270000E+03 0.  1.
    8880022    1    1    2    0    0  0.32089486684E+03 -0.12741643222E+02 -0.27159457738E+03  0.44753897318E+03  0.15294330000E+03 0.  0.
<mgrwt>
<rscale>  0 0.61164175E+03</rscale>
<asrwt>0</asrwt>
<pdfrwt beam="1">  1        1 0.75829871E-01 0.73276604E+03</pdfrwt>
<pdfrwt beam="2">  1       -1 0.16842939E+00 0.73276604E+03</pdfrwt>
<totfact> 0.11786096E+01</totfact>
</mgrwt>
</event>
<event>
 4    1  0.1043382E-007  0.1213241E+04  0.7818608E-02  0.9144358E-01
         -1   -1    0    0    0  501 -0.00000000000E+00  0.00000000000E+00  0.67036301317E+03  0.67036301318E+03  0.50400000000E-02 0.  1.
          1   -1    0    0  501    0  0.00000000000E+00 -0.00000000000E+00 -0.19633708212E+04  0.19633708212E+04  0.50400000000E-02 0. -1.
    8880023    1    1    2    0    0 -0.80591348497E+03  0.62341524085E+03 -0.42183568676E+03  0.12844838110E+04  0.65864270000E+03 0.  0.
    8880022    1    1    2    0    0  0.80591348497E+03 -0.62341524085E+03 -0.87117212128E+03  0.13492500234E+04  0.15294330000E+03 0.  0.
<mgrwt>
<rscale>  0 0.11646677E+04</rscale>
<asrwt>0</asrwt>
<pdfrwt beam="1">  1        1 0.30205705E+00 0.12132408E+04</pdfrwt>
<pdfrwt beam="2">  1       -1 0.10313277E+00 0.12132408E+04</pdfrwt>
<totfact> 0.27568962E+00</totfact>
</mgrwt>
</event>
<event>
 4    1  0.1043382E-007  0.7125052E+03  0.7818608E-02  0.9948813E-01
         -1   -1    0    0    0  501 -0.00000000000E+00  0.00000000000E+00  0.25783275977E+03  0.25783275982E+03  0.50400000000E-02 0.  1.
          1   -1    0    0  501    0  0.00000000000E+00 -0.00000000000E+00 -0.15317815736E+04  0.15317815736E+04  0.50400000000E-02 0. -1.
    8880023    1    1    2    0    0 -0.27056369876E+03 -0.25469699786E+02 -0.31098363074E+03  0.77741523367E+03  0.65864270000E+03 0.  1.
    8880022    1    1    2    0    0  0.27056369876E+03  0.25469699786E+02 -0.96296518312E+03  0.10121990998E+04  0.15294330000E+03 0.  0.
<mgrwt>
<rscale>  0 0.57952806E+03</rscale>
<asrwt>0</asrwt>
<pdfrwt beam="1">  1        1 0.23565870E+00 0.71250518E+03</pdfrwt>
<pdfrwt beam="2">  1       -1 0.39666579E-01 0.71250518E+03</pdfrwt>
<totfact> 0.39794535E+01</totfact>
</mgrwt>
</event>
<event>
 4    1  0.1043382E-007  0.9960210E+03  0.7818608E-02  0.9386782E-01
          1   -1    0    0  501    0  0.00000000000E+00  0.00000000000E+00  0.14565491667E+04  0.14565491667E+04  0.50400000000E-02 0. -1.
         -1   -1    0    0    0  501 -0.00000000000E+00 -0.00000000000E+00 -0.11445488754E+04  0.11445488754E+04  0.50400000000E-02 0.  1.
    8880023    1    1    2    0    0  0.42955927333E+03  0.61133176111E+03 -0.78281823643E+03  0.12668315946E+04  0.65864270000E+03 0.  1.
    8880022    1    1    2    0    0 -0.42955927333E+03 -0.61133176111E+03  0.10948185277E+04  0.13342664475E+04  0.15294330000E+03 0.  0.
<mgrwt>
<rscale>  0 0.93171504E+03</rscale>
<asrwt>0</asrwt>
<pdfrwt beam="1">  1        1 0.22408449E+00 0.99602103E+03</pdfrwt>
<pdfrwt beam="2">  1       -1 0.17608444E+00 0.99602103E+03</pdfrwt>
<totfact> 0.15676769E+00</totfact>
</mgrwt>
</event>
<event>
 4    1  0.1043382E-007  0.9423262E+03  0.7818608E-02  0.9461242E-01
         -1   -1    0    0    0  501 -0.00000000000E+00  0.00000000000E+00  0.50650329394E+03  0.50650329396E+03  0.50400000000E-02 0.  1.
          1   -1    0    0  501    0  0.00000000000E+00 -0.00000000000E+00 -0.34142448014E+04  0.34142448014E+04  0.50400000000E-02 0. -1.
    8880023    1    1    2    0    0 -0.28258194201E+03 -0.61181368208E+03 -0.10660672745E+02  0.94238654051E+03  0.65864270000E+03 0.  1.
    8880022    1    1    2    0    0  0.28258194201E+03  0.61181368208E+03 -0.28970808348E+04  0.29783615549E+04  0.15294330000E+03 0.  0.
<mgrwt>
<rscale>  0 0.87202609E+03</rscale>
<asrwt>0</asrwt>
<pdfrwt beam="1">  1        1 0.52526842E+00 0.94232624E+03</pdfrwt>
<pdfrwt beam="2">  1       -1 0.77923586E-01 0.94232624E+03</pdfrwt>
<totfact> 0.50463428E-01</totfact>
</mgrwt>
</event>
<event>
 4    1  0.1043382E-007  0.1277614E+04  0.7818608E-02  0.9085137E-01
         -1   -1    0    0    0  501 -0.00000000000E+00  0.00000000000E+00  0.16478690773E+04  0.16478690773E+04  0.50400000000E-02 0.  1.
          1   -1    0    0  501    0  0.00000000000E+00 -0.00000000000E+00 -0.19059325501E+04  0.19059325501E+04  0.50400000000E-02 0. -1.
    8880023    1    1    2    0    0 -0.16378399654E+03 -0.10824329680E+04  0.11805618581E+04  0.17395467325E+04  0.65864270000E+03 0.  0.
    8880022    1    1    2    0    0  0.16378399654E+03  0.10824329680E+04 -0.14386253309E+04  0.18142548949E+04  0.15294330000E+03 0.  0.
<mgrwt>
<rscale>  0 0.12321913E+04</rscale>
<asrwt>0</asrwt>
<pdfrwt beam="1">  1        1 0.29322039E+00 0.12776136E+04</pdfrwt>
<pdfrwt beam="2">  1       -1 0.25351832E+00 0.12776136E+04</pdfrwt>
<totfact> 0.22170928E-01</totfact>
</mgrwt>
</event>
<event>
 4    1  0.1043382E-007  0.6936720E+03  0.7818608E-02  0.1002454E+00
          1   -1    0    0  501    0  0.00000000000E+00  0.00000000000E+00  0.24447922119E+04  0.24447922119E+04  0.50400000000E-02 0. -1.
         -1   -1    0    0    0  501 -0.00000000000E+00 -0.00000000000E+00 -0.15500835434E+03  0.15500835442E+03  0.50400000000E-02 0.  1.
    8880023    1    1    2    0    0  0.17857253308E+03  0.12442838108E+03  0.69126719454E+03  0.97930133877E+03  0.65864270000E+03 0.  1.
    8880022    1    1    2    0    0 -0.17857253308E+03 -0.12442838108E+03  0.15985166630E+04  0.16204992276E+04  0.15294330000E+03 0.  0.
<mgrwt>
<rscale>  0 0.54587196E+03</rscale>
<asrwt>0</asrwt>
<pdfrwt beam="1">  1        1 0.37612189E+00 0.69367195E+03</pdfrwt>
<pdfrwt beam="2">  1       -1 0.23847439E-01 0.69367195E+03</pdfrwt>
<totfact> 0.23688282E+01</totfact>
</mgrwt>
</event>
<event>
 4    1  0.1043382E-007  0.8694928E+03  0.7818608E-02  0.9576896E-01
         -1   -1    0    0    0  501 -0.00000000000E+00  0.00000000000E+00  0.32414455787E+03  0.32414455791E+03  0.50400000000E-02 0.  1.
          1   -1    0    0  501    0  0.00000000000E+00 -0.00000000000E+00 -0.19841030741E+04  0.19841030741E+04  0.50400000000E-02 0. -1.
    8880023    1    1    2    0    0 -0.40172682309E+03 -0.40102757923E+03 -0.48792129664E+03  0.99703809238E+03  0.65864270000E+03 0.  0.
    8880022    1    1    2    0    0  0.40172682309E+03  0.40102757923E+03 -0.11720372196E+04  0.13112095396E+04  0.15294330000E+03 0.  0.
<mgrwt>
<rscale>  0 0.78844444E+03</rscale>
<asrwt>0</asrwt>
<pdfrwt beam="1">  1        1 0.30524662E+00 0.86949282E+03</pdfrwt>
<pdfrwt beam="2">  1       -1 0.49868395E-01 0.86949282E+03</pdfrwt>
<totfact> 0.12652398E+01</totfact>
</mgrwt>
</event>
<event>
 4    1  0.1043382E-007  0.6842446E+03  0.7818608E-02  0.1007018E+00
          1   -1    0    0  501    0  0.00000000000E+00  0.00000000000E+00  0.37271307831E+03  0.37271307834E+03  0.50400000000E-02 0. -1.
         -1   -1    0    0    0  501 -0.00000000000E+00 -0.00000000000E+00 -0.58537226374E+03  0.58537226376E+03  0.50400000000E-02 0.  1.
    8880023    1    1    2    0    0  0.13675057655E+03  0.12521859079E+03 -0.21655550559E+03  0.71769555449E+03  0.65864270000E+03 0.  0.
    8880022    1    1    2    0    0 -0.13675057655E+03 -0.12521859079E+03  0.38963201540E+01  0.24038978762E+03  0.15294330000E+03 0.  1.
<mgrwt>
<rscale>  0 0.52677270E+03</rscale>
<asrwt>0</asrwt>
<pdfrwt beam="1">  1        1 0.57340474E-01 0.68424456E+03</pdfrwt>
<pdfrwt beam="2">  1       -1 0.90057271E-01 0.68424456E+03</pdfrwt>
<totfact> 0.81329698E+01</totfact>
</mgrwt>
</event>
<event>
 4    1  0.1043382E-007  0.9687392E+03  0.7818608E-02  0.9423650E-01
         -1   -1    0    0    0  501 -0.00000000000E+00  0.00000000000E+00  0.50388413874E+03  0.50388413877E+03  0.50400000000E-02 0.  1.
          1   -1    0    0  501    0  0.00000000000E+00 -0.00000000000E+00 -0.17819535332E+04  0.17819535332E+04  0.50400000000E-02 0. -1.
    8880023    1    1    2    0    0 -0.68970797846E+03 -0.17014233395E+03 -0.20550857279E+03  0.99029767702E+03  0.65864270000E+03 0.  1.
    8880022    1    1    2    0    0  0.68970797846E+03  0.17014233395E+03 -0.10725608217E+04  0.12955399950E+04  0.15294330000E+03 0.  0.
<mgrwt>
<rscale>  0 0.90154670E+03</rscale>
<asrwt>0</asrwt>
<pdfrwt beam="1">  1        1 0.27414669E+00 0.96873924E+03</pdfrwt>
<pdfrwt beam="2">  1       -1 0.77520638E-01 0.96873924E+03</pdfrwt>
<totfact> 0.70770477E+00</totfact>
</mgrwt>
</event>
<event>
 4    1  0.1043382E-007  0.6749382E+03  0.7818608E-02  0.1012345E+00
         -1   -1    0    0    0  501 -0.00000000000E+00  0.00000000000E+00  0.57315291588E+03  0.57315291590E+03  0.50400000000E-02 0.  1.
          1   -1    0    0  501    0  0.00000000000E+00 -0.00000000000E+00 -0.58919454730E+03  0.58919454732E+03  0.50400000000E-02 0. -1.
    8880023    1    1    2    0    0 -0.58606803921E+02 -0.13526497021E+03  0.33387302999E+03  0.75300250733E+03  0.65864270000E+03 0.  1.
    8880022    1    1    2    0    0  0.58606803921E+02  0.13526497021E+03 -0.34991466140E+03  0.40934495589E+03  0.15294330000E+03 0.  0.
<mgrwt>
<rscale>  0 0.50553099E+03</rscale>
<asrwt>0</asrwt>
<pdfrwt beam="1">  1        1 0.90645316E-01 0.67493820E+03</pdfrwt>
<pdfrwt beam="2">  1       -1 0.88177371E-01 0.67493820E+03</pdfrwt>
<totfact> 0.45738897E+01</totfact>
</mgrwt>
</event>
<event>
 4    1  0.1043382E-007  0.6647424E+03  0.7818608E-02  0.1019751E+00
         -1   -1    0    0    0  501 -0.00000000000E+00  0.00000000000E+00  0.18631756944E+03  0.18631756951E+03  0.50400000000E-02 0.  1.
          1   -1    0    0  501    0  0.00000000000E+00 -0.00000000000E+00 -0.19181272167E+04  0.19181272167E+04  0.50400000000E-02 0. -1.
    8880023    1    1    2    0    0 -0.89532939855E+02  0.74862363675E+01 -0.43244027991E+03  0.79302395487E+03  0.65864270000E+03 0.  1.
    8880022    1    1    2    0    0  0.89532939855E+02 -0.74862363675E+01 -0.12993693673E+04  0.13114208313E+04  0.15294330000E+03 0.  0.
<mgrwt>
<rscale>  0 0.47776737E+03</rscale>
<asrwt>0</asrwt>
<pdfrwt beam="1">  1        1 0.29509648E+00 0.66474235E+03</pdfrwt>
<pdfrwt beam="2">  1       -1 0.28664243E-01 0.66474235E+03</pdfrwt>
<totfact> 0.39149712E+01</totfact>
</mgrwt>
</event>
<event>
 4    1  0.1043382E-007  0.6631415E+03  0.7818608E-02  0.1021146E+00
         -1   -1    0    0    0  501 -0.00000000000E+00  0.00000000000E+00  0.21519382380E+03  0.21519382386E+03  0.50400000000E-02 0.  1.
          1   -1    0    0  501    0  0.00000000000E+00 -0.00000000000E+00 -0.96987055621E+03  0.96987055622E+03  0.50400000000E-02 0. -1.
    8880023    1    1    2    0    0  0.75133626795E+02 -0.17361175400E+02 -0.35939751029E+03  0.75427001064E+03  0.65864270000E+03 0.  1.
    8880022    1    1    2    0    0 -0.75133626795E+02  0.17361175400E+02 -0.39527922212E+03  0.43079436944E+03  0.15294330000E+03 0.  0.
<mgrwt>
<rscale>  0 0.47275237E+03</rscale>
<asrwt>0</asrwt>
<pdfrwt beam="1">  1        1 0.14921085E+00 0.66314152E+03</pdfrwt>
<pdfrwt beam="2">  1       -1 0.33106743E-01 0.66314152E+03</pdfrwt>
<totfact> 0.14014301E+02</totfact>
</mgrwt>
</event>
<event>
 4    1  0.1043382E-007  0.6620867E+03  0.7818608E-02  0.1022114E+00
         -1   -1    0    0    0  501 -0.00000000000E+00  0.00000000000E+00  0.64461485454E+03  0.64461485456E+03  0.50400000000E-02 0.  1.
          1   -1    0    0  501    0  0.00000000000E+00 -0.00000000000E+00 -0.72253494762E+03  0.72253494764E+03  0.50400000000E-02 0. -1.
    8880023    1    1    2    0    0 -0.31572344265E+02  0.59597107462E+02  0.45846349112E+03  0.80532453526E+03  0.65864270000E+03 0.  1.
    8880022    1    1    2    0    0  0.31572344265E+02 -0.59597107462E+02 -0.53638358421E+03  0.56182526693E+03  0.15294330000E+03 0.  0.
<mgrwt>
<rscale>  0 0.46931562E+03</rscale>
<asrwt>0</asrwt>
<pdfrwt beam="1">  1        1 0.11115922E+00 0.66208673E+03</pdfrwt>
<pdfrwt beam="2">  1       -1 0.99171516E-01 0.66208673E+03</pdfrwt>
<totfact> 0.26121336E+01</totfact>
</mgrwt>
</event>
<event>
 4    1  0.1043382E-007  0.1010815E+04  0.7818608E-02  0.9367543E-01
          1   -1    0    0  501    0  0.00000000000E+00  0.00000000000E+00  0.47315313275E+03  0.47315313278E+03  0.50400000000E-02 0. -1.
         -1   -1    0    0    0  501 -0.00000000000E+00 -0.00000000000E+00 -0.28600823258E+04  0.28600823258E+04  0.50400000000E-02 0.  1.
    8880023    1    1    2    0    0  0.16311128022E+03  0.74922091375E+03 -0.23411219586E+04  0.25500195094E+04  0.65864270000E+03 0.  1.
    8880022    1    1    2    0    0 -0.16311128022E+03 -0.74922091375E+03 -0.45807234542E+02  0.78321594921E+03  0.15294330000E+03 0.  0.
<mgrwt>
<rscale>  0 0.94795606E+03</rscale>
<asrwt>0</asrwt>
<pdfrwt beam="1">  1        1 0.72792791E-01 0.10108153E+04</pdfrwt>
<pdfrwt beam="2">  1       -1 0.44001266E+00 0.10108153E+04</pdfrwt>
<totfact> 0.18600069E-01</totfact>
</mgrwt>
</event>
<event>
 4    1  0.1043382E-007  0.9392540E+03  0.7818608E-02  0.9465747E-01
          1   -1    0    0  501    0  0.00000000000E+00  0.00000000000E+00  0.31006568405E+04  0.31006568405E+04  0.50400000000E-02 0. -1.
         -1   -1    0    0    0  501 -0.00000000000E+00 -0.00000000000E+00 -0.48317154813E+03  0.48317154816E+03  0.50400000000E-02 0.  1.
    8880023    1    1    2    0    0  0.59850308042E+03 -0.30030316432E+03  0.66069222250E+02  0.94157489143E+03  0.65864270000E+03 0.  0.
    8880022    1    1    2    0    0 -0.59850308042E+03  0.30030316432E+03  0.25514160701E+04  0.26422534973E+04  0.15294330000E+03 0.  0.
<mgrwt>
<rscale>  0 0.86856974E+03</rscale>
<asrwt>0</asrwt>
<pdfrwt beam="1">  1        1 0.47702415E+00 0.93925403E+03</pdfrwt>
<pdfrwt beam="2">  1       -1 0.74334082E-01 0.93925403E+03</pdfrwt>
<totfact> 0.95608183E-01</totfact>
</mgrwt>
</event>
<event>
 4    1  0.1206122E-007  0.7508427E+03  0.7818608E-02  0.9829419E-01
         -1   -1    0    0    0  501 -0.00000000000E+00  0.00000000000E+00  0.72264147747E+03  0.72264147748E+03  0.50400000000E-02 0.  1.
          1   -1    0    0  501    0  0.00000000000E+00 -0.00000000000E+00 -0.17284217979E+04  0.17284217979E+04  0.50400000000E-02 0. -1.
    8880023    1    1    2    0    0  0.35799229898E+03  0.42379735425E+02  0.49546629435E+03  0.89958411680E+03  0.65864270000E+03 0.  1.
    8880022    1    1    2    0    0 -0.35799229898E+03 -0.42379735425E+02 -0.15012466148E+04  0.15514791586E+04  0.15294330000E+03 0.  0.
<mgrwt>
<rscale>  0 0.63807369E+03</rscale>
<asrwt>0</asrwt>
<pdfrwt beam="1">  1        1 0.26591105E+00 0.75084268E+03</pdfrwt>
<pdfrwt beam="2">  1       -1 0.11117561E+00 0.75084268E+03</pdfrwt>
<totfact> 0.35510502E+00</totfact>
</mgrwt>
</event>
<event>
 4    1  0.1043382E-007  0.6843551E+03  0.7818608E-02  0.1006960E+00
          1   -1    0    0  501    0  0.00000000000E+00  0.00000000000E+00  0.10178321161E+04  0.10178321161E+04  0.50400000000E-02 0. -1.
         -1   -1    0    0    0  501 -0.00000000000E+00 -0.00000000000E+00 -0.35499646825E+03  0.35499646829E+03  0.50400000000E-02 0.  1.
    8880023    1    1    2    0    0  0.15092286245E+03 -0.10841609103E+03  0.18053125891E+02  0.68459322289E+03  0.65864270000E+03 0.  1.
    8880022    1    1    2    0    0 -0.15092286245E+03  0.10841609103E+03  0.64478252199E+03  0.68823536155E+03  0.15294330000E+03 0.  0.
<mgrwt>
<rscale>  0 0.52700886E+03</rscale>
<asrwt>0</asrwt>
<pdfrwt beam="1">  1        1 0.15658956E+00 0.68435515E+03</pdfrwt>
<pdfrwt beam="2">  1       -1 0.54614841E-01 0.68435515E+03</pdfrwt>
<totfact> 0.51172762E+01</totfact>
</mgrwt>
</event>
<event>
 4    1  0.1043382E-007  0.8181145E+03  0.7818608E-02  0.9672916E-01
         -1   -1    0    0    0  501 -0.00000000000E+00  0.00000000000E+00  0.66738977979E+03  0.66738977981E+03  0.50400000000E-02 0.  1.
          1   -1    0    0  501    0  0.00000000000E+00 -0.00000000000E+00 -0.84511915436E+03  0.84511915437E+03  0.50400000000E-02 0. -1.
    8880023    1    1    2    0    0  0.46782754964E+03 -0.12899017185E+03  0.24173679685E+03  0.85308145324E+03  0.65864270000E+03 0.  1.
    8880022    1    1    2    0    0 -0.46782754964E+03  0.12899017185E+03 -0.41946617142E+03  0.65942748094E+03  0.15294330000E+03 0.  0.
<mgrwt>
<rscale>  0 0.72652496E+03</rscale>
<asrwt>0</asrwt>
<pdfrwt beam="1">  1        1 0.13001833E+00 0.81811447E+03</pdfrwt>
<pdfrwt beam="2">  1       -1 0.10267535E+00 0.81811447E+03</pdfrwt>
<totfact> 0.18501806E+01</totfact>
</mgrwt>
</event>
<event>
 4    1  0.1043382E-007  0.7442199E+03  0.7818608E-02  0.9847821E-01
         -1   -1    0    0    0  501 -0.00000000000E+00  0.00000000000E+00  0.31020018287E+03  0.31020018291E+03  0.50400000000E-02 0.  1.
          1   -1    0    0  501    0  0.00000000000E+00 -0.00000000000E+00 -0.10163128310E+04  0.10163128310E+04  0.50400000000E-02 0. -1.
    8880023    1    1    2    0    0 -0.89668704562E+02  0.33468284314E+03 -0.46835985950E+03  0.87933170438E+03  0.65864270000E+03 0.  0.
    8880022    1    1    2    0    0  0.89668704562E+02 -0.33468284314E+03 -0.23775278859E+03  0.44718130950E+03  0.15294330000E+03 0.  1.
<mgrwt>
<rscale>  0 0.62858143E+03</rscale>
<asrwt>0</asrwt>
<pdfrwt beam="1">  1        1 0.15635582E+00 0.74421992E+03</pdfrwt>
<pdfrwt beam="2">  1       -1 0.47723105E-01 0.74421992E+03</pdfrwt>
<totfact> 0.65911217E+01</totfact>
</mgrwt>
</event>
<event>
 4    1  0.1043382E-007  0.7020407E+03  0.7818608E-02  0.9988839E-01
         -1   -1    0    0    0  501 -0.00000000000E+00  0.00000000000E+00  0.47485758743E+03  0.47485758745E+03  0.50400000000E-02 0.  1.
          1   -1    0    0  501    0  0.00000000000E+00 -0.00000000000E+00 -0.31965968282E+04  0.31965968282E+04  0.50400000000E-02 0. -1.
    8880023    1    1    2    0    0  0.12140160382E+03  0.21050558860E+03  0.20445529676E+03  0.73120662393E+03  0.65864270000E+03 0.  1.
    8880022    1    1    2    0    0 -0.12140160382E+03 -0.21050558860E+03 -0.29261945375E+04  0.29402477917E+04  0.15294330000E+03 0.  0.
<mgrwt>
<rscale>  0 0.56142363E+03</rscale>
<asrwt>0</asrwt>
<pdfrwt beam="1">  1        1 0.49178411E+00 0.70204071E+03</pdfrwt>
<pdfrwt beam="2">  1       -1 0.73055016E-01 0.70204071E+03</pdfrwt>
<totfact> 0.88572555E-01</totfact>
</mgrwt>
</event>
<event>
 4    1  0.1043382E-007  0.7797964E+03  0.7818608E-02  0.9756316E-01
          1   -1    0    0  501    0  0.00000000000E+00  0.00000000000E+00  0.19376341343E+04  0.19376341344E+04  0.50400000000E-02 0. -1.
         -1   -1    0    0    0  501 -0.00000000000E+00 -0.00000000000E+00 -0.19478009242E+03  0.19478009248E+03  0.50400000000E-02 0.  1.
    8880023    1    1    2    0    0  0.41591538952E+03  0.35868794647E+02  0.10227144767E+04  0.12860899225E+04  0.65864270000E+03 0.  0.
    8880022    1    1    2    0    0 -0.41591538952E+03 -0.35868794647E+02  0.72013956527E+03  0.84632430436E+03  0.15294330000E+03 0. -1.
<mgrwt>
<rscale>  0 0.67760533E+03</rscale>
<asrwt>0</asrwt>
<pdfrwt beam="1">  1        1 0.29809755E+00 0.77979638E+03</pdfrwt>
<pdfrwt beam="2">  1       -1 0.29966169E-01 0.77979638E+03</pdfrwt>
<totfact> 0.34653026E+01</totfact>
</mgrwt>
</event>
<event>
 4    1  0.1043382E-007  0.7000137E+03  0.7818608E-02  0.9997145E-01
         -1   -1    0    0    0  501 -0.00000000000E+00  0.00000000000E+00  0.73834298978E+03  0.73834298980E+03  0.50400000000E-02 0.  1.
          1   -1    0    0  501    0  0.00000000000E+00 -0.00000000000E+00 -0.88680575084E+03  0.88680575086E+03  0.50400000000E-02 0. -1.
    8880023    1    1    2    0    0  0.20606501521E+03  0.11724382231E+03  0.53806276670E+03  0.88291033040E+03  0.65864270000E+03 0.  0.
    8880022    1    1    2    0    0 -0.20606501521E+03 -0.11724382231E+03 -0.68652552776E+03  0.74223841025E+03  0.15294330000E+03 0.  0.
<mgrwt>
<rscale>  0 0.55775619E+03</rscale>
<asrwt>0</asrwt>
<pdfrwt beam="1">  1        1 0.13643165E+00 0.70001365E+03</pdfrwt>
<pdfrwt beam="2">  1       -1 0.11359123E+00 0.70001365E+03</pdfrwt>
<totfact> 0.13678138E+01</totfact>
</mgrwt>
</event>
<event>
 4    1  0.1043382E-007  0.1212972E+04  0.7818608E-02  0.9144614E-01
          1   -1    0    0  501    0  0.00000000000E+00  0.00000000000E+00  0.17303086048E+04  0.17303086048E+04  0.50400000000E-02 0. -1.
         -1   -1    0    0    0  501 -0.00000000000E+00 -0.00000000000E+00 -0.75014459783E+03  0.75014459785E+03  0.50400000000E-02 0.  1.
    8880023    1    1    2    0    0 -0.76131805664E+03  0.67667301911E+03  0.74654188751E+03  0.14242986183E+04  0.65864270000E+03 0.  0.
    8880022    1    1    2    0    0  0.76131805664E+03 -0.67667301911E+03  0.23362211941E+03  0.10561545843E+04  0.15294330000E+03 0.  0.
<mgrwt>
<rscale>  0 0.11643850E+04</rscale>
<asrwt>0</asrwt>
<pdfrwt beam="1">  1        1 0.26620132E+00 0.12129723E+04</pdfrwt>
<pdfrwt beam="2">  1       -1 0.11540686E+00 0.12129723E+04</pdfrwt>
<totfact> 0.30380605E+00</totfact>
</mgrwt>
</event>
<event>
 4    1  0.1043382E-007  0.7009574E+03  0.7818608E-02  0.9993252E-01
         -1   -1    0    0    0  501 -0.00000000000E+00  0.00000000000E+00  0.26891130168E+03  0.26891130173E+03  0.50400000000E-02 0.  1.
          1   -1    0    0  501    0  0.00000000000E+00 -0.00000000000E+00 -0.11265307928E+04  0.11265307928E+04  0.50400000000E-02 0. -1.
    8880023    1    1    2    0    0 -0.19895887336E+03  0.13396433932E+03 -0.28620847895E+03  0.75713709273E+03  0.65864270000E+03 0.  1.
    8880022    1    1    2    0    0  0.19895887336E+03 -0.13396433932E+03 -0.57141101215E+03  0.63830500180E+03  0.15294330000E+03 0. -1.
<mgrwt>
<rscale>  0 0.55947094E+03</rscale>
<asrwt>0</asrwt>
<pdfrwt beam="1">  1        1 0.17331243E+00 0.70095741E+03</pdfrwt>
<pdfrwt beam="2">  1       -1 0.41370970E-01 0.70095741E+03</pdfrwt>
<totfact> 0.71218416E+01</totfact>
</mgrwt>
</event>
<event>
 4    1  0.1043382E-007  0.7145894E+03  0.7818608E-02  0.9941338E-01
         -1   -1    0    0    0  501 -0.00000000000E+00  0.00000000000E+00  0.33195562510E+03  0.33195562514E+03  0.50400000000E-02 0.  1.
          1   -1    0    0  501    0  0.00000000000E+00 -0.00000000000E+00 -0.20239658481E+04  0.20239658481E+04  0.50400000000E-02 0. -1.
    8880023    1    1    2    0    0 -0.45036116656E+02 -0.27349514574E+03 -0.86857831557E+02  0.71984882838E+03  0.65864270000E+03 0.  0.
    8880022    1    1    2    0    0  0.45036116656E+02  0.27349514574E+03 -0.16051523914E+04  0.16360726449E+04  0.15294330000E+03 0. -1.
<mgrwt>
<rscale>  0 0.58299049E+03</rscale>
<asrwt>0</asrwt>
<pdfrwt beam="1">  1        1 0.31137935E+00 0.71458943E+03</pdfrwt>
<pdfrwt beam="2">  1       -1 0.51070098E-01 0.71458943E+03</pdfrwt>
<totfact> 0.11629944E+01</totfact>
</mgrwt>
</event>
<event>
 4    1  0.1043382E-007  0.7726064E+03  0.7818608E-02  0.9773500E-01
         -1   -1    0    0    0  501 -0.00000000000E+00  0.00000000000E+00  0.24768311491E+03  0.24768311497E+03  0.50400000000E-02 0.  1.
          1   -1    0    0  501    0  0.00000000000E+00 -0.00000000000E+00 -0.20791713302E+04  0.20791713302E+04  0.50400000000E-02 0. -1.
    8880023    1    1    2    0    0  0.22457512030E+03  0.33567317574E+03 -0.48360869136E+03  0.91148123304E+03  0.65864270000E+03 0.  1.
    8880022    1    1    2    0    0 -0.22457512030E+03 -0.33567317574E+03 -0.13478795239E+04  0.14153732121E+04  0.15294330000E+03 0. -1.
<mgrwt>
<rscale>  0 0.66804267E+03</rscale>
<asrwt>0</asrwt>
<pdfrwt beam="1">  1        1 0.31987250E+00 0.77260641E+03</pdfrwt>
<pdfrwt beam="2">  1       -1 0.38105096E-01 0.77260641E+03</pdfrwt>
<totfact> 0.18211078E+01</totfact>
</mgrwt>
</event>
<event>
 4    1  0.1043382E-007  0.7380216E+03  0.7818608E-02  0.9865748E-01
          1   -1    0    0  501    0  0.00000000000E+00  0.00000000000E+00  0.12129852469E+04  0.12129852469E+04  0.50400000000E-02 0. -1.
         -1   -1    0    0    0  501 -0.00000000000E+00 -0.00000000000E+00 -0.40388932700E+03  0.40388932703E+03  0.50400000000E-02 0.  1.
    8880023    1    1    2    0    0 -0.30962131454E+03 -0.12247578409E+03  0.96820052820E+03  0.12174104259E+04  0.65864270000E+03 0. -1.
    8880022    1    1    2    0    0  0.30962131454E+03  0.12247578409E+03 -0.15910460833E+03  0.39946414797E+03  0.15294330000E+03 0.  0.
<mgrwt>
<rscale>  0 0.61950391E+03</rscale>
<asrwt>0</asrwt>
<pdfrwt beam="1">  1        1 0.18661312E+00 0.73802160E+03</pdfrwt>
<pdfrwt beam="2">  1       -1 0.62136819E-01 0.73802160E+03</pdfrwt>
<totfact> 0.28309807E+01</totfact>
</mgrwt>
</event>
<event>
 4    1  0.1043382E-007  0.7444259E+03  0.7818608E-02  0.9847237E-01
         -1   -1    0    0    0  501 -0.00000000000E+00  0.00000000000E+00  0.55779086984E+03  0.55779086986E+03  0.50400000000E-02 0.  1.
          1   -1    0    0  501    0  0.00000000000E+00 -0.00000000000E+00 -0.13641395833E+04  0.13641395833E+04  0.50400000000E-02 0. -1.
    8880023    1    1    2    0    0 -0.99503023211E+02  0.33235345300E+03  0.26130407660E+03  0.78895481243E+03  0.65864270000E+03 0.  1.
    8880022    1    1    2    0    0  0.99503023211E+02 -0.33235345300E+03 -0.10676527900E+04  0.11329756407E+04  0.15294330000E+03 0.  0.
<mgrwt>
<rscale>  0 0.62887970E+03</rscale>
<asrwt>0</asrwt>
<pdfrwt beam="1">  1        1 0.20986763E+00 0.74442587E+03</pdfrwt>
<pdfrwt beam="2">  1       -1 0.85813980E-01 0.74442587E+03</pdfrwt>
<totfact> 0.11322737E+01</totfact>
</mgrwt>
</event>
<event>
 4    1  0.1043382E-007  0.6817813E+03  0.7818608E-02  0.1008333E+00
         -1   -1    0    0    0  501 -0.00000000000E+00  0.00000000000E+00  0.50193095468E+03  0.50193095471E+03  0.50400000000E-02 0.  1.
          1   -1    0    0  501    0  0.00000000000E+00 -0.00000000000E+00 -0.54693736367E+03  0.54693736369E+03  0.50400000000E-02 0. -1.
    8880023    1    1    2    0    0 -0.48595335955E+02  0.16927485189E+03  0.20007418605E+03  0.71053175041E+03  0.65864270000E+03 0.  1.
    8880022    1    1    2    0    0  0.48595335955E+02 -0.16927485189E+03 -0.24508059503E+03  0.33833656799E+03  0.15294330000E+03 0.  0.
<mgrwt>
<rscale>  0 0.52142371E+03</rscale>
<asrwt>0</asrwt>
<pdfrwt beam="1">  1        1 0.84144210E-01 0.68178126E+03</pdfrwt>
<pdfrwt beam="2">  1       -1 0.77220147E-01 0.68178126E+03</pdfrwt>
<totfact> 0.67439488E+01</totfact>
</mgrwt>
</event>
<event>
 4    1  0.1043382E-007  0.7015683E+03  0.7818608E-02  0.9990757E-01
          1   -1    0    0  501    0  0.00000000000E+00  0.00000000000E+00  0.14319035306E+04  0.14319035306E+04  0.50400000000E-02 0. -1.
         -1   -1    0    0    0  501 -0.00000000000E+00 -0.00000000000E+00 -0.12626771492E+04  0.12626771492E+04  0.50400000000E-02 0.  1.
    8880023    1    1    2    0    0  0.68549116350E+01  0.24153850963E+03 -0.11486932525E+04  0.13459919153E+04  0.65864270000E+03 0.  0.
    8880022    1    1    2    0    0 -0.68549116350E+01 -0.24153850963E+03  0.13179196339E+04  0.13485887645E+04  0.15294330000E+03 0.  0.
<mgrwt>
<rscale>  0 0.56057408E+03</rscale>
<asrwt>0</asrwt>
<pdfrwt beam="1">  1        1 0.22029285E+00 0.70156828E+03</pdfrwt>
<pdfrwt beam="2">  1       -1 0.19425802E+00 0.70156828E+03</pdfrwt>
<totfact> 0.12771690E+00</totfact>
</mgrwt>
</event>
<event>
 4    1  0.1043382E-007  0.7650360E+03  0.7818608E-02  0.9792240E-01
          1   -1    0    0  501    0  0.00000000000E+00  0.00000000000E+00  0.81924566718E+03  0.81924566720E+03  0.50400000000E-02 0. -1.
         -1   -1    0    0    0  501 -0.00000000000E+00 -0.00000000000E+00 -0.10851782139E+04  0.10851782139E+04  0.50400000000E-02 0.  1.
    8880023    1    1    2    0    0 -0.37951400564E+03 -0.86249477536E+02 -0.87711648768E+03  0.11638785985E+04  0.65864270000E+03 0.  1.
    8880022    1    1    2    0    0  0.37951400564E+03  0.86249477536E+02  0.61118394097E+03  0.74054528259E+03  0.15294330000E+03 0.  0.
<mgrwt>
<rscale>  0 0.65780652E+03</rscale>
<asrwt>0</asrwt>
<pdfrwt beam="1">  1        1 0.12603779E+00 0.76503599E+03</pdfrwt>
<pdfrwt beam="2">  1       -1 0.16695049E+00 0.76503599E+03</pdfrwt>
<totfact> 0.56939095E+00</totfact>
</mgrwt>
</event>
<event>
 4    1  0.1043382E-007  0.6647939E+03  0.7818608E-02  0.1019707E+00
         -1   -1    0    0    0  501 -0.00000000000E+00  0.00000000000E+00  0.60829000443E+03  0.60829000445E+03  0.50400000000E-02 0.  1.
          1   -1    0    0  501    0  0.00000000000E+00 -0.00000000000E+00 -0.36203844643E+03  0.36203844647E+03  0.50400000000E-02 0. -1.
    8880023    1    1    2    0    0 -0.64091958791E+02  0.63504977271E+02  0.36336015220E+03  0.75761564648E+03  0.65864270000E+03 0.  1.
    8880022    1    1    2    0    0  0.64091958791E+02 -0.63504977271E+02 -0.11710859421E+03  0.21271280444E+03  0.15294330000E+03 0.  0.
<mgrwt>
<rscale>  0 0.47792498E+03</rscale>
<asrwt>0</asrwt>
<pdfrwt beam="1">  1        1 0.55698223E-01 0.66479385E+03</pdfrwt>
<pdfrwt beam="2">  1       -1 0.93583077E-01 0.66479385E+03</pdfrwt>
<totfact> 0.77730667E+01</totfact>
</mgrwt>
</event>
<event>
 4    1  0.1043382E-007  0.6709197E+03  0.7818608E-02  0.1015012E+00
         -1   -1    0    0    0  501 -0.00000000000E+00  0.00000000000E+00  0.88344334232E+03  0.88344334234E+03  0.50400000000E-02 0.  1.
          1   -1    0    0  501    0  0.00000000000E+00 -0.00000000000E+00 -0.27186808931E+03  0.27186808935E+03  0.50400000000E-02 0. -1.
    8880023    1    1    2    0    0  0.56330562709E+02 -0.11467298461E+03  0.66945740178E+03  0.94779029577E+03  0.65864270000E+03 0.  1.
    8880022    1    1    2    0    0 -0.56330562709E+02  0.11467298461E+03 -0.57882148764E+02  0.20752113592E+03  0.15294330000E+03 0.  0.
<mgrwt>
<rscale>  0 0.49530394E+03</rscale>
<asrwt>0</asrwt>
<pdfrwt beam="1">  1        1 0.41825860E-01 0.67091969E+03</pdfrwt>
<pdfrwt beam="2">  1       -1 0.13591436E+00 0.67091969E+03</pdfrwt>
<totfact> 0.46353148E+01</totfact>
</mgrwt>
</event>
<event>
 4    1  0.1206185E-007  0.7001396E+03  0.7818608E-02  0.9996622E-01
          1   -1    0    0  501    0  0.00000000000E+00  0.00000000000E+00  0.17201541601E+04  0.17201541601E+04  0.50400000000E-02 0. -1.
         -1   -1    0    0    0  501 -0.00000000000E+00 -0.00000000000E+00 -0.60043264556E+03  0.60043264558E+03  0.50400000000E-02 0.  1.
    8880023    1    1    2    0    0 -0.18777823824E+03  0.14534309901E+03 -0.37855024647E+03  0.79592448043E+03  0.65864270000E+03 0.  1.
    8880022    1    1    2    0    0  0.18777823824E+03 -0.14534309901E+03  0.14982717610E+04  0.15246623252E+04  0.15294330000E+03 0.  0.
<mgrwt>
<rscale>  0 0.55798582E+03</rscale>
<asrwt>0</asrwt>
<pdfrwt beam="1">  1        1 0.26463910E+00 0.70013962E+03</pdfrwt>
<pdfrwt beam="2">  1       -1 0.92374253E-01 0.70013962E+03</pdfrwt>
<totfact> 0.55478535E+00</totfact>
</mgrwt>
</event>
<event>
 4    1  0.1043382E-007  0.7430527E+03  0.7818608E-02  0.9851142E-01
          1   -1    0    0  501    0  0.00000000000E+00  0.00000000000E+00  0.19227655120E+04  0.19227655120E+04  0.50400000000E-02 0. -1.
         -1   -1    0    0    0  501 -0.00000000000E+00 -0.00000000000E+00 -0.34928917162E+03  0.34928917166E+03  0.50400000000E-02 0.  1.
    8880023    1    1    2    0    0  0.35010599147E+02  0.34218615426E+03  0.98206865356E+02  0.74951444341E+03  0.65864270000E+03 0.  1.
    8880022    1    1    2    0    0 -0.35010599147E+02 -0.34218615426E+03  0.14752694750E+04  0.15225402403E+04  0.15294330000E+03 0.  0.
<mgrwt>
<rscale>  0 0.62688705E+03</rscale>
<asrwt>0</asrwt>
<pdfrwt beam="1">  1        1 0.29581008E+00 0.74305270E+03</pdfrwt>
<pdfrwt beam="2">  1       -1 0.53736796E-01 0.74305270E+03</pdfrwt>
<totfact> 0.12274153E+01</totfact>
</mgrwt>
</event>
<event>
 4    1  0.1043382E-007  0.6903833E+03  0.7818608E-02  0.1003971E+00
         -1   -1    0    0    0  501 -0.00000000000E+00  0.00000000000E+00  0.14254038590E+03  0.14254038599E+03  0.50400000000E-02 0.  1.
          1   -1    0    0  501    0  0.00000000000E+00 -0.00000000000E+00 -0.16094141281E+04  0.16094141281E+04  0.50400000000E-02 0. -1.
    8880023    1    1    2    0    0 -0.17473952345E+03  0.11083754636E+03 -0.11753639119E+04  0.13631248638E+04  0.65864270000E+03 0. -1.
    8880022    1    1    2    0    0  0.17473952345E+03 -0.11083754636E+03 -0.29150983030E+03  0.38882965025E+03  0.15294330000E+03 0.  1.
<mgrwt>
<rscale>  0 0.53942810E+03</rscale>
<asrwt>0</asrwt>
<pdfrwt beam="1">  1        1 0.24760216E+00 0.69038328E+03</pdfrwt>
<pdfrwt beam="2">  1       -1 0.21929291E-01 0.69038328E+03</pdfrwt>
<totfact> 0.99139939E+01</totfact>
</mgrwt>
</event>
<event>
 4    1  0.1043382E-007  0.6638074E+03  0.7818608E-02  0.1020556E+00
          1   -1    0    0  501    0  0.00000000000E+00  0.00000000000E+00  0.12151068655E+04  0.12151068655E+04  0.50400000000E-02 0. -1.
         -1   -1    0    0    0  501 -0.00000000000E+00 -0.00000000000E+00 -0.16015197237E+03  0.16015197245E+03  0.50400000000E-02 0.  1.
    8880023    1    1    2    0    0  0.72639749851E+02 -0.39414155879E+02  0.62603229453E+03  0.91244542248E+03  0.65864270000E+03 0.  1.
    8880022    1    1    2    0    0 -0.72639749851E+02  0.39414155879E+02  0.42892259858E+03  0.46281341546E+03  0.15294330000E+03 0.  0.
<mgrwt>
<rscale>  0 0.47486629E+03</rscale>
<asrwt>0</asrwt>
<pdfrwt beam="1">  1        1 0.18693952E+00 0.66380736E+03</pdfrwt>
<pdfrwt beam="2">  1       -1 0.24638765E-01 0.66380736E+03</pdfrwt>
<totfact> 0.15316848E+02</totfact>
</mgrwt>
</event>
<event>
 4    1  0.1043382E-007  0.1048294E+04  0.7818608E-02  0.9320934E-01
          1   -1    0    0  501    0  0.00000000000E+00  0.00000000000E+00  0.15177240111E+04  0.15177240111E+04  0.50400000000E-02 0. -1.
         -1   -1    0    0    0  501 -0.00000000000E+00 -0.00000000000E+00 -0.10332774681E+04  0.10332774681E+04  0.50400000000E-02 0.  1.
    8880023    1    1    2    0    0 -0.70281669790E+03 -0.41371459342E+03 -0.58259399260E+03  0.11993069007E+04  0.65864270000E+03 0.  0.
    8880022    1    1    2    0    0  0.70281669790E+03  0.41371459342E+03  0.10670405356E+04  0.13516945784E+04  0.15294330000E+03 0.  0.
<mgrwt>
<rscale>  0 0.98878229E+03</rscale>
<asrwt>0</asrwt>
<pdfrwt beam="1">  1        1 0.23349600E+00 0.10482945E+04</pdfrwt>
<pdfrwt beam="2">  1       -1 0.15896576E+00 0.10482945E+04</pdfrwt>
<totfact> 0.18907834E+00</totfact>
</mgrwt>
</event>
<event>
 4    1  0.1043382E-007  0.1586378E+04  0.7818608E-02  0.8850933E-01
         -1   -1    0    0    0  501 -0.00000000000E+00  0.00000000000E+00  0.40031480902E+04  0.40031480902E+04  0.50400000000E-02 0.  1.
          1   -1    0    0  501    0  0.00000000000E+00 -0.00000000000E+00 -0.10031983232E+04  0.10031983232E+04  0.50400000000E-02 0. -1.
    8880023    1    1    2    0    0  0.11583702917E+04 -0.86079170411E+03  0.31703627218E+04  0.35451084729E+04  0.65864270000E+03 0.  0.
    8880022    1    1    2    0    0 -0.11583702917E+04  0.86079170411E+03 -0.17041295474E+03  0.14612379405E+04  0.15294330000E+03 0.  0.
<mgrwt>
<rscale>  0 0.15514643E+04</rscale>
<asrwt>0</asrwt>
<pdfrwt beam="1">  1        1 0.15433821E+00 0.15863777E+04</pdfrwt>
<pdfrwt beam="2">  1       -1 0.61586893E+00 0.15863777E+04</pdfrwt>
<totfact> 0.52536540E-03</totfact>
</mgrwt>
</event>
<event>
 4    1  0.1043382E-007  0.8276593E+03  0.7818608E-02  0.9653904E-01
         -1   -1    0    0    0  501 -0.00000000000E+00  0.00000000000E+00  0.27005688515E+03  0.27005688519E+03  0.50400000000E-02 0.  1.
          1   -1    0    0  501    0  0.00000000000E+00 -0.00000000000E+00 -0.23009094714E+04  0.23009094714E+04  0.50400000000E-02 0. -1.
    8880023    1    1    2    0    0  0.43592328446E+03  0.24734702085E+03 -0.53384350633E+03  0.98489022443E+03  0.65864270000E+03 0.  0.
    8880022    1    1    2    0    0 -0.43592328446E+03 -0.24734702085E+03 -0.14970090799E+04  0.15860761321E+04  0.15294330000E+03 0.  0.
<mgrwt>
<rscale>  0 0.73828920E+03</rscale>
<asrwt>0</asrwt>
<pdfrwt beam="1">  1        1 0.35398606E+00 0.82765927E+03</pdfrwt>
<pdfrwt beam="2">  1       -1 0.41547215E-01 0.82765927E+03</pdfrwt>
<totfact> 0.10952368E+01</totfact>
</mgrwt>
</event>
<event>
 4    1  0.1227663E-007  0.7558917E+03  0.7818608E-02  0.9815862E-01
          1   -1    0    0  501    0  0.00000000000E+00  0.00000000000E+00  0.13559623978E+04  0.13559623978E+04  0.50400000000E-02 0. -1.
         -1   -1    0    0    0  501 -0.00000000000E+00 -0.00000000000E+00 -0.16932961466E+04  0.16932961466E+04  0.50400000000E-02 0.  1.
    8880023    1    1    2    0    0  0.37032219816E+03 -0.20579576307E+02 -0.15756456983E+04  0.17475787885E+04  0.65864270000E+03 0.  1.
    8880022    1    1    2    0    0 -0.37032219816E+03  0.20579576307E+02  0.12383119495E+04  0.13016797558E+04  0.15294330000E+03 0.  0.
<mgrwt>
<rscale>  0 0.64518209E+03</rscale>
<asrwt>0</asrwt>
<pdfrwt beam="1">  1        1 0.20860960E+00 0.75589170E+03</pdfrwt>
<pdfrwt beam="2">  1       -1 0.26050710E+00 0.75589170E+03</pdfrwt>
<totfact> 0.52053557E-01</totfact>
</mgrwt>
</event>
<event>
 4    1  0.1043382E-007  0.1141808E+04  0.7818608E-02  0.9215876E-01
          1   -1    0    0  501    0  0.00000000000E+00  0.00000000000E+00  0.20705937415E+04  0.20705937415E+04  0.50400000000E-02 0. -1.
         -1   -1    0    0    0  501 -0.00000000000E+00 -0.00000000000E+00 -0.74888010534E+03  0.74888010535E+03  0.50400000000E-02 0.  1.
    8880023    1    1    2    0    0 -0.59614661596E+03 -0.71730400991E+03  0.14714931915E+04  0.18625300667E+04  0.65864270000E+03 0.  0.
    8880022    1    1    2    0    0  0.59614661596E+03  0.71730400991E+03 -0.14977955528E+03  0.95694378024E+03  0.15294330000E+03 0.  0.
<mgrwt>
<rscale>  0 0.10891056E+04</rscale>
<asrwt>0</asrwt>
<pdfrwt beam="1">  1        1 0.31855288E+00 0.11418082E+04</pdfrwt>
<pdfrwt beam="2">  1       -1 0.11521232E+00 0.11418082E+04</pdfrwt>
<totfact> 0.18100326E+00</totfact>
</mgrwt>
</event>
<event>
 4    1  0.1043382E-007  0.8249590E+03  0.7818608E-02  0.9659221E-01
         -1   -1    0    0    0  501 -0.00000000000E+00  0.00000000000E+00  0.41411447585E+03  0.41411447588E+03  0.50400000000E-02 0.  1.
          1   -1    0    0  501    0  0.00000000000E+00 -0.00000000000E+00 -0.27762731289E+04  0.27762731289E+04  0.50400000000E-02 0. -1.
    8880023    1    1    2    0    0  0.24853652842E+03  0.43008931058E+03 -0.56520338606E+02  0.82689296525E+03  0.65864270000E+03 0.  1.
    8880022    1    1    2    0    0 -0.24853652842E+03 -0.43008931058E+03 -0.23056383145E+04  0.23634946395E+04  0.15294330000E+03 0.  0.
<mgrwt>
<rscale>  0 0.73497519E+03</rscale>
<asrwt>0</asrwt>
<pdfrwt beam="1">  1        1 0.42711893E+00 0.82495905E+03</pdfrwt>
<pdfrwt beam="2">  1       -1 0.63709921E-01 0.82495905E+03</pdfrwt>
<totfact> 0.22812463E+00</totfact>
</mgrwt>
</event>
<event>
 4    1  0.1043382E-007  0.6653370E+03  0.7818608E-02  0.1019252E+00
          1   -1    0    0  501    0  0.00000000000E+00  0.00000000000E+00  0.53396682201E+03  0.53396682203E+03  0.50400000000E-02 0. -1.
         -1   -1    0    0    0  501 -0.00000000000E+00 -0.00000000000E+00 -0.70027323126E+03  0.70027323127E+03  0.50400000000E-02 0.  1.
    8880023    1    1    2    0    0  0.48197817806E+02 -0.80870441369E+02 -0.51543044532E+03  0.84163044631E+03  0.65864270000E+03 0.  1.
    8880022    1    1    2    0    0 -0.48197817806E+02  0.80870441369E+02  0.34912403607E+03  0.39260960700E+03  0.15294330000E+03 0.  0.
<mgrwt>
<rscale>  0 0.47957372E+03</rscale>
<asrwt>0</asrwt>
<pdfrwt beam="1">  1        1 0.82148742E-01 0.66533696E+03</pdfrwt>
<pdfrwt beam="2">  1       -1 0.10773434E+00 0.66533696E+03</pdfrwt>
<totfact> 0.33467431E+01</totfact>
</mgrwt>
</event>
<event>
 4    1  0.1043382E-007  0.6848292E+03  0.7818608E-02  0.1006714E+00
          1   -1    0    0  501    0  0.00000000000E+00  0.00000000000E+00  0.74893633054E+03  0.74893633056E+03  0.50400000000E-02 0. -1.
         -1   -1    0    0    0  501 -0.00000000000E+00 -0.00000000000E+00 -0.11633533524E+04  0.11633533524E+04  0.50400000000E-02 0.  1.
    8880023    1    1    2    0    0  0.15050790261E+03 -0.11192931193E+03 -0.10379046686E+04  0.12434778273E+04  0.65864270000E+03 0.  1.
    8880022    1    1    2    0    0 -0.15050790261E+03  0.11192931193E+03  0.62348764675E+03  0.66881185567E+03  0.15294330000E+03 0.  0.
<mgrwt>
<rscale>  0 0.52801756E+03</rscale>
<asrwt>0</asrwt>
<pdfrwt beam="1">  1        1 0.11522097E+00 0.68482918E+03</pdfrwt>
<pdfrwt beam="2">  1       -1 0.17897744E+00 0.68482918E+03</pdfrwt>
<totfact> 0.54334351E+00</totfact>
</mgrwt>
</event>
<event>
 4    1  0.1043382E-007  0.7528965E+03  0.7818608E-02  0.9823857E-01
          1   -1    0    0  501    0  0.00000000000E+00  0.00000000000E+00  0.12444504423E+04  0.12444504423E+04  0.50400000000E-02 0. -1.
         -1   -1    0    0    0  501 -0.00000000000E+00 -0.00000000000E+00 -0.38103009170E+03  0.38103009173E+03  0.50400000000E-02 0.  1.
    8880023    1    1    2    0    0  0.70842454944E+01 -0.36468174453E+03  0.91897141234E+02  0.75848418056E+03  0.65864270000E+03 0.  0.
    8880022    1    1    2    0    0 -0.70842454944E+01  0.36468174453E+03  0.77152320934E+03  0.86699635345E+03  0.15294330000E+03 0.  0.
<mgrwt>
<rscale>  0 0.64097793E+03</rscale>
<asrwt>0</asrwt>
<pdfrwt beam="1">  1        1 0.19145391E+00 0.75289652E+03</pdfrwt>
<pdfrwt beam="2">  1       -1 0.58620015E-01 0.75289652E+03</pdfrwt>
<totfact> 0.30095835E+01</totfact>
</mgrwt>
</event>
<event>
 4    1  0.1043382E-007  0.7966355E+03  0.7818608E-02  0.9718119E-01
         -1   -1    0    0    0  501 -0.00000000000E+00  0.00000000000E+00  0.32236511513E+03  0.32236511517E+03  0.50400000000E-02 0.  1.
          1   -1    0    0  501    0  0.00000000000E+00 -0.00000000000E+00 -0.17078826338E+04  0.17078826338E+04  0.50400000000E-02 0. -1.
    8880023    1    1    2    0    0  0.26931151895E+03 -0.35817481146E+03 -0.13342414573E+04  0.15539718024E+04  0.65864270000E+03 0. -1.
    8880022    1    1    2    0    0 -0.26931151895E+03  0.35817481146E+03 -0.51276061279E+02  0.47627594657E+03  0.15294330000E+03 0.  0.
<mgrwt>
<rscale>  0 0.69948193E+03</rscale>
<asrwt>0</asrwt>
<pdfrwt beam="1">  1        1 0.26275117E+00 0.79663549E+03</pdfrwt>
<pdfrwt beam="2">  1       -1 0.49594634E-01 0.79663549E+03</pdfrwt>
<totfact> 0.19782170E+01</totfact>
</mgrwt>
</event>
<event>
 4    1  0.1043382E-007  0.9094411E+03  0.7818608E-02  0.9511042E-01
          1   -1    0    0  501    0  0.00000000000E+00  0.00000000000E+00  0.18838723402E+04  0.18838723402E+04  0.50400000000E-02 0. -1.
         -1   -1    0    0    0  501 -0.00000000000E+00 -0.00000000000E+00 -0.93846421379E+03  0.93846421381E+03  0.50400000000E-02 0.  1.
    8880023    1    1    2    0    0  0.58849592300E+03  0.21666918255E+03 -0.63899827718E+03  0.11114863879E+04  0.65864270000E+03 0.  1.
    8880022    1    1    2    0    0 -0.58849592300E+03 -0.21666918255E+03  0.15844064036E+04  0.17108501661E+04  0.15294330000E+03 0.  0.
<mgrwt>
<rscale>  0 0.83474587E+03</rscale>
<asrwt>0</asrwt>
<pdfrwt beam="1">  1        1 0.28982651E+00 0.90944114E+03</pdfrwt>
<pdfrwt beam="2">  1       -1 0.14437911E+00 0.90944114E+03</pdfrwt>
<totfact> 0.14140466E+00</totfact>
</mgrwt>
</event>
<event>
 4    1  0.1043382E-007  0.6968952E+03  0.7818608E-02  0.1001033E+00
         -1   -1    0    0    0  501 -0.00000000000E+00  0.00000000000E+00  0.61189407786E+03  0.61189407788E+03  0.50400000000E-02 0.  1.
          1   -1    0    0  501    0  0.00000000000E+00 -0.00000000000E+00 -0.41841019603E+03  0.41841019606E+03  0.50400000000E-02 0. -1.
    8880023    1    1    2    0    0 -0.18875625381E+03  0.12737249024E+03  0.26703989243E+03  0.74630636138E+03  0.65864270000E+03 0.  0.
    8880022    1    1    2    0    0  0.18875625381E+03 -0.12737249024E+03 -0.73556010604E+02  0.28399791256E+03  0.15294330000E+03 0.  0.
<mgrwt>
<rscale>  0 0.55199458E+03</rscale>
<asrwt>0</asrwt>
<pdfrwt beam="1">  1        1 0.64370799E-01 0.69689517E+03</pdfrwt>
<pdfrwt beam="2">  1       -1 0.94137550E-01 0.69689517E+03</pdfrwt>
<totfact> 0.63221949E+01</totfact>
</mgrwt>
</event>
<event>
 4    1  0.1268283E-007  0.8731305E+03  0.7818608E-02  0.9570620E-01
         -1   -1    0    0    0  501 -0.00000000000E+00  0.00000000000E+00  0.14312872689E+04  0.14312872689E+04  0.50400000000E-02 0.  1.
          1   -1    0    0  501    0  0.00000000000E+00 -0.00000000000E+00 -0.13752431586E+04  0.13752431586E+04  0.50400000000E-02 0. -1.
    8880023    1    1    2    0    0 -0.45448730501E+03 -0.34926781077E+03  0.12199171014E+04  0.15001848735E+04  0.65864270000E+03 0.  1.
    8880022    1    1    2    0    0  0.45448730501E+03  0.34926781077E+03 -0.11638729911E+04  0.13063455540E+04  0.15294330000E+03 0.  0.
<mgrwt>
<rscale>  0 0.79271615E+03</rscale>
<asrwt>0</asrwt>
<pdfrwt beam="1">  1        1 0.21157587E+00 0.87313053E+03</pdfrwt>
<pdfrwt beam="2">  1       -1 0.22019804E+00 0.87313053E+03</pdfrwt>
<totfact> 0.90264668E-01</totfact>
</mgrwt>
</event>
<event>
 4    1  0.1043382E-007  0.8196591E+03  0.7818608E-02  0.9669798E-01
         -1   -1    0    0    0  501 -0.00000000000E+00  0.00000000000E+00  0.98670749082E+03  0.98670749083E+03  0.50400000000E-02 0.  1.
          1   -1    0    0  501    0  0.00000000000E+00 -0.00000000000E+00 -0.87088193396E+03  0.87088193397E+03  0.50400000000E-02 0. -1.
    8880023    1    1    2    0    0  0.48788315575E+03 -0.89874765648E+00  0.70240592770E+03  0.10794512842E+04  0.65864270000E+03 0.  1.
    8880022    1    1    2    0    0 -0.48788315575E+03  0.89874765648E+00 -0.58658037084E+03  0.77813814062E+03  0.15294330000E+03 0.  0.
<mgrwt>
<rscale>  0 0.72843833E+03</rscale>
<asrwt>0</asrwt>
<pdfrwt beam="1">  1        1 0.13398184E+00 0.81965907E+03</pdfrwt>
<pdfrwt beam="2">  1       -1 0.15180115E+00 0.81965907E+03</pdfrwt>
<totfact> 0.66541190E+00</totfact>
</mgrwt>
</event>
<event>
 4    1  0.1043382E-007  0.7514522E+03  0.7818608E-02  0.9827762E-01
          1   -1    0    0  501    0  0.00000000000E+00  0.00000000000E+00  0.18585663335E+04  0.18585663335E+04  0.50400000000E-02 0. -1.
         -1   -1    0    0    0  501 -0.00000000000E+00 -0.00000000000E+00 -0.69663981697E+03  0.69663981699E+03  0.50400000000E-02 0.  1.
    8880023    1    1    2    0    0  0.25080160637E+03  0.26070808349E+03 -0.46356677360E+03  0.88293516772E+03  0.65864270000E+03 0.  1.
    8880022    1    1    2    0    0 -0.25080160637E+03 -0.26070808349E+03  0.16254932901E+04  0.16722709828E+04  0.15294330000E+03 0.  0.
<mgrwt>
<rscale>  0 0.63893739E+03</rscale>
<asrwt>0</asrwt>
<pdfrwt beam="1">  1        1 0.28593328E+00 0.75145217E+03</pdfrwt>
<pdfrwt beam="2">  1       -1 0.10717536E+00 0.75145217E+03</pdfrwt>
<totfact> 0.31657828E+00</totfact>
</mgrwt>
</event>
<event>
 4    1  0.1043382E-007  0.6792506E+03  0.7818608E-02  0.1009751E+00
          1   -1    0    0  501    0  0.00000000000E+00  0.00000000000E+00  0.60903686328E+03  0.60903686330E+03  0.50400000000E-02 0. -1.
         -1   -1    0    0    0  501 -0.00000000000E+00 -0.00000000000E+00 -0.34230606283E+03  0.34230606287E+03  0.50400000000E-02 0.  1.
    8880023    1    1    2    0    0 -0.12063821465E+03  0.11409488869E+03  0.14384681736E+03  0.69431501178E+03  0.65864270000E+03 0.  0.
    8880022    1    1    2    0    0  0.12063821465E+03 -0.11409488869E+03  0.12288398309E+03  0.25702791439E+03  0.15294330000E+03 0.  0.
<mgrwt>
<rscale>  0 0.51573818E+03</rscale>
<asrwt>0</asrwt>
<pdfrwt beam="1">  1        1 0.93697978E-01 0.67925064E+03</pdfrwt>
<pdfrwt beam="2">  1       -1 0.52662472E-01 0.67925064E+03</pdfrwt>
<totfact> 0.12441886E+02</totfact>
</mgrwt>
</event>
<event>
 4    1  0.1043382E-007  0.6644063E+03  0.7818608E-02  0.1020037E+00
         -1   -1    0    0    0  501 -0.00000000000E+00  0.00000000000E+00  0.40540217035E+03  0.40540217039E+03  0.50400000000E-02 0.  1.
          1   -1    0    0  501    0  0.00000000000E+00 -0.00000000000E+00 -0.64636524578E+03  0.64636524580E+03  0.50400000000E-02 0. -1.
    8880023    1    1    2    0    0  0.59594520128E+02 -0.63827598140E+02  0.96242228854E+02  0.67134063037E+03  0.65864270000E+03 0.  1.
    8880022    1    1    2    0    0 -0.59594520128E+02  0.63827598140E+02 -0.33720530428E+03  0.38042678581E+03  0.15294330000E+03 0.  0.
<mgrwt>
<rscale>  0 0.47673328E+03</rscale>
<asrwt>0</asrwt>
<pdfrwt beam="1">  1        1 0.99440807E-01 0.66440626E+03</pdfrwt>
<pdfrwt beam="2">  1       -1 0.62369565E-01 0.66440626E+03</pdfrwt>
<totfact> 0.82196132E+01</totfact>
</mgrwt>
</event>
<event>
 4    1  0.1043382E-007  0.9456198E+03  0.7818608E-02  0.9456444E-01
          1   -1    0    0  501    0  0.00000000000E+00  0.00000000000E+00  0.13506154079E+04  0.13506154079E+04  0.50400000000E-02 0. -1.
         -1   -1    0    0    0  501 -0.00000000000E+00 -0.00000000000E+00 -0.50051510406E+03  0.50051510409E+03  0.50400000000E-02 0.  1.
    8880023    1    1    2    0    0  0.67408975691E+03 -0.77392112722E+02  0.43228092476E+03  0.10397420563E+04  0.65864270000E+03 0.  1.
    8880022    1    1    2    0    0 -0.67408975691E+03  0.77392112722E+02  0.41781937908E+03  0.81138845569E+03  0.15294330000E+03 0. -1.
<mgrwt>
<rscale>  0 0.87572590E+03</rscale>
<asrwt>0</asrwt>
<pdfrwt beam="1">  1        1 0.20778698E+00 0.94561977E+03</pdfrwt>
<pdfrwt beam="2">  1       -1 0.77002325E-01 0.94561977E+03</pdfrwt>
<totfact> 0.14228643E+01</totfact>
</mgrwt>
</event>
<event>
 4    1  0.1043382E-007  0.1082794E+04  0.7818608E-02  0.9280459E-01
         -1   -1    0    0    0  501 -0.00000000000E+00  0.00000000000E+00  0.78577850017E+03  0.78577850019E+03  0.50400000000E-02 0.  1.
          1   -1    0    0  501    0  0.00000000000E+00 -0.00000000000E+00 -0.13384870974E+04  0.13384870974E+04  0.50400000000E-02 0. -1.
    8880023    1    1    2    0    0  0.84177968975E+03  0.17332086915E+03 -0.62173866187E+03  0.12486001520E+04  0.65864270000E+03 0.  0.
    8880022    1    1    2    0    0 -0.84177968975E+03 -0.17332086915E+03  0.69030064607E+02  0.87566544559E+03  0.15294330000E+03 0.  0.
<mgrwt>
<rscale>  0 0.10260195E+04</rscale>
<asrwt>0</asrwt>
<pdfrwt beam="1">  1        1 0.20592109E+00 0.10827942E+04</pdfrwt>
<pdfrwt beam="2">  1       -1 0.12088900E+00 0.10827942E+04</pdfrwt>
<totfact> 0.51353328E+00</totfact>
</mgrwt>
</event>
<event>
 4    1  0.1043382E-007  0.7287154E+03  0.7818608E-02  0.9894129E-01
          1   -1    0    0  501    0  0.00000000000E+00  0.00000000000E+00  0.10279994684E+04  0.10279994684E+04  0.50400000000E-02 0. -1.
         -1   -1    0    0    0  501 -0.00000000000E+00 -0.00000000000E+00 -0.44832192112E+03  0.44832192114E+03  0.50400000000E-02 0.  1.
    8880023    1    1    2    0    0  0.22954512960E+03  0.21100944917E+03 -0.77701775690E+02  0.73284631839E+03  0.65864270000E+03 0. -1.
    8880022    1    1    2    0    0 -0.22954512960E+03 -0.21100944917E+03  0.65737932297E+03  0.74347507117E+03  0.15294330000E+03 0.  0.
<mgrwt>
<rscale>  0 0.60546676E+03</rscale>
<asrwt>0</asrwt>
<pdfrwt beam="1">  1        1 0.15815376E+00 0.72871542E+03</pdfrwt>
<pdfrwt beam="2">  1       -1 0.68972604E-01 0.72871542E+03</pdfrwt>
<totfact> 0.31507718E+01</totfact>
</mgrwt>
</event>
<event>
 4    1  0.1043382E-007  0.9938767E+03  0.7818608E-02  0.9389613E-01
         -1   -1    0    0    0  501 -0.00000000000E+00  0.00000000000E+00  0.31811191474E+04  0.31811191474E+04  0.50400000000E-02 0.  1.
          1   -1    0    0  501    0  0.00000000000E+00 -0.00000000000E+00 -0.68473574024E+03  0.68473574025E+03  0.50400000000E-02 0. -1.
    8880023    1    1    2    0    0 -0.60612161151E+03 -0.43196910116E+03  0.28568819299E+04  0.30248248346E+04  0.65864270000E+03 0.  0.
    8880022    1    1    2    0    0  0.60612161151E+03  0.43196910116E+03 -0.36049852272E+03  0.84103005309E+03  0.15294330000E+03 0.  0.
<mgrwt>
<rscale>  0 0.92935445E+03</rscale>
<asrwt>0</asrwt>
<pdfrwt beam="1">  1        1 0.10534396E+00 0.99387671E+03</pdfrwt>
<pdfrwt beam="2">  1       -1 0.48940295E+00 0.99387671E+03</pdfrwt>
<totfact> 0.50350994E-02</totfact>
</mgrwt>
</event>
<event>
 4    1  0.1043382E-007  0.6824611E+03  0.7818608E-02  0.1007964E+00
          1   -1    0    0  501    0  0.00000000000E+00  0.00000000000E+00  0.10859577084E+04  0.10859577084E+04  0.50400000000E-02 0. -1.
         -1   -1    0    0    0  501 -0.00000000000E+00 -0.00000000000E+00 -0.22092150729E+03  0.22092150734E+03  0.50400000000E-02 0.  1.
    8880023    1    1    2    0    0  0.71794828648E+02  0.16367189128E+03  0.41408090854E+03  0.79825822294E+03  0.65864270000E+03 0.  0.
    8880022    1    1    2    0    0 -0.71794828648E+02 -0.16367189128E+03  0.45095529261E+03  0.50862099285E+03  0.15294330000E+03 0.  0.
<mgrwt>
<rscale>  0 0.52291738E+03</rscale>
<asrwt>0</asrwt>
<pdfrwt beam="1">  1        1 0.16707042E+00 0.68246113E+03</pdfrwt>
<pdfrwt beam="2">  1       -1 0.33987925E-01 0.68246113E+03</pdfrwt>
<totfact> 0.10888445E+02</totfact>
</mgrwt>
</event>
<event>
 4    1  0.1043382E-007  0.6643271E+03  0.7818608E-02  0.1020105E+00
          1   -1    0    0  501    0  0.00000000000E+00  0.00000000000E+00  0.27343777526E+04  0.27343777526E+04  0.50400000000E-02 0. -1.
         -1   -1    0    0    0  501 -0.00000000000E+00 -0.00000000000E+00 -0.91520930419E+02  0.91520930557E+02  0.50400000000E-02 0.  1.
    8880023    1    1    2    0    0 -0.45735622557E+02  0.73678890740E+02  0.11936358701E+04  0.13660516545E+04  0.65864270000E+03 0.  1.
    8880022    1    1    2    0    0  0.45735622557E+02 -0.73678890740E+02  0.14492209522E+04  0.14598470287E+04  0.15294330000E+03 0.  0.
<mgrwt>
<rscale>  0 0.47648841E+03</rscale>
<asrwt>0</asrwt>
<pdfrwt beam="1">  1        1 0.42067353E+00 0.66432713E+03</pdfrwt>
<pdfrwt beam="2">  1       -1 0.14080142E-01 0.66432713E+03</pdfrwt>
<totfact> 0.35958419E+01</totfact>
</mgrwt>
</event>
<event>
 4    1  0.1043382E-007  0.7214527E+03  0.7818608E-02  0.9917701E-01
         -1   -1    0    0    0  501 -0.00000000000E+00  0.00000000000E+00  0.27527620681E+03  0.27527620686E+03  0.50400000000E-02 0.  1.
          1   -1    0    0  501    0  0.00000000000E+00 -0.00000000000E+00 -0.12005358146E+04  0.12005358146E+04  0.50400000000E-02 0. -1.
    8880023    1    1    2    0    0  0.96775306734E+02  0.27806164986E+03 -0.32783759968E+03  0.79244648977E+03  0.65864270000E+03 0.  1.
    8880022    1    1    2    0    0 -0.96775306734E+02 -0.27806164986E+03 -0.59742200809E+03  0.68336553167E+03  0.15294330000E+03 0.  0.
<mgrwt>
<rscale>  0 0.59411041E+03</rscale>
<asrwt>0</asrwt>
<pdfrwt beam="1">  1        1 0.18469781E+00 0.72145266E+03</pdfrwt>
<pdfrwt beam="2">  1       -1 0.42350186E-01 0.72145266E+03</pdfrwt>
<totfact> 0.60120689E+01</totfact>
</mgrwt>
</event>
<event>
 4    1  0.1043382E-007  0.8234944E+03  0.7818608E-02  0.9662125E-01
         -1   -1    0    0    0  501 -0.00000000000E+00  0.00000000000E+00  0.57889293689E+03  0.57889293691E+03  0.50400000000E-02 0.  1.
          1   -1    0    0  501    0  0.00000000000E+00 -0.00000000000E+00 -0.17317497625E+04  0.17317497625E+04  0.50400000000E-02 0. -1.
    8880023    1    1    2    0    0 -0.19592991440E+03 -0.45381088969E+03  0.21255212723E+03  0.85048307921E+03  0.65864270000E+03 0.  1.
    8880022    1    1    2    0    0  0.19592991440E+03  0.45381088969E+03 -0.13654089529E+04  0.14601596202E+04  0.15294330000E+03 0.  0.
<mgrwt>
<rscale>  0 0.73317308E+03</rscale>
<asrwt>0</asrwt>
<pdfrwt beam="1">  1        1 0.26642304E+00 0.82349442E+03</pdfrwt>
<pdfrwt beam="2">  1       -1 0.89060452E-01 0.82349442E+03</pdfrwt>
<totfact> 0.57875509E+00</totfact>
</mgrwt>
</event>
<event>
 4    1  0.1043382E-007  0.6671411E+03  0.7818608E-02  0.1017801E+00
          1   -1    0    0  501    0  0.00000000000E+00  0.00000000000E+00  0.12032503909E+04  0.12032503909E+04  0.50400000000E-02 0. -1.
         -1   -1    0    0    0  501 -0.00000000000E+00 -0.00000000000E+00 -0.84031174152E+03  0.84031174154E+03  0.50400000000E-02 0.  1.
    8880023    1    1    2    0    0 -0.68212436638E+01 -0.10592672943E+03 -0.69850718109E+03  0.96591381068E+03  0.65864270000E+03 0.  1.
    8880022    1    1    2    0    0  0.68212436638E+01  0.10592672943E+03  0.10614458305E+04  0.10776483218E+04  0.15294330000E+03 0.  0.
<mgrwt>
<rscale>  0 0.48488608E+03</rscale>
<asrwt>0</asrwt>
<pdfrwt beam="1">  1        1 0.18511544E+00 0.66714107E+03</pdfrwt>
<pdfrwt beam="2">  1       -1 0.12927873E+00 0.66714107E+03</pdfrwt>
<totfact> 0.57505038E+00</totfact>
</mgrwt>
</event>
<event>
 4    1  0.1043382E-007  0.9987019E+03  0.7818608E-02  0.9383258E-01
         -1   -1    0    0    0  501 -0.00000000000E+00  0.00000000000E+00  0.11000497801E+04  0.11000497801E+04  0.50400000000E-02 0.  1.
          1   -1    0    0  501    0  0.00000000000E+00 -0.00000000000E+00 -0.16437128430E+04  0.16437128430E+04  0.50400000000E-02 0. -1.
    8880023    1    1    2    0    0  0.40617068467E+03 -0.63136408041E+03  0.74402827264E+03  0.12453848818E+04  0.65864270000E+03 0.  1.
    8880022    1    1    2    0    0 -0.40617068467E+03  0.63136408041E+03 -0.12876913355E+04  0.14983777413E+04  0.15294330000E+03 0.  0.
<mgrwt>
<rscale>  0 0.93466385E+03</rscale>
<asrwt>0</asrwt>
<pdfrwt beam="1">  1        1 0.25287890E+00 0.99870187E+03</pdfrwt>
<pdfrwt beam="2">  1       -1 0.16923843E+00 0.99870187E+03</pdfrwt>
<totfact> 0.13078242E+00</totfact>
</mgrwt>
</event>
<event>
 4    1  0.1043382E-007  0.6900038E+03  0.7818608E-02  0.1004151E+00
         -1   -1    0    0    0  501 -0.00000000000E+00  0.00000000000E+00  0.49205594599E+03  0.49205594602E+03  0.50400000000E-02 0.  1.
          1   -1    0    0  501    0  0.00000000000E+00 -0.00000000000E+00 -0.57842608444E+03  0.57842608446E+03  0.50400000000E-02 0. -1.
    8880023    1    1    2    0    0 -0.19787764459E+03 -0.56030841752E+02  0.16717426319E+03  0.70996651892E+03  0.65864270000E+03 0.  1.
    8880022    1    1    2    0    0  0.19787764459E+03  0.56030841752E+02 -0.25354440164E+03  0.36051551155E+03  0.15294330000E+03 0.  0.
<mgrwt>
<rscale>  0 0.53867059E+03</rscale>
<asrwt>0</asrwt>
<pdfrwt beam="1">  1        1 0.88988628E-01 0.69000379E+03</pdfrwt>
<pdfrwt beam="2">  1       -1 0.75700915E-01 0.69000379E+03</pdfrwt>
<totfact> 0.64919652E+01</totfact>
</mgrwt>
</event>
<event>
 4    1  0.1294815E-007  0.7331403E+03  0.7818608E-02  0.9880399E-01
         -1   -1    0    0    0  501 -0.00000000000E+00  0.00000000000E+00  0.92859540478E+03  0.92859540479E+03  0.50400000000E-02 0.  1.
          1   -1    0    0  501    0  0.00000000000E+00 -0.00000000000E+00 -0.20959003609E+04  0.20959003609E+04  0.50400000000E-02 0. -1.
    8880023    1    1    2    0    0 -0.15751516372E+03 -0.28084422976E+03  0.76499954226E+03  0.10595843591E+04  0.65864270000E+03 0.  1.
    8880022    1    1    2    0    0  0.15751516372E+03  0.28084422976E+03 -0.19323044984E+04  0.19649114066E+04  0.15294330000E+03 0.  0.
<mgrwt>
<rscale>  0 0.61220706E+03</rscale>
<asrwt>0</asrwt>
<pdfrwt beam="1">  1        1 0.32244621E+00 0.73314031E+03</pdfrwt>
<pdfrwt beam="2">  1       -1 0.14286083E+00 0.73314031E+03</pdfrwt>
<totfact> 0.10841271E+00</totfact>
</mgrwt>
</event>
<event>
 4    1  0.1043382E-007  0.8504955E+03  0.7818608E-02  0.9610699E-01
         -1   -1    0    0    0  501 -0.00000000000E+00  0.00000000000E+00  0.64546086905E+03  0.64546086907E+03  0.50400000000E-02 0.  1.
          1   -1    0    0  501    0  0.00000000000E+00 -0.00000000000E+00 -0.10918073626E+04  0.10918073626E+04  0.50400000000E-02 0. -1.
    8880023    1    1    2    0    0 -0.44517502887E+03  0.30224428309E+03  0.20884107944E+03  0.87576093525E+03  0.65864270000E+03 0.  1.
    8880022    1    1    2    0    0  0.44517502887E+03 -0.30224428309E+03 -0.65518757298E+03  0.86150729642E+03  0.15294330000E+03 0.  0.
<mgrwt>
<rscale>  0 0.76592085E+03</rscale>
<asrwt>0</asrwt>
<pdfrwt beam="1">  1        1 0.16797036E+00 0.85049551E+03</pdfrwt>
<pdfrwt beam="2">  1       -1 0.99301672E-01 0.85049551E+03</pdfrwt>
<totfact> 0.12695939E+01</totfact>
</mgrwt>
</event>
<event>
 4    1  0.1043382E-007  0.8239525E+03  0.7818608E-02  0.9661215E-01
          1   -1    0    0  501    0  0.00000000000E+00  0.00000000000E+00  0.25362369391E+04  0.25362369391E+04  0.50400000000E-02 0. -1.
         -1   -1    0    0    0  501 -0.00000000000E+00 -0.00000000000E+00 -0.17798085044E+03  0.17798085051E+03  0.50400000000E-02 0.  1.
    8880023    1    1    2    0    0 -0.32429680189E+03 -0.37405762758E+03  0.13821496638E+04  0.16091101342E+04  0.65864270000E+03 0. -1.
    8880022    1    1    2    0    0  0.32429680189E+03  0.37405762758E+03  0.97610642490E+03  0.11051076555E+04  0.15294330000E+03 0.  1.
<mgrwt>
<rscale>  0 0.73373707E+03</rscale>
<asrwt>0</asrwt>
<pdfrwt beam="1">  1        1 0.39019029E+00 0.82395251E+03</pdfrwt>
<pdfrwt beam="2">  1       -1 0.27381670E-01 0.82395251E+03</pdfrwt>
<totfact> 0.15896906E+01</totfact>
</mgrwt>
</event>
<event>
 4    1  0.1043382E-007  0.6865145E+03  0.7818608E-02  0.1005855E+00
         -1   -1    0    0    0  501 -0.00000000000E+00  0.00000000000E+00  0.31510045016E+03  0.31510045020E+03  0.50400000000E-02 0.  1.
          1   -1    0    0  501    0  0.00000000000E+00 -0.00000000000E+00 -0.16372894162E+04  0.16372894162E+04  0.50400000000E-02 0. -1.
    8880023    1    1    2    0    0  0.19228086324E+03  0.22803939613E+02 -0.86075061630E+02  0.69188949445E+03  0.65864270000E+03 0.  1.
    8880022    1    1    2    0    0 -0.19228086324E+03 -0.22803939613E+02 -0.12361139044E+04  0.12605003720E+04  0.15294330000E+03 0.  0.
<mgrwt>
<rscale>  0 0.53155698E+03</rscale>
<asrwt>0</asrwt>
<pdfrwt beam="1">  1        1 0.25189067E+00 0.68651450E+03</pdfrwt>
<pdfrwt beam="2">  1       -1 0.48476993E-01 0.68651450E+03</pdfrwt>
<totfact> 0.23387353E+01</totfact>
</mgrwt>
</event>
<event>
 4    1  0.1043382E-007  0.6728522E+03  0.7818608E-02  0.1013696E+00
         -1   -1    0    0    0  501 -0.00000000000E+00  0.00000000000E+00  0.29665328760E+03  0.29665328764E+03  0.50400000000E-02 0.  1.
          1   -1    0    0  501    0  0.00000000000E+00 -0.00000000000E+00 -0.74934358669E+03  0.74934358671E+03  0.50400000000E-02 0. -1.
    8880023    1    1    2    0    0  0.12175232705E+03 -0.64001999605E+02 -0.49584838237E+03  0.83582038122E+03  0.65864270000E+03 0. -1.
    8880022    1    1    2    0    0 -0.12175232705E+03  0.64001999605E+02  0.43158083280E+02  0.21017649313E+03  0.15294330000E+03 0.  0.
<mgrwt>
<rscale>  0 0.50031913E+03</rscale>
<asrwt>0</asrwt>
<pdfrwt beam="1">  1        1 0.11528363E+00 0.67285221E+03</pdfrwt>
<pdfrwt beam="2">  1       -1 0.45638968E-01 0.67285221E+03</pdfrwt>
<totfact> 0.11967055E+02</totfact>
</mgrwt>
</event>
<event>
 4    1  0.1043382E-007  0.8093659E+03  0.7818608E-02  0.9690899E-01
         -1   -1    0    0    0  501 -0.00000000000E+00  0.00000000000E+00  0.13767465378E+04  0.13767465378E+04  0.50400000000E-02 0.  1.
          1   -1    0    0  501    0  0.00000000000E+00 -0.00000000000E+00 -0.79087456497E+03  0.79087456499E+03  0.50400000000E-02 0. -1.
    8880023    1    1    2    0    0  0.14734682206E+03 -0.44671227370E+03  0.11570559212E+04  0.14120380846E+04  0.65864270000E+03 0.  0.
    8880022    1    1    2    0    0 -0.14734682206E+03  0.44671227370E+03 -0.57118394837E+03  0.75558301816E+03  0.15294330000E+03 0.  0.
<mgrwt>
<rscale>  0 0.71561238E+03</rscale>
<asrwt>0</asrwt>
<pdfrwt beam="1">  1        1 0.12167301E+00 0.80936589E+03</pdfrwt>
<pdfrwt beam="2">  1       -1 0.21180716E+00 0.80936589E+03</pdfrwt>
<totfact> 0.29020296E+00</totfact>
</mgrwt>
</event>
<event>
 4    1  0.1043382E-007  0.9450796E+03  0.7818608E-02  0.9457229E-01
         -1   -1    0    0    0  501 -0.00000000000E+00  0.00000000000E+00  0.60006564568E+03  0.60006564570E+03  0.50400000000E-02 0.  1.
          1   -1    0    0  501    0  0.00000000000E+00 -0.00000000000E+00 -0.13402724423E+04  0.13402724423E+04  0.50400000000E-02 0. -1.
    8880023    1    1    2    0    0 -0.66615141432E+03 -0.12493049558E+03 -0.28206159153E+02  0.94550046494E+03  0.65864270000E+03 0.  0.
    8880022    1    1    2    0    0  0.66615141432E+03  0.12493049558E+03 -0.71200063751E+03  0.99483762311E+03  0.15294330000E+03 0.  0.
<mgrwt>
<rscale>  0 0.87511954E+03</rscale>
<asrwt>0</asrwt>
<pdfrwt beam="1">  1        1 0.20619576E+00 0.94507965E+03</pdfrwt>
<pdfrwt beam="2">  1       -1 0.92317792E-01 0.94507965E+03</pdfrwt>
<totfact> 0.97689823E+00</totfact>
</mgrwt>
</event>
<event>
 4    1  0.1043382E-007  0.7448360E+03  0.7818608E-02  0.9846078E-01
         -1   -1    0    0    0  501 -0.00000000000E+00  0.00000000000E+00  0.12208421485E+04  0.12208421485E+04  0.50400000000E-02 0.  1.
          1   -1    0    0  501    0  0.00000000000E+00 -0.00000000000E+00 -0.37996224077E+03  0.37996224080E+03  0.50400000000E-02 0. -1.
    8880023    1    1    2    0    0 -0.10004990228E+03 -0.33310728794E+03  0.94841310082E+03  0.12059303729E+04  0.65864270000E+03 0.  1.
    8880022    1    1    2    0    0  0.10004990228E+03  0.33310728794E+03 -0.10753319307E+03  0.39487401643E+03  0.15294330000E+03 0.  0.
<mgrwt>
<rscale>  0 0.62947305E+03</rscale>
<asrwt>0</asrwt>
<pdfrwt beam="1">  1        1 0.58455729E-01 0.74483599E+03</pdfrwt>
<pdfrwt beam="2">  1       -1 0.18782187E+00 0.74483599E+03</pdfrwt>
<totfact> 0.12116052E+01</totfact>
</mgrwt>
</event>
<event>
 4    1  0.1043382E-007  0.7333462E+03  0.7818608E-02  0.9879771E-01
         -1   -1    0    0    0  501 -0.00000000000E+00  0.00000000000E+00  0.27573509863E+03  0.27573509868E+03  0.50400000000E-02 0.  1.
          1   -1    0    0  501    0  0.00000000000E+00 -0.00000000000E+00 -0.15255354611E+04  0.15255354612E+04  0.50400000000E-02 0. -1.
    8880023    1    1    2    0    0  0.84656331766E+02 -0.31115878140E+03 -0.31035427636E+03  0.79631430030E+03  0.65864270000E+03 0.  1.
    8880022    1    1    2    0    0 -0.84656331766E+02  0.31115878140E+03 -0.93944608616E+03  0.10049562595E+04  0.15294330000E+03 0.  0.
<mgrwt>
<rscale>  0 0.61251772E+03</rscale>
<asrwt>0</asrwt>
<pdfrwt beam="1">  1        1 0.23469776E+00 0.73334623E+03</pdfrwt>
<pdfrwt beam="2">  1       -1 0.42420785E-01 0.73334623E+03</pdfrwt>
<totfact> 0.35460795E+01</totfact>
</mgrwt>
</event>
<event>
 4    1  0.1043382E-007  0.1057797E+04  0.7818608E-02  0.9309567E-01
          1   -1    0    0  501    0  0.00000000000E+00  0.00000000000E+00  0.27550660016E+04  0.27550660016E+04  0.50400000000E-02 0. -1.
         -1   -1    0    0    0  501 -0.00000000000E+00 -0.00000000000E+00 -0.50352183115E+03  0.50352183117E+03  0.50400000000E-02 0.  1.
    8880023    1    1    2    0    0 -0.13288601285E+03  0.81698513190E+03  0.24954412146E+03  0.10868329554E+04  0.65864270000E+03 0.  0.
    8880022    1    1    2    0    0  0.13288601285E+03 -0.81698513190E+03  0.20020000490E+04  0.21717548774E+04  0.15294330000E+03 0.  0.
<mgrwt>
<rscale>  0 0.99906847E+03</rscale>
<asrwt>0</asrwt>
<pdfrwt beam="1">  1        1 0.42385631E+00 0.10577966E+04</pdfrwt>
<pdfrwt beam="2">  1       -1 0.77464898E-01 0.10577966E+04</pdfrwt>
<totfact> 0.15200427E+00</totfact>
</mgrwt>
</event>
<event>
 4    1  0.1043382E-007  0.6934858E+03  0.7818608E-02  0.1002538E+00
          1   -1    0    0  501    0  0.00000000000E+00  0.00000000000E+00  0.17658228974E+04  0.17658228974E+04  0.50400000000E-02 0. -1.
         -1   -1    0    0    0  501 -0.00000000000E+00 -0.00000000000E+00 -0.16858036705E+03  0.16858036713E+03  0.50400000000E-02 0.  1.
    8880023    1    1    2    0    0  0.15944612490E+03 -0.14727266588E+03  0.64941393801E+03  0.95008471938E+03  0.65864270000E+03 0.  0.
    8880022    1    1    2    0    0 -0.15944612490E+03  0.14727266588E+03  0.94782859235E+03  0.98431854517E+03  0.15294330000E+03 0.  0.
<mgrwt>
<rscale>  0 0.54551268E+03</rscale>
<asrwt>0</asrwt>
<pdfrwt beam="1">  1        1 0.27166506E+00 0.69348577E+03</pdfrwt>
<pdfrwt beam="2">  1       -1 0.25935441E-01 0.69348577E+03</pdfrwt>
<totfact> 0.58547629E+01</totfact>
</mgrwt>
</event>
<event>
 4    1  0.1043382E-007  0.8875546E+03  0.7818608E-02  0.9546313E-01
          1   -1    0    0  501    0  0.00000000000E+00  0.00000000000E+00  0.32939199996E+04  0.32939199996E+04  0.50400000000E-02 0. -1.
         -1   -1    0    0    0  501 -0.00000000000E+00 -0.00000000000E+00 -0.17604151870E+03  0.17604151877E+03  0.50400000000E-02 0.  1.
    8880023    1    1    2    0    0  0.34394036920E+03  0.48543591188E+03  0.15513271988E+04  0.17872798567E+04  0.65864270000E+03 0.  1.
    8880022    1    1    2    0    0 -0.34394036920E+03 -0.48543591188E+03  0.15665512821E+04  0.16826816617E+04  0.15294330000E+03 0.  0.
<mgrwt>
<rscale>  0 0.80953784E+03</rscale>
<asrwt>0</asrwt>
<pdfrwt beam="1">  1        1 0.50675692E+00 0.88755462E+03</pdfrwt>
<pdfrwt beam="2">  1       -1 0.27083311E-01 0.88755462E+03</pdfrwt>
<totfact> 0.46186029E+00</totfact>
</mgrwt>
</event>
<event>
 4    1  0.1043382E-007  0.7191112E+03  0.7818608E-02  0.9925605E-01
         -1   -1    0    0    0  501 -0.00000000000E+00  0.00000000000E+00  0.20301935701E+03  0.20301935708E+03  0.50400000000E-02 0.  1.
          1   -1    0    0  501    0  0.00000000000E+00 -0.00000000000E+00 -0.17841716342E+04  0.17841716342E+04  0.50400000000E-02 0. -1.
    8880023    1    1    2    0    0 -0.11771858856E+03  0.26353950368E+03 -0.54940218443E+03  0.90496613341E+03  0.65864270000E+03 0.  0.
    8880022    1    1    2    0    0  0.11771858856E+03 -0.26353950368E+03 -0.10317500928E+04  0.10822248579E+04  0.15294330000E+03 0.  0.
<mgrwt>
<rscale>  0 0.59036257E+03</rscale>
<asrwt>0</asrwt>
<pdfrwt beam="1">  1        1 0.27448793E+00 0.71911122E+03</pdfrwt>
<pdfrwt beam="2">  1       -1 0.31233748E-01 0.71911122E+03</pdfrwt>
<totfact> 0.41130924E+01</totfact>
</mgrwt>
</event>
<event>
 4    1  0.1043382E-007  0.1059348E+04  0.7818608E-02  0.9307728E-01
          1   -1    0    0  501    0  0.00000000000E+00  0.00000000000E+00  0.27652795113E+04  0.27652795113E+04  0.50400000000E-02 0. -1.
         -1   -1    0    0    0  501 -0.00000000000E+00 -0.00000000000E+00 -0.41548310163E+03  0.41548310166E+03  0.50400000000E-02 0.  1.
    8880023    1    1    2    0    0  0.11891402159E+03 -0.82113744750E+03  0.55130924294E+03  0.11942191339E+04  0.65864270000E+03 0.  0.
    8880022    1    1    2    0    0 -0.11891402159E+03  0.82113744750E+03  0.17984871667E+04  0.19865434790E+04  0.15294330000E+03 0. -1.
<mgrwt>
<rscale>  0 0.10007453E+04</rscale>
<asrwt>0</asrwt>
<pdfrwt beam="1">  1        1 0.42542762E+00 0.10593477E+04</pdfrwt>
<pdfrwt beam="2">  1       -1 0.63920476E-01 0.10593477E+04</pdfrwt>
<totfact> 0.22221423E+00</totfact>
</mgrwt>
</event>
<event>
 4    1  0.1043382E-007  0.8342819E+03  0.7818608E-02  0.9641058E-01
         -1   -1    0    0    0  501 -0.00000000000E+00  0.00000000000E+00  0.39126464716E+03  0.39126464720E+03  0.50400000000E-02 0.  1.
          1   -1    0    0  501    0  0.00000000000E+00 -0.00000000000E+00 -0.14454564249E+04  0.14454564249E+04  0.50400000000E-02 0. -1.
    8880023    1    1    2    0    0 -0.20113259568E+03 -0.47091593947E+03 -0.24960926195E+03  0.87082210182E+03  0.65864270000E+03 0.  0.
    8880022    1    1    2    0    0  0.20113259568E+03  0.47091593947E+03 -0.80458251580E+03  0.96589897031E+03  0.15294330000E+03 0.  0.
<mgrwt>
<rscale>  0 0.74637294E+03</rscale>
<asrwt>0</asrwt>
<pdfrwt beam="1">  1        1 0.22237791E+00 0.83428194E+03</pdfrwt>
<pdfrwt beam="2">  1       -1 0.60194562E-01 0.83428194E+03</pdfrwt>
<totfact> 0.20440831E+01</totfact>
</mgrwt>
</event>
<event>
 4    1  0.1043382E-007  0.6683280E+03  0.7818608E-02  0.1016891E+00
         -1   -1    0    0    0  501 -0.00000000000E+00  0.00000000000E+00  0.68157810576E+03  0.68157810578E+03  0.50400000000E-02 0.  1.
          1   -1    0    0  501    0  0.00000000000E+00 -0.00000000000E+00 -0.37037010959E+03  0.37037010963E+03  0.50400000000E-02 0. -1.
    8880023    1    1    2    0    0 -0.55336843373E+02 -0.98943851533E+02  0.45914444418E+03  0.81084886315E+03  0.65864270000E+03 0.  1.
    8880022    1    1    2    0    0  0.55336843373E+02  0.98943851533E+02 -0.14793644801E+03  0.24109935225E+03  0.15294330000E+03 0.  0.
<mgrwt>
<rscale>  0 0.48825455E+03</rscale>
<asrwt>0</asrwt>
<pdfrwt beam="1">  1        1 0.56980018E-01 0.66832796E+03</pdfrwt>
<pdfrwt beam="2">  1       -1 0.10485817E+00 0.66832796E+03</pdfrwt>
<totfact> 0.58271722E+01</totfact>
</mgrwt>
</event>
<event>
 4    1  0.1043382E-007  0.7669577E+03  0.7818608E-02  0.9787417E-01
          1   -1    0    0  501    0  0.00000000000E+00  0.00000000000E+00  0.66444273411E+03  0.66444273413E+03  0.50400000000E-02 0. -1.
         -1   -1    0    0    0  501 -0.00000000000E+00 -0.00000000000E+00 -0.66618213542E+03  0.66618213544E+03  0.50400000000E-02 0.  1.
    8880023    1    1    2    0    0  0.17319819241E+03 -0.35272685648E+03 -0.28987774592E+03  0.81991046034E+03  0.65864270000E+03 0.  0.
    8880022    1    1    2    0    0 -0.17319819241E+03  0.35272685648E+03  0.28813834462E+03  0.51071440923E+03  0.15294330000E+03 0.  1.
<mgrwt>
<rscale>  0 0.66042224E+03</rscale>
<asrwt>0</asrwt>
<pdfrwt beam="1">  1        1 0.10222196E+00 0.76695766E+03</pdfrwt>
<pdfrwt beam="2">  1       -1 0.10248956E+00 0.76695766E+03</pdfrwt>
<totfact> 0.27166513E+01</totfact>
</mgrwt>
</event>
<event>
 4    1  0.1043382E-007  0.1260494E+04  0.7818608E-02  0.9100449E-01
          1   -1    0    0  501    0  0.00000000000E+00  0.00000000000E+00  0.26929161997E+04  0.26929161997E+04  0.50400000000E-02 0. -1.
         -1   -1    0    0    0  501 -0.00000000000E+00 -0.00000000000E+00 -0.67458398804E+03  0.67458398806E+03  0.50400000000E-02 0.  1.
    8880023    1    1    2    0    0 -0.10013774414E+04  0.39022960766E+03  0.23868077753E+03  0.12828930769E+04  0.65864270000E+03 0.  0.
    8880022    1    1    2    0    0  0.10013774414E+04 -0.39022960766E+03  0.17796514342E+04  0.20846071109E+04  0.15294330000E+03 0.  0.
<mgrwt>
<rscale>  0 0.12142792E+04</rscale>
<asrwt>0</asrwt>
<pdfrwt beam="1">  1        1 0.41429481E+00 0.12604944E+04</pdfrwt>
<pdfrwt beam="2">  1       -1 0.10378215E+00 0.12604944E+04</pdfrwt>
<totfact> 0.85455143E-01</totfact>
</mgrwt>
</event>
<event>
 4    1  0.1043382E-007  0.1329991E+04  0.7818608E-02  0.9040084E-01
          1   -1    0    0  501    0  0.00000000000E+00  0.00000000000E+00  0.19130202471E+04  0.19130202471E+04  0.50400000000E-02 0. -1.
         -1   -1    0    0    0  501 -0.00000000000E+00 -0.00000000000E+00 -0.14016396897E+04  0.14016396897E+04  0.50400000000E-02 0.  1.
    8880023    1    1    2    0    0 -0.66767776098E+03  0.94301172941E+03 -0.80642728557E+03  0.15553777315E+04  0.65864270000E+03 0.  0.
    8880022    1    1    2    0    0  0.66767776098E+03 -0.94301172941E+03  0.13178078430E+04  0.17592822054E+04  0.15294330000E+03 0.  0.
<mgrwt>
<rscale>  0 0.12868180E+04</rscale>
<asrwt>0</asrwt>
<pdfrwt beam="1">  1        1 0.29431081E+00 0.13299906E+04</pdfrwt>
<pdfrwt beam="2">  1       -1 0.21563688E+00 0.13299906E+04</pdfrwt>
<totfact> 0.38759518E-01</totfact>
</mgrwt>
</event>
<event>
 4    1  0.1043382E-007  0.6649299E+03  0.7818608E-02  0.1019592E+00
         -1   -1    0    0    0  501 -0.00000000000E+00  0.00000000000E+00  0.50535030482E+03  0.50535030485E+03  0.50400000000E-02 0.  1.
          1   -1    0    0  501    0  0.00000000000E+00 -0.00000000000E+00 -0.12447026055E+04  0.12447026055E+04  0.50400000000E-02 0. -1.
    8880023    1    1    2    0    0 -0.56399275659E+02  0.71698812567E+02  0.27546349233E+03  0.71973046336E+03  0.65864270000E+03 0.  1.
    8880022    1    1    2    0    0  0.56399275659E+02 -0.71698812567E+02 -0.10148157930E+04  0.10303224469E+04  0.15294330000E+03 0.  0.
<mgrwt>
<rscale>  0 0.47834034E+03</rscale>
<asrwt>0</asrwt>
<pdfrwt beam="1">  1        1 0.19149271E+00 0.66492992E+03</pdfrwt>
<pdfrwt beam="2">  1       -1 0.77746201E-01 0.66492992E+03</pdfrwt>
<totfact> 0.17168824E+01</totfact>
</mgrwt>
</event>
<event>
 4    1  0.1043382E-007  0.7824956E+03  0.7818608E-02  0.9750007E-01
          1   -1    0    0  501    0  0.00000000000E+00  0.00000000000E+00  0.37364081312E+04  0.37364081312E+04  0.50400000000E-02 0. -1.
         -1   -1    0    0    0  501 -0.00000000000E+00 -0.00000000000E+00 -0.56158719238E+03  0.56158719241E+03  0.50400000000E-02 0.  1.
    8880023    1    1    2    0    0  0.75848727645E+02  0.41561539789E+03 -0.26713434854E+03  0.82683744163E+03  0.65864270000E+03 0.  1.
    8880022    1    1    2    0    0 -0.75848727645E+02 -0.41561539789E+03  0.34419552874E+04  0.34711578820E+04  0.15294330000E+03 0.  0.
<mgrwt>
<rscale>  0 0.68115873E+03</rscale>
<asrwt>0</asrwt>
<pdfrwt beam="1">  1        1 0.57483201E+00 0.78249562E+03</pdfrwt>
<pdfrwt beam="2">  1       -1 0.86398030E-01 0.78249562E+03</pdfrwt>
<totfact> 0.23360141E-01</totfact>
</mgrwt>
</event>
<event>
 4    1  0.1043382E-007  0.7851253E+03  0.7818608E-02  0.9743932E-01
         -1   -1    0    0    0  501 -0.00000000000E+00  0.00000000000E+00  0.16387440671E+03  0.16387440679E+03  0.50400000000E-02 0.  1.
          1   -1    0    0  501    0  0.00000000000E+00 -0.00000000000E+00 -0.25088634525E+04  0.25088634525E+04  0.50400000000E-02 0. -1.
    8880023    1    1    2    0    0  0.75242456312E+02  0.42065433515E+03 -0.11320793722E+04  0.13776884292E+04  0.65864270000E+03 0.  1.
    8880022    1    1    2    0    0 -0.75242456312E+02 -0.42065433515E+03 -0.12129096736E+04  0.12950494301E+04  0.15294330000E+03 0.  1.
<mgrwt>
<rscale>  0 0.68460246E+03</rscale>
<asrwt>0</asrwt>
<pdfrwt beam="1">  1        1 0.38597896E+00 0.78512528E+03</pdfrwt>
<pdfrwt beam="2">  1       -1 0.25211449E-01 0.78512528E+03</pdfrwt>
<totfact> 0.19230391E+01</totfact>
</mgrwt>
</event>
<event>
 4    1  0.1043382E-007  0.6620719E+03  0.7818608E-02  0.1022127E+00
          1   -1    0    0  501    0  0.00000000000E+00  0.00000000000E+00  0.14345908740E+04  0.14345908740E+04  0.50400000000E-02 0. -1.
         -1   -1    0    0    0  501 -0.00000000000E+00 -0.00000000000E+00 -0.13695472615E+03  0.13695472625E+03  0.50400000000E-02 0.  1.
    8880023    1    1    2    0    0  0.66113187002E+02  0.12573108977E+02  0.75700869601E+03  0.10056845473E+04  0.65864270000E+03 0.  1.
    8880022    1    1    2    0    0 -0.66113187002E+02 -0.12573108977E+02  0.54062745180E+03  0.56586105293E+03  0.15294330000E+03 0.  0.
<mgrwt>
<rscale>  0 0.46926661E+03</rscale>
<asrwt>0</asrwt>
<pdfrwt beam="1">  1        1 0.22070630E+00 0.66207193E+03</pdfrwt>
<pdfrwt beam="2">  1       -1 0.21069957E-01 0.66207193E+03</pdfrwt>
<totfact> 0.13984785E+02</totfact>
</mgrwt>
</event>
<event>
 4    1  0.1043382E-007  0.6947491E+03  0.7818608E-02  0.1001972E+00
         -1   -1    0    0    0  501 -0.00000000000E+00  0.00000000000E+00  0.73914765913E+03  0.73914765915E+03  0.50400000000E-02 0.  1.
          1   -1    0    0  501    0  0.00000000000E+00 -0.00000000000E+00 -0.73138868614E+03  0.73138868615E+03  0.50400000000E-02 0. -1.
    8880023    1    1    2    0    0  0.91512599593E+02  0.20122500052E+03  0.53623510664E+03  0.87762426618E+03  0.65864270000E+03 0.  0.
    8880022    1    1    2    0    0 -0.91512599593E+02 -0.20122500052E+03 -0.52847613365E+03  0.59291207912E+03  0.15294330000E+03 0.  0.
<mgrwt>
<rscale>  0 0.54793810E+03</rscale>
<asrwt>0</asrwt>
<pdfrwt beam="1">  1        1 0.11252134E+00 0.69474906E+03</pdfrwt>
<pdfrwt beam="2">  1       -1 0.11371502E+00 0.69474906E+03</pdfrwt>
<totfact> 0.18576554E+01</totfact>
</mgrwt>
</event>
<event>
 4    1  0.1043382E-007  0.9006278E+03  0.7818608E-02  0.9525025E-01
          1   -1    0    0  501    0  0.00000000000E+00  0.00000000000E+00  0.99108191170E+03  0.99108191171E+03  0.50400000000E-02 0. -1.
         -1   -1    0    0    0  501 -0.00000000000E+00 -0.00000000000E+00 -0.11828265089E+04  0.11828265089E+04  0.50400000000E-02 0.  1.
    8880023    1    1    2    0    0  0.35126655604E+03  0.50391667234E+03 -0.86574140281E+03  0.12492552137E+04  0.65864270000E+03 0.  0.
    8880022    1    1    2    0    0 -0.35126655604E+03 -0.50391667234E+03  0.67399680564E+03  0.92465320693E+03  0.15294330000E+03 0.  0.
<mgrwt>
<rscale>  0 0.82463741E+03</rscale>
<asrwt>0</asrwt>
<pdfrwt beam="1">  1        1 0.15247414E+00 0.90062779E+03</pdfrwt>
<pdfrwt beam="2">  1       -1 0.18197331E+00 0.90062779E+03</pdfrwt>
<totfact> 0.31483398E+00</totfact>
</mgrwt>
</event>
<event>
 4    1  0.1043382E-007  0.8357161E+03  0.7818608E-02  0.9638311E-01
         -1   -1    0    0    0  501 -0.00000000000E+00  0.00000000000E+00  0.18327986546E+03  0.18327986553E+03  0.50400000000E-02 0.  1.
          1   -1    0    0  501    0  0.00000000000E+00 -0.00000000000E+00 -0.31631645224E+04  0.31631645224E+04  0.50400000000E-02 0. -1.
    8880023    1    1    2    0    0  0.41465868171E+03  0.30441652161E+03 -0.10426012382E+04  0.13362031242E+04  0.65864270000E+03 0.  1.
    8880022    1    1    2    0    0 -0.41465868171E+03 -0.30441652161E+03 -0.19372834188E+04  0.20102412638E+04  0.15294330000E+03 0.  0.
<mgrwt>
<rscale>  0 0.74811557E+03</rscale>
<asrwt>0</asrwt>
<pdfrwt beam="1">  1        1 0.48664066E+00 0.83571613E+03</pdfrwt>
<pdfrwt beam="2">  1       -1 0.28196905E-01 0.83571613E+03</pdfrwt>
<totfact> 0.54309085E+00</totfact>
</mgrwt>
</event>
<event>
 4    1  0.1043382E-007  0.8731155E+03  0.7818608E-02  0.9570646E-01
          1   -1    0    0  501    0  0.00000000000E+00  0.00000000000E+00  0.12447706658E+04  0.12447706658E+04  0.50400000000E-02 0. -1.
         -1   -1    0    0    0  501 -0.00000000000E+00 -0.00000000000E+00 -0.45648852699E+03  0.45648852702E+03  0.50400000000E-02 0.  1.
    8880023    1    1    2    0    0 -0.55296160017E+03 -0.15084380403E+03  0.27106910937E+03  0.91422593093E+03  0.65864270000E+03 0.  0.
    8880022    1    1    2    0    0  0.55296160017E+03  0.15084380403E+03  0.51721302941E+03  0.78703326186E+03  0.15294330000E+03 0.  0.
<mgrwt>
<rscale>  0 0.79269847E+03</rscale>
<asrwt>0</asrwt>
<pdfrwt beam="1">  1        1 0.19150318E+00 0.87311545E+03</pdfrwt>
<pdfrwt beam="2">  1       -1 0.70229005E-01 0.87311545E+03</pdfrwt>
<totfact> 0.20655743E+01</totfact>
</mgrwt>
</event>
<event>
 4    1  0.1043382E-007  0.7068867E+03  0.7818608E-02  0.9969749E-01
          1   -1    0    0  501    0  0.00000000000E+00  0.00000000000E+00  0.30821496400E+04  0.30821496400E+04  0.50400000000E-02 0. -1.
         -1   -1    0    0    0  501 -0.00000000000E+00 -0.00000000000E+00 -0.84480612274E+02  0.84480612425E+02  0.50400000000E-02 0.  1.
    8880023    1    1    2    0    0  0.15435836701E+03 -0.20506610748E+03  0.23364054232E+04  0.24409996152E+04  0.65864270000E+03 0. -1.
    8880022    1    1    2    0    0 -0.15435836701E+03  0.20506610748E+03  0.66126360451E+03  0.72563063715E+03  0.15294330000E+03 0.  1.
<mgrwt>
<rscale>  0 0.56996832E+03</rscale>
<asrwt>0</asrwt>
<pdfrwt beam="1">  1        1 0.47417683E+00 0.70688671E+03</pdfrwt>
<pdfrwt beam="2">  1       -1 0.12997018E-01 0.70688671E+03</pdfrwt>
<totfact> 0.23047763E+01</totfact>
</mgrwt>
</event>
<event>
 4    1  0.1043382E-007  0.6739661E+03  0.7818608E-02  0.1012966E+00
          1   -1    0    0  501    0  0.00000000000E+00  0.00000000000E+00  0.22603078327E+04  0.22603078327E+04  0.50400000000E-02 0. -1.
         -1   -1    0    0    0  501 -0.00000000000E+00 -0.00000000000E+00 -0.50215425796E+03  0.50215425799E+03  0.50400000000E-02 0.  1.
    8880023    1    1    2    0    0  0.11631583692E+03  0.83010440386E+02 -0.26816831274E+03  0.72535822691E+03  0.65864270000E+03 0.  0.
    8880022    1    1    2    0    0 -0.11631583692E+03 -0.83010440386E+02  0.20263218875E+04  0.20371038638E+04  0.15294330000E+03 0.  0.
<mgrwt>
<rscale>  0 0.50312672E+03</rscale>
<asrwt>0</asrwt>
<pdfrwt beam="1">  1        1 0.34773967E+00 0.67396611E+03</pdfrwt>
<pdfrwt beam="2">  1       -1 0.77254500E-01 0.67396611E+03</pdfrwt>
<totfact> 0.35696565E+00</totfact>
</mgrwt>
</event>
<event>
 4    1  0.1043382E-007  0.1205756E+04  0.7818608E-02  0.9151547E-01
         -1   -1    0    0    0  501 -0.00000000000E+00  0.00000000000E+00  0.92246799612E+03  0.92246799614E+03  0.50400000000E-02 0.  1.
          1   -1    0    0  501    0  0.00000000000E+00 -0.00000000000E+00 -0.19461602139E+04  0.19461602139E+04  0.50400000000E-02 0. -1.
    8880023    1    1    2    0    0  0.82547228741E+03  0.58192246320E+03  0.25459007949E+03  0.12323410913E+04  0.65864270000E+03 0.  1.
    8880022    1    1    2    0    0 -0.82547228741E+03 -0.58192246320E+03 -0.12782822972E+04  0.16362871187E+04  0.15294330000E+03 0.  0.
<mgrwt>
<rscale>  0 0.11567848E+04</rscale>
<asrwt>0</asrwt>
<pdfrwt beam="1">  1        1 0.29940926E+00 0.12057564E+04</pdfrwt>
<pdfrwt beam="2">  1       -1 0.14191815E+00 0.12057564E+04</pdfrwt>
<totfact> 0.12877658E+00</totfact>
</mgrwt>
</event>
<event>
 4    1  0.1043382E-007  0.1064505E+04  0.7818608E-02  0.9301644E-01
          1   -1    0    0  501    0  0.00000000000E+00  0.00000000000E+00  0.14011500883E+04  0.14011500883E+04  0.50400000000E-02 0. -1.
         -1   -1    0    0    0  501 -0.00000000000E+00 -0.00000000000E+00 -0.68819991454E+03  0.68819991455E+03  0.50400000000E-02 0.  1.
    8880023    1    1    2    0    0  0.18536048870E+03  0.81547728262E+03  0.62559924321E+03  0.12347252037E+04  0.65864270000E+03 0. -1.
    8880022    1    1    2    0    0 -0.18536048870E+03 -0.81547728262E+03  0.87350930526E+02  0.85462479915E+03  0.15294330000E+03 0.  1.
<mgrwt>
<rscale>  0 0.10063167E+04</rscale>
<asrwt>0</asrwt>
<pdfrwt beam="1">  1        1 0.21556155E+00 0.10645055E+04</pdfrwt>
<pdfrwt beam="2">  1       -1 0.10587691E+00 0.10645055E+04</pdfrwt>
<totfact> 0.63870258E+00</totfact>
</mgrwt>
</event>
<event>
 4    1  0.1043382E-007  0.6922270E+03  0.7818608E-02  0.1003112E+00
          1   -1    0    0  501    0  0.00000000000E+00  0.00000000000E+00  0.29057158603E+04  0.29057158603E+04  0.50400000000E-02 0. -1.
         -1   -1    0    0    0  501 -0.00000000000E+00 -0.00000000000E+00 -0.92879754833E+02  0.92879754970E+02  0.50400000000E-02 0.  1.
    8880023    1    1    2    0    0  0.18930008863E+03  0.97639667872E+02  0.14017914475E+04  0.15633929438E+04  0.65864270000E+03 0.  1.
    8880022    1    1    2    0    0 -0.18930008863E+03 -0.97639667872E+02  0.14110446580E+04  0.14352026714E+04  0.15294330000E+03 0.  0.
<mgrwt>
<rscale>  0 0.54306666E+03</rscale>
<asrwt>0</asrwt>
<pdfrwt beam="1">  1        1 0.44703322E+00 0.69222701E+03</pdfrwt>
<pdfrwt beam="2">  1       -1 0.14289193E-01 0.69222701E+03</pdfrwt>
<totfact> 0.26513861E+01</totfact>
</mgrwt>
</event>
<event>
 4    1  0.1043382E-007  0.7193303E+03  0.7818608E-02  0.9924858E-01
          1   -1    0    0  501    0  0.00000000000E+00  0.00000000000E+00  0.15582573340E+04  0.15582573340E+04  0.50400000000E-02 0. -1.
         -1   -1    0    0    0  501 -0.00000000000E+00 -0.00000000000E+00 -0.19986250585E+03  0.19986250591E+03  0.50400000000E-02 0.  1.
    8880023    1    1    2    0    0 -0.27948080575E+03 -0.74272354958E+02  0.61675414491E+03  0.94753458249E+03  0.65864270000E+03 0.  0.
    8880022    1    1    2    0    0  0.27948080575E+03  0.74272354958E+02  0.74164068328E+03  0.81058525746E+03  0.15294330000E+03 0.  1.
<mgrwt>
<rscale>  0 0.59071521E+03</rscale>
<asrwt>0</asrwt>
<pdfrwt beam="1">  1        1 0.23973189E+00 0.71933032E+03</pdfrwt>
<pdfrwt beam="2">  1       -1 0.30748078E-01 0.71933032E+03</pdfrwt>
<totfact> 0.60021772E+01</totfact>
</mgrwt>
</event>
<event>
 4    1  0.1043382E-007  0.7315607E+03  0.7818608E-02  0.9885249E-01
          1   -1    0    0  501    0  0.00000000000E+00  0.00000000000E+00  0.19219877352E+04  0.19219877353E+04  0.50400000000E-02 0. -1.
         -1   -1    0    0    0  501 -0.00000000000E+00 -0.00000000000E+00 -0.21696263172E+03  0.21696263178E+03  0.50400000000E-02 0.  1.
    8880023    1    1    2    0    0  0.69612349859E+02 -0.31068470558E+03  0.50734147730E+03  0.89026762627E+03  0.65864270000E+03 0.  1.
    8880022    1    1    2    0    0 -0.69612349859E+02  0.31068470558E+03  0.11976836262E+04  0.12486827408E+04  0.15294330000E+03 0.  0.
<mgrwt>
<rscale>  0 0.60981527E+03</rscale>
<asrwt>0</asrwt>
<pdfrwt beam="1">  1        1 0.29569043E+00 0.73156071E+03</pdfrwt>
<pdfrwt beam="2">  1       -1 0.33378865E-01 0.73156071E+03</pdfrwt>
<totfact> 0.29550509E+01</totfact>
</mgrwt>
</event>
<event>
 4    1  0.1043382E-007  0.6604227E+03  0.7818608E-02  0.1023727E+00
         -1   -1    0    0    0  501 -0.00000000000E+00  0.00000000000E+00  0.13528374587E+03  0.13528374597E+03  0.50400000000E-02 0.  1.
          1   -1    0    0  501    0  0.00000000000E+00 -0.00000000000E+00 -0.14042874633E+04  0.14042874633E+04  0.50400000000E-02 0. -1.
    8880023    1    1    2    0    0 -0.15472802350E+02 -0.45918774928E+02 -0.76493174732E+03  0.10105833592E+04  0.65864270000E+03 0.  1.
    8880022    1    1    2    0    0  0.15472802350E+02  0.45918774928E+02 -0.50407197012E+03  0.52898785012E+03  0.15294330000E+03 0.  0.
<mgrwt>
<rscale>  0 0.46365154E+03</rscale>
<asrwt>0</asrwt>
<pdfrwt beam="1">  1        1 0.21604422E+00 0.66042270E+03</pdfrwt>
<pdfrwt beam="2">  1       -1 0.20812885E-01 0.66042270E+03</pdfrwt>
<totfact> 0.14980560E+02</totfact>
</mgrwt>
</event>
<event>
 4    1  0.1043382E-007  0.6764631E+03  0.7818608E-02  0.1011399E+00
         -1   -1    0    0    0  501 -0.00000000000E+00  0.00000000000E+00  0.77054993245E+03  0.77054993247E+03  0.50400000000E-02 0.  1.
          1   -1    0    0  501    0  0.00000000000E+00 -0.00000000000E+00 -0.27521602394E+03  0.27521602399E+03  0.50400000000E-02 0. -1.
    8880023    1    1    2    0    0  0.14464585977E+03 -0.53569505703E+02  0.47709901093E+03  0.82778366086E+03  0.65864270000E+03 0.  1.
    8880022    1    1    2    0    0 -0.14464585977E+03  0.53569505703E+02  0.18234897573E+02  0.21798229560E+03  0.15294330000E+03 0.  0.
<mgrwt>
<rscale>  0 0.50922200E+03</rscale>
<asrwt>0</asrwt>
<pdfrwt beam="1">  1        1 0.42340927E-01 0.67646310E+03</pdfrwt>
<pdfrwt beam="2">  1       -1 0.11854614E+00 0.67646310E+03</pdfrwt>
<totfact> 0.64094367E+01</totfact>
</mgrwt>
</event>
<event>
 4    1  0.1043382E-007  0.6799143E+03  0.7818608E-02  0.1009372E+00
          1   -1    0    0  501    0  0.00000000000E+00  0.00000000000E+00  0.37314211133E+04  0.37314211133E+04  0.50400000000E-02 0. -1.
         -1   -1    0    0    0  501 -0.00000000000E+00 -0.00000000000E+00 -0.12592939178E+03  0.12592939188E+03  0.50400000000E-02 0.  1.
    8880023    1    1    2    0    0 -0.10878406896E+03  0.12899342568E+03  0.83180086958E+03  0.10743259144E+04  0.65864270000E+03 0.  1.
    8880022    1    1    2    0    0  0.10878406896E+03 -0.12899342568E+03  0.27736908519E+04  0.27830245907E+04  0.15294330000E+03 0.  0.
<mgrwt>
<rscale>  0 0.51724925E+03</rscale>
<asrwt>0</asrwt>
<pdfrwt beam="1">  1        1 0.57406486E+00 0.67991432E+03</pdfrwt>
<pdfrwt beam="2">  1       -1 0.19373750E-01 0.67991432E+03</pdfrwt>
<totfact> 0.38661538E+00</totfact>
</mgrwt>
</event>
<event>
 4    1  0.1043382E-007  0.6975258E+03  0.7818608E-02  0.1000762E+00
          1   -1    0    0  501    0  0.00000000000E+00  0.00000000000E+00  0.30447204448E+04  0.30447204448E+04  0.50400000000E-02 0. -1.
         -1   -1    0    0    0  501 -0.00000000000E+00 -0.00000000000E+00 -0.77807130374E+02  0.77807130537E+02  0.50400000000E-02 0.  1.
    8880023    1    1    2    0    0  0.19381805202E+03 -0.12315286469E+03  0.21173157334E+04  0.22292528315E+04  0.65864270000E+03 0.  0.
    8880022    1    1    2    0    0 -0.19381805202E+03  0.12315286469E+03  0.84959758100E+03  0.89327474387E+03  0.15294330000E+03 0. -1.
<mgrwt>
<rscale>  0 0.55317203E+03</rscale>
<asrwt>0</asrwt>
<pdfrwt beam="1">  1        1 0.46841844E+00 0.69752582E+03</pdfrwt>
<pdfrwt beam="2">  1       -1 0.11970330E-01 0.69752582E+03</pdfrwt>
<totfact> 0.28028713E+01</totfact>
</mgrwt>
</event>
<event>
 4    1  0.1043382E-007  0.7218312E+03  0.7818608E-02  0.9916438E-01
         -1   -1    0    0    0  501 -0.00000000000E+00  0.00000000000E+00  0.47691737052E+03  0.47691737054E+03  0.50400000000E-02 0.  1.
          1   -1    0    0  501    0  0.00000000000E+00 -0.00000000000E+00 -0.58580044720E+03  0.58580044723E+03  0.50400000000E-02 0. -1.
    8880023    1    1    2    0    0  0.25860272079E+03  0.14266994043E+03 -0.39178503007E+02  0.72289365778E+03  0.65864270000E+03 0.  0.
    8880022    1    1    2    0    0 -0.25860272079E+03 -0.14266994043E+03 -0.69704573681E+02  0.33982415998E+03  0.15294330000E+03 0.  1.
<mgrwt>
<rscale>  0 0.59471213E+03</rscale>
<asrwt>0</asrwt>
<pdfrwt beam="1">  1        1 0.90123146E-01 0.72183120E+03</pdfrwt>
<pdfrwt beam="2">  1       -1 0.73371903E-01 0.72183120E+03</pdfrwt>
<totfact> 0.67854764E+01</totfact>
</mgrwt>
</event>
<event>
 4    1  0.1043382E-007  0.8151098E+03  0.7818608E-02  0.9679030E-01
          1   -1    0    0  501    0  0.00000000000E+00  0.00000000000E+00  0.11476408644E+04  0.11476408644E+04  0.50400000000E-02 0. -1.
         -1   -1    0    0    0  501 -0.00000000000E+00 -0.00000000000E+00 -0.67812887627E+03  0.67812887629E+03  0.50400000000E-02 0.  1.
    8880023    1    1    2    0    0 -0.69010008873E+02 -0.47521713510E+03  0.86247463828E+03  0.11867040131E+04  0.65864270000E+03 0.  0.
    8880022    1    1    2    0    0  0.69010008873E+02  0.47521713510E+03 -0.39296265011E+03  0.63906572762E+03  0.15294330000E+03 0.  0.
<mgrwt>
<rscale>  0 0.72279169E+03</rscale>
<asrwt>0</asrwt>
<pdfrwt beam="1">  1        1 0.17656013E+00 0.81510976E+03</pdfrwt>
<pdfrwt beam="2">  1       -1 0.10432752E+00 0.81510976E+03</pdfrwt>
<totfact> 0.10344164E+01</totfact>
</mgrwt>
</event>
<event>
 4    1  0.1043382E-007  0.7854942E+03  0.7818608E-02  0.9743086E-01
         -1   -1    0    0    0  501 -0.00000000000E+00  0.00000000000E+00  0.22031976815E+03  0.22031976821E+03  0.50400000000E-02 0.  1.
          1   -1    0    0  501    0  0.00000000000E+00 -0.00000000000E+00 -0.34134801236E+04  0.34134801236E+04  0.50400000000E-02 0. -1.
    8880023    1    1    2    0    0  0.31820169846E+03 -0.28624912414E+03 -0.56739734708E+03  0.96898959629E+03  0.65864270000E+03 0.  1.
    8880022    1    1    2    0    0 -0.31820169846E+03  0.28624912414E+03 -0.26257630084E+04  0.26648102956E+04  0.15294330000E+03 0.  0.
<mgrwt>
<rscale>  0 0.68508416E+03</rscale>
<asrwt>0</asrwt>
<pdfrwt beam="1">  1        1 0.52515075E+00 0.78549417E+03</pdfrwt>
<pdfrwt beam="2">  1       -1 0.33895351E-01 0.78549417E+03</pdfrwt>
<totfact> 0.25785015E+00</totfact>
</mgrwt>
</event>
<event>
 4    1  0.1043382E-007  0.9402263E+03  0.7818608E-02  0.9464318E-01
         -1   -1    0    0    0  501 -0.00000000000E+00  0.00000000000E+00  0.59215135916E+03  0.59215135919E+03  0.50400000000E-02 0.  1.
          1   -1    0    0  501    0  0.00000000000E+00 -0.00000000000E+00 -0.17668522078E+04  0.17668522078E+04  0.50400000000E-02 0. -1.
    8880023    1    1    2    0    0 -0.65261953344E+03  0.15589415299E+03  0.63540381787E+02  0.94237085521E+03  0.65864270000E+03 0.  1.
    8880022    1    1    2    0    0  0.65261953344E+03 -0.15589415299E+03 -0.12382412304E+04  0.14166327117E+04  0.15294330000E+03 0.  0.
<mgrwt>
<rscale>  0 0.86966409E+03</rscale>
<asrwt>0</asrwt>
<pdfrwt beam="1">  1        1 0.27182341E+00 0.94022628E+03</pdfrwt>
<pdfrwt beam="2">  1       -1 0.91100210E-01 0.94022628E+03</pdfrwt>
<totfact> 0.51278611E+00</totfact>
</mgrwt>
</event>
<event>
 4    1  0.1043382E-007  0.7428902E+03  0.7818608E-02  0.9851607E-01
          1   -1    0    0  501    0  0.00000000000E+00  0.00000000000E+00  0.12670442952E+04  0.12670442952E+04  0.50400000000E-02 0. -1.
         -1   -1    0    0    0  501 -0.00000000000E+00 -0.00000000000E+00 -0.35076706698E+03  0.35076706701E+03  0.50400000000E-02 0.  1.
    8880023    1    1    2    0    0 -0.34260163489E+03 -0.26452633474E+02  0.14105395615E+03  0.75616271189E+03  0.65864270000E+03 0.  1.
    8880022    1    1    2    0    0  0.34260163489E+03  0.26452633474E+02  0.77522327208E+03  0.86164865034E+03  0.15294330000E+03 0.  0.
<mgrwt>
<rscale>  0 0.62665061E+03</rscale>
<asrwt>0</asrwt>
<pdfrwt beam="1">  1        1 0.19492989E+00 0.74289019E+03</pdfrwt>
<pdfrwt beam="2">  1       -1 0.53964165E-01 0.74289019E+03</pdfrwt>
<totfact> 0.34091682E+01</totfact>
</mgrwt>
</event>
<event>
 4    1  0.1043382E-007  0.6941245E+03  0.7818608E-02  0.1002251E+00
         -1   -1    0    0    0  501 -0.00000000000E+00  0.00000000000E+00  0.13250684389E+03  0.13250684398E+03  0.50400000000E-02 0.  1.
          1   -1    0    0  501    0  0.00000000000E+00 -0.00000000000E+00 -0.18606274135E+04  0.18606274135E+04  0.50400000000E-02 0. -1.
    8880023    1    1    2    0    0 -0.16740752806E+03  0.14132692776E+03 -0.99794306060E+03  0.12156064904E+04  0.65864270000E+03 0. -1.
    8880022    1    1    2    0    0  0.16740752806E+03 -0.14132692776E+03 -0.73017750905E+03  0.77752776716E+03  0.15294330000E+03 0.  1.
<mgrwt>
<rscale>  0 0.54674254E+03</rscale>
<asrwt>0</asrwt>
<pdfrwt beam="1">  1        1 0.28625035E+00 0.69412448E+03</pdfrwt>
<pdfrwt beam="2">  1       -1 0.20385670E-01 0.69412448E+03</pdfrwt>
<totfact> 0.75961836E+01</totfact>
</mgrwt>
</event>
<event>
 4    1  0.1043382E-007  0.7211465E+03  0.7818608E-02  0.9918726E-01
          1   -1    0    0  501    0  0.00000000000E+00  0.00000000000E+00  0.10309475208E+04  0.10309475208E+04  0.50400000000E-02 0. -1.
         -1   -1    0    0    0  501 -0.00000000000E+00 -0.00000000000E+00 -0.31811741477E+03  0.31811741481E+03  0.50400000000E-02 0.  1.
    8880023    1    1    2    0    0  0.12562920685E+02  0.29340117757E+03  0.21745179337E+03  0.75321814017E+03  0.65864270000E+03 0.  0.
    8880022    1    1    2    0    0 -0.12562920685E+02 -0.29340117757E+03  0.49537831263E+03  0.59584679542E+03  0.15294330000E+03 0.  0.
<mgrwt>
<rscale>  0 0.59362291E+03</rscale>
<asrwt>0</asrwt>
<pdfrwt beam="1">  1        1 0.15860731E+00 0.72114651E+03</pdfrwt>
<pdfrwt beam="2">  1       -1 0.48941141E-01 0.72114651E+03</pdfrwt>
<totfact> 0.61388369E+01</totfact>
</mgrwt>
</event>
<event>
 4    1  0.1043382E-007  0.6709783E+03  0.7818608E-02  0.1014971E+00
         -1   -1    0    0    0  501 -0.00000000000E+00  0.00000000000E+00  0.27703370859E+03  0.27703370863E+03  0.50400000000E-02 0.  1.
          1   -1    0    0  501    0  0.00000000000E+00 -0.00000000000E+00 -0.23629151564E+04  0.23629151564E+04  0.50400000000E-02 0. -1.
    8880023    1    1    2    0    0 -0.91896392761E+02 -0.89200213270E+02 -0.14197563353E+03  0.68583446387E+03  0.65864270000E+03 0.  1.
    8880022    1    1    2    0    0  0.91896392761E+02  0.89200213270E+02 -0.19439058143E+04  0.19541144011E+04  0.15294330000E+03 0.  0.
<mgrwt>
<rscale>  0 0.49545881E+03</rscale>
<asrwt>0</asrwt>
<pdfrwt beam="1">  1        1 0.36352540E+00 0.67097826E+03</pdfrwt>
<pdfrwt beam="2">  1       -1 0.42620572E-01 0.67097826E+03</pdfrwt>
<totfact> 0.97344577E+00</totfact>
</mgrwt>
</event>
<event>
 4    1  0.1043382E-007  0.1154209E+04  0.7818608E-02  0.9202973E-01
          1   -1    0    0  501    0  0.00000000000E+00  0.00000000000E+00  0.71464704640E+03  0.71464704641E+03  0.50400000000E-02 0. -1.
         -1   -1    0    0    0  501 -0.00000000000E+00 -0.00000000000E+00 -0.15880805786E+04  0.15880805786E+04  0.50400000000E-02 0.  1.
    8880023    1    1    2    0    0 -0.67030191166E+03 -0.67013764701E+03 -0.33444498585E+03  0.12016874692E+04  0.65864270000E+03 0.  0.
    8880022    1    1    2    0    0  0.67030191166E+03  0.67013764701E+03 -0.53898854637E+03  0.11010401559E+04  0.15294330000E+03 0. -1.
<mgrwt>
<rscale>  0 0.11022800E+04</rscale>
<asrwt>0</asrwt>
<pdfrwt beam="1">  1        1 0.10994570E+00 0.11542094E+04</pdfrwt>
<pdfrwt beam="2">  1       -1 0.24432009E+00 0.11542094E+04</pdfrwt>
<totfact> 0.19834364E+00</totfact>
</mgrwt>
</event>
<event>
 4    1  0.1043382E-007  0.6691086E+03  0.7818608E-02  0.1016310E+00
         -1   -1    0    0    0  501 -0.00000000000E+00  0.00000000000E+00  0.40177853642E+03  0.40177853646E+03  0.50400000000E-02 0.  1.
          1   -1    0    0  501    0  0.00000000000E+00 -0.00000000000E+00 -0.57436463313E+03  0.57436463316E+03  0.50400000000E-02 0. -1.
    8880023    1    1    2    0    0 -0.95018040731E+02 -0.69768455598E+02  0.62380296967E+02  0.67201009901E+03  0.65864270000E+03 0.  1.
    8880022    1    1    2    0    0  0.95018040731E+02  0.69768455598E+02 -0.23496639368E+03  0.30413307060E+03  0.15294330000E+03 0.  0.
<mgrwt>
<rscale>  0 0.49041999E+03</rscale>
<asrwt>0</asrwt>
<pdfrwt beam="1">  1        1 0.88363789E-01 0.66910856E+03</pdfrwt>
<pdfrwt beam="2">  1       -1 0.61812083E-01 0.66910856E+03</pdfrwt>
<totfact> 0.99151404E+01</totfact>
</mgrwt>
</event>
<event>
 4    1  0.1043382E-007  0.7691720E+03  0.7818608E-02  0.9781916E-01
          1   -1    0    0  501    0  0.00000000000E+00  0.00000000000E+00  0.59380302110E+03  0.59380302112E+03  0.50400000000E-02 0. -1.
         -1   -1    0    0    0  501 -0.00000000000E+00 -0.00000000000E+00 -0.11356750545E+04  0.11356750545E+04  0.50400000000E-02 0.  1.
    8880023    1    1    2    0    0  0.10139078780E+02 -0.39713038367E+03 -0.89233605279E+03  0.11780870850E+04  0.65864270000E+03 0.  1.
    8880022    1    1    2    0    0 -0.10139078780E+02  0.39713038367E+03  0.35046401942E+03  0.55139099057E+03  0.15294330000E+03 0.  0.
<mgrwt>
<rscale>  0 0.66342138E+03</rscale>
<asrwt>0</asrwt>
<pdfrwt beam="1">  1        1 0.91354311E-01 0.76917199E+03</pdfrwt>
<pdfrwt beam="2">  1       -1 0.17471924E+00 0.76917199E+03</pdfrwt>
<totfact> 0.81340164E+00</totfact>
</mgrwt>
</event>
<event>
 4    1  0.1043382E-007  0.9924120E+03  0.7818608E-02  0.9391553E-01
         -1   -1    0    0    0  501 -0.00000000000E+00  0.00000000000E+00  0.84981506122E+03  0.84981506123E+03  0.50400000000E-02 0.  1.
          1   -1    0    0  501    0  0.00000000000E+00 -0.00000000000E+00 -0.14303263421E+04  0.14303263421E+04  0.50400000000E-02 0. -1.
    8880023    1    1    2    0    0 -0.73073397807E+03  0.13076419382E+03  0.37467075730E+03  0.10607826374E+04  0.65864270000E+03 0.  0.
    8880022    1    1    2    0    0  0.73073397807E+03 -0.13076419382E+03 -0.95518203818E+03  0.12193587660E+04  0.15294330000E+03 0.  0.
<mgrwt>
<rscale>  0 0.92774106E+03</rscale>
<asrwt>0</asrwt>
<pdfrwt beam="1">  1        1 0.22005021E+00 0.99241202E+03</pdfrwt>
<pdfrwt beam="2">  1       -1 0.13074078E+00 0.99241202E+03</pdfrwt>
<totfact> 0.36782762E+00</totfact>
</mgrwt>
</event>
<event>
 4    1  0.1043382E-007  0.6945665E+03  0.7818608E-02  0.1002053E+00
         -1   -1    0    0    0  501 -0.00000000000E+00  0.00000000000E+00  0.90441655161E+03  0.90441655163E+03  0.50400000000E-02 0.  1.
          1   -1    0    0  501    0  0.00000000000E+00 -0.00000000000E+00 -0.10549795543E+04  0.10549795543E+04  0.50400000000E-02 0. -1.
    8880023    1    1    2    0    0  0.24634049096E+02  0.21910160461E+03  0.74851704687E+03  0.10211269878E+04  0.65864270000E+03 0.  1.
    8880022    1    1    2    0    0 -0.24634049096E+02 -0.21910160461E+03 -0.89908004959E+03  0.93826911816E+03  0.15294330000E+03 0.  0.
<mgrwt>
<rscale>  0 0.54758927E+03</rscale>
<asrwt>0</asrwt>
<pdfrwt beam="1">  1        1 0.16230455E+00 0.69456645E+03</pdfrwt>
<pdfrwt beam="2">  1       -1 0.13914101E+00 0.69456645E+03</pdfrwt>
<totfact> 0.61059471E+00</totfact>
</mgrwt>
</event>
<event>
 4    1  0.1043382E-007  0.7290518E+03  0.7818608E-02  0.9893069E-01
         -1   -1    0    0    0  501 -0.00000000000E+00  0.00000000000E+00  0.59361838306E+03  0.59361838308E+03  0.50400000000E-02 0.  1.
          1   -1    0    0  501    0  0.00000000000E+00 -0.00000000000E+00 -0.51433769465E+03  0.51433769468E+03  0.50400000000E-02 0. -1.
    8880023    1    1    2    0    0  0.28613063137E+03  0.12583976707E+03  0.16942337334E+03  0.74847903837E+03  0.65864270000E+03 0.  0.
    8880022    1    1    2    0    0 -0.28613063137E+03 -0.12583976707E+03 -0.90142684926E+02  0.35947703939E+03  0.15294330000E+03 0.  0.
<mgrwt>
<rscale>  0 0.60598371E+03</rscale>
<asrwt>0</asrwt>
<pdfrwt beam="1">  1        1 0.79128876E-01 0.72905184E+03</pdfrwt>
<pdfrwt beam="2">  1       -1 0.91325905E-01 0.72905184E+03</pdfrwt>
<totfact> 0.50990678E+01</totfact>
</mgrwt>
</event>
<event>
 4    1  0.1043382E-007  0.7665506E+03  0.7818608E-02  0.9788434E-01
          1   -1    0    0  501    0  0.00000000000E+00  0.00000000000E+00  0.11071942501E+04  0.11071942501E+04  0.50400000000E-02 0. -1.
         -1   -1    0    0    0  501 -0.00000000000E+00 -0.00000000000E+00 -0.80719627833E+03  0.80719627835E+03  0.50400000000E-02 0.  1.
    8880023    1    1    2    0    0  0.35794157338E+03 -0.16021083755E+03 -0.56509272216E+03  0.95232855324E+03  0.65864270000E+03 0.  0.
    8880022    1    1    2    0    0 -0.35794157338E+03  0.16021083755E+03  0.86509069389E+03  0.96206197518E+03  0.15294330000E+03 0.  0.
<mgrwt>
<rscale>  0 0.65986924E+03</rscale>
<asrwt>0</asrwt>
<pdfrwt beam="1">  1        1 0.17033758E+00 0.76655064E+03</pdfrwt>
<pdfrwt beam="2">  1       -1 0.12418404E+00 0.76655064E+03</pdfrwt>
<totfact> 0.73554778E+00</totfact>
</mgrwt>
</event>
<event>
 4    1  0.1043382E-007  0.6995306E+03  0.7818608E-02  0.9999154E-01
         -1   -1    0    0    0  501 -0.00000000000E+00  0.00000000000E+00  0.77458966445E+03  0.77458966447E+03  0.50400000000E-02 0.  1.
          1   -1    0    0  501    0  0.00000000000E+00 -0.00000000000E+00 -0.95499970888E+03  0.95499970889E+03  0.50400000000E-02 0. -1.
    8880023    1    1    2    0    0  0.22002764462E+03  0.84384460007E+02  0.58648474095E+03  0.91285675717E+03  0.65864270000E+03 0.  1.
    8880022    1    1    2    0    0 -0.22002764462E+03 -0.84384460007E+02 -0.76689478537E+03  0.81673261618E+03  0.15294330000E+03 0.  0.
<mgrwt>
<rscale>  0 0.55687352E+03</rscale>
<asrwt>0</asrwt>
<pdfrwt beam="1">  1        1 0.14692303E+00 0.69953063E+03</pdfrwt>
<pdfrwt beam="2">  1       -1 0.11916764E+00 0.69953063E+03</pdfrwt>
<totfact> 0.10747251E+01</totfact>
</mgrwt>
</event>
<event>
 4    1  0.1043382E-007  0.7971539E+03  0.7818608E-02  0.9716984E-01
         -1   -1    0    0    0  501 -0.00000000000E+00  0.00000000000E+00  0.55071979662E+03  0.55071979664E+03  0.50400000000E-02 0.  1.
          1   -1    0    0  501    0  0.00000000000E+00 -0.00000000000E+00 -0.10395066540E+04  0.10395066540E+04  0.50400000000E-02 0. -1.
    8880023    1    1    2    0    0  0.40574133556E+03 -0.19240087557E+03  0.13296880387E+03  0.80816770374E+03  0.65864270000E+03 0. -1.
    8880022    1    1    2    0    0 -0.40574133556E+03  0.19240087557E+03 -0.62175566121E+03  0.78205874688E+03  0.15294330000E+03 0.  0.
<mgrwt>
<rscale>  0 0.70014514E+03</rscale>
<asrwt>0</asrwt>
<pdfrwt beam="1">  1        1 0.15992410E+00 0.79715390E+03</pdfrwt>
<pdfrwt beam="2">  1       -1 0.84726122E-01 0.79715390E+03</pdfrwt>
<totfact> 0.19901047E+01</totfact>
</mgrwt>
</event>
<event>
 4    1  0.1043382E-007  0.6818210E+03  0.7818608E-02  0.1008312E+00
          1   -1    0    0  501    0  0.00000000000E+00  0.00000000000E+00  0.61274637002E+03  0.61274637004E+03  0.50400000000E-02 0. -1.
         -1   -1    0    0    0  501 -0.00000000000E+00 -0.00000000000E+00 -0.66298142253E+03  0.66298142255E+03  0.50400000000E-02 0.  1.
    8880023    1    1    2    0    0 -0.12370967028E+03 -0.12556089092E+03 -0.44709574148E+03  0.81533700281E+03  0.65864270000E+03 0.  1.
    8880022    1    1    2    0    0  0.12370967028E+03  0.12556089092E+03  0.39686068897E+03  0.46039078978E+03  0.15294330000E+03 0.  0.
<mgrwt>
<rscale>  0 0.52151132E+03</rscale>
<asrwt>0</asrwt>
<pdfrwt beam="1">  1        1 0.94268672E-01 0.68182096E+03</pdfrwt>
<pdfrwt beam="2">  1       -1 0.10199714E+00 0.68182096E+03</pdfrwt>
<totfact> 0.31206414E+01</totfact>
</mgrwt>
</event>
<event>
 4    1  0.1043382E-007  0.7554155E+03  0.7818608E-02  0.9817124E-01
         -1   -1    0    0    0  501 -0.00000000000E+00  0.00000000000E+00  0.70430827885E+03  0.70430827886E+03  0.50400000000E-02 0.  1.
          1   -1    0    0  501    0  0.00000000000E+00 -0.00000000000E+00 -0.81544490935E+03  0.81544490937E+03  0.50400000000E-02 0. -1.
    8880023    1    1    2    0    0  0.34185768279E+03  0.14133543966E+03  0.41245140920E+03  0.86067923932E+03  0.65864270000E+03 0.  0.
    8880022    1    1    2    0    0 -0.34185768279E+03 -0.14133543966E+03 -0.52358803971E+03  0.65907394891E+03  0.15294330000E+03 0. -1.
<mgrwt>
<rscale>  0 0.64451610E+03</rscale>
<asrwt>0</asrwt>
<pdfrwt beam="1">  1        1 0.12545306E+00 0.75541551E+03</pdfrwt>
<pdfrwt beam="2">  1       -1 0.10835512E+00 0.75541551E+03</pdfrwt>
<totfact> 0.17422170E+01</totfact>
</mgrwt>
</event>
<event>
 4    1  0.1043382E-007  0.7215010E+03  0.7818608E-02  0.9917539E-01
         -1   -1    0    0    0  501 -0.00000000000E+00  0.00000000000E+00  0.33130019590E+03  0.33130019594E+03  0.50400000000E-02 0.  1.
          1   -1    0    0  501    0  0.00000000000E+00 -0.00000000000E+00 -0.18035183349E+04  0.18035183349E+04  0.50400000000E-02 0. -1.
    8880023    1    1    2    0    0  0.25478484450E+03  0.14777755124E+03 -0.10645771074E+03  0.72931267100E+03  0.65864270000E+03 0.  1.
    8880022    1    1    2    0    0 -0.25478484450E+03 -0.14777755124E+03 -0.13657604282E+04  0.14055058598E+04  0.15294330000E+03 0.  1.
<mgrwt>
<rscale>  0 0.59418735E+03</rscale>
<asrwt>0</asrwt>
<pdfrwt beam="1">  1        1 0.27746435E+00 0.72150102E+03</pdfrwt>
<pdfrwt beam="2">  1       -1 0.50969262E-01 0.72150102E+03</pdfrwt>
<totfact> 0.16368094E+01</totfact>
</mgrwt>
</event>
<event>
 4    1  0.1043382E-007  0.7499741E+03  0.7818608E-02  0.9831791E-01
         -1   -1    0    0    0  501 -0.00000000000E+00  0.00000000000E+00  0.73708001205E+03  0.73708001207E+03  0.50400000000E-02 0.  1.
          1   -1    0    0  501    0  0.00000000000E+00 -0.00000000000E+00 -0.68137153870E+03  0.68137153872E+03  0.50400000000E-02 0. -1.
    8880023    1    1    2    0    0 -0.28914434329E+03 -0.21224146997E+03  0.44121137732E+03  0.87013135708E+03  0.65864270000E+03 0.  1.
    8880022    1    1    2    0    0  0.28914434329E+03  0.21224146997E+03 -0.38550290397E+03  0.54832019370E+03  0.15294330000E+03 0. -1.
<mgrwt>
<rscale>  0 0.63683999E+03</rscale>
<asrwt>0</asrwt>
<pdfrwt beam="1">  1        1 0.10482639E+00 0.74997407E+03</pdfrwt>
<pdfrwt beam="2">  1       -1 0.11339692E+00 0.74997407E+03</pdfrwt>
<totfact> 0.20684727E+01</totfact>
</mgrwt>
</event>
<event>
 4    1  0.1043382E-007  0.8738508E+03  0.7818608E-02  0.9569385E-01
          1   -1    0    0  501    0  0.00000000000E+00  0.00000000000E+00  0.15552034997E+04  0.15552034998E+04  0.50400000000E-02 0. -1.
         -1   -1    0    0    0  501 -0.00000000000E+00 -0.00000000000E+00 -0.42566928686E+03  0.42566928689E+03  0.50400000000E-02 0.  1.
    8880023    1    1    2    0    0  0.40604187058E+03 -0.40612192912E+03  0.23149756730E+03  0.90399466364E+03  0.65864270000E+03 0.  0.
    8880022    1    1    2    0    0 -0.40604187058E+03  0.40612192912E+03  0.89803664559E+03  0.10768781230E+04  0.15294330000E+03 0.  0.
<mgrwt>
<rscale>  0 0.79356050E+03</rscale>
<asrwt>0</asrwt>
<pdfrwt beam="1">  1        1 0.23926208E+00 0.87385080E+03</pdfrwt>
<pdfrwt beam="2">  1       -1 0.65487582E-01 0.87385080E+03</pdfrwt>
<totfact> 0.14452024E+01</totfact>
</mgrwt>
</event>
<event>
 4    1  0.1043382E-007  0.9070983E+03  0.7818608E-02  0.9514731E-01
         -1   -1    0    0    0  501 -0.00000000000E+00  0.00000000000E+00  0.44745541442E+03  0.44745541445E+03  0.50400000000E-02 0.  1.
          1   -1    0    0  501    0  0.00000000000E+00 -0.00000000000E+00 -0.16280193185E+04  0.16280193186E+04  0.50400000000E-02 0. -1.
    8880023    1    1    2    0    0  0.34319491085E+03 -0.52080169592E+03 -0.11038092851E+04  0.14287135113E+04  0.65864270000E+03 0.  0.
    8880022    1    1    2    0    0 -0.34319491085E+03  0.52080169592E+03 -0.76754619020E+02  0.64676122168E+03  0.15294330000E+03 0.  0.
<mgrwt>
<rscale>  0 0.83206406E+03</rscale>
<asrwt>0</asrwt>
<pdfrwt beam="1">  1        1 0.25046451E+00 0.90709832E+03</pdfrwt>
<pdfrwt beam="2">  1       -1 0.68839295E-01 0.90709832E+03</pdfrwt>
<totfact> 0.11602268E+01</totfact>
</mgrwt>
</event>
<event>
 4    1  0.1043382E-007  0.7402149E+03  0.7818608E-02  0.9859322E-01
         -1   -1    0    0    0  501 -0.00000000000E+00  0.00000000000E+00  0.36482036273E+03  0.36482036277E+03  0.50400000000E-02 0.  1.
          1   -1    0    0  501    0  0.00000000000E+00 -0.00000000000E+00 -0.26419203915E+04  0.26419203915E+04  0.50400000000E-02 0. -1.
    8880023    1    1    2    0    0  0.18084198989E+03 -0.28531386879E+03 -0.42338913456E+02  0.74142472234E+03  0.65864270000E+03 0.  1.
    8880022    1    1    2    0    0 -0.18084198989E+03  0.28531386879E+03 -0.22347611153E+04  0.22653160319E+04  0.15294330000E+03 0.  0.
<mgrwt>
<rscale>  0 0.62273888E+03</rscale>
<asrwt>0</asrwt>
<pdfrwt beam="1">  1        1 0.40644928E+00 0.74021486E+03</pdfrwt>
<pdfrwt beam="2">  1       -1 0.56126211E-01 0.74021486E+03</pdfrwt>
<totfact> 0.36895980E+00</totfact>
</mgrwt>
</event>
<event>
 4    1  0.1043382E-007  0.6837726E+03  0.7818608E-02  0.1007265E+00
          1   -1    0    0  501    0  0.00000000000E+00  0.00000000000E+00  0.25736925661E+04  0.25736925661E+04  0.50400000000E-02 0. -1.
         -1   -1    0    0    0  501 -0.00000000000E+00 -0.00000000000E+00 -0.27202767653E+03  0.27202767657E+03  0.50400000000E-02 0.  1.
    8880023    1    1    2    0    0 -0.16990319332E+03 -0.69768589252E+02  0.17519451477E+03  0.70585981286E+03  0.65864270000E+03 0.  0.
    8880022    1    1    2    0    0  0.16990319332E+03  0.69768589252E+02  0.21264703748E+04  0.21398604298E+04  0.15294330000E+03 0. -1.
<mgrwt>
<rscale>  0 0.52576101E+03</rscale>
<asrwt>0</asrwt>
<pdfrwt beam="1">  1        1 0.39595269E+00 0.68377259E+03</pdfrwt>
<pdfrwt beam="2">  1       -1 0.41850413E-01 0.68377259E+03</pdfrwt>
<totfact> 0.72198963E+00</totfact>
</mgrwt>
</event>
<event>
 4    1  0.1043382E-007  0.1143855E+04  0.7818608E-02  0.9213731E-01
         -1   -1    0    0    0  501 -0.00000000000E+00  0.00000000000E+00  0.13539550660E+04  0.13539550660E+04  0.50400000000E-02 0.  1.
          1   -1    0    0  501    0  0.00000000000E+00 -0.00000000000E+00 -0.97760699760E+03  0.97760699761E+03  0.50400000000E-02 0. -1.
    8880023    1    1    2    0    0  0.48806325690E+03 -0.79773945574E+03  0.68701752507E+03  0.13343152806E+04  0.65864270000E+03 0.  0.
    8880022    1    1    2    0    0 -0.48806325690E+03  0.79773945574E+03 -0.31066945666E+03  0.99724678305E+03  0.15294330000E+03 0.  0.
<mgrwt>
<rscale>  0 0.10912818E+04</rscale>
<asrwt>0</asrwt>
<pdfrwt beam="1">  1        1 0.15040108E+00 0.11438550E+04</pdfrwt>
<pdfrwt beam="2">  1       -1 0.20830078E+00 0.11438550E+04</pdfrwt>
<totfact> 0.20540747E+00</totfact>
</mgrwt>
</event>
<event>
 4    1  0.1043382E-007  0.6980522E+03  0.7818608E-02  0.1000538E+00
         -1   -1    0    0    0  501 -0.00000000000E+00  0.00000000000E+00  0.35255271604E+03  0.35255271607E+03  0.50400000000E-02 0.  1.
          1   -1    0    0  501    0  0.00000000000E+00 -0.00000000000E+00 -0.13704712017E+04  0.13704712017E+04  0.50400000000E-02 0. -1.
    8880023    1    1    2    0    0 -0.17662668030E+03 -0.14923045647E+03 -0.31908913197E+02  0.69878115196E+03  0.65864270000E+03 0.  1.
    8880022    1    1    2    0    0  0.17662668030E+03  0.14923045647E+03 -0.98600957244E+03  0.10242427658E+04  0.15294330000E+03 0.  0.
<mgrwt>
<rscale>  0 0.55415000E+03</rscale>
<asrwt>0</asrwt>
<pdfrwt beam="1">  1        1 0.21084172E+00 0.69805223E+03</pdfrwt>
<pdfrwt beam="2">  1       -1 0.54238880E-01 0.69805223E+03</pdfrwt>
<totfact> 0.28707171E+01</totfact>
</mgrwt>
</event>
<event>
 4    1  0.1043382E-007  0.7532146E+03  0.7818608E-02  0.9823002E-01
         -1   -1    0    0    0  501 -0.00000000000E+00  0.00000000000E+00  0.48573226883E+03  0.48573226886E+03  0.50400000000E-02 0.  1.
          1   -1    0    0  501    0  0.00000000000E+00 -0.00000000000E+00 -0.10075145982E+04  0.10075145983E+04  0.50400000000E-02 0. -1.
    8880023    1    1    2    0    0  0.34417969552E+03  0.12272853361E+03 -0.72724902219E+03  0.10470068301E+04  0.65864270000E+03 0. -1.
    8880022    1    1    2    0    0 -0.34417969552E+03 -0.12272853361E+03  0.20546669277E+03  0.44624003700E+03  0.15294330000E+03 0.  0.
<mgrwt>
<rscale>  0 0.64142606E+03</rscale>
<asrwt>0</asrwt>
<pdfrwt beam="1">  1        1 0.15500225E+00 0.75321455E+03</pdfrwt>
<pdfrwt beam="2">  1       -1 0.74728041E-01 0.75321455E+03</pdfrwt>
<totfact> 0.27624163E+01</totfact>
</mgrwt>
</event>
<event>
 4    1  0.1043382E-007  0.7085544E+03  0.7818608E-02  0.9963409E-01
         -1   -1    0    0    0  501 -0.00000000000E+00  0.00000000000E+00  0.14436762071E+04  0.14436762071E+04  0.50400000000E-02 0.  1.
          1   -1    0    0  501    0  0.00000000000E+00 -0.00000000000E+00 -0.78335610053E+03  0.78335610054E+03  0.50400000000E-02 0. -1.
    8880023    1    1    2    0    0 -0.23882571260E+03  0.10583691343E+03  0.13217136707E+04  0.14996587634E+04  0.65864270000E+03 0.  1.
    8880022    1    1    2    0    0  0.23882571260E+03 -0.10583691343E+03 -0.66139356408E+03  0.72737354424E+03  0.15294330000E+03 0.  0.
<mgrwt>
<rscale>  0 0.57284234E+03</rscale>
<asrwt>0</asrwt>
<pdfrwt beam="1">  1        1 0.12051632E+00 0.70855443E+03</pdfrwt>
<pdfrwt beam="2">  1       -1 0.22210403E+00 0.70855443E+03</pdfrwt>
<totfact> 0.25577065E+00</totfact>
</mgrwt>
</event>
<event>
 4    1  0.1043382E-007  0.7407327E+03  0.7818608E-02  0.9857818E-01
          1   -1    0    0  501    0  0.00000000000E+00  0.00000000000E+00  0.10633048249E+04  0.10633048249E+04  0.50400000000E-02 0. -1.
         -1   -1    0    0    0  501 -0.00000000000E+00 -0.00000000000E+00 -0.34120397180E+03  0.34120397184E+03  0.50400000000E-02 0.  1.
    8880023    1    1    2    0    0  0.22660307951E+03  0.25204325601E+03  0.20680651790E+03  0.76906040117E+03  0.65864270000E+03 0.  1.
    8880022    1    1    2    0    0 -0.22660307951E+03 -0.25204325601E+03  0.51529433524E+03  0.63544839561E+03  0.15294330000E+03 0.  0.
<mgrwt>
<rscale>  0 0.62349896E+03</rscale>
<asrwt>0</asrwt>
<pdfrwt beam="1">  1        1 0.16358536E+00 0.74073272E+03</pdfrwt>
<pdfrwt beam="2">  1       -1 0.52492919E-01 0.74073272E+03</pdfrwt>
<totfact> 0.50685883E+01</totfact>
</mgrwt>
</event>
<event>
 4    1  0.1043382E-007  0.7393190E+03  0.7818608E-02  0.9861935E-01
         -1   -1    0    0    0  501 -0.00000000000E+00  0.00000000000E+00  0.41782500930E+03  0.41782500933E+03  0.50400000000E-02 0.  1.
          1   -1    0    0  501    0  0.00000000000E+00 -0.00000000000E+00 -0.15503210045E+04  0.15503210045E+04  0.50400000000E-02 0. -1.
    8880023    1    1    2    0    0 -0.31501764447E+03 -0.11638852264E+03  0.38560376266E+02  0.74032392465E+03  0.65864270000E+03 0.  1.
    8880022    1    1    2    0    0  0.31501764447E+03  0.11638852264E+03 -0.11710563715E+04  0.12278220892E+04  0.15294330000E+03 0.  0.
<mgrwt>
<rscale>  0 0.62142069E+03</rscale>
<asrwt>0</asrwt>
<pdfrwt beam="1">  1        1 0.23851092E+00 0.73931902E+03</pdfrwt>
<pdfrwt beam="2">  1       -1 0.64280771E-01 0.73931902E+03</pdfrwt>
<totfact> 0.15385302E+01</totfact>
</mgrwt>
</event>
<event>
 4    1  0.1043382E-007  0.8252916E+03  0.7818608E-02  0.9658564E-01
         -1   -1    0    0    0  501 -0.00000000000E+00  0.00000000000E+00  0.38172663167E+03  0.38172663171E+03  0.50400000000E-02 0.  1.
          1   -1    0    0  501    0  0.00000000000E+00 -0.00000000000E+00 -0.19993827325E+04  0.19993827325E+04  0.50400000000E-02 0. -1.
    8880023    1    1    2    0    0  0.49381788857E+03 -0.58650128690E+02 -0.16975476162E+03  0.84256918412E+03  0.65864270000E+03 0.  0.
    8880022    1    1    2    0    0 -0.49381788857E+03  0.58650128690E+02 -0.14479013392E+04  0.15385401801E+04  0.15294330000E+03 0.  0.
<mgrwt>
<rscale>  0 0.73538386E+03</rscale>
<asrwt>0</asrwt>
<pdfrwt beam="1">  1        1 0.30759734E+00 0.82529156E+03</pdfrwt>
<pdfrwt beam="2">  1       -1 0.58727175E-01 0.82529156E+03</pdfrwt>
<totfact> 0.90679870E+00</totfact>
</mgrwt>
</event>
<event>
 4    1  0.1043382E-007  0.9075109E+03  0.7818608E-02  0.9514080E-01
          1   -1    0    0  501    0  0.00000000000E+00  0.00000000000E+00  0.20276261279E+04  0.20276261279E+04  0.50400000000E-02 0. -1.
         -1   -1    0    0    0  501 -0.00000000000E+00 -0.00000000000E+00 -0.76768525465E+03  0.76768525466E+03  0.50400000000E-02 0.  1.
    8880023    1    1    2    0    0 -0.47481550588E+03  0.40535907630E+03 -0.41749648382E+03  0.99893907003E+03  0.65864270000E+03 0.  0.
    8880022    1    1    2    0    0  0.47481550588E+03 -0.40535907630E+03  0.16774373571E+04  0.17963723126E+04  0.15294330000E+03 0.  0.
<mgrwt>
<rscale>  0 0.83253656E+03</rscale>
<asrwt>0</asrwt>
<pdfrwt beam="1">  1        1 0.31194248E+00 0.90751085E+03</pdfrwt>
<pdfrwt beam="2">  1       -1 0.11810542E+00 0.90751085E+03</pdfrwt>
<totfact> 0.18844107E+00</totfact>
</mgrwt>
</event>
<event>
 4    1  0.1043382E-007  0.8439385E+03  0.7818608E-02  0.9622798E-01
          1   -1    0    0  501    0  0.00000000000E+00  0.00000000000E+00  0.45208724808E+04  0.45208724808E+04  0.50400000000E-02 0. -1.
         -1   -1    0    0    0  501 -0.00000000000E+00 -0.00000000000E+00 -0.16366077350E+03  0.16366077358E+03  0.50400000000E-02 0.  1.
    8880023    1    1    2    0    0  0.27902646512E-01  0.52765700261E+03  0.11271413031E+04  0.14080765734E+04  0.65864270000E+03 0.  0.
    8880022    1    1    2    0    0 -0.27902646512E-01 -0.52765700261E+03  0.32300704042E+04  0.32764566810E+04  0.15294330000E+03 0.  0.
<mgrwt>
<rscale>  0 0.75805450E+03</rscale>
<asrwt>0</asrwt>
<pdfrwt beam="1">  1        1 0.69551868E+00 0.84393846E+03</pdfrwt>
<pdfrwt beam="2">  1       -1 0.25178587E-01 0.84393846E+03</pdfrwt>
<totfact> 0.46878537E-01</totfact>
</mgrwt>
</event>
<event>
 4    1  0.1043382E-007  0.6766817E+03  0.7818608E-02  0.1011267E+00
         -1   -1    0    0    0  501 -0.00000000000E+00  0.00000000000E+00  0.15765377314E+03  0.15765377322E+03  0.50400000000E-02 0.  1.
          1   -1    0    0  501    0  0.00000000000E+00 -0.00000000000E+00 -0.16147483287E+04  0.16147483287E+04  0.50400000000E-02 0. -1.
    8880023    1    1    2    0    0  0.38788566871E+02  0.15027771310E+03 -0.65696681454E+03  0.94313495622E+03  0.65864270000E+03 0.  1.
    8880022    1    1    2    0    0 -0.38788566871E+02 -0.15027771310E+03 -0.80012774101E+03  0.82926714569E+03  0.15294330000E+03 0.  0.
<mgrwt>
<rscale>  0 0.50974352E+03</rscale>
<asrwt>0</asrwt>
<pdfrwt beam="1">  1        1 0.24842281E+00 0.67668172E+03</pdfrwt>
<pdfrwt beam="2">  1       -1 0.24254428E-01 0.67668172E+03</pdfrwt>
<totfact> 0.83065461E+01</totfact>
</mgrwt>
</event>
<event>
 4    1  0.1043382E-007  0.9007979E+03  0.7818608E-02  0.9524752E-01
          1   -1    0    0  501    0  0.00000000000E+00  0.00000000000E+00  0.14266387779E+04  0.14266387779E+04  0.50400000000E-02 0. -1.
         -1   -1    0    0    0  501 -0.00000000000E+00 -0.00000000000E+00 -0.48807140485E+03  0.48807140488E+03  0.50400000000E-02 0.  1.
    8880023    1    1    2    0    0 -0.20964837015E+03 -0.57764543921E+03  0.16632800970E+03  0.91602505731E+03  0.65864270000E+03 0. -1.
    8880022    1    1    2    0    0  0.20964837015E+03  0.57764543921E+03  0.77223936338E+03  0.99868512551E+03  0.15294330000E+03 0.  0.
<mgrwt>
<rscale>  0 0.82483307E+03</rscale>
<asrwt>0</asrwt>
<pdfrwt beam="1">  1        1 0.21948288E+00 0.90079792E+03</pdfrwt>
<pdfrwt beam="2">  1       -1 0.75087910E-01 0.90079792E+03</pdfrwt>
<totfact> 0.13337952E+01</totfact>
</mgrwt>
</event>
<event>
 4    1  0.1043382E-007  0.7129720E+03  0.7818608E-02  0.9947126E-01
         -1   -1    0    0    0  501 -0.00000000000E+00  0.00000000000E+00  0.30558694612E+03  0.30558694616E+03  0.50400000000E-02 0.  1.
          1   -1    0    0  501    0  0.00000000000E+00 -0.00000000000E+00 -0.13152709432E+04  0.13152709432E+04  0.50400000000E-02 0. -1.
    8880023    1    1    2    0    0 -0.12163253481E+03  0.24438562365E+03 -0.18175829124E+03  0.73577516217E+03  0.65864270000E+03 0.  0.
    8880022    1    1    2    0    0  0.12163253481E+03 -0.24438562365E+03 -0.82792570580E+03  0.88508272716E+03  0.15294330000E+03 0.  0.
<mgrwt>
<rscale>  0 0.58030722E+03</rscale>
<asrwt>0</asrwt>
<pdfrwt beam="1">  1        1 0.20234937E+00 0.71297196E+03</pdfrwt>
<pdfrwt beam="2">  1       -1 0.47013377E-01 0.71297196E+03</pdfrwt>
<totfact> 0.41073230E+01</totfact>
</mgrwt>
</event>
<event>
 4    1  0.1043382E-007  0.6912442E+03  0.7818608E-02  0.1003567E+00
          1   -1    0    0  501    0  0.00000000000E+00  0.00000000000E+00  0.57798466020E+03  0.57798466022E+03  0.50400000000E-02 0. -1.
         -1   -1    0    0    0  501 -0.00000000000E+00 -0.00000000000E+00 -0.47032605723E+03  0.47032605725E+03  0.50400000000E-02 0.  1.
    8880023    1    1    2    0    0  0.20926652014E+03  0.14690454073E+02 -0.12172067934E+03  0.70187920323E+03  0.65864270000E+03 0.  1.
    8880022    1    1    2    0    0 -0.20926652014E+03 -0.14690454073E+02  0.22937928230E+03  0.34643151424E+03  0.15294330000E+03 0.  0.
<mgrwt>
<rscale>  0 0.54113552E+03</rscale>
<asrwt>0</asrwt>
<pdfrwt beam="1">  1        1 0.88920716E-01 0.69124416E+03</pdfrwt>
<pdfrwt beam="2">  1       -1 0.72357856E-01 0.69124416E+03</pdfrwt>
<totfact> 0.71363710E+01</totfact>
</mgrwt>
</event>
<event>
 4    1  0.1043382E-007  0.8312537E+03  0.7818608E-02  0.9646898E-01
         -1   -1    0    0    0  501 -0.00000000000E+00  0.00000000000E+00  0.48097672740E+03  0.48097672742E+03  0.50400000000E-02 0.  1.
          1   -1    0    0  501    0  0.00000000000E+00 -0.00000000000E+00 -0.28234268744E+04  0.28234268744E+04  0.50400000000E-02 0. -1.
    8880023    1    1    2    0    0  0.28790086212E+03  0.41747535006E+03  0.70275964710E+02  0.83421909101E+03  0.65864270000E+03 0.  1.
    8880022    1    1    2    0    0 -0.28790086212E+03 -0.41747535006E+03 -0.24127261117E+04  0.24701845108E+04  0.15294330000E+03 0.  0.
<mgrwt>
<rscale>  0 0.74268431E+03</rscale>
<asrwt>0</asrwt>
<pdfrwt beam="1">  1        1 0.43437336E+00 0.83125374E+03</pdfrwt>
<pdfrwt beam="2">  1       -1 0.73996421E-01 0.83125374E+03</pdfrwt>
<totfact> 0.15555416E+00</totfact>
</mgrwt>
</event>
<event>
 4    1  0.1043382E-007  0.7311942E+03  0.7818608E-02  0.9886382E-01
          1   -1    0    0  501    0  0.00000000000E+00  0.00000000000E+00  0.53120755193E+03  0.53120755195E+03  0.50400000000E-02 0. -1.
         -1   -1    0    0    0  501 -0.00000000000E+00 -0.00000000000E+00 -0.10927419783E+04  0.10927419783E+04  0.50400000000E-02 0.  1.
    8880023    1    1    2    0    0 -0.24501639444E+03 -0.20199450253E+03 -0.88332268577E+03  0.11466926293E+04  0.65864270000E+03 0.  1.
    8880022    1    1    2    0    0  0.24501639444E+03  0.20199450253E+03  0.32178825942E+03  0.47725690096E+03  0.15294330000E+03 0.  0.
<mgrwt>
<rscale>  0 0.60925814E+03</rscale>
<asrwt>0</asrwt>
<pdfrwt beam="1">  1        1 0.81724239E-01 0.73119424E+03</pdfrwt>
<pdfrwt beam="2">  1       -1 0.16811415E+00 0.73119424E+03</pdfrwt>
<totfact> 0.10687593E+01</totfact>
</mgrwt>
</event>
<event>
 4    1  0.1043382E-007  0.6996325E+03  0.7818608E-02  0.9998729E-01
         -1   -1    0    0    0  501 -0.00000000000E+00  0.00000000000E+00  0.38547052898E+03  0.38547052902E+03  0.50400000000E-02 0.  1.
          1   -1    0    0  501    0  0.00000000000E+00 -0.00000000000E+00 -0.17341867487E+04  0.17341867487E+04  0.50400000000E-02 0. -1.
    8880023    1    1    2    0    0  0.19587077751E+03 -0.13156798178E+03  0.41910526761E+02  0.70088671968E+03  0.65864270000E+03 0.  1.
    8880022    1    1    2    0    0 -0.19587077751E+03  0.13156798178E+03 -0.13906267464E+04  0.14187705580E+04  0.15294330000E+03 0.  0.
<mgrwt>
<rscale>  0 0.55706005E+03</rscale>
<asrwt>0</asrwt>
<pdfrwt beam="1">  1        1 0.26679796E+00 0.69963255E+03</pdfrwt>
<pdfrwt beam="2">  1       -1 0.59303160E-01 0.69963255E+03</pdfrwt>
<totfact> 0.13644258E+01</totfact>
</mgrwt>
</event>
<event>
 4    1  0.1043382E-007  0.9404662E+03  0.7818608E-02  0.9463966E-01
         -1   -1    0    0    0  501 -0.00000000000E+00  0.00000000000E+00  0.42496433858E+03  0.42496433861E+03  0.50400000000E-02 0.  1.
          1   -1    0    0  501    0  0.00000000000E+00 -0.00000000000E+00 -0.16357389537E+04  0.16357389537E+04  0.50400000000E-02 0. -1.
    8880023    1    1    2    0    0 -0.21330454499E+03 -0.63652784521E+03 -0.47712952961E+03  0.10545754221E+04  0.65864270000E+03 0.  0.
    8880022    1    1    2    0    0  0.21330454499E+03  0.63652784521E+03 -0.73364508547E+03  0.10061278701E+04  0.15294330000E+03 0.  0.
<mgrwt>
<rscale>  0 0.86993411E+03</rscale>
<asrwt>0</asrwt>
<pdfrwt beam="1">  1        1 0.25165214E+00 0.94046623E+03</pdfrwt>
<pdfrwt beam="2">  1       -1 0.65379130E-01 0.94046623E+03</pdfrwt>
<totfact> 0.12679990E+01</totfact>
</mgrwt>
</event>
<event>
 4    1  0.1043382E-007  0.7865378E+03  0.7818608E-02  0.9740698E-01
          1   -1    0    0  501    0  0.00000000000E+00  0.00000000000E+00  0.36016682295E+03  0.36016682299E+03  0.50400000000E-02 0. -1.
         -1   -1    0    0    0  501 -0.00000000000E+00 -0.00000000000E+00 -0.16612606747E+04  0.16612606747E+04  0.50400000000E-02 0.  1.
    8880023    1    1    2    0    0 -0.92116529385E+02 -0.41993577054E+03 -0.13500866218E+04  0.15624901916E+04  0.65864270000E+03 0.  1.
    8880022    1    1    2    0    0  0.92116529385E+02  0.41993577054E+03  0.48992770035E+02  0.45893730606E+03  0.15294330000E+03 0.  0.
<mgrwt>
<rscale>  0 0.68644513E+03</rscale>
<asrwt>0</asrwt>
<pdfrwt beam="1">  1        1 0.55410281E-01 0.78653780E+03</pdfrwt>
<pdfrwt beam="2">  1       -1 0.25557856E+00 0.78653780E+03</pdfrwt>
<totfact> 0.45781519E+00</totfact>
</mgrwt>
</event>
<event>
 4    1  0.1043382E-007  0.6982561E+03  0.7818608E-02  0.1000451E+00
         -1   -1    0    0    0  501 -0.00000000000E+00  0.00000000000E+00  0.13300242464E+04  0.13300242464E+04  0.50400000000E-02 0.  1.
          1   -1    0    0  501    0  0.00000000000E+00 -0.00000000000E+00 -0.69947195641E+03  0.69947195643E+03  0.50400000000E-02 0. -1.
    8880023    1    1    2    0    0  0.14885187795E+03 -0.17774857575E+03  0.12042838918E+04  0.13920708804E+04  0.65864270000E+03 0.  1.
    8880022    1    1    2    0    0 -0.14885187795E+03  0.17774857575E+03 -0.57373160181E+03  0.63742532244E+03  0.15294330000E+03 0.  0.
<mgrwt>
<rscale>  0 0.55452765E+03</rscale>
<asrwt>0</asrwt>
<pdfrwt beam="1">  1        1 0.10761107E+00 0.69825614E+03</pdfrwt>
<pdfrwt beam="2">  1       -1 0.20461911E+00 0.69825614E+03</pdfrwt>
<totfact> 0.39939676E+00</totfact>
</mgrwt>
</event>
<event>
 4    1  0.1043382E-007  0.7086770E+03  0.7818608E-02  0.9962947E-01
         -1   -1    0    0    0  501 -0.00000000000E+00  0.00000000000E+00  0.23695562542E+03  0.23695562548E+03  0.50400000000E-02 0.  1.
          1   -1    0    0  501    0  0.00000000000E+00 -0.00000000000E+00 -0.13649703670E+04  0.13649703670E+04  0.50400000000E-02 0. -1.
    8880023    1    1    2    0    0  0.25222449791E+03  0.69251056276E+02 -0.40091433276E+03  0.81422074072E+03  0.65864270000E+03 0.  1.
    8880022    1    1    2    0    0 -0.25222449791E+03 -0.69251056276E+02 -0.72710040879E+03  0.78770525174E+03  0.15294330000E+03 0. -1.
<mgrwt>
<rscale>  0 0.57305234E+03</rscale>
<asrwt>0</asrwt>
<pdfrwt beam="1">  1        1 0.20999544E+00 0.70867702E+03</pdfrwt>
<pdfrwt beam="2">  1       -1 0.36454712E-01 0.70867702E+03</pdfrwt>
<totfact> 0.60390728E+01</totfact>
</mgrwt>
</event>
<event>
 4    1  0.1043382E-007  0.8326663E+03  0.7818608E-02  0.9644167E-01
          1   -1    0    0  501    0  0.00000000000E+00  0.00000000000E+00  0.64336064269E+03  0.64336064271E+03  0.50400000000E-02 0. -1.
         -1   -1    0    0    0  501 -0.00000000000E+00 -0.00000000000E+00 -0.10615624234E+04  0.10615624234E+04  0.50400000000E-02 0.  1.
    8880023    1    1    2    0    0 -0.33263617728E+03  0.38584464930E+03 -0.71350419396E+03  0.10965497530E+04  0.65864270000E+03 0.  0.
    8880022    1    1    2    0    0  0.33263617728E+03 -0.38584464930E+03  0.29530241322E+03  0.60837331311E+03  0.15294330000E+03 0.  1.
<mgrwt>
<rscale>  0 0.74440648E+03</rscale>
<asrwt>0</asrwt>
<pdfrwt beam="1">  1        1 0.98978560E-01 0.83266628E+03</pdfrwt>
<pdfrwt beam="2">  1       -1 0.16331730E+00 0.83266628E+03</pdfrwt>
<totfact> 0.87094428E+00</totfact>
</mgrwt>
</event>
<event>
 4    1  0.1043382E-007  0.9266575E+03  0.7818608E-02  0.9484526E-01
         -1   -1    0    0    0  501 -0.00000000000E+00  0.00000000000E+00  0.10896144289E+04  0.10896144289E+04  0.50400000000E-02 0.  1.
          1   -1    0    0  501    0  0.00000000000E+00 -0.00000000000E+00 -0.16535483988E+04  0.16535483988E+04  0.50400000000E-02 0. -1.
    8880023    1    1    2    0    0  0.64581435298E+03 -0.88360956801E+02  0.79970748560E+03  0.12240204680E+04  0.65864270000E+03 0.  0.
    8880022    1    1    2    0    0 -0.64581435298E+03  0.88360956801E+02 -0.13636414555E+04  0.15191423598E+04  0.15294330000E+03 0.  0.
<mgrwt>
<rscale>  0 0.85434355E+03</rscale>
<asrwt>0</asrwt>
<pdfrwt beam="1">  1        1 0.25439206E+00 0.92665746E+03</pdfrwt>
<pdfrwt beam="2">  1       -1 0.16763299E+00 0.92665746E+03</pdfrwt>
<totfact> 0.13382788E+00</totfact>
</mgrwt>
</event>
<event>
 4    1  0.1043382E-007  0.6651418E+03  0.7818608E-02  0.1019415E+00
         -1   -1    0    0    0  501 -0.00000000000E+00  0.00000000000E+00  0.56174208946E+03  0.56174208948E+03  0.50400000000E-02 0.  1.
          1   -1    0    0  501    0  0.00000000000E+00 -0.00000000000E+00 -0.14143192862E+04  0.14143192862E+04  0.50400000000E-02 0. -1.
    8880023    1    1    2    0    0  0.62198627592E+02  0.68809832501E+02  0.35593094634E+03  0.75438750463E+03  0.65864270000E+03 0.  1.
    8880022    1    1    2    0    0 -0.62198627592E+02 -0.68809832501E+02 -0.12085081431E+04  0.12216738711E+04  0.15294330000E+03 0.  0.
<mgrwt>
<rscale>  0 0.47898417E+03</rscale>
<asrwt>0</asrwt>
<pdfrwt beam="1">  1        1 0.21758758E+00 0.66514184E+03</pdfrwt>
<pdfrwt beam="2">  1       -1 0.86421860E-01 0.66514184E+03</pdfrwt>
<totfact> 0.10418780E+01</totfact>
</mgrwt>
</event>
<event>
 4    1  0.1043382E-007  0.7671389E+03  0.7818608E-02  0.9786964E-01
          1   -1    0    0  501    0  0.00000000000E+00  0.00000000000E+00  0.53668146842E+03  0.53668146844E+03  0.50400000000E-02 0. -1.
         -1   -1    0    0    0  501 -0.00000000000E+00 -0.00000000000E+00 -0.90836240870E+03  0.90836240872E+03  0.50400000000E-02 0.  1.
    8880023    1    1    2    0    0 -0.36008081632E+03 -0.15822045965E+03 -0.59199140286E+03  0.96899738671E+03  0.65864270000E+03 0.  1.
    8880022    1    1    2    0    0  0.36008081632E+03  0.15822045965E+03  0.22031046258E+03  0.47604649045E+03  0.15294330000E+03 0.  0.
<mgrwt>
<rscale>  0 0.66066833E+03</rscale>
<asrwt>0</asrwt>
<pdfrwt beam="1">  1        1 0.82566380E-01 0.76713891E+03</pdfrwt>
<pdfrwt beam="2">  1       -1 0.13974806E+00 0.76713891E+03</pdfrwt>
<totfact> 0.17334341E+01</totfact>
</mgrwt>
</event>
<event>
 4    1  0.1043382E-007  0.7078076E+03  0.7818608E-02  0.9966234E-01
         -1   -1    0    0    0  501 -0.00000000000E+00  0.00000000000E+00  0.64213562011E+03  0.64213562013E+03  0.50400000000E-02 0.  1.
          1   -1    0    0  501    0  0.00000000000E+00 -0.00000000000E+00 -0.54539264736E+03  0.54539264738E+03  0.50400000000E-02 0. -1.
    8880023    1    1    2    0    0  0.24658883026E+03  0.79845343884E+02  0.35419175250E+03  0.79148173318E+03  0.65864270000E+03 0.  1.
    8880022    1    1    2    0    0 -0.24658883026E+03 -0.79845343884E+02 -0.25744877975E+03  0.39604653434E+03  0.15294330000E+03 0.  0.
<mgrwt>
<rscale>  0 0.57155921E+03</rscale>
<asrwt>0</asrwt>
<pdfrwt beam="1">  1        1 0.83906561E-01 0.70780756E+03</pdfrwt>
<pdfrwt beam="2">  1       -1 0.98790095E-01 0.70780756E+03</pdfrwt>
<totfact> 0.39500294E+01</totfact>
</mgrwt>
</event>
<event>
 4    1  0.1043382E-007  0.7768553E+03  0.7818608E-02  0.9763276E-01
         -1   -1    0    0    0  501 -0.00000000000E+00  0.00000000000E+00  0.58667143150E+03  0.58667143152E+03  0.50400000000E-02 0.  1.
          1   -1    0    0  501    0  0.00000000000E+00 -0.00000000000E+00 -0.69496072585E+03  0.69496072587E+03  0.50400000000E-02 0. -1.
    8880023    1    1    2    0    0 -0.28542137829E+03  0.29703300807E+03  0.12062640149E+03  0.78616468127E+03  0.65864270000E+03 0.  0.
    8880022    1    1    2    0    0  0.28542137829E+03 -0.29703300807E+03 -0.22891569585E+03  0.49546747612E+03  0.15294330000E+03 0.  0.
<mgrwt>
<rscale>  0 0.67371132E+03</rscale>
<asrwt>0</asrwt>
<pdfrwt beam="1">  1        1 0.10691703E+00 0.77685531E+03</pdfrwt>
<pdfrwt beam="2">  1       -1 0.90257144E-01 0.77685531E+03</pdfrwt>
<totfact> 0.33778112E+01</totfact>
</mgrwt>
</event>
<event>
 4    1  0.1043382E-007  0.9283515E+03  0.7818608E-02  0.9481971E-01
          1   -1    0    0  501    0  0.00000000000E+00  0.00000000000E+00  0.61150278285E+03  0.61150278287E+03  0.50400000000E-02 0. -1.
         -1   -1    0    0    0  501 -0.00000000000E+00 -0.00000000000E+00 -0.14132401301E+04  0.14132401301E+04  0.50400000000E-02 0.  1.
    8880023    1    1    2    0    0  0.34220800699E+03  0.55760193638E+03 -0.95897053985E+03  0.13347138053E+04  0.65864270000E+03 0.  0.
    8880022    1    1    2    0    0 -0.34220800699E+03 -0.55760193638E+03  0.15723319264E+03  0.69002910764E+03  0.15294330000E+03 0.  0.
<mgrwt>
<rscale>  0 0.85626199E+03</rscale>
<asrwt>0</asrwt>
<pdfrwt beam="1">  1        1 0.94077352E-01 0.92835147E+03</pdfrwt>
<pdfrwt beam="2">  1       -1 0.21742156E+00 0.92835147E+03</pdfrwt>
<totfact> 0.38685686E+00</totfact>
</mgrwt>
</event>
<event>
 4    1  0.1043382E-007  0.7618601E+03  0.7818608E-02  0.9800315E-01
          1   -1    0    0  501    0  0.00000000000E+00  0.00000000000E+00  0.14960705071E+04  0.14960705071E+04  0.50400000000E-02 0. -1.
         -1   -1    0    0    0  501 -0.00000000000E+00 -0.00000000000E+00 -0.23570691722E+03  0.23570691727E+03  0.50400000000E-02 0.  1.
    8880023    1    1    2    0    0  0.33489292431E+03 -0.18565384678E+03  0.93784610876E+03  0.12082988668E+04  0.65864270000E+03 0. -1.
    8880022    1    1    2    0    0 -0.33489292431E+03  0.18565384678E+03  0.32251748112E+03  0.52347855756E+03  0.15294330000E+03 0.  1.
<mgrwt>
<rscale>  0 0.65345617E+03</rscale>
<asrwt>0</asrwt>
<pdfrwt beam="1">  1        1 0.23016469E+00 0.76186011E+03</pdfrwt>
<pdfrwt beam="2">  1       -1 0.36262602E-01 0.76186011E+03</pdfrwt>
<totfact> 0.49206441E+01</totfact>
</mgrwt>
</event>
<event>
 4    1  0.1043382E-007  0.6871349E+03  0.7818608E-02  0.1005545E+00
          1   -1    0    0  501    0  0.00000000000E+00  0.00000000000E+00  0.32428187030E+04  0.32428187030E+04  0.50400000000E-02 0. -1.
         -1   -1    0    0    0  501 -0.00000000000E+00 -0.00000000000E+00 -0.70274596889E+02  0.70274597069E+02  0.50400000000E-02 0.  1.
    8880023    1    1    2    0    0  0.19529922396E+03 -0.14225980495E+02  0.20072674903E+04  0.21216213491E+04  0.65864270000E+03 0.  1.
    8880022    1    1    2    0    0 -0.19529922396E+03  0.14225980495E+02  0.11652766159E+04  0.11914719510E+04  0.15294330000E+03 0. -1.
<mgrwt>
<rscale>  0 0.53284225E+03</rscale>
<asrwt>0</asrwt>
<pdfrwt beam="1">  1        1 0.49889507E+00 0.68713490E+03</pdfrwt>
<pdfrwt beam="2">  1       -1 0.10811479E-01 0.68713490E+03</pdfrwt>
<totfact> 0.23673316E+01</totfact>
</mgrwt>
</event>
<event>
 4    1  0.1043382E-007  0.8474645E+03  0.7818608E-02  0.9616263E-01
         -1   -1    0    0    0  501 -0.00000000000E+00  0.00000000000E+00  0.30976605070E+03  0.30976605074E+03  0.50400000000E-02 0.  1.
          1   -1    0    0  501    0  0.00000000000E+00 -0.00000000000E+00 -0.21518755370E+04  0.21518755370E+04  0.50400000000E-02 0. -1.
    8880023    1    1    2    0    0 -0.47159689617E+03 -0.24896235077E+03 -0.44238058857E+03  0.95597943283E+03  0.65864270000E+03 0.  1.
    8880022    1    1    2    0    0  0.47159689617E+03  0.24896235077E+03 -0.13997288977E+04  0.15056621549E+04  0.15294330000E+03 0.  0.
<mgrwt>
<rscale>  0 0.76229093E+03</rscale>
<asrwt>0</asrwt>
<pdfrwt beam="1">  1        1 0.33105777E+00 0.84746451E+03</pdfrwt>
<pdfrwt beam="2">  1       -1 0.47656317E-01 0.84746451E+03</pdfrwt>
<totfact> 0.10667675E+01</totfact>
</mgrwt>
</event>
<event>
 4    1  0.1043382E-007  0.7181588E+03  0.7818608E-02  0.9928866E-01
          1   -1    0    0  501    0  0.00000000000E+00  0.00000000000E+00  0.18093031328E+04  0.18093031328E+04  0.50400000000E-02 0. -1.
         -1   -1    0    0    0  501 -0.00000000000E+00 -0.00000000000E+00 -0.20204426982E+03  0.20204426988E+03  0.50400000000E-02 0.  1.
    8880023    1    1    2    0    0  0.88559242931E+02 -0.27221157014E+03  0.15107395633E+04  0.16727480722E+04  0.65864270000E+03 0.  0.
    8880022    1    1    2    0    0 -0.88559242931E+02  0.27221157014E+03  0.96519299665E+02  0.33859933055E+03  0.15294330000E+03 0.  0.
<mgrwt>
<rscale>  0 0.58882495E+03</rscale>
<asrwt>0</asrwt>
<pdfrwt beam="1">  1        1 0.27835434E+00 0.71815882E+03</pdfrwt>
<pdfrwt beam="2">  1       -1 0.31083732E-01 0.71815882E+03</pdfrwt>
<totfact> 0.39907912E+01</totfact>
</mgrwt>
</event>
<event>
 4    1  0.1043382E-007  0.6797031E+03  0.7818608E-02  0.1009492E+00
         -1   -1    0    0    0  501 -0.00000000000E+00  0.00000000000E+00  0.24502574982E+03  0.24502574987E+03  0.50400000000E-02 0.  1.
          1   -1    0    0  501    0  0.00000000000E+00 -0.00000000000E+00 -0.96720930933E+03  0.96720930935E+03  0.50400000000E-02 0. -1.
    8880023    1    1    2    0    0 -0.11450981055E+03 -0.12277454058E+03 -0.71281099352E+03  0.98493441572E+03  0.65864270000E+03 0.  0.
    8880022    1    1    2    0    0  0.11450981055E+03  0.12277454058E+03 -0.93725659988E+01  0.22730064350E+03  0.15294330000E+03 0.  0.
<mgrwt>
<rscale>  0 0.51676991E+03</rscale>
<asrwt>0</asrwt>
<pdfrwt beam="1">  1        1 0.14880143E+00 0.67970309E+03</pdfrwt>
<pdfrwt beam="2">  1       -1 0.37696270E-01 0.67970309E+03</pdfrwt>
<totfact> 0.11160982E+02</totfact>
</mgrwt>
</event>
<event>
 4    1  0.1043382E-007  0.7003471E+03  0.7818608E-02  0.9995764E-01
          1   -1    0    0  501    0  0.00000000000E+00  0.00000000000E+00  0.44464044786E+03  0.44464044789E+03  0.50400000000E-02 0. -1.
         -1   -1    0    0    0  501 -0.00000000000E+00 -0.00000000000E+00 -0.83870956057E+03  0.83870956059E+03  0.50400000000E-02 0.  1.
    8880023    1    1    2    0    0 -0.82752384007E+02  0.22322159376E+03 -0.60893390238E+03  0.92805524658E+03  0.65864270000E+03 0.  1.
    8880022    1    1    2    0    0  0.82752384007E+02 -0.22322159376E+03  0.21486478967E+03  0.35529476190E+03  0.15294330000E+03 0.  0.
<mgrwt>
<rscale>  0 0.55836350E+03</rscale>
<asrwt>0</asrwt>
<pdfrwt beam="1">  1        1 0.68406223E-01 0.70034709E+03</pdfrwt>
<pdfrwt beam="2">  1       -1 0.12903224E+00 0.70034709E+03</pdfrwt>
<totfact> 0.27681561E+01</totfact>
</mgrwt>
</event>
<event>
 4    1  0.1043382E-007  0.6769905E+03  0.7818608E-02  0.1011080E+00
          1   -1    0    0  501    0  0.00000000000E+00  0.00000000000E+00  0.10588951954E+04  0.10588951955E+04  0.50400000000E-02 0. -1.
         -1   -1    0    0    0  501 -0.00000000000E+00 -0.00000000000E+00 -0.26817185212E+03  0.26817185217E+03  0.50400000000E-02 0.  1.
    8880023    1    1    2    0    0 -0.11006584853E+03 -0.11131685100E+03  0.21367547056E+03  0.70991080096E+03  0.65864270000E+03 0.  0.
    8880022    1    1    2    0    0  0.11006584853E+03  0.11131685100E+03  0.57704787276E+03  0.61715624666E+03  0.15294330000E+03 0.  0.
<mgrwt>
<rscale>  0 0.51047695E+03</rscale>
<asrwt>0</asrwt>
<pdfrwt beam="1">  1        1 0.16290695E+00 0.67699050E+03</pdfrwt>
<pdfrwt beam="2">  1       -1 0.41257208E-01 0.67699050E+03</pdfrwt>
<totfact> 0.80589787E+01</totfact>
</mgrwt>
</event>
<event>
 4    1  0.1292671E-007  0.8986500E+03  0.7818608E-02  0.9528202E-01
         -1   -1    0    0    0  501 -0.00000000000E+00  0.00000000000E+00  0.10033498993E+04  0.10033498993E+04  0.50400000000E-02 0.  1.
          1   -1    0    0  501    0  0.00000000000E+00 -0.00000000000E+00 -0.20392951991E+04  0.20392951991E+04  0.50400000000E-02 0. -1.
    8880023    1    1    2    0    0  0.53281913366E+03  0.29977561289E+03  0.73624676831E+03  0.11617362684E+04  0.65864270000E+03 0.  1.
    8880022    1    1    2    0    0 -0.53281913366E+03 -0.29977561289E+03 -0.17721920681E+04  0.18809088299E+04  0.15294330000E+03 0.  0.
<mgrwt>
<rscale>  0 0.82236139E+03</rscale>
<asrwt>0</asrwt>
<pdfrwt beam="1">  1        1 0.31373772E+00 0.89865002E+03</pdfrwt>
<pdfrwt beam="2">  1       -1 0.15436152E+00 0.89865002E+03</pdfrwt>
<totfact> 0.93076390E-01</totfact>
</mgrwt>
</event>
<event>
 4    1  0.1043382E-007  0.1046729E+04  0.7818608E-02  0.9322824E-01
          1   -1    0    0  501    0  0.00000000000E+00  0.00000000000E+00  0.23680129259E+04  0.23680129259E+04  0.50400000000E-02 0. -1.
         -1   -1    0    0    0  501 -0.00000000000E+00 -0.00000000000E+00 -0.56832982479E+03  0.56832982481E+03  0.50400000000E-02 0.  1.
    8880023    1    1    2    0    0  0.80626666575E+03 -0.10847133102E+03  0.10711509825E+03  0.10521957121E+04  0.65864270000E+03 0.  0.
    8880022    1    1    2    0    0 -0.80626666575E+03  0.10847133102E+03  0.16925680029E+04  0.18841470387E+04  0.15294330000E+03 0.  0.
<mgrwt>
<rscale>  0 0.98708560E+03</rscale>
<asrwt>0</asrwt>
<pdfrwt beam="1">  1        1 0.36430968E+00 0.10467293E+04</pdfrwt>
<pdfrwt beam="2">  1       -1 0.87435358E-01 0.10467293E+04</pdfrwt>
<totfact> 0.21725932E+00</totfact>
</mgrwt>
</event>
<event>
 4    1  0.1043382E-007  0.7561675E+03  0.7818608E-02  0.9815132E-01
          1   -1    0    0  501    0  0.00000000000E+00  0.00000000000E+00  0.10650142561E+04  0.10650142561E+04  0.50400000000E-02 0. -1.
         -1   -1    0    0    0  501 -0.00000000000E+00 -0.00000000000E+00 -0.79656462917E+03  0.79656462919E+03  0.50400000000E-02 0.  1.
    8880023    1    1    2    0    0 -0.35800742740E+03 -0.99044331758E+02 -0.55994756299E+03  0.94092006955E+03  0.65864270000E+03 0.  0.
    8880022    1    1    2    0    0  0.35800742740E+03  0.99044331758E+02  0.82839718989E+03  0.92065881572E+03  0.15294330000E+03 0.  0.
<mgrwt>
<rscale>  0 0.64556743E+03</rscale>
<asrwt>0</asrwt>
<pdfrwt beam="1">  1        1 0.16384835E+00 0.75616751E+03</pdfrwt>
<pdfrwt beam="2">  1       -1 0.12254840E+00 0.75616751E+03</pdfrwt>
<totfact> 0.81867526E+00</totfact>
</mgrwt>
</event>
<event>
 4    1  0.1043382E-007  0.1303550E+04  0.7818608E-02  0.9062500E-01
          1   -1    0    0  501    0  0.00000000000E+00  0.00000000000E+00  0.14365862105E+04  0.14365862105E+04  0.50400000000E-02 0. -1.
         -1   -1    0    0    0  501 -0.00000000000E+00 -0.00000000000E+00 -0.14219409690E+04  0.14219409690E+04  0.50400000000E-02 0.  1.
    8880023    1    1    2    0    0 -0.32499410429E+03  0.10769454048E+04  0.75191858081E+03  0.15048668815E+04  0.65864270000E+03 0. -1.
    8880022    1    1    2    0    0  0.32499410429E+03 -0.10769454048E+04 -0.73727333928E+03  0.13536602980E+04  0.15294330000E+03 0.  0.
<mgrwt>
<rscale>  0 0.12592733E+04</rscale>
<asrwt>0</asrwt>
<pdfrwt beam="1">  1        1 0.22101326E+00 0.13035501E+04</pdfrwt>
<pdfrwt beam="2">  1       -1 0.21876015E+00 0.13035501E+04</pdfrwt>
<totfact> 0.78615057E-01</totfact>
</mgrwt>
</event>
<event>
 4    1  0.1043382E-007  0.8489635E+03  0.7818608E-02  0.9613505E-01
         -1   -1    0    0    0  501 -0.00000000000E+00  0.00000000000E+00  0.10187583142E+04  0.10187583143E+04  0.50400000000E-02 0.  1.
          1   -1    0    0  501    0  0.00000000000E+00 -0.00000000000E+00 -0.13852830743E+04  0.13852830743E+04  0.50400000000E-02 0. -1.
    8880023    1    1    2    0    0 -0.53252803090E+03 -0.57815494959E+02  0.76502327105E+03  0.11428033718E+04  0.65864270000E+03 0.  1.
    8880022    1    1    2    0    0  0.53252803090E+03  0.57815494959E+02 -0.11315480311E+04  0.12612380167E+04  0.15294330000E+03 0.  0.
<mgrwt>
<rscale>  0 0.76408739E+03</rscale>
<asrwt>0</asrwt>
<pdfrwt beam="1">  1        1 0.21312047E+00 0.84896345E+03</pdfrwt>
<pdfrwt beam="2">  1       -1 0.15673205E+00 0.84896345E+03</pdfrwt>
<totfact> 0.25009429E+00</totfact>
</mgrwt>
</event>
<event>
 4    1  0.1043382E-007  0.8813191E+03  0.7818608E-02  0.9556711E-01
         -1   -1    0    0    0  501 -0.00000000000E+00  0.00000000000E+00  0.17899225539E+04  0.17899225539E+04  0.50400000000E-02 0.  1.
          1   -1    0    0  501    0  0.00000000000E+00 -0.00000000000E+00 -0.71801300820E+03  0.71801300821E+03  0.50400000000E-02 0. -1.
    8880023    1    1    2    0    0 -0.41314200987E+03  0.41500219021E+03  0.15185341378E+04  0.17557531922E+04  0.65864270000E+03 0.  1.
    8880022    1    1    2    0    0  0.41314200987E+03 -0.41500219021E+03 -0.44662459212E+03  0.75218236984E+03  0.15294330000E+03 0.  0.
<mgrwt>
<rscale>  0 0.80228784E+03</rscale>
<asrwt>0</asrwt>
<pdfrwt beam="1">  1        1 0.11046354E+00 0.88131909E+03</pdfrwt>
<pdfrwt beam="2">  1       -1 0.27537270E+00 0.88131909E+03</pdfrwt>
<totfact> 0.12851926E+00</totfact>
</mgrwt>
</event>
<event>
 4    1  0.1043382E-007  0.9275867E+03  0.7818608E-02  0.9483123E-01
         -1   -1    0    0    0  501 -0.00000000000E+00  0.00000000000E+00  0.20707710283E+04  0.20707710283E+04  0.50400000000E-02 0.  1.
          1   -1    0    0  501    0  0.00000000000E+00 -0.00000000000E+00 -0.97222838546E+03  0.97222838547E+03  0.50400000000E-02 0. -1.
    8880023    1    1    2    0    0 -0.10854757049E+02  0.65306123119E+03 -0.67476567579E+03  0.11470508798E+04  0.65864270000E+03 0. -1.
    8880022    1    1    2    0    0  0.10854757049E+02 -0.65306123119E+03  0.17733083186E+04  0.18959485339E+04  0.15294330000E+03 0.  0.
<mgrwt>
<rscale>  0 0.85539606E+03</rscale>
<asrwt>0</asrwt>
<pdfrwt beam="1">  1        1 0.14957360E+00 0.92758666E+03</pdfrwt>
<pdfrwt beam="2">  1       -1 0.31858015E+00 0.92758666E+03</pdfrwt>
<totfact> 0.40942928E-01</totfact>
</mgrwt>
</event>
<event>
 4    1  0.1043382E-007  0.7647114E+03  0.7818608E-02  0.9793059E-01
          1   -1    0    0  501    0  0.00000000000E+00  0.00000000000E+00  0.48553587219E+03  0.48553587221E+03  0.50400000000E-02 0. -1.
         -1   -1    0    0    0  501 -0.00000000000E+00 -0.00000000000E+00 -0.13900623331E+04  0.13900623331E+04  0.50400000000E-02 0.  1.
    8880023    1    1    2    0    0  0.12279212633E+03  0.36863988382E+03 -0.11575595641E+04  0.13873455305E+04  0.65864270000E+03 0.  0.
    8880022    1    1    2    0    0 -0.12279212633E+03 -0.36863988382E+03  0.25303310314E+03  0.48825267489E+03  0.15294330000E+03 0.  0.
<mgrwt>
<rscale>  0 0.65736345E+03</rscale>
<asrwt>0</asrwt>
<pdfrwt beam="1">  1        1 0.74697827E-01 0.76471137E+03</pdfrwt>
<pdfrwt beam="2">  1       -1 0.21385574E+00 0.76471137E+03</pdfrwt>
<totfact> 0.57756023E+00</totfact>
</mgrwt>
</event>
<event>
 4    1  0.1043382E-007  0.6772075E+03  0.7818608E-02  0.1010949E+00
          1   -1    0    0  501    0  0.00000000000E+00  0.00000000000E+00  0.10961672780E+04  0.10961672781E+04  0.50400000000E-02 0. -1.
         -1   -1    0    0    0  501 -0.00000000000E+00 -0.00000000000E+00 -0.21297307851E+03  0.21297307857E+03  0.50400000000E-02 0.  1.
    8880023    1    1    2    0    0  0.55127117146E+02 -0.14751530023E+03  0.42084228328E+03  0.79731938175E+03  0.65864270000E+03 0.  0.
    8880022    1    1    2    0    0 -0.55127117146E+02  0.14751530023E+03  0.46235191625E+03  0.51182097488E+03  0.15294330000E+03 0.  0.
<mgrwt>
<rscale>  0 0.51099014E+03</rscale>
<asrwt>0</asrwt>
<pdfrwt beam="1">  1        1 0.16864112E+00 0.67720748E+03</pdfrwt>
<pdfrwt beam="2">  1       -1 0.32765090E-01 0.67720748E+03</pdfrwt>
<totfact> 0.11419469E+02</totfact>
</mgrwt>
</event>
<event>
 4    1  0.1043382E-007  0.9046586E+03  0.7818608E-02  0.9518594E-01
         -1   -1    0    0    0  501 -0.00000000000E+00  0.00000000000E+00  0.73817178416E+03  0.73817178418E+03  0.50400000000E-02 0.  1.
          1   -1    0    0  501    0  0.00000000000E+00 -0.00000000000E+00 -0.12668132385E+04  0.12668132385E+04  0.50400000000E-02 0. -1.
    8880023    1    1    2    0    0 -0.56506945978E+03 -0.25552605663E+03  0.30507425677E+03  0.95471334357E+03  0.65864270000E+03 0.  1.
    8880022    1    1    2    0    0  0.56506945978E+03  0.25552605663E+03 -0.83371571113E+03  0.10502716791E+04  0.15294330000E+03 0.  0.
<mgrwt>
<rscale>  0 0.82926736E+03</rscale>
<asrwt>0</asrwt>
<pdfrwt beam="1">  1        1 0.19489434E+00 0.90465865E+03</pdfrwt>
<pdfrwt beam="2">  1       -1 0.11356489E+00 0.90465865E+03</pdfrwt>
<totfact> 0.68625887E+00</totfact>
</mgrwt>
</event>
<event>
 4    1  0.1043382E-007  0.6885990E+03  0.7818608E-02  0.1004826E+00
         -1   -1    0    0    0  501 -0.00000000000E+00  0.00000000000E+00  0.12912655370E+03  0.12912655380E+03  0.50400000000E-02 0.  1.
          1   -1    0    0  501    0  0.00000000000E+00 -0.00000000000E+00 -0.27518807741E+04  0.27518807741E+04  0.50400000000E-02 0. -1.
    8880023    1    1    2    0    0  0.12021778621E+03  0.16095361627E+03 -0.86696674647E+03  0.11071584929E+04  0.65864270000E+03 0.  1.
    8880022    1    1    2    0    0 -0.12021778621E+03 -0.16095361627E+03 -0.17557874739E+04  0.17738488350E+04  0.15294330000E+03 0.  0.
<mgrwt>
<rscale>  0 0.53583965E+03</rscale>
<asrwt>0</asrwt>
<pdfrwt beam="1">  1        1 0.42336623E+00 0.68859900E+03</pdfrwt>
<pdfrwt beam="2">  1       -1 0.19865626E-01 0.68859900E+03</pdfrwt>
<totfact> 0.19818907E+01</totfact>
</mgrwt>
</event>
<event>
 4    1  0.1043382E-007  0.8604544E+03  0.7818608E-02  0.9592756E-01
         -1   -1    0    0    0  501 -0.00000000000E+00  0.00000000000E+00  0.15252396222E+03  0.15252396231E+03  0.50400000000E-02 0.  1.
          1   -1    0    0  501    0  0.00000000000E+00 -0.00000000000E+00 -0.35413134708E+04  0.35413134708E+04  0.50400000000E-02 0. -1.
    8880023    1    1    2    0    0 -0.40268880201E+03  0.38001747736E+03 -0.24092411918E+04  0.25582855354E+04  0.65864270000E+03 0. -1.
    8880022    1    1    2    0    0  0.40268880201E+03 -0.38001747736E+03 -0.97954831681E+03  0.11355518977E+04  0.15294330000E+03 0.  0.
<mgrwt>
<rscale>  0 0.77777518E+03</rscale>
<asrwt>0</asrwt>
<pdfrwt beam="1">  1        1 0.54481739E+00 0.86045439E+03</pdfrwt>
<pdfrwt beam="2">  1       -1 0.23465228E-01 0.86045439E+03</pdfrwt>
<totfact> 0.38345432E+00</totfact>
</mgrwt>
</event>
<event>
 4    1  0.1043382E-007  0.7259412E+03  0.7818608E-02  0.9902973E-01
         -1   -1    0    0    0  501 -0.00000000000E+00  0.00000000000E+00  0.65274513443E+03  0.65274513445E+03  0.50400000000E-02 0.  1.
          1   -1    0    0  501    0  0.00000000000E+00 -0.00000000000E+00 -0.12259925609E+04  0.12259925609E+04  0.50400000000E-02 0. -1.
    8880023    1    1    2    0    0  0.23591973804E+03 -0.19370679431E+03  0.41290483004E+03  0.83515330922E+03  0.65864270000E+03 0.  1.
    8880022    1    1    2    0    0 -0.23591973804E+03  0.19370679431E+03 -0.98615225648E+03  0.10435843861E+04  0.15294330000E+03 0.  0.
<mgrwt>
<rscale>  0 0.60117432E+03</rscale>
<asrwt>0</asrwt>
<pdfrwt beam="1">  1        1 0.18861424E+00 0.72594122E+03</pdfrwt>
<pdfrwt beam="2">  1       -1 0.10042233E+00 0.72594122E+03</pdfrwt>
<totfact> 0.10027722E+01</totfact>
</mgrwt>
</event>
<event>
 4    1  0.1043382E-007  0.6998924E+03  0.7818608E-02  0.9997648E-01
         -1   -1    0    0    0  501 -0.00000000000E+00  0.00000000000E+00  0.23323917892E+04  0.23323917892E+04  0.50400000000E-02 0.  1.
          1   -1    0    0  501    0  0.00000000000E+00 -0.00000000000E+00 -0.11314223979E+03  0.11314223990E+03  0.50400000000E-02 0. -1.
    8880023    1    1    2    0    0 -0.17209000110E+03  0.16255512994E+03  0.18704200871E+04  0.19970780273E+04  0.65864270000E+03 0.  0.
    8880022    1    1    2    0    0  0.17209000110E+03 -0.16255512994E+03  0.34882946233E+03  0.44845600180E+03  0.15294330000E+03 0.  0.
<mgrwt>
<rscale>  0 0.55753490E+03</rscale>
<asrwt>0</asrwt>
<pdfrwt beam="1">  1        1 0.17406499E-01 0.69989238E+03</pdfrwt>
<pdfrwt beam="2">  1       -1 0.35882950E+00 0.69989238E+03</pdfrwt>
<totfact> 0.45531379E+00</totfact>
</mgrwt>
</event>
<event>
 4    1  0.1043382E-007  0.8427558E+03  0.7818608E-02  0.9625006E-01
         -1   -1    0    0    0  501 -0.00000000000E+00  0.00000000000E+00  0.10111915823E+04  0.10111915823E+04  0.50400000000E-02 0.  1.
          1   -1    0    0  501    0  0.00000000000E+00 -0.00000000000E+00 -0.50702613241E+03  0.50702613243E+03  0.50400000000E-02 0. -1.
    8880023    1    1    2    0    0  0.42261077991E+03 -0.31277347747E+03  0.12447951018E+03  0.85189933339E+03  0.65864270000E+03 0.  1.
    8880022    1    1    2    0    0 -0.42261077991E+03  0.31277347747E+03  0.37968593971E+03  0.66631838136E+03  0.15294330000E+03 0. -1.
<mgrwt>
<rscale>  0 0.75663018E+03</rscale>
<asrwt>0</asrwt>
<pdfrwt beam="1">  1        1 0.78004021E-01 0.84275579E+03</pdfrwt>
<pdfrwt beam="2">  1       -1 0.15556794E+00 0.84275579E+03</pdfrwt>
<totfact> 0.13979633E+01</totfact>
</mgrwt>
</event>
<event>
 4    1  0.1043382E-007  0.8978113E+03  0.7818608E-02  0.9529554E-01
         -1   -1    0    0    0  501 -0.00000000000E+00  0.00000000000E+00  0.85475369392E+03  0.85475369393E+03  0.50400000000E-02 0.  1.
          1   -1    0    0  501    0  0.00000000000E+00 -0.00000000000E+00 -0.16365371393E+04  0.16365371393E+04  0.50400000000E-02 0. -1.
    8880023    1    1    2    0    0 -0.55724524240E+03 -0.24846067955E+03  0.52568375080E+03  0.10403886685E+04  0.65864270000E+03 0.  0.
    8880022    1    1    2    0    0  0.55724524240E+03  0.24846067955E+03 -0.13074671961E+04  0.14509021647E+04  0.15294330000E+03 0.  0.
<mgrwt>
<rscale>  0 0.82139535E+03</rscale>
<asrwt>0</asrwt>
<pdfrwt beam="1">  1        1 0.25177494E+00 0.89781133E+03</pdfrwt>
<pdfrwt beam="2">  1       -1 0.13150057E+00 0.89781133E+03</pdfrwt>
<totfact> 0.26504775E+00</totfact>
</mgrwt>
</event>
<event>
 4    1  0.1043382E-007  0.1150707E+04  0.7818608E-02  0.9206594E-01
         -1   -1    0    0    0  501 -0.00000000000E+00  0.00000000000E+00  0.39416266871E+03  0.39416266874E+03  0.50400000000E-02 0.  1.
          1   -1    0    0  501    0  0.00000000000E+00 -0.00000000000E+00 -0.37722236706E+04  0.37722236706E+04  0.50400000000E-02 0. -1.
    8880023    1    1    2    0    0 -0.94008876571E+03  0.80933271963E+02 -0.28518161204E+04  0.30752207193E+04  0.65864270000E+03 0.  0.
    8880022    1    1    2    0    0  0.94008876571E+03 -0.80933271963E+02 -0.52624488149E+03  0.10911656200E+04  0.15294330000E+03 0.  1.
<mgrwt>
<rscale>  0 0.10985621E+04</rscale>
<asrwt>0</asrwt>
<pdfrwt beam="1">  1        1 0.58034208E+00 0.11507073E+04</pdfrwt>
<pdfrwt beam="2">  1       -1 0.60640413E-01 0.11507073E+04</pdfrwt>
<totfact> 0.42341164E-01</totfact>
</mgrwt>
</event>
<event>
 4    1  0.1043382E-007  0.8122326E+03  0.7818608E-02  0.9684945E-01
         -1   -1    0    0    0  501 -0.00000000000E+00  0.00000000000E+00  0.32663294478E+03  0.32663294482E+03  0.50400000000E-02 0.  1.
          1   -1    0    0  501    0  0.00000000000E+00 -0.00000000000E+00 -0.26297514306E+04  0.26297514307E+04  0.50400000000E-02 0. -1.
    8880023    1    1    2    0    0 -0.28987244184E+03 -0.37667693851E+03 -0.25953730866E+03  0.85269066454E+03  0.65864270000E+03 0.  1.
    8880022    1    1    2    0    0  0.28987244184E+03  0.37667693851E+03 -0.20435811772E+04  0.21036937109E+04  0.15294330000E+03 0.  0.
<mgrwt>
<rscale>  0 0.71920266E+03</rscale>
<asrwt>0</asrwt>
<pdfrwt beam="1">  1        1 0.40457713E+00 0.81223257E+03</pdfrwt>
<pdfrwt beam="2">  1       -1 0.50251224E-01 0.81223257E+03</pdfrwt>
<totfact> 0.45910156E+00</totfact>
</mgrwt>
</event>
<event>
 4    1  0.1043382E-007  0.6806757E+03  0.7818608E-02  0.1008944E+00
         -1   -1    0    0    0  501 -0.00000000000E+00  0.00000000000E+00  0.50814538472E+03  0.50814538474E+03  0.50400000000E-02 0.  1.
          1   -1    0    0  501    0  0.00000000000E+00 -0.00000000000E+00 -0.23463980244E+04  0.23463980244E+04  0.50400000000E-02 0. -1.
    8880023    1    1    2    0    0  0.16830665343E+03 -0.34380936664E+02  0.27110873044E+03  0.73267955368E+03  0.65864270000E+03 0.  1.
    8880022    1    1    2    0    0 -0.16830665343E+03  0.34380936664E+02 -0.21093613701E+04  0.21218638555E+04  0.15294330000E+03 0.  0.
<mgrwt>
<rscale>  0 0.51896490E+03</rscale>
<asrwt>0</asrwt>
<pdfrwt beam="1">  1        1 0.36098431E+00 0.68067568E+03</pdfrwt>
<pdfrwt beam="2">  1       -1 0.78176214E-01 0.68067568E+03</pdfrwt>
<totfact> 0.30427481E+00</totfact>
</mgrwt>
</event>
<event>
 4    1  0.1043382E-007  0.7058147E+03  0.7818608E-02  0.9973884E-01
         -1   -1    0    0    0  501 -0.00000000000E+00  0.00000000000E+00  0.79088138086E+03  0.79088138087E+03  0.50400000000E-02 0.  1.
          1   -1    0    0  501    0  0.00000000000E+00 -0.00000000000E+00 -0.33326475153E+03  0.33326475157E+03  0.50400000000E-02 0. -1.
    8880023    1    1    2    0    0  0.55849499875E+02  0.24747730532E+03  0.43033253187E+03  0.82665620274E+03  0.65864270000E+03 0.  1.
    8880022    1    1    2    0    0 -0.55849499875E+02 -0.24747730532E+03  0.27284097450E+02  0.29748992970E+03  0.15294330000E+03 0.  1.
<mgrwt>
<rscale>  0 0.56810358E+03</rscale>
<asrwt>0</asrwt>
<pdfrwt beam="1">  1        1 0.51271501E-01 0.70581470E+03</pdfrwt>
<pdfrwt beam="2">  1       -1 0.12167406E+00 0.70581470E+03</pdfrwt>
<totfact> 0.46822377E+01</totfact>
</mgrwt>
</event>
<event>
 4    1  0.1043382E-007  0.8506481E+03  0.7818608E-02  0.9610420E-01
         -1   -1    0    0    0  501 -0.00000000000E+00  0.00000000000E+00  0.52767708675E+03  0.52767708677E+03  0.50400000000E-02 0.  1.
          1   -1    0    0  501    0  0.00000000000E+00 -0.00000000000E+00 -0.15947634182E+04  0.15947634182E+04  0.50400000000E-02 0. -1.
    8880023    1    1    2    0    0 -0.35227640591E+03 -0.40705443784E+03  0.71609498873E+02  0.85365690305E+03  0.65864270000E+03 0.  1.
    8880022    1    1    2    0    0  0.35227640591E+03  0.40705443784E+03 -0.11386958303E+04  0.12687836019E+04  0.15294330000E+03 0.  0.
<mgrwt>
<rscale>  0 0.76610330E+03</rscale>
<asrwt>0</asrwt>
<pdfrwt beam="1">  1        1 0.24534822E+00 0.85064810E+03</pdfrwt>
<pdfrwt beam="2">  1       -1 0.81181091E-01 0.85064810E+03</pdfrwt>
<totfact> 0.87225688E+00</totfact>
</mgrwt>
</event>
<event>
 4    1  0.1043382E-007  0.1005989E+04  0.7818608E-02  0.9373763E-01
         -1   -1    0    0    0  501 -0.00000000000E+00  0.00000000000E+00  0.15559186805E+04  0.15559186805E+04  0.50400000000E-02 0.  1.
          1   -1    0    0  501    0  0.00000000000E+00 -0.00000000000E+00 -0.83673115632E+03  0.83673115634E+03  0.50400000000E-02 0. -1.
    8880023    1    1    2    0    0  0.31615947230E+03  0.69155463772E+03  0.11316698840E+04  0.15141636508E+04  0.65864270000E+03 0. -1.
    8880022    1    1    2    0    0 -0.31615947230E+03 -0.69155463772E+03 -0.41248235981E+03  0.87848618603E+03  0.15294330000E+03 0.  0.
<mgrwt>
<rscale>  0 0.94266682E+03</rscale>
<asrwt>0</asrwt>
<pdfrwt beam="1">  1        1 0.12872787E+00 0.10059895E+04</pdfrwt>
<pdfrwt beam="2">  1       -1 0.23937210E+00 0.10059895E+04</pdfrwt>
<totfact> 0.16926886E+00</totfact>
</mgrwt>
</event>
<event>
 4    1  0.1043382E-007  0.7484474E+03  0.7818608E-02  0.9835990E-01
          1   -1    0    0  501    0  0.00000000000E+00  0.00000000000E+00  0.36711154287E+03  0.36711154291E+03  0.50400000000E-02 0. -1.
         -1   -1    0    0    0  501 -0.00000000000E+00 -0.00000000000E+00 -0.18629181905E+04  0.18629181905E+04  0.50400000000E-02 0.  1.
    8880023    1    1    2    0    0 -0.23753790300E+03 -0.26445978808E+03 -0.16512828310E+04  0.18129832953E+04  0.65864270000E+03 0.  0.
    8880022    1    1    2    0    0  0.23753790300E+03  0.26445978808E+03  0.15547618341E+03  0.41704643806E+03  0.15294330000E+03 0.  0.
<mgrwt>
<rscale>  0 0.63466357E+03</rscale>
<asrwt>0</asrwt>
<pdfrwt beam="1">  1        1 0.56478700E-01 0.74844735E+03</pdfrwt>
<pdfrwt beam="2">  1       -1 0.28660279E+00 0.74844735E+03</pdfrwt>
<totfact> 0.28414722E+00</totfact>
</mgrwt>
</event>
<event>
 4    1  0.1043382E-007  0.7113415E+03  0.7818608E-02  0.9953053E-01
         -1   -1    0    0    0  501 -0.00000000000E+00  0.00000000000E+00  0.57871704226E+03  0.57871704228E+03  0.50400000000E-02 0.  1.
          1   -1    0    0  501    0  0.00000000000E+00 -0.00000000000E+00 -0.12370392483E+04  0.12370392483E+04  0.50400000000E-02 0. -1.
    8880023    1    1    2    0    0  0.21514744097E+03 -0.16095985714E+03  0.32711990542E+03  0.78295219251E+03  0.65864270000E+03 0.  0.
    8880022    1    1    2    0    0 -0.21514744097E+03  0.16095985714E+03 -0.98544211146E+03  0.10328040981E+04  0.15294330000E+03 0.  0.
<mgrwt>
<rscale>  0 0.57757596E+03</rscale>
<asrwt>0</asrwt>
<pdfrwt beam="1">  1        1 0.19031373E+00 0.71134148E+03</pdfrwt>
<pdfrwt beam="2">  1       -1 0.89033391E-01 0.71134148E+03</pdfrwt>
<totfact> 0.12912342E+01</totfact>
</mgrwt>
</event>
<event>
 4    1  0.1043382E-007  0.9972776E+03  0.7818608E-02  0.9385128E-01
          1   -1    0    0  501    0  0.00000000000E+00  0.00000000000E+00  0.17412842099E+04  0.17412842099E+04  0.50400000000E-02 0. -1.
         -1   -1    0    0    0  501 -0.00000000000E+00 -0.00000000000E+00 -0.65494236458E+03  0.65494236460E+03  0.50400000000E-02 0.  1.
    8880023    1    1    2    0    0 -0.67155797397E+03  0.33130390311E+03  0.12654889730E+04  0.16112184631E+04  0.65864270000E+03 0. -1.
    8880022    1    1    2    0    0  0.67155797397E+03 -0.33130390311E+03 -0.17914712772E+03  0.78500811143E+03  0.15294330000E+03 0.  0.
<mgrwt>
<rscale>  0 0.93309753E+03</rscale>
<asrwt>0</asrwt>
<pdfrwt beam="1">  1        1 0.26788987E+00 0.99727759E+03</pdfrwt>
<pdfrwt beam="2">  1       -1 0.10076037E+00 0.99727759E+03</pdfrwt>
<totfact> 0.42189181E+00</totfact>
</mgrwt>
</event>
<event>
 4    1  0.1043382E-007  0.6684089E+03  0.7818608E-02  0.1016830E+00
         -1   -1    0    0    0  501 -0.00000000000E+00  0.00000000000E+00  0.32171583397E+03  0.32171583401E+03  0.50400000000E-02 0.  1.
          1   -1    0    0  501    0  0.00000000000E+00 -0.00000000000E+00 -0.87665227155E+03  0.87665227156E+03  0.50400000000E-02 0. -1.
    8880023    1    1    2    0    0 -0.54900540683E+01  0.11371071933E+03 -0.63710398962E+02  0.67143837363E+03  0.65864270000E+03 0.  1.
    8880022    1    1    2    0    0  0.54900540683E+01 -0.11371071933E+03 -0.49122603861E+03  0.52692973195E+03  0.15294330000E+03 0. -1.
<mgrwt>
<rscale>  0 0.48848091E+03</rscale>
<asrwt>0</asrwt>
<pdfrwt beam="1">  1        1 0.13486958E+00 0.66840891E+03</pdfrwt>
<pdfrwt beam="2">  1       -1 0.49494744E-01 0.66840891E+03</pdfrwt>
<totfact> 0.80008666E+01</totfact>
</mgrwt>
</event>
<event>
 4    1  0.1043382E-007  0.6917709E+03  0.7818608E-02  0.1003322E+00
         -1   -1    0    0    0  501 -0.00000000000E+00  0.00000000000E+00  0.36744898760E+03  0.36744898764E+03  0.50400000000E-02 0.  1.
          1   -1    0    0  501    0  0.00000000000E+00 -0.00000000000E+00 -0.93461416409E+03  0.93461416410E+03  0.50400000000E-02 0. -1.
    8880023    1    1    2    0    0 -0.11983977468E+02 -0.21117094227E+03 -0.15702837911E+02  0.69194910792E+03  0.65864270000E+03 0.  0.
    8880022    1    1    2    0    0  0.11983977468E+02  0.21117094227E+03 -0.55146233858E+03  0.61011404381E+03  0.15294330000E+03 0.  0.
<mgrwt>
<rscale>  0 0.54217286E+03</rscale>
<asrwt>0</asrwt>
<pdfrwt beam="1">  1        1 0.14378679E+00 0.69177091E+03</pdfrwt>
<pdfrwt beam="2">  1       -1 0.56530614E-01 0.69177091E+03</pdfrwt>
<totfact> 0.55568374E+01</totfact>
</mgrwt>
</event>
<event>
 4    1  0.1043382E-007  0.6642465E+03  0.7818608E-02  0.1020174E+00
         -1   -1    0    0    0  501 -0.00000000000E+00  0.00000000000E+00  0.99104836082E+03  0.99104836083E+03  0.50400000000E-02 0.  1.
          1   -1    0    0  501    0  0.00000000000E+00 -0.00000000000E+00 -0.59951335910E+03  0.59951335912E+03  0.50400000000E-02 0. -1.
    8880023    1    1    2    0    0 -0.19391700692E+02  0.83887614674E+02  0.86210621726E+03  0.10883246327E+04  0.65864270000E+03 0.  1.
    8880022    1    1    2    0    0  0.19391700692E+02 -0.83887614674E+02 -0.47057121553E+03  0.50223708729E+03  0.15294330000E+03 0.  0.
<mgrwt>
<rscale>  0 0.47623826E+03</rscale>
<asrwt>0</asrwt>
<pdfrwt beam="1">  1        1 0.92232827E-01 0.66424647E+03</pdfrwt>
<pdfrwt beam="2">  1       -1 0.15246898E+00 0.66424647E+03</pdfrwt>
<totfact> 0.11916217E+01</totfact>
</mgrwt>
</event>
<event>
 4    1  0.1043382E-007  0.8980226E+03  0.7818608E-02  0.9529214E-01
         -1   -1    0    0    0  501 -0.00000000000E+00  0.00000000000E+00  0.84950913365E+03  0.84950913366E+03  0.50400000000E-02 0.  1.
          1   -1    0    0  501    0  0.00000000000E+00 -0.00000000000E+00 -0.81129594520E+03  0.81129594522E+03  0.50400000000E-02 0. -1.
    8880023    1    1    2    0    0  0.38982246516E+03 -0.46975818903E+03  0.34335106249E+03  0.96142314767E+03  0.65864270000E+03 0.  0.
    8880022    1    1    2    0    0 -0.38982246516E+03  0.46975818903E+03 -0.30513787404E+03  0.69938193120E+03  0.15294330000E+03 0.  0.
<mgrwt>
<rscale>  0 0.82163871E+03</rscale>
<asrwt>0</asrwt>
<pdfrwt beam="1">  1        1 0.12481476E+00 0.89802256E+03</pdfrwt>
<pdfrwt beam="2">  1       -1 0.13069371E+00 0.89802256E+03</pdfrwt>
<totfact> 0.10952399E+01</totfact>
</mgrwt>
</event>
<event>
 4    1  0.1043382E-007  0.1276781E+04  0.7818608E-02  0.9085875E-01
          1   -1    0    0  501    0  0.00000000000E+00  0.00000000000E+00  0.12646075023E+04  0.12646075023E+04  0.50400000000E-02 0. -1.
         -1   -1    0    0    0  501 -0.00000000000E+00 -0.00000000000E+00 -0.11211435396E+04  0.11211435396E+04  0.50400000000E-02 0.  1.
    8880023    1    1    2    0    0 -0.50773328816E+03 -0.96879589939E+03  0.60389672336E+02  0.12782080055E+04  0.65864270000E+03 0. -1.
    8880022    1    1    2    0    0  0.50773328816E+03  0.96879589939E+03  0.83074290356E+02  0.11075430363E+04  0.15294330000E+03 0.  1.
<mgrwt>
<rscale>  0 0.12313204E+04</rscale>
<asrwt>0</asrwt>
<pdfrwt beam="1">  1        1 0.19455500E+00 0.12767806E+04</pdfrwt>
<pdfrwt beam="2">  1       -1 0.17248362E+00 0.12767806E+04</pdfrwt>
<totfact> 0.22005026E+00</totfact>
</mgrwt>
</event>
<event>
 4    1  0.1043382E-007  0.7041604E+03  0.7818608E-02  0.9980361E-01
          1   -1    0    0  501    0  0.00000000000E+00  0.00000000000E+00  0.11454934788E+04  0.11454934788E+04  0.50400000000E-02 0. -1.
         -1   -1    0    0    0  501 -0.00000000000E+00 -0.00000000000E+00 -0.52916213972E+03  0.52916213974E+03  0.50400000000E-02 0.  1.
    8880023    1    1    2    0    0 -0.13105283818E+03 -0.21179436207E+03 -0.26018706525E+03  0.75069248923E+03  0.65864270000E+03 0.  1.
    8880022    1    1    2    0    0  0.13105283818E+03  0.21179436207E+03  0.87651840433E+03  0.92396312932E+03  0.15294330000E+03 0.  0.
<mgrwt>
<rscale>  0 0.56519822E+03</rscale>
<asrwt>0</asrwt>
<pdfrwt beam="1">  1        1 0.17622976E+00 0.70416043E+03</pdfrwt>
<pdfrwt beam="2">  1       -1 0.81409560E-01 0.70416043E+03</pdfrwt>
<totfact> 0.18271484E+01</totfact>
</mgrwt>
</event>
<event>
 4    1  0.1043382E-007  0.9086394E+03  0.7818608E-02  0.9512302E-01
         -1   -1    0    0    0  501 -0.00000000000E+00  0.00000000000E+00  0.44325605574E+03  0.44325605577E+03  0.50400000000E-02 0.  1.
          1   -1    0    0  501    0  0.00000000000E+00 -0.00000000000E+00 -0.19573253637E+04  0.19573253637E+04  0.50400000000E-02 0. -1.
    8880023    1    1    2    0    0 -0.47098498568E+03  0.41229664246E+03 -0.15027709494E+04  0.17561167703E+04  0.65864270000E+03 0. -1.
    8880022    1    1    2    0    0  0.47098498568E+03 -0.41229664246E+03 -0.11298358502E+02  0.64446464917E+03  0.15294330000E+03 0.  1.
<mgrwt>
<rscale>  0 0.83382856E+03</rscale>
<asrwt>0</asrwt>
<pdfrwt beam="1">  1        1 0.30112697E+00 0.90863941E+03</pdfrwt>
<pdfrwt beam="2">  1       -1 0.68193240E-01 0.90863941E+03</pdfrwt>
<totfact> 0.70920672E+00</totfact>
</mgrwt>
</event>
<event>
 4    1  0.1043382E-007  0.7222479E+03  0.7818608E-02  0.9915052E-01
         -1   -1    0    0    0  501 -0.00000000000E+00  0.00000000000E+00  0.46224093278E+03  0.46224093280E+03  0.50400000000E-02 0.  1.
          1   -1    0    0  501    0  0.00000000000E+00 -0.00000000000E+00 -0.37280246956E+04  0.37280246956E+04  0.50400000000E-02 0. -1.
    8880023    1    1    2    0    0  0.29610536285E+03 -0.12385730106E+02  0.16701323107E+03  0.74130656131E+03  0.65864270000E+03 0.  1.
    8880022    1    1    2    0    0 -0.29610536285E+03  0.12385730106E+02 -0.34327969939E+04  0.34489590671E+04  0.15294330000E+03 0.  0.
<mgrwt>
<rscale>  0 0.59537316E+03</rscale>
<asrwt>0</asrwt>
<pdfrwt beam="1">  1        1 0.57354224E+00 0.72224788E+03</pdfrwt>
<pdfrwt beam="2">  1       -1 0.71113992E-01 0.72224788E+03</pdfrwt>
<totfact> 0.36347952E-01</totfact>
</mgrwt>
</event>
<event>
 4    1  0.1043382E-007  0.1178548E+04  0.7818608E-02  0.9178262E-01
          1   -1    0    0  501    0  0.00000000000E+00  0.00000000000E+00  0.10297458422E+04  0.10297458422E+04  0.50400000000E-02 0. -1.
         -1   -1    0    0    0  501 -0.00000000000E+00 -0.00000000000E+00 -0.14913151669E+04  0.14913151669E+04  0.50400000000E-02 0.  1.
    8880023    1    1    2    0    0  0.73038814101E+03  0.64938300592E+03 -0.85547267936E+03  0.14562997069E+04  0.65864270000E+03 0.  1.
    8880022    1    1    2    0    0 -0.73038814101E+03 -0.64938300592E+03  0.39390335460E+03  0.10647613022E+04  0.15294330000E+03 0.  0.
<mgrwt>
<rscale>  0 0.11280639E+04</rscale>
<asrwt>0</asrwt>
<pdfrwt beam="1">  1        1 0.15842244E+00 0.11785480E+04</pdfrwt>
<pdfrwt beam="2">  1       -1 0.22943310E+00 0.11785480E+04</pdfrwt>
<totfact> 0.13437380E+00</totfact>
</mgrwt>
</event>
<event>
 4    1  0.1043382E-007  0.7577627E+03  0.7818608E-02  0.9810934E-01
         -1   -1    0    0    0  501 -0.00000000000E+00  0.00000000000E+00  0.13811016584E+04  0.13811016584E+04  0.50400000000E-02 0.  1.
          1   -1    0    0  501    0  0.00000000000E+00 -0.00000000000E+00 -0.29538405021E+03  0.29538405025E+03  0.50400000000E-02 0. -1.
    8880023    1    1    2    0    0 -0.28254945990E+03  0.24608915035E+03  0.10133868204E+04  0.12653683737E+04  0.65864270000E+03 0.  1.
    8880022    1    1    2    0    0  0.28254945990E+03 -0.24608915035E+03  0.72330787810E+02  0.41111733494E+03  0.15294330000E+03 0.  0.
<mgrwt>
<rscale>  0 0.64779026E+03</rscale>
<asrwt>0</asrwt>
<pdfrwt beam="1">  1        1 0.45443701E-01 0.75776268E+03</pdfrwt>
<pdfrwt beam="2">  1       -1 0.21247718E+00 0.75776268E+03</pdfrwt>
<totfact> 0.11398091E+01</totfact>
</mgrwt>
</event>
<event>
 4    1  0.1043382E-007  0.1065567E+04  0.7818608E-02  0.9300397E-01
         -1   -1    0    0    0  501 -0.00000000000E+00  0.00000000000E+00  0.30454880392E+03  0.30454880396E+03  0.50400000000E-02 0.  1.
          1   -1    0    0  501    0  0.00000000000E+00 -0.00000000000E+00 -0.42676792887E+04  0.42676792887E+04  0.50400000000E-02 0. -1.
    8880023    1    1    2    0    0 -0.68333099775E+03  0.48444014409E+03 -0.90578670285E+03  0.13985289640E+04  0.65864270000E+03 0.  0.
    8880022    1    1    2    0    0  0.68333099775E+03 -0.48444014409E+03 -0.30573437819E+04  0.31736991287E+04  0.15294330000E+03 0.  0.
<mgrwt>
<rscale>  0 0.10074629E+04</rscale>
<asrwt>0</asrwt>
<pdfrwt beam="1">  1        1 0.65656600E+00 0.10655673E+04</pdfrwt>
<pdfrwt beam="2">  1       -1 0.46853665E-01 0.10655673E+04</pdfrwt>
<totfact> 0.26051703E-01</totfact>
</mgrwt>
</event>
<event>
 4    1  0.1043382E-007  0.1548143E+04  0.7818608E-02  0.8876368E-01
          1   -1    0    0  501    0  0.00000000000E+00  0.00000000000E+00  0.24528461502E+04  0.24528461502E+04  0.50400000000E-02 0. -1.
         -1   -1    0    0    0  501 -0.00000000000E+00 -0.00000000000E+00 -0.10842326690E+04  0.10842326691E+04  0.50400000000E-02 0.  1.
    8880023    1    1    2    0    0 -0.94305133111E+03 -0.10361422927E+04 -0.34251569057E+02  0.15485218888E+04  0.65864270000E+03 0.  0.
    8880022    1    1    2    0    0  0.94305133111E+03  0.10361422927E+04  0.14028650502E+04  0.19885569305E+04  0.15294330000E+03 0.  0.
<mgrwt>
<rscale>  0 0.15122190E+04</rscale>
<asrwt>0</asrwt>
<pdfrwt beam="1">  1        1 0.37736094E+00 0.15481430E+04</pdfrwt>
<pdfrwt beam="2">  1       -1 0.16680503E+00 0.15481430E+04</pdfrwt>
<totfact> 0.35783278E-01</totfact>
</mgrwt>
</event>
<event>
 4    1  0.1043382E-007  0.7880213E+03  0.7818608E-02  0.9737321E-01
          1   -1    0    0  501    0  0.00000000000E+00  0.00000000000E+00  0.14918721325E+04  0.14918721325E+04  0.50400000000E-02 0. -1.
         -1   -1    0    0    0  501 -0.00000000000E+00 -0.00000000000E+00 -0.57746541370E+03  0.57746541372E+03  0.50400000000E-02 0.  1.
    8880023    1    1    2    0    0 -0.41608686795E+03  0.11848679239E+03 -0.24271435696E+03  0.82455313170E+03  0.65864270000E+03 0.  1.
    8880022    1    1    2    0    0  0.41608686795E+03 -0.11848679239E+03  0.11571210758E+04  0.12447844145E+04  0.15294330000E+03 0.  0.
<mgrwt>
<rscale>  0 0.68837520E+03</rscale>
<asrwt>0</asrwt>
<pdfrwt beam="1">  1        1 0.22951879E+00 0.78802132E+03</pdfrwt>
<pdfrwt beam="2">  1       -1 0.88840834E-01 0.78802132E+03</pdfrwt>
<totfact> 0.85116434E+00</totfact>
</mgrwt>
</event>
<event>
 4    1  0.1043382E-007  0.8854335E+03  0.7818608E-02  0.9549832E-01
         -1   -1    0    0    0  501 -0.00000000000E+00  0.00000000000E+00  0.77790688552E+03  0.77790688553E+03  0.50400000000E-02 0.  1.
          1   -1    0    0  501    0  0.00000000000E+00 -0.00000000000E+00 -0.14532342351E+04  0.14532342351E+04  0.50400000000E-02 0. -1.
    8880023    1    1    2    0    0  0.27599064200E+03  0.52346100918E+03 -0.11541809415E+04  0.14546910719E+04  0.65864270000E+03 0.  0.
    8880022    1    1    2    0    0 -0.27599064200E+03 -0.52346100918E+03  0.47885359197E+03  0.77645004872E+03  0.15294330000E+03 0.  0.
<mgrwt>
<rscale>  0 0.80707525E+03</rscale>
<asrwt>0</asrwt>
<pdfrwt beam="1">  1        1 0.22357450E+00 0.88543349E+03</pdfrwt>
<pdfrwt beam="2">  1       -1 0.11967798E+00 0.88543349E+03</pdfrwt>
<totfact> 0.44830125E+00</totfact>
</mgrwt>
</event>
<event>
 4    1  0.1043382E-007  0.7397019E+03  0.7818608E-02  0.9860816E-01
          1   -1    0    0  501    0  0.00000000000E+00  0.00000000000E+00  0.24324410801E+04  0.24324410801E+04  0.50400000000E-02 0. -1.
         -1   -1    0    0    0  501 -0.00000000000E+00 -0.00000000000E+00 -0.17563409951E+03  0.17563409958E+03  0.50400000000E-02 0.  1.
    8880023    1    1    2    0    0  0.19542477925E+03 -0.27414925435E+03  0.73797425838E+03  0.10448755286E+04  0.65864270000E+03 0. -1.
    8880022    1    1    2    0    0 -0.19542477925E+03  0.27414925435E+03  0.15188327222E+04  0.15631996510E+04  0.15294330000E+03 0.  1.
<mgrwt>
<rscale>  0 0.62198457E+03</rscale>
<asrwt>0</asrwt>
<pdfrwt beam="1">  1        1 0.37422170E+00 0.73970188E+03</pdfrwt>
<pdfrwt beam="2">  1       -1 0.27020631E-01 0.73970188E+03</pdfrwt>
<totfact> 0.19377868E+01</totfact>
</mgrwt>
</event>
<event>
 4    1  0.1043382E-007  0.6835747E+03  0.7818608E-02  0.1007370E+00
          1   -1    0    0  501    0  0.00000000000E+00  0.00000000000E+00  0.97691202999E+03  0.97691203001E+03  0.50400000000E-02 0. -1.
         -1   -1    0    0    0  501 -0.00000000000E+00 -0.00000000000E+00 -0.66811647258E+03  0.66811647260E+03  0.50400000000E-02 0.  1.
    8880023    1    1    2    0    0  0.94851798465E+02  0.15642015679E+03 -0.47064697658E+03  0.82992946203E+03  0.65864270000E+03 0.  1.
    8880022    1    1    2    0    0 -0.94851798465E+02 -0.15642015679E+03  0.77944253400E+03  0.81509904057E+03  0.15294330000E+03 0.  0.
<mgrwt>
<rscale>  0 0.52533496E+03</rscale>
<asrwt>0</asrwt>
<pdfrwt beam="1">  1        1 0.15029416E+00 0.68357467E+03</pdfrwt>
<pdfrwt beam="2">  1       -1 0.10278715E+00 0.68357467E+03</pdfrwt>
<totfact> 0.14675216E+01</totfact>
</mgrwt>
</event>
<event>
 4    1  0.1043382E-007  0.9310439E+03  0.7818608E-02  0.9477929E-01
         -1   -1    0    0    0  501 -0.00000000000E+00  0.00000000000E+00  0.41163929082E+03  0.41163929085E+03  0.50400000000E-02 0.  1.
          1   -1    0    0  501    0  0.00000000000E+00 -0.00000000000E+00 -0.32958654865E+04  0.32958654865E+04  0.50400000000E-02 0. -1.
    8880023    1    1    2    0    0 -0.65258504526E+03  0.84647891896E+02 -0.28854198541E+04  0.30319120119E+04  0.65864270000E+03 0.  0.
    8880022    1    1    2    0    0  0.65258504526E+03 -0.84647891896E+02  0.11936584770E+01  0.67559276546E+03  0.15294330000E+03 0.  0.
<mgrwt>
<rscale>  0 0.85930768E+03</rscale>
<asrwt>0</asrwt>
<pdfrwt beam="1">  1        1 0.50705621E+00 0.93104388E+03</pdfrwt>
<pdfrwt beam="2">  1       -1 0.63329124E-01 0.93104388E+03</pdfrwt>
<totfact> 0.95269241E-01</totfact>
</mgrwt>
</event>
<event>
 4    1  0.1043382E-007  0.6856533E+03  0.7818608E-02  0.1006291E+00
          1   -1    0    0  501    0  0.00000000000E+00  0.00000000000E+00  0.18129874310E+04  0.18129874310E+04  0.50400000000E-02 0. -1.
         -1   -1    0    0    0  501 -0.00000000000E+00 -0.00000000000E+00 -0.39295950702E+03  0.39295950706E+03  0.50400000000E-02 0.  1.
    8880023    1    1    2    0    0 -0.18459017560E+03  0.47294270368E+02 -0.76222684110E+02  0.68987707947E+03  0.65864270000E+03 0.  1.
    8880022    1    1    2    0    0  0.18459017560E+03 -0.47294270368E+02  0.14962506081E+04  0.15160698586E+04  0.15294330000E+03 0.  0.
<mgrwt>
<rscale>  0 0.52975735E+03</rscale>
<asrwt>0</asrwt>
<pdfrwt beam="1">  1        1 0.27892114E+00 0.68565333E+03</pdfrwt>
<pdfrwt beam="2">  1       -1 0.60455309E-01 0.68565333E+03</pdfrwt>
<totfact> 0.11661579E+01</totfact>
</mgrwt>
</event>
<event>
 4    1  0.1043382E-007  0.7241476E+03  0.7818608E-02  0.9908794E-01
          1   -1    0    0  501    0  0.00000000000E+00  0.00000000000E+00  0.29553301395E+03  0.29553301400E+03  0.50400000000E-02 0. -1.
         -1   -1    0    0    0  501 -0.00000000000E+00 -0.00000000000E+00 -0.11025393469E+04  0.11025393469E+04  0.50400000000E-02 0.  1.
    8880023    1    1    2    0    0 -0.28935893420E+03  0.82770402633E+02 -0.77230155246E+03  0.10586970419E+04  0.65864270000E+03 0.  1.
    8880022    1    1    2    0    0  0.28935893420E+03 -0.82770402633E+02 -0.34704780500E+02  0.33937531901E+03  0.15294330000E+03 0.  0.
<mgrwt>
<rscale>  0 0.59836985E+03</rscale>
<asrwt>0</asrwt>
<pdfrwt beam="1">  1        1 0.45466618E-01 0.72414759E+03</pdfrwt>
<pdfrwt beam="2">  1       -1 0.16962144E+00 0.72414759E+03</pdfrwt>
<totfact> 0.22751715E+01</totfact>
</mgrwt>
</event>
<event>
 4    1  0.1043382E-007  0.9278019E+03  0.7818608E-02  0.9482799E-01
         -1   -1    0    0    0  501 -0.00000000000E+00  0.00000000000E+00  0.13206593510E+04  0.13206593510E+04  0.50400000000E-02 0.  1.
          1   -1    0    0  501    0  0.00000000000E+00 -0.00000000000E+00 -0.15801200418E+04  0.15801200418E+04  0.50400000000E-02 0. -1.
    8880023    1    1    2    0    0 -0.65116260898E+03  0.54711277482E+02  0.10671455337E+04  0.14140777432E+04  0.65864270000E+03 0.  0.
    8880022    1    1    2    0    0  0.65116260898E+03 -0.54711277482E+02 -0.13266062245E+04  0.14867016497E+04  0.15294330000E+03 0.  0.
<mgrwt>
<rscale>  0 0.85563974E+03</rscale>
<asrwt>0</asrwt>
<pdfrwt beam="1">  1        1 0.24309539E+00 0.92780185E+03</pdfrwt>
<pdfrwt beam="2">  1       -1 0.20317836E+00 0.92780185E+03</pdfrwt>
<totfact> 0.84065787E-01</totfact>
</mgrwt>
</event>
<event>
 4    1  0.1043382E-007  0.7235901E+03  0.7818608E-02  0.9910620E-01
         -1   -1    0    0    0  501 -0.00000000000E+00  0.00000000000E+00  0.14741929710E+04  0.14741929710E+04  0.50400000000E-02 0.  1.
          1   -1    0    0  501    0  0.00000000000E+00 -0.00000000000E+00 -0.30618674890E+03  0.30618674894E+03  0.50400000000E-02 0. -1.
    8880023    1    1    2    0    0 -0.18742421352E+03 -0.23376197683E+03  0.12406344993E+04  0.14362300180E+04  0.65864270000E+03 0.  1.
    8880022    1    1    2    0    0  0.18742421352E+03  0.23376197683E+03 -0.72628277234E+02  0.34414970186E+03  0.15294330000E+03 0. -1.
<mgrwt>
<rscale>  0 0.59749337E+03</rscale>
<asrwt>0</asrwt>
<pdfrwt beam="1">  1        1 0.47105654E-01 0.72359015E+03</pdfrwt>
<pdfrwt beam="2">  1       -1 0.22679892E+00 0.72359015E+03</pdfrwt>
<totfact> 0.87768075E+00</totfact>
</mgrwt>
</event>
<event>
 4    1  0.1043382E-007  0.1231310E+04  0.7818608E-02  0.9127272E-01
         -1   -1    0    0    0  501 -0.00000000000E+00  0.00000000000E+00  0.70001273357E+03  0.70001273359E+03  0.50400000000E-02 0.  1.
          1   -1    0    0  501    0  0.00000000000E+00 -0.00000000000E+00 -0.22921610886E+04  0.22921610886E+04  0.50400000000E-02 0. -1.
    8880023    1    1    2    0    0 -0.58209533256E+03 -0.86225170331E+03 -0.19986914071E+03  0.12474256915E+04  0.65864270000E+03 0.  0.
    8880022    1    1    2    0    0  0.58209533256E+03  0.86225170331E+03 -0.13922792143E+04  0.17447481307E+04  0.15294330000E+03 0.  0.
<mgrwt>
<rscale>  0 0.11836691E+04</rscale>
<asrwt>0</asrwt>
<pdfrwt beam="1">  1        1 0.35264016E+00 0.12313095E+04</pdfrwt>
<pdfrwt beam="2">  1       -1 0.10769427E+00 0.12313095E+04</pdfrwt>
<totfact> 0.14873695E+00</totfact>
</mgrwt>
</event>
<event>
 4    1  0.1043382E-007  0.6806455E+03  0.7818608E-02  0.1008961E+00
         -1   -1    0    0    0  501 -0.00000000000E+00  0.00000000000E+00  0.48820058412E+03  0.48820058415E+03  0.50400000000E-02 0.  1.
          1   -1    0    0  501    0  0.00000000000E+00 -0.00000000000E+00 -0.69105621752E+03  0.69105621754E+03  0.50400000000E-02 0. -1.
    8880023    1    1    2    0    0  0.55699312479E+02 -0.16237513191E+03  0.20518586215E+03  0.71090051425E+03  0.65864270000E+03 0.  0.
    8880022    1    1    2    0    0 -0.55699312479E+02  0.16237513191E+03 -0.40804149555E+03  0.46835628743E+03  0.15294330000E+03 0. -1.
<mgrwt>
<rscale>  0 0.51889726E+03</rscale>
<asrwt>0</asrwt>
<pdfrwt beam="1">  1        1 0.10631634E+00 0.68064550E+03</pdfrwt>
<pdfrwt beam="2">  1       -1 0.75107782E-01 0.68064550E+03</pdfrwt>
<totfact> 0.50952777E+01</totfact>
</mgrwt>
</event>
<event>
 4    1  0.1043382E-007  0.7916103E+03  0.7818608E-02  0.9729239E-01
         -1   -1    0    0    0  501 -0.00000000000E+00  0.00000000000E+00  0.43589846715E+03  0.43589846718E+03  0.50400000000E-02 0.  1.
          1   -1    0    0  501    0  0.00000000000E+00 -0.00000000000E+00 -0.17770605330E+04  0.17770605330E+04  0.50400000000E-02 0. -1.
    8880023    1    1    2    0    0 -0.10056508423E+03 -0.42746149296E+03  0.19674343657E+01  0.79161274699E+03  0.65864270000E+03 0.  0.
    8880022    1    1    2    0    0  0.10056508423E+03  0.42746149296E+03 -0.13431295002E+04  0.14213462532E+04  0.15294330000E+03 0.  0.
<mgrwt>
<rscale>  0 0.69302300E+03</rscale>
<asrwt>0</asrwt>
<pdfrwt beam="1">  1        1 0.27339393E+00 0.79161030E+03</pdfrwt>
<pdfrwt beam="2">  1       -1 0.67061303E-01 0.79161030E+03</pdfrwt>
<totfact> 0.98554644E+00</totfact>
</mgrwt>
</event>
<event>
 4    1  0.1043382E-007  0.7161623E+03  0.7818608E-02  0.9935792E-01
         -1   -1    0    0    0  501 -0.00000000000E+00  0.00000000000E+00  0.15643510635E+03  0.15643510643E+03  0.50400000000E-02 0.  1.
          1   -1    0    0  501    0  0.00000000000E+00 -0.00000000000E+00 -0.17881233769E+04  0.17881233769E+04  0.50400000000E-02 0. -1.
    8880023    1    1    2    0    0 -0.28014335637E+02  0.27980974231E+03 -0.93421324971E+03  0.11771333387E+04  0.65864270000E+03 0.  1.
    8880022    1    1    2    0    0  0.28014335637E+02 -0.27980974231E+03 -0.69747502085E+03  0.76742514464E+03  0.15294330000E+03 0.  0.
<mgrwt>
<rscale>  0 0.58557587E+03</rscale>
<asrwt>0</asrwt>
<pdfrwt beam="1">  1        1 0.27509589E+00 0.71616234E+03</pdfrwt>
<pdfrwt beam="2">  1       -1 0.24066941E-01 0.71616234E+03</pdfrwt>
<totfact> 0.64081005E+01</totfact>
</mgrwt>
</event>
<event>
 4    1  0.1043382E-007  0.7682019E+03  0.7818608E-02  0.9784318E-01
         -1   -1    0    0    0  501 -0.00000000000E+00  0.00000000000E+00  0.67317317912E+03  0.67317317914E+03  0.50400000000E-02 0.  1.
          1   -1    0    0  501    0  0.00000000000E+00 -0.00000000000E+00 -0.74212861048E+03  0.74212861050E+03  0.50400000000E-02 0. -1.
    8880023    1    1    2    0    0 -0.56382883647E+02 -0.39133742790E+03  0.32729370976E+03  0.83501819786E+03  0.65864270000E+03 0.  1.
    8880022    1    1    2    0    0  0.56382883647E+02  0.39133742790E+03 -0.39624914112E+03  0.58028359179E+03  0.15294330000E+03 0.  0.
<mgrwt>
<rscale>  0 0.66210946E+03</rscale>
<asrwt>0</asrwt>
<pdfrwt beam="1">  1        1 0.11417363E+00 0.76820194E+03</pdfrwt>
<pdfrwt beam="2">  1       -1 0.10356510E+00 0.76820194E+03</pdfrwt>
<totfact> 0.22425421E+01</totfact>
</mgrwt>
</event>
<event>
 4    1  0.1043382E-007  0.8869623E+03  0.7818608E-02  0.9547294E-01
         -1   -1    0    0    0  501 -0.00000000000E+00  0.00000000000E+00  0.51556555168E+03  0.51556555170E+03  0.50400000000E-02 0.  1.
          1   -1    0    0  501    0  0.00000000000E+00 -0.00000000000E+00 -0.13186475144E+04  0.13186475144E+04  0.50400000000E-02 0. -1.
    8880023    1    1    2    0    0  0.59236283199E+03 -0.44700877770E+02 -0.86854925713E+02  0.89120473382E+03  0.65864270000E+03 0.  1.
    8880022    1    1    2    0    0 -0.59236283199E+03  0.44700877770E+02 -0.71622703700E+03  0.94300833228E+03  0.15294330000E+03 0.  0.
<mgrwt>
<rscale>  0 0.80885052E+03</rscale>
<asrwt>0</asrwt>
<pdfrwt beam="1">  1        1 0.20286885E+00 0.88696229E+03</pdfrwt>
<pdfrwt beam="2">  1       -1 0.79317778E-01 0.88696229E+03</pdfrwt>
<totfact> 0.14168404E+01</totfact>
</mgrwt>
</event>
<event>
 4    1  0.1043382E-007  0.6969710E+03  0.7818608E-02  0.1001001E+00
          1   -1    0    0  501    0  0.00000000000E+00  0.00000000000E+00  0.23624727320E+04  0.23624727320E+04  0.50400000000E-02 0. -1.
         -1   -1    0    0    0  501 -0.00000000000E+00 -0.00000000000E+00 -0.23956460913E+03  0.23956460918E+03  0.50400000000E-02 0.  1.
    8880023    1    1    2    0    0 -0.21969109035E+03  0.60779775191E+02  0.30036510268E+03  0.75893857289E+03  0.65864270000E+03 0.  1.
    8880022    1    1    2    0    0  0.21969109035E+03 -0.60779775191E+02  0.18225430202E+04  0.18430987683E+04  0.15294330000E+03 0.  0.
<mgrwt>
<rscale>  0 0.55213648E+03</rscale>
<asrwt>0</asrwt>
<pdfrwt beam="1">  1        1 0.36345732E+00 0.69697099E+03</pdfrwt>
<pdfrwt beam="2">  1       -1 0.36856096E-01 0.69697099E+03</pdfrwt>
<totfact> 0.12619891E+01</totfact>
</mgrwt>
</event>
<event>
 4    1  0.1043382E-007  0.7029937E+03  0.7818608E-02  0.9985001E-01
         -1   -1    0    0    0  501 -0.00000000000E+00  0.00000000000E+00  0.13720279876E+04  0.13720279876E+04  0.50400000000E-02 0.  1.
          1   -1    0    0  501    0  0.00000000000E+00 -0.00000000000E+00 -0.52796593897E+03  0.52796593900E+03  0.50400000000E-02 0. -1.
    8880023    1    1    2    0    0 -0.10478153954E+03 -0.22228547699E+03  0.12305103908E+04  0.14171647866E+04  0.65864270000E+03 0.  1.
    8880022    1    1    2    0    0  0.10478153954E+03  0.22228547699E+03 -0.38644834213E+03  0.48282914003E+03  0.15294330000E+03 0.  0.
<mgrwt>
<rscale>  0 0.56312812E+03</rscale>
<asrwt>0</asrwt>
<pdfrwt beam="1">  1        1 0.81225530E-01 0.70299375E+03</pdfrwt>
<pdfrwt beam="2">  1       -1 0.21108123E+00 0.70299375E+03</pdfrwt>
<totfact> 0.54189231E+00</totfact>
</mgrwt>
</event>
<event>
 4    1  0.1043382E-007  0.7700197E+03  0.7818608E-02  0.9779826E-01
          1   -1    0    0  501    0  0.00000000000E+00  0.00000000000E+00  0.15212989327E+04  0.15212989327E+04  0.50400000000E-02 0. -1.
         -1   -1    0    0    0  501 -0.00000000000E+00 -0.00000000000E+00 -0.40279411945E+03  0.40279411948E+03  0.50400000000E-02 0.  1.
    8880023    1    1    2    0    0  0.22502699033E+03 -0.32936761409E+03  0.48027380658E+02  0.77151604465E+03  0.65864270000E+03 0.  0.
    8880022    1    1    2    0    0 -0.22502699033E+03  0.32936761409E+03  0.10704774325E+04  0.11525770075E+04  0.15294330000E+03 0. -1.
<mgrwt>
<rscale>  0 0.66456546E+03</rscale>
<asrwt>0</asrwt>
<pdfrwt beam="1">  1        1 0.23404599E+00 0.77001973E+03</pdfrwt>
<pdfrwt beam="2">  1       -1 0.61968326E-01 0.77001973E+03</pdfrwt>
<totfact> 0.17251584E+01</totfact>
</mgrwt>
</event>
<event>
 4    1  0.1043382E-007  0.8375530E+03  0.7818608E-02  0.9634812E-01
          1   -1    0    0  501    0  0.00000000000E+00  0.00000000000E+00  0.75101328058E+03  0.75101328059E+03  0.50400000000E-02 0. -1.
         -1   -1    0    0    0  501 -0.00000000000E+00 -0.00000000000E+00 -0.14840997645E+04  0.14840997645E+04  0.50400000000E-02 0.  1.
    8880023    1    1    2    0    0  0.44409991301E+03  0.26544305094E+03 -0.12389799946E+04  0.14955154227E+04  0.65864270000E+03 0.  1.
    8880022    1    1    2    0    0 -0.44409991301E+03 -0.26544305094E+03  0.50589351067E+03  0.73959762249E+03  0.15294330000E+03 0.  0.
<mgrwt>
<rscale>  0 0.75034342E+03</rscale>
<asrwt>0</asrwt>
<pdfrwt beam="1">  1        1 0.11554050E+00 0.83755295E+03</pdfrwt>
<pdfrwt beam="2">  1       -1 0.22832304E+00 0.83755295E+03</pdfrwt>
<totfact> 0.24344945E+00</totfact>
</mgrwt>
</event>
<event>
 4    1  0.1043382E-007  0.9105348E+03  0.7818608E-02  0.9509327E-01
          1   -1    0    0  501    0  0.00000000000E+00  0.00000000000E+00  0.33654351464E+04  0.33654351464E+04  0.50400000000E-02 0. -1.
         -1   -1    0    0    0  501 -0.00000000000E+00 -0.00000000000E+00 -0.28240870405E+03  0.28240870409E+03  0.50400000000E-02 0.  1.
    8880023    1    1    2    0    0  0.94595165794E+01 -0.62862864426E+03  0.62081808009E+03  0.11020384520E+04  0.65864270000E+03 0.  1.
    8880022    1    1    2    0    0 -0.94595165794E+01  0.62862864426E+03  0.24622083623E+04  0.25458053985E+04  0.15294330000E+03 0.  0.
<mgrwt>
<rscale>  0 0.83599652E+03</rscale>
<asrwt>0</asrwt>
<pdfrwt beam="1">  1        1 0.51775925E+00 0.91053482E+03</pdfrwt>
<pdfrwt beam="2">  1       -1 0.43447493E-01 0.91053482E+03</pdfrwt>
<totfact> 0.17484118E+00</totfact>
</mgrwt>
</event>
<event>
 4    1  0.1043382E-007  0.9847649E+03  0.7818608E-02  0.9401767E-01
         -1   -1    0    0    0  501 -0.00000000000E+00  0.00000000000E+00  0.59438441990E+03  0.59438441992E+03  0.50400000000E-02 0.  1.
          1   -1    0    0  501    0  0.00000000000E+00 -0.00000000000E+00 -0.13355190015E+04  0.13355190015E+04  0.50400000000E-02 0. -1.
    8880023    1    1    2    0    0 -0.73190018765E+03 -0.16546751629E+02 -0.19513362603E+03  0.10039118577E+04  0.65864270000E+03 0. -1.
    8880022    1    1    2    0    0  0.73190018765E+03  0.16546751629E+02 -0.54600095556E+03  0.92599156376E+03  0.15294330000E+03 0.  0.
<mgrwt>
<rscale>  0 0.91930416E+03</rscale>
<asrwt>0</asrwt>
<pdfrwt beam="1">  1        1 0.20546446E+00 0.98476489E+03</pdfrwt>
<pdfrwt beam="2">  1       -1 0.91443758E-01 0.98476489E+03</pdfrwt>
<totfact> 0.10010953E+01</totfact>
</mgrwt>
</event>
<event>
 4    1  0.1043382E-007  0.7054040E+03  0.7818608E-02  0.9975481E-01
          1   -1    0    0  501    0  0.00000000000E+00  0.00000000000E+00  0.17084310238E+04  0.17084310238E+04  0.50400000000E-02 0. -1.
         -1   -1    0    0    0  501 -0.00000000000E+00 -0.00000000000E+00 -0.48701888714E+03  0.48701888716E+03  0.50400000000E-02 0.  1.
    8880023    1    1    2    0    0  0.56677562316E+02  0.24611441376E+03 -0.20834177589E+03  0.73552780544E+03  0.65864270000E+03 0.  1.
    8880022    1    1    2    0    0 -0.56677562316E+02 -0.24611441376E+03  0.14297539126E+04  0.14599221056E+04  0.15294330000E+03 0.  0.
<mgrwt>
<rscale>  0 0.56738554E+03</rscale>
<asrwt>0</asrwt>
<pdfrwt beam="1">  1        1 0.26283554E+00 0.70540404E+03</pdfrwt>
<pdfrwt beam="2">  1       -1 0.74925982E-01 0.70540404E+03</pdfrwt>
<totfact> 0.88448381E+00</totfact>
</mgrwt>
</event>
<event>
 4    1  0.1043382E-007  0.6986245E+03  0.7818608E-02  0.1000296E+00
          1   -1    0    0  501    0  0.00000000000E+00  0.00000000000E+00  0.89041359222E+03  0.89041359224E+03  0.50400000000E-02 0. -1.
         -1   -1    0    0    0  501 -0.00000000000E+00 -0.00000000000E+00 -0.24122520817E+04  0.24122520817E+04  0.50400000000E-02 0.  1.
    8880023    1    1    2    0    0 -0.92928052348E+02  0.21361279438E+03 -0.23380487448E+04  0.24401942931E+04  0.65864270000E+03 0.  0.
    8880022    1    1    2    0    0  0.92928052348E+02 -0.21361279438E+03  0.81621025532E+03  0.86247138082E+03  0.15294330000E+03 0.  0.
<mgrwt>
<rscale>  0 0.55520830E+03</rscale>
<asrwt>0</asrwt>
<pdfrwt beam="1">  1        1 0.13698671E+00 0.69862455E+03</pdfrwt>
<pdfrwt beam="2">  1       -1 0.37111570E+00 0.69862455E+03</pdfrwt>
<totfact> 0.22667684E-01</totfact>
</mgrwt>
</event>
<event>
 4    1  0.1043382E-007  0.6604542E+03  0.7818608E-02  0.1023696E+00
          1   -1    0    0  501    0  0.00000000000E+00  0.00000000000E+00  0.12815454853E+04  0.12815454853E+04  0.50400000000E-02 0. -1.
         -1   -1    0    0    0  501 -0.00000000000E+00 -0.00000000000E+00 -0.47431455274E+03  0.47431455277E+03  0.50400000000E-02 0.  1.
    8880023    1    1    2    0    0 -0.47323418224E+02  0.12247674280E+02 -0.23523906774E+03  0.70109709505E+03  0.65864270000E+03 0.  1.
    8880022    1    1    2    0    0  0.47323418224E+02 -0.12247674280E+02  0.10424700003E+04  0.10547629430E+04  0.15294330000E+03 0.  0.
<mgrwt>
<rscale>  0 0.46376165E+03</rscale>
<asrwt>0</asrwt>
<pdfrwt beam="1">  1        1 0.19716084E+00 0.66045418E+03</pdfrwt>
<pdfrwt beam="2">  1       -1 0.72971470E-01 0.66045418E+03</pdfrwt>
<totfact> 0.18457343E+01</totfact>
</mgrwt>
</event>
<event>
 4    1  0.1043382E-007  0.7470258E+03  0.7818608E-02  0.9839935E-01
         -1   -1    0    0    0  501 -0.00000000000E+00  0.00000000000E+00  0.56092517616E+03  0.56092517618E+03  0.50400000000E-02 0.  1.
          1   -1    0    0  501    0  0.00000000000E+00 -0.00000000000E+00 -0.11066794386E+04  0.11066794386E+04  0.50400000000E-02 0. -1.
    8880023    1    1    2    0    0  0.30118254141E+03 -0.18310207590E+03  0.24687184705E+03  0.78676121446E+03  0.65864270000E+03 0.  1.
    8880022    1    1    2    0    0 -0.30118254141E+03  0.18310207590E+03 -0.79262610952E+03  0.88084340036E+03  0.15294330000E+03 0.  0.
<mgrwt>
<rscale>  0 0.63262759E+03</rscale>
<asrwt>0</asrwt>
<pdfrwt beam="1">  1        1 0.17025837E+00 0.74702577E+03</pdfrwt>
<pdfrwt beam="2">  1       -1 0.86296181E-01 0.74702577E+03</pdfrwt>
<totfact> 0.17122664E+01</totfact>
</mgrwt>
</event>
<event>
 4    1  0.1043382E-007  0.6797006E+03  0.7818608E-02  0.1009494E+00
          1   -1    0    0  501    0  0.00000000000E+00  0.00000000000E+00  0.62723434785E+03  0.62723434787E+03  0.50400000000E-02 0. -1.
         -1   -1    0    0    0  501 -0.00000000000E+00 -0.00000000000E+00 -0.45242491971E+03  0.45242491974E+03  0.50400000000E-02 0.  1.
    8880023    1    1    2    0    0 -0.67647632582E+02  0.15364409544E+03  0.37555542557E+03  0.77655314963E+03  0.65864270000E+03 0.  0.
    8880022    1    1    2    0    0  0.67647632582E+02 -0.15364409544E+03 -0.20074599743E+03  0.30310611798E+03  0.15294330000E+03 0.  0.
<mgrwt>
<rscale>  0 0.51676427E+03</rscale>
<asrwt>0</asrwt>
<pdfrwt beam="1">  1        1 0.96497592E-01 0.67970061E+03</pdfrwt>
<pdfrwt beam="2">  1       -1 0.69603834E-01 0.67970061E+03</pdfrwt>
<totfact> 0.68777995E+01</totfact>
</mgrwt>
</event>
<event>
 4    1  0.1043382E-007  0.8402628E+03  0.7818608E-02  0.9629685E-01
          1   -1    0    0  501    0  0.00000000000E+00  0.00000000000E+00  0.18546969986E+04  0.18546969986E+04  0.50400000000E-02 0. -1.
         -1   -1    0    0    0  501 -0.00000000000E+00 -0.00000000000E+00 -0.42305712380E+03  0.42305712383E+03  0.50400000000E-02 0.  1.
    8880023    1    1    2    0    0 -0.40824695161E+03 -0.32490895541E+03  0.10847743825E+03  0.84723607317E+03  0.65864270000E+03 0.  0.
    8880022    1    1    2    0    0  0.40824695161E+03  0.32490895541E+03  0.13231624366E+04  0.14305180493E+04  0.15294330000E+03 0.  0.
<mgrwt>
<rscale>  0 0.75362214E+03</rscale>
<asrwt>0</asrwt>
<pdfrwt beam="1">  1        1 0.28533800E+00 0.84026282E+03</pdfrwt>
<pdfrwt beam="2">  1       -1 0.65085712E-01 0.84026282E+03</pdfrwt>
<totfact> 0.92208851E+00</totfact>
</mgrwt>
</event>
<event>
 4    1  0.1043382E-007  0.7435766E+03  0.7818608E-02  0.9849648E-01
         -1   -1    0    0    0  501 -0.00000000000E+00  0.00000000000E+00  0.76193687034E+03  0.76193687036E+03  0.50400000000E-02 0.  1.
          1   -1    0    0  501    0  0.00000000000E+00 -0.00000000000E+00 -0.60722451044E+03  0.60722451046E+03  0.50400000000E-02 0. -1.
    8880023    1    1    2    0    0  0.34474726993E+03  0.15662119217E+02  0.46801568648E+03  0.87860393305E+03  0.65864270000E+03 0.  1.
    8880022    1    1    2    0    0 -0.34474726993E+03 -0.15662119217E+02 -0.31330332658E+03  0.49055744777E+03  0.15294330000E+03 0.  0.
<mgrwt>
<rscale>  0 0.62764842E+03</rscale>
<asrwt>0</asrwt>
<pdfrwt beam="1">  1        1 0.93419156E-01 0.74357662E+03</pdfrwt>
<pdfrwt beam="2">  1       -1 0.11722106E+00 0.74357662E+03</pdfrwt>
<totfact> 0.22646736E+01</totfact>
</mgrwt>
</event>
<event>
 4    1  0.1043382E-007  0.6896698E+03  0.7818608E-02  0.1004310E+00
          1   -1    0    0  501    0  0.00000000000E+00  0.00000000000E+00  0.19595489789E+04  0.19595489789E+04  0.50400000000E-02 0. -1.
         -1   -1    0    0    0  501 -0.00000000000E+00 -0.00000000000E+00 -0.13367694379E+03  0.13367694389E+03  0.50400000000E-02 0.  1.
    8880023    1    1    2    0    0  0.74850552926E+02 -0.19034616470E+03  0.90643377307E+03  0.11389761450E+04  0.65864270000E+03 0.  1.
    8880022    1    1    2    0    0 -0.74850552926E+02  0.19034616470E+03  0.91943826207E+03  0.95424977781E+03  0.15294330000E+03 0.  0.
<mgrwt>
<rscale>  0 0.53800145E+03</rscale>
<asrwt>0</asrwt>
<pdfrwt beam="1">  1        1 0.30146906E+00 0.68966983E+03</pdfrwt>
<pdfrwt beam="2">  1       -1 0.20565685E-01 0.68966983E+03</pdfrwt>
<totfact> 0.64336694E+01</totfact>
</mgrwt>
</event>
<event>
 4    1  0.1043382E-007  0.6592960E+03  0.7818608E-02  0.1024890E+00
         -1   -1    0    0    0  501 -0.00000000000E+00  0.00000000000E+00  0.60126244453E+03  0.60126244455E+03  0.50400000000E-02 0.  1.
          1   -1    0    0  501    0  0.00000000000E+00 -0.00000000000E+00 -0.82757883855E+03  0.82757883856E+03  0.50400000000E-02 0. -1.
    8880023    1    1    2    0    0 -0.27361099998E+02 -0.10602412062E+02  0.40823925618E+03  0.77545505188E+03  0.65864270000E+03 0.  1.
    8880022    1    1    2    0    0  0.27361099998E+02  0.10602412062E+02 -0.63455565020E+03  0.65338623123E+03  0.15294330000E+03 0.  0.
<mgrwt>
<rscale>  0 0.45962680E+03</rscale>
<asrwt>0</asrwt>
<pdfrwt beam="1">  1        1 0.12731982E+00 0.65929602E+03</pdfrwt>
<pdfrwt beam="2">  1       -1 0.92501915E-01 0.65929602E+03</pdfrwt>
<totfact> 0.24687189E+01</totfact>
</mgrwt>
</event>
<event>
 4    1  0.1043382E-007  0.6758726E+03  0.7818608E-02  0.1011762E+00
          1   -1    0    0  501    0  0.00000000000E+00  0.00000000000E+00  0.61461353309E+03  0.61461353311E+03  0.50400000000E-02 0. -1.
         -1   -1    0    0    0  501 -0.00000000000E+00 -0.00000000000E+00 -0.49775078658E+03  0.49775078661E+03  0.50400000000E-02 0.  1.
    8880023    1    1    2    0    0  0.15083047706E+03 -0.15611753250E+02 -0.22152599228E+03  0.71125068096E+03  0.65864270000E+03 0.  1.
    8880022    1    1    2    0    0 -0.15083047706E+03  0.15611753250E+02  0.33838873879E+03  0.40111363876E+03  0.15294330000E+03 0.  0.
<mgrwt>
<rscale>  0 0.50780395E+03</rscale>
<asrwt>0</asrwt>
<pdfrwt beam="1">  1        1 0.94555928E-01 0.67587260E+03</pdfrwt>
<pdfrwt beam="2">  1       -1 0.76577044E-01 0.67587260E+03</pdfrwt>
<totfact> 0.58175709E+01</totfact>
</mgrwt>
</event>
<event>
 4    1  0.1091202E-007  0.6727484E+03  0.7818608E-02  0.1013765E+00
         -1   -1    0    0    0  501 -0.00000000000E+00  0.00000000000E+00  0.11640537784E+04  0.11640537784E+04  0.50400000000E-02 0.  1.
          1   -1    0    0  501    0  0.00000000000E+00 -0.00000000000E+00 -0.92220075294E+03  0.92220075295E+03  0.50400000000E-02 0. -1.
    8880023    1    1    2    0    0 -0.58352613722E+02  0.12399643224E+03  0.10529759580E+04  0.12495394020E+04  0.65864270000E+03 0.  1.
    8880022    1    1    2    0    0  0.58352613722E+02 -0.12399643224E+03 -0.81112293263E+03  0.83671512929E+03  0.15294330000E+03 0.  0.
<mgrwt>
<rscale>  0 0.50005439E+03</rscale>
<asrwt>0</asrwt>
<pdfrwt beam="1">  1        1 0.14187704E+00 0.67274835E+03</pdfrwt>
<pdfrwt beam="2">  1       -1 0.17908520E+00 0.67274835E+03</pdfrwt>
<totfact> 0.38791743E+00</totfact>
</mgrwt>
</event>
<event>
 4    1  0.1043382E-007  0.7412667E+03  0.7818608E-02  0.9856272E-01
          1   -1    0    0  501    0  0.00000000000E+00  0.00000000000E+00  0.58537007413E+03  0.58537007416E+03  0.50400000000E-02 0. -1.
         -1   -1    0    0    0  501 -0.00000000000E+00 -0.00000000000E+00 -0.10717065362E+04  0.10717065362E+04  0.50400000000E-02 0.  1.
    8880023    1    1    2    0    0  0.32869455818E+03  0.87327331934E+02 -0.85575920265E+03  0.11321661515E+04  0.65864270000E+03 0.  1.
    8880022    1    1    2    0    0 -0.32869455818E+03 -0.87327331934E+02  0.36942274061E+03  0.52491045882E+03  0.15294330000E+03 0.  0.
<mgrwt>
<rscale>  0 0.62428129E+03</rscale>
<asrwt>0</asrwt>
<pdfrwt beam="1">  1        1 0.90056934E-01 0.74126674E+03</pdfrwt>
<pdfrwt beam="2">  1       -1 0.16487793E+00 0.74126674E+03</pdfrwt>
<totfact> 0.98346005E+00</totfact>
</mgrwt>
</event>
<event>
 4    1  0.1043382E-007  0.9260392E+03  0.7818608E-02  0.9485460E-01
          1   -1    0    0  501    0  0.00000000000E+00  0.00000000000E+00  0.11435985104E+04  0.11435985104E+04  0.50400000000E-02 0. -1.
         -1   -1    0    0    0  501 -0.00000000000E+00 -0.00000000000E+00 -0.76471074767E+03  0.76471074769E+03  0.50400000000E-02 0.  1.
    8880023    1    1    2    0    0 -0.15591755905E+03 -0.63200326405E+03  0.70546519701E+03  0.11641433595E+04  0.65864270000E+03 0.  0.
    8880022    1    1    2    0    0  0.15591755905E+03  0.63200326405E+03 -0.32657743432E+03  0.74416589858E+03  0.15294330000E+03 0.  0.
<mgrwt>
<rscale>  0 0.85364297E+03</rscale>
<asrwt>0</asrwt>
<pdfrwt beam="1">  1        1 0.17593823E+00 0.92603921E+03</pdfrwt>
<pdfrwt beam="2">  1       -1 0.11764781E+00 0.92603921E+03</pdfrwt>
<totfact> 0.77289217E+00</totfact>
</mgrwt>
</event>
<event>
 4    1  0.1043382E-007  0.7328142E+03  0.7818608E-02  0.9881396E-01
         -1   -1    0    0    0  501 -0.00000000000E+00  0.00000000000E+00  0.11917481944E+04  0.11917481944E+04  0.50400000000E-02 0.  1.
          1   -1    0    0  501    0  0.00000000000E+00 -0.00000000000E+00 -0.56283557140E+03  0.56283557142E+03  0.50400000000E-02 0. -1.
    8880023    1    1    2    0    0  0.21421488889E+03 -0.23941254340E+03  0.10004671313E+04  0.12401415531E+04  0.65864270000E+03 0.  1.
    8880022    1    1    2    0    0 -0.21421488889E+03  0.23941254340E+03 -0.37155450834E+03  0.51444221273E+03  0.15294330000E+03 0.  0.
<mgrwt>
<rscale>  0 0.61171448E+03</rscale>
<asrwt>0</asrwt>
<pdfrwt beam="1">  1        1 0.86590089E-01 0.73281416E+03</pdfrwt>
<pdfrwt beam="2">  1       -1 0.18334587E+00 0.73281416E+03</pdfrwt>
<totfact> 0.76526968E+00</totfact>
</mgrwt>
</event>
<event>
 4    1  0.1043382E-007  0.6702687E+03  0.7818608E-02  0.1015471E+00
          1   -1    0    0  501    0  0.00000000000E+00  0.00000000000E+00  0.12830596472E+04  0.12830596472E+04  0.50400000000E-02 0. -1.
         -1   -1    0    0    0  501 -0.00000000000E+00 -0.00000000000E+00 -0.16667359231E+03  0.16667359239E+03  0.50400000000E-02 0.  1.
    8880023    1    1    2    0    0  0.25109871232E+02 -0.12173501467E+03  0.60977609965E+03  0.90613851998E+03  0.65864270000E+03 0.  1.
    8880022    1    1    2    0    0 -0.25109871232E+02  0.12173501467E+03  0.50660995521E+03  0.54359471959E+03  0.15294330000E+03 0.  0.
<mgrwt>
<rscale>  0 0.49357006E+03</rscale>
<asrwt>0</asrwt>
<pdfrwt beam="1">  1        1 0.19739378E+00 0.67026870E+03</pdfrwt>
<pdfrwt beam="2">  1       -1 0.25642092E-01 0.67026870E+03</pdfrwt>
<totfact> 0.12793051E+02</totfact>
</mgrwt>
</event>
<event>
 4    1  0.1043382E-007  0.8470182E+03  0.7818608E-02  0.9617086E-01
         -1   -1    0    0    0  501 -0.00000000000E+00  0.00000000000E+00  0.72872067497E+03  0.72872067499E+03  0.50400000000E-02 0.  1.
          1   -1    0    0  501    0  0.00000000000E+00 -0.00000000000E+00 -0.12456987887E+04  0.12456987887E+04  0.50400000000E-02 0. -1.
    8880023    1    1    2    0    0 -0.22957769843E+03  0.48054514651E+03  0.37342982643E+03  0.92568331463E+03  0.65864270000E+03 0.  0.
    8880022    1    1    2    0    0  0.22957769843E+03 -0.48054514651E+03 -0.89040794017E+03  0.10487361491E+04  0.15294330000E+03 0.  0.
<mgrwt>
<rscale>  0 0.76175548E+03</rscale>
<asrwt>0</asrwt>
<pdfrwt beam="1">  1        1 0.19164597E+00 0.84701816E+03</pdfrwt>
<pdfrwt beam="2">  1       -1 0.11211087E+00 0.84701816E+03</pdfrwt>
<totfact> 0.73823616E+00</totfact>
</mgrwt>
</event>
<event>
 4    1  0.1043382E-007  0.6606031E+03  0.7818608E-02  0.1023547E+00
          1   -1    0    0  501    0  0.00000000000E+00  0.00000000000E+00  0.91730204724E+03  0.91730204725E+03  0.50400000000E-02 0. -1.
         -1   -1    0    0    0  501 -0.00000000000E+00 -0.00000000000E+00 -0.30786321286E+03  0.30786321290E+03  0.50400000000E-02 0.  1.
    8880023    1    1    2    0    0  0.12375440280E+02  0.49327035221E+02  0.72514490084E+02  0.66457118916E+03  0.65864270000E+03 0.  0.
    8880022    1    1    2    0    0 -0.12375440280E+02 -0.49327035221E+02  0.53692434430E+03  0.56059407100E+03  0.15294330000E+03 0. -1.
<mgrwt>
<rscale>  0 0.46428121E+03</rscale>
<asrwt>0</asrwt>
<pdfrwt beam="1">  1        1 0.14112339E+00 0.66060314E+03</pdfrwt>
<pdfrwt beam="2">  1       -1 0.47363571E-01 0.66060314E+03</pdfrwt>
<totfact> 0.80598609E+01</totfact>
</mgrwt>
</event>
<event>
 4    1  0.1043382E-007  0.1188563E+04  0.7818608E-02  0.9168321E-01
          1   -1    0    0  501    0  0.00000000000E+00  0.00000000000E+00  0.11063553631E+04  0.11063553631E+04  0.50400000000E-02 0. -1.
         -1   -1    0    0    0  501 -0.00000000000E+00 -0.00000000000E+00 -0.13261205688E+04  0.13261205688E+04  0.50400000000E-02 0.  1.
    8880023    1    1    2    0    0 -0.85179133161E+03  0.50331158582E+03  0.40114318426E+03  0.12544309808E+04  0.65864270000E+03 0.  0.
    8880022    1    1    2    0    0  0.85179133161E+03 -0.50331158582E+03 -0.62090838995E+03  0.11780449511E+04  0.15294330000E+03 0.  0.
<mgrwt>
<rscale>  0 0.11386474E+04</rscale>
<asrwt>0</asrwt>
<pdfrwt beam="1">  1        1 0.17020852E+00 0.11885627E+04</pdfrwt>
<pdfrwt beam="2">  1       -1 0.20401855E+00 0.11885627E+04</pdfrwt>
<totfact> 0.17386308E+00</totfact>
</mgrwt>
</event>
<event>
 4    1  0.1043382E-007  0.6843195E+03  0.7818608E-02  0.1006979E+00
         -1   -1    0    0    0  501 -0.00000000000E+00  0.00000000000E+00  0.30496415600E+03  0.30496415604E+03  0.50400000000E-02 0.  1.
          1   -1    0    0  501    0  0.00000000000E+00 -0.00000000000E+00 -0.85173857643E+03  0.85173857644E+03  0.50400000000E-02 0. -1.
    8880023    1    1    2    0    0 -0.54195175063E+02 -0.17761143352E+03 -0.16252064864E+03  0.70335347146E+03  0.65864270000E+03 0.  0.
    8880022    1    1    2    0    0  0.54195175063E+02  0.17761143352E+03 -0.38425377179E+03  0.45334926102E+03  0.15294330000E+03 0.  0.
<mgrwt>
<rscale>  0 0.52693272E+03</rscale>
<asrwt>0</asrwt>
<pdfrwt beam="1">  1        1 0.13103670E+00 0.68431948E+03</pdfrwt>
<pdfrwt beam="2">  1       -1 0.46917563E-01 0.68431948E+03</pdfrwt>
<totfact> 0.92628447E+01</totfact>
</mgrwt>
</event>
<event>
 4    1  0.1043382E-007  0.6819807E+03  0.7818608E-02  0.1008225E+00
          1   -1    0    0  501    0  0.00000000000E+00  0.00000000000E+00  0.13239722996E+04  0.13239722997E+04  0.50400000000E-02 0. -1.
         -1   -1    0    0    0  501 -0.00000000000E+00 -0.00000000000E+00 -0.17736888163E+03  0.17736888170E+03  0.50400000000E-02 0.  1.
    8880023    1    1    2    0    0 -0.78299925951E+02 -0.15860815708E+03  0.60596304252E+03  0.91229865782E+03  0.65864270000E+03 0.  1.
    8880022    1    1    2    0    0  0.78299925951E+02  0.15860815708E+03  0.54064037549E+03  0.58904252353E+03  0.15294330000E+03 0. -1.
<mgrwt>
<rscale>  0 0.52186323E+03</rscale>
<asrwt>0</asrwt>
<pdfrwt beam="1">  1        1 0.20368805E+00 0.68198067E+03</pdfrwt>
<pdfrwt beam="2">  1       -1 0.27287520E-01 0.68198067E+03</pdfrwt>
<totfact> 0.10750068E+02</totfact>
</mgrwt>
</event>
<event>
 4    1  0.1043382E-007  0.7440885E+03  0.7818608E-02  0.9848194E-01
          1   -1    0    0  501    0  0.00000000000E+00  0.00000000000E+00  0.15184138208E+04  0.15184138208E+04  0.50400000000E-02 0. -1.
         -1   -1    0    0    0  501 -0.00000000000E+00 -0.00000000000E+00 -0.34766165253E+03  0.34766165257E+03  0.50400000000E-02 0.  1.
    8880023    1    1    2    0    0  0.54503420705E+02  0.34188726916E+03  0.12574349916E+03  0.75463843099E+03  0.65864270000E+03 0.  1.
    8880022    1    1    2    0    0 -0.54503420705E+02 -0.34188726916E+03  0.10450086691E+04  0.11114370424E+04  0.15294330000E+03 0.  0.
<mgrwt>
<rscale>  0 0.62839103E+03</rscale>
<asrwt>0</asrwt>
<pdfrwt beam="1">  1        1 0.23360213E+00 0.74408853E+03</pdfrwt>
<pdfrwt beam="2">  1       -1 0.53486408E-01 0.74408853E+03</pdfrwt>
<totfact> 0.23178799E+01</totfact>
</mgrwt>
</event>
<event>
 4    1  0.1043382E-007  0.9927337E+03  0.7818608E-02  0.9391126E-01
          1   -1    0    0  501    0  0.00000000000E+00  0.00000000000E+00  0.19249912267E+04  0.19249912267E+04  0.50400000000E-02 0. -1.
         -1   -1    0    0    0  501 -0.00000000000E+00 -0.00000000000E+00 -0.43122127181E+03  0.43122127184E+03  0.50400000000E-02 0.  1.
    8880023    1    1    2    0    0 -0.72798587590E+03  0.14746725502E+03  0.51601906464E+03  0.11188368550E+04  0.65864270000E+03 0.  1.
    8880022    1    1    2    0    0  0.72798587590E+03 -0.14746725502E+03  0.97775089027E+03  0.12373756436E+04  0.15294330000E+03 0.  0.
<mgrwt>
<rscale>  0 0.92809548E+03</rscale>
<asrwt>0</asrwt>
<pdfrwt beam="1">  1        1 0.29615249E+00 0.99273372E+03</pdfrwt>
<pdfrwt beam="2">  1       -1 0.66341735E-01 0.99273372E+03</pdfrwt>
<totfact> 0.78018873E+00</totfact>
</mgrwt>
</event>
<event>
 4    1  0.1043382E-007  0.6639434E+03  0.7818608E-02  0.1020437E+00
          1   -1    0    0  501    0  0.00000000000E+00  0.00000000000E+00  0.92988798084E+03  0.92988798086E+03  0.50400000000E-02 0. -1.
         -1   -1    0    0    0  501 -0.00000000000E+00 -0.00000000000E+00 -0.34776039130E+03  0.34776039133E+03  0.50400000000E-02 0.  1.
    8880023    1    1    2    0    0 -0.77556183975E+02 -0.31554875585E+02 -0.62560070965E+01  0.66397290286E+03  0.65864270000E+03 0.  1.
    8880022    1    1    2    0    0  0.77556183975E+02  0.31554875585E+02  0.58838359664E+03  0.61367546933E+03  0.15294330000E+03 0.  0.
<mgrwt>
<rscale>  0 0.47529326E+03</rscale>
<asrwt>0</asrwt>
<pdfrwt beam="1">  1        1 0.14305969E+00 0.66394343E+03</pdfrwt>
<pdfrwt beam="2">  1       -1 0.53501599E-01 0.66394343E+03</pdfrwt>
<totfact> 0.62509339E+01</totfact>
</mgrwt>
</event>
<event>
 4    1  0.1043382E-007  0.7145265E+03  0.7818608E-02  0.9941561E-01
          1   -1    0    0  501    0  0.00000000000E+00  0.00000000000E+00  0.19435458347E+04  0.19435458347E+04  0.50400000000E-02 0. -1.
         -1   -1    0    0    0  501 -0.00000000000E+00 -0.00000000000E+00 -0.21176784436E+03  0.21176784442E+03  0.50400000000E-02 0.  1.
    8880023    1    1    2    0    0  0.26225488626E+03 -0.89220645516E+02  0.16916300637E+04  0.18363443107E+04  0.65864270000E+03 0. -1.
    8880022    1    1    2    0    0 -0.26225488626E+03  0.89220645516E+02  0.40147926677E+02  0.31896936841E+03  0.15294330000E+03 0.  0.
<mgrwt>
<rscale>  0 0.58288661E+03</rscale>
<asrwt>0</asrwt>
<pdfrwt beam="1">  1        1 0.29900706E+00 0.71452653E+03</pdfrwt>
<pdfrwt beam="2">  1       -1 0.32579668E-01 0.71452653E+03</pdfrwt>
<totfact> 0.29904277E+01</totfact>
</mgrwt>
</event>
<event>
 4    1  0.1043382E-007  0.6666742E+03  0.7818608E-02  0.1018168E+00
         -1   -1    0    0    0  501 -0.00000000000E+00  0.00000000000E+00  0.45561741150E+03  0.45561741153E+03  0.50400000000E-02 0.  1.
          1   -1    0    0  501    0  0.00000000000E+00 -0.00000000000E+00 -0.70244752453E+03  0.70244752455E+03  0.50400000000E-02 0. -1.
    8880023    1    1    2    0    0  0.89284114496E+02 -0.51697357903E+02  0.18213823191E+03  0.69110694665E+03  0.65864270000E+03 0.  1.
    8880022    1    1    2    0    0 -0.89284114496E+02  0.51697357903E+02 -0.42896834494E+03  0.46695798943E+03  0.15294330000E+03 0.  0.
<mgrwt>
<rscale>  0 0.48353445E+03</rscale>
<asrwt>0</asrwt>
<pdfrwt beam="1">  1        1 0.10806885E+00 0.66667419E+03</pdfrwt>
<pdfrwt beam="2">  1       -1 0.70094986E-01 0.66667419E+03</pdfrwt>
<totfact> 0.57401884E+01</totfact>
</mgrwt>
</event>
<event>
 4    1  0.1043382E-007  0.9734866E+03  0.7818608E-02  0.9417098E-01
          1   -1    0    0  501    0  0.00000000000E+00  0.00000000000E+00  0.20688653190E+04  0.20688653190E+04  0.50400000000E-02 0. -1.
         -1   -1    0    0    0  501 -0.00000000000E+00 -0.00000000000E+00 -0.47620499708E+03  0.47620499710E+03  0.50400000000E-02 0.  1.
    8880023    1    1    2    0    0 -0.68742960654E+03  0.20323992045E+03  0.23386334287E+03  0.10011833991E+04  0.65864270000E+03 0.  0.
    8880022    1    1    2    0    0  0.68742960654E+03 -0.20323992045E+03  0.13587969790E+04  0.15438869170E+04  0.15294330000E+03 0.  0.
<mgrwt>
<rscale>  0 0.90681835E+03</rscale>
<asrwt>0</asrwt>
<pdfrwt beam="1">  1        1 0.31828697E+00 0.97348659E+03</pdfrwt>
<pdfrwt beam="2">  1       -1 0.73262307E-01 0.97348659E+03</pdfrwt>
<totfact> 0.51035990E+00</totfact>
</mgrwt>
</event>
<event>
 4    1  0.1043382E-007  0.9814752E+03  0.7818608E-02  0.9406205E-01
         -1   -1    0    0    0  501 -0.00000000000E+00  0.00000000000E+00  0.11025975642E+04  0.11025975642E+04  0.50400000000E-02 0.  1.
          1   -1    0    0  501    0  0.00000000000E+00 -0.00000000000E+00 -0.15474238511E+04  0.15474238511E+04  0.50400000000E-02 0. -1.
    8880023    1    1    2    0    0  0.35593941856E+03 -0.63465779352E+03 -0.12267167558E+04  0.15710275586E+04  0.65864270000E+03 0.  0.
    8880022    1    1    2    0    0 -0.35593941856E+03  0.63465779352E+03  0.78189046890E+03  0.10789938568E+04  0.15294330000E+03 0.  0.
<mgrwt>
<rscale>  0 0.91566766E+03</rscale>
<asrwt>0</asrwt>
<pdfrwt beam="1">  1        1 0.23806521E+00 0.98147521E+03</pdfrwt>
<pdfrwt beam="2">  1       -1 0.16963039E+00 0.98147521E+03</pdfrwt>
<totfact> 0.15155556E+00</totfact>
</mgrwt>
</event>
<event>
 4    1  0.1043382E-007  0.6778205E+03  0.7818608E-02  0.1010584E+00
          1   -1    0    0  501    0  0.00000000000E+00  0.00000000000E+00  0.10718950011E+04  0.10718950011E+04  0.50400000000E-02 0. -1.
         -1   -1    0    0    0  501 -0.00000000000E+00 -0.00000000000E+00 -0.73432791498E+03  0.73432791500E+03  0.50400000000E-02 0.  1.
    8880023    1    1    2    0    0 -0.15529874739E+03  0.38893450425E+02 -0.56156895385E+03  0.88022741244E+03  0.65864270000E+03 0.  1.
    8880022    1    1    2    0    0  0.15529874739E+03 -0.38893450425E+02  0.89913603999E+03  0.92599550369E+03  0.15294330000E+03 0.  0.
<mgrwt>
<rscale>  0 0.51243048E+03</rscale>
<asrwt>0</asrwt>
<pdfrwt beam="1">  1        1 0.16490692E+00 0.67782048E+03</pdfrwt>
<pdfrwt beam="2">  1       -1 0.11297353E+00 0.67782048E+03</pdfrwt>
<totfact> 0.99617496E+00</totfact>
</mgrwt>
</event>
<event>
 4    1  0.1043382E-007  0.8637173E+03  0.7818608E-02  0.9586985E-01
         -1   -1    0    0    0  501 -0.00000000000E+00  0.00000000000E+00  0.11140945617E+04  0.11140945617E+04  0.50400000000E-02 0.  1.
          1   -1    0    0  501    0  0.00000000000E+00 -0.00000000000E+00 -0.90219907269E+03  0.90219907271E+03  0.50400000000E-02 0. -1.
    8880023    1    1    2    0    0 -0.12754059566E+03  0.54399522020E+03  0.80966492229E+03  0.11838770611E+04  0.65864270000E+03 0.  0.
    8880022    1    1    2    0    0  0.12754059566E+03 -0.54399522020E+03 -0.59776943329E+03  0.83241657332E+03  0.15294330000E+03 0.  0.
<mgrwt>
<rscale>  0 0.78163625E+03</rscale>
<asrwt>0</asrwt>
<pdfrwt beam="1">  1        1 0.13879986E+00 0.86371732E+03</pdfrwt>
<pdfrwt beam="2">  1       -1 0.17139916E+00 0.86371732E+03</pdfrwt>
<totfact> 0.44414618E+00</totfact>
</mgrwt>
</event>
<event>
 4    1  0.1043382E-007  0.7506365E+03  0.7818608E-02  0.9829981E-01
          1   -1    0    0  501    0  0.00000000000E+00  0.00000000000E+00  0.87393099845E+03  0.87393099846E+03  0.50400000000E-02 0. -1.
         -1   -1    0    0    0  501 -0.00000000000E+00 -0.00000000000E+00 -0.38492653757E+03  0.38492653760E+03  0.50400000000E-02 0.  1.
    8880023    1    1    2    0    0  0.10226132087E+03  0.34523555539E+03  0.42456559686E+03  0.86238687301E+03  0.65864270000E+03 0. -1.
    8880022    1    1    2    0    0 -0.10226132087E+03 -0.34523555539E+03  0.64438864026E+02  0.39647066305E+03  0.15294330000E+03 0.  1.
<mgrwt>
<rscale>  0 0.63778116E+03</rscale>
<asrwt>0</asrwt>
<pdfrwt beam="1">  1        1 0.13445092E+00 0.75063651E+03</pdfrwt>
<pdfrwt beam="2">  1       -1 0.59219468E-01 0.75063651E+03</pdfrwt>
<totfact> 0.56518238E+01</totfact>
</mgrwt>
</event>
<event>
 4    1  0.1043382E-007  0.6883073E+03  0.7818608E-02  0.1004968E+00
         -1   -1    0    0    0  501 -0.00000000000E+00  0.00000000000E+00  0.20170175933E+04  0.20170175933E+04  0.50400000000E-02 0.  1.
          1   -1    0    0  501    0  0.00000000000E+00 -0.00000000000E+00 -0.15027947892E+03  0.15027947901E+03  0.50400000000E-02 0. -1.
    8880023    1    1    2    0    0 -0.31964817384E+02 -0.19731947984E+03  0.17674212862E+04  0.18967195196E+04  0.65864270000E+03 0.  1.
    8880022    1    1    2    0    0  0.31964817384E+02  0.19731947984E+03  0.99316828143E+02  0.27057755273E+03  0.15294330000E+03 0.  0.
<mgrwt>
<rscale>  0 0.53524635E+03</rscale>
<asrwt>0</asrwt>
<pdfrwt beam="1">  1        1 0.23119921E-01 0.68830730E+03</pdfrwt>
<pdfrwt beam="2">  1       -1 0.31031038E+00 0.68830730E+03</pdfrwt>
<totfact> 0.64594014E+00</totfact>
</mgrwt>
</event>
<event>
 4    1  0.1043382E-007  0.6915966E+03  0.7818608E-02  0.1003403E+00
         -1   -1    0    0    0  501 -0.00000000000E+00  0.00000000000E+00  0.74379401873E+03  0.74379401875E+03  0.50400000000E-02 0.  1.
          1   -1    0    0  501    0  0.00000000000E+00 -0.00000000000E+00 -0.54857711617E+03  0.54857711620E+03  0.50400000000E-02 0. -1.
    8880023    1    1    2    0    0 -0.18632072294E+03  0.98894878409E+02  0.52772268974E+03  0.86994083265E+03  0.65864270000E+03 0.  1.
    8880022    1    1    2    0    0  0.18632072294E+03 -0.98894878409E+02 -0.33250578718E+03  0.42243030230E+03  0.15294330000E+03 0.  0.
<mgrwt>
<rscale>  0 0.54183014E+03</rscale>
<asrwt>0</asrwt>
<pdfrwt beam="1">  1        1 0.84396479E-01 0.69159657E+03</pdfrwt>
<pdfrwt beam="2">  1       -1 0.11442985E+00 0.69159657E+03</pdfrwt>
<totfact> 0.27876354E+01</totfact>
</mgrwt>
</event>
<event>
 4    1  0.1043382E-007  0.6722375E+03  0.7818608E-02  0.1014107E+00
         -1   -1    0    0    0  501 -0.00000000000E+00  0.00000000000E+00  0.25511637814E+03  0.25511637819E+03  0.50400000000E-02 0.  1.
          1   -1    0    0  501    0  0.00000000000E+00 -0.00000000000E+00 -0.18506060695E+04  0.18506060695E+04  0.50400000000E-02 0. -1.
    8880023    1    1    2    0    0 -0.14567699744E+02  0.13371925596E+03 -0.20845903185E+03  0.70381704406E+03  0.65864270000E+03 0.  0.
    8880022    1    1    2    0    0  0.14567699744E+02 -0.13371925596E+03 -0.13870306595E+04  0.14019054036E+04  0.15294330000E+03 0. -1.
<mgrwt>
<rscale>  0 0.49874443E+03</rscale>
<asrwt>0</asrwt>
<pdfrwt beam="1">  1        1 0.28470862E+00 0.67223751E+03</pdfrwt>
<pdfrwt beam="2">  1       -1 0.39248675E-01 0.67223751E+03</pdfrwt>
<totfact> 0.24891808E+01</totfact>
</mgrwt>
</event>
<event>
 4    1  0.1043382E-007  0.8924630E+03  0.7818608E-02  0.9538241E-01
         -1   -1    0    0    0  501 -0.00000000000E+00  0.00000000000E+00  0.73917287943E+03  0.73917287945E+03  0.50400000000E-02 0.  1.
          1   -1    0    0  501    0  0.00000000000E+00 -0.00000000000E+00 -0.15462864431E+04  0.15462864431E+04  0.50400000000E-02 0. -1.
    8880023    1    1    2    0    0 -0.59742000668E+03  0.75955993362E+02  0.36073073361E+03  0.96260939417E+03  0.65864270000E+03 0.  0.
    8880022    1    1    2    0    0  0.59742000668E+03 -0.75955993362E+02 -0.11678442973E+04  0.13228499284E+04  0.15294330000E+03 0.  0.
<mgrwt>
<rscale>  0 0.81522248E+03</rscale>
<asrwt>0</asrwt>
<pdfrwt beam="1">  1        1 0.23789022E+00 0.89246299E+03</pdfrwt>
<pdfrwt beam="2">  1       -1 0.11371890E+00 0.89246299E+03</pdfrwt>
<totfact> 0.43717950E+00</totfact>
</mgrwt>
</event>
<event>
 4    1  0.1043382E-007  0.8226757E+03  0.7818608E-02  0.9663755E-01
         -1   -1    0    0    0  501 -0.00000000000E+00  0.00000000000E+00  0.64246248282E+03  0.64246248284E+03  0.50400000000E-02 0.  1.
          1   -1    0    0  501    0  0.00000000000E+00 -0.00000000000E+00 -0.21950488869E+04  0.21950488869E+04  0.50400000000E-02 0. -1.
    8880023    1    1    2    0    0  0.49260672323E+03 -0.17992004669E+02  0.32929994893E+03  0.88613416514E+03  0.65864270000E+03 0.  0.
    8880022    1    1    2    0    0 -0.49260672323E+03  0.17992004669E+02 -0.18818863530E+04  0.19513772046E+04  0.15294330000E+03 0.  0.
<mgrwt>
<rscale>  0 0.73216428E+03</rscale>
<asrwt>0</asrwt>
<pdfrwt beam="1">  1        1 0.33769983E+00 0.82267570E+03</pdfrwt>
<pdfrwt beam="2">  1       -1 0.98840383E-01 0.82267570E+03</pdfrwt>
<totfact> 0.22418441E+00</totfact>
</mgrwt>
</event>
<event>
 4    1  0.1043382E-007  0.7062639E+03  0.7818608E-02  0.9972145E-01
         -1   -1    0    0    0  501 -0.00000000000E+00  0.00000000000E+00  0.32051421499E+03  0.32051421503E+03  0.50400000000E-02 0.  1.
          1   -1    0    0  501    0  0.00000000000E+00 -0.00000000000E+00 -0.20197142770E+04  0.20197142770E+04  0.50400000000E-02 0. -1.
    8880023    1    1    2    0    0  0.16124602251E+03  0.19747967524E+03 -0.99621510291E+02  0.71325532139E+03  0.65864270000E+03 0.  0.
    8880022    1    1    2    0    0 -0.16124602251E+03 -0.19747967524E+03 -0.15995785517E+04  0.16269731706E+04  0.15294330000E+03 0.  1.
<mgrwt>
<rscale>  0 0.56888666E+03</rscale>
<asrwt>0</asrwt>
<pdfrwt beam="1">  1        1 0.31072526E+00 0.70626391E+03</pdfrwt>
<pdfrwt beam="2">  1       -1 0.49309881E-01 0.70626391E+03</pdfrwt>
<totfact> 0.12527266E+01</totfact>
</mgrwt>
</event>
<event>
 4    1  0.1043382E-007  0.7730905E+03  0.7818608E-02  0.9772325E-01
          1   -1    0    0  501    0  0.00000000000E+00  0.00000000000E+00  0.12926654667E+04  0.12926654667E+04  0.50400000000E-02 0. -1.
         -1   -1    0    0    0  501 -0.00000000000E+00 -0.00000000000E+00 -0.67901626502E+03  0.67901626504E+03  0.50400000000E-02 0.  1.
    8880023    1    1    2    0    0  0.39428824324E+03  0.91626755439E+02 -0.39933988061E+03  0.87013862550E+03  0.65864270000E+03 0.  0.
    8880022    1    1    2    0    0 -0.39428824324E+03 -0.91626755439E+02  0.10129890823E+04  0.11015431063E+04  0.15294330000E+03 0.  0.
<mgrwt>
<rscale>  0 0.66869114E+03</rscale>
<asrwt>0</asrwt>
<pdfrwt beam="1">  1        1 0.19887161E+00 0.77309048E+03</pdfrwt>
<pdfrwt beam="2">  1       -1 0.10446404E+00 0.77309048E+03</pdfrwt>
<totfact> 0.81504789E+00</totfact>
</mgrwt>
</event>
<event>
 4    1  0.1043382E-007  0.9396398E+03  0.7818608E-02  0.9465179E-01
         -1   -1    0    0    0  501 -0.00000000000E+00  0.00000000000E+00  0.13229117891E+04  0.13229117891E+04  0.50400000000E-02 0.  1.
          1   -1    0    0  501    0  0.00000000000E+00 -0.00000000000E+00 -0.10566362839E+04  0.10566362839E+04  0.50400000000E-02 0. -1.
    8880023    1    1    2    0    0 -0.56676622347E+03 -0.35761552638E+03  0.10013284170E+04  0.13731648196E+04  0.65864270000E+03 0.  0.
    8880022    1    1    2    0    0  0.56676622347E+03  0.35761552638E+03 -0.73505291176E+03  0.10063832535E+04  0.15294330000E+03 0.  0.
<mgrwt>
<rscale>  0 0.86900406E+03</rscale>
<asrwt>0</asrwt>
<pdfrwt beam="1">  1        1 0.16255943E+00 0.93963984E+03</pdfrwt>
<pdfrwt beam="2">  1       -1 0.20352489E+00 0.93963984E+03</pdfrwt>
<totfact> 0.19721654E+00</totfact>
</mgrwt>
</event>
<event>
 4    1  0.1043382E-007  0.9115649E+03  0.7818608E-02  0.9507716E-01
         -1   -1    0    0    0  501 -0.00000000000E+00  0.00000000000E+00  0.38446821701E+03  0.38446821704E+03  0.50400000000E-02 0.  1.
          1   -1    0    0  501    0  0.00000000000E+00 -0.00000000000E+00 -0.17928225016E+04  0.17928225016E+04  0.50400000000E-02 0. -1.
    8880023    1    1    2    0    0  0.41419429093E+03 -0.47495625020E+03 -0.11771219828E+04  0.14888138631E+04  0.65864270000E+03 0.  0.
    8880022    1    1    2    0    0 -0.41419429093E+03  0.47495625020E+03 -0.23123230181E+03  0.68847685558E+03  0.15294330000E+03 0.  0.
<mgrwt>
<rscale>  0 0.83717370E+03</rscale>
<asrwt>0</asrwt>
<pdfrwt beam="1">  1        1 0.27581884E+00 0.91156489E+03</pdfrwt>
<pdfrwt beam="2">  1       -1 0.59148958E-01 0.91156489E+03</pdfrwt>
<totfact> 0.12165024E+01</totfact>
</mgrwt>
</event>
<event>
 4    1  0.1043382E-007  0.8889547E+03  0.7818608E-02  0.9544001E-01
          1   -1    0    0  501    0  0.00000000000E+00  0.00000000000E+00  0.27060465263E+03  0.27060465268E+03  0.50400000000E-02 0. -1.
         -1   -1    0    0    0  501 -0.00000000000E+00 -0.00000000000E+00 -0.21479714725E+04  0.21479714725E+04  0.50400000000E-02 0.  1.
    8880023    1    1    2    0    0 -0.45883643105E+03  0.38196767733E+03 -0.12942738386E+04  0.15701544996E+04  0.65864270000E+03 0.  1.
    8880022    1    1    2    0    0  0.45883643105E+03 -0.38196767733E+03 -0.58309298126E+03  0.84842162561E+03  0.15294330000E+03 0.  0.
<mgrwt>
<rscale>  0 0.81116125E+03</rscale>
<asrwt>0</asrwt>
<pdfrwt beam="1">  1        1 0.41631487E-01 0.88895466E+03</pdfrwt>
<pdfrwt beam="2">  1       -1 0.33045714E+00 0.88895466E+03</pdfrwt>
<totfact> 0.21660338E+00</totfact>
</mgrwt>
</event>
<event>
 4    1  0.1043382E-007  0.8361194E+03  0.7818608E-02  0.9637541E-01
          1   -1    0    0  501    0  0.00000000000E+00  0.00000000000E+00  0.54496346105E+03  0.54496346107E+03  0.50400000000E-02 0. -1.
         -1   -1    0    0    0  501 -0.00000000000E+00 -0.00000000000E+00 -0.14232460192E+04  0.14232460192E+04  0.50400000000E-02 0.  1.
    8880023    1    1    2    0    0  0.43950458983E+03  0.26855368956E+03 -0.11044631339E+04  0.13852560735E+04  0.65864270000E+03 0.  1.
    8880022    1    1    2    0    0 -0.43950458983E+03 -0.26855368956E+03  0.22618057575E+03  0.58295340682E+03  0.15294330000E+03 0.  0.
<mgrwt>
<rscale>  0 0.74860502E+03</rscale>
<asrwt>0</asrwt>
<pdfrwt beam="1">  1        1 0.83840533E-01 0.83611935E+03</pdfrwt>
<pdfrwt beam="2">  1       -1 0.21896093E+00 0.83611935E+03</pdfrwt>
<totfact> 0.45067960E+00</totfact>
</mgrwt>
</event>
<event>
 4    1  0.1043382E-007  0.6974779E+03  0.7818608E-02  0.1000783E+00
          1   -1    0    0  501    0  0.00000000000E+00  0.00000000000E+00  0.73749972507E+03  0.73749972509E+03  0.50400000000E-02 0. -1.
         -1   -1    0    0    0  501 -0.00000000000E+00 -0.00000000000E+00 -0.11025004271E+04  0.11025004271E+04  0.50400000000E-02 0.  1.
    8880023    1    1    2    0    0 -0.19216665164E+03  0.12544813703E+03 -0.95858437477E+03  0.11854785814E+04  0.65864270000E+03 0.  1.
    8880022    1    1    2    0    0  0.19216665164E+03 -0.12544813703E+03  0.59358367275E+03  0.65452157081E+03  0.15294330000E+03 0.  0.
<mgrwt>
<rscale>  0 0.55308284E+03</rscale>
<asrwt>0</asrwt>
<pdfrwt beam="1">  1        1 0.11346150E+00 0.69747793E+03</pdfrwt>
<pdfrwt beam="2">  1       -1 0.16961545E+00 0.69747793E+03</pdfrwt>
<totfact> 0.64880881E+00</totfact>
</mgrwt>
</event>
<event>
 4    1  0.1043382E-007  0.1094478E+04  0.7818608E-02  0.9267230E-01
         -1   -1    0    0    0  501 -0.00000000000E+00  0.00000000000E+00  0.12113866408E+04  0.12113866408E+04  0.50400000000E-02 0.  1.
          1   -1    0    0  501    0  0.00000000000E+00 -0.00000000000E+00 -0.19914638490E+04  0.19914638490E+04  0.50400000000E-02 0. -1.
    8880023    1    1    2    0    0  0.85296060640E+03 -0.19112587162E+03  0.82379161309E+03  0.13698590157E+04  0.65864270000E+03 0.  0.
    8880022    1    1    2    0    0 -0.85296060640E+03  0.19112587162E+03 -0.16038688214E+04  0.18329914741E+04  0.15294330000E+03 0.  0.
<mgrwt>
<rscale>  0 0.10385655E+04</rscale>
<asrwt>0</asrwt>
<pdfrwt beam="1">  1        1 0.30637905E+00 0.10944775E+04</pdfrwt>
<pdfrwt beam="2">  1       -1 0.18636718E+00 0.10944775E+04</pdfrwt>
<totfact> 0.56427217E-01</totfact>
</mgrwt>
</event>
<event>
 4    1  0.1043382E-007  0.7210513E+03  0.7818608E-02  0.9919045E-01
         -1   -1    0    0    0  501 -0.00000000000E+00  0.00000000000E+00  0.53507039161E+03  0.53507039163E+03  0.50400000000E-02 0.  1.
          1   -1    0    0  501    0  0.00000000000E+00 -0.00000000000E+00 -0.21899480626E+04  0.21899480626E+04  0.50400000000E-02 0. -1.
    8880023    1    1    2    0    0 -0.29263869671E+03 -0.21618261606E+02  0.27146639166E+03  0.77046022877E+03  0.65864270000E+03 0.  1.
    8880022    1    1    2    0    0  0.29263869671E+03  0.21618261606E+02 -0.19263440627E+04  0.19545582255E+04  0.15294330000E+03 0.  0.
<mgrwt>
<rscale>  0 0.59347114E+03</rscale>
<asrwt>0</asrwt>
<pdfrwt beam="1">  1        1 0.33691508E+00 0.72105129E+03</pdfrwt>
<pdfrwt beam="2">  1       -1 0.82318523E-01 0.72105129E+03</pdfrwt>
<totfact> 0.34455947E+00</totfact>
</mgrwt>
</event>
<event>
 4    1  0.1043382E-007  0.7035104E+03  0.7818608E-02  0.9982939E-01
         -1   -1    0    0    0  501 -0.00000000000E+00  0.00000000000E+00  0.78790762068E+03  0.78790762069E+03  0.50400000000E-02 0.  1.
          1   -1    0    0  501    0  0.00000000000E+00 -0.00000000000E+00 -0.96374136024E+03  0.96374136026E+03  0.50400000000E-02 0. -1.
    8880023    1    1    2    0    0  0.23370757608E+03 -0.80606485793E+02  0.59906495102E+03  0.92401604882E+03  0.65864270000E+03 0.  1.
    8880022    1    1    2    0    0 -0.23370757608E+03  0.80606485793E+02 -0.77489869058E+03  0.82763293213E+03  0.15294330000E+03 0.  0.
<mgrwt>
<rscale>  0 0.56404700E+03</rscale>
<asrwt>0</asrwt>
<pdfrwt beam="1">  1        1 0.14826790E+00 0.70351037E+03</pdfrwt>
<pdfrwt beam="2">  1       -1 0.12121656E+00 0.70351037E+03</pdfrwt>
<totfact> 0.10141200E+01</totfact>
</mgrwt>
</event>
<event>
 4    1  0.1043382E-007  0.1033582E+04  0.7818608E-02  0.9338883E-01
          1   -1    0    0  501    0  0.00000000000E+00  0.00000000000E+00  0.11951034276E+04  0.11951034276E+04  0.50400000000E-02 0. -1.
         -1   -1    0    0    0  501 -0.00000000000E+00 -0.00000000000E+00 -0.14192705968E+04  0.14192705968E+04  0.50400000000E-02 0.  1.
    8880023    1    1    2    0    0  0.36462912599E+03  0.70818619169E+03 -0.10383826973E+04  0.14651044038E+04  0.65864270000E+03 0.  1.
    8880022    1    1    2    0    0 -0.36462912599E+03 -0.70818619169E+03  0.81421552818E+03  0.11492696207E+04  0.15294330000E+03 0.  0.
<mgrwt>
<rscale>  0 0.97280681E+03</rscale>
<asrwt>0</asrwt>
<pdfrwt beam="1">  1        1 0.18386207E+00 0.10335823E+04</pdfrwt>
<pdfrwt beam="2">  1       -1 0.21834932E+00 0.10335823E+04</pdfrwt>
<totfact> 0.12181262E+00</totfact>
</mgrwt>
</event>
<event>
 4    1  0.1043382E-007  0.7865311E+03  0.7818608E-02  0.9740713E-01
         -1   -1    0    0    0  501 -0.00000000000E+00  0.00000000000E+00  0.70554160283E+03  0.70554160285E+03  0.50400000000E-02 0.  1.
          1   -1    0    0  501    0  0.00000000000E+00 -0.00000000000E+00 -0.64502591398E+03  0.64502591400E+03  0.50400000000E-02 0. -1.
    8880023    1    1    2    0    0 -0.24779116325E+03 -0.35131246474E+03  0.29190177456E+03  0.83895039229E+03  0.65864270000E+03 0.  0.
    8880022    1    1    2    0    0  0.24779116325E+03  0.35131246474E+03 -0.23138608571E+03  0.51161712456E+03  0.15294330000E+03 0.  0.
<mgrwt>
<rscale>  0 0.68643635E+03</rscale>
<asrwt>0</asrwt>
<pdfrwt beam="1">  1        1 0.99234756E-01 0.78653106E+03</pdfrwt>
<pdfrwt beam="2">  1       -1 0.10854486E+00 0.78653106E+03</pdfrwt>
<totfact> 0.24787757E+01</totfact>
</mgrwt>
</event>
<event>
 4    1  0.1043382E-007  0.1019394E+04  0.7818608E-02  0.9356613E-01
          1   -1    0    0  501    0  0.00000000000E+00  0.00000000000E+00  0.13265730479E+04  0.13265730479E+04  0.50400000000E-02 0. -1.
         -1   -1    0    0    0  501 -0.00000000000E+00 -0.00000000000E+00 -0.63834553444E+03  0.63834553446E+03  0.50400000000E-02 0.  1.
    8880023    1    1    2    0    0 -0.69159093703E+03  0.35644934594E+03  0.55558892389E+03  0.11609665882E+04  0.65864270000E+03 0.  1.
    8880022    1    1    2    0    0  0.69159093703E+03 -0.35644934594E+03  0.13263858958E+03  0.80395199413E+03  0.15294330000E+03 0. -1.
<mgrwt>
<rscale>  0 0.95733950E+03</rscale>
<asrwt>0</asrwt>
<pdfrwt beam="1">  1        1 0.20408816E+00 0.10193941E+04</pdfrwt>
<pdfrwt beam="2">  1       -1 0.98207005E-01 0.10193941E+04</pdfrwt>
<totfact> 0.86196668E+00</totfact>
</mgrwt>
</event>
<event>
 4    1  0.1043382E-007  0.8089112E+03  0.7818608E-02  0.9691849E-01
         -1   -1    0    0    0  501 -0.00000000000E+00  0.00000000000E+00  0.12659547441E+04  0.12659547441E+04  0.50400000000E-02 0.  1.
          1   -1    0    0  501    0  0.00000000000E+00 -0.00000000000E+00 -0.13975436797E+04  0.13975436797E+04  0.50400000000E-02 0. -1.
    8880023    1    1    2    0    0  0.19806397180E+03  0.42579081339E+03  0.10833399648E+04  0.13520217599E+04  0.65864270000E+03 0.  0.
    8880022    1    1    2    0    0 -0.19806397180E+03 -0.42579081339E+03 -0.12149289004E+04  0.13114766638E+04  0.15294330000E+03 0.  0.
<mgrwt>
<rscale>  0 0.71504159E+03</rscale>
<asrwt>0</asrwt>
<pdfrwt beam="1">  1        1 0.21500672E+00 0.80891122E+03</pdfrwt>
<pdfrwt beam="2">  1       -1 0.19476227E+00 0.80891122E+03</pdfrwt>
<totfact> 0.13102021E+00</totfact>
</mgrwt>
</event>
<event>
 4    1  0.1043382E-007  0.7597584E+03  0.7818608E-02  0.9805733E-01
         -1   -1    0    0    0  501 -0.00000000000E+00  0.00000000000E+00  0.44177177913E+03  0.44177177916E+03  0.50400000000E-02 0.  1.
          1   -1    0    0  501    0  0.00000000000E+00 -0.00000000000E+00 -0.18342853622E+04  0.18342853622E+04  0.50400000000E-02 0. -1.
    8880023    1    1    2    0    0  0.28010599952E+03 -0.25487886699E+03  0.64871642736E+02  0.76252288103E+03  0.65864270000E+03 0.  0.
    8880022    1    1    2    0    0 -0.28010599952E+03  0.25487886699E+03 -0.14573852258E+04  0.15135342603E+04  0.15294330000E+03 0.  0.
<mgrwt>
<rscale>  0 0.65055763E+03</rscale>
<asrwt>0</asrwt>
<pdfrwt beam="1">  1        1 0.28219774E+00 0.75975839E+03</pdfrwt>
<pdfrwt beam="2">  1       -1 0.67964890E-01 0.75975839E+03</pdfrwt>
<totfact> 0.88224878E+00</totfact>
</mgrwt>
</event>
<event>
 4    1  0.1043382E-007  0.6823909E+03  0.7818608E-02  0.1008002E+00
          1   -1    0    0  501    0  0.00000000000E+00  0.00000000000E+00  0.18791017843E+04  0.18791017843E+04  0.50400000000E-02 0. -1.
         -1   -1    0    0    0  501 -0.00000000000E+00 -0.00000000000E+00 -0.17922130854E+03  0.17922130862E+03  0.50400000000E-02 0.  1.
    8880023    1    1    2    0    0  0.73456171065E+02  0.16263863573E+03  0.52719640740E+03  0.86231861463E+03  0.65864270000E+03 0.  1.
    8880022    1    1    2    0    0 -0.73456171065E+02 -0.16263863573E+03  0.11726840684E+04  0.11960044783E+04  0.15294330000E+03 0.  0.
<mgrwt>
<rscale>  0 0.52276372E+03</rscale>
<asrwt>0</asrwt>
<pdfrwt beam="1">  1        1 0.28909259E+00 0.68239090E+03</pdfrwt>
<pdfrwt beam="2">  1       -1 0.27572509E-01 0.68239090E+03</pdfrwt>
<totfact> 0.44342368E+01</totfact>
</mgrwt>
</event>
<event>
 4    1  0.1043382E-007  0.8213728E+03  0.7818608E-02  0.9666357E-01
          1   -1    0    0  501    0  0.00000000000E+00  0.00000000000E+00  0.55872861201E+03  0.55872861203E+03  0.50400000000E-02 0. -1.
         -1   -1    0    0    0  501 -0.00000000000E+00 -0.00000000000E+00 -0.11166397149E+04  0.11166397149E+04  0.50400000000E-02 0.  1.
    8880023    1    1    2    0    0 -0.48894584535E+03  0.42131980086E+02 -0.76380520647E+03  0.11216290577E+04  0.65864270000E+03 0.  1.
    8880022    1    1    2    0    0  0.48894584535E+03 -0.42131980086E+02  0.20589410354E+03  0.55373926926E+03  0.15294330000E+03 0.  1.
<mgrwt>
<rscale>  0 0.73055683E+03</rscale>
<asrwt>0</asrwt>
<pdfrwt beam="1">  1        1 0.85958248E-01 0.82137284E+03</pdfrwt>
<pdfrwt beam="2">  1       -1 0.17179073E+00 0.82137284E+03</pdfrwt>
<totfact> 0.92566012E+00</totfact>
</mgrwt>
</event>
<event>
 4    1  0.1043382E-007  0.8364170E+03  0.7818608E-02  0.9636974E-01
          1   -1    0    0  501    0  0.00000000000E+00  0.00000000000E+00  0.86689642125E+03  0.86689642126E+03  0.50400000000E-02 0. -1.
         -1   -1    0    0    0  501 -0.00000000000E+00 -0.00000000000E+00 -0.96961392252E+03  0.96961392253E+03  0.50400000000E-02 0.  1.
    8880023    1    1    2    0    0 -0.96101125002E+02 -0.50650547869E+03 -0.65747882331E+03  0.10638946543E+04  0.65864270000E+03 0.  0.
    8880022    1    1    2    0    0  0.96101125002E+02  0.50650547869E+03  0.55476132203E+03  0.77261568946E+03  0.15294330000E+03 0.  0.
<mgrwt>
<rscale>  0 0.74896620E+03</rscale>
<asrwt>0</asrwt>
<pdfrwt beam="1">  1        1 0.13336868E+00 0.83641702E+03</pdfrwt>
<pdfrwt beam="2">  1       -1 0.14917137E+00 0.83641702E+03</pdfrwt>
<totfact> 0.70127344E+00</totfact>
</mgrwt>
</event>
<event>
 4    1  0.1043382E-007  0.1145186E+04  0.7818608E-02  0.9212339E-01
         -1   -1    0    0    0  501 -0.00000000000E+00  0.00000000000E+00  0.92462802532E+03  0.92462802533E+03  0.50400000000E-02 0.  1.
          1   -1    0    0  501    0  0.00000000000E+00 -0.00000000000E+00 -0.19285119847E+04  0.19285119847E+04  0.50400000000E-02 0. -1.
    8880023    1    1    2    0    0 -0.60148790131E+03 -0.71822944916E+03  0.35195250789E+03  0.11980492524E+04  0.65864270000E+03 0.  1.
    8880022    1    1    2    0    0  0.60148790131E+03  0.71822944916E+03 -0.13558364672E+04  0.16550907576E+04  0.15294330000E+03 0.  0.
<mgrwt>
<rscale>  0 0.10926968E+04</rscale>
<asrwt>0</asrwt>
<pdfrwt beam="1">  1        1 0.29669415E+00 0.11451862E+04</pdfrwt>
<pdfrwt beam="2">  1       -1 0.14225047E+00 0.11451862E+04</pdfrwt>
<totfact> 0.13256712E+00</totfact>
</mgrwt>
</event>
<event>
 4    1  0.1043382E-007  0.6589645E+03  0.7818608E-02  0.1025243E+00
          1   -1    0    0  501    0  0.00000000000E+00  0.00000000000E+00  0.73290801182E+03  0.73290801184E+03  0.50400000000E-02 0. -1.
         -1   -1    0    0    0  501 -0.00000000000E+00 -0.00000000000E+00 -0.23198573772E+03  0.23198573778E+03  0.50400000000E-02 0.  1.
    8880023    1    1    2    0    0  0.20279129559E+01 -0.20492194893E+02  0.46481142529E+03  0.80640182901E+03  0.65864270000E+03 0. -1.
    8880022    1    1    2    0    0 -0.20279129559E+01  0.20492194893E+02  0.36110848810E+02  0.15849192061E+03  0.15294330000E+03 0.  0.
<mgrwt>
<rscale>  0 0.45841037E+03</rscale>
<asrwt>0</asrwt>
<pdfrwt beam="1">  1        1 0.11275508E+00 0.65896453E+03</pdfrwt>
<pdfrwt beam="2">  1       -1 0.35690114E-01 0.65896453E+03</pdfrwt>
<totfact> 0.19383628E+02</totfact>
</mgrwt>
</event>
<event>
 4    1  0.1043382E-007  0.6986972E+03  0.7818608E-02  0.1000265E+00
         -1   -1    0    0    0  501 -0.00000000000E+00  0.00000000000E+00  0.29904065439E+03  0.29904065443E+03  0.50400000000E-02 0.  1.
          1   -1    0    0  501    0  0.00000000000E+00 -0.00000000000E+00 -0.96966156166E+03  0.96966156167E+03  0.50400000000E-02 0. -1.
    8880023    1    1    2    0    0  0.14156542963E+03 -0.18527480571E+03 -0.20881065874E+03  0.72923221402E+03  0.65864270000E+03 0.  0.
    8880022    1    1    2    0    0 -0.14156542963E+03  0.18527480571E+03 -0.46181024852E+03  0.53947000208E+03  0.15294330000E+03 0.  0.
<mgrwt>
<rscale>  0 0.55534222E+03</rscale>
<asrwt>0</asrwt>
<pdfrwt beam="1">  1        1 0.14917870E+00 0.69869717E+03</pdfrwt>
<pdfrwt beam="2">  1       -1 0.46006255E-01 0.69869717E+03</pdfrwt>
<totfact> 0.77050680E+01</totfact>
</mgrwt>
</event>
<event>
 4    1  0.1043382E-007  0.6818119E+03  0.7818608E-02  0.1008317E+00
         -1   -1    0    0    0  501 -0.00000000000E+00  0.00000000000E+00  0.28715410013E+03  0.28715410017E+03  0.50400000000E-02 0.  1.
          1   -1    0    0  501    0  0.00000000000E+00 -0.00000000000E+00 -0.19255660395E+04  0.19255660395E+04  0.50400000000E-02 0. -1.
    8880023    1    1    2    0    0 -0.39192235221E+02 -0.17181751402E+03 -0.13973173578E+03  0.69598308433E+03  0.65864270000E+03 0.  1.
    8880022    1    1    2    0    0  0.39192235221E+02  0.17181751402E+03 -0.14986802036E+04  0.15167370553E+04  0.15294330000E+03 0.  0.
<mgrwt>
<rscale>  0 0.52149137E+03</rscale>
<asrwt>0</asrwt>
<pdfrwt beam="1">  1        1 0.29624092E+00 0.68181192E+03</pdfrwt>
<pdfrwt beam="2">  1       -1 0.44177555E-01 0.68181192E+03</pdfrwt>
<totfact> 0.17843555E+01</totfact>
</mgrwt>
</event>
<event>
 4    1  0.1043382E-007  0.7706679E+03  0.7818608E-02  0.9778233E-01
          1   -1    0    0  501    0  0.00000000000E+00  0.00000000000E+00  0.30151706420E+03  0.30151706424E+03  0.50400000000E-02 0. -1.
         -1   -1    0    0    0  501 -0.00000000000E+00 -0.00000000000E+00 -0.16929052700E+04  0.16929052700E+04  0.50400000000E-02 0.  1.
    8880023    1    1    2    0    0  0.18850550927E+03  0.35296523306E+03 -0.13621431242E+04  0.15650440505E+04  0.65864270000E+03 0.  0.
    8880022    1    1    2    0    0 -0.18850550927E+03 -0.35296523306E+03 -0.29245081591E+02  0.42937828379E+03  0.15294330000E+03 0.  0.
<mgrwt>
<rscale>  0 0.66543868E+03</rscale>
<asrwt>0</asrwt>
<pdfrwt beam="1">  1        1 0.46387242E-01 0.77066789E+03</pdfrwt>
<pdfrwt beam="2">  1       -1 0.26044696E+00 0.77066789E+03</pdfrwt>
<totfact> 0.53838865E+00</totfact>
</mgrwt>
</event>
<event>
 4    1  0.1043382E-007  0.8725445E+03  0.7818608E-02  0.9571627E-01
         -1   -1    0    0    0  501 -0.00000000000E+00  0.00000000000E+00  0.24618191128E+04  0.24618191128E+04  0.50400000000E-02 0.  1.
          1   -1    0    0  501    0  0.00000000000E+00 -0.00000000000E+00 -0.60169019094E+03  0.60169019096E+03  0.50400000000E-02 0. -1.
    8880023    1    1    2    0    0 -0.32883928307E+03 -0.46838925363E+03  0.22096599004E+04  0.23756958662E+04  0.65864270000E+03 0.  1.
    8880022    1    1    2    0    0  0.32883928307E+03  0.46838925363E+03 -0.34953097849E+03  0.68781343760E+03  0.15294330000E+03 0.  0.
<mgrwt>
<rscale>  0 0.79202887E+03</rscale>
<asrwt>0</asrwt>
<pdfrwt beam="1">  1        1 0.92567722E-01 0.87254454E+03</pdfrwt>
<pdfrwt beam="2">  1       -1 0.37874140E+00 0.87254454E+03</pdfrwt>
<totfact> 0.35605285E-01</totfact>
</mgrwt>
</event>
<event>
 4    1  0.1043382E-007  0.1050850E+04  0.7818608E-02  0.9317860E-01
          1   -1    0    0  501    0  0.00000000000E+00  0.00000000000E+00  0.96549728073E+03  0.96549728075E+03  0.50400000000E-02 0. -1.
         -1   -1    0    0    0  501 -0.00000000000E+00 -0.00000000000E+00 -0.10977085671E+04  0.10977085671E+04  0.50400000000E-02 0.  1.
    8880023    1    1    2    0    0 -0.75099143025E+03  0.32632489223E+03 -0.48650400544E+03  0.11580036343E+04  0.65864270000E+03 0.  0.
    8880022    1    1    2    0    0  0.75099143025E+03 -0.32632489223E+03  0.35429271905E+03  0.90520221353E+03  0.15294330000E+03 0.  1.
<mgrwt>
<rscale>  0 0.99155136E+03</rscale>
<asrwt>0</asrwt>
<pdfrwt beam="1">  1        1 0.14853804E+00 0.10508503E+04</pdfrwt>
<pdfrwt beam="2">  1       -1 0.16887824E+00 0.10508503E+04</pdfrwt>
<totfact> 0.40282482E+00</totfact>
</mgrwt>
</event>
<event>
 4    1  0.1043382E-007  0.7387067E+03  0.7818608E-02  0.9863730E-01
         -1   -1    0    0    0  501 -0.00000000000E+00  0.00000000000E+00  0.23075725902E+03  0.23075725908E+03  0.50400000000E-02 0.  1.
          1   -1    0    0  501    0  0.00000000000E+00 -0.00000000000E+00 -0.26580156320E+04  0.26580156320E+04  0.50400000000E-02 0. -1.
    8880023    1    1    2    0    0  0.23104698047E+02 -0.33368188686E+03 -0.42340222356E+03  0.85144411318E+03  0.65864270000E+03 0.  0.
    8880022    1    1    2    0    0 -0.23104698047E+02  0.33368188686E+03 -0.20038561494E+04  0.20373287779E+04  0.15294330000E+03 0.  0.
<mgrwt>
<rscale>  0 0.62051725E+03</rscale>
<asrwt>0</asrwt>
<pdfrwt beam="1">  1        1 0.40892546E+00 0.73870673E+03</pdfrwt>
<pdfrwt beam="2">  1       -1 0.35501119E-01 0.73870673E+03</pdfrwt>
<totfact> 0.84191237E+00</totfact>
</mgrwt>
</event>
<event>
 4    1  0.1043382E-007  0.8263091E+03  0.7818608E-02  0.9656557E-01
         -1   -1    0    0    0  501 -0.00000000000E+00  0.00000000000E+00  0.39142529481E+03  0.39142529484E+03  0.50400000000E-02 0.  1.
          1   -1    0    0  501    0  0.00000000000E+00 -0.00000000000E+00 -0.15096362192E+04  0.15096362192E+04  0.50400000000E-02 0. -1.
    8880023    1    1    2    0    0 -0.49897519936E+03 -0.52475417342E+00 -0.11039908164E+04  0.13789787721E+04  0.65864270000E+03 0. -1.
    8880022    1    1    2    0    0  0.49897519936E+03  0.52475417342E+00 -0.14220107979E+02  0.52208274194E+03  0.15294330000E+03 0. -1.
<mgrwt>
<rscale>  0 0.73663347E+03</rscale>
<asrwt>0</asrwt>
<pdfrwt beam="1">  1        1 0.23225172E+00 0.82630910E+03</pdfrwt>
<pdfrwt beam="2">  1       -1 0.60219277E-01 0.82630910E+03</pdfrwt>
<totfact> 0.18465467E+01</totfact>
</mgrwt>
</event>
<event>
 4    1  0.1043382E-007  0.8640952E+03  0.7818608E-02  0.9586320E-01
         -1   -1    0    0    0  501 -0.00000000000E+00  0.00000000000E+00  0.84730052258E+03  0.84730052259E+03  0.50400000000E-02 0.  1.
          1   -1    0    0  501    0  0.00000000000E+00 -0.00000000000E+00 -0.10494456675E+04  0.10494456675E+04  0.50400000000E-02 0. -1.
    8880023    1    1    2    0    0  0.83016355924E+02  0.55313522404E+03  0.49035281853E+03  0.99353227644E+03  0.65864270000E+03 0.  0.
    8880022    1    1    2    0    0 -0.83016355924E+02 -0.55313522404E+03 -0.69249796341E+03  0.90321391363E+03  0.15294330000E+03 0.  0.
<mgrwt>
<rscale>  0 0.78208270E+03</rscale>
<asrwt>0</asrwt>
<pdfrwt beam="1">  1        1 0.16145318E+00 0.86409519E+03</pdfrwt>
<pdfrwt beam="2">  1       -1 0.13035393E+00 0.86409519E+03</pdfrwt>
<totfact> 0.71078782E+00</totfact>
</mgrwt>
</event>
<event>
 4    1  0.1191383E-007  0.7486591E+03  0.7818608E-02  0.9835406E-01
          1   -1    0    0  501    0  0.00000000000E+00  0.00000000000E+00  0.26445169378E+04  0.26445169378E+04  0.50400000000E-02 0. -1.
         -1   -1    0    0    0  501 -0.00000000000E+00 -0.00000000000E+00 -0.70940528419E+03  0.70940528421E+03  0.50400000000E-02 0.  1.
    8880023    1    1    2    0    0 -0.25954682422E+03  0.24354810620E+03 -0.49215307045E+03  0.89593810334E+03  0.65864270000E+03 0.  1.
    8880022    1    1    2    0    0  0.25954682422E+03 -0.24354810620E+03  0.24272647240E+04  0.24579841186E+04  0.15294330000E+03 0.  0.
<mgrwt>
<rscale>  0 0.63496604E+03</rscale>
<asrwt>0</asrwt>
<pdfrwt beam="1">  1        1 0.40684877E+00 0.74865909E+03</pdfrwt>
<pdfrwt beam="2">  1       -1 0.10913927E+00 0.74865909E+03</pdfrwt>
<totfact> 0.89463091E-01</totfact>
</mgrwt>
</event>
<event>
 4    1  0.1043382E-007  0.8986123E+03  0.7818608E-02  0.9528263E-01
          1   -1    0    0  501    0  0.00000000000E+00  0.00000000000E+00  0.17969206547E+04  0.17969206548E+04  0.50400000000E-02 0. -1.
         -1   -1    0    0    0  501 -0.00000000000E+00 -0.00000000000E+00 -0.52525464568E+03  0.52525464570E+03  0.50400000000E-02 0.  1.
    8880023    1    1    2    0    0  0.36136252925E+03 -0.49306292616E+03 -0.48171166219E+01  0.89862524869E+03  0.65864270000E+03 0.  0.
    8880022    1    1    2    0    0 -0.36136252925E+03  0.49306292616E+03  0.12764831257E+04  0.14235500518E+04  0.15294330000E+03 0.  0.
<mgrwt>
<rscale>  0 0.82231800E+03</rscale>
<asrwt>0</asrwt>
<pdfrwt beam="1">  1        1 0.27644933E+00 0.89861234E+03</pdfrwt>
<pdfrwt beam="2">  1       -1 0.80808408E-01 0.89861234E+03</pdfrwt>
<totfact> 0.63881494E+00</totfact>
</mgrwt>
</event>
<event>
 4    1  0.1043382E-007  0.1051985E+04  0.7818608E-02  0.9316499E-01
          1   -1    0    0  501    0  0.00000000000E+00  0.00000000000E+00  0.10415477407E+04  0.10415477407E+04  0.50400000000E-02 0. -1.
         -1   -1    0    0    0  501 -0.00000000000E+00 -0.00000000000E+00 -0.13678629946E+04  0.13678629946E+04  0.50400000000E-02 0.  1.
    8880023    1    1    2    0    0 -0.46219111016E+03  0.67767365928E+03 -0.91011926843E+03  0.13910390001E+04  0.65864270000E+03 0. -1.
    8880022    1    1    2    0    0  0.46219111016E+03 -0.67767365928E+03  0.58380401450E+03  0.10183717353E+04  0.15294330000E+03 0.  0.
<mgrwt>
<rscale>  0 0.99278021E+03</rscale>
<asrwt>0</asrwt>
<pdfrwt beam="1">  1        1 0.16023811E+00 0.10519850E+04</pdfrwt>
<pdfrwt beam="2">  1       -1 0.21044046E+00 0.10519850E+04</pdfrwt>
<totfact> 0.17903491E+00</totfact>
</mgrwt>
</event>
<event>
 4    1  0.1043382E-007  0.6823990E+03  0.7818608E-02  0.1007998E+00
          1   -1    0    0  501    0  0.00000000000E+00  0.00000000000E+00  0.46340402917E+04  0.46340402917E+04  0.50400000000E-02 0. -1.
         -1   -1    0    0    0  501 -0.00000000000E+00 -0.00000000000E+00 -0.80683750228E+02  0.80683750386E+02  0.50400000000E-02 0.  1.
    8880023    1    1    2    0    0  0.17840657632E+03 -0.54148592736E+01  0.14507801847E+04  0.16032565539E+04  0.65864270000E+03 0.  1.
    8880022    1    1    2    0    0 -0.17840657632E+03  0.54148592736E+01  0.31025763568E+04  0.31114674882E+04  0.15294330000E+03 0.  0.
<mgrwt>
<rscale>  0 0.52278151E+03</rscale>
<asrwt>0</asrwt>
<pdfrwt beam="1">  1        1 0.71292940E+00 0.68239903E+03</pdfrwt>
<pdfrwt beam="2">  1       -1 0.12412883E-01 0.68239903E+03</pdfrwt>
<totfact> 0.11962248E+00</totfact>
</mgrwt>
</event>
<event>
 4    1  0.1043382E-007  0.6659509E+03  0.7818608E-02  0.1018749E+00
          1   -1    0    0  501    0  0.00000000000E+00  0.00000000000E+00  0.12342377415E+04  0.12342377415E+04  0.50400000000E-02 0. -1.
         -1   -1    0    0    0  501 -0.00000000000E+00 -0.00000000000E+00 -0.23334029152E+03  0.23334029158E+03  0.50400000000E-02 0.  1.
    8880023    1    1    2    0    0 -0.57609631683E+02  0.79759326964E+02  0.27712895554E+03  0.72131205741E+03  0.65864270000E+03 0.  1.
    8880022    1    1    2    0    0  0.57609631683E+02 -0.79759326964E+02  0.72376849439E+03  0.74626597563E+03  0.15294330000E+03 0.  0.
<mgrwt>
<rscale>  0 0.48140915E+03</rscale>
<asrwt>0</asrwt>
<pdfrwt beam="1">  1        1 0.18988273E+00 0.66595092E+03</pdfrwt>
<pdfrwt beam="2">  1       -1 0.35898507E-01 0.66595092E+03</pdfrwt>
<totfact> 0.77115274E+01</totfact>
</mgrwt>
</event>
<event>
 4    1  0.1043382E-007  0.7575603E+03  0.7818608E-02  0.9811465E-01
         -1   -1    0    0    0  501 -0.00000000000E+00  0.00000000000E+00  0.57491162457E+03  0.57491162459E+03  0.50400000000E-02 0.  1.
          1   -1    0    0  501    0  0.00000000000E+00 -0.00000000000E+00 -0.99245245421E+03  0.99245245423E+03  0.50400000000E-02 0. -1.
    8880023    1    1    2    0    0 -0.28775389925E+03  0.23934299758E+03  0.24068417819E+03  0.79487512033E+03  0.65864270000E+03 0.  1.
    8880022    1    1    2    0    0  0.28775389925E+03 -0.23934299758E+03 -0.65822500784E+03  0.77248895849E+03  0.15294330000E+03 0.  0.
<mgrwt>
<rscale>  0 0.64750877E+03</rscale>
<asrwt>0</asrwt>
<pdfrwt beam="1">  1        1 0.15268499E+00 0.75756028E+03</pdfrwt>
<pdfrwt beam="2">  1       -1 0.88447942E-01 0.75756028E+03</pdfrwt>
<totfact> 0.19795111E+01</totfact>
</mgrwt>
</event>
<event>
 4    1  0.1043382E-007  0.7446287E+03  0.7818608E-02  0.9846664E-01
         -1   -1    0    0    0  501 -0.00000000000E+00  0.00000000000E+00  0.19809579963E+03  0.19809579969E+03  0.50400000000E-02 0.  1.
          1   -1    0    0  501    0  0.00000000000E+00 -0.00000000000E+00 -0.24420187961E+04  0.24420187961E+04  0.50400000000E-02 0. -1.
    8880023    1    1    2    0    0  0.22774782604E+03  0.26228342169E+03 -0.60969847863E+03  0.96239498475E+03  0.65864270000E+03 0.  1.
    8880022    1    1    2    0    0 -0.22774782604E+03 -0.26228342169E+03 -0.16342245178E+04  0.16777196110E+04  0.15294330000E+03 0.  0.
<mgrwt>
<rscale>  0 0.62917322E+03</rscale>
<asrwt>0</asrwt>
<pdfrwt beam="1">  1        1 0.37569518E+00 0.74462868E+03</pdfrwt>
<pdfrwt beam="2">  1       -1 0.30476279E-01 0.74462868E+03</pdfrwt>
<totfact> 0.15483328E+01</totfact>
</mgrwt>
</event>
<event>
 4    1  0.1043382E-007  0.7780407E+03  0.7818608E-02  0.9760460E-01
         -1   -1    0    0    0  501 -0.00000000000E+00  0.00000000000E+00  0.40960735104E+03  0.40960735107E+03  0.50400000000E-02 0.  1.
          1   -1    0    0  501    0  0.00000000000E+00 -0.00000000000E+00 -0.20947328095E+04  0.20947328095E+04  0.50400000000E-02 0. -1.
    8880023    1    1    2    0    0  0.17307451852E+03  0.37627431884E+03 -0.16418489101E+02  0.77821393269E+03  0.65864270000E+03 0.  1.
    8880022    1    1    2    0    0 -0.17307451852E+03 -0.37627431884E+03 -0.16687069693E+04  0.17261262279E+04  0.15294330000E+03 0.  0.
<mgrwt>
<rscale>  0 0.67528367E+03</rscale>
<asrwt>0</asrwt>
<pdfrwt beam="1">  1        1 0.32226658E+00 0.77804072E+03</pdfrwt>
<pdfrwt beam="2">  1       -1 0.63016517E-01 0.77804072E+03</pdfrwt>
<totfact> 0.68574735E+00</totfact>
</mgrwt>
</event>
<event>
 4    1  0.1043382E-007  0.6642664E+03  0.7818608E-02  0.1020157E+00
          1   -1    0    0  501    0  0.00000000000E+00  0.00000000000E+00  0.75828308425E+03  0.75828308427E+03  0.50400000000E-02 0. -1.
         -1   -1    0    0    0  501 -0.00000000000E+00 -0.00000000000E+00 -0.84834248593E+03  0.84834248595E+03  0.50400000000E-02 0.  1.
    8880023    1    1    2    0    0  0.70456820085E+02 -0.49754206513E+02 -0.70408929340E+03  0.96798325600E+03  0.65864270000E+03 0.  1.
    8880022    1    1    2    0    0 -0.70456820085E+02  0.49754206513E+02  0.61402989172E+03  0.63864231421E+03  0.15294330000E+03 0.  0.
<mgrwt>
<rscale>  0 0.47630012E+03</rscale>
<asrwt>0</asrwt>
<pdfrwt beam="1">  1        1 0.11665894E+00 0.66426640E+03</pdfrwt>
<pdfrwt beam="2">  1       -1 0.13051423E+00 0.66426640E+03</pdfrwt>
<totfact> 0.12591296E+01</totfact>
</mgrwt>
</event>
<event>
 4    1  0.1043382E-007  0.1017279E+04  0.7818608E-02  0.9359292E-01
          1   -1    0    0  501    0  0.00000000000E+00  0.00000000000E+00  0.36506310657E+04  0.36506310657E+04  0.50400000000E-02 0. -1.
         -1   -1    0    0    0  501 -0.00000000000E+00 -0.00000000000E+00 -0.61389761452E+03  0.61389761454E+03  0.50400000000E-02 0.  1.
    8880023    1    1    2    0    0  0.22339493980E+03  0.74238909364E+03  0.32828666486E+04  0.34368692882E+04  0.65864270000E+03 0.  0.
    8880022    1    1    2    0    0 -0.22339493980E+03 -0.74238909364E+03 -0.24613319734E+03  0.82765939210E+03  0.15294330000E+03 0.  0.
<mgrwt>
<rscale>  0 0.95502854E+03</rscale>
<asrwt>0</asrwt>
<pdfrwt beam="1">  1        1 0.56163555E+00 0.10172792E+04</pdfrwt>
<pdfrwt beam="2">  1       -1 0.94445787E-01 0.10172792E+04</pdfrwt>
<totfact> 0.21366708E-01</totfact>
</mgrwt>
</event>
<event>
 4    1  0.1043382E-007  0.7351206E+03  0.7818608E-02  0.9874395E-01
         -1   -1    0    0    0  501 -0.00000000000E+00  0.00000000000E+00  0.11828100636E+04  0.11828100636E+04  0.50400000000E-02 0.  1.
          1   -1    0    0  501    0  0.00000000000E+00 -0.00000000000E+00 -0.89787967268E+03  0.89787967270E+03  0.50400000000E-02 0. -1.
    8880023    1    1    2    0    0 -0.28669609140E+03 -0.15619661086E+03  0.10227283783E+04  0.12595140222E+04  0.65864270000E+03 0.  1.
    8880022    1    1    2    0    0  0.28669609140E+03  0.15619661086E+03 -0.73779798745E+03  0.82117571406E+03  0.15294330000E+03 0.  0.
<mgrwt>
<rscale>  0 0.61518400E+03</rscale>
<asrwt>0</asrwt>
<pdfrwt beam="1">  1        1 0.13813533E+00 0.73512056E+03</pdfrwt>
<pdfrwt beam="2">  1       -1 0.18197078E+00 0.73512056E+03</pdfrwt>
<totfact> 0.38300261E+00</totfact>
</mgrwt>
</event>
<event>
 4    1  0.1043382E-007  0.6679522E+03  0.7818608E-02  0.1017175E+00
          1   -1    0    0  501    0  0.00000000000E+00  0.00000000000E+00  0.29856753313E+04  0.29856753314E+04  0.50400000000E-02 0. -1.
         -1   -1    0    0    0  501 -0.00000000000E+00 -0.00000000000E+00 -0.10385445790E+03  0.10385445802E+03  0.50400000000E-02 0.  1.
    8880023    1    1    2    0    0  0.97373993749E+02  0.53556336272E+02  0.10270562568E+04  0.12251549847E+04  0.65864270000E+03 0.  1.
    8880022    1    1    2    0    0 -0.97373993749E+02 -0.53556336272E+02  0.18547646167E+04  0.18643748046E+04  0.15294330000E+03 0.  0.
<mgrwt>
<rscale>  0 0.48719839E+03</rscale>
<asrwt>0</asrwt>
<pdfrwt beam="1">  1        1 0.45933467E+00 0.66795223E+03</pdfrwt>
<pdfrwt beam="2">  1       -1 0.15977609E-01 0.66795223E+03</pdfrwt>
<totfact> 0.19478128E+01</totfact>
</mgrwt>
</event>
<event>
 4    1  0.1043382E-007  0.7579301E+03  0.7818608E-02  0.9810496E-01
          1   -1    0    0  501    0  0.00000000000E+00  0.00000000000E+00  0.33045298654E+03  0.33045298658E+03  0.50400000000E-02 0. -1.
         -1   -1    0    0    0  501 -0.00000000000E+00 -0.00000000000E+00 -0.11878294548E+04  0.11878294549E+04  0.50400000000E-02 0.  1.
    8880023    1    1    2    0    0 -0.30007448532E+03  0.22495153132E+03 -0.81194202731E+03  0.11107240657E+04  0.65864270000E+03 0.  0.
    8880022    1    1    2    0    0  0.30007448532E+03 -0.22495153132E+03 -0.45434440996E+02  0.40755837572E+03  0.15294330000E+03 0.  0.
<mgrwt>
<rscale>  0 0.64802305E+03</rscale>
<asrwt>0</asrwt>
<pdfrwt beam="1">  1        1 0.50838921E-01 0.75793014E+03</pdfrwt>
<pdfrwt beam="2">  1       -1 0.18274299E+00 0.75793014E+03</pdfrwt>
<totfact> 0.15775588E+01</totfact>
</mgrwt>
</event>
<event>
 4    1  0.1043382E-007  0.1072715E+04  0.7818608E-02  0.9292061E-01
          1   -1    0    0  501    0  0.00000000000E+00  0.00000000000E+00  0.81725043096E+03  0.81725043098E+03  0.50400000000E-02 0. -1.
         -1   -1    0    0    0  501 -0.00000000000E+00 -0.00000000000E+00 -0.18260549689E+04  0.18260549689E+04  0.50400000000E-02 0.  1.
    8880023    1    1    2    0    0 -0.58580370227E+03  0.61134355565E+03 -0.13442655733E+04  0.17198159955E+04  0.65864270000E+03 0.  1.
    8880022    1    1    2    0    0  0.58580370227E+03 -0.61134355565E+03  0.33546103539E+03  0.92348940433E+03  0.15294330000E+03 0.  0.
<mgrwt>
<rscale>  0 0.10151707E+04</rscale>
<asrwt>0</asrwt>
<pdfrwt beam="1">  1        1 0.12573084E+00 0.10727148E+04</pdfrwt>
<pdfrwt beam="2">  1       -1 0.28093153E+00 0.10727148E+04</pdfrwt>
<totfact> 0.93875904E-01</totfact>
</mgrwt>
</event>
<event>
 4    1  0.1043382E-007  0.7474419E+03  0.7818608E-02  0.9838777E-01
         -1   -1    0    0    0  501 -0.00000000000E+00  0.00000000000E+00  0.14390553622E+04  0.14390553623E+04  0.50400000000E-02 0.  1.
          1   -1    0    0  501    0  0.00000000000E+00 -0.00000000000E+00 -0.86892661409E+03  0.86892661411E+03  0.50400000000E-02 0. -1.
    8880023    1    1    2    0    0 -0.28670789651E+03  0.20653758167E+03  0.12904081627E+04  0.14912486792E+04  0.65864270000E+03 0.  1.
    8880022    1    1    2    0    0  0.28670789651E+03 -0.20653758167E+03 -0.72027941459E+03  0.81673329714E+03  0.15294330000E+03 0.  0.
<mgrwt>
<rscale>  0 0.63322453E+03</rscale>
<asrwt>0</asrwt>
<pdfrwt beam="1">  1        1 0.13368102E+00 0.74744190E+03</pdfrwt>
<pdfrwt beam="2">  1       -1 0.22139313E+00 0.74744190E+03</pdfrwt>
<totfact> 0.21715695E+00</totfact>
</mgrwt>
</event>
<event>
 4    1  0.1043382E-007  0.7283078E+03  0.7818608E-02  0.9895417E-01
         -1   -1    0    0    0  501 -0.00000000000E+00  0.00000000000E+00  0.12558149963E+04  0.12558149963E+04  0.50400000000E-02 0.  1.
          1   -1    0    0  501    0  0.00000000000E+00 -0.00000000000E+00 -0.59748195715E+03  0.59748195717E+03  0.50400000000E-02 0. -1.
    8880023    1    1    2    0    0  0.22332523177E+03 -0.21621245023E+03  0.10830849614E+04  0.13051839804E+04  0.65864270000E+03 0.  0.
    8880022    1    1    2    0    0 -0.22332523177E+03  0.21621245023E+03 -0.42475192226E+03  0.54811297308E+03  0.15294330000E+03 0.  0.
<mgrwt>
<rscale>  0 0.60483933E+03</rscale>
<asrwt>0</asrwt>
<pdfrwt beam="1">  1        1 0.91920301E-01 0.72830776E+03</pdfrwt>
<pdfrwt beam="2">  1       -1 0.19320231E+00 0.72830776E+03</pdfrwt>
<totfact> 0.60008423E+00</totfact>
</mgrwt>
</event>
<event>
 4    1  0.1043382E-007  0.8667935E+03  0.7818608E-02  0.9581591E-01
          1   -1    0    0  501    0  0.00000000000E+00  0.00000000000E+00  0.18309479461E+04  0.18309479461E+04  0.50400000000E-02 0. -1.
         -1   -1    0    0    0  501 -0.00000000000E+00 -0.00000000000E+00 -0.31478561765E+03  0.31478561769E+03  0.50400000000E-02 0.  1.
    8880023    1    1    2    0    0 -0.53331299853E+03 -0.18192875290E+03  0.58181337778E+03  0.10439529867E+04  0.65864270000E+03 0. -1.
    8880022    1    1    2    0    0  0.53331299853E+03  0.18192875290E+03  0.93434895070E+03  0.11017805772E+04  0.15294330000E+03 0.  1.
<mgrwt>
<rscale>  0 0.78526657E+03</rscale>
<asrwt>0</asrwt>
<pdfrwt beam="1">  1        1 0.28168429E+00 0.86679353E+03</pdfrwt>
<pdfrwt beam="2">  1       -1 0.48428558E-01 0.86679353E+03</pdfrwt>
<totfact> 0.16951320E+01</totfact>
</mgrwt>
</event>
<event>
 4    1  0.1126937E-007  0.6597566E+03  0.7818608E-02  0.1024407E+00
          1   -1    0    0  501    0  0.00000000000E+00  0.00000000000E+00  0.20941858978E+04  0.20941858978E+04  0.50400000000E-02 0. -1.
         -1   -1    0    0    0  501 -0.00000000000E+00 -0.00000000000E+00 -0.58108282120E+03  0.58108282122E+03  0.50400000000E-02 0.  1.
    8880023    1    1    2    0    0 -0.33023804586E+02  0.19443045650E+02 -0.38949434287E+03  0.76614923683E+03  0.65864270000E+03 0.  1.
    8880022    1    1    2    0    0  0.33023804586E+02 -0.19443045650E+02  0.19025974195E+04  0.19091194822E+04  0.15294330000E+03 0.  0.
<mgrwt>
<rscale>  0 0.46129211E+03</rscale>
<asrwt>0</asrwt>
<pdfrwt beam="1">  1        1 0.32218245E+00 0.65975663E+03</pdfrwt>
<pdfrwt beam="2">  1       -1 0.89397356E-01 0.65975663E+03</pdfrwt>
<totfact> 0.33825321E+00</totfact>
</mgrwt>
</event>
<event>
 4    1  0.1043382E-007  0.8381316E+03  0.7818608E-02  0.9633713E-01
          1   -1    0    0  501    0  0.00000000000E+00  0.00000000000E+00  0.10354222841E+04  0.10354222841E+04  0.50400000000E-02 0. -1.
         -1   -1    0    0    0  501 -0.00000000000E+00 -0.00000000000E+00 -0.79810503789E+03  0.79810503791E+03  0.50400000000E-02 0.  1.
    8880023    1    1    2    0    0  0.32086180431E+03  0.40706520713E+03 -0.45625640091E+03  0.95427170657E+03  0.65864270000E+03 0.  0.
    8880022    1    1    2    0    0 -0.32086180431E+03 -0.40706520713E+03  0.69357364709E+03  0.87925561543E+03  0.15294330000E+03 0.  0.
<mgrwt>
<rscale>  0 0.75104434E+03</rscale>
<asrwt>0</asrwt>
<pdfrwt beam="1">  1        1 0.15929574E+00 0.83813160E+03</pdfrwt>
<pdfrwt beam="2">  1       -1 0.12278539E+00 0.83813160E+03</pdfrwt>
<totfact> 0.84871896E+00</totfact>
</mgrwt>
</event>
<event>
 4    1  0.1043382E-007  0.7550732E+03  0.7818608E-02  0.9818034E-01
         -1   -1    0    0    0  501 -0.00000000000E+00  0.00000000000E+00  0.38284119308E+03  0.38284119311E+03  0.50400000000E-02 0.  1.
          1   -1    0    0  501    0  0.00000000000E+00 -0.00000000000E+00 -0.91342386456E+03  0.91342386458E+03  0.50400000000E-02 0. -1.
    8880023    1    1    2    0    0 -0.36023489392E+03 -0.80969613116E+02 -0.47680639399E+03  0.89301724544E+03  0.65864270000E+03 0. -1.
    8880022    1    1    2    0    0  0.36023489392E+03  0.80969613116E+02 -0.53776277493E+02  0.40324781225E+03  0.15294330000E+03 0. -1.
<mgrwt>
<rscale>  0 0.64403673E+03</rscale>
<asrwt>0</asrwt>
<pdfrwt beam="1">  1        1 0.14052675E+00 0.75507315E+03</pdfrwt>
<pdfrwt beam="2">  1       -1 0.58898645E-01 0.75507315E+03</pdfrwt>
<totfact> 0.53012391E+01</totfact>
</mgrwt>
</event>
<event>
 4    1  0.1043382E-007  0.9234073E+03  0.7818608E-02  0.9489454E-01
         -1   -1    0    0    0  501 -0.00000000000E+00  0.00000000000E+00  0.43202826712E+03  0.43202826715E+03  0.50400000000E-02 0.  1.
          1   -1    0    0  501    0  0.00000000000E+00 -0.00000000000E+00 -0.16324364346E+04  0.16324364346E+04  0.50400000000E-02 0. -1.
    8880023    1    1    2    0    0  0.64130760016E+03  0.87151525297E+02 -0.35607838291E+03  0.98968320559E+03  0.65864270000E+03 0.  0.
    8880022    1    1    2    0    0 -0.64130760016E+03 -0.87151525297E+02 -0.84432978461E+03  0.10747814962E+04  0.15294330000E+03 0.  0.
<mgrwt>
<rscale>  0 0.85065799E+03</rscale>
<asrwt>0</asrwt>
<pdfrwt beam="1">  1        1 0.25114406E+00 0.92340730E+03</pdfrwt>
<pdfrwt beam="2">  1       -1 0.66465888E-01 0.92340730E+03</pdfrwt>
<totfact> 0.12351779E+01</totfact>
</mgrwt>
</event>
<event>
 4    1  0.1043382E-007  0.1123186E+04  0.7818608E-02  0.9235670E-01
         -1   -1    0    0    0  501 -0.00000000000E+00  0.00000000000E+00  0.92447771425E+03  0.92447771426E+03  0.50400000000E-02 0.  1.
          1   -1    0    0  501    0  0.00000000000E+00 -0.00000000000E+00 -0.25274239528E+04  0.25274239528E+04  0.50400000000E-02 0. -1.
    8880023    1    1    2    0    0  0.81037315924E+03  0.41356098000E+03  0.44313879500E+03  0.12074433897E+04  0.65864270000E+03 0.  0.
    8880022    1    1    2    0    0 -0.81037315924E+03 -0.41356098000E+03 -0.20460850335E+04  0.22444582774E+04  0.15294330000E+03 0.  0.
<mgrwt>
<rscale>  0 0.10692722E+04</rscale>
<asrwt>0</asrwt>
<pdfrwt beam="1">  1        1 0.38883445E+00 0.11231863E+04</pdfrwt>
<pdfrwt beam="2">  1       -1 0.14222734E+00 0.11231863E+04</pdfrwt>
<totfact> 0.52073949E-01</totfact>
</mgrwt>
</event>
<event>
 4    1  0.1043382E-007  0.7598582E+03  0.7818608E-02  0.9805475E-01
         -1   -1    0    0    0  501 -0.00000000000E+00  0.00000000000E+00  0.70370847752E+03  0.70370847754E+03  0.50400000000E-02 0.  1.
          1   -1    0    0  501    0  0.00000000000E+00 -0.00000000000E+00 -0.11232968278E+04  0.11232968278E+04  0.50400000000E-02 0. -1.
    8880023    1    1    2    0    0  0.25630243494E+03 -0.27907581007E+03  0.43799199630E+03  0.87705270139E+03  0.65864270000E+03 0.  1.
    8880022    1    1    2    0    0 -0.25630243494E+03  0.27907581007E+03 -0.85758034660E+03  0.94995260398E+03  0.15294330000E+03 0.  0.
<mgrwt>
<rscale>  0 0.65069561E+03</rscale>
<asrwt>0</asrwt>
<pdfrwt beam="1">  1        1 0.17281490E+00 0.75985818E+03</pdfrwt>
<pdfrwt beam="2">  1       -1 0.10826284E+00 0.75985818E+03</pdfrwt>
<totfact> 0.99627421E+00</totfact>
</mgrwt>
</event>
<event>
 4    1  0.1043382E-007  0.1473742E+04  0.7818608E-02  0.8928404E-01
         -1   -1    0    0    0  501 -0.00000000000E+00  0.00000000000E+00  0.12348665170E+04  0.12348665170E+04  0.50400000000E-02 0.  1.
          1   -1    0    0  501    0  0.00000000000E+00 -0.00000000000E+00 -0.16765860170E+04  0.16765860170E+04  0.50400000000E-02 0. -1.
    8880023    1    1    2    0    0  0.74214160711E+03 -0.10896469066E+04  0.10181333851E+03  0.14772544494E+04  0.65864270000E+03 0.  0.
    8880022    1    1    2    0    0 -0.74214160711E+03  0.10896469066E+04 -0.54353283854E+03  0.14341980846E+04  0.15294330000E+03 0.  0.
<mgrwt>
<rscale>  0 0.14356589E+04</rscale>
<asrwt>0</asrwt>
<pdfrwt beam="1">  1        1 0.25793631E+00 0.14737418E+04</pdfrwt>
<pdfrwt beam="2">  1       -1 0.18997946E+00 0.14737418E+04</pdfrwt>
<totfact> 0.83023717E-01</totfact>
</mgrwt>
</event>
<event>
 4    1  0.1043382E-007  0.6610098E+03  0.7818608E-02  0.1023145E+00
          1   -1    0    0  501    0  0.00000000000E+00  0.00000000000E+00  0.76417382977E+03  0.76417382979E+03  0.50400000000E-02 0. -1.
         -1   -1    0    0    0  501 -0.00000000000E+00 -0.00000000000E+00 -0.53447245232E+03  0.53447245234E+03  0.50400000000E-02 0.  1.
    8880023    1    1    2    0    0  0.54451494645E+02 -0.12598779222E+02 -0.31348459109E+03  0.73157808170E+03  0.65864270000E+03 0.  1.
    8880022    1    1    2    0    0 -0.54451494645E+02  0.12598779222E+02  0.54318596854E+03  0.56706820044E+03  0.15294330000E+03 0.  0.
<mgrwt>
<rscale>  0 0.46568588E+03</rscale>
<asrwt>0</asrwt>
<pdfrwt beam="1">  1        1 0.11756520E+00 0.66100976E+03</pdfrwt>
<pdfrwt beam="2">  1       -1 0.82226532E-01 0.66100976E+03</pdfrwt>
<totfact> 0.36176658E+01</totfact>
</mgrwt>
</event>
<event>
 4    1  0.1043382E-007  0.7294529E+03  0.7818608E-02  0.9891809E-01
         -1   -1    0    0    0  501 -0.00000000000E+00  0.00000000000E+00  0.86869945147E+03  0.86869945149E+03  0.50400000000E-02 0.  1.
          1   -1    0    0  501    0  0.00000000000E+00 -0.00000000000E+00 -0.47556140336E+03  0.47556140339E+03  0.50400000000E-02 0. -1.
    8880023    1    1    2    0    0 -0.31146148346E+03 -0.35819183211E+02  0.59490328419E+03  0.94128178213E+03  0.65864270000E+03 0.  0.
    8880022    1    1    2    0    0  0.31146148346E+03  0.35819183211E+02 -0.20176523608E+03  0.40297907274E+03  0.15294330000E+03 0.  0.
<mgrwt>
<rscale>  0 0.60659891E+03</rscale>
<asrwt>0</asrwt>
<pdfrwt beam="1">  1        1 0.73163293E-01 0.72945286E+03</pdfrwt>
<pdfrwt beam="2">  1       -1 0.13364607E+00 0.72945286E+03</pdfrwt>
<totfact> 0.23061567E+01</totfact>
</mgrwt>
</event>
<event>
 4    1  0.1043382E-007  0.7938312E+03  0.7818608E-02  0.9724296E-01
         -1   -1    0    0    0  501 -0.00000000000E+00  0.00000000000E+00  0.54731051435E+03  0.54731051437E+03  0.50400000000E-02 0.  1.
          1   -1    0    0  501    0  0.00000000000E+00 -0.00000000000E+00 -0.12795552527E+04  0.12795552527E+04  0.50400000000E-02 0. -1.
    8880023    1    1    2    0    0  0.35241367243E+03  0.26863061051E+03  0.16842895117E+03  0.81150250725E+03  0.65864270000E+03 0.  0.
    8880022    1    1    2    0    0 -0.35241367243E+03 -0.26863061051E+03 -0.90067368954E+03  0.10153632599E+04  0.15294330000E+03 0.  0.
<mgrwt>
<rscale>  0 0.69588441E+03</rscale>
<asrwt>0</asrwt>
<pdfrwt beam="1">  1        1 0.19685465E+00 0.79383122E+03</pdfrwt>
<pdfrwt beam="2">  1       -1 0.84201618E-01 0.79383122E+03</pdfrwt>
<totfact> 0.13441381E+01</totfact>
</mgrwt>
</event>
<event>
 4    1  0.1043382E-007  0.7457840E+03  0.7818608E-02  0.9843408E-01
          1   -1    0    0  501    0  0.00000000000E+00  0.00000000000E+00  0.18406726280E+04  0.18406726280E+04  0.50400000000E-02 0. -1.
         -1   -1    0    0    0  501 -0.00000000000E+00 -0.00000000000E+00 -0.28903720415E+03  0.28903720419E+03  0.50400000000E-02 0.  1.
    8880023    1    1    2    0    0  0.10431955473E+03  0.33391772236E+03  0.27120213217E+03  0.79356437518E+03  0.65864270000E+03 0.  0.
    8880022    1    1    2    0    0 -0.10431955473E+03 -0.33391772236E+03  0.12804332916E+04  0.13361454570E+04  0.15294330000E+03 0. -1.
<mgrwt>
<rscale>  0 0.63084155E+03</rscale>
<asrwt>0</asrwt>
<pdfrwt beam="1">  1        1 0.28318041E+00 0.74578403E+03</pdfrwt>
<pdfrwt beam="2">  1       -1 0.44467262E-01 0.74578403E+03</pdfrwt>
<totfact> 0.19898477E+01</totfact>
</mgrwt>
</event>
<event>
 4    1  0.1043382E-007  0.7598294E+03  0.7818608E-02  0.9805549E-01
          1   -1    0    0  501    0  0.00000000000E+00  0.00000000000E+00  0.20839147950E+04  0.20839147950E+04  0.50400000000E-02 0. -1.
         -1   -1    0    0    0  501 -0.00000000000E+00 -0.00000000000E+00 -0.41865495025E+03  0.41865495028E+03  0.50400000000E-02 0.  1.
    8880023    1    1    2    0    0  0.26670467534E+03 -0.26907089628E+03 -0.28368446996E+02  0.76035880091E+03  0.65864270000E+03 0.  1.
    8880022    1    1    2    0    0 -0.26670467534E+03  0.26907089628E+03  0.16936282918E+04  0.17422109444E+04  0.15294330000E+03 0.  0.
<mgrwt>
<rscale>  0 0.65065584E+03</rscale>
<asrwt>0</asrwt>
<pdfrwt beam="1">  1        1 0.32060228E+00 0.75982941E+03</pdfrwt>
<pdfrwt beam="2">  1       -1 0.64408453E-01 0.75982941E+03</pdfrwt>
<totfact> 0.66945768E+00</totfact>
</mgrwt>
</event>
<event>
 4    1  0.1043382E-007  0.1045625E+04  0.7818608E-02  0.9324159E-01
         -1   -1    0    0    0  501 -0.00000000000E+00  0.00000000000E+00  0.13243362845E+04  0.13243362845E+04  0.50400000000E-02 0.  1.
          1   -1    0    0  501    0  0.00000000000E+00 -0.00000000000E+00 -0.75206484725E+03  0.75206484726E+03  0.50400000000E-02 0. -1.
    8880023    1    1    2    0    0  0.76262585861E+03  0.27914765426E+03  0.67362136026E+03  0.12438237642E+04  0.65864270000E+03 0.  0.
    8880022    1    1    2    0    0 -0.76262585861E+03 -0.27914765426E+03 -0.10134992301E+03  0.83257736758E+03  0.15294330000E+03 0.  0.
<mgrwt>
<rscale>  0 0.98588825E+03</rscale>
<asrwt>0</asrwt>
<pdfrwt beam="1">  1        1 0.11570229E+00 0.10456251E+04</pdfrwt>
<pdfrwt beam="2">  1       -1 0.20374404E+00 0.10456251E+04</pdfrwt>
<totfact> 0.34555785E+00</totfact>
</mgrwt>
</event>
<event>
 4    1  0.1043382E-007  0.7026267E+03  0.7818608E-02  0.9986474E-01
          1   -1    0    0  501    0  0.00000000000E+00  0.00000000000E+00  0.12143632742E+04  0.12143632742E+04  0.50400000000E-02 0. -1.
         -1   -1    0    0    0  501 -0.00000000000E+00 -0.00000000000E+00 -0.90065304099E+03  0.90065304101E+03  0.50400000000E-02 0.  1.
    8880023    1    1    2    0    0 -0.88511457942E+02  0.22812243740E+03 -0.74122849247E+03  0.10213246345E+04  0.65864270000E+03 0.  1.
    8880022    1    1    2    0    0  0.88511457942E+02 -0.22812243740E+03  0.10549387256E+04  0.10936916807E+04  0.15294330000E+03 0.  0.
<mgrwt>
<rscale>  0 0.56247318E+03</rscale>
<asrwt>0</asrwt>
<pdfrwt beam="1">  1        1 0.18682512E+00 0.70262674E+03</pdfrwt>
<pdfrwt beam="2">  1       -1 0.13856201E+00 0.70262674E+03</pdfrwt>
<totfact> 0.47030822E+00</totfact>
</mgrwt>
</event>
<event>
 4    1  0.1043382E-007  0.7668270E+03  0.7818608E-02  0.9787743E-01
         -1   -1    0    0    0  501 -0.00000000000E+00  0.00000000000E+00  0.47885174331E+03  0.47885174333E+03  0.50400000000E-02 0.  1.
          1   -1    0    0  501    0  0.00000000000E+00 -0.00000000000E+00 -0.17565807605E+04  0.17565807605E+04  0.50400000000E-02 0. -1.
    8880023    1    1    2    0    0  0.12004875283E+02  0.39251661458E+03  0.11945338240E+03  0.77607520678E+03  0.65864270000E+03 0.  1.
    8880022    1    1    2    0    0 -0.12004875283E+02 -0.39251661458E+03 -0.13971823996E+04  0.14593572971E+04  0.15294330000E+03 0.  0.
<mgrwt>
<rscale>  0 0.66024475E+03</rscale>
<asrwt>0</asrwt>
<pdfrwt beam="1">  1        1 0.27024319E+00 0.76682698E+03</pdfrwt>
<pdfrwt beam="2">  1       -1 0.73669500E-01 0.76682698E+03</pdfrwt>
<totfact> 0.84208489E+00</totfact>
</mgrwt>
</event>
<event>
 4    1  0.1043382E-007  0.6776485E+03  0.7818608E-02  0.1010686E+00
         -1   -1    0    0    0  501 -0.00000000000E+00  0.00000000000E+00  0.13563256921E+04  0.13563256921E+04  0.50400000000E-02 0.  1.
          1   -1    0    0  501    0  0.00000000000E+00 -0.00000000000E+00 -0.17806836365E+03  0.17806836372E+03  0.50400000000E-02 0. -1.
    8880023    1    1    2    0    0  0.99342170238E+02 -0.12461302244E+03  0.11147571341E+04  0.13045654244E+04  0.65864270000E+03 0.  1.
    8880022    1    1    2    0    0 -0.99342170238E+02  0.12461302244E+03  0.63500194355E+02  0.22982863148E+03  0.15294330000E+03 0.  0.
<mgrwt>
<rscale>  0 0.51202777E+03</rscale>
<asrwt>0</asrwt>
<pdfrwt beam="1">  1        1 0.27395132E-01 0.67764849E+03</pdfrwt>
<pdfrwt beam="2">  1       -1 0.20866550E+00 0.67764849E+03</pdfrwt>
<totfact> 0.23496458E+01</totfact>
</mgrwt>
</event>
<event>
 4    1  0.1043382E-007  0.8818722E+03  0.7818608E-02  0.9555782E-01
         -1   -1    0    0    0  501 -0.00000000000E+00  0.00000000000E+00  0.35295329752E+03  0.35295329756E+03  0.50400000000E-02 0.  1.
          1   -1    0    0  501    0  0.00000000000E+00 -0.00000000000E+00 -0.22333305911E+04  0.22333305911E+04  0.50400000000E-02 0. -1.
    8880023    1    1    2    0    0 -0.14439216319E+03  0.56836547925E+03 -0.36538112550E+03  0.95456900637E+03  0.65864270000E+03 0.  0.
    8880022    1    1    2    0    0  0.14439216319E+03 -0.56836547925E+03 -0.15149961681E+04  0.16317148823E+04  0.15294330000E+03 0.  0.
<mgrwt>
<rscale>  0 0.80293228E+03</rscale>
<asrwt>0</asrwt>
<pdfrwt beam="1">  1        1 0.34358931E+00 0.88187222E+03</pdfrwt>
<pdfrwt beam="2">  1       -1 0.54300509E-01 0.88187222E+03</pdfrwt>
<totfact> 0.72956625E+00</totfact>
</mgrwt>
</event>
<event>
 4    1  0.1043382E-007  0.7596700E+03  0.7818608E-02  0.9805963E-01
         -1   -1    0    0    0  501 -0.00000000000E+00  0.00000000000E+00  0.62007738347E+03  0.62007738349E+03  0.50400000000E-02 0.  1.
          1   -1    0    0  501    0  0.00000000000E+00 -0.00000000000E+00 -0.88461378103E+03  0.88461378104E+03  0.50400000000E-02 0. -1.
    8880023    1    1    2    0    0  0.29276648208E+03  0.23995013848E+03  0.29252171062E+03  0.81404388053E+03  0.65864270000E+03 0.  1.
    8880022    1    1    2    0    0 -0.29276648208E+03 -0.23995013848E+03 -0.55705810818E+03  0.69064728400E+03  0.15294330000E+03 0.  0.
<mgrwt>
<rscale>  0 0.65043536E+03</rscale>
<asrwt>0</asrwt>
<pdfrwt beam="1">  1        1 0.13609443E+00 0.75966999E+03</pdfrwt>
<pdfrwt beam="2">  1       -1 0.95396521E-01 0.75966999E+03</pdfrwt>
<totfact> 0.20409307E+01</totfact>
</mgrwt>
</event>
<event>
 4    1  0.1043382E-007  0.7110382E+03  0.7818608E-02  0.9954166E-01
         -1   -1    0    0    0  501 -0.00000000000E+00  0.00000000000E+00  0.63257250396E+03  0.63257250398E+03  0.50400000000E-02 0.  1.
          1   -1    0    0  501    0  0.00000000000E+00 -0.00000000000E+00 -0.44453956233E+03  0.44453956236E+03  0.50400000000E-02 0. -1.
    8880023    1    1    2    0    0  0.10637546497E+03 -0.24586465164E+03  0.26561589623E+03  0.75903041907E+03  0.65864270000E+03 0. -1.
    8880022    1    1    2    0    0 -0.10637546497E+03  0.24586465164E+03 -0.77582954604E+02  0.31808164728E+03  0.15294330000E+03 0.  0.
<mgrwt>
<rscale>  0 0.57706496E+03</rscale>
<asrwt>0</asrwt>
<pdfrwt beam="1">  1        1 0.68390702E-01 0.71103824E+03</pdfrwt>
<pdfrwt beam="2">  1       -1 0.97318847E-01 0.71103824E+03</pdfrwt>
<totfact> 0.54052921E+01</totfact>
</mgrwt>
</event>
<event>
 4    1  0.1043382E-007  0.7240289E+03  0.7818608E-02  0.9909182E-01
          1   -1    0    0  501    0  0.00000000000E+00  0.00000000000E+00  0.46758334100E+03  0.46758334103E+03  0.50400000000E-02 0. -1.
         -1   -1    0    0    0  501 -0.00000000000E+00 -0.00000000000E+00 -0.14634456409E+04  0.14634456409E+04  0.50400000000E-02 0.  1.
    8880023    1    1    2    0    0  0.24564536599E+03 -0.17339539869E+03 -0.12927205081E+04  0.14816693722E+04  0.65864270000E+03 0.  1.
    8880022    1    1    2    0    0 -0.24564536599E+03  0.17339539869E+03  0.29685820818E+03  0.44935960978E+03  0.15294330000E+03 0.  0.
<mgrwt>
<rscale>  0 0.59818339E+03</rscale>
<asrwt>0</asrwt>
<pdfrwt beam="1">  1        1 0.71935900E-01 0.72402888E+03</pdfrwt>
<pdfrwt beam="2">  1       -1 0.22514548E+00 0.72402888E+03</pdfrwt>
<totfact> 0.51453714E+00</totfact>
</mgrwt>
</event>
<event>
 4    1  0.1043382E-007  0.7649690E+03  0.7818608E-02  0.9792409E-01
          1   -1    0    0  501    0  0.00000000000E+00  0.00000000000E+00  0.56692738895E+03  0.56692738897E+03  0.50400000000E-02 0. -1.
         -1   -1    0    0    0  501 -0.00000000000E+00 -0.00000000000E+00 -0.71114512097E+03  0.71114512099E+03  0.50400000000E-02 0.  1.
    8880023    1    1    2    0    0 -0.38894325087E+03  0.95147408589E+01  0.13302975628E+03  0.77644993722E+03  0.65864270000E+03 0.  0.
    8880022    1    1    2    0    0  0.38894325087E+03 -0.95147408589E+01 -0.27724748831E+03  0.50162257274E+03  0.15294330000E+03 0.  0.
<mgrwt>
<rscale>  0 0.65771514E+03</rscale>
<asrwt>0</asrwt>
<pdfrwt beam="1">  1        1 0.87219598E-01 0.76496901E+03</pdfrwt>
<pdfrwt beam="2">  1       -1 0.10940694E+00 0.76496901E+03</pdfrwt>
<totfact> 0.29376345E+01</totfact>
</mgrwt>
</event>
<event>
 4    1  0.1043382E-007  0.7452880E+03  0.7818608E-02  0.9844803E-01
         -1   -1    0    0    0  501 -0.00000000000E+00  0.00000000000E+00  0.96155992236E+03  0.96155992238E+03  0.50400000000E-02 0.  1.
          1   -1    0    0  501    0  0.00000000000E+00 -0.00000000000E+00 -0.95845072653E+03  0.95845072654E+03  0.50400000000E-02 0. -1.
    8880023    1    1    2    0    0 -0.34670471805E+03 -0.37945648529E+02  0.76513292278E+03  0.10681210744E+04  0.65864270000E+03 0.  1.
    8880022    1    1    2    0    0  0.34670471805E+03  0.37945648529E+02 -0.76202372694E+03  0.85188957453E+03  0.15294330000E+03 0.  0.
<mgrwt>
<rscale>  0 0.63012610E+03</rscale>
<asrwt>0</asrwt>
<pdfrwt beam="1">  1        1 0.14745396E+00 0.74528802E+03</pdfrwt>
<pdfrwt beam="2">  1       -1 0.14793230E+00 0.74528802E+03</pdfrwt>
<totfact> 0.61218983E+00</totfact>
</mgrwt>
</event>
<event>
 4    1  0.1043382E-007  0.7466942E+03  0.7818608E-02  0.9840859E-01
         -1   -1    0    0    0  501 -0.00000000000E+00  0.00000000000E+00  0.11361632602E+04  0.11361632602E+04  0.50400000000E-02 0.  1.
          1   -1    0    0  501    0  0.00000000000E+00 -0.00000000000E+00 -0.46364917540E+03  0.46364917543E+03  0.50400000000E-02 0. -1.
    8880023    1    1    2    0    0 -0.24746678919E+03 -0.25000446637E+03  0.88770917591E+03  0.11599913070E+04  0.65864270000E+03 0.  1.
    8880022    1    1    2    0    0  0.24746678919E+03  0.25000446637E+03 -0.21519509113E+03  0.43982112866E+03  0.15294330000E+03 0.  0.
<mgrwt>
<rscale>  0 0.63215141E+03</rscale>
<asrwt>0</asrwt>
<pdfrwt beam="1">  1        1 0.71330644E-01 0.74669422E+03</pdfrwt>
<pdfrwt beam="2">  1       -1 0.17479434E+00 0.74669422E+03</pdfrwt>
<totfact> 0.11495003E+01</totfact>
</mgrwt>
</event>
<event>
 4    1  0.1043382E-007  0.7214541E+03  0.7818608E-02  0.9917696E-01
          1   -1    0    0  501    0  0.00000000000E+00  0.00000000000E+00  0.16041171991E+04  0.16041171991E+04  0.50400000000E-02 0. -1.
         -1   -1    0    0    0  501 -0.00000000000E+00 -0.00000000000E+00 -0.47212880036E+03  0.47212880039E+03  0.50400000000E-02 0.  1.
    8880023    1    1    2    0    0 -0.21977492681E+03  0.19592049724E+03 -0.16282609582E+03  0.73960016457E+03  0.65864270000E+03 0.  1.
    8880022    1    1    2    0    0  0.21977492681E+03 -0.19592049724E+03  0.12948144945E+04  0.13366458349E+04  0.15294330000E+03 0.  0.
<mgrwt>
<rscale>  0 0.59411275E+03</rscale>
<asrwt>0</asrwt>
<pdfrwt beam="1">  1        1 0.24678727E+00 0.72145413E+03</pdfrwt>
<pdfrwt beam="2">  1       -1 0.72635198E-01 0.72145413E+03</pdfrwt>
<totfact> 0.11062009E+01</totfact>
</mgrwt>
</event>
<event>
 4    1  0.1043382E-007  0.1098394E+04  0.7818608E-02  0.9262846E-01
         -1   -1    0    0    0  501 -0.00000000000E+00  0.00000000000E+00  0.12853135920E+04  0.12853135920E+04  0.50400000000E-02 0.  1.
          1   -1    0    0  501    0  0.00000000000E+00 -0.00000000000E+00 -0.12190955541E+04  0.12190955541E+04  0.50400000000E-02 0. -1.
    8880023    1    1    2    0    0  0.20501977982E+03 -0.85476675449E+03 -0.72154459055E+03  0.13141902895E+04  0.65864270000E+03 0.  0.
    8880022    1    1    2    0    0 -0.20501977982E+03  0.85476675449E+03  0.78776262846E+03  0.11902188566E+04  0.15294330000E+03 0.  0.
<mgrwt>
<rscale>  0 0.10427645E+04</rscale>
<asrwt>0</asrwt>
<pdfrwt beam="1">  1        1 0.18755316E+00 0.10983941E+04</pdfrwt>
<pdfrwt beam="2">  1       -1 0.19774055E+00 0.10983941E+04</pdfrwt>
<totfact> 0.16017421E+00</totfact>
</mgrwt>
</event>
<event>
 4    1  0.1043382E-007  0.6681938E+03  0.7818608E-02  0.1016992E+00
          1   -1    0    0  501    0  0.00000000000E+00  0.00000000000E+00  0.12642240244E+04  0.12642240244E+04  0.50400000000E-02 0. -1.
         -1   -1    0    0    0  501 -0.00000000000E+00 -0.00000000000E+00 -0.28384915561E+03  0.28384915566E+03  0.50400000000E-02 0.  1.
    8880023    1    1    2    0    0 -0.23201783136E+02  0.11015639094E+03  0.13508295832E+03  0.68171135028E+03  0.65864270000E+03 0.  1.
    8880022    1    1    2    0    0  0.23201783136E+02 -0.11015639094E+03  0.84529191050E+03  0.86636182983E+03  0.15294330000E+03 0.  0.
<mgrwt>
<rscale>  0 0.48787850E+03</rscale>
<asrwt>0</asrwt>
<pdfrwt beam="1">  1        1 0.19449600E+00 0.66819380E+03</pdfrwt>
<pdfrwt beam="2">  1       -1 0.43669101E-01 0.66819380E+03</pdfrwt>
<totfact> 0.51454287E+01</totfact>
</mgrwt>
</event>
<event>
 4    1  0.1043382E-007  0.6607772E+03  0.7818608E-02  0.1023374E+00
          1   -1    0    0  501    0  0.00000000000E+00  0.00000000000E+00  0.68214961025E+03  0.68214961027E+03  0.50400000000E-02 0. -1.
         -1   -1    0    0    0  501 -0.00000000000E+00 -0.00000000000E+00 -0.46370387440E+03  0.46370387443E+03  0.50400000000E-02 0.  1.
    8880023    1    1    2    0    0  0.31756668527E+02  0.42518611222E+02 -0.20554453268E+03  0.69200800535E+03  0.65864270000E+03 0.  1.
    8880022    1    1    2    0    0 -0.31756668527E+02 -0.42518611222E+02  0.42399026853E+03  0.45384547934E+03  0.15294330000E+03 0.  0.
<mgrwt>
<rscale>  0 0.46488493E+03</rscale>
<asrwt>0</asrwt>
<pdfrwt beam="1">  1        1 0.10494609E+00 0.66077721E+03</pdfrwt>
<pdfrwt beam="2">  1       -1 0.71339058E-01 0.66077721E+03</pdfrwt>
<totfact> 0.57896063E+01</totfact>
</mgrwt>
</event>
<event>
 4    1  0.1043382E-007  0.7948590E+03  0.7818608E-02  0.9722024E-01
          1   -1    0    0  501    0  0.00000000000E+00  0.00000000000E+00  0.78465199830E+03  0.78465199831E+03  0.50400000000E-02 0. -1.
         -1   -1    0    0    0  501 -0.00000000000E+00 -0.00000000000E+00 -0.89437378464E+03  0.89437378466E+03  0.50400000000E-02 0.  1.
    8880023    1    1    2    0    0 -0.20124717373E+03  0.39685028498E+03 -0.60272159431E+03  0.99753400951E+03  0.65864270000E+03 0.  0.
    8880022    1    1    2    0    0  0.20124717373E+03 -0.39685028498E+03  0.49299980796E+03  0.68149177346E+03  0.15294330000E+03 0.  0.
<mgrwt>
<rscale>  0 0.69720486E+03</rscale>
<asrwt>0</asrwt>
<pdfrwt beam="1">  1        1 0.12071569E+00 0.79485897E+03</pdfrwt>
<pdfrwt beam="2">  1       -1 0.13759597E+00 0.79485897E+03</pdfrwt>
<totfact> 0.10251779E+01</totfact>
</mgrwt>
</event>
<event>
 4    1  0.1043382E-007  0.8198134E+03  0.7818608E-02  0.9669487E-01
         -1   -1    0    0    0  501 -0.00000000000E+00  0.00000000000E+00  0.61389399672E+03  0.61389399674E+03  0.50400000000E-02 0.  1.
          1   -1    0    0  501    0  0.00000000000E+00 -0.00000000000E+00 -0.13287603712E+04  0.13287603713E+04  0.50400000000E-02 0. -1.
    8880023    1    1    2    0    0  0.30519922696E+03  0.38096880975E+03  0.24444210231E+03  0.85547995288E+03  0.65864270000E+03 0.  1.
    8880022    1    1    2    0    0 -0.30519922696E+03 -0.38096880975E+03 -0.95930847683E+03  0.10871744151E+04  0.15294330000E+03 0.  0.
<mgrwt>
<rscale>  0 0.72862930E+03</rscale>
<asrwt>0</asrwt>
<pdfrwt beam="1">  1        1 0.20442467E+00 0.81981340E+03</pdfrwt>
<pdfrwt beam="2">  1       -1 0.94445230E-01 0.81981340E+03</pdfrwt>
<totfact> 0.96069753E+00</totfact>
</mgrwt>
</event>
<event>
 4    1  0.1043382E-007  0.7190808E+03  0.7818608E-02  0.9925709E-01
         -1   -1    0    0    0  501 -0.00000000000E+00  0.00000000000E+00  0.18878339834E+03  0.18878339841E+03  0.50400000000E-02 0.  1.
          1   -1    0    0  501    0  0.00000000000E+00 -0.00000000000E+00 -0.16071260736E+04  0.16071260736E+04  0.50400000000E-02 0. -1.
    8880023    1    1    2    0    0  0.19683226760E+03  0.21100729549E+03 -0.68497565822E+03  0.99311070830E+03  0.65864270000E+03 0.  1.
    8880022    1    1    2    0    0 -0.19683226760E+03 -0.21100729549E+03 -0.73336701700E+03  0.80279876367E+03  0.15294330000E+03 0. -1.
<mgrwt>
<rscale>  0 0.59031362E+03</rscale>
<asrwt>0</asrwt>
<pdfrwt beam="1">  1        1 0.24725016E+00 0.71908082E+03</pdfrwt>
<pdfrwt beam="2">  1       -1 0.29043601E-01 0.71908082E+03</pdfrwt>
<totfact> 0.61420718E+01</totfact>
</mgrwt>
</event>
<event>
 4    1  0.1043382E-007  0.7336383E+03  0.7818608E-02  0.9878881E-01
          1   -1    0    0  501    0  0.00000000000E+00  0.00000000000E+00  0.17810298402E+04  0.17810298402E+04  0.50400000000E-02 0. -1.
         -1   -1    0    0    0  501 -0.00000000000E+00 -0.00000000000E+00 -0.19125128841E+03  0.19125128848E+03  0.50400000000E-02 0.  1.
    8880023    1    1    2    0    0 -0.27119199388E+03 -0.17569823050E+03  0.70272688960E+03  0.10158987417E+04  0.65864270000E+03 0.  1.
    8880022    1    1    2    0    0  0.27119199388E+03  0.17569823050E+03  0.88705166223E+03  0.95638238703E+03  0.15294330000E+03 0.  0.
<mgrwt>
<rscale>  0 0.61295793E+03</rscale>
<asrwt>0</asrwt>
<pdfrwt beam="1">  1        1 0.27400459E+00 0.73363831E+03</pdfrwt>
<pdfrwt beam="2">  1       -1 0.29423275E-01 0.73363831E+03</pdfrwt>
<totfact> 0.45790063E+01</totfact>
</mgrwt>
</event>
<event>
 4    1  0.1043382E-007  0.7569413E+03  0.7818608E-02  0.9813092E-01
          1   -1    0    0  501    0  0.00000000000E+00  0.00000000000E+00  0.85198101105E+03  0.85198101106E+03  0.50400000000E-02 0. -1.
         -1   -1    0    0    0  501 -0.00000000000E+00 -0.00000000000E+00 -0.46468904716E+03  0.46468904719E+03  0.50400000000E-02 0.  1.
    8880023    1    1    2    0    0 -0.18693301050E+03  0.32280943035E+03 -0.97865992353E+00  0.75694190185E+03  0.65864270000E+03 0.  0.
    8880022    1    1    2    0    0  0.18693301050E+03 -0.32280943035E+03  0.38827062381E+03  0.55972815640E+03  0.15294330000E+03 0.  0.
<mgrwt>
<rscale>  0 0.64664687E+03</rscale>
<asrwt>0</asrwt>
<pdfrwt beam="1">  1        1 0.13107400E+00 0.75694127E+03</pdfrwt>
<pdfrwt beam="2">  1       -1 0.71490623E-01 0.75694127E+03</pdfrwt>
<totfact> 0.40344025E+01</totfact>
</mgrwt>
</event>
<event>
 4    1  0.1043382E-007  0.7175332E+03  0.7818608E-02  0.9931023E-01
          1   -1    0    0  501    0  0.00000000000E+00  0.00000000000E+00  0.22642103484E+04  0.22642103484E+04  0.50400000000E-02 0. -1.
         -1   -1    0    0    0  501 -0.00000000000E+00 -0.00000000000E+00 -0.54105018027E+03  0.54105018029E+03  0.50400000000E-02 0.  1.
    8880023    1    1    2    0    0 -0.26358216939E+03  0.10755516345E+03 -0.28441182931E+03  0.77184452328E+03  0.65864270000E+03 0.  0.
    8880022    1    1    2    0    0  0.26358216939E+03 -0.10755516345E+03  0.20075719975E+04  0.20334160054E+04  0.15294330000E+03 0.  0.
<mgrwt>
<rscale>  0 0.58781062E+03</rscale>
<asrwt>0</asrwt>
<pdfrwt beam="1">  1        1 0.34834005E+00 0.71753319E+03</pdfrwt>
<pdfrwt beam="2">  1       -1 0.83238490E-01 0.71753319E+03</pdfrwt>
<totfact> 0.30016864E+00</totfact>
</mgrwt>
</event>
<event>
 4    1  0.1043382E-007  0.7719689E+03  0.7818608E-02  0.9775052E-01
         -1   -1    0    0    0  501 -0.00000000000E+00  0.00000000000E+00  0.14325844704E+04  0.14325844704E+04  0.50400000000E-02 0.  1.
          1   -1    0    0  501    0  0.00000000000E+00 -0.00000000000E+00 -0.76068192701E+03  0.76068192703E+03  0.50400000000E-02 0. -1.
    8880023    1    1    2    0    0 -0.38235143810E+03  0.12622664892E+03  0.12519310331E+04  0.14708049860E+04  0.65864270000E+03 0.  1.
    8880022    1    1    2    0    0  0.38235143810E+03 -0.12622664892E+03 -0.58002848968E+03  0.72246141140E+03  0.15294330000E+03 0.  0.
<mgrwt>
<rscale>  0 0.66718758E+03</rscale>
<asrwt>0</asrwt>
<pdfrwt beam="1">  1        1 0.11702799E+00 0.77196891E+03</pdfrwt>
<pdfrwt beam="2">  1       -1 0.22039761E+00 0.77196891E+03</pdfrwt>
<totfact> 0.27197473E+00</totfact>
</mgrwt>
</event>
<event>
 4    1  0.1043382E-007  0.8427664E+03  0.7818608E-02  0.9624986E-01
          1   -1    0    0  501    0  0.00000000000E+00  0.00000000000E+00  0.12696205795E+04  0.12696205795E+04  0.50400000000E-02 0. -1.
         -1   -1    0    0    0  501 -0.00000000000E+00 -0.00000000000E+00 -0.58046976682E+03  0.58046976684E+03  0.50400000000E-02 0.  1.
    8880023    1    1    2    0    0  0.25257034786E+02 -0.52517333173E+03 -0.14213139145E+03  0.85466747034E+03  0.65864270000E+03 0.  1.
    8880022    1    1    2    0    0 -0.25257034786E+02  0.52517333173E+03  0.83128220414E+03  0.99542287602E+03  0.15294330000E+03 0.  0.
<mgrwt>
<rscale>  0 0.75664293E+03</rscale>
<asrwt>0</asrwt>
<pdfrwt beam="1">  1        1 0.19532624E+00 0.84276637E+03</pdfrwt>
<pdfrwt beam="2">  1       -1 0.89303042E-01 0.84276637E+03</pdfrwt>
<totfact> 0.11945133E+01</totfact>
</mgrwt>
</event>
<event>
 4    1  0.1043382E-007  0.6818189E+03  0.7818608E-02  0.1008313E+00
          1   -1    0    0  501    0  0.00000000000E+00  0.00000000000E+00  0.68029151822E+03  0.68029151824E+03  0.50400000000E-02 0. -1.
         -1   -1    0    0    0  501 -0.00000000000E+00 -0.00000000000E+00 -0.10837187420E+04  0.10837187420E+04  0.50400000000E-02 0.  1.
    8880023    1    1    2    0    0  0.17543123261E+03  0.17050007393E+02 -0.95020479506E+03  0.11695153607E+04  0.65864270000E+03 0.  1.
    8880022    1    1    2    0    0 -0.17543123261E+03 -0.17050007393E+02  0.54677757127E+03  0.59449489954E+03  0.15294330000E+03 0.  0.
<mgrwt>
<rscale>  0 0.52150679E+03</rscale>
<asrwt>0</asrwt>
<pdfrwt beam="1">  1        1 0.10466023E+00 0.68181891E+03</pdfrwt>
<pdfrwt beam="2">  1       -1 0.16672596E+00 0.68181891E+03</pdfrwt>
<totfact> 0.77176425E+00</totfact>
</mgrwt>
</event>
<event>
 4    1  0.1043382E-007  0.7495510E+03  0.7818608E-02  0.9832951E-01
         -1   -1    0    0    0  501 -0.00000000000E+00  0.00000000000E+00  0.41134873448E+03  0.41134873451E+03  0.50400000000E-02 0.  1.
          1   -1    0    0  501    0  0.00000000000E+00 -0.00000000000E+00 -0.79732866529E+03  0.79732866531E+03  0.50400000000E-02 0. -1.
    8880023    1    1    2    0    0  0.11443470335E+03  0.33900026646E+03 -0.31544852796E+03  0.81322473035E+03  0.65864270000E+03 0.  0.
    8880022    1    1    2    0    0 -0.11443470335E+03 -0.33900026646E+03 -0.70531402852E+02  0.39545266948E+03  0.15294330000E+03 0.  1.
<mgrwt>
<rscale>  0 0.63623790E+03</rscale>
<asrwt>0</asrwt>
<pdfrwt beam="1">  1        1 0.12266595E+00 0.74955099E+03</pdfrwt>
<pdfrwt beam="2">  1       -1 0.63284421E-01 0.74955099E+03</pdfrwt>
<totfact> 0.57536966E+01</totfact>
</mgrwt>
</event>
<event>
 4    1  0.1043382E-007  0.6899674E+03  0.7818608E-02  0.1004168E+00
         -1   -1    0    0    0  501 -0.00000000000E+00  0.00000000000E+00  0.19431208755E+03  0.19431208762E+03  0.50400000000E-02 0.  1.
          1   -1    0    0  501    0  0.00000000000E+00 -0.00000000000E+00 -0.33773197485E+04  0.33773197485E+04  0.50400000000E-02 0. -1.
    8880023    1    1    2    0    0 -0.20544858809E+03 -0.59731141342E+01 -0.44359027877E+03  0.82026053308E+03  0.65864270000E+03 0.  1.
    8880022    1    1    2    0    0  0.20544858809E+03  0.59731141342E+01 -0.27394173821E+04  0.27513713030E+04  0.15294330000E+03 0.  0.
<mgrwt>
<rscale>  0 0.53859779E+03</rscale>
<asrwt>0</asrwt>
<pdfrwt beam="1">  1        1 0.51958761E+00 0.68996740E+03</pdfrwt>
<pdfrwt beam="2">  1       -1 0.29894170E-01 0.68996740E+03</pdfrwt>
<totfact> 0.34922816E+00</totfact>
</mgrwt>
</event>
<event>
 4    1  0.1043382E-007  0.6793676E+03  0.7818608E-02  0.1009684E+00
          1   -1    0    0  501    0  0.00000000000E+00  0.00000000000E+00  0.23473478489E+04  0.23473478489E+04  0.50400000000E-02 0. -1.
         -1   -1    0    0    0  501 -0.00000000000E+00 -0.00000000000E+00 -0.32124075362E+03  0.32124075366E+03  0.50400000000E-02 0.  1.
    8880023    1    1    2    0    0 -0.21827426787E+02  0.16508685081E+03  0.51759243253E+02  0.68133642967E+03  0.65864270000E+03 0.  1.
    8880022    1    1    2    0    0  0.21827426787E+02 -0.16508685081E+03  0.19743478521E+04  0.19872521729E+04  0.15294330000E+03 0.  0.
<mgrwt>
<rscale>  0 0.51600551E+03</rscale>
<asrwt>0</asrwt>
<pdfrwt beam="1">  1        1 0.36113044E+00 0.67936758E+03</pdfrwt>
<pdfrwt beam="2">  1       -1 0.49421654E-01 0.67936758E+03</pdfrwt>
<totfact> 0.75599404E+00</totfact>
</mgrwt>
</event>
<event>
 4    1  0.1043382E-007  0.6943260E+03  0.7818608E-02  0.1002161E+00
         -1   -1    0    0    0  501 -0.00000000000E+00  0.00000000000E+00  0.69863666132E+03  0.69863666134E+03  0.50400000000E-02 0.  1.
          1   -1    0    0  501    0  0.00000000000E+00 -0.00000000000E+00 -0.40069747069E+03  0.40069747072E+03  0.50400000000E-02 0. -1.
    8880023    1    1    2    0    0  0.68338552014E+02  0.20882582245E+03  0.41307761872E+03  0.80791194270E+03  0.65864270000E+03 0.  1.
    8880022    1    1    2    0    0 -0.68338552014E+02 -0.20882582245E+03 -0.11513842809E+03  0.29142218936E+03  0.15294330000E+03 0.  0.
<mgrwt>
<rscale>  0 0.54712905E+03</rscale>
<asrwt>0</asrwt>
<pdfrwt beam="1">  1        1 0.61645765E-01 0.69432600E+03</pdfrwt>
<pdfrwt beam="2">  1       -1 0.10748256E+00 0.69432600E+03</pdfrwt>
<totfact> 0.49486246E+01</totfact>
</mgrwt>
</event>
<event>
 4    1  0.1043382E-007  0.7182422E+03  0.7818608E-02  0.9928579E-01
         -1   -1    0    0    0  501 -0.00000000000E+00  0.00000000000E+00  0.84181930740E+03  0.84181930742E+03  0.50400000000E-02 0.  1.
          1   -1    0    0  501    0  0.00000000000E+00 -0.00000000000E+00 -0.75779682640E+03  0.75779682642E+03  0.50400000000E-02 0. -1.
    8880023    1    1    2    0    0  0.17146679914E+03 -0.22947932993E+03  0.63589654542E+03  0.95928944997E+03  0.65864270000E+03 0.  1.
    8880022    1    1    2    0    0 -0.17146679914E+03  0.22947932993E+03 -0.55187406442E+03  0.64032668387E+03  0.15294330000E+03 0.  0.
<mgrwt>
<rscale>  0 0.58895985E+03</rscale>
<asrwt>0</asrwt>
<pdfrwt beam="1">  1        1 0.11658413E+00 0.71824218E+03</pdfrwt>
<pdfrwt beam="2">  1       -1 0.12951066E+00 0.71824218E+03</pdfrwt>
<totfact> 0.12755468E+01</totfact>
</mgrwt>
</event>
<event>
 4    1  0.1043382E-007  0.1057939E+04  0.7818608E-02  0.9309397E-01
         -1   -1    0    0    0  501 -0.00000000000E+00  0.00000000000E+00  0.83386048447E+03  0.83386048449E+03  0.50400000000E-02 0.  1.
          1   -1    0    0  501    0  0.00000000000E+00 -0.00000000000E+00 -0.19407636795E+04  0.19407636795E+04  0.50400000000E-02 0. -1.
    8880023    1    1    2    0    0  0.61102298825E+03  0.55863816037E+03  0.33088367345E+03  0.11084763859E+04  0.65864270000E+03 0.  0.
    8880022    1    1    2    0    0 -0.61102298825E+03 -0.55863816037E+03 -0.14377868685E+04  0.16661477782E+04  0.15294330000E+03 0.  0.
<mgrwt>
<rscale>  0 0.99922296E+03</rscale>
<asrwt>0</asrwt>
<pdfrwt beam="1">  1        1 0.29857903E+00 0.10579395E+04</pdfrwt>
<pdfrwt beam="2">  1       -1 0.12828623E+00 0.10579395E+04</pdfrwt>
<totfact> 0.17174981E+00</totfact>
</mgrwt>
</event>
<event>
 4    1  0.1043382E-007  0.6899938E+03  0.7818608E-02  0.1004156E+00
         -1   -1    0    0    0  501 -0.00000000000E+00  0.00000000000E+00  0.51812192550E+03  0.51812192552E+03  0.50400000000E-02 0.  1.
          1   -1    0    0  501    0  0.00000000000E+00 -0.00000000000E+00 -0.46383559127E+03  0.46383559130E+03  0.50400000000E-02 0. -1.
    8880023    1    1    2    0    0 -0.37271851878E+02  0.20221780899E+03  0.15400657528E+03  0.70697203955E+03  0.65864270000E+03 0.  0.
    8880022    1    1    2    0    0  0.37271851878E+02 -0.20221780899E+03 -0.99720241048E+02  0.27498547726E+03  0.15294330000E+03 0.  0.
<mgrwt>
<rscale>  0 0.53865061E+03</rscale>
<asrwt>0</asrwt>
<pdfrwt beam="1">  1        1 0.71359322E-01 0.68999380E+03</pdfrwt>
<pdfrwt beam="2">  1       -1 0.79711065E-01 0.68999380E+03</pdfrwt>
<totfact> 0.79056158E+01</totfact>
</mgrwt>
</event>
<event>
 4    1  0.1043382E-007  0.1157890E+04  0.7818608E-02  0.9199184E-01
          1   -1    0    0  501    0  0.00000000000E+00  0.00000000000E+00  0.67305944148E+03  0.67305944150E+03  0.50400000000E-02 0. -1.
         -1   -1    0    0    0  501 -0.00000000000E+00 -0.00000000000E+00 -0.22260153846E+04  0.22260153846E+04  0.50400000000E-02 0.  1.
    8880023    1    1    2    0    0 -0.79000128792E+03 -0.53178716463E+03 -0.15497700925E+04  0.19345534806E+04  0.65864270000E+03 0.  0.
    8880022    1    1    2    0    0  0.79000128792E+03  0.53178716463E+03 -0.31858506727E+01  0.96452134557E+03  0.15294330000E+03 0.  0.
<mgrwt>
<rscale>  0 0.11061854E+04</rscale>
<asrwt>0</asrwt>
<pdfrwt beam="1">  1        1 0.10354761E+00 0.11578902E+04</pdfrwt>
<pdfrwt beam="2">  1       -1 0.34246390E+00 0.11578902E+04</pdfrwt>
<totfact> 0.50239597E-01</totfact>
</mgrwt>
</event>
<event>
 4    1  0.1043382E-007  0.7180276E+03  0.7818608E-02  0.9929317E-01
         -1   -1    0    0    0  501 -0.00000000000E+00  0.00000000000E+00  0.78451958352E+03  0.78451958353E+03  0.50400000000E-02 0.  1.
          1   -1    0    0  501    0  0.00000000000E+00 -0.00000000000E+00 -0.48207691105E+03  0.48207691107E+03  0.50400000000E-02 0. -1.
    8880023    1    1    2    0    0 -0.28479073897E+03 -0.25450093399E+02  0.51078499556E+03  0.88117250877E+03  0.65864270000E+03 0.  1.
    8880022    1    1    2    0    0  0.28479073897E+03  0.25450093399E+02 -0.20834232309E+03  0.38542398584E+03  0.15294330000E+03 0.  0.
<mgrwt>
<rscale>  0 0.58861254E+03</rscale>
<asrwt>0</asrwt>
<pdfrwt beam="1">  1        1 0.74165679E-01 0.71802763E+03</pdfrwt>
<pdfrwt beam="2">  1       -1 0.12069532E+00 0.71802763E+03</pdfrwt>
<totfact> 0.29221505E+01</totfact>
</mgrwt>
</event>
<event>
 4    1  0.1043382E-007  0.1021643E+04  0.7818608E-02  0.9353775E-01
          1   -1    0    0  501    0  0.00000000000E+00  0.00000000000E+00  0.58608896504E+03  0.58608896506E+03  0.50400000000E-02 0. -1.
         -1   -1    0    0    0  501 -0.00000000000E+00 -0.00000000000E+00 -0.23390320645E+04  0.23390320645E+04  0.50400000000E-02 0.  1.
    8880023    1    1    2    0    0 -0.77405813734E+03  0.10381331767E+03 -0.18600183178E+04  0.21221266583E+04  0.65864270000E+03 0.  0.
    8880022    1    1    2    0    0  0.77405813734E+03 -0.10381331767E+03  0.10707521836E+03  0.80299437128E+03  0.15294330000E+03 0.  0.
<mgrwt>
<rscale>  0 0.95979479E+03</rscale>
<asrwt>0</asrwt>
<pdfrwt beam="1">  1        1 0.90167534E-01 0.10216425E+04</pdfrwt>
<pdfrwt beam="2">  1       -1 0.35985108E+00 0.10216425E+04</pdfrwt>
<totfact> 0.48213666E-01</totfact>
</mgrwt>
</event>
<event>
 4    1  0.1043382E-007  0.7518700E+03  0.7818608E-02  0.9826629E-01
         -1   -1    0    0    0  501 -0.00000000000E+00  0.00000000000E+00  0.11513055016E+04  0.11513055016E+04  0.50400000000E-02 0.  1.
          1   -1    0    0  501    0  0.00000000000E+00 -0.00000000000E+00 -0.33254488187E+03  0.33254488191E+03  0.50400000000E-02 0. -1.
    8880023    1    1    2    0    0  0.36260462415E+03  0.40249183765E+01  0.78790279935E+03  0.10890818798E+04  0.65864270000E+03 0.  0.
    8880022    1    1    2    0    0 -0.36260462415E+03 -0.40249183765E+01  0.30857820358E+02  0.39476850370E+03  0.15294330000E+03 0.  0.
<mgrwt>
<rscale>  0 0.63952862E+03</rscale>
<asrwt>0</asrwt>
<pdfrwt beam="1">  1        1 0.51160751E-01 0.75187002E+03</pdfrwt>
<pdfrwt beam="2">  1       -1 0.17712392E+00 0.75187002E+03</pdfrwt>
<totfact> 0.17170707E+01</totfact>
</mgrwt>
</event>
<event>
 4    1  0.1043382E-007  0.6735305E+03  0.7818608E-02  0.1013249E+00
         -1   -1    0    0    0  501 -0.00000000000E+00  0.00000000000E+00  0.51935617996E+03  0.51935617998E+03  0.50400000000E-02 0.  1.
          1   -1    0    0  501    0  0.00000000000E+00 -0.00000000000E+00 -0.48496569135E+03  0.48496569138E+03  0.50400000000E-02 0. -1.
    8880023    1    1    2    0    0  0.82266885598E+02 -0.11430340723E+03  0.23700799148E+03  0.71401407805E+03  0.65864270000E+03 0.  1.
    8880022    1    1    2    0    0 -0.82266885598E+02  0.11430340723E+03 -0.20261750287E+03  0.29030779331E+03  0.15294330000E+03 0.  0.
<mgrwt>
<rscale>  0 0.50203561E+03</rscale>
<asrwt>0</asrwt>
<pdfrwt beam="1">  1        1 0.74610107E-01 0.67353049E+03</pdfrwt>
<pdfrwt beam="2">  1       -1 0.79900950E-01 0.67353049E+03</pdfrwt>
<totfact> 0.74141443E+01</totfact>
</mgrwt>
</event>
<event>
 4    1  0.1043382E-007  0.7576749E+03  0.7818608E-02  0.9811165E-01
         -1   -1    0    0    0  501 -0.00000000000E+00  0.00000000000E+00  0.12013607411E+03  0.12013607421E+03  0.50400000000E-02 0.  1.
          1   -1    0    0  501    0  0.00000000000E+00 -0.00000000000E+00 -0.32754763113E+04  0.32754763113E+04  0.50400000000E-02 0. -1.
    8880023    1    1    2    0    0 -0.14230562255E+03  0.34642479592E+03 -0.26026259352E+04  0.27106702112E+04  0.65864270000E+03 0. -1.
    8880022    1    1    2    0    0  0.14230562255E+03 -0.34642479592E+03 -0.55271430207E+03  0.68494217432E+03  0.15294330000E+03 0.  0.
<mgrwt>
<rscale>  0 0.64766818E+03</rscale>
<asrwt>0</asrwt>
<pdfrwt beam="1">  1        1 0.50391936E+00 0.75767489E+03</pdfrwt>
<pdfrwt beam="2">  1       -1 0.18482475E-01 0.75767489E+03</pdfrwt>
<totfact> 0.92846748E+00</totfact>
</mgrwt>
</event>
<event>
 4    1  0.1043382E-007  0.6748531E+03  0.7818608E-02  0.1012399E+00
          1   -1    0    0  501    0  0.00000000000E+00  0.00000000000E+00  0.46372452232E+03  0.46372452235E+03  0.50400000000E-02 0. -1.
         -1   -1    0    0    0  501 -0.00000000000E+00 -0.00000000000E+00 -0.10579543592E+04  0.10579543592E+04  0.50400000000E-02 0.  1.
    8880023    1    1    2    0    0  0.14680813468E+03 -0.79883735304E+01 -0.91509196727E+03  0.11370224085E+04  0.65864270000E+03 0.  0.
    8880022    1    1    2    0    0 -0.14680813468E+03  0.79883735304E+01  0.32086213042E+03  0.38465647307E+03  0.15294330000E+03 0.  0.
<mgrwt>
<rscale>  0 0.50532204E+03</rscale>
<asrwt>0</asrwt>
<pdfrwt beam="1">  1        1 0.71342234E-01 0.67485306E+03</pdfrwt>
<pdfrwt beam="2">  1       -1 0.16276221E+00 0.67485306E+03</pdfrwt>
<totfact> 0.14206372E+01</totfact>
</mgrwt>
</event>
<event>
 4    1  0.1043382E-007  0.8706642E+03  0.7818608E-02  0.9574868E-01
         -1   -1    0    0    0  501 -0.00000000000E+00  0.00000000000E+00  0.11807020083E+04  0.11807020083E+04  0.50400000000E-02 0.  1.
          1   -1    0    0  501    0  0.00000000000E+00 -0.00000000000E+00 -0.11780375022E+04  0.11780375022E+04  0.50400000000E-02 0. -1.
    8880023    1    1    2    0    0 -0.51312952114E+03  0.24686830167E+03  0.92101438305E+03  0.12674082073E+04  0.65864270000E+03 0.  1.
    8880022    1    1    2    0    0  0.51312952114E+03 -0.24686830167E+03 -0.91834987695E+03  0.10913313032E+04  0.15294330000E+03 0.  0.
<mgrwt>
<rscale>  0 0.78982128E+03</rscale>
<asrwt>0</asrwt>
<pdfrwt beam="1">  1        1 0.18123654E+00 0.87066415E+03</pdfrwt>
<pdfrwt beam="2">  1       -1 0.18164646E+00 0.87066415E+03</pdfrwt>
<totfact> 0.22969105E+00</totfact>
</mgrwt>
</event>
<event>
 4    1  0.1043382E-007  0.7089324E+03  0.7818608E-02  0.9961987E-01
          1   -1    0    0  501    0  0.00000000000E+00  0.00000000000E+00  0.69618395916E+03  0.69618395918E+03  0.50400000000E-02 0. -1.
         -1   -1    0    0    0  501 -0.00000000000E+00 -0.00000000000E+00 -0.58829712030E+03  0.58829712032E+03  0.50400000000E-02 0.  1.
    8880023    1    1    2    0    0  0.10254083061E+03 -0.24137187470E+03 -0.30519726235E+03  0.77183584981E+03  0.65864270000E+03 0.  0.
    8880022    1    1    2    0    0 -0.10254083061E+03  0.24137187470E+03  0.41308410120E+03  0.51264522969E+03  0.15294330000E+03 0. -1.
<mgrwt>
<rscale>  0 0.57348936E+03</rscale>
<asrwt>0</asrwt>
<pdfrwt beam="1">  1        1 0.10710522E+00 0.70893244E+03</pdfrwt>
<pdfrwt beam="2">  1       -1 0.90507250E-01 0.70893244E+03</pdfrwt>
<totfact> 0.33712950E+01</totfact>
</mgrwt>
</event>
<event>
 4    1  0.1043382E-007  0.1000561E+04  0.7818608E-02  0.9380825E-01
          1   -1    0    0  501    0  0.00000000000E+00  0.00000000000E+00  0.19019873091E+04  0.19019873092E+04  0.50400000000E-02 0. -1.
         -1   -1    0    0    0  501 -0.00000000000E+00 -0.00000000000E+00 -0.90426520875E+03  0.90426520876E+03  0.50400000000E-02 0.  1.
    8880023    1    1    2    0    0 -0.17059735305E+03  0.73362652014E+03  0.15604612440E+04  0.18536884389E+04  0.65864270000E+03 0.  0.
    8880022    1    1    2    0    0  0.17059735305E+03 -0.73362652014E+03 -0.56273914365E+03  0.95256407906E+03  0.15294330000E+03 0.  0.
<mgrwt>
<rscale>  0 0.93670685E+03</rscale>
<asrwt>0</asrwt>
<pdfrwt beam="1">  1        1 0.29261343E+00 0.10005606E+04</pdfrwt>
<pdfrwt beam="2">  1       -1 0.13911772E+00 0.10005606E+04</pdfrwt>
<totfact> 0.14943874E+00</totfact>
</mgrwt>
</event>
<event>
 4    1  0.1043382E-007  0.6775039E+03  0.7818608E-02  0.1010772E+00
          1   -1    0    0  501    0  0.00000000000E+00  0.00000000000E+00  0.18782643657E+04  0.18782643657E+04  0.50400000000E-02 0. -1.
         -1   -1    0    0    0  501 -0.00000000000E+00 -0.00000000000E+00 -0.30284055818E+03  0.30284055822E+03  0.50400000000E-02 0.  1.
    8880023    1    1    2    0    0 -0.79358675759E+02 -0.13749027442E+03  0.94732796363E+02  0.68409493782E+03  0.65864270000E+03 0.  1.
    8880022    1    1    2    0    0  0.79358675759E+02  0.13749027442E+03  0.14806910111E+04  0.14970099861E+04  0.15294330000E+03 0.  0.
<mgrwt>
<rscale>  0 0.51168845E+03</rscale>
<asrwt>0</asrwt>
<pdfrwt beam="1">  1        1 0.28896375E+00 0.67750393E+03</pdfrwt>
<pdfrwt beam="2">  1       -1 0.46590855E-01 0.67750393E+03</pdfrwt>
<totfact> 0.17395635E+01</totfact>
</mgrwt>
</event>
<event>
 4    1  0.1043382E-007  0.1627231E+04  0.7818608E-02  0.8824655E-01
         -1   -1    0    0    0  501 -0.00000000000E+00  0.00000000000E+00  0.12396450934E+04  0.12396450934E+04  0.50400000000E-02 0.  1.
          1   -1    0    0  501    0  0.00000000000E+00 -0.00000000000E+00 -0.46439202540E+04  0.46439202540E+04  0.50400000000E-02 0. -1.
    8880023    1    1    2    0    0  0.11569055506E+04 -0.93575612399E+03 -0.39651467974E+04  0.42860552152E+04  0.65864270000E+03 0.  0.
    8880022    1    1    2    0    0 -0.11569055506E+04  0.93575612399E+03  0.56087163674E+03  0.15975101322E+04  0.15294330000E+03 0.  0.
<mgrwt>
<rscale>  0 0.15933322E+04</rscale>
<asrwt>0</asrwt>
<pdfrwt beam="1">  1        1 0.71444926E+00 0.16272308E+04</pdfrwt>
<pdfrwt beam="2">  1       -1 0.19071463E+00 0.16272308E+04</pdfrwt>
<totfact> 0.37687774E-03</totfact>
</mgrwt>
</event>
<event>
 4    1  0.1043382E-007  0.6800341E+03  0.7818608E-02  0.1009304E+00
          1   -1    0    0  501    0  0.00000000000E+00  0.00000000000E+00  0.26724410939E+04  0.26724410939E+04  0.50400000000E-02 0. -1.
         -1   -1    0    0    0  501 -0.00000000000E+00 -0.00000000000E+00 -0.28236756604E+03  0.28236756609E+03  0.50400000000E-02 0.  1.
    8880023    1    1    2    0    0  0.68529161259E+02  0.15472553011E+03  0.14137868622E+03  0.69457495981E+03  0.65864270000E+03 0.  1.
    8880022    1    1    2    0    0 -0.68529161259E+02 -0.15472553011E+03  0.22486948416E+04  0.22602337002E+04  0.15294330000E+03 0.  0.
<mgrwt>
<rscale>  0 0.51752051E+03</rscale>
<asrwt>0</asrwt>
<pdfrwt beam="1">  1        1 0.41114478E+00 0.68003415E+03</pdfrwt>
<pdfrwt beam="2">  1       -1 0.43441164E-01 0.68003415E+03</pdfrwt>
<totfact> 0.57699631E+00</totfact>
</mgrwt>
</event>
<event>
 4    1  0.1043382E-007  0.1041807E+04  0.7818608E-02  0.9328795E-01
          1   -1    0    0  501    0  0.00000000000E+00  0.00000000000E+00  0.22761019710E+04  0.22761019710E+04  0.50400000000E-02 0. -1.
         -1   -1    0    0    0  501 -0.00000000000E+00 -0.00000000000E+00 -0.54059817122E+03  0.54059817124E+03  0.50400000000E-02 0.  1.
    8880023    1    1    2    0    0 -0.80263515843E+02  0.80318756645E+03  0.17954107984E+03  0.10571649372E+04  0.65864270000E+03 0.  1.
    8880022    1    1    2    0    0  0.80263515843E+02 -0.80318756645E+03  0.15559627200E+04  0.17595352050E+04  0.15294330000E+03 0.  0.
<mgrwt>
<rscale>  0 0.98174583E+03</rscale>
<asrwt>0</asrwt>
<pdfrwt beam="1">  1        1 0.35016954E+00 0.10418074E+04</pdfrwt>
<pdfrwt beam="2">  1       -1 0.83168949E-01 0.10418074E+04</pdfrwt>
<totfact> 0.27996326E+00</totfact>
</mgrwt>
</event>
<event>
 4    1  0.1043382E-007  0.7928168E+03  0.7818608E-02  0.9726548E-01
          1   -1    0    0  501    0  0.00000000000E+00  0.00000000000E+00  0.77606863199E+03  0.77606863201E+03  0.50400000000E-02 0. -1.
         -1   -1    0    0    0  501 -0.00000000000E+00 -0.00000000000E+00 -0.72993474350E+03  0.72993474352E+03  0.50400000000E-02 0.  1.
    8880023    1    1    2    0    0 -0.38487432626E+03 -0.21591663737E+03 -0.37508154357E+03  0.87706591081E+03  0.65864270000E+03 0.  0.
    8880022    1    1    2    0    0  0.38487432626E+03  0.21591663737E+03  0.42121543206E+03  0.62893746472E+03  0.15294330000E+03 0.  0.
<mgrwt>
<rscale>  0 0.69457878E+03</rscale>
<asrwt>0</asrwt>
<pdfrwt beam="1">  1        1 0.11939517E+00 0.79281678E+03</pdfrwt>
<pdfrwt beam="2">  1       -1 0.11229765E+00 0.79281678E+03</pdfrwt>
<totfact> 0.17252621E+01</totfact>
</mgrwt>
</event>
<event>
 4    1  0.1043382E-007  0.9095804E+03  0.7818608E-02  0.9510824E-01
          1   -1    0    0  501    0  0.00000000000E+00  0.00000000000E+00  0.25723189772E+04  0.25723189772E+04  0.50400000000E-02 0. -1.
         -1   -1    0    0    0  501 -0.00000000000E+00 -0.00000000000E+00 -0.31849092947E+03  0.31849092951E+03  0.50400000000E-02 0.  1.
    8880023    1    1    2    0    0 -0.42841553059E+03 -0.45824267192E+03  0.53628536806E+03  0.10559064426E+04  0.65864270000E+03 0.  1.
    8880022    1    1    2    0    0  0.42841553059E+03  0.45824267192E+03  0.17175426797E+04  0.18349034641E+04  0.15294330000E+03 0.  0.
<mgrwt>
<rscale>  0 0.83490511E+03</rscale>
<asrwt>0</asrwt>
<pdfrwt beam="1">  1        1 0.39574137E+00 0.90958035E+03</pdfrwt>
<pdfrwt beam="2">  1       -1 0.48998606E-01 0.90958035E+03</pdfrwt>
<totfact> 0.51962267E+00</totfact>
</mgrwt>
</event>
<event>
 4    1  0.1043382E-007  0.1093479E+04  0.7818608E-02  0.9268352E-01
         -1   -1    0    0    0  501 -0.00000000000E+00  0.00000000000E+00  0.12624356667E+04  0.12624356667E+04  0.50400000000E-02 0.  1.
          1   -1    0    0  501    0  0.00000000000E+00 -0.00000000000E+00 -0.21042004611E+04  0.21042004611E+04  0.50400000000E-02 0. -1.
    8880023    1    1    2    0    0 -0.75891749717E+03  0.43119609685E+03  0.89749578985E+03  0.14146359039E+04  0.65864270000E+03 0.  0.
    8880022    1    1    2    0    0  0.75891749717E+03 -0.43119609685E+03 -0.17392605843E+04  0.19520002240E+04  0.15294330000E+03 0.  0.
<mgrwt>
<rscale>  0 0.10374942E+04</rscale>
<asrwt>0</asrwt>
<pdfrwt beam="1">  1        1 0.32372315E+00 0.10934789E+04</pdfrwt>
<pdfrwt beam="2">  1       -1 0.19422087E+00 0.10934789E+04</pdfrwt>
<totfact> 0.41718077E-01</totfact>
</mgrwt>
</event>
<event>
 4    1  0.1043382E-007  0.8490435E+03  0.7818608E-02  0.9613358E-01
         -1   -1    0    0    0  501 -0.00000000000E+00  0.00000000000E+00  0.27643855224E+03  0.27643855228E+03  0.50400000000E-02 0.  1.
          1   -1    0    0  501    0  0.00000000000E+00 -0.00000000000E+00 -0.28982554431E+04  0.28982554431E+04  0.50400000000E-02 0. -1.
    8880023    1    1    2    0    0  0.19833095127E+03  0.49772432868E+03 -0.50962992618E+03  0.99025125171E+03  0.65864270000E+03 0.  1.
    8880022    1    1    2    0    0 -0.19833095127E+03 -0.49772432868E+03 -0.21121869647E+04  0.21844427437E+04  0.15294330000E+03 0.  0.
<mgrwt>
<rscale>  0 0.76418327E+03</rscale>
<asrwt>0</asrwt>
<pdfrwt beam="1">  1        1 0.44588543E+00 0.84904351E+03</pdfrwt>
<pdfrwt beam="2">  1       -1 0.42529010E-01 0.84904351E+03</pdfrwt>
<totfact> 0.40429867E+00</totfact>
</mgrwt>
</event>
<event>
 4    1  0.1043382E-007  0.6750401E+03  0.7818608E-02  0.1012281E+00
          1   -1    0    0  501    0  0.00000000000E+00  0.00000000000E+00  0.14830172992E+04  0.14830172992E+04  0.50400000000E-02 0. -1.
         -1   -1    0    0    0  501 -0.00000000000E+00 -0.00000000000E+00 -0.44691528737E+03  0.44691528740E+03  0.50400000000E-02 0.  1.
    8880023    1    1    2    0    0  0.19688050598E+01  0.14786834697E+03 -0.17736911173E+03  0.69795338834E+03  0.65864270000E+03 0.  1.
    8880022    1    1    2    0    0 -0.19688050598E+01 -0.14786834697E+03  0.12134711235E+04  0.12319791982E+04  0.15294330000E+03 0.  0.
<mgrwt>
<rscale>  0 0.50578062E+03</rscale>
<asrwt>0</asrwt>
<pdfrwt beam="1">  1        1 0.22815651E+00 0.67504010E+03</pdfrwt>
<pdfrwt beam="2">  1       -1 0.68756197E-01 0.67504010E+03</pdfrwt>
<totfact> 0.15072883E+01</totfact>
</mgrwt>
</event>
<event>
 4    1  0.1134532E-007  0.7934748E+03  0.7818608E-02  0.9725087E-01
         -1   -1    0    0    0  501 -0.00000000000E+00  0.00000000000E+00  0.65781843377E+03  0.65781843379E+03  0.50400000000E-02 0.  1.
          1   -1    0    0  501    0  0.00000000000E+00 -0.00000000000E+00 -0.16232749704E+04  0.16232749704E+04  0.50400000000E-02 0. -1.
    8880023    1    1    2    0    0 -0.37708942787E+03 -0.23150721769E+03  0.36299198275E+03  0.87256255607E+03  0.65864270000E+03 0.  1.
    8880022    1    1    2    0    0  0.37708942787E+03  0.23150721769E+03 -0.13284485194E+04  0.14085308482E+04  0.15294330000E+03 0.  0.
<mgrwt>
<rscale>  0 0.69542592E+03</rscale>
<asrwt>0</asrwt>
<pdfrwt beam="1">  1        1 0.24973461E+00 0.79347479E+03</pdfrwt>
<pdfrwt beam="2">  1       -1 0.10120284E+00 0.79347479E+03</pdfrwt>
<totfact> 0.51678395E+00</totfact>
</mgrwt>
</event>
<event>
 4    1  0.1249405E-007  0.7032641E+03  0.7818608E-02  0.9983920E-01
         -1   -1    0    0    0  501 -0.00000000000E+00  0.00000000000E+00  0.54111958133E+03  0.54111958136E+03  0.50400000000E-02 0.  1.
          1   -1    0    0  501    0  0.00000000000E+00 -0.00000000000E+00 -0.18091089991E+04  0.18091089991E+04  0.50400000000E-02 0. -1.
    8880023    1    1    2    0    0  0.23463504235E+03  0.75608534729E+02  0.29347581131E+03  0.76204232934E+03  0.65864270000E+03 0.  1.
    8880022    1    1    2    0    0 -0.23463504235E+03 -0.75608534729E+02 -0.15614652291E+04  0.15881862511E+04  0.15294330000E+03 0.  0.
<mgrwt>
<rscale>  0 0.56360950E+03</rscale>
<asrwt>0</asrwt>
<pdfrwt beam="1">  1        1 0.27832446E+00 0.70326415E+03</pdfrwt>
<pdfrwt beam="2">  1       -1 0.83249167E-01 0.70326415E+03</pdfrwt>
<totfact> 0.60639069E+00</totfact>
</mgrwt>
</event>
<event>
 4    1  0.1043382E-007  0.7535035E+03  0.7818608E-02  0.9822226E-01
          1   -1    0    0  501    0  0.00000000000E+00  0.00000000000E+00  0.10326867019E+04  0.10326867020E+04  0.50400000000E-02 0. -1.
         -1   -1    0    0    0  501 -0.00000000000E+00 -0.00000000000E+00 -0.34872784904E+03  0.34872784907E+03  0.50400000000E-02 0.  1.
    8880023    1    1    2    0    0  0.32361073584E+03 -0.17097770302E+03  0.25098454872E+03  0.79420446564E+03  0.65864270000E+03 0.  1.
    8880022    1    1    2    0    0 -0.32361073584E+03  0.17097770302E+03  0.43297430419E+03  0.58721008539E+03  0.15294330000E+03 0.  1.
<mgrwt>
<rscale>  0 0.64183282E+03</rscale>
<asrwt>0</asrwt>
<pdfrwt beam="1">  1        1 0.15887488E+00 0.75350348E+03</pdfrwt>
<pdfrwt beam="2">  1       -1 0.53650439E-01 0.75350348E+03</pdfrwt>
<totfact> 0.51222708E+01</totfact>
</mgrwt>
</event>
<event>
 4    1  0.1043382E-007  0.1050928E+04  0.7818608E-02  0.9317767E-01
         -1   -1    0    0    0  501 -0.00000000000E+00  0.00000000000E+00  0.41147291797E+03  0.41147291800E+03  0.50400000000E-02 0.  1.
          1   -1    0    0  501    0  0.00000000000E+00 -0.00000000000E+00 -0.24253444311E+04  0.24253444311E+04  0.50400000000E-02 0. -1.
    8880023    1    1    2    0    0 -0.50850555137E+03 -0.64191996450E+03 -0.15798161180E+04  0.18974373005E+04  0.65864270000E+03 0. -1.
    8880022    1    1    2    0    0  0.50850555137E+03  0.64191996450E+03 -0.43405539517E+03  0.93938004859E+03  0.15294330000E+03 0.  0.
<mgrwt>
<rscale>  0 0.99163539E+03</rscale>
<asrwt>0</asrwt>
<pdfrwt beam="1">  1        1 0.37312990E+00 0.10509278E+04</pdfrwt>
<pdfrwt beam="2">  1       -1 0.63303527E-01 0.10509278E+04</pdfrwt>
<totfact> 0.39034759E+00</totfact>
</mgrwt>
</event>
<event>
 4    1  0.1043382E-007  0.7649279E+03  0.7818608E-02  0.9792513E-01
          1   -1    0    0  501    0  0.00000000000E+00  0.00000000000E+00  0.24202603815E+04  0.24202603815E+04  0.50400000000E-02 0. -1.
         -1   -1    0    0    0  501 -0.00000000000E+00 -0.00000000000E+00 -0.14461232299E+03  0.14461232308E+03  0.50400000000E-02 0.  1.
    8880023    1    1    2    0    0  0.22859043594E+03 -0.31472355729E+03  0.14999181070E+04  0.16837069338E+04  0.65864270000E+03 0.  0.
    8880022    1    1    2    0    0 -0.22859043594E+03  0.31472355729E+03  0.77572995146E+03  0.88116577074E+03  0.15294330000E+03 0. -1.
<mgrwt>
<rscale>  0 0.65765905E+03</rscale>
<asrwt>0</asrwt>
<pdfrwt beam="1">  1        1 0.37234773E+00 0.76492791E+03</pdfrwt>
<pdfrwt beam="2">  1       -1 0.22248051E-01 0.76492791E+03</pdfrwt>
<totfact> 0.27396188E+01</totfact>
</mgrwt>
</event>
<event>
 4    1  0.1043382E-007  0.8184613E+03  0.7818608E-02  0.9672215E-01
         -1   -1    0    0    0  501 -0.00000000000E+00  0.00000000000E+00  0.14197338607E+04  0.14197338607E+04  0.50400000000E-02 0.  1.
          1   -1    0    0  501    0  0.00000000000E+00 -0.00000000000E+00 -0.66246428095E+03  0.66246428097E+03  0.50400000000E-02 0. -1.
    8880023    1    1    2    0    0  0.28384769862E+03 -0.39433386576E+03  0.11691325172E+04  0.14271474215E+04  0.65864270000E+03 0.  1.
    8880022    1    1    2    0    0 -0.28384769862E+03  0.39433386576E+03 -0.41186293747E+03  0.65505072015E+03  0.15294330000E+03 0.  0.
<mgrwt>
<rscale>  0 0.72695495E+03</rscale>
<asrwt>0</asrwt>
<pdfrwt beam="1">  1        1 0.10191758E+00 0.81846131E+03</pdfrwt>
<pdfrwt beam="2">  1       -1 0.21842059E+00 0.81846131E+03</pdfrwt>
<totfact> 0.34359994E+00</totfact>
</mgrwt>
</event>
<event>
 4    1  0.1043382E-007  0.6680789E+03  0.7818608E-02  0.1017079E+00
          1   -1    0    0  501    0  0.00000000000E+00  0.00000000000E+00  0.19857545821E+04  0.19857545821E+04  0.50400000000E-02 0. -1.
         -1   -1    0    0    0  501 -0.00000000000E+00 -0.00000000000E+00 -0.14532567315E+03  0.14532567324E+03  0.50400000000E-02 0.  1.
    8880023    1    1    2    0    0  0.90675842511E+02 -0.65552770325E+02  0.67271672806E+03  0.94809138620E+03  0.65864270000E+03 0.  1.
    8880022    1    1    2    0    0 -0.90675842511E+02  0.65552770325E+02  0.11677121808E+04  0.11829888691E+04  0.15294330000E+03 0.  0.
<mgrwt>
<rscale>  0 0.48755562E+03</rscale>
<asrwt>0</asrwt>
<pdfrwt beam="1">  1        1 0.30550070E+00 0.66807895E+03</pdfrwt>
<pdfrwt beam="2">  1       -1 0.22357797E-01 0.66807895E+03</pdfrwt>
<totfact> 0.53875716E+01</totfact>
</mgrwt>
</event>
<event>
 4    1  0.1043382E-007  0.7280381E+03  0.7818608E-02  0.9896271E-01
         -1   -1    0    0    0  501 -0.00000000000E+00  0.00000000000E+00  0.32362775819E+03  0.32362775823E+03  0.50400000000E-02 0.  1.
          1   -1    0    0  501    0  0.00000000000E+00 -0.00000000000E+00 -0.16793335973E+04  0.16793335973E+04  0.50400000000E-02 0. -1.
    8880023    1    1    2    0    0 -0.21226048646E+03 -0.22621834398E+03 -0.14306417064E+03  0.74196146561E+03  0.65864270000E+03 0.  0.
    8880022    1    1    2    0    0  0.21226048646E+03  0.22621834398E+03 -0.12126416685E+04  0.12609998899E+04  0.15294330000E+03 0.  0.
<mgrwt>
<rscale>  0 0.60442367E+03</rscale>
<asrwt>0</asrwt>
<pdfrwt beam="1">  1        1 0.25835901E+00 0.72803809E+03</pdfrwt>
<pdfrwt beam="2">  1       -1 0.49788887E-01 0.72803809E+03</pdfrwt>
<totfact> 0.20712438E+01</totfact>
</mgrwt>
</event>
<event>
 4    1  0.1043382E-007  0.9444062E+03  0.7818608E-02  0.9458208E-01
         -1   -1    0    0    0  501 -0.00000000000E+00  0.00000000000E+00  0.58639578320E+03  0.58639578322E+03  0.50400000000E-02 0.  1.
          1   -1    0    0  501    0  0.00000000000E+00 -0.00000000000E+00 -0.25108153672E+04  0.25108153672E+04  0.50400000000E-02 0. -1.
    8880023    1    1    2    0    0 -0.61525113121E+03  0.28206177990E+03  0.10709692491E+03  0.95045923623E+03  0.65864270000E+03 0.  0.
    8880022    1    1    2    0    0  0.61525113121E+03 -0.28206177990E+03 -0.20315165089E+04  0.21467519142E+04  0.15294330000E+03 0.  0.
<mgrwt>
<rscale>  0 0.87436325E+03</rscale>
<asrwt>0</asrwt>
<pdfrwt beam="1">  1        1 0.38627928E+00 0.94440617E+03</pdfrwt>
<pdfrwt beam="2">  1       -1 0.90214737E-01 0.94440617E+03</pdfrwt>
<totfact> 0.16445539E+00</totfact>
</mgrwt>
</event>
<event>
 4    1  0.1043382E-007  0.7216989E+03  0.7818608E-02  0.9916879E-01
          1   -1    0    0  501    0  0.00000000000E+00  0.00000000000E+00  0.28517581817E+04  0.28517581817E+04  0.50400000000E-02 0. -1.
         -1   -1    0    0    0  501 -0.00000000000E+00 -0.00000000000E+00 -0.40097708082E+03  0.40097708085E+03  0.50400000000E-02 0.  1.
    8880023    1    1    2    0    0  0.21049864472E+03  0.20671095382E+03 -0.56145392277E+02  0.72387955434E+03  0.65864270000E+03 0.  1.
    8880022    1    1    2    0    0 -0.21049864472E+03 -0.20671095382E+03  0.25069264931E+04  0.25288557082E+04  0.15294330000E+03 0.  0.
<mgrwt>
<rscale>  0 0.59450195E+03</rscale>
<asrwt>0</asrwt>
<pdfrwt beam="1">  1        1 0.43873203E+00 0.72169890E+03</pdfrwt>
<pdfrwt beam="2">  1       -1 0.61688782E-01 0.72169890E+03</pdfrwt>
<totfact> 0.21970539E+00</totfact>
</mgrwt>
</event>
<event>
 4    1  0.1043382E-007  0.7316722E+03  0.7818608E-02  0.9884905E-01
          1   -1    0    0  501    0  0.00000000000E+00  0.00000000000E+00  0.13894073384E+04  0.13894073384E+04  0.50400000000E-02 0. -1.
         -1   -1    0    0    0  501 -0.00000000000E+00 -0.00000000000E+00 -0.35079523050E+03  0.35079523054E+03  0.50400000000E-02 0.  1.
    8880023    1    1    2    0    0  0.12358211303E+03 -0.29370290120E+03  0.10153430793E+03  0.73868352816E+03  0.65864270000E+03 0.  0.
    8880022    1    1    2    0    0 -0.12358211303E+03  0.29370290120E+03  0.93707779995E+03  0.10015190408E+04  0.15294330000E+03 0. -1.
<mgrwt>
<rscale>  0 0.60998453E+03</rscale>
<asrwt>0</asrwt>
<pdfrwt beam="1">  1        1 0.21375497E+00 0.73167215E+03</pdfrwt>
<pdfrwt beam="2">  1       -1 0.53968497E-01 0.73167215E+03</pdfrwt>
<totfact> 0.27998297E+01</totfact>
</mgrwt>
</event>
<event>
 4    1  0.1043382E-007  0.7304117E+03  0.7818608E-02  0.9888812E-01
          1   -1    0    0  501    0  0.00000000000E+00  0.00000000000E+00  0.12714936141E+04  0.12714936141E+04  0.50400000000E-02 0. -1.
         -1   -1    0    0    0  501 -0.00000000000E+00 -0.00000000000E+00 -0.69846891654E+03  0.69846891656E+03  0.50400000000E-02 0.  1.
    8880023    1    1    2    0    0  0.23509959532E+03 -0.21075870334E+03 -0.47063989181E+03  0.86890918098E+03  0.65864270000E+03 0.  0.
    8880022    1    1    2    0    0 -0.23509959532E+03  0.21075870334E+03  0.10436645894E+04  0.11010533497E+04  0.15294330000E+03 0.  0.
<mgrwt>
<rscale>  0 0.60806558E+03</rscale>
<asrwt>0</asrwt>
<pdfrwt beam="1">  1        1 0.19561440E+00 0.73041170E+03</pdfrwt>
<pdfrwt beam="2">  1       -1 0.10745676E+00 0.73041170E+03</pdfrwt>
<totfact> 0.79508037E+00</totfact>
</mgrwt>
</event>
<event>
 4    1  0.1043382E-007  0.8337510E+03  0.7818608E-02  0.9642078E-01
         -1   -1    0    0    0  501 -0.00000000000E+00  0.00000000000E+00  0.10337803270E+04  0.10337803270E+04  0.50400000000E-02 0.  1.
          1   -1    0    0  501    0  0.00000000000E+00 -0.00000000000E+00 -0.10806808759E+04  0.10806808759E+04  0.50400000000E-02 0. -1.
    8880023    1    1    2    0    0 -0.33545383728E+03 -0.38574757178E+03  0.77251381732E+03  0.11366258269E+04  0.65864270000E+03 0.  1.
    8880022    1    1    2    0    0  0.33545383728E+03  0.38574757178E+03 -0.81941436624E+03  0.97783537607E+03  0.15294330000E+03 0.  0.
<mgrwt>
<rscale>  0 0.74572708E+03</rscale>
<asrwt>0</asrwt>
<pdfrwt beam="1">  1        1 0.16625860E+00 0.83375097E+03</pdfrwt>
<pdfrwt beam="2">  1       -1 0.15904313E+00 0.83375097E+03</pdfrwt>
<totfact> 0.39952121E+00</totfact>
</mgrwt>
</event>
<event>
 4    1  0.1043382E-007  0.6980079E+03  0.7818608E-02  0.1000557E+00
          1   -1    0    0  501    0  0.00000000000E+00  0.00000000000E+00  0.22356961385E+04  0.22356961385E+04  0.50400000000E-02 0. -1.
         -1   -1    0    0    0  501 -0.00000000000E+00 -0.00000000000E+00 -0.62065497970E+03  0.62065497972E+03  0.50400000000E-02 0.  1.
    8880023    1    1    2    0    0 -0.99567554981E+02  0.20854510623E+03 -0.41194971482E+03  0.81050449298E+03  0.65864270000E+03 0.  1.
    8880022    1    1    2    0    0  0.99567554981E+02 -0.20854510623E+03  0.20269908736E+04  0.20458466252E+04  0.15294330000E+03 0.  0.
<mgrwt>
<rscale>  0 0.55406772E+03</rscale>
<asrwt>0</asrwt>
<pdfrwt beam="1">  1        1 0.34395325E+00 0.69800785E+03</pdfrwt>
<pdfrwt beam="2">  1       -1 0.95485382E-01 0.69800785E+03</pdfrwt>
<totfact> 0.23316035E+00</totfact>
</mgrwt>
</event>
<event>
 4    1  0.1043382E-007  0.7079620E+03  0.7818608E-02  0.9965648E-01
         -1   -1    0    0    0  501 -0.00000000000E+00  0.00000000000E+00  0.11150059920E+04  0.11150059920E+04  0.50400000000E-02 0.  1.
          1   -1    0    0  501    0  0.00000000000E+00 -0.00000000000E+00 -0.58022280201E+03  0.58022280203E+03  0.50400000000E-02 0. -1.
    8880023    1    1    2    0    0 -0.24794092516E+03  0.76975719620E+02  0.94839737088E+03  0.11834980960E+04  0.65864270000E+03 0.  0.
    8880022    1    1    2    0    0  0.24794092516E+03 -0.76975719620E+02 -0.41361418085E+03  0.51173069812E+03  0.15294330000E+03 0.  0.
<mgrwt>
<rscale>  0 0.57182504E+03</rscale>
<asrwt>0</asrwt>
<pdfrwt beam="1">  1        1 0.89265047E-01 0.70796198E+03</pdfrwt>
<pdfrwt beam="2">  1       -1 0.17153938E+00 0.70796198E+03</pdfrwt>
<totfact> 0.89381393E+00</totfact>
</mgrwt>
</event>
<event>
 4    1  0.1043382E-007  0.9238749E+03  0.7818608E-02  0.9488743E-01
          1   -1    0    0  501    0  0.00000000000E+00  0.00000000000E+00  0.11197776629E+04  0.11197776629E+04  0.50400000000E-02 0. -1.
         -1   -1    0    0    0  501 -0.00000000000E+00 -0.00000000000E+00 -0.57660649745E+03  0.57660649747E+03  0.50400000000E-02 0.  1.
    8880023    1    1    2    0    0 -0.55445914671E+03 -0.33512625316E+03  0.43802757594E+03  0.10224543581E+04  0.65864270000E+03 0. -1.
    8880022    1    1    2    0    0  0.55445914671E+03  0.33512625316E+03  0.10514358950E+03  0.67392980224E+03  0.15294330000E+03 0.  1.
<mgrwt>
<rscale>  0 0.85118859E+03</rscale>
<asrwt>0</asrwt>
<pdfrwt beam="1">  1        1 0.17227348E+00 0.92387486E+03</pdfrwt>
<pdfrwt beam="2">  1       -1 0.88708693E-01 0.92387486E+03</pdfrwt>
<totfact> 0.15445797E+01</totfact>
</mgrwt>
</event>
<event>
 4    1  0.1043382E-007  0.9905750E+03  0.7818608E-02  0.9393994E-01
         -1   -1    0    0    0  501 -0.00000000000E+00  0.00000000000E+00  0.70018828511E+03  0.70018828513E+03  0.50400000000E-02 0.  1.
          1   -1    0    0  501    0  0.00000000000E+00 -0.00000000000E+00 -0.23180310585E+04  0.23180310585E+04  0.50400000000E-02 0. -1.
    8880023    1    1    2    0    0  0.56926810360E+03 -0.47261240824E+03  0.23429890437E+03  0.10179070906E+04  0.65864270000E+03 0.  0.
    8880022    1    1    2    0    0 -0.56926810360E+03  0.47261240824E+03 -0.18521416778E+04  0.20003122531E+04  0.15294330000E+03 0.  0.
<mgrwt>
<rscale>  0 0.92571640E+03</rscale>
<asrwt>0</asrwt>
<pdfrwt beam="1">  1        1 0.35662016E+00 0.99057502E+03</pdfrwt>
<pdfrwt beam="2">  1       -1 0.10772128E+00 0.99057502E+03</pdfrwt>
<totfact> 0.14752519E+00</totfact>
</mgrwt>
</event>
<event>
 4    1  0.1043382E-007  0.7001630E+03  0.7818608E-02  0.9996526E-01
          1   -1    0    0  501    0  0.00000000000E+00  0.00000000000E+00  0.15619979217E+04  0.15619979218E+04  0.50400000000E-02 0. -1.
         -1   -1    0    0    0  501 -0.00000000000E+00 -0.00000000000E+00 -0.21517697838E+03  0.21517697844E+03  0.50400000000E-02 0.  1.
    8880023    1    1    2    0    0 -0.22537784145E+03  0.74985504402E+02  0.43898720206E+03  0.82640060934E+03  0.65864270000E+03 0.  1.
    8880022    1    1    2    0    0  0.22537784145E+03 -0.74985504402E+02  0.90783374130E+03  0.95077429085E+03  0.15294330000E+03 0.  0.
<mgrwt>
<rscale>  0 0.55802838E+03</rscale>
<asrwt>0</asrwt>
<pdfrwt beam="1">  1        1 0.24030738E+00 0.70016298E+03</pdfrwt>
<pdfrwt beam="2">  1       -1 0.33104149E-01 0.70016298E+03</pdfrwt>
<totfact> 0.52529949E+01</totfact>
</mgrwt>
</event>
<event>
 4    1  0.1249582E-007  0.6659795E+03  0.7818608E-02  0.1018725E+00
          1   -1    0    0  501    0  0.00000000000E+00  0.00000000000E+00  0.10841189520E+04  0.10841189520E+04  0.50400000000E-02 0. -1.
         -1   -1    0    0    0  501 -0.00000000000E+00 -0.00000000000E+00 -0.10027923463E+04  0.10027923463E+04  0.50400000000E-02 0.  1.
    8880023    1    1    2    0    0  0.87373510340E+02 -0.45654779328E+02 -0.88276172036E+03  0.11058014968E+04  0.65864270000E+03 0.  1.
    8880022    1    1    2    0    0 -0.87373510340E+02  0.45654779328E+02  0.96408832605E+03  0.98110980152E+03  0.15294330000E+03 0.  0.
<mgrwt>
<rscale>  0 0.48149389E+03</rscale>
<asrwt>0</asrwt>
<pdfrwt beam="1">  1        1 0.16678753E+00 0.66597950E+03</pdfrwt>
<pdfrwt beam="2">  1       -1 0.15427574E+00 0.66597950E+03</pdfrwt>
<totfact> 0.44371056E+00</totfact>
</mgrwt>
</event>
<event>
 4    1  0.1043382E-007  0.8076700E+03  0.7818608E-02  0.9694451E-01
         -1   -1    0    0    0  501 -0.00000000000E+00  0.00000000000E+00  0.83829992493E+03  0.83829992495E+03  0.50400000000E-02 0.  1.
          1   -1    0    0  501    0  0.00000000000E+00 -0.00000000000E+00 -0.10761884790E+04  0.10761884790E+04  0.50400000000E-02 0. -1.
    8880023    1    1    2    0    0  0.44532176303E+03 -0.14215888249E+03  0.55603043589E+03  0.98056140674E+03  0.65864270000E+03 0.  1.
    8880022    1    1    2    0    0 -0.44532176303E+03  0.14215888249E+03 -0.79391898993E+03  0.93392699719E+03  0.15294330000E+03 0.  0.
<mgrwt>
<rscale>  0 0.71348147E+03</rscale>
<asrwt>0</asrwt>
<pdfrwt beam="1">  1        1 0.16556746E+00 0.80767000E+03</pdfrwt>
<pdfrwt beam="2">  1       -1 0.12896922E+00 0.80767000E+03</pdfrwt>
<totfact> 0.70208823E+00</totfact>
</mgrwt>
</event>
<event>
 4    1  0.1043382E-007  0.1192070E+04  0.7818608E-02  0.9164869E-01
         -1   -1    0    0    0  501 -0.00000000000E+00  0.00000000000E+00  0.82193403337E+03  0.82193403338E+03  0.50400000000E-02 0.  1.
          1   -1    0    0  501    0  0.00000000000E+00 -0.00000000000E+00 -0.35187710874E+04  0.35187710874E+04  0.50400000000E-02 0. -1.
    8880023    1    1    2    0    0 -0.51140754454E+03 -0.85187067408E+03  0.25788708363E+03  0.12196463734E+04  0.65864270000E+03 0.  0.
    8880022    1    1    2    0    0  0.51140754454E+03  0.85187067408E+03 -0.29547241377E+04  0.31210587474E+04  0.15294330000E+03 0.  0.
<mgrwt>
<rscale>  0 0.11423508E+04</rscale>
<asrwt>0</asrwt>
<pdfrwt beam="1">  1        1 0.54134939E+00 0.11920703E+04</pdfrwt>
<pdfrwt beam="2">  1       -1 0.12645139E+00 0.11920703E+04</pdfrwt>
<totfact> 0.13182481E-01</totfact>
</mgrwt>
</event>
<event>
 4    1  0.1043382E-007  0.9411285E+03  0.7818608E-02  0.9462995E-01
          1   -1    0    0  501    0  0.00000000000E+00  0.00000000000E+00  0.12992616645E+04  0.12992616645E+04  0.50400000000E-02 0. -1.
         -1   -1    0    0    0  501 -0.00000000000E+00 -0.00000000000E+00 -0.77426512213E+03  0.77426512214E+03  0.50400000000E-02 0.  1.
    8880023    1    1    2    0    0  0.56869801035E+03  0.35846236910E+03 -0.30983922330E+03  0.99081948285E+03  0.65864270000E+03 0.  0.
    8880022    1    1    2    0    0 -0.56869801035E+03 -0.35846236910E+03  0.83483576568E+03  0.10827073038E+04  0.15294330000E+03 0.  0.
<mgrwt>
<rscale>  0 0.87067921E+03</rscale>
<asrwt>0</asrwt>
<pdfrwt beam="1">  1        1 0.19988641E+00 0.94112853E+03</pdfrwt>
<pdfrwt beam="2">  1       -1 0.11911771E+00 0.94112853E+03</pdfrwt>
<totfact> 0.57722745E+00</totfact>
</mgrwt>
</event>
<event>
 4    1  0.1043382E-007  0.6927741E+03  0.7818608E-02  0.1002861E+00
          1   -1    0    0  501    0  0.00000000000E+00  0.00000000000E+00  0.16533681546E+04  0.16533681546E+04  0.50400000000E-02 0. -1.
         -1   -1    0    0    0  501 -0.00000000000E+00 -0.00000000000E+00 -0.30233111141E+03  0.30233111145E+03  0.50400000000E-02 0.  1.
    8880023    1    1    2    0    0 -0.19927997468E+03  0.80082690500E+02  0.12791809484E+03  0.70448491175E+03  0.65864270000E+03 0.  1.
    8880022    1    1    2    0    0  0.19927997468E+03 -0.80082690500E+02  0.12231189484E+04  0.12512143543E+04  0.15294330000E+03 0.  0.
<mgrwt>
<rscale>  0 0.54413345E+03</rscale>
<asrwt>0</asrwt>
<pdfrwt beam="1">  1        1 0.25436433E+00 0.69277410E+03</pdfrwt>
<pdfrwt beam="2">  1       -1 0.46512479E-01 0.69277410E+03</pdfrwt>
<totfact> 0.24626385E+01</totfact>
</mgrwt>
</event>
<event>
 4    1  0.1043382E-007  0.1045404E+04  0.7818608E-02  0.9324427E-01
         -1   -1    0    0    0  501 -0.00000000000E+00  0.00000000000E+00  0.71080082596E+03  0.71080082598E+03  0.50400000000E-02 0.  1.
          1   -1    0    0  501    0  0.00000000000E+00 -0.00000000000E+00 -0.21585423815E+04  0.21585423815E+04  0.50400000000E-02 0. -1.
    8880023    1    1    2    0    0 -0.77356262862E+03 -0.24629384250E+03  0.16403005931E+03  0.10581946248E+04  0.65864270000E+03 0.  1.
    8880022    1    1    2    0    0  0.77356262862E+03  0.24629384250E+03 -0.16117716148E+04  0.18111485827E+04  0.15294330000E+03 0.  0.
<mgrwt>
<rscale>  0 0.98564871E+03</rscale>
<asrwt>0</asrwt>
<pdfrwt beam="1">  1        1 0.33208344E+00 0.10454042E+04</pdfrwt>
<pdfrwt beam="2">  1       -1 0.10935397E+00 0.10454042E+04</pdfrwt>
<totfact> 0.18111186E+00</totfact>
</mgrwt>
</event>
<event>
 4    1  0.1043382E-007  0.6605292E+03  0.7818608E-02  0.1023621E+00
         -1   -1    0    0    0  501 -0.00000000000E+00  0.00000000000E+00  0.83627654461E+03  0.83627654463E+03  0.50400000000E-02 0.  1.
          1   -1    0    0  501    0  0.00000000000E+00 -0.00000000000E+00 -0.35248552208E+03  0.35248552211E+03  0.50400000000E-02 0. -1.
    8880023    1    1    2    0    0 -0.45993153293E+02  0.19318995041E+02  0.67124792150E+03  0.94173912104E+03  0.65864270000E+03 0.  1.
    8880022    1    1    2    0    0  0.45993153293E+02 -0.19318995041E+02 -0.18745689896E+03  0.24702294570E+03  0.15294330000E+03 0.  0.
<mgrwt>
<rscale>  0 0.46402359E+03</rscale>
<asrwt>0</asrwt>
<pdfrwt beam="1">  1        1 0.54228542E-01 0.66052918E+03</pdfrwt>
<pdfrwt beam="2">  1       -1 0.12865793E+00 0.66052918E+03</pdfrwt>
<totfact> 0.38061593E+01</totfact>
</mgrwt>
</event>
<event>
 4    1  0.1043382E-007  0.8658602E+03  0.7818608E-02  0.9583223E-01
          1   -1    0    0  501    0  0.00000000000E+00  0.00000000000E+00  0.63959209274E+03  0.63959209276E+03  0.50400000000E-02 0. -1.
         -1   -1    0    0    0  501 -0.00000000000E+00 -0.00000000000E+00 -0.34179523879E+04  0.34179523879E+04  0.50400000000E-02 0.  1.
    8880023    1    1    2    0    0  0.20381765074E+03  0.52379585800E+03 -0.32150081298E+04  0.33295632171E+04  0.65864270000E+03 0.  1.
    8880022    1    1    2    0    0 -0.20381765074E+03 -0.52379585800E+03  0.43664783464E+03  0.72798126358E+03  0.15294330000E+03 0.  0.
<mgrwt>
<rscale>  0 0.78416615E+03</rscale>
<asrwt>0</asrwt>
<pdfrwt beam="1">  1        1 0.98398785E-01 0.86586023E+03</pdfrwt>
<pdfrwt beam="2">  1       -1 0.52583882E+00 0.86586023E+03</pdfrwt>
<totfact> 0.33222890E-02</totfact>
</mgrwt>
</event>
<event>
 4    1  0.1043382E-007  0.1088255E+04  0.7818608E-02  0.9274247E-01
         -1   -1    0    0    0  501 -0.00000000000E+00  0.00000000000E+00  0.76569568027E+03  0.76569568028E+03  0.50400000000E-02 0.  1.
          1   -1    0    0  501    0  0.00000000000E+00 -0.00000000000E+00 -0.25434854199E+04  0.25434854199E+04  0.50400000000E-02 0. -1.
    8880023    1    1    2    0    0  0.63063858582E+03  0.59395571638E+03  0.23429707538E+03  0.11131907944E+04  0.65864270000E+03 0.  0.
    8880022    1    1    2    0    0 -0.63063858582E+03 -0.59395571638E+03 -0.20120868150E+04  0.21959903058E+04  0.15294330000E+03 0.  0.
<mgrwt>
<rscale>  0 0.10318871E+04</rscale>
<asrwt>0</asrwt>
<pdfrwt beam="1">  1        1 0.39130544E+00 0.10882549E+04</pdfrwt>
<pdfrwt beam="2">  1       -1 0.11779934E+00 0.10882549E+04</pdfrwt>
<totfact> 0.82262250E-01</totfact>
</mgrwt>
</event>
<event>
 4    1  0.1043382E-007  0.9428327E+03  0.7818608E-02  0.9460502E-01
          1   -1    0    0  501    0  0.00000000000E+00  0.00000000000E+00  0.29258297164E+04  0.29258297164E+04  0.50400000000E-02 0. -1.
         -1   -1    0    0    0  501 -0.00000000000E+00 -0.00000000000E+00 -0.36441088365E+03  0.36441088368E+03  0.50400000000E-02 0.  1.
    8880023    1    1    2    0    0 -0.18596333320E+03  0.64849133309E+03  0.40598902311E+03  0.10265284524E+04  0.65864270000E+03 0.  0.
    8880022    1    1    2    0    0  0.18596333320E+03 -0.64849133309E+03  0.21554298096E+04  0.22637121477E+04  0.15294330000E+03 0.  0.
<mgrwt>
<rscale>  0 0.87259544E+03</rscale>
<asrwt>0</asrwt>
<pdfrwt beam="1">  1        1 0.45012763E+00 0.94283274E+03</pdfrwt>
<pdfrwt beam="2">  1       -1 0.56063215E-01 0.94283274E+03</pdfrwt>
<totfact> 0.22560144E+00</totfact>
</mgrwt>
</event>
<event>
 4    1  0.1043382E-007  0.7827984E+03  0.7818608E-02  0.9749304E-01
         -1   -1    0    0    0  501 -0.00000000000E+00  0.00000000000E+00  0.28762387388E+03  0.28762387393E+03  0.50400000000E-02 0.  1.
          1   -1    0    0  501    0  0.00000000000E+00 -0.00000000000E+00 -0.32966965287E+04  0.32966965287E+04  0.50400000000E-02 0. -1.
    8880023    1    1    2    0    0 -0.42054270805E+03  0.45901616995E+02 -0.30025725598E+03  0.83840786839E+03  0.65864270000E+03 0.  1.
    8880022    1    1    2    0    0  0.42054270805E+03 -0.45901616995E+02 -0.27088153988E+04  0.27459125342E+04  0.15294330000E+03 0.  0.
<mgrwt>
<rscale>  0 0.68155613E+03</rscale>
<asrwt>0</asrwt>
<pdfrwt beam="1">  1        1 0.50718406E+00 0.78279840E+03</pdfrwt>
<pdfrwt beam="2">  1       -1 0.44249829E-01 0.78279840E+03</pdfrwt>
<totfact> 0.19500190E+00</totfact>
</mgrwt>
</event>
<event>
 4    1  0.1043382E-007  0.6789896E+03  0.7818608E-02  0.1009901E+00
         -1   -1    0    0    0  501 -0.00000000000E+00  0.00000000000E+00  0.32255495251E+03  0.32255495254E+03  0.50400000000E-02 0.  1.
          1   -1    0    0  501    0  0.00000000000E+00 -0.00000000000E+00 -0.16588323294E+04  0.16588323294E+04  0.50400000000E-02 0. -1.
    8880023    1    1    2    0    0 -0.10682886349E+03 -0.12571521518E+03 -0.55777927448E+02  0.68127681955E+03  0.65864270000E+03 0.  1.
    8880022    1    1    2    0    0  0.10682886349E+03  0.12571521518E+03 -0.12804994495E+04  0.13001104624E+04  0.15294330000E+03 0.  0.
<mgrwt>
<rscale>  0 0.51513986E+03</rscale>
<asrwt>0</asrwt>
<pdfrwt beam="1">  1        1 0.25520497E+00 0.67898964E+03</pdfrwt>
<pdfrwt beam="2">  1       -1 0.49623840E-01 0.67898964E+03</pdfrwt>
<totfact> 0.21667999E+01</totfact>
</mgrwt>
</event>
<event>
 4    1  0.1043382E-007  0.9041608E+03  0.7818608E-02  0.9519385E-01
         -1   -1    0    0    0  501 -0.00000000000E+00  0.00000000000E+00  0.45209523299E+03  0.45209523301E+03  0.50400000000E-02 0.  1.
          1   -1    0    0  501    0  0.00000000000E+00 -0.00000000000E+00 -0.16597507890E+04  0.16597507890E+04  0.50400000000E-02 0. -1.
    8880023    1    1    2    0    0  0.16939964218E+03  0.59581903495E+03 -0.11617932628E+04  0.14721651921E+04  0.65864270000E+03 0. -1.
    8880022    1    1    2    0    0 -0.16939964218E+03 -0.59581903495E+03 -0.45862293225E+02  0.63968082989E+03  0.15294330000E+03 0.  0.
<mgrwt>
<rscale>  0 0.82869616E+03</rscale>
<asrwt>0</asrwt>
<pdfrwt beam="1">  1        1 0.25534627E+00 0.90416081E+03</pdfrwt>
<pdfrwt beam="2">  1       -1 0.69553114E-01 0.90416081E+03</pdfrwt>
<totfact> 0.10813835E+01</totfact>
</mgrwt>
</event>
<event>
 4    1  0.1043382E-007  0.1372769E+04  0.7818608E-02  0.9005136E-01
          1   -1    0    0  501    0  0.00000000000E+00  0.00000000000E+00  0.20793034220E+04  0.20793034220E+04  0.50400000000E-02 0. -1.
         -1   -1    0    0    0  501 -0.00000000000E+00 -0.00000000000E+00 -0.86968846845E+03  0.86968846846E+03  0.50400000000E-02 0.  1.
    8880023    1    1    2    0    0  0.10662116265E+04  0.56024731451E+03  0.23642456198E+03  0.13929792050E+04  0.65864270000E+03 0.  0.
    8880022    1    1    2    0    0 -0.10662116265E+04 -0.56024731451E+03  0.97319039156E+03  0.15560126854E+04  0.15294330000E+03 0.  0.
<mgrwt>
<rscale>  0 0.13312605E+04</rscale>
<asrwt>0</asrwt>
<pdfrwt beam="1">  1        1 0.31989283E+00 0.13727689E+04</pdfrwt>
<pdfrwt beam="2">  1       -1 0.13379823E+00 0.13727689E+04</pdfrwt>
<totfact> 0.11966089E+00</totfact>
</mgrwt>
</event>
<event>
 4    1  0.1043382E-007  0.8128305E+03  0.7818608E-02  0.9683711E-01
          1   -1    0    0  501    0  0.00000000000E+00  0.00000000000E+00  0.45450216078E+04  0.45450216078E+04  0.50400000000E-02 0. -1.
         -1   -1    0    0    0  501 -0.00000000000E+00 -0.00000000000E+00 -0.26509880690E+03  0.26509880695E+03  0.50400000000E-02 0.  1.
    8880023    1    1    2    0    0  0.14217879617E+03 -0.45460798128E+03  0.41442164461E+03  0.91238080455E+03  0.65864270000E+03 0.  0.
    8880022    1    1    2    0    0 -0.14217879617E+03  0.45460798128E+03  0.38655011563E+04  0.38977396102E+04  0.15294330000E+03 0.  0.
<mgrwt>
<rscale>  0 0.71994970E+03</rscale>
<asrwt>0</asrwt>
<pdfrwt beam="1">  1        1 0.69923409E+00 0.81283051E+03</pdfrwt>
<pdfrwt beam="2">  1       -1 0.40784432E-01 0.81283051E+03</pdfrwt>
<totfact> 0.19055191E-01</totfact>
</mgrwt>
</event>
<event>
 4    1  0.1043382E-007  0.9041666E+03  0.7818608E-02  0.9519376E-01
         -1   -1    0    0    0  501 -0.00000000000E+00  0.00000000000E+00  0.25300620523E+03  0.25300620528E+03  0.50400000000E-02 0.  1.
          1   -1    0    0  501    0  0.00000000000E+00 -0.00000000000E+00 -0.28332046689E+04  0.28332046689E+04  0.50400000000E-02 0. -1.
    8880023    1    1    2    0    0 -0.61474199899E+03 -0.76153153869E+02 -0.84551167411E+03  0.12379043685E+04  0.65864270000E+03 0.  0.
    8880022    1    1    2    0    0  0.61474199899E+03  0.76153153869E+02 -0.17346867895E+04  0.18483065057E+04  0.15294330000E+03 0.  0.
<mgrwt>
<rscale>  0 0.82870280E+03</rscale>
<asrwt>0</asrwt>
<pdfrwt beam="1">  1        1 0.43587762E+00 0.90416660E+03</pdfrwt>
<pdfrwt beam="2">  1       -1 0.38924034E-01 0.90416660E+03</pdfrwt>
<totfact> 0.52412450E+00</totfact>
</mgrwt>
</event>
<event>
 4    1  0.1043382E-007  0.8118324E+03  0.7818608E-02  0.9685773E-01
         -1   -1    0    0    0  501 -0.00000000000E+00  0.00000000000E+00  0.12662919817E+04  0.12662919817E+04  0.50400000000E-02 0.  1.
          1   -1    0    0  501    0  0.00000000000E+00 -0.00000000000E+00 -0.13072810485E+04  0.13072810485E+04  0.50400000000E-02 0. -1.
    8880023    1    1    2    0    0  0.34566958831E+03 -0.32522932758E+03  0.10774181027E+04  0.13490372693E+04  0.65864270000E+03 0.  1.
    8880022    1    1    2    0    0 -0.34566958831E+03  0.32522932758E+03 -0.11184071695E+04  0.12245357609E+04  0.15294330000E+03 0.  0.
<mgrwt>
<rscale>  0 0.71870230E+03</rscale>
<asrwt>0</asrwt>
<pdfrwt beam="1">  1        1 0.20112016E+00 0.81183236E+03</pdfrwt>
<pdfrwt beam="2">  1       -1 0.19481415E+00 0.81183236E+03</pdfrwt>
<totfact> 0.15138449E+00</totfact>
</mgrwt>
</event>
<event>
 4    1  0.1043382E-007  0.6678154E+03  0.7818608E-02  0.1017280E+00
          1   -1    0    0  501    0  0.00000000000E+00  0.00000000000E+00  0.90887116042E+03  0.90887116043E+03  0.50400000000E-02 0. -1.
         -1   -1    0    0    0  501 -0.00000000000E+00 -0.00000000000E+00 -0.31710075545E+03  0.31710075549E+03  0.50400000000E-02 0.  1.
    8880023    1    1    2    0    0  0.91496465971E+02  0.61607996706E+02  0.70361527955E+02  0.67151180140E+03  0.65864270000E+03 0.  0.
    8880022    1    1    2    0    0 -0.91496465971E+02 -0.61607996706E+02  0.52140887702E+03  0.55446011452E+03  0.15294330000E+03 0.  0.
<mgrwt>
<rscale>  0 0.48681135E+03</rscale>
<asrwt>0</asrwt>
<pdfrwt beam="1">  1        1 0.13982633E+00 0.66781536E+03</pdfrwt>
<pdfrwt beam="2">  1       -1 0.48784731E-01 0.66781536E+03</pdfrwt>
<totfact> 0.77399533E+01</totfact>
</mgrwt>
</event>
<event>
 4    1  0.1043382E-007  0.6609164E+03  0.7818608E-02  0.1023237E+00
          1   -1    0    0  501    0  0.00000000000E+00  0.00000000000E+00  0.42636549058E+03  0.42636549061E+03  0.50400000000E-02 0. -1.
         -1   -1    0    0    0  501 -0.00000000000E+00 -0.00000000000E+00 -0.61958214112E+03  0.61958214114E+03  0.50400000000E-02 0.  1.
    8880023    1    1    2    0    0  0.53432321752E+01  0.54514171719E+02 -0.40795277745E+03  0.77668270223E+03  0.65864270000E+03 0.  1.
    8880022    1    1    2    0    0 -0.53432321752E+01 -0.54514171719E+02  0.21473612692E+03  0.26926492952E+03  0.15294330000E+03 0.  0.
<mgrwt>
<rscale>  0 0.46536525E+03</rscale>
<asrwt>0</asrwt>
<pdfrwt beam="1">  1        1 0.65594691E-01 0.66091645E+03</pdfrwt>
<pdfrwt beam="2">  1       -1 0.95320329E-01 0.66091645E+03</pdfrwt>
<totfact> 0.60143675E+01</totfact>
</mgrwt>
</event>
<event>
 4    1  0.1043382E-007  0.9945095E+03  0.7818608E-02  0.9388776E-01
         -1   -1    0    0    0  501 -0.00000000000E+00  0.00000000000E+00  0.12141720688E+04  0.12141720688E+04  0.50400000000E-02 0.  1.
          1   -1    0    0  501    0  0.00000000000E+00 -0.00000000000E+00 -0.99286907587E+03  0.99286907589E+03  0.50400000000E-02 0. -1.
    8880023    1    1    2    0    0 -0.70183618979E+03  0.25032972740E+03  0.77944658720E+03  0.12635609199E+04  0.65864270000E+03 0.  0.
    8880022    1    1    2    0    0  0.70183618979E+03 -0.25032972740E+03 -0.55814359429E+03  0.94348022479E+03  0.15294330000E+03 0.  0.
<mgrwt>
<rscale>  0 0.93005128E+03</rscale>
<asrwt>0</asrwt>
<pdfrwt beam="1">  1        1 0.15274909E+00 0.99450954E+03</pdfrwt>
<pdfrwt beam="2">  1       -1 0.18679570E+00 0.99450954E+03</pdfrwt>
<totfact> 0.28651789E+00</totfact>
</mgrwt>
</event>
<event>
 4    1  0.1043382E-007  0.6989855E+03  0.7818608E-02  0.1000144E+00
         -1   -1    0    0    0  501 -0.00000000000E+00  0.00000000000E+00  0.36924274219E+03  0.36924274222E+03  0.50400000000E-02 0.  1.
          1   -1    0    0  501    0  0.00000000000E+00 -0.00000000000E+00 -0.11432366787E+04  0.11432366787E+04  0.50400000000E-02 0. -1.
    8880023    1    1    2    0    0  0.16411779230E+03 -0.16684102777E+03 -0.10128315243E+02  0.69905891549E+03  0.65864270000E+03 0.  1.
    8880022    1    1    2    0    0 -0.16411779230E+03  0.16684102777E+03 -0.76386562123E+03  0.81342050541E+03  0.15294330000E+03 0.  0.
<mgrwt>
<rscale>  0 0.55587323E+03</rscale>
<asrwt>0</asrwt>
<pdfrwt beam="1">  1        1 0.17588256E+00 0.69898554E+03</pdfrwt>
<pdfrwt beam="2">  1       -1 0.56806576E-01 0.69898554E+03</pdfrwt>
<totfact> 0.38126275E+01</totfact>
</mgrwt>
</event>
<event>
 4    1  0.1043382E-007  0.7137255E+03  0.7818608E-02  0.9944418E-01
         -1   -1    0    0    0  501 -0.00000000000E+00  0.00000000000E+00  0.15342579505E+03  0.15342579514E+03  0.50400000000E-02 0.  1.
          1   -1    0    0  501    0  0.00000000000E+00 -0.00000000000E+00 -0.35315903016E+04  0.35315903016E+04  0.50400000000E-02 0. -1.
    8880023    1    1    2    0    0 -0.26444714127E+03  0.75243257971E+02 -0.73981515096E+03  0.10279739794E+04  0.65864270000E+03 0.  1.
    8880022    1    1    2    0    0  0.26444714127E+03 -0.75243257971E+02 -0.26383493556E+04  0.26570421174E+04  0.15294330000E+03 0.  0.
<mgrwt>
<rscale>  0 0.58156042E+03</rscale>
<asrwt>0</asrwt>
<pdfrwt beam="1">  1        1 0.54332152E+00 0.71372547E+03</pdfrwt>
<pdfrwt beam="2">  1       -1 0.23603971E-01 0.71372547E+03</pdfrwt>
<totfact> 0.39693323E+00</totfact>
</mgrwt>
</event>
<event>
 4    1  0.1043382E-007  0.8217607E+03  0.7818608E-02  0.9665581E-01
         -1   -1    0    0    0  501 -0.00000000000E+00  0.00000000000E+00  0.85074389144E+03  0.85074389146E+03  0.50400000000E-02 0.  1.
          1   -1    0    0  501    0  0.00000000000E+00 -0.00000000000E+00 -0.24053328183E+04  0.24053328183E+04  0.50400000000E-02 0. -1.
    8880023    1    1    2    0    0 -0.24489964799E+03 -0.42603363582E+03  0.61491859210E+03  0.10263603547E+04  0.65864270000E+03 0.  0.
    8880022    1    1    2    0    0  0.24489964799E+03  0.42603363582E+03 -0.21695075190E+04  0.22297163551E+04  0.15294330000E+03 0.  0.
<mgrwt>
<rscale>  0 0.73103568E+03</rscale>
<asrwt>0</asrwt>
<pdfrwt beam="1">  1        1 0.37005120E+00 0.82176073E+03</pdfrwt>
<pdfrwt beam="2">  1       -1 0.13088368E+00 0.82176073E+03</pdfrwt>
<totfact> 0.82498568E-01</totfact>
</mgrwt>
</event>
<event>
 4    1  0.1043382E-007  0.7484227E+03  0.7818608E-02  0.9836058E-01
         -1   -1    0    0    0  501 -0.00000000000E+00  0.00000000000E+00  0.92809127358E+03  0.92809127359E+03  0.50400000000E-02 0.  1.
          1   -1    0    0  501    0  0.00000000000E+00 -0.00000000000E+00 -0.37952272502E+03  0.37952272506E+03  0.50400000000E-02 0. -1.
    8880023    1    1    2    0    0 -0.71099279544E+02  0.34824021097E+03  0.53584498224E+03  0.92047075094E+03  0.65864270000E+03 0.  0.
    8880022    1    1    2    0    0  0.71099279544E+02 -0.34824021097E+03  0.12723566313E+02  0.38714324770E+03  0.15294330000E+03 0.  1.
<mgrwt>
<rscale>  0 0.63462836E+03</rscale>
<asrwt>0</asrwt>
<pdfrwt beam="1">  1        1 0.58388112E-01 0.74842271E+03</pdfrwt>
<pdfrwt beam="2">  1       -1 0.14278327E+00 0.74842271E+03</pdfrwt>
<totfact> 0.26230317E+01</totfact>
</mgrwt>
</event>
<event>
 4    1  0.1043382E-007  0.9347632E+03  0.7818608E-02  0.9472384E-01
          1   -1    0    0  501    0  0.00000000000E+00  0.00000000000E+00  0.72770727845E+03  0.72770727847E+03  0.50400000000E-02 0. -1.
         -1   -1    0    0    0  501 -0.00000000000E+00 -0.00000000000E+00 -0.10471410880E+04  0.10471410880E+04  0.50400000000E-02 0.  1.
    8880023    1    1    2    0    0  0.53237882973E+03  0.39565735340E+03 -0.51415739372E+03  0.10668364408E+04  0.65864270000E+03 0.  0.
    8880022    1    1    2    0    0 -0.53237882973E+03 -0.39565735340E+03  0.19472358417E+03  0.70801192567E+03  0.15294330000E+03 0.  0.
<mgrwt>
<rscale>  0 0.86350813E+03</rscale>
<asrwt>0</asrwt>
<pdfrwt beam="1">  1        1 0.11195497E+00 0.93476316E+03</pdfrwt>
<pdfrwt beam="2">  1       -1 0.16109863E+00 0.93476316E+03</pdfrwt>
<totfact> 0.74292454E+00</totfact>
</mgrwt>
</event>
<event>
 4    1  0.1043382E-007  0.7269757E+03  0.7818608E-02  0.9899653E-01
         -1   -1    0    0    0  501 -0.00000000000E+00  0.00000000000E+00  0.26585129906E+03  0.26585129911E+03  0.50400000000E-02 0.  1.
          1   -1    0    0  501    0  0.00000000000E+00 -0.00000000000E+00 -0.23312267017E+04  0.23312267017E+04  0.50400000000E-02 0. -1.
    8880023    1    1    2    0    0  0.16381865410E+03 -0.26047438274E+03 -0.28015716143E+03  0.77909030084E+03  0.65864270000E+03 0.  1.
    8880022    1    1    2    0    0 -0.16381865410E+03  0.26047438274E+03 -0.17852182412E+04  0.18179877000E+04  0.15294330000E+03 0.  0.
<mgrwt>
<rscale>  0 0.60278122E+03</rscale>
<asrwt>0</asrwt>
<pdfrwt beam="1">  1        1 0.35865025E+00 0.72697570E+03</pdfrwt>
<pdfrwt beam="2">  1       -1 0.40900201E-01 0.72697570E+03</pdfrwt>
<totfact> 0.10919240E+01</totfact>
</mgrwt>
</event>
<event>
 4    1  0.1043382E-007  0.6737816E+03  0.7818608E-02  0.1013085E+00
         -1   -1    0    0    0  501 -0.00000000000E+00  0.00000000000E+00  0.17655406678E+03  0.17655406685E+03  0.50400000000E-02 0.  1.
          1   -1    0    0  501    0  0.00000000000E+00 -0.00000000000E+00 -0.15935981788E+04  0.15935981788E+04  0.50400000000E-02 0. -1.
    8880023    1    1    2    0    0  0.11573782069E+02  0.14155371478E+03 -0.52542965966E+03  0.85443428074E+03  0.65864270000E+03 0.  1.
    8880022    1    1    2    0    0 -0.11573782069E+02 -0.14155371478E+03 -0.89161445240E+03  0.91571796495E+03  0.15294330000E+03 0.  0.
<mgrwt>
<rscale>  0 0.50266558E+03</rscale>
<asrwt>0</asrwt>
<pdfrwt beam="1">  1        1 0.24516894E+00 0.67378158E+03</pdfrwt>
<pdfrwt beam="2">  1       -1 0.27162165E-01 0.67378158E+03</pdfrwt>
<totfact> 0.70781212E+01</totfact>
</mgrwt>
</event>
<event>
 4    1  0.1043382E-007  0.7763399E+03  0.7818608E-02  0.9764506E-01
          1   -1    0    0  501    0  0.00000000000E+00  0.00000000000E+00  0.22873510131E+04  0.22873510131E+04  0.50400000000E-02 0. -1.
         -1   -1    0    0    0  501 -0.00000000000E+00 -0.00000000000E+00 -0.23365060247E+03  0.23365060252E+03  0.50400000000E-02 0.  1.
    8880023    1    1    2    0    0 -0.14060927778E+03  0.38616382770E+03  0.54157015971E+03  0.94657377682E+03  0.65864270000E+03 0. -1.
    8880022    1    1    2    0    0  0.14060927778E+03 -0.38616382770E+03  0.15121302509E+04  0.15744278388E+04  0.15294330000E+03 0. -1.
<mgrwt>
<rscale>  0 0.67302648E+03</rscale>
<asrwt>0</asrwt>
<pdfrwt beam="1">  1        1 0.35190016E+00 0.77633992E+03</pdfrwt>
<pdfrwt beam="2">  1       -1 0.35946246E-01 0.77633992E+03</pdfrwt>
<totfact> 0.14648647E+01</totfact>
</mgrwt>
</event>
<event>
 4    1  0.1043382E-007  0.6941902E+03  0.7818608E-02  0.1002221E+00
         -1   -1    0    0    0  501 -0.00000000000E+00  0.00000000000E+00  0.17472502909E+04  0.17472502909E+04  0.50400000000E-02 0.  1.
          1   -1    0    0  501    0  0.00000000000E+00 -0.00000000000E+00 -0.31020418694E+03  0.31020418699E+03  0.50400000000E-02 0. -1.
    8880023    1    1    2    0    0  0.21649567955E+03  0.34921125852E+02  0.16001696131E+04  0.17442599752E+04  0.65864270000E+03 0.  1.
    8880022    1    1    2    0    0 -0.21649567955E+03 -0.34921125852E+02 -0.16312350909E+03  0.31319450270E+03  0.15294330000E+03 0.  0.
<mgrwt>
<rscale>  0 0.54686873E+03</rscale>
<asrwt>0</asrwt>
<pdfrwt beam="1">  1        1 0.47723721E-01 0.69419023E+03</pdfrwt>
<pdfrwt beam="2">  1       -1 0.26880774E+00 0.69419023E+03</pdfrwt>
<totfact> 0.46375869E+00</totfact>
</mgrwt>
</event>
<event>
 4    1  0.1043382E-007  0.1103601E+04  0.7818608E-02  0.9257057E-01
          1   -1    0    0  501    0  0.00000000000E+00  0.00000000000E+00  0.10749766212E+04  0.10749766212E+04  0.50400000000E-02 0. -1.
         -1   -1    0    0    0  501 -0.00000000000E+00 -0.00000000000E+00 -0.14107943442E+04  0.14107943442E+04  0.50400000000E-02 0.  1.
    8880023    1    1    2    0    0 -0.38734163261E+03  0.79629913573E+03 -0.90057430712E+03  0.14244192300E+04  0.65864270000E+03 0.  0.
    8880022    1    1    2    0    0  0.38734163261E+03 -0.79629913573E+03  0.56475658411E+03  0.10613517354E+04  0.15294330000E+03 0.  0.
<mgrwt>
<rscale>  0 0.10483425E+04</rscale>
<asrwt>0</asrwt>
<pdfrwt beam="1">  1        1 0.16538102E+00 0.11036014E+04</pdfrwt>
<pdfrwt beam="2">  1       -1 0.21704528E+00 0.11036014E+04</pdfrwt>
<totfact> 0.15136398E+00</totfact>
</mgrwt>
</event>
<event>
 4    1  0.1043382E-007  0.6642492E+03  0.7818608E-02  0.1020172E+00
          1   -1    0    0  501    0  0.00000000000E+00  0.00000000000E+00  0.15666946431E+04  0.15666946432E+04  0.50400000000E-02 0. -1.
         -1   -1    0    0    0  501 -0.00000000000E+00 -0.00000000000E+00 -0.21420449490E+03  0.21420449496E+03  0.50400000000E-02 0.  1.
    8880023    1    1    2    0    0  0.36971511920E+02  0.77780697569E+02  0.32677837811E+03  0.74027768052E+03  0.65864270000E+03 0.  1.
    8880022    1    1    2    0    0 -0.36971511920E+02 -0.77780697569E+02  0.10257117701E+04  0.10406214576E+04  0.15294330000E+03 0.  0.
<mgrwt>
<rscale>  0 0.47624658E+03</rscale>
<asrwt>0</asrwt>
<pdfrwt beam="1">  1        1 0.24102995E+00 0.66424915E+03</pdfrwt>
<pdfrwt beam="2">  1       -1 0.32954537E-01 0.66424915E+03</pdfrwt>
<totfact> 0.52792580E+01</totfact>
</mgrwt>
</event>
<event>
 4    1  0.1043382E-007  0.8137155E+03  0.7818608E-02  0.9681889E-01
          1   -1    0    0  501    0  0.00000000000E+00  0.00000000000E+00  0.69003589711E+03  0.69003589713E+03  0.50400000000E-02 0. -1.
         -1   -1    0    0    0  501 -0.00000000000E+00 -0.00000000000E+00 -0.11170135588E+04  0.11170135588E+04  0.50400000000E-02 0.  1.
    8880023    1    1    2    0    0  0.35067537846E+03 -0.32457595984E+03 -0.83087386780E+03  0.11629636130E+04  0.65864270000E+03 0.  1.
    8880022    1    1    2    0    0 -0.35067537846E+03  0.32457595984E+03  0.40389620609E+03  0.64408584294E+03  0.15294330000E+03 0.  0.
<mgrwt>
<rscale>  0 0.72105430E+03</rscale>
<asrwt>0</asrwt>
<pdfrwt beam="1">  1        1 0.10615937E+00 0.81371554E+03</pdfrwt>
<pdfrwt beam="2">  1       -1 0.17184824E+00 0.81371554E+03</pdfrwt>
<totfact> 0.68039697E+00</totfact>
</mgrwt>
</event>
<event>
 4    1  0.1043382E-007  0.8886404E+03  0.7818608E-02  0.9544519E-01
         -1   -1    0    0    0  501 -0.00000000000E+00  0.00000000000E+00  0.77838364651E+03  0.77838364653E+03  0.50400000000E-02 0.  1.
          1   -1    0    0  501    0  0.00000000000E+00 -0.00000000000E+00 -0.93420730194E+03  0.93420730196E+03  0.50400000000E-02 0. -1.
    8880023    1    1    2    0    0  0.52806441887E+03 -0.27752401212E+03 -0.48701182858E+03  0.10133421610E+04  0.65864270000E+03 0. -1.
    8880022    1    1    2    0    0 -0.52806441887E+03  0.27752401212E+03  0.33118817315E+03  0.69924878750E+03  0.15294330000E+03 0.  0.
<mgrwt>
<rscale>  0 0.81079703E+03</rscale>
<asrwt>0</asrwt>
<pdfrwt beam="1">  1        1 0.14372420E+00 0.88864043E+03</pdfrwt>
<pdfrwt beam="2">  1       -1 0.11975133E+00 0.88864043E+03</pdfrwt>
<totfact> 0.10769982E+01</totfact>
</mgrwt>
</event>
<event>
 4    1  0.1043382E-007  0.9837600E+03  0.7818608E-02  0.9403120E-01
          1   -1    0    0  501    0  0.00000000000E+00  0.00000000000E+00  0.14735554239E+04  0.14735554239E+04  0.50400000000E-02 0. -1.
         -1   -1    0    0    0  501 -0.00000000000E+00 -0.00000000000E+00 -0.63114854890E+03  0.63114854892E+03  0.50400000000E-02 0.  1.
    8880023    1    1    2    0    0 -0.67473353648E+03 -0.28054984463E+03  0.62817762799E+01  0.98378007072E+03  0.65864270000E+03 0.  0.
    8880022    1    1    2    0    0  0.67473353648E+03  0.28054984463E+03  0.83612509871E+03  0.11209239021E+04  0.15294330000E+03 0.  0.
<mgrwt>
<rscale>  0 0.91819380E+03</rscale>
<asrwt>0</asrwt>
<pdfrwt beam="1">  1        1 0.22670083E+00 0.98376001E+03</pdfrwt>
<pdfrwt beam="2">  1       -1 0.97099777E-01 0.98376001E+03</pdfrwt>
<totfact> 0.70065607E+00</totfact>
</mgrwt>
</event>
<event>
 4    1  0.1043382E-007  0.6991600E+03  0.7818608E-02  0.1000070E+00
          1   -1    0    0  501    0  0.00000000000E+00  0.00000000000E+00  0.15091882501E+04  0.15091882502E+04  0.50400000000E-02 0. -1.
         -1   -1    0    0    0  501 -0.00000000000E+00 -0.00000000000E+00 -0.28953948248E+03  0.28953948252E+03  0.50400000000E-02 0.  1.
    8880023    1    1    2    0    0 -0.15907933067E+03  0.17236072419E+03  0.17989923259E+03  0.72193378702E+03  0.65864270000E+03 0.  1.
    8880022    1    1    2    0    0  0.15907933067E+03 -0.17236072419E+03  0.10397495351E+04  0.10767939457E+04  0.15294330000E+03 0.  0.
<mgrwt>
<rscale>  0 0.55619381E+03</rscale>
<asrwt>0</asrwt>
<pdfrwt beam="1">  1        1 0.23218281E+00 0.69915997E+03</pdfrwt>
<pdfrwt beam="2">  1       -1 0.44544535E-01 0.69915997E+03</pdfrwt>
<totfact> 0.33391373E+01</totfact>
</mgrwt>
</event>
<event>
 4    1  0.1043382E-007  0.1200062E+04  0.7818608E-02  0.9157062E-01
         -1   -1    0    0    0  501 -0.00000000000E+00  0.00000000000E+00  0.15420698955E+04  0.15420698956E+04  0.50400000000E-02 0.  1.
          1   -1    0    0  501    0  0.00000000000E+00 -0.00000000000E+00 -0.11848162530E+04  0.11848162530E+04  0.50400000000E-02 0. -1.
    8880023    1    1    2    0    0  0.34977747454E+03 -0.94020923312E+03 -0.59129979995E+03  0.13378278452E+04  0.65864270000E+03 0. -1.
    8880022    1    1    2    0    0 -0.34977747454E+03  0.94020923312E+03  0.94855344251E+03  0.13890583033E+04  0.15294330000E+03 0.  0.
<mgrwt>
<rscale>  0 0.11507820E+04</rscale>
<asrwt>0</asrwt>
<pdfrwt beam="1">  1        1 0.18227942E+00 0.12000616E+04</pdfrwt>
<pdfrwt beam="2">  1       -1 0.23724152E+00 0.12000616E+04</pdfrwt>
<totfact> 0.90905548E-01</totfact>
</mgrwt>
</event>
<event>
 4    1  0.1043382E-007  0.6606262E+03  0.7818608E-02  0.1023524E+00
         -1   -1    0    0    0  501 -0.00000000000E+00  0.00000000000E+00  0.52741240113E+03  0.52741240115E+03  0.50400000000E-02 0.  1.
          1   -1    0    0  501    0  0.00000000000E+00 -0.00000000000E+00 -0.12500034342E+04  0.12500034342E+04  0.50400000000E-02 0. -1.
    8880023    1    1    2    0    0 -0.24848091358E+02  0.44714260538E+02  0.31181235341E+03  0.73051621662E+03  0.65864270000E+03 0.  1.
    8880022    1    1    2    0    0  0.24848091358E+02 -0.44714260538E+02 -0.10344033865E+04  0.10468996187E+04  0.15294330000E+03 0.  0.
<mgrwt>
<rscale>  0 0.46436144E+03</rscale>
<asrwt>0</asrwt>
<pdfrwt beam="1">  1        1 0.19230822E+00 0.66062622E+03</pdfrwt>
<pdfrwt beam="2">  1       -1 0.81140370E-01 0.66062622E+03</pdfrwt>
<totfact> 0.15560618E+01</totfact>
</mgrwt>
</event>
<event>
 4    1  0.1043382E-007  0.6790706E+03  0.7818608E-02  0.1009854E+00
          1   -1    0    0  501    0  0.00000000000E+00  0.00000000000E+00  0.23196437772E+03  0.23196437777E+03  0.50400000000E-02 0. -1.
         -1   -1    0    0    0  501 -0.00000000000E+00 -0.00000000000E+00 -0.22337274829E+04  0.22337274829E+04  0.50400000000E-02 0.  1.
    8880023    1    1    2    0    0  0.71859017974E+02  0.14887244444E+03 -0.21094526983E+04  0.22160612843E+04  0.65864270000E+03 0.  1.
    8880022    1    1    2    0    0 -0.71859017974E+02 -0.14887244444E+03  0.10768959312E+03  0.24963057637E+03  0.15294330000E+03 0.  0.
<mgrwt>
<rscale>  0 0.51532579E+03</rscale>
<asrwt>0</asrwt>
<pdfrwt beam="1">  1        1 0.35686829E-01 0.67907064E+03</pdfrwt>
<pdfrwt beam="2">  1       -1 0.34365037E+00 0.67907064E+03</pdfrwt>
<totfact> 0.22423442E+00</totfact>
</mgrwt>
</event>
<event>
 4    1  0.1043382E-007  0.7118022E+03  0.7818608E-02  0.9951369E-01
         -1   -1    0    0    0  501 -0.00000000000E+00  0.00000000000E+00  0.76386089246E+03  0.76386089247E+03  0.50400000000E-02 0.  1.
          1   -1    0    0  501    0  0.00000000000E+00 -0.00000000000E+00 -0.61028695187E+03  0.61028695189E+03  0.50400000000E-02 0. -1.
    8880023    1    1    2    0    0 -0.25915721679E+03  0.75430293459E+02  0.52920291021E+03  0.88697131781E+03  0.65864270000E+03 0.  1.
    8880022    1    1    2    0    0  0.25915721679E+03 -0.75430293459E+02 -0.37562896962E+03  0.48717652655E+03  0.15294330000E+03 0.  0.
<mgrwt>
<rscale>  0 0.57835051E+03</rscale>
<asrwt>0</asrwt>
<pdfrwt beam="1">  1        1 0.93890300E-01 0.71180222E+03</pdfrwt>
<pdfrwt beam="2">  1       -1 0.11751706E+00 0.71180222E+03</pdfrwt>
<totfact> 0.22425195E+01</totfact>
</mgrwt>
</event>
<event>
 4    1  0.1043382E-007  0.6814796E+03  0.7818608E-02  0.1008499E+00
          1   -1    0    0  501    0  0.00000000000E+00  0.00000000000E+00  0.69444785681E+03  0.69444785683E+03  0.50400000000E-02 0. -1.
         -1   -1    0    0    0  501 -0.00000000000E+00 -0.00000000000E+00 -0.36979559388E+03  0.36979559392E+03  0.50400000000E-02 0.  1.
    8880023    1    1    2    0    0  0.83473094086E+02  0.15374174990E+03  0.20897283892E+02  0.68179996028E+03  0.65864270000E+03 0.  1.
    8880022    1    1    2    0    0 -0.83473094086E+02 -0.15374174990E+03  0.30375497904E+03  0.38244349047E+03  0.15294330000E+03 0.  0.
<mgrwt>
<rscale>  0 0.52075661E+03</rscale>
<asrwt>0</asrwt>
<pdfrwt beam="1">  1        1 0.10683813E+00 0.68147963E+03</pdfrwt>
<pdfrwt beam="2">  1       -1 0.56891630E-01 0.68147963E+03</pdfrwt>
<totfact> 0.88379432E+01</totfact>
</mgrwt>
</event>
<event>
 4    1  0.3308610E-007  0.6854740E+03  0.7818608E-02  0.1006383E+00
         -1   -1    0    0    0  501 -0.00000000000E+00  0.00000000000E+00  0.97024709125E+03  0.97024709127E+03  0.50400000000E-02 0.  1.
          1   -1    0    0  501    0  0.00000000000E+00 -0.00000000000E+00 -0.38942963926E+04  0.38942963926E+04  0.50400000000E-02 0. -1.
    8880023    1    1    2    0    0  0.11649589048E+03  0.14997702586E+03  0.84474274162E+03  0.10878717326E+04  0.65864270000E+03 0.  1.
    8880022    1    1    2    0    0 -0.11649589048E+03 -0.14997702586E+03 -0.37687920430E+04  0.37766717513E+04  0.15294330000E+03 0.  0.
<mgrwt>
<rscale>  0 0.52938027E+03</rscale>
<asrwt>0</asrwt>
<pdfrwt beam="1">  1        1 0.59912251E+00 0.68547400E+03</pdfrwt>
<pdfrwt beam="2">  1       -1 0.14926879E+00 0.68547400E+03</pdfrwt>
<totfact> 0.48001831E-02</totfact>
</mgrwt>
</event>
<event>
 4    1  0.1166596E-007  0.6852731E+03  0.7818608E-02  0.1006485E+00
         -1   -1    0    0    0  501 -0.00000000000E+00  0.00000000000E+00  0.63155967335E+03  0.63155967337E+03  0.50400000000E-02 0.  1.
          1   -1    0    0  501    0  0.00000000000E+00 -0.00000000000E+00 -0.15827643620E+04  0.15827643620E+04  0.50400000000E-02 0. -1.
    8880023    1    1    2    0    0 -0.95133398180E+02 -0.16351945922E+03  0.43187724939E+03  0.81001058129E+03  0.65864270000E+03 0.  0.
    8880022    1    1    2    0    0  0.95133398180E+02  0.16351945922E+03 -0.13830819380E+04  0.14043134540E+04  0.15294330000E+03 0. -1.
<mgrwt>
<rscale>  0 0.52895679E+03</rscale>
<asrwt>0</asrwt>
<pdfrwt beam="1">  1        1 0.24350221E+00 0.68527307E+03</pdfrwt>
<pdfrwt beam="2">  1       -1 0.97163028E-01 0.68527307E+03</pdfrwt>
<totfact> 0.61496878E+00</totfact>
</mgrwt>
</event>
<event>
 4    1  0.1043382E-007  0.1049494E+04  0.7818608E-02  0.9319490E-01
         -1   -1    0    0    0  501 -0.00000000000E+00  0.00000000000E+00  0.24137586074E+04  0.24137586074E+04  0.50400000000E-02 0.  1.
          1   -1    0    0  501    0  0.00000000000E+00 -0.00000000000E+00 -0.74095332150E+03  0.74095332152E+03  0.50400000000E-02 0. -1.
    8880023    1    1    2    0    0  0.80264583313E+03  0.15292929902E+03  0.20021747794E+04  0.22605622658E+04  0.65864270000E+03 0.  0.
    8880022    1    1    2    0    0 -0.80264583313E+03 -0.15292929902E+03 -0.32936949346E+03  0.89414966319E+03  0.15294330000E+03 0.  0.
<mgrwt>
<rscale>  0 0.99008227E+03</rscale>
<asrwt>0</asrwt>
<pdfrwt beam="1">  1        1 0.11399282E+00 0.10494941E+04</pdfrwt>
<pdfrwt beam="2">  1       -1 0.37134748E+00 0.10494941E+04</pdfrwt>
<totfact> 0.28343206E-01</totfact>
</mgrwt>
</event>
<event>
 4    1  0.1043382E-007  0.8441663E+03  0.7818608E-02  0.9622374E-01
          1   -1    0    0  501    0  0.00000000000E+00  0.00000000000E+00  0.12305852227E+04  0.12305852227E+04  0.50400000000E-02 0. -1.
         -1   -1    0    0    0  501 -0.00000000000E+00 -0.00000000000E+00 -0.65469370907E+03  0.65469370909E+03  0.50400000000E-02 0.  1.
    8880023    1    1    2    0    0 -0.47045234215E+03 -0.23975215423E+03 -0.26134766095E+03  0.88369638895E+03  0.65864270000E+03 0.  0.
    8880022    1    1    2    0    0  0.47045234215E+03  0.23975215423E+03  0.83723917460E+03  0.10015825429E+04  0.15294330000E+03 0.  0.
<mgrwt>
<rscale>  0 0.75832867E+03</rscale>
<asrwt>0</asrwt>
<pdfrwt beam="1">  1        1 0.18932080E+00 0.84416628E+03</pdfrwt>
<pdfrwt beam="2">  1       -1 0.10072211E+00 0.84416628E+03</pdfrwt>
<totfact> 0.97251469E+00</totfact>
</mgrwt>
</event>
<event>
 4    1  0.1043382E-007  0.8602626E+03  0.7818608E-02  0.9593097E-01
          1   -1    0    0  501    0  0.00000000000E+00  0.00000000000E+00  0.64035719266E+03  0.64035719268E+03  0.50400000000E-02 0. -1.
         -1   -1    0    0    0  501 -0.00000000000E+00 -0.00000000000E+00 -0.12164520454E+04  0.12164520454E+04  0.50400000000E-02 0.  1.
    8880023    1    1    2    0    0 -0.21546224784E+03  0.50972300186E+03 -0.85991631034E+03  0.12163501905E+04  0.65864270000E+03 0.  0.
    8880022    1    1    2    0    0  0.21546224784E+03 -0.50972300186E+03  0.28382145759E+03  0.64045904761E+03  0.15294330000E+03 0.  0.
<mgrwt>
<rscale>  0 0.77754788E+03</rscale>
<asrwt>0</asrwt>
<pdfrwt beam="1">  1        1 0.98516491E-01 0.86026259E+03</pdfrwt>
<pdfrwt beam="2">  1       -1 0.18714647E+00 0.86026259E+03</pdfrwt>
<totfact> 0.58756762E+00</totfact>
</mgrwt>
</event>
<event>
 4    1  0.1043382E-007  0.7226740E+03  0.7818608E-02  0.9913640E-01
         -1   -1    0    0    0  501 -0.00000000000E+00  0.00000000000E+00  0.13315479899E+04  0.13315479899E+04  0.50400000000E-02 0.  1.
          1   -1    0    0  501    0  0.00000000000E+00 -0.00000000000E+00 -0.54031369159E+03  0.54031369161E+03  0.50400000000E-02 0. -1.
    8880023    1    1    2    0    0  0.10526834963E+03  0.27814771201E+03  0.11646123178E+04  0.13706128674E+04  0.65864270000E+03 0.  1.
    8880022    1    1    2    0    0 -0.10526834963E+03 -0.27814771201E+03 -0.37337801956E+03  0.50124881410E+03  0.15294330000E+03 0.  0.
<mgrwt>
<rscale>  0 0.59604784E+03</rscale>
<asrwt>0</asrwt>
<pdfrwt beam="1">  1        1 0.83125184E-01 0.72267405E+03</pdfrwt>
<pdfrwt beam="2">  1       -1 0.20485354E+00 0.72267405E+03</pdfrwt>
<totfact> 0.57625065E+00</totfact>
</mgrwt>
</event>
<event>
 4    1  0.1043382E-007  0.7502896E+03  0.7818608E-02  0.9830928E-01
         -1   -1    0    0    0  501 -0.00000000000E+00  0.00000000000E+00  0.70481022257E+03  0.70481022259E+03  0.50400000000E-02 0.  1.
          1   -1    0    0  501    0  0.00000000000E+00 -0.00000000000E+00 -0.97089523171E+03  0.97089523172E+03  0.50400000000E-02 0. -1.
    8880023    1    1    2    0    0 -0.12463256227E+03 -0.33703261372E+03  0.43929394023E+03  0.86943293616E+03  0.65864270000E+03 0.  0.
    8880022    1    1    2    0    0  0.12463256227E+03  0.33703261372E+03 -0.70537894937E+03  0.80627251815E+03  0.15294330000E+03 0.  0.
<mgrwt>
<rscale>  0 0.63728850E+03</rscale>
<asrwt>0</asrwt>
<pdfrwt beam="1">  1        1 0.14936850E+00 0.75028959E+03</pdfrwt>
<pdfrwt beam="2">  1       -1 0.10843234E+00 0.75028959E+03</pdfrwt>
<totfact> 0.12984024E+01</totfact>
</mgrwt>
</event>
<event>
 4    1  0.1043382E-007  0.7123498E+03  0.7818608E-02  0.9949377E-01
         -1   -1    0    0    0  501 -0.00000000000E+00  0.00000000000E+00  0.48156454828E+03  0.48156454830E+03  0.50400000000E-02 0.  1.
          1   -1    0    0  501    0  0.00000000000E+00 -0.00000000000E+00 -0.11425518640E+04  0.11425518640E+04  0.50400000000E-02 0. -1.
    8880023    1    1    2    0    0  0.50903527992E+02  0.26653490899E+03  0.17368420302E+03  0.73321786361E+03  0.65864270000E+03 0.  1.
    8880022    1    1    2    0    0 -0.50903527992E+02 -0.26653490899E+03 -0.83467151876E+03  0.89089854872E+03  0.15294330000E+03 0.  0.
<mgrwt>
<rscale>  0 0.57926821E+03</rscale>
<asrwt>0</asrwt>
<pdfrwt beam="1">  1        1 0.17577721E+00 0.71234980E+03</pdfrwt>
<pdfrwt beam="2">  1       -1 0.74086854E-01 0.71234980E+03</pdfrwt>
<totfact> 0.22363043E+01</totfact>
</mgrwt>
</event>
<event>
 4    1  0.1043382E-007  0.7488703E+03  0.7818608E-02  0.9834823E-01
         -1   -1    0    0    0  501 -0.00000000000E+00  0.00000000000E+00  0.84833594065E+03  0.84833594067E+03  0.50400000000E-02 0.  1.
          1   -1    0    0  501    0  0.00000000000E+00 -0.00000000000E+00 -0.81295514860E+03  0.81295514862E+03  0.50400000000E-02 0. -1.
    8880023    1    1    2    0    0 -0.34866827384E+03  0.73668032542E+02  0.61149504029E+03  0.96681587428E+03  0.65864270000E+03 0. -1.
    8880022    1    1    2    0    0  0.34866827384E+03 -0.73668032542E+02 -0.57611424825E+03  0.69447521500E+03  0.15294330000E+03 0. -1.
<mgrwt>
<rscale>  0 0.63526756E+03</rscale>
<asrwt>0</asrwt>
<pdfrwt beam="1">  1        1 0.12507002E+00 0.74887032E+03</pdfrwt>
<pdfrwt beam="2">  1       -1 0.13051322E+00 0.74887032E+03</pdfrwt>
<totfact> 0.11150090E+01</totfact>
</mgrwt>
</event>
<event>
 4    1  0.1043382E-007  0.7026545E+03  0.7818608E-02  0.9986362E-01
         -1   -1    0    0    0  501 -0.00000000000E+00  0.00000000000E+00  0.30167370814E+03  0.30167370818E+03  0.50400000000E-02 0.  1.
          1   -1    0    0  501    0  0.00000000000E+00 -0.00000000000E+00 -0.10915950251E+04  0.10915950251E+04  0.50400000000E-02 0. -1.
    8880023    1    1    2    0    0  0.19153234331E+03 -0.15240907440E+03 -0.19056502970E+03  0.72803736257E+03  0.65864270000E+03 0.  0.
    8880022    1    1    2    0    0 -0.19153234331E+03  0.15240907440E+03 -0.59935628728E+03  0.66523137074E+03  0.15294330000E+03 0.  0.
<mgrwt>
<rscale>  0 0.56252282E+03</rscale>
<asrwt>0</asrwt>
<pdfrwt beam="1">  1        1 0.16793769E+00 0.70265452E+03</pdfrwt>
<pdfrwt beam="2">  1       -1 0.46411340E-01 0.70265452E+03</pdfrwt>
<totfact> 0.61134391E+01</totfact>
</mgrwt>
</event>
<event>
 4    1  0.1043382E-007  0.6829578E+03  0.7818608E-02  0.1007698E+00
          1   -1    0    0  501    0  0.00000000000E+00  0.00000000000E+00  0.24441696114E+04  0.24441696114E+04  0.50400000000E-02 0. -1.
         -1   -1    0    0    0  501 -0.00000000000E+00 -0.00000000000E+00 -0.31108180642E+03  0.31108180646E+03  0.50400000000E-02 0.  1.
    8880023    1    1    2    0    0  0.34021264928E+02 -0.17738001626E+03  0.78928960518E+02  0.68750352996E+03  0.65864270000E+03 0.  1.
    8880022    1    1    2    0    0 -0.34021264928E+02  0.17738001626E+03  0.20541588445E+04  0.20677478879E+04  0.15294330000E+03 0.  0.
<mgrwt>
<rscale>  0 0.52399998E+03</rscale>
<asrwt>0</asrwt>
<pdfrwt beam="1">  1        1 0.37602609E+00 0.68295778E+03</pdfrwt>
<pdfrwt beam="2">  1       -1 0.47858740E-01 0.68295778E+03</pdfrwt>
<totfact> 0.69020734E+00</totfact>
</mgrwt>
</event>
<event>
 4    1  0.1043382E-007  0.1174316E+04  0.7818608E-02  0.9182502E-01
         -1   -1    0    0    0  501 -0.00000000000E+00  0.00000000000E+00  0.12997675106E+04  0.12997675106E+04  0.50400000000E-02 0.  1.
          1   -1    0    0  501    0  0.00000000000E+00 -0.00000000000E+00 -0.13770622306E+04  0.13770622307E+04  0.50400000000E-02 0. -1.
    8880023    1    1    2    0    0 -0.96881855339E+03 -0.81237385768E+02  0.74809328947E+03  0.13923586744E+04  0.65864270000E+03 0.  0.
    8880022    1    1    2    0    0  0.96881855339E+03  0.81237385768E+02 -0.82538800953E+03  0.12844710668E+04  0.15294330000E+03 0.  0.
<mgrwt>
<rscale>  0 0.11235876E+04</rscale>
<asrwt>0</asrwt>
<pdfrwt beam="1">  1        1 0.21185573E+00 0.11743164E+04</pdfrwt>
<pdfrwt beam="2">  1       -1 0.19996423E+00 0.11743164E+04</pdfrwt>
<totfact> 0.11803283E+00</totfact>
</mgrwt>
</event>
<event>
 4    1  0.1043382E-007  0.7303918E+03  0.7818608E-02  0.9888874E-01
         -1   -1    0    0    0  501 -0.00000000000E+00  0.00000000000E+00  0.61268600130E+03  0.61268600132E+03  0.50400000000E-02 0.  1.
          1   -1    0    0  501    0  0.00000000000E+00 -0.00000000000E+00 -0.77480793067E+03  0.77480793069E+03  0.50400000000E-02 0. -1.
    8880023    1    1    2    0    0  0.26137705701E+03  0.17704237328E+03  0.31489421147E+03  0.79538075068E+03  0.65864270000E+03 0.  1.
    8880022    1    1    2    0    0 -0.26137705701E+03 -0.17704237328E+03 -0.47701614084E+03  0.59211318133E+03  0.15294330000E+03 0.  0.
<mgrwt>
<rscale>  0 0.60803519E+03</rscale>
<asrwt>0</asrwt>
<pdfrwt beam="1">  1        1 0.11920122E+00 0.73039179E+03</pdfrwt>
<pdfrwt beam="2">  1       -1 0.94259384E-01 0.73039179E+03</pdfrwt>
<totfact> 0.26074234E+01</totfact>
</mgrwt>
</event>
<event>
 4    1  0.1043382E-007  0.7625012E+03  0.7818608E-02  0.9798675E-01
          1   -1    0    0  501    0  0.00000000000E+00  0.00000000000E+00  0.95389512419E+03  0.95389512420E+03  0.50400000000E-02 0. -1.
         -1   -1    0    0    0  501 -0.00000000000E+00 -0.00000000000E+00 -0.81231076844E+03  0.81231076846E+03  0.50400000000E-02 0.  1.
    8880023    1    1    2    0    0  0.38308500284E+03 -0.29048445938E+02 -0.56397137239E+03  0.94840489600E+03  0.65864270000E+03 0.  1.
    8880022    1    1    2    0    0 -0.38308500284E+03  0.29048445938E+02  0.70555572814E+03  0.81780099666E+03  0.15294330000E+03 0.  0.
<mgrwt>
<rscale>  0 0.65433722E+03</rscale>
<asrwt>0</asrwt>
<pdfrwt beam="1">  1        1 0.14675310E+00 0.76250124E+03</pdfrwt>
<pdfrwt beam="2">  1       -1 0.12497089E+00 0.76250124E+03</pdfrwt>
<totfact> 0.94977616E+00</totfact>
</mgrwt>
</event>
<event>
 4    1  0.1043382E-007  0.9490562E+03  0.7818608E-02  0.9451473E-01
         -1   -1    0    0    0  501 -0.00000000000E+00  0.00000000000E+00  0.84898847274E+03  0.84898847276E+03  0.50400000000E-02 0.  1.
          1   -1    0    0  501    0  0.00000000000E+00 -0.00000000000E+00 -0.14859594545E+04  0.14859594545E+04  0.50400000000E-02 0. -1.
    8880023    1    1    2    0    0 -0.55849597952E+03 -0.39367456484E+03  0.44338895917E+03  0.10475215499E+04  0.65864270000E+03 0.  1.
    8880022    1    1    2    0    0  0.55849597952E+03  0.39367456484E+03 -0.10803599409E+04  0.12874263774E+04  0.15294330000E+03 0.  0.
<mgrwt>
<rscale>  0 0.87958025E+03</rscale>
<asrwt>0</asrwt>
<pdfrwt beam="1">  1        1 0.22860915E+00 0.94905618E+03</pdfrwt>
<pdfrwt beam="2">  1       -1 0.13061361E+00 0.94905618E+03</pdfrwt>
<totfact> 0.33933454E+00</totfact>
</mgrwt>
</event>
<event>
 4    1  0.1043382E-007  0.1071274E+04  0.7818608E-02  0.9293734E-01
          1   -1    0    0  501    0  0.00000000000E+00  0.00000000000E+00  0.24946908567E+04  0.24946908567E+04  0.50400000000E-02 0. -1.
         -1   -1    0    0    0  501 -0.00000000000E+00 -0.00000000000E+00 -0.92424768286E+03  0.92424768287E+03  0.50400000000E-02 0.  1.
    8880023    1    1    2    0    0  0.66136395302E+03  0.52575239507E+03 -0.49651357625E+03  0.11807429004E+04  0.65864270000E+03 0.  0.
    8880022    1    1    2    0    0 -0.66136395302E+03 -0.52575239507E+03  0.20669567501E+04  0.22381956391E+04  0.15294330000E+03 0.  0.
<mgrwt>
<rscale>  0 0.10136180E+04</rscale>
<asrwt>0</asrwt>
<pdfrwt beam="1">  1        1 0.38379859E+00 0.10712740E+04</pdfrwt>
<pdfrwt beam="2">  1       -1 0.14219195E+00 0.10712740E+04</pdfrwt>
<totfact> 0.55328752E-01</totfact>
</mgrwt>
</event>
<event>
 4    1  0.1043382E-007  0.7708816E+03  0.7818608E-02  0.9777709E-01
         -1   -1    0    0    0  501 -0.00000000000E+00  0.00000000000E+00  0.86796340986E+03  0.86796340988E+03  0.50400000000E-02 0.  1.
          1   -1    0    0  501    0  0.00000000000E+00 -0.00000000000E+00 -0.12984712256E+04  0.12984712256E+04  0.50400000000E-02 0. -1.
    8880023    1    1    2    0    0  0.30400292796E+03 -0.26082636970E+03  0.64721580057E+03  0.10065518735E+04  0.65864270000E+03 0.  1.
    8880022    1    1    2    0    0 -0.30400292796E+03  0.26082636970E+03 -0.10777236163E+04  0.11598827619E+04  0.15294330000E+03 0.  0.
<mgrwt>
<rscale>  0 0.66572627E+03</rscale>
<asrwt>0</asrwt>
<pdfrwt beam="1">  1        1 0.19976480E+00 0.77088156E+03</pdfrwt>
<pdfrwt beam="2">  1       -1 0.13353283E+00 0.77088156E+03</pdfrwt>
<totfact> 0.44524827E+00</totfact>
</mgrwt>
</event>
<event>
 4    1  0.1043382E-007  0.6894569E+03  0.7818608E-02  0.1004412E+00
         -1   -1    0    0    0  501 -0.00000000000E+00  0.00000000000E+00  0.50679199122E+03  0.50679199124E+03  0.50400000000E-02 0.  1.
          1   -1    0    0  501    0  0.00000000000E+00 -0.00000000000E+00 -0.44148909787E+03  0.44148909790E+03  0.50400000000E-02 0. -1.
    8880023    1    1    2    0    0  0.14162519871E+03  0.14657065023E+03  0.21986119323E+02  0.68980739930E+03  0.65864270000E+03 0.  0.
    8880022    1    1    2    0    0 -0.14162519871E+03 -0.14657065023E+03  0.43316774023E+02  0.25847368985E+03  0.15294330000E+03 0.  1.
<mgrwt>
<rscale>  0 0.53757363E+03</rscale>
<asrwt>0</asrwt>
<pdfrwt beam="1">  1        1 0.67921400E-01 0.68945693E+03</pdfrwt>
<pdfrwt beam="2">  1       -1 0.77967999E-01 0.68945693E+03</pdfrwt>
<totfact> 0.88530524E+01</totfact>
</mgrwt>
</event>
<event>
 4    1  0.1043382E-007  0.8710021E+03  0.7818608E-02  0.9574285E-01
         -1   -1    0    0    0  501 -0.00000000000E+00  0.00000000000E+00  0.58502880601E+03  0.58502880603E+03  0.50400000000E-02 0.  1.
          1   -1    0    0  501    0  0.00000000000E+00 -0.00000000000E+00 -0.10061134453E+04  0.10061134453E+04  0.50400000000E-02 0. -1.
    8880023    1    1    2    0    0  0.36798715844E+03  0.43522399774E+03 -0.83892301954E+01  0.87104251471E+03  0.65864270000E+03 0.  0.
    8880022    1    1    2    0    0 -0.36798715844E+03 -0.43522399774E+03 -0.41269540909E+03  0.72009973663E+03  0.15294330000E+03 0.  0.
<mgrwt>
<rscale>  0 0.79021829E+03</rscale>
<asrwt>0</asrwt>
<pdfrwt beam="1">  1        1 0.15478668E+00 0.87100211E+03</pdfrwt>
<pdfrwt beam="2">  1       -1 0.90004432E-01 0.87100211E+03</pdfrwt>
<totfact> 0.18355580E+01</totfact>
</mgrwt>
</event>
<event>
 4    1  0.1043382E-007  0.6602046E+03  0.7818608E-02  0.1023948E+00
         -1   -1    0    0    0  501 -0.00000000000E+00  0.00000000000E+00  0.25883189377E+03  0.25883189382E+03  0.50400000000E-02 0.  1.
          1   -1    0    0  501    0  0.00000000000E+00 -0.00000000000E+00 -0.12694979075E+04  0.12694979076E+04  0.50400000000E-02 0. -1.
    8880023    1    1    2    0    0 -0.70562281624E+01  0.44834712562E+02 -0.18253774201E+03  0.68497458006E+03  0.65864270000E+03 0.  1.
    8880022    1    1    2    0    0  0.70562281624E+01 -0.44834712562E+02 -0.82812827177E+03  0.84335522132E+03  0.15294330000E+03 0.  0.
<mgrwt>
<rscale>  0 0.46288520E+03</rscale>
<asrwt>0</asrwt>
<pdfrwt beam="1">  1        1 0.19530737E+00 0.66020463E+03</pdfrwt>
<pdfrwt beam="2">  1       -1 0.39820292E-01 0.66020463E+03</pdfrwt>
<totfact> 0.60441945E+01</totfact>
</mgrwt>
</event>
<event>
 4    1  0.1043382E-007  0.7419172E+03  0.7818608E-02  0.9854397E-01
          1   -1    0    0  501    0  0.00000000000E+00  0.00000000000E+00  0.14269764978E+04  0.14269764978E+04  0.50400000000E-02 0. -1.
         -1   -1    0    0    0  501 -0.00000000000E+00 -0.00000000000E+00 -0.28415979385E+03  0.28415979390E+03  0.50400000000E-02 0.  1.
    8880023    1    1    2    0    0  0.34087061642E+03  0.20932477242E+02  0.11105178905E+04  0.13355490021E+04  0.65864270000E+03 0.  0.
    8880022    1    1    2    0    0 -0.34087061642E+03 -0.20932477242E+02  0.32298813494E+02  0.37558728960E+03  0.15294330000E+03 0.  0.
<mgrwt>
<rscale>  0 0.62523222E+03</rscale>
<asrwt>0</asrwt>
<pdfrwt beam="1">  1        1 0.21953484E+00 0.74191721E+03</pdfrwt>
<pdfrwt beam="2">  1       -1 0.43716892E-01 0.74191721E+03</pdfrwt>
<totfact> 0.39165648E+01</totfact>
</mgrwt>
</event>
<event>
 4    1  0.1043382E-007  0.1088211E+04  0.7818608E-02  0.9274297E-01
         -1   -1    0    0    0  501 -0.00000000000E+00  0.00000000000E+00  0.96883124445E+03  0.96883124446E+03  0.50400000000E-02 0.  1.
          1   -1    0    0  501    0  0.00000000000E+00 -0.00000000000E+00 -0.26219193439E+04  0.26219193439E+04  0.50400000000E-02 0. -1.
    8880023    1    1    2    0    0  0.40636131780E+03  0.76502474984E+03  0.54944639113E+03  0.12190545236E+04  0.65864270000E+03 0.  0.
    8880022    1    1    2    0    0 -0.40636131780E+03 -0.76502474984E+03 -0.22025344906E+04  0.23716960648E+04  0.15294330000E+03 0.  0.
<mgrwt>
<rscale>  0 0.10318397E+04</rscale>
<asrwt>0</asrwt>
<pdfrwt beam="1">  1        1 0.40337220E+00 0.10882107E+04</pdfrwt>
<pdfrwt beam="2">  1       -1 0.14905096E+00 0.10882107E+04</pdfrwt>
<totfact> 0.39741933E-01</totfact>
</mgrwt>
</event>
<event>
 4    1  0.1043382E-007  0.7550755E+03  0.7818608E-02  0.9818027E-01
          1   -1    0    0  501    0  0.00000000000E+00  0.00000000000E+00  0.15006351888E+04  0.15006351888E+04  0.50400000000E-02 0. -1.
         -1   -1    0    0    0  501 -0.00000000000E+00 -0.00000000000E+00 -0.54947057592E+03  0.54947057594E+03  0.50400000000E-02 0.  1.
    8880023    1    1    2    0    0 -0.44509310802E+02 -0.36653477473E+03 -0.24110651793E+03  0.79263571651E+03  0.65864270000E+03 0.  1.
    8880022    1    1    2    0    0  0.44509310802E+02  0.36653477473E+03  0.11922711308E+04  0.12574700483E+04  0.15294330000E+03 0.  0.
<mgrwt>
<rscale>  0 0.64404003E+03</rscale>
<asrwt>0</asrwt>
<pdfrwt beam="1">  1        1 0.23086695E+00 0.75507551E+03</pdfrwt>
<pdfrwt beam="2">  1       -1 0.84533937E-01 0.75507551E+03</pdfrwt>
<totfact> 0.93983639E+00</totfact>
</mgrwt>
</event>
<event>
 4    1  0.1043382E-007  0.7054690E+03  0.7818608E-02  0.9975228E-01
          1   -1    0    0  501    0  0.00000000000E+00  0.00000000000E+00  0.88278119869E+03  0.88278119871E+03  0.50400000000E-02 0. -1.
         -1   -1    0    0    0  501 -0.00000000000E+00 -0.00000000000E+00 -0.39856531021E+03  0.39856531024E+03  0.50400000000E-02 0.  1.
    8880023    1    1    2    0    0  0.12997102059E+03  0.21675755676E+03 -0.10035808616E+02  0.70554038036E+03  0.65864270000E+03 0.  0.
    8880022    1    1    2    0    0 -0.12997102059E+03 -0.21675755676E+03  0.49425169710E+03  0.57580612858E+03  0.15294330000E+03 0.  0.
<mgrwt>
<rscale>  0 0.56749926E+03</rscale>
<asrwt>0</asrwt>
<pdfrwt beam="1">  1        1 0.13581249E+00 0.70546900E+03</pdfrwt>
<pdfrwt beam="2">  1       -1 0.61317741E-01 0.70546900E+03</pdfrwt>
<totfact> 0.52114595E+01</totfact>
</mgrwt>
</event>
<event>
 4    1  0.1043382E-007  0.7024236E+03  0.7818608E-02  0.9987292E-01
         -1   -1    0    0    0  501 -0.00000000000E+00  0.00000000000E+00  0.88958661944E+03  0.88958661945E+03  0.50400000000E-02 0.  1.
          1   -1    0    0  501    0  0.00000000000E+00 -0.00000000000E+00 -0.12116445052E+04  0.12116445052E+04  0.50400000000E-02 0. -1.
    8880023    1    1    2    0    0  0.87072479511E+02 -0.22805064489E+03  0.72844754908E+03  0.10119460220E+04  0.65864270000E+03 0.  0.
    8880022    1    1    2    0    0 -0.87072479511E+02  0.22805064489E+03 -0.10505054348E+04  0.10892851027E+04  0.15294330000E+03 0. -1.
<mgrwt>
<rscale>  0 0.56210991E+03</rscale>
<asrwt>0</asrwt>
<pdfrwt beam="1">  1        1 0.18640685E+00 0.70242360E+03</pdfrwt>
<pdfrwt beam="2">  1       -1 0.13685948E+00 0.70242360E+03</pdfrwt>
<totfact> 0.48777772E+00</totfact>
</mgrwt>
</event>
<event>
 4    1  0.1043382E-007  0.7705461E+03  0.7818608E-02  0.9778532E-01
         -1   -1    0    0    0  501 -0.00000000000E+00  0.00000000000E+00  0.22793394183E+03  0.22793394188E+03  0.50400000000E-02 0.  1.
          1   -1    0    0  501    0  0.00000000000E+00 -0.00000000000E+00 -0.20090311363E+04  0.20090311363E+04  0.50400000000E-02 0. -1.
    8880023    1    1    2    0    0 -0.39958108860E+03  0.16310296636E+02 -0.58771016944E+03  0.96909469180E+03  0.65864270000E+03 0.  1.
    8880022    1    1    2    0    0  0.39958108860E+03 -0.16310296636E+02 -0.11933870250E+04  0.12678703864E+04  0.15294330000E+03 0.  0.
<mgrwt>
<rscale>  0 0.66527469E+03</rscale>
<asrwt>0</asrwt>
<pdfrwt beam="1">  1        1 0.30908170E+00 0.77054609E+03</pdfrwt>
<pdfrwt beam="2">  1       -1 0.35066762E-01 0.77054609E+03</pdfrwt>
<totfact> 0.23557282E+01</totfact>
</mgrwt>
</event>
<event>
 4    1  0.1043382E-007  0.7941650E+03  0.7818608E-02  0.9723557E-01
         -1   -1    0    0    0  501 -0.00000000000E+00  0.00000000000E+00  0.59303363697E+03  0.59303363700E+03  0.50400000000E-02 0.  1.
          1   -1    0    0  501    0  0.00000000000E+00 -0.00000000000E+00 -0.14241913246E+04  0.14241913246E+04  0.50400000000E-02 0. -1.
    8880023    1    1    2    0    0  0.40613384069E+03  0.17872664228E+03  0.25491924037E+03  0.83407549694E+03  0.65864270000E+03 0.  1.
    8880022    1    1    2    0    0 -0.40613384069E+03 -0.17872664228E+03 -0.10860769280E+04  0.11831494647E+04  0.15294330000E+03 0.  0.
<mgrwt>
<rscale>  0 0.69631356E+03</rscale>
<asrwt>0</asrwt>
<pdfrwt beam="1">  1        1 0.21910636E+00 0.79416504E+03</pdfrwt>
<pdfrwt beam="2">  1       -1 0.91235945E-01 0.79416504E+03</pdfrwt>
<totfact> 0.89300764E+00</totfact>
</mgrwt>
</event>
<event>
 4    1  0.1043382E-007  0.1460585E+04  0.7818608E-02  0.8937982E-01
         -1   -1    0    0    0  501 -0.00000000000E+00  0.00000000000E+00  0.20258047853E+04  0.20258047853E+04  0.50400000000E-02 0.  1.
          1   -1    0    0  501    0  0.00000000000E+00 -0.00000000000E+00 -0.10765740000E+04  0.10765740000E+04  0.50400000000E-02 0. -1.
    8880023    1    1    2    0    0  0.69853587240E+03  0.11007023834E+04  0.10301133953E+04  0.17873001749E+04  0.65864270000E+03 0. -1.
    8880022    1    1    2    0    0 -0.69853587240E+03 -0.11007023834E+04 -0.80882610015E+02  0.13150786104E+04  0.15294330000E+03 0.  1.
<mgrwt>
<rscale>  0 0.14220907E+04</rscale>
<asrwt>0</asrwt>
<pdfrwt beam="1">  1        1 0.16562677E+00 0.14605849E+04</pdfrwt>
<pdfrwt beam="2">  1       -1 0.31166227E+00 0.14605849E+04</pdfrwt>
<totfact> 0.34972813E-01</totfact>
</mgrwt>
</event>
<event>
 4    1  0.1043382E-007  0.6807147E+03  0.7818608E-02  0.1008922E+00
          1   -1    0    0  501    0  0.00000000000E+00  0.00000000000E+00  0.39036671114E+03  0.39036671117E+03  0.50400000000E-02 0. -1.
         -1   -1    0    0    0  501 -0.00000000000E+00 -0.00000000000E+00 -0.10483369998E+04  0.10483369998E+04  0.50400000000E-02 0.  1.
    8880023    1    1    2    0    0 -0.11423158191E+03  0.12850441276E+03 -0.88428623181E+03  0.11159456010E+04  0.65864270000E+03 0.  1.
    8880022    1    1    2    0    0  0.11423158191E+03 -0.12850441276E+03  0.22631594315E+03  0.32275810996E+03  0.15294330000E+03 0.  0.
<mgrwt>
<rscale>  0 0.51905223E+03</rscale>
<asrwt>0</asrwt>
<pdfrwt beam="1">  1        1 0.60056417E-01 0.68071466E+03</pdfrwt>
<pdfrwt beam="2">  1       -1 0.16128261E+00 0.68071466E+03</pdfrwt>
<totfact> 0.18322385E+01</totfact>
</mgrwt>
</event>
<event>
 4    1  0.1043382E-007  0.7189685E+03  0.7818608E-02  0.9926092E-01
          1   -1    0    0  501    0  0.00000000000E+00  0.00000000000E+00  0.12163169679E+04  0.12163169679E+04  0.50400000000E-02 0. -1.
         -1   -1    0    0    0  501 -0.00000000000E+00 -0.00000000000E+00 -0.34932508022E+03  0.34932508026E+03  0.50400000000E-02 0.  1.
    8880023    1    1    2    0    0 -0.26393881796E+03  0.11593889262E+03  0.92109332095E+02  0.72484471562E+03  0.65864270000E+03 0.  0.
    8880022    1    1    2    0    0  0.26393881796E+03 -0.11593889262E+03  0.77488255557E+03  0.84079733252E+03  0.15294330000E+03 0.  0.
<mgrwt>
<rscale>  0 0.59013269E+03</rscale>
<asrwt>0</asrwt>
<pdfrwt beam="1">  1        1 0.18712569E+00 0.71896852E+03</pdfrwt>
<pdfrwt beam="2">  1       -1 0.53742320E-01 0.71896852E+03</pdfrwt>
<totfact> 0.37462281E+01</totfact>
</mgrwt>
</event>
<event>
 4    1  0.1043382E-007  0.6674428E+03  0.7818608E-02  0.1017566E+00
         -1   -1    0    0    0  501 -0.00000000000E+00  0.00000000000E+00  0.42008478374E+03  0.42008478377E+03  0.50400000000E-02 0.  1.
          1   -1    0    0  501    0  0.00000000000E+00 -0.00000000000E+00 -0.23093586402E+04  0.23093586402E+04  0.50400000000E-02 0. -1.
    8880023    1    1    2    0    0  0.91004270326E+02  0.58206075261E+02  0.14794048793E+03  0.68364195208E+03  0.65864270000E+03 0.  1.
    8880022    1    1    2    0    0 -0.91004270326E+02 -0.58206075261E+02 -0.20372143444E+04  0.20458014719E+04  0.15294330000E+03 0.  0.
<mgrwt>
<rscale>  0 0.48575153E+03</rscale>
<asrwt>0</asrwt>
<pdfrwt beam="1">  1        1 0.35528594E+00 0.66744283E+03</pdfrwt>
<pdfrwt beam="2">  1       -1 0.64628430E-01 0.66744283E+03</pdfrwt>
<totfact> 0.47749247E+00</totfact>
</mgrwt>
</event>
<event>
 4    1  0.1043382E-007  0.7779957E+03  0.7818608E-02  0.9760566E-01
         -1   -1    0    0    0  501 -0.00000000000E+00  0.00000000000E+00  0.39239172800E+03  0.39239172803E+03  0.50400000000E-02 0.  1.
          1   -1    0    0  501    0  0.00000000000E+00 -0.00000000000E+00 -0.17705831718E+04  0.17705831718E+04  0.50400000000E-02 0. -1.
    8880023    1    1    2    0    0 -0.19751042942E+03  0.36394615887E+03 -0.68630925681E+02  0.78101702063E+03  0.65864270000E+03 0.  1.
    8880022    1    1    2    0    0  0.19751042942E+03 -0.36394615887E+03 -0.13095605181E+04  0.13819578792E+04  0.15294330000E+03 0.  0.
<mgrwt>
<rscale>  0 0.67522409E+03</rscale>
<asrwt>0</asrwt>
<pdfrwt beam="1">  1        1 0.27239741E+00 0.77799575E+03</pdfrwt>
<pdfrwt beam="2">  1       -1 0.60367959E-01 0.77799575E+03</pdfrwt>
<totfact> 0.12309041E+01</totfact>
</mgrwt>
</event>
<event>
 4    1  0.1043382E-007  0.7714598E+03  0.7818608E-02  0.9776295E-01
         -1   -1    0    0    0  501 -0.00000000000E+00  0.00000000000E+00  0.12827088904E+04  0.12827088904E+04  0.50400000000E-02 0.  1.
          1   -1    0    0  501    0  0.00000000000E+00 -0.00000000000E+00 -0.30284538088E+03  0.30284538093E+03  0.50400000000E-02 0. -1.
    8880023    1    1    2    0    0 -0.39997883828E+03  0.36835946725E+02  0.82294217471E+03  0.11279999943E+04  0.65864270000E+03 0.  1.
    8880022    1    1    2    0    0  0.39997883828E+03 -0.36835946725E+02  0.15692133476E+03  0.45755427696E+03  0.15294330000E+03 0.  0.
<mgrwt>
<rscale>  0 0.66650377E+03</rscale>
<asrwt>0</asrwt>
<pdfrwt beam="1">  1        1 0.46591598E-01 0.77145976E+03</pdfrwt>
<pdfrwt beam="2">  1       -1 0.19733983E+00 0.77145976E+03</pdfrwt>
<totfact> 0.13958115E+01</totfact>
</mgrwt>
</event>
<event>
 4    1  0.1043382E-007  0.9034347E+03  0.7818608E-02  0.9520540E-01
         -1   -1    0    0    0  501 -0.00000000000E+00  0.00000000000E+00  0.77784722334E+03  0.77784722336E+03  0.50400000000E-02 0.  1.
          1   -1    0    0  501    0  0.00000000000E+00 -0.00000000000E+00 -0.10591787331E+04  0.10591787331E+04  0.50400000000E-02 0. -1.
    8880023    1    1    2    0    0 -0.29577082782E+03  0.54305040183E+03  0.32253656862E+03  0.95928315209E+03  0.65864270000E+03 0.  1.
    8880022    1    1    2    0    0  0.29577082782E+03 -0.54305040183E+03 -0.60386807834E+03  0.87774280434E+03  0.15294330000E+03 0.  0.
<mgrwt>
<rscale>  0 0.82786277E+03</rscale>
<asrwt>0</asrwt>
<pdfrwt beam="1">  1        1 0.16295057E+00 0.90343474E+03</pdfrwt>
<pdfrwt beam="2">  1       -1 0.11966880E+00 0.90343474E+03</pdfrwt>
<totfact> 0.86019870E+00</totfact>
</mgrwt>
</event>
<event>
 4    1  0.1043382E-007  0.6770881E+03  0.7818608E-02  0.1011021E+00
          1   -1    0    0  501    0  0.00000000000E+00  0.00000000000E+00  0.74473505123E+03  0.74473505124E+03  0.50400000000E-02 0. -1.
         -1   -1    0    0    0  501 -0.00000000000E+00 -0.00000000000E+00 -0.11737605075E+04  0.11737605075E+04  0.50400000000E-02 0.  1.
    8880023    1    1    2    0    0  0.14163191218E+03 -0.67664465707E+02 -0.10559417069E+04  0.12543768067E+04  0.65864270000E+03 0.  1.
    8880022    1    1    2    0    0 -0.14163191218E+03  0.67664465707E+02  0.62691625066E+03  0.66411875205E+03  0.15294330000E+03 0.  0.
<mgrwt>
<rscale>  0 0.51070799E+03</rscale>
<asrwt>0</asrwt>
<pdfrwt beam="1">  1        1 0.11457462E+00 0.67708809E+03</pdfrwt>
<pdfrwt beam="2">  1       -1 0.18057854E+00 0.67708809E+03</pdfrwt>
<totfact> 0.53455710E+00</totfact>
</mgrwt>
</event>
<event>
 4    1  0.1043382E-007  0.8709862E+03  0.7818608E-02  0.9574312E-01
         -1   -1    0    0    0  501 -0.00000000000E+00  0.00000000000E+00  0.15832387257E+04  0.15832387257E+04  0.50400000000E-02 0.  1.
          1   -1    0    0  501    0  0.00000000000E+00 -0.00000000000E+00 -0.92636914183E+03  0.92636914184E+03  0.50400000000E-02 0. -1.
    8880023    1    1    2    0    0  0.56960739160E+03  0.18818568369E+02  0.13454583913E+04  0.16027711029E+04  0.65864270000E+03 0.  0.
    8880022    1    1    2    0    0 -0.56960739160E+03 -0.18818568369E+02 -0.68858880744E+03  0.90683676471E+03  0.15294330000E+03 0.  0.
<mgrwt>
<rscale>  0 0.79019957E+03</rscale>
<asrwt>0</asrwt>
<pdfrwt beam="1">  1        1 0.14251833E+00 0.87098618E+03</pdfrwt>
<pdfrwt beam="2">  1       -1 0.24357519E+00 0.87098618E+03</pdfrwt>
<totfact> 0.13659542E+00</totfact>
</mgrwt>
</event>
<event>
 4    1  0.1617574E-007  0.6813234E+03  0.7818608E-02  0.1008585E+00
         -1   -1    0    0    0  501 -0.00000000000E+00  0.00000000000E+00  0.13055212060E+04  0.13055212060E+04  0.50400000000E-02 0.  1.
          1   -1    0    0  501    0  0.00000000000E+00 -0.00000000000E+00 -0.18883715098E+04  0.18883715098E+04  0.50400000000E-02 0. -1.
    8880023    1    1    2    0    0 -0.22462312074E+02  0.17287813066E+03  0.12086432015E+04  0.13874508994E+04  0.65864270000E+03 0.  1.
    8880022    1    1    2    0    0  0.22462312074E+02 -0.17287813066E+03 -0.17914935053E+04  0.18064418164E+04  0.15294330000E+03 0.  0.
<mgrwt>
<rscale>  0 0.52041005E+03</rscale>
<asrwt>0</asrwt>
<pdfrwt beam="1">  1        1 0.29051869E+00 0.68132343E+03</pdfrwt>
<pdfrwt beam="2">  1       -1 0.20084942E+00 0.68132343E+03</pdfrwt>
<totfact> 0.56887072E-01</totfact>
</mgrwt>
</event>
<event>
 4    1  0.1043382E-007  0.8319863E+03  0.7818608E-02  0.9645480E-01
         -1   -1    0    0    0  501 -0.00000000000E+00  0.00000000000E+00  0.66193185194E+03  0.66193185196E+03  0.50400000000E-02 0.  1.
          1   -1    0    0  501    0  0.00000000000E+00 -0.00000000000E+00 -0.13221596809E+04  0.13221596809E+04  0.50400000000E-02 0. -1.
    8880023    1    1    2    0    0 -0.46138165178E+03 -0.21334946251E+03  0.30204237208E+03  0.88511627629E+03  0.65864270000E+03 0.  1.
    8880022    1    1    2    0    0  0.46138165178E+03  0.21334946251E+03 -0.96227020099E+03  0.10989752565E+04  0.15294330000E+03 0.  0.
<mgrwt>
<rscale>  0 0.74357781E+03</rscale>
<asrwt>0</asrwt>
<pdfrwt beam="1">  1        1 0.20340918E+00 0.83198631E+03</pdfrwt>
<pdfrwt beam="2">  1       -1 0.10183567E+00 0.83198631E+03</pdfrwt>
<totfact> 0.81716463E+00</totfact>
</mgrwt>
</event>
<event>
 4    1  0.1043382E-007  0.7081959E+03  0.7818608E-02  0.9964762E-01
          1   -1    0    0  501    0  0.00000000000E+00  0.00000000000E+00  0.11284209710E+04  0.11284209710E+04  0.50400000000E-02 0. -1.
         -1   -1    0    0    0  501 -0.00000000000E+00 -0.00000000000E+00 -0.31170145042E+03  0.31170145046E+03  0.50400000000E-02 0.  1.
    8880023    1    1    2    0    0  0.20876765713E+03  0.15539388257E+03  0.17282241668E+03  0.72897804314E+03  0.65864270000E+03 0.  1.
    8880022    1    1    2    0    0 -0.20876765713E+03 -0.15539388257E+03  0.64389710387E+03  0.71114437830E+03  0.15294330000E+03 0.  0.
<mgrwt>
<rscale>  0 0.57222714E+03</rscale>
<asrwt>0</asrwt>
<pdfrwt beam="1">  1        1 0.17360323E+00 0.70819588E+03</pdfrwt>
<pdfrwt beam="2">  1       -1 0.47954069E-01 0.70819588E+03</pdfrwt>
<totfact> 0.53966210E+01</totfact>
</mgrwt>
</event>
<event>
 4    1  0.1043382E-007  0.9140435E+03  0.7818608E-02  0.9503853E-01
         -1   -1    0    0    0  501 -0.00000000000E+00  0.00000000000E+00  0.12076942480E+04  0.12076942480E+04  0.50400000000E-02 0.  1.
          1   -1    0    0  501    0  0.00000000000E+00 -0.00000000000E+00 -0.10282082359E+04  0.10282082359E+04  0.50400000000E-02 0. -1.
    8880023    1    1    2    0    0 -0.58237472792E+03 -0.25001005987E+03  0.88709119942E+03  0.12737371613E+04  0.65864270000E+03 0.  1.
    8880022    1    1    2    0    0  0.58237472792E+03  0.25001005987E+03 -0.70760518733E+03  0.96216532254E+03  0.15294330000E+03 0.  0.
<mgrwt>
<rscale>  0 0.84000342E+03</rscale>
<asrwt>0</asrwt>
<pdfrwt beam="1">  1        1 0.15818588E+00 0.91404352E+03</pdfrwt>
<pdfrwt beam="2">  1       -1 0.18579911E+00 0.91404352E+03</pdfrwt>
<totfact> 0.27626090E+00</totfact>
</mgrwt>
</event>
<event>
 4    1  0.1043382E-007  0.7446633E+03  0.7818608E-02  0.9846566E-01
          1   -1    0    0  501    0  0.00000000000E+00  0.00000000000E+00  0.95706652005E+03  0.95706652006E+03  0.50400000000E-02 0. -1.
         -1   -1    0    0    0  501 -0.00000000000E+00 -0.00000000000E+00 -0.58162752651E+03  0.58162752653E+03  0.50400000000E-02 0.  1.
    8880023    1    1    2    0    0  0.30703370461E+03 -0.16261447810E+03 -0.26816633842E+03  0.79147745109E+03  0.65864270000E+03 0.  0.
    8880022    1    1    2    0    0 -0.30703370461E+03  0.16261447810E+03  0.64360533196E+03  0.74721659551E+03  0.15294330000E+03 0.  0.
<mgrwt>
<rscale>  0 0.62922324E+03</rscale>
<asrwt>0</asrwt>
<pdfrwt beam="1">  1        1 0.14724100E+00 0.74466326E+03</pdfrwt>
<pdfrwt beam="2">  1       -1 0.89481158E-01 0.74466326E+03</pdfrwt>
<totfact> 0.20602369E+01</totfact>
</mgrwt>
</event>
<event>
 4    1  0.1043382E-007  0.7018609E+03  0.7818608E-02  0.9989567E-01
          1   -1    0    0  501    0  0.00000000000E+00  0.00000000000E+00  0.71624494459E+03  0.71624494461E+03  0.50400000000E-02 0. -1.
         -1   -1    0    0    0  501 -0.00000000000E+00 -0.00000000000E+00 -0.65787416128E+03  0.65787416130E+03  0.50400000000E-02 0.  1.
    8880023    1    1    2    0    0 -0.23565368167E+03  0.57147321885E+02 -0.41889827585E+03  0.81736432872E+03  0.65864270000E+03 0.  1.
    8880022    1    1    2    0    0  0.23565368167E+03 -0.57147321885E+02  0.47726905916E+03  0.55675477719E+03  0.15294330000E+03 0.  0.
<mgrwt>
<rscale>  0 0.56110059E+03</rscale>
<asrwt>0</asrwt>
<pdfrwt beam="1">  1        1 0.11019153E+00 0.70186087E+03</pdfrwt>
<pdfrwt beam="2">  1       -1 0.10121141E+00 0.70186087E+03</pdfrwt>
<totfact> 0.25152369E+01</totfact>
</mgrwt>
</event>
<event>
 4    1  0.1043382E-007  0.7068505E+03  0.7818608E-02  0.9969887E-01
         -1   -1    0    0    0  501 -0.00000000000E+00  0.00000000000E+00  0.27475560631E+03  0.27475560636E+03  0.50400000000E-02 0.  1.
          1   -1    0    0  501    0  0.00000000000E+00 -0.00000000000E+00 -0.40070498720E+04  0.40070498720E+04  0.50400000000E-02 0. -1.
    8880023    1    1    2    0    0 -0.86335360081E+02 -0.24160647063E+03 -0.19682689066E+03  0.73374281067E+03  0.65864270000E+03 0.  1.
    8880022    1    1    2    0    0  0.86335360081E+02  0.24160647063E+03 -0.35354673750E+04  0.35480626677E+04  0.15294330000E+03 0.  0.
<mgrwt>
<rscale>  0 0.56990563E+03</rscale>
<asrwt>0</asrwt>
<pdfrwt beam="1">  1        1 0.61646917E+00 0.70685054E+03</pdfrwt>
<pdfrwt beam="2">  1       -1 0.42270096E-01 0.70685054E+03</pdfrwt>
<totfact> 0.58407313E-01</totfact>
</mgrwt>
</event>
<event>
 4    1  0.1043382E-007  0.9440326E+03  0.7818608E-02  0.9458752E-01
          1   -1    0    0  501    0  0.00000000000E+00  0.00000000000E+00  0.30735201242E+04  0.30735201242E+04  0.50400000000E-02 0. -1.
         -1   -1    0    0    0  501 -0.00000000000E+00 -0.00000000000E+00 -0.59463273980E+03  0.59463273982E+03  0.50400000000E-02 0.  1.
    8880023    1    1    2    0    0  0.61597689874E+03  0.27921273784E+03 -0.14418817768E+03  0.95498048650E+03  0.65864270000E+03 0.  0.
    8880022    1    1    2    0    0 -0.61597689874E+03 -0.27921273784E+03  0.26230755620E+04  0.27131723775E+04  0.15294330000E+03 0.  0.
<mgrwt>
<rscale>  0 0.87394362E+03</rscale>
<asrwt>0</asrwt>
<pdfrwt beam="1">  1        1 0.47284925E+00 0.94403257E+03</pdfrwt>
<pdfrwt beam="2">  1       -1 0.91481959E-01 0.94403257E+03</pdfrwt>
<totfact> 0.63961888E-01</totfact>
</mgrwt>
</event>
<event>
 4    1  0.1043382E-007  0.8205325E+03  0.7818608E-02  0.9668042E-01
          1   -1    0    0  501    0  0.00000000000E+00  0.00000000000E+00  0.10367177686E+04  0.10367177686E+04  0.50400000000E-02 0. -1.
         -1   -1    0    0    0  501 -0.00000000000E+00 -0.00000000000E+00 -0.59294710163E+03  0.59294710165E+03  0.50400000000E-02 0.  1.
    8880023    1    1    2    0    0  0.31628967450E+02 -0.48832667423E+03 -0.16167135918E+03  0.83630805747E+03  0.65864270000E+03 0.  1.
    8880022    1    1    2    0    0 -0.31628967450E+02  0.48832667423E+03  0.60544202610E+03  0.79335681274E+03  0.15294330000E+03 0.  0.
<mgrwt>
<rscale>  0 0.72951858E+03</rscale>
<asrwt>0</asrwt>
<pdfrwt beam="1">  1        1 0.15949504E+00 0.82053247E+03</pdfrwt>
<pdfrwt beam="2">  1       -1 0.91222631E-01 0.82053247E+03</pdfrwt>
<totfact> 0.16969889E+01</totfact>
</mgrwt>
</event>
<event>
 4    1  0.1043382E-007  0.8158841E+03  0.7818608E-02  0.9677448E-01
          1   -1    0    0  501    0  0.00000000000E+00  0.00000000000E+00  0.98341597057E+03  0.98341597058E+03  0.50400000000E-02 0. -1.
         -1   -1    0    0    0  501 -0.00000000000E+00 -0.00000000000E+00 -0.64324890851E+03  0.64324890853E+03  0.50400000000E-02 0.  1.
    8880023    1    1    2    0    0 -0.29369067473E+03 -0.38157883376E+03 -0.24662453453E+03  0.85234411249E+03  0.65864270000E+03 0.  1.
    8880022    1    1    2    0    0  0.29369067473E+03  0.38157883376E+03  0.58679159658E+03  0.77432076662E+03  0.15294330000E+03 0.  0.
<mgrwt>
<rscale>  0 0.72375519E+03</rscale>
<asrwt>0</asrwt>
<pdfrwt beam="1">  1        1 0.15129476E+00 0.81588408E+03</pdfrwt>
<pdfrwt beam="2">  1       -1 0.98961371E-01 0.81588408E+03</pdfrwt>
<totfact> 0.15554976E+01</totfact>
</mgrwt>
</event>
<event>
 4    1  0.1043382E-007  0.9772838E+03  0.7818608E-02  0.9411900E-01
         -1   -1    0    0    0  501 -0.00000000000E+00  0.00000000000E+00  0.12871964608E+04  0.12871964608E+04  0.50400000000E-02 0.  1.
          1   -1    0    0  501    0  0.00000000000E+00 -0.00000000000E+00 -0.61931260716E+03  0.61931260718E+03  0.50400000000E-02 0. -1.
    8880023    1    1    2    0    0  0.68321142179E+02 -0.71875287610E+03  0.63955150265E+03  0.11679511146E+04  0.65864270000E+03 0.  0.
    8880022    1    1    2    0    0 -0.68321142179E+02  0.71875287610E+03  0.28332351004E+02  0.73855795337E+03  0.15294330000E+03 0.  0.
<mgrwt>
<rscale>  0 0.91102801E+03</rscale>
<asrwt>0</asrwt>
<pdfrwt beam="1">  1        1 0.95278863E-01 0.97728383E+03</pdfrwt>
<pdfrwt beam="2">  1       -1 0.19803022E+00 0.97728383E+03</pdfrwt>
<totfact> 0.51128367E+00</totfact>
</mgrwt>
</event>
<event>
 4    1  0.1043382E-007  0.6790649E+03  0.7818608E-02  0.1009858E+00
          1   -1    0    0  501    0  0.00000000000E+00  0.00000000000E+00  0.13712327998E+04  0.13712327998E+04  0.50400000000E-02 0. -1.
         -1   -1    0    0    0  501 -0.00000000000E+00 -0.00000000000E+00 -0.20035587254E+03  0.20035587261E+03  0.50400000000E-02 0.  1.
    8880023    1    1    2    0    0  0.15612427753E+03 -0.54260247167E+02  0.44573691000E+03  0.81228724209E+03  0.65864270000E+03 0.  1.
    8880022    1    1    2    0    0 -0.15612427753E+03  0.54260247167E+02  0.72514001729E+03  0.75930143036E+03  0.15294330000E+03 0.  0.
<mgrwt>
<rscale>  0 0.51531269E+03</rscale>
<asrwt>0</asrwt>
<pdfrwt beam="1">  1        1 0.21095889E+00 0.67906492E+03</pdfrwt>
<pdfrwt beam="2">  1       -1 0.30823981E-01 0.67906492E+03</pdfrwt>
<totfact> 0.80684383E+01</totfact>
</mgrwt>
</event>
<event>
 4    1  0.1043382E-007  0.9290374E+03  0.7818608E-02  0.9480939E-01
          1   -1    0    0  501    0  0.00000000000E+00  0.00000000000E+00  0.96781196413E+03  0.96781196414E+03  0.50400000000E-02 0. -1.
         -1   -1    0    0    0  501 -0.00000000000E+00 -0.00000000000E+00 -0.19004338331E+04  0.19004338331E+04  0.50400000000E-02 0.  1.
    8880023    1    1    2    0    0 -0.57503709481E+03 -0.31405836302E+03 -0.16444649596E+04  0.18887497255E+04  0.65864270000E+03 0.  1.
    8880022    1    1    2    0    0  0.57503709481E+03  0.31405836302E+03  0.71184309068E+03  0.97949607174E+03  0.15294330000E+03 0.  0.
<mgrwt>
<rscale>  0 0.85703834E+03</rscale>
<asrwt>0</asrwt>
<pdfrwt beam="1">  1        1 0.14889415E+00 0.92903742E+03</pdfrwt>
<pdfrwt beam="2">  1       -1 0.29237444E+00 0.92903742E+03</pdfrwt>
<totfact> 0.60832172E-01</totfact>
</mgrwt>
</event>
<event>
 4    1  0.1043382E-007  0.7703218E+03  0.7818608E-02  0.9779083E-01
         -1   -1    0    0    0  501 -0.00000000000E+00  0.00000000000E+00  0.13462069002E+03  0.13462069011E+03  0.50400000000E-02 0.  1.
          1   -1    0    0  501    0  0.00000000000E+00 -0.00000000000E+00 -0.26706433886E+04  0.26706433886E+04  0.50400000000E-02 0. -1.
    8880023    1    1    2    0    0  0.36852473682E+03 -0.15419154204E+03 -0.15716522912E+04  0.17502818756E+04  0.65864270000E+03 0.  1.
    8880022    1    1    2    0    0 -0.36852473682E+03  0.15419154204E+03 -0.96437040736E+03  0.10549822031E+04  0.15294330000E+03 0. -1.
<mgrwt>
<rscale>  0 0.66497262E+03</rscale>
<asrwt>0</asrwt>
<pdfrwt beam="1">  1        1 0.41086817E+00 0.77032183E+03</pdfrwt>
<pdfrwt beam="2">  1       -1 0.20710877E-01 0.77032183E+03</pdfrwt>
<totfact> 0.20792989E+01</totfact>
</mgrwt>
</event>
<event>
 4    1  0.1043382E-007  0.1057839E+04  0.7818608E-02  0.9309516E-01
          1   -1    0    0  501    0  0.00000000000E+00  0.00000000000E+00  0.13977229514E+04  0.13977229514E+04  0.50400000000E-02 0. -1.
         -1   -1    0    0    0  501 -0.00000000000E+00 -0.00000000000E+00 -0.70102351700E+03  0.70102351702E+03  0.50400000000E-02 0.  1.
    8880023    1    1    2    0    0  0.60020782496E+02 -0.82559770750E+03  0.67855031360E+03  0.12567636227E+04  0.65864270000E+03 0.  1.
    8880022    1    1    2    0    0 -0.60020782496E+02  0.82559770750E+03  0.18149120830E+02  0.84198284577E+03  0.15294330000E+03 0. -1.
<mgrwt>
<rscale>  0 0.99911481E+03</rscale>
<asrwt>0</asrwt>
<pdfrwt beam="1">  1        1 0.21503430E+00 0.10578394E+04</pdfrwt>
<pdfrwt beam="2">  1       -1 0.10784977E+00 0.10578394E+04</pdfrwt>
<totfact> 0.61542561E+00</totfact>
</mgrwt>
</event>
<event>
 4    1  0.1043382E-007  0.8289070E+03  0.7818608E-02  0.9651463E-01
         -1   -1    0    0    0  501 -0.00000000000E+00  0.00000000000E+00  0.18940546291E+04  0.18940546291E+04  0.50400000000E-02 0.  1.
          1   -1    0    0  501    0  0.00000000000E+00 -0.00000000000E+00 -0.26045321941E+03  0.26045321946E+03  0.50400000000E-02 0. -1.
    8880023    1    1    2    0    0 -0.39557097373E+03 -0.31112741492E+03  0.12643613248E+04  0.15118519866E+04  0.65864270000E+03 0.  0.
    8880022    1    1    2    0    0  0.39557097373E+03  0.31112741492E+03  0.36924008490E+03  0.64265586194E+03  0.15294330000E+03 0.  0.
<mgrwt>
<rscale>  0 0.73981698E+03</rscale>
<asrwt>0</asrwt>
<pdfrwt beam="1">  1        1 0.40069725E-01 0.82890703E+03</pdfrwt>
<pdfrwt beam="2">  1       -1 0.29139303E+00 0.82890703E+03</pdfrwt>
<totfact> 0.40934927E+00</totfact>
</mgrwt>
</event>
<event>
 4    1  0.1043382E-007  0.9128519E+03  0.7818608E-02  0.9505707E-01
          1   -1    0    0  501    0  0.00000000000E+00  0.00000000000E+00  0.81762533288E+03  0.81762533289E+03  0.50400000000E-02 0. -1.
         -1   -1    0    0    0  501 -0.00000000000E+00 -0.00000000000E+00 -0.12031078871E+04  0.12031078871E+04  0.50400000000E-02 0.  1.
    8880023    1    1    2    0    0  0.54432329974E+03 -0.32124843410E+03  0.40370796121E+03  0.99813763342E+03  0.65864270000E+03 0.  0.
    8880022    1    1    2    0    0 -0.54432329974E+03  0.32124843410E+03 -0.78919051544E+03  0.10225955866E+04  0.15294330000E+03 0.  0.
<mgrwt>
<rscale>  0 0.83864353E+03</rscale>
<asrwt>0</asrwt>
<pdfrwt beam="1">  1        1 0.12578851E+00 0.91285191E+03</pdfrwt>
<pdfrwt beam="2">  1       -1 0.18509352E+00 0.91285191E+03</pdfrwt>
<totfact> 0.41414926E+00</totfact>
</mgrwt>
</event>
<event>
 4    1  0.1043382E-007  0.8738566E+03  0.7818608E-02  0.9569375E-01
         -1   -1    0    0    0  501 -0.00000000000E+00  0.00000000000E+00  0.43273303364E+03  0.43273303367E+03  0.50400000000E-02 0.  1.
          1   -1    0    0  501    0  0.00000000000E+00 -0.00000000000E+00 -0.13020419710E+04  0.13020419711E+04  0.50400000000E-02 0. -1.
    8880023    1    1    2    0    0 -0.56950833648E+03  0.73996250663E+02 -0.69172246853E+03  0.11144978107E+04  0.65864270000E+03 0.  0.
    8880022    1    1    2    0    0  0.56950833648E+03 -0.73996250663E+02 -0.17758646887E+03  0.62027719398E+03  0.15294330000E+03 0.  0.
<mgrwt>
<rscale>  0 0.79356732E+03</rscale>
<asrwt>0</asrwt>
<pdfrwt beam="1">  1        1 0.20031415E+00 0.87385662E+03</pdfrwt>
<pdfrwt beam="2">  1       -1 0.66574313E-01 0.87385662E+03</pdfrwt>
<totfact> 0.20962504E+01</totfact>
</mgrwt>
</event>
<event>
 4    1  0.1043382E-007  0.7368385E+03  0.7818608E-02  0.9869254E-01
         -1   -1    0    0    0  501 -0.00000000000E+00  0.00000000000E+00  0.67592947686E+03  0.67592947688E+03  0.50400000000E-02 0.  1.
          1   -1    0    0  501    0  0.00000000000E+00 -0.00000000000E+00 -0.11422225610E+04  0.11422225610E+04  0.50400000000E-02 0. -1.
    8880023    1    1    2    0    0  0.28960092326E+03 -0.15890881216E+03  0.42833996272E+03  0.85229457071E+03  0.65864270000E+03 0.  1.
    8880022    1    1    2    0    0 -0.28960092326E+03  0.15890881216E+03 -0.89463304684E+03  0.96585746715E+03  0.15294330000E+03 0.  0.
<mgrwt>
<rscale>  0 0.61774788E+03</rscale>
<asrwt>0</asrwt>
<pdfrwt beam="1">  1        1 0.17572655E+00 0.73683846E+03</pdfrwt>
<pdfrwt beam="2">  1       -1 0.10398915E+00 0.73683846E+03</pdfrwt>
<totfact> 0.10630369E+01</totfact>
</mgrwt>
</event>
<event>
 4    1  0.1043382E-007  0.7265035E+03  0.7818608E-02  0.9901165E-01
          1   -1    0    0  501    0  0.00000000000E+00  0.00000000000E+00  0.93045023516E+03  0.93045023517E+03  0.50400000000E-02 0. -1.
         -1   -1    0    0    0  501 -0.00000000000E+00 -0.00000000000E+00 -0.75987233142E+03  0.75987233144E+03  0.50400000000E-02 0.  1.
    8880023    1    1    2    0    0 -0.30201401340E+03  0.52770208298E+02 -0.53749029703E+03  0.90371631878E+03  0.65864270000E+03 0.  0.
    8880022    1    1    2    0    0  0.30201401340E+03 -0.52770208298E+02  0.70806820076E+03  0.78660624783E+03  0.15294330000E+03 0.  0.
<mgrwt>
<rscale>  0 0.60204871E+03</rscale>
<asrwt>0</asrwt>
<pdfrwt beam="1">  1        1 0.14314619E+00 0.72650352E+03</pdfrwt>
<pdfrwt beam="2">  1       -1 0.11690344E+00 0.72650352E+03</pdfrwt>
<totfact> 0.11729558E+01</totfact>
</mgrwt>
</event>
<event>
 4    1  0.1043382E-007  0.1974319E+04  0.7818608E-02  0.8631784E-01
          1   -1    0    0  501    0  0.00000000000E+00  0.00000000000E+00  0.40055425471E+04  0.40055425471E+04  0.50400000000E-02 0. -1.
         -1   -1    0    0    0  501 -0.00000000000E+00 -0.00000000000E+00 -0.15728365756E+04  0.15728365756E+04  0.50400000000E-02 0.  1.
    8880023    1    1    2    0    0  0.13194454334E+04 -0.13127032218E+04 -0.55874953922E+03  0.20518618994E+04  0.65864270000E+03 0.  0.
    8880022    1    1    2    0    0 -0.13194454334E+04  0.13127032218E+04  0.29914555108E+04  0.35265172233E+04  0.15294330000E+03 0.  0.
<mgrwt>
<rscale>  0 0.19470521E+04</rscale>
<asrwt>0</asrwt>
<pdfrwt beam="1">  1        1 0.61623731E+00 0.19743192E+04</pdfrwt>
<pdfrwt beam="2">  1       -1 0.24197486E+00 0.19743192E+04</pdfrwt>
<totfact> 0.66729054E-03</totfact>
</mgrwt>
</event>
<event>
 4    1  0.1043382E-007  0.8801960E+03  0.7818608E-02  0.9558602E-01
          1   -1    0    0  501    0  0.00000000000E+00  0.00000000000E+00  0.77338535651E+03  0.77338535653E+03  0.50400000000E-02 0. -1.
         -1   -1    0    0    0  501 -0.00000000000E+00 -0.00000000000E+00 -0.86634066409E+03  0.86634066411E+03  0.50400000000E-02 0.  1.
    8880023    1    1    2    0    0 -0.38904709222E+03  0.43540449369E+03 -0.39501394061E+03  0.96476988584E+03  0.65864270000E+03 0.  1.
    8880022    1    1    2    0    0  0.38904709222E+03 -0.43540449369E+03  0.30205863303E+03  0.67495613479E+03  0.15294330000E+03 0.  0.
<mgrwt>
<rscale>  0 0.80097849E+03</rscale>
<asrwt>0</asrwt>
<pdfrwt beam="1">  1        1 0.11898236E+00 0.88019596E+03</pdfrwt>
<pdfrwt beam="2">  1       -1 0.13328318E+00 0.88019596E+03</pdfrwt>
<totfact> 0.11269282E+01</totfact>
</mgrwt>
</event>
<event>
 4    1  0.1043382E-007  0.6821274E+03  0.7818608E-02  0.1008145E+00
          1   -1    0    0  501    0  0.00000000000E+00  0.00000000000E+00  0.54016448514E+03  0.54016448517E+03  0.50400000000E-02 0. -1.
         -1   -1    0    0    0  501 -0.00000000000E+00 -0.00000000000E+00 -0.54048287578E+03  0.54048287581E+03  0.50400000000E-02 0.  1.
    8880023    1    1    2    0    0  0.26330569925E+02  0.17548294177E+03 -0.26083209222E+03  0.73029524739E+03  0.65864270000E+03 0.  1.
    8880022    1    1    2    0    0 -0.26330569925E+02 -0.17548294177E+03  0.26051370158E+03  0.35035211358E+03  0.15294330000E+03 0.  0.
<mgrwt>
<rscale>  0 0.52218585E+03</rscale>
<asrwt>0</asrwt>
<pdfrwt beam="1">  1        1 0.83102229E-01 0.68212738E+03</pdfrwt>
<pdfrwt beam="2">  1       -1 0.83151211E-01 0.68212738E+03</pdfrwt>
<totfact> 0.58659654E+01</totfact>
</mgrwt>
</event>
<event>
 4    1  0.1043382E-007  0.9153368E+03  0.7818608E-02  0.9501846E-01
          1   -1    0    0  501    0  0.00000000000E+00  0.00000000000E+00  0.21811369764E+04  0.21811369764E+04  0.50400000000E-02 0. -1.
         -1   -1    0    0    0  501 -0.00000000000E+00 -0.00000000000E+00 -0.46099369421E+03  0.46099369423E+03  0.50400000000E-02 0.  1.
    8880023    1    1    2    0    0 -0.40820161907E+03  0.48723985081E+03  0.13215514228E+03  0.92482777960E+03  0.65864270000E+03 0.  0.
    8880022    1    1    2    0    0  0.40820161907E+03 -0.48723985081E+03  0.15879881399E+04  0.17173028910E+04  0.15294330000E+03 0.  0.
<mgrwt>
<rscale>  0 0.84147828E+03</rscale>
<asrwt>0</asrwt>
<pdfrwt beam="1">  1        1 0.33555953E+00 0.91533679E+03</pdfrwt>
<pdfrwt beam="2">  1       -1 0.70922107E-01 0.91533679E+03</pdfrwt>
<totfact> 0.46230250E+00</totfact>
</mgrwt>
</event>
<event>
 4    1  0.1043382E-007  0.7921369E+03  0.7818608E-02  0.9728063E-01
         -1   -1    0    0    0  501 -0.00000000000E+00  0.00000000000E+00  0.48731911883E+03  0.48731911886E+03  0.50400000000E-02 0.  1.
          1   -1    0    0  501    0  0.00000000000E+00 -0.00000000000E+00 -0.22976338912E+04  0.22976338912E+04  0.50400000000E-02 0. -1.
    8880023    1    1    2    0    0 -0.39184492928E+03 -0.20032044446E+03  0.11824649817E+03  0.80091395896E+03  0.65864270000E+03 0.  1.
    8880022    1    1    2    0    0  0.39184492928E+03  0.20032044446E+03 -0.19285612705E+04  0.19840390511E+04  0.15294330000E+03 0.  0.
<mgrwt>
<rscale>  0 0.69370252E+03</rscale>
<asrwt>0</asrwt>
<pdfrwt beam="1">  1        1 0.35348213E+00 0.79213694E+03</pdfrwt>
<pdfrwt beam="2">  1       -1 0.74972173E-01 0.79213694E+03</pdfrwt>
<totfact> 0.35065471E+00</totfact>
</mgrwt>
</event>
<event>
 4    1  0.1043382E-007  0.9741977E+03  0.7818608E-02  0.9416122E-01
         -1   -1    0    0    0  501 -0.00000000000E+00  0.00000000000E+00  0.13597653847E+04  0.13597653847E+04  0.50400000000E-02 0.  1.
          1   -1    0    0  501    0  0.00000000000E+00 -0.00000000000E+00 -0.15853389602E+04  0.15853389602E+04  0.50400000000E-02 0. -1.
    8880023    1    1    2    0    0 -0.71752975314E+03 -0.20049978388E+02 -0.13119226867E+04  0.16340753625E+04  0.65864270000E+03 0. -1.
    8880022    1    1    2    0    0  0.71752975314E+03  0.20049978388E+02  0.10863491112E+04  0.13110289824E+04  0.15294330000E+03 0.  0.
<mgrwt>
<rscale>  0 0.90760716E+03</rscale>
<asrwt>0</asrwt>
<pdfrwt beam="1">  1        1 0.24389830E+00 0.97419770E+03</pdfrwt>
<pdfrwt beam="2">  1       -1 0.20919468E+00 0.97419770E+03</pdfrwt>
<totfact> 0.75303751E-01</totfact>
</mgrwt>
</event>
<event>
 4    1  0.1043382E-007  0.6746180E+03  0.7818608E-02  0.1012548E+00
          1   -1    0    0  501    0  0.00000000000E+00  0.00000000000E+00  0.14481927985E+04  0.14481927985E+04  0.50400000000E-02 0. -1.
         -1   -1    0    0    0  501 -0.00000000000E+00 -0.00000000000E+00 -0.30513389969E+03  0.30513389973E+03  0.50400000000E-02 0.  1.
    8880023    1    1    2    0    0  0.43419234632E+02  0.13933409321E+03  0.91578528984E+02  0.68080544409E+03  0.65864270000E+03 0.  1.
    8880022    1    1    2    0    0 -0.43419234632E+02 -0.13933409321E+03  0.10514803698E+04  0.10725212542E+04  0.15294330000E+03 0.  0.
<mgrwt>
<rscale>  0 0.50474356E+03</rscale>
<asrwt>0</asrwt>
<pdfrwt beam="1">  1        1 0.22279889E+00 0.67461799E+03</pdfrwt>
<pdfrwt beam="2">  1       -1 0.46943677E-01 0.67461799E+03</pdfrwt>
<totfact> 0.33453594E+01</totfact>
</mgrwt>
</event>
<event>
 4    1  0.1043382E-007  0.7232185E+03  0.7818608E-02  0.9911842E-01
         -1   -1    0    0    0  501 -0.00000000000E+00  0.00000000000E+00  0.66311383073E+03  0.66311383075E+03  0.50400000000E-02 0.  1.
          1   -1    0    0  501    0  0.00000000000E+00 -0.00000000000E+00 -0.55366491781E+03  0.55366491783E+03  0.50400000000E-02 0. -1.
    8880023    1    1    2    0    0  0.28137825400E+03  0.10030485105E+03  0.35040710160E+03  0.80363556920E+03  0.65864270000E+03 0.  0.
    8880022    1    1    2    0    0 -0.28137825400E+03 -0.10030485105E+03 -0.24095818868E+03  0.41314317938E+03  0.15294330000E+03 0.  0.
<mgrwt>
<rscale>  0 0.59690771E+03</rscale>
<asrwt>0</asrwt>
<pdfrwt beam="1">  1        1 0.85179219E-01 0.72321849E+03</pdfrwt>
<pdfrwt beam="2">  1       -1 0.10201751E+00 0.72321849E+03</pdfrwt>
<totfact> 0.35884156E+01</totfact>
</mgrwt>
</event>
<event>
 4    1  0.1043382E-007  0.9186096E+03  0.7818608E-02  0.9496794E-01
          1   -1    0    0  501    0  0.00000000000E+00  0.00000000000E+00  0.11703510900E+04  0.11703510900E+04  0.50400000000E-02 0. -1.
         -1   -1    0    0    0  501 -0.00000000000E+00 -0.00000000000E+00 -0.67515814253E+03  0.67515814255E+03  0.50400000000E-02 0.  1.
    8880023    1    1    2    0    0 -0.32170005729E+03 -0.55366274664E+03 -0.14174015555E+03  0.92948041498E+03  0.65864270000E+03 0.  0.
    8880022    1    1    2    0    0  0.32170005729E+03  0.55366274664E+03  0.63693310300E+03  0.91602881755E+03  0.15294330000E+03 0.  0.
<mgrwt>
<rscale>  0 0.84520582E+03</rscale>
<asrwt>0</asrwt>
<pdfrwt beam="1">  1        1 0.18005401E+00 0.91860959E+03</pdfrwt>
<pdfrwt beam="2">  1       -1 0.10387048E+00 0.91860959E+03</pdfrwt>
<totfact> 0.99302801E+00</totfact>
</mgrwt>
</event>
<event>
 4    1  0.1043382E-007  0.6970305E+03  0.7818608E-02  0.1000975E+00
         -1   -1    0    0    0  501 -0.00000000000E+00  0.00000000000E+00  0.40626805714E+03  0.40626805717E+03  0.50400000000E-02 0.  1.
          1   -1    0    0  501    0  0.00000000000E+00 -0.00000000000E+00 -0.74485954803E+03  0.74485954805E+03  0.50400000000E-02 0. -1.
    8880023    1    1    2    0    0 -0.22099104998E+03 -0.56605829518E+02  0.22572698892E+02  0.69739586829E+03  0.65864270000E+03 0.  1.
    8880022    1    1    2    0    0  0.22099104998E+03  0.56605829518E+02 -0.36116418978E+03  0.45373173693E+03  0.15294330000E+03 0. -1.
<mgrwt>
<rscale>  0 0.55224772E+03</rscale>
<asrwt>0</asrwt>
<pdfrwt beam="1">  1        1 0.11459378E+00 0.69703047E+03</pdfrwt>
<pdfrwt beam="2">  1       -1 0.62502778E-01 0.69703047E+03</pdfrwt>
<totfact> 0.65934662E+01</totfact>
</mgrwt>
</event>
<event>
 4    1  0.1043382E-007  0.1184874E+04  0.7818608E-02  0.9171968E-01
          1   -1    0    0  501    0  0.00000000000E+00  0.00000000000E+00  0.15975098282E+04  0.15975098282E+04  0.50400000000E-02 0. -1.
         -1   -1    0    0    0  501 -0.00000000000E+00 -0.00000000000E+00 -0.10503020063E+04  0.10503020063E+04  0.50400000000E-02 0.  1.
    8880023    1    1    2    0    0  0.84138871608E+03  0.51203520597E+03  0.10024335026E+04  0.15520303338E+04  0.65864270000E+03 0.  0.
    8880022    1    1    2    0    0 -0.84138871608E+03 -0.51203520597E+03 -0.45522568072E+03  0.10957815006E+04  0.15294330000E+03 0.  0.
<mgrwt>
<rscale>  0 0.11347504E+04</rscale>
<asrwt>0</asrwt>
<pdfrwt beam="1">  1        1 0.24577074E+00 0.11848735E+04</pdfrwt>
<pdfrwt beam="2">  1       -1 0.16158492E+00 0.11848735E+04</pdfrwt>
<totfact> 0.15647276E+00</totfact>
</mgrwt>
</event>
<event>
 4    1  0.1043382E-007  0.1057152E+04  0.7818608E-02  0.9310333E-01
         -1   -1    0    0    0  501 -0.00000000000E+00  0.00000000000E+00  0.22964771546E+04  0.22964771546E+04  0.50400000000E-02 0.  1.
          1   -1    0    0  501    0  0.00000000000E+00 -0.00000000000E+00 -0.93121239405E+03  0.93121239406E+03  0.50400000000E-02 0. -1.
    8880023    1    1    2    0    0  0.81552706776E+03 -0.13666012709E+03  0.19398532908E+04  0.22092083163E+04  0.65864270000E+03 0.  0.
    8880022    1    1    2    0    0 -0.81552706776E+03  0.13666012709E+03 -0.57458853027E+03  0.10184812324E+04  0.15294330000E+03 0.  0.
<mgrwt>
<rscale>  0 0.99837159E+03</rscale>
<asrwt>0</asrwt>
<pdfrwt beam="1">  1        1 0.14326345E+00 0.10571521E+04</pdfrwt>
<pdfrwt beam="2">  1       -1 0.35330417E+00 0.10571521E+04</pdfrwt>
<totfact> 0.25636162E-01</totfact>
</mgrwt>
</event>
<event>
 4    1  0.1043382E-007  0.6794947E+03  0.7818608E-02  0.1009611E+00
          1   -1    0    0  501    0  0.00000000000E+00  0.00000000000E+00  0.15564183950E+04  0.15564183950E+04  0.50400000000E-02 0. -1.
         -1   -1    0    0    0  501 -0.00000000000E+00 -0.00000000000E+00 -0.15631427752E+03  0.15631427760E+03  0.50400000000E-02 0.  1.
    8880023    1    1    2    0    0  0.14506262925E+03  0.82823343185E+02  0.69427865699E+03  0.97146072097E+03  0.65864270000E+03 0.  0.
    8880022    1    1    2    0    0 -0.14506262925E+03 -0.82823343185E+02  0.70582546049E+03  0.74127195163E+03  0.15294330000E+03 0.  0.
<mgrwt>
<rscale>  0 0.51629562E+03</rscale>
<asrwt>0</asrwt>
<pdfrwt beam="1">  1        1 0.23944900E+00 0.67949472E+03</pdfrwt>
<pdfrwt beam="2">  1       -1 0.24048349E-01 0.67949472E+03</pdfrwt>
<totfact> 0.92268337E+01</totfact>
</mgrwt>
</event>
<event>
 4    1  0.1043382E-007  0.7207225E+03  0.7818608E-02  0.9920149E-01
          1   -1    0    0  501    0  0.00000000000E+00  0.00000000000E+00  0.12355847958E+04  0.12355847958E+04  0.50400000000E-02 0. -1.
         -1   -1    0    0    0  501 -0.00000000000E+00 -0.00000000000E+00 -0.70887624001E+03  0.70887624003E+03  0.50400000000E-02 0.  1.
    8880023    1    1    2    0    0  0.71729254022E+02 -0.28369984990E+03 -0.49261767302E+03  0.87299087552E+03  0.65864270000E+03 0.  1.
    8880022    1    1    2    0    0 -0.71729254022E+02  0.28369984990E+03  0.10193262288E+04  0.10714701603E+04  0.15294330000E+03 0.  0.
<mgrwt>
<rscale>  0 0.59294648E+03</rscale>
<asrwt>0</asrwt>
<pdfrwt beam="1">  1        1 0.19008997E+00 0.72072248E+03</pdfrwt>
<pdfrwt beam="2">  1       -1 0.10905789E+00 0.72072248E+03</pdfrwt>
<totfact> 0.81590069E+00</totfact>
</mgrwt>
</event>
<event>
 4    1  0.1043382E-007  0.7074432E+03  0.7818608E-02  0.9967621E-01
          1   -1    0    0  501    0  0.00000000000E+00  0.00000000000E+00  0.16822575178E+04  0.16822575178E+04  0.50400000000E-02 0. -1.
         -1   -1    0    0    0  501 -0.00000000000E+00 -0.00000000000E+00 -0.48360575099E+03  0.48360575101E+03  0.50400000000E-02 0.  1.
    8880023    1    1    2    0    0  0.17417548903E+03 -0.19060044491E+03 -0.20016705339E+03  0.73521608123E+03  0.65864270000E+03 0.  1.
    8880022    1    1    2    0    0 -0.17417548903E+03  0.19060044491E+03  0.13988188202E+04  0.14306471876E+04  0.15294330000E+03 0.  0.
<mgrwt>
<rscale>  0 0.57093087E+03</rscale>
<asrwt>0</asrwt>
<pdfrwt beam="1">  1        1 0.25880885E+00 0.70744317E+03</pdfrwt>
<pdfrwt beam="2">  1       -1 0.74400884E-01 0.70744317E+03</pdfrwt>
<totfact> 0.93430066E+00</totfact>
</mgrwt>
</event>
<event>
 4    1  0.1043382E-007  0.6763985E+03  0.7818608E-02  0.1011439E+00
         -1   -1    0    0    0  501 -0.00000000000E+00  0.00000000000E+00  0.30984011459E+03  0.30984011463E+03  0.50400000000E-02 0.  1.
          1   -1    0    0  501    0  0.00000000000E+00 -0.00000000000E+00 -0.71641951081E+03  0.71641951083E+03  0.50400000000E-02 0. -1.
    8880023    1    1    2    0    0 -0.74740468184E+02 -0.13460516674E+03 -0.15484800961E+03  0.69389682291E+03  0.65864270000E+03 0. -1.
    8880022    1    1    2    0    0  0.74740468184E+02  0.13460516674E+03 -0.25173138661E+03  0.33236280255E+03  0.15294330000E+03 0.  0.
<mgrwt>
<rscale>  0 0.50906749E+03</rscale>
<asrwt>0</asrwt>
<pdfrwt beam="1">  1        1 0.11021839E+00 0.67639847E+03</pdfrwt>
<pdfrwt beam="2">  1       -1 0.47667710E-01 0.67639847E+03</pdfrwt>
<totfact> 0.11818144E+02</totfact>
</mgrwt>
</event>
<event>
 4    1  0.1043382E-007  0.1229265E+04  0.7818608E-02  0.9129187E-01
         -1   -1    0    0    0  501 -0.00000000000E+00  0.00000000000E+00  0.10082840151E+04  0.10082840151E+04  0.50400000000E-02 0.  1.
          1   -1    0    0  501    0  0.00000000000E+00 -0.00000000000E+00 -0.13731159208E+04  0.13731159208E+04  0.50400000000E-02 0. -1.
    8880023    1    1    2    0    0 -0.50223776551E+03 -0.90831641171E+03  0.10119233282E+03  0.12334227059E+04  0.65864270000E+03 0. -1.
    8880022    1    1    2    0    0  0.50223776551E+03  0.90831641171E+03 -0.46602423851E+03  0.11479772301E+04  0.15294330000E+03 0.  0.
<mgrwt>
<rscale>  0 0.11815207E+04</rscale>
<asrwt>0</asrwt>
<pdfrwt beam="1">  1        1 0.21124860E+00 0.12292647E+04</pdfrwt>
<pdfrwt beam="2">  1       -1 0.15512062E+00 0.12292647E+04</pdfrwt>
<totfact> 0.24986385E+00</totfact>
</mgrwt>
</event>
<event>
 4    1  0.1043382E-007  0.1499495E+04  0.7818608E-02  0.8909993E-01
         -1   -1    0    0    0  501 -0.00000000000E+00  0.00000000000E+00  0.60998624998E+03  0.60998625000E+03  0.50400000000E-02 0.  1.
          1   -1    0    0  501    0  0.00000000000E+00 -0.00000000000E+00 -0.43381628970E+04  0.43381628970E+04  0.50400000000E-02 0. -1.
    8880023    1    1    2    0    0 -0.13001531114E+04 -0.35252790935E+03 -0.75150752873E+03  0.16772739227E+04  0.65864270000E+03 0.  0.
    8880022    1    1    2    0    0  0.13001531114E+04  0.35252790935E+03 -0.29766691183E+04  0.32708752243E+04  0.15294330000E+03 0.  0.
<mgrwt>
<rscale>  0 0.14621900E+04</rscale>
<asrwt>0</asrwt>
<pdfrwt beam="1">  1        1 0.66740966E+00 0.14994947E+04</pdfrwt>
<pdfrwt beam="2">  1       -1 0.93844041E-01 0.14994947E+04</pdfrwt>
<totfact> 0.50225994E-02</totfact>
</mgrwt>
</event>
<event>
 4    1  0.1043382E-007  0.1200318E+04  0.7818608E-02  0.9156813E-01
          1   -1    0    0  501    0  0.00000000000E+00  0.00000000000E+00  0.85837680136E+03  0.85837680138E+03  0.50400000000E-02 0. -1.
         -1   -1    0    0    0  501 -0.00000000000E+00 -0.00000000000E+00 -0.19155551496E+04  0.19155551496E+04  0.50400000000E-02 0.  1.
    8880023    1    1    2    0    0  0.96203025412E+03 -0.28539618344E+03 -0.12584644225E+04  0.17391078461E+04  0.65864270000E+03 0.  0.
    8880022    1    1    2    0    0 -0.96203025412E+03  0.28539618344E+03  0.20128607426E+03  0.10348241049E+04  0.15294330000E+03 0.  0.
<mgrwt>
<rscale>  0 0.11510523E+04</rscale>
<asrwt>0</asrwt>
<pdfrwt beam="1">  1        1 0.13205797E+00 0.12003180E+04</pdfrwt>
<pdfrwt beam="2">  1       -1 0.29470079E+00 0.12003180E+04</pdfrwt>
<totfact> 0.69442422E-01</totfact>
</mgrwt>
</event>
<event>
 4    1  0.1043382E-007  0.6735664E+03  0.7818608E-02  0.1013226E+00
          1   -1    0    0  501    0  0.00000000000E+00  0.00000000000E+00  0.17964748318E+04  0.17964748319E+04  0.50400000000E-02 0. -1.
         -1   -1    0    0    0  501 -0.00000000000E+00 -0.00000000000E+00 -0.10876972907E+03  0.10876972918E+03  0.50400000000E-02 0.  1.
    8880023    1    1    2    0    0 -0.13152122347E+03 -0.50829742325E+02  0.12261222774E+04  0.13989523010E+04  0.65864270000E+03 0.  1.
    8880022    1    1    2    0    0  0.13152122347E+03  0.50829742325E+02  0.46158282535E+03  0.50629226007E+03  0.15294330000E+03 0.  1.
<mgrwt>
<rscale>  0 0.50212590E+03</rscale>
<asrwt>0</asrwt>
<pdfrwt beam="1">  1        1 0.27638075E+00 0.67356640E+03</pdfrwt>
<pdfrwt beam="2">  1       -1 0.16733804E-01 0.67356640E+03</pdfrwt>
<totfact> 0.11642233E+02</totfact>
</mgrwt>
</event>
<event>
 4    1  0.1043382E-007  0.7339708E+03  0.7818608E-02  0.9877871E-01
         -1   -1    0    0    0  501 -0.00000000000E+00  0.00000000000E+00  0.39861803498E+03  0.39861803501E+03  0.50400000000E-02 0.  1.
          1   -1    0    0  501    0  0.00000000000E+00 -0.00000000000E+00 -0.22287125516E+04  0.22287125516E+04  0.50400000000E-02 0. -1.
    8880023    1    1    2    0    0 -0.18289250929E+02 -0.32337041328E+03  0.28512669570E+02  0.73452440360E+03  0.65864270000E+03 0.  1.
    8880022    1    1    2    0    0  0.18289250929E+02  0.32337041328E+03 -0.18586071861E+04  0.18928061830E+04  0.15294330000E+03 0.  0.
<mgrwt>
<rscale>  0 0.61345840E+03</rscale>
<asrwt>0</asrwt>
<pdfrwt beam="1">  1        1 0.34287885E+00 0.73397079E+03</pdfrwt>
<pdfrwt beam="2">  1       -1 0.61325853E-01 0.73397079E+03</pdfrwt>
<totfact> 0.59292606E+00</totfact>
</mgrwt>
</event>
<event>
 4    1  0.1043382E-007  0.6985623E+03  0.7818608E-02  0.1000322E+00
         -1   -1    0    0    0  501 -0.00000000000E+00  0.00000000000E+00  0.23476637598E+03  0.23476637604E+03  0.50400000000E-02 0.  1.
          1   -1    0    0  501    0  0.00000000000E+00 -0.00000000000E+00 -0.10435338652E+04  0.10435338652E+04  0.50400000000E-02 0. -1.
    8880023    1    1    2    0    0  0.10230837350E+03 -0.20907422989E+03 -0.66667893391E+03  0.96563452925E+03  0.65864270000E+03 0. -1.
    8880022    1    1    2    0    0 -0.10230837350E+03  0.20907422989E+03 -0.14208855529E+03  0.31266571199E+03  0.15294330000E+03 0.  1.
<mgrwt>
<rscale>  0 0.55509338E+03</rscale>
<asrwt>0</asrwt>
<pdfrwt beam="1">  1        1 0.16054367E+00 0.69856227E+03</pdfrwt>
<pdfrwt beam="2">  1       -1 0.36117905E-01 0.69856227E+03</pdfrwt>
<totfact> 0.10504651E+02</totfact>
</mgrwt>
</event>
<event>
 4    1  0.1043382E-007  0.6710302E+03  0.7818608E-02  0.1014935E+00
         -1   -1    0    0    0  501 -0.00000000000E+00  0.00000000000E+00  0.39138594849E+03  0.39138594852E+03  0.50400000000E-02 0.  1.
          1   -1    0    0  501    0  0.00000000000E+00 -0.00000000000E+00 -0.90949589140E+03  0.90949589142E+03  0.50400000000E-02 0. -1.
    8880023    1    1    2    0    0 -0.70529759893E+01  0.12814666156E+03  0.74867740064E+02  0.67519382114E+03  0.65864270000E+03 0.  0.
    8880022    1    1    2    0    0  0.70529759893E+01 -0.12814666156E+03 -0.59297768298E+03  0.62568801880E+03  0.15294330000E+03 0. -1.
<mgrwt>
<rscale>  0 0.49559595E+03</rscale>
<asrwt>0</asrwt>
<pdfrwt beam="1">  1        1 0.13992244E+00 0.67103019E+03</pdfrwt>
<pdfrwt beam="2">  1       -1 0.60213223E-01 0.67103019E+03</pdfrwt>
<totfact> 0.51563985E+01</totfact>
</mgrwt>
</event>
<event>
 4    1  0.1043382E-007  0.7117901E+03  0.7818608E-02  0.9951413E-01
          1   -1    0    0  501    0  0.00000000000E+00  0.00000000000E+00  0.67865049063E+03  0.67865049065E+03  0.50400000000E-02 0. -1.
         -1   -1    0    0    0  501 -0.00000000000E+00 -0.00000000000E+00 -0.51709947192E+03  0.51709947195E+03  0.50400000000E-02 0.  1.
    8880023    1    1    2    0    0  0.21724369236E+03 -0.16012525422E+03 -0.18016218719E+03  0.73423670493E+03  0.65864270000E+03 0.  1.
    8880022    1    1    2    0    0 -0.21724369236E+03  0.16012525422E+03  0.34171320590E+03  0.46151325767E+03  0.15294330000E+03 0. -1.
<mgrwt>
<rscale>  0 0.57833014E+03</rscale>
<asrwt>0</asrwt>
<pdfrwt beam="1">  1        1 0.10440777E+00 0.71179009E+03</pdfrwt>
<pdfrwt beam="2">  1       -1 0.79553765E-01 0.71179009E+03</pdfrwt>
<totfact> 0.46259866E+01</totfact>
</mgrwt>
</event>
<event>
 4    1  0.1043382E-007  0.8161225E+03  0.7818608E-02  0.9676962E-01
          1   -1    0    0  501    0  0.00000000000E+00  0.00000000000E+00  0.13911620959E+04  0.13911620959E+04  0.50400000000E-02 0. -1.
         -1   -1    0    0    0  501 -0.00000000000E+00 -0.00000000000E+00 -0.32841179043E+03  0.32841179047E+03  0.50400000000E-02 0.  1.
    8880023    1    1    2    0    0 -0.75418528094E+01  0.48185985849E+03  0.47505219873E+03  0.94431488421E+03  0.65864270000E+03 0.  1.
    8880022    1    1    2    0    0  0.75418528094E+01 -0.48185985849E+03  0.58769810675E+03  0.77525900218E+03  0.15294330000E+03 0. -1.
<mgrwt>
<rscale>  0 0.72405172E+03</rscale>
<asrwt>0</asrwt>
<pdfrwt beam="1">  1        1 0.21402493E+00 0.81612255E+03</pdfrwt>
<pdfrwt beam="2">  1       -1 0.50524893E-01 0.81612255E+03</pdfrwt>
<totfact> 0.31362554E+01</totfact>
</mgrwt>
</event>
<event>
 4    1  0.1043382E-007  0.6744443E+03  0.7818608E-02  0.1012659E+00
         -1   -1    0    0    0  501 -0.00000000000E+00  0.00000000000E+00  0.96710381000E+03  0.96710381001E+03  0.50400000000E-02 0.  1.
          1   -1    0    0  501    0  0.00000000000E+00 -0.00000000000E+00 -0.15994506498E+04  0.15994506498E+04  0.50400000000E-02 0. -1.
    8880023    1    1    2    0    0 -0.11172407697E+03  0.92642782548E+02  0.84109246519E+03  0.10781056051E+04  0.65864270000E+03 0.  1.
    8880022    1    1    2    0    0  0.11172407697E+03 -0.92642782548E+02 -0.14734393050E+04  0.14884488547E+04  0.15294330000E+03 0.  0.
<mgrwt>
<rscale>  0 0.50431470E+03</rscale>
<asrwt>0</asrwt>
<pdfrwt beam="1">  1        1 0.24606933E+00 0.67444433E+03</pdfrwt>
<pdfrwt beam="2">  1       -1 0.14878520E+00 0.67444433E+03</pdfrwt>
<totfact> 0.21197942E+00</totfact>
</mgrwt>
</event>
<event>
 4    1  0.1043382E-007  0.6652003E+03  0.7818608E-02  0.1019366E+00
          1   -1    0    0  501    0  0.00000000000E+00  0.00000000000E+00  0.15456611579E+04  0.15456611579E+04  0.50400000000E-02 0. -1.
         -1   -1    0    0    0  501 -0.00000000000E+00 -0.00000000000E+00 -0.42836962162E+03  0.42836962165E+03  0.50400000000E-02 0.  1.
    8880023    1    1    2    0    0  0.39394045445E+02  0.84435239997E+02 -0.16005984597E+03  0.68418605739E+03  0.65864270000E+03 0.  1.
    8880022    1    1    2    0    0 -0.39394045445E+02 -0.84435239997E+02  0.12773513823E+04  0.12898447222E+04  0.15294330000E+03 0.  0.
<mgrwt>
<rscale>  0 0.47916106E+03</rscale>
<asrwt>0</asrwt>
<pdfrwt beam="1">  1        1 0.23779402E+00 0.66520028E+03</pdfrwt>
<pdfrwt beam="2">  1       -1 0.65903019E-01 0.66520028E+03</pdfrwt>
<totfact> 0.14907156E+01</totfact>
</mgrwt>
</event>
<event>
 4    1  0.1043382E-007  0.7712489E+03  0.7818608E-02  0.9776810E-01
         -1   -1    0    0    0  501 -0.00000000000E+00  0.00000000000E+00  0.24972265546E+04  0.24972265546E+04  0.50400000000E-02 0.  1.
          1   -1    0    0  501    0  0.00000000000E+00 -0.00000000000E+00 -0.44882054119E+03  0.44882054122E+03  0.50400000000E-02 0. -1.
    8880023    1    1    2    0    0  0.38178606274E+03 -0.12350763391E+03  0.23153426172E+04  0.24404172542E+04  0.65864270000E+03 0.  1.
    8880022    1    1    2    0    0 -0.38178606274E+03  0.12350763391E+03 -0.26693660375E+03  0.50562984165E+03  0.15294330000E+03 0.  0.
<mgrwt>
<rscale>  0 0.66622041E+03</rscale>
<asrwt>0</asrwt>
<pdfrwt beam="1">  1        1 0.69049313E-01 0.77124895E+03</pdfrwt>
<pdfrwt beam="2">  1       -1 0.38418871E+00 0.77124895E+03</pdfrwt>
<totfact> 0.50186848E-01</totfact>
</mgrwt>
</event>
<event>
 4    1  0.1043382E-007  0.6770268E+03  0.7818608E-02  0.1011058E+00
          1   -1    0    0  501    0  0.00000000000E+00  0.00000000000E+00  0.17508065455E+04  0.17508065455E+04  0.50400000000E-02 0. -1.
         -1   -1    0    0    0  501 -0.00000000000E+00 -0.00000000000E+00 -0.11750545400E+03  0.11750545411E+03  0.50400000000E-02 0.  1.
    8880023    1    1    2    0    0 -0.15237208043E+03  0.36577009913E+02  0.10978917986E+04  0.12898572542E+04  0.65864270000E+03 0. -1.
    8880022    1    1    2    0    0  0.15237208043E+03 -0.36577009913E+02  0.53540929284E+03  0.57845474535E+03  0.15294330000E+03 0.  0.
<mgrwt>
<rscale>  0 0.51056301E+03</rscale>
<asrwt>0</asrwt>
<pdfrwt beam="1">  1        1 0.26935484E+00 0.67702683E+03</pdfrwt>
<pdfrwt beam="2">  1       -1 0.18077763E-01 0.67702683E+03</pdfrwt>
<totfact> 0.10997978E+02</totfact>
</mgrwt>
</event>
<event>
 4    1  0.1043382E-007  0.7633499E+03  0.7818608E-02  0.9796511E-01
          1   -1    0    0  501    0  0.00000000000E+00  0.00000000000E+00  0.44194189733E+03  0.44194189736E+03  0.50400000000E-02 0. -1.
         -1   -1    0    0    0  501 -0.00000000000E+00 -0.00000000000E+00 -0.94392923725E+03  0.94392923727E+03  0.50400000000E-02 0.  1.
    8880023    1    1    2    0    0 -0.13913599927E+03 -0.35990846898E+03 -0.58605195360E+03  0.96237208548E+03  0.65864270000E+03 0.  0.
    8880022    1    1    2    0    0  0.13913599927E+03  0.35990846898E+03  0.84064613672E+02  0.42349904914E+03  0.15294330000E+03 0.  0.
<mgrwt>
<rscale>  0 0.65550131E+03</rscale>
<asrwt>0</asrwt>
<pdfrwt beam="1">  1        1 0.67991061E-01 0.76334995E+03</pdfrwt>
<pdfrwt beam="2">  1       -1 0.14521988E+00 0.76334995E+03</pdfrwt>
<totfact> 0.20454709E+01</totfact>
</mgrwt>
</event>
<event>
 4    1  0.1043382E-007  0.8831541E+03  0.7818608E-02  0.9553634E-01
          1   -1    0    0  501    0  0.00000000000E+00  0.00000000000E+00  0.63290375963E+03  0.63290375965E+03  0.50400000000E-02 0. -1.
         -1   -1    0    0    0  501 -0.00000000000E+00 -0.00000000000E+00 -0.10141172958E+04  0.10141172958E+04  0.50400000000E-02 0.  1.
    8880023    1    1    2    0    0 -0.18105090526E+03  0.55979604456E+03 -0.51808729576E+03  0.10239021897E+04  0.65864270000E+03 0.  1.
    8880022    1    1    2    0    0  0.18105090526E+03 -0.55979604456E+03  0.13687375957E+03  0.62311886577E+03  0.15294330000E+03 0.  0.
<mgrwt>
<rscale>  0 0.80442482E+03</rscale>
<asrwt>0</asrwt>
<pdfrwt beam="1">  1        1 0.97369809E-01 0.88315415E+03</pdfrwt>
<pdfrwt beam="2">  1       -1 0.15601805E+00 0.88315415E+03</pdfrwt>
<totfact> 0.10073268E+01</totfact>
</mgrwt>
</event>
<event>
 4    1  0.1043382E-007  0.8392858E+03  0.7818608E-02  0.9631528E-01
         -1   -1    0    0    0  501 -0.00000000000E+00  0.00000000000E+00  0.12346027055E+04  0.12346027055E+04  0.50400000000E-02 0.  1.
          1   -1    0    0  501    0  0.00000000000E+00 -0.00000000000E+00 -0.49778364767E+03  0.49778364769E+03  0.50400000000E-02 0. -1.
    8880023    1    1    2    0    0 -0.45440678498E+03 -0.25318949827E+03  0.27714271220E+02  0.83974325562E+03  0.65864270000E+03 0.  0.
    8880022    1    1    2    0    0  0.45440678498E+03  0.25318949827E+03  0.70910478664E+03  0.89264309762E+03  0.15294330000E+03 0. -1.
<mgrwt>
<rscale>  0 0.75244111E+03</rscale>
<asrwt>0</asrwt>
<pdfrwt beam="1">  1        1 0.76582101E-01 0.83928580E+03</pdfrwt>
<pdfrwt beam="2">  1       -1 0.18993888E+00 0.83928580E+03</pdfrwt>
<totfact> 0.80549108E+00</totfact>
</mgrwt>
</event>
<event>
 4    1  0.1043382E-007  0.9720018E+03  0.7818608E-02  0.9419141E-01
          1   -1    0    0  501    0  0.00000000000E+00  0.00000000000E+00  0.84888516701E+03  0.84888516702E+03  0.50400000000E-02 0. -1.
         -1   -1    0    0    0  501 -0.00000000000E+00 -0.00000000000E+00 -0.11617122223E+04  0.11617122223E+04  0.50400000000E-02 0.  1.
    8880023    1    1    2    0    0 -0.68142171865E+03  0.21596713243E+03 -0.68614599826E+03  0.11897831307E+04  0.65864270000E+03 0.  0.
    8880022    1    1    2    0    0  0.68142171865E+03 -0.21596713243E+03  0.37331894297E+03  0.82081425861E+03  0.15294330000E+03 0.  0.
<mgrwt>
<rscale>  0 0.90517067E+03</rscale>
<asrwt>0</asrwt>
<pdfrwt beam="1">  1        1 0.13059772E+00 0.97200183E+03</pdfrwt>
<pdfrwt beam="2">  1       -1 0.17872496E+00 0.97200183E+03</pdfrwt>
<totfact> 0.42933556E+00</totfact>
</mgrwt>
</event>
<event>
 4    1  0.1043382E-007  0.1367584E+04  0.7818608E-02  0.9009289E-01
         -1   -1    0    0    0  501 -0.00000000000E+00  0.00000000000E+00  0.60624752010E+03  0.60624752012E+03  0.50400000000E-02 0.  1.
          1   -1    0    0  501    0  0.00000000000E+00 -0.00000000000E+00 -0.35036536839E+04  0.35036536839E+04  0.50400000000E-02 0. -1.
    8880023    1    1    2    0    0  0.85822125476E+03  0.83662019409E+03 -0.55827488983E+03  0.14771452637E+04  0.65864270000E+03 0.  0.
    8880022    1    1    2    0    0 -0.85822125476E+03 -0.83662019409E+03 -0.23391312739E+04  0.26327559403E+04  0.15294330000E+03 0.  0.
<mgrwt>
<rscale>  0 0.13258819E+04</rscale>
<asrwt>0</asrwt>
<pdfrwt beam="1">  1        1 0.53902363E+00 0.13675845E+04</pdfrwt>
<pdfrwt beam="2">  1       -1 0.93268852E-01 0.13675845E+04</pdfrwt>
<totfact> 0.27171467E-01</totfact>
</mgrwt>
</event>
<event>
 4    1  0.1043382E-007  0.7768472E+03  0.7818608E-02  0.9763296E-01
          1   -1    0    0  501    0  0.00000000000E+00  0.00000000000E+00  0.96828209472E+03  0.96828209473E+03  0.50400000000E-02 0. -1.
         -1   -1    0    0    0  501 -0.00000000000E+00 -0.00000000000E+00 -0.44055661683E+03  0.44055661686E+03  0.50400000000E-02 0.  1.
    8880023    1    1    2    0    0 -0.24518426723E+03  0.33100765824E+03  0.79081154157E+02  0.78086197879E+03  0.65864270000E+03 0.  0.
    8880022    1    1    2    0    0  0.24518426723E+03 -0.33100765824E+03  0.44864432373E+03  0.62797673280E+03  0.15294330000E+03 0.  0.
<mgrwt>
<rscale>  0 0.67370057E+03</rscale>
<asrwt>0</asrwt>
<pdfrwt beam="1">  1        1 0.14896647E+00 0.77684722E+03</pdfrwt>
<pdfrwt beam="2">  1       -1 0.67777942E-01 0.77684722E+03</pdfrwt>
<totfact> 0.36138611E+01</totfact>
</mgrwt>
</event>
<event>
 4    1  0.1043382E-007  0.1000230E+04  0.7818608E-02  0.9381257E-01
          1   -1    0    0  501    0  0.00000000000E+00  0.00000000000E+00  0.95907585452E+03  0.95907585453E+03  0.50400000000E-02 0. -1.
         -1   -1    0    0    0  501 -0.00000000000E+00 -0.00000000000E+00 -0.98423274560E+03  0.98423274562E+03  0.50400000000E-02 0.  1.
    8880023    1    1    2    0    0 -0.11518436693E+02 -0.75267338198E+03 -0.41379892049E+03  0.10824461405E+04  0.65864270000E+03 0.  0.
    8880022    1    1    2    0    0  0.11518436693E+02  0.75267338198E+03  0.38864202940E+03  0.86086245960E+03  0.15294330000E+03 0.  0.
<mgrwt>
<rscale>  0 0.93634358E+03</rscale>
<asrwt>0</asrwt>
<pdfrwt beam="1">  1        1 0.14755013E+00 0.10002300E+04</pdfrwt>
<pdfrwt beam="2">  1       -1 0.15142042E+00 0.10002300E+04</pdfrwt>
<totfact> 0.55578612E+00</totfact>
</mgrwt>
</event>
<event>
 4    1  0.1043382E-007  0.8698822E+03  0.7818608E-02  0.9576221E-01
         -1   -1    0    0    0  501 -0.00000000000E+00  0.00000000000E+00  0.91504408443E+03  0.91504408444E+03  0.50400000000E-02 0.  1.
          1   -1    0    0  501    0  0.00000000000E+00 -0.00000000000E+00 -0.69614622924E+03  0.69614622926E+03  0.50400000000E-02 0. -1.
    8880023    1    1    2    0    0 -0.14748259391E+03 -0.54875656065E+03 -0.19535712859E+03  0.89154892873E+03  0.65864270000E+03 0.  1.
    8880022    1    1    2    0    0  0.14748259391E+03  0.54875656065E+03  0.41425498378E+03  0.71964138497E+03  0.15294330000E+03 0.  0.
<mgrwt>
<rscale>  0 0.78890230E+03</rscale>
<asrwt>0</asrwt>
<pdfrwt beam="1">  1        1 0.10709942E+00 0.86988222E+03</pdfrwt>
<pdfrwt beam="2">  1       -1 0.14077601E+00 0.86988222E+03</pdfrwt>
<totfact> 0.11525906E+01</totfact>
</mgrwt>
</event>
<event>
 4    1  0.1043382E-007  0.6588656E+03  0.7818608E-02  0.1025350E+00
          1   -1    0    0  501    0  0.00000000000E+00  0.00000000000E+00  0.19557746769E+04  0.19557746769E+04  0.50400000000E-02 0. -1.
         -1   -1    0    0    0  501 -0.00000000000E+00 -0.00000000000E+00 -0.21840960477E+03  0.21840960483E+03  0.50400000000E-02 0.  1.
    8880023    1    1    2    0    0 -0.10226161028E+02  0.13751927047E+02  0.29203918012E+03  0.72068771244E+03  0.65864270000E+03 0.  1.
    8880022    1    1    2    0    0  0.10226161028E+02 -0.13751927047E+02  0.14453258920E+04  0.14534965693E+04  0.15294330000E+03 0.  0.
<mgrwt>
<rscale>  0 0.45804441E+03</rscale>
<asrwt>0</asrwt>
<pdfrwt beam="1">  1        1 0.30088841E+00 0.65886561E+03</pdfrwt>
<pdfrwt beam="2">  1       -1 0.33601478E-01 0.65886561E+03</pdfrwt>
<totfact> 0.28015705E+01</totfact>
</mgrwt>
</event>
<event>
 4    1  0.1043382E-007  0.6894269E+03  0.7818608E-02  0.1004426E+00
         -1   -1    0    0    0  501 -0.00000000000E+00  0.00000000000E+00  0.53350573538E+03  0.53350573540E+03  0.50400000000E-02 0.  1.
          1   -1    0    0  501    0  0.00000000000E+00 -0.00000000000E+00 -0.14577264750E+04  0.14577264750E+04  0.50400000000E-02 0. -1.
    8880023    1    1    2    0    0 -0.20119156945E+03  0.31956545939E+02  0.29193130349E+03  0.74868775913E+03  0.65864270000E+03 0.  1.
    8880022    1    1    2    0    0  0.20119156945E+03 -0.31956545939E+02 -0.12161520431E+04  0.12425444512E+04  0.15294330000E+03 0.  0.
<mgrwt>
<rscale>  0 0.53751324E+03</rscale>
<asrwt>0</asrwt>
<pdfrwt beam="1">  1        1 0.22426561E+00 0.68942692E+03</pdfrwt>
<pdfrwt beam="2">  1       -1 0.82077806E-01 0.68942692E+03</pdfrwt>
<totfact> 0.10823766E+01</totfact>
</mgrwt>
</event>
<event>
 4    1  0.1043382E-007  0.7384766E+03  0.7818608E-02  0.9864407E-01
          1   -1    0    0  501    0  0.00000000000E+00  0.00000000000E+00  0.38320305667E+03  0.38320305670E+03  0.50400000000E-02 0. -1.
         -1   -1    0    0    0  501 -0.00000000000E+00 -0.00000000000E+00 -0.98817883739E+03  0.98817883740E+03  0.50400000000E-02 0.  1.
    8880023    1    1    2    0    0  0.30683054193E+03  0.13188042733E+03 -0.97456026687E+02  0.74487939425E+03  0.65864270000E+03 0. -1.
    8880022    1    1    2    0    0 -0.30683054193E+03 -0.13188042733E+03 -0.50751975403E+03  0.62650249985E+03  0.15294330000E+03 0.  0.
<mgrwt>
<rscale>  0 0.62017711E+03</rscale>
<asrwt>0</asrwt>
<pdfrwt beam="1">  1        1 0.58954317E-01 0.73847656E+03</pdfrwt>
<pdfrwt beam="2">  1       -1 0.15202751E+00 0.73847656E+03</pdfrwt>
<totfact> 0.21936927E+01</totfact>
</mgrwt>
</event>
<event>
 4    1  0.1043382E-007  0.7954615E+03  0.7818608E-02  0.9720697E-01
          1   -1    0    0  501    0  0.00000000000E+00  0.00000000000E+00  0.99412710886E+03  0.99412710888E+03  0.50400000000E-02 0. -1.
         -1   -1    0    0    0  501 -0.00000000000E+00 -0.00000000000E+00 -0.51005475867E+03  0.51005475869E+03  0.50400000000E-02 0.  1.
    8880023    1    1    2    0    0  0.35607315934E+03 -0.26862734821E+03 -0.43436744297E+02  0.79664653644E+03  0.65864270000E+03 0.  1.
    8880022    1    1    2    0    0 -0.35607315934E+03  0.26862734821E+03  0.52750909449E+03  0.70753533113E+03  0.15294330000E+03 0.  0.
<mgrwt>
<rscale>  0 0.69797788E+03</rscale>
<asrwt>0</asrwt>
<pdfrwt beam="1">  1        1 0.15294263E+00 0.79546147E+03</pdfrwt>
<pdfrwt beam="2">  1       -1 0.78469963E-01 0.79546147E+03</pdfrwt>
<totfact> 0.25418370E+01</totfact>
</mgrwt>
</event>
<event>
 4    1  0.1075650E-007  0.7630866E+03  0.7818608E-02  0.9797181E-01
          1   -1    0    0  501    0  0.00000000000E+00  0.00000000000E+00  0.15338000960E+04  0.15338000960E+04  0.50400000000E-02 0. -1.
         -1   -1    0    0    0  501 -0.00000000000E+00 -0.00000000000E+00 -0.83538157090E+03  0.83538157091E+03  0.50400000000E-02 0.  1.
    8880023    1    1    2    0    0  0.35911413445E+03 -0.13974268473E+03 -0.62246297777E+03  0.98476461373E+03  0.65864270000E+03 0.  1.
    8880022    1    1    2    0    0 -0.35911413445E+03  0.13974268473E+03  0.13208815029E+04  0.13844170532E+04  0.15294330000E+03 0.  0.
<mgrwt>
<rscale>  0 0.65514039E+03</rscale>
<asrwt>0</asrwt>
<pdfrwt beam="1">  1        1 0.23596924E+00 0.76308662E+03</pdfrwt>
<pdfrwt beam="2">  1       -1 0.12852024E+00 0.76308662E+03</pdfrwt>
<totfact> 0.33717992E+00</totfact>
</mgrwt>
</event>
<event>
 4    1  0.1043382E-007  0.7650459E+03  0.7818608E-02  0.9792215E-01
          1   -1    0    0  501    0  0.00000000000E+00  0.00000000000E+00  0.24792589203E+04  0.24792589203E+04  0.50400000000E-02 0. -1.
         -1   -1    0    0    0  501 -0.00000000000E+00 -0.00000000000E+00 -0.22668831581E+03  0.22668831586E+03  0.50400000000E-02 0.  1.
    8880023    1    1    2    0    0 -0.38084901835E+03  0.80243737211E+02  0.52346138840E+03  0.92698816797E+03  0.65864270000E+03 0.  0.
    8880022    1    1    2    0    0  0.38084901835E+03 -0.80243737211E+02  0.17291092161E+04  0.17789590682E+04  0.15294330000E+03 0.  0.
<mgrwt>
<rscale>  0 0.65782006E+03</rscale>
<asrwt>0</asrwt>
<pdfrwt beam="1">  1        1 0.38142444E+00 0.76504591E+03</pdfrwt>
<pdfrwt beam="2">  1       -1 0.34875127E-01 0.76504591E+03</pdfrwt>
<totfact> 0.11478369E+01</totfact>
</mgrwt>
</event>
<event>
 4    1  0.1043382E-007  0.1107379E+04  0.7818608E-02  0.9252885E-01
         -1   -1    0    0    0  501 -0.00000000000E+00  0.00000000000E+00  0.42769357854E+03  0.42769357857E+03  0.50400000000E-02 0.  1.
          1   -1    0    0  501    0  0.00000000000E+00 -0.00000000000E+00 -0.32534264768E+04  0.32534264768E+04  0.50400000000E-02 0. -1.
    8880023    1    1    2    0    0 -0.52652272098E+03 -0.71781030049E+03 -0.24763041146E+04  0.27126315779E+04  0.65864270000E+03 0. -1.
    8880022    1    1    2    0    0  0.52652272098E+03  0.71781030049E+03 -0.34942878371E+03  0.96848847753E+03  0.15294330000E+03 0.  0.
<mgrwt>
<rscale>  0 0.10523853E+04</rscale>
<asrwt>0</asrwt>
<pdfrwt beam="1">  1        1 0.50052713E+00 0.11073789E+04</pdfrwt>
<pdfrwt beam="2">  1       -1 0.65799014E-01 0.11073789E+04</pdfrwt>
<totfact> 0.92197342E-01</totfact>
</mgrwt>
</event>
<event>
 4    1  0.1043382E-007  0.1118761E+04  0.7818608E-02  0.9240450E-01
         -1   -1    0    0    0  501 -0.00000000000E+00  0.00000000000E+00  0.82219940833E+03  0.82219940835E+03  0.50400000000E-02 0.  1.
          1   -1    0    0  501    0  0.00000000000E+00 -0.00000000000E+00 -0.23117745539E+04  0.23117745539E+04  0.50400000000E-02 0. -1.
    8880023    1    1    2    0    0  0.41651172800E+03  0.80270380823E+03  0.26895398134E+03  0.11506354217E+04  0.65864270000E+03 0.  0.
    8880022    1    1    2    0    0 -0.41651172800E+03 -0.80270380823E+03 -0.17585291269E+04  0.19833385406E+04  0.15294330000E+03 0.  0.
<mgrwt>
<rscale>  0 0.10645493E+04</rscale>
<asrwt>0</asrwt>
<pdfrwt beam="1">  1        1 0.35565762E+00 0.11187608E+04</pdfrwt>
<pdfrwt beam="2">  1       -1 0.12649222E+00 0.11187608E+04</pdfrwt>
<totfact> 0.98998210E-01</totfact>
</mgrwt>
</event>
<event>
 4    1  0.1043382E-007  0.7949406E+03  0.7818608E-02  0.9721844E-01
         -1   -1    0    0    0  501 -0.00000000000E+00  0.00000000000E+00  0.89681471654E+03  0.89681471656E+03  0.50400000000E-02 0.  1.
          1   -1    0    0  501    0  0.00000000000E+00 -0.00000000000E+00 -0.57580216385E+03  0.57580216387E+03  0.50400000000E-02 0. -1.
    8880023    1    1    2    0    0  0.38150402850E+03  0.22929249901E+03  0.53231641946E+03  0.95670860274E+03  0.65864270000E+03 0.  1.
    8880022    1    1    2    0    0 -0.38150402850E+03 -0.22929249901E+03 -0.21130386677E+03  0.51590827769E+03  0.15294330000E+03 0.  0.
<mgrwt>
<rscale>  0 0.69730965E+03</rscale>
<asrwt>0</asrwt>
<pdfrwt beam="1">  1        1 0.88584949E-01 0.79494061E+03</pdfrwt>
<pdfrwt beam="2">  1       -1 0.13797149E+00 0.79494061E+03</pdfrwt>
<totfact> 0.16177641E+01</totfact>
</mgrwt>
</event>
<event>
 4    1  0.1043382E-007  0.7368894E+03  0.7818608E-02  0.9869102E-01
          1   -1    0    0  501    0  0.00000000000E+00  0.00000000000E+00  0.10420794934E+04  0.10420794934E+04  0.50400000000E-02 0. -1.
         -1   -1    0    0    0  501 -0.00000000000E+00 -0.00000000000E+00 -0.35941208341E+03  0.35941208345E+03  0.50400000000E-02 0.  1.
    8880023    1    1    2    0    0 -0.32183065393E+03 -0.74972220177E+02  0.14325985909E+03  0.75068595104E+03  0.65864270000E+03 0.  0.
    8880022    1    1    2    0    0  0.32183065393E+03  0.74972220177E+02  0.53940755085E+03  0.65080562577E+03  0.15294330000E+03 0.  0.
<mgrwt>
<rscale>  0 0.61782367E+03</rscale>
<asrwt>0</asrwt>
<pdfrwt beam="1">  1        1 0.16031992E+00 0.73688941E+03</pdfrwt>
<pdfrwt beam="2">  1       -1 0.55294167E-01 0.73688941E+03</pdfrwt>
<totfact> 0.47615567E+01</totfact>
</mgrwt>
</event>
<event>
 4    1  0.1043382E-007  0.7151952E+03  0.7818608E-02  0.9939192E-01
          1   -1    0    0  501    0  0.00000000000E+00  0.00000000000E+00  0.13915811883E+04  0.13915811883E+04  0.50400000000E-02 0. -1.
         -1   -1    0    0    0  501 -0.00000000000E+00 -0.00000000000E+00 -0.37944128734E+03  0.37944128737E+03  0.50400000000E-02 0.  1.
    8880023    1    1    2    0    0 -0.59155124060E+02  0.27238697639E+03  0.53412939870E+01  0.71521516294E+03  0.65864270000E+03 0.  1.
    8880022    1    1    2    0    0  0.59155124060E+02 -0.27238697639E+03  0.10067986069E+04  0.10558073127E+04  0.15294330000E+03 0.  0.
<mgrwt>
<rscale>  0 0.58398896E+03</rscale>
<asrwt>0</asrwt>
<pdfrwt beam="1">  1        1 0.21408941E+00 0.71519522E+03</pdfrwt>
<pdfrwt beam="2">  1       -1 0.58375583E-01 0.71519522E+03</pdfrwt>
<totfact> 0.24011674E+01</totfact>
</mgrwt>
</event>
<event>
 4    1  0.1043382E-007  0.8017808E+03  0.7818608E-02  0.9706959E-01
         -1   -1    0    0    0  501 -0.00000000000E+00  0.00000000000E+00  0.59017987620E+03  0.59017987622E+03  0.50400000000E-02 0.  1.
          1   -1    0    0  501    0  0.00000000000E+00 -0.00000000000E+00 -0.10690296464E+04  0.10690296465E+04  0.50400000000E-02 0. -1.
    8880023    1    1    2    0    0 -0.16536588509E+03 -0.42625865716E+03  0.20021905488E+03  0.82640195725E+03  0.65864270000E+03 0.  1.
    8880022    1    1    2    0    0  0.16536588509E+03  0.42625865716E+03 -0.67906882513E+03  0.83280756542E+03  0.15294330000E+03 0.  0.
<mgrwt>
<rscale>  0 0.70603984E+03</rscale>
<asrwt>0</asrwt>
<pdfrwt beam="1">  1        1 0.16446610E+00 0.80178085E+03</pdfrwt>
<pdfrwt beam="2">  1       -1 0.90796904E-01 0.80178085E+03</pdfrwt>
<totfact> 0.16238287E+01</totfact>
</mgrwt>
</event>
<event>
 4    1  0.1043382E-007  0.1037392E+04  0.7818608E-02  0.9334194E-01
         -1   -1    0    0    0  501 -0.00000000000E+00  0.00000000000E+00  0.14172752516E+04  0.14172752516E+04  0.50400000000E-02 0.  1.
          1   -1    0    0  501    0  0.00000000000E+00 -0.00000000000E+00 -0.18599749470E+04  0.18599749471E+04  0.50400000000E-02 0. -1.
    8880023    1    1    2    0    0  0.60144696450E+03  0.52974812907E+03  0.11124202561E+04  0.15210721757E+04  0.65864270000E+03 0.  0.
    8880022    1    1    2    0    0 -0.60144696450E+03 -0.52974812907E+03 -0.15551199516E+04  0.17561780229E+04  0.15294330000E+03 0. -1.
<mgrwt>
<rscale>  0 0.97694942E+03</rscale>
<asrwt>0</asrwt>
<pdfrwt beam="1">  1        1 0.28614999E+00 0.10373918E+04</pdfrwt>
<pdfrwt beam="2">  1       -1 0.21804235E+00 0.10373918E+04</pdfrwt>
<totfact> 0.42314070E-01</totfact>
</mgrwt>
</event>
<event>
 4    1  0.1043382E-007  0.7623655E+03  0.7818608E-02  0.9799022E-01
          1   -1    0    0  501    0  0.00000000000E+00  0.00000000000E+00  0.24800558545E+04  0.24800558545E+04  0.50400000000E-02 0. -1.
         -1   -1    0    0    0  501 -0.00000000000E+00 -0.00000000000E+00 -0.26276593010E+03  0.26276593015E+03  0.50400000000E-02 0.  1.
    8880023    1    1    2    0    0 -0.12549705396E+03 -0.36282416492E+03  0.36545222366E+03  0.84543268167E+03  0.65864270000E+03 0.  1.
    8880022    1    1    2    0    0  0.12549705396E+03  0.36282416492E+03  0.18518377007E+04  0.18973891029E+04  0.15294330000E+03 0.  0.
<mgrwt>
<rscale>  0 0.65415075E+03</rscale>
<asrwt>0</asrwt>
<pdfrwt beam="1">  1        1 0.38154706E+00 0.76236546E+03</pdfrwt>
<pdfrwt beam="2">  1       -1 0.40425527E-01 0.76236546E+03</pdfrwt>
<totfact> 0.87901140E+00</totfact>
</mgrwt>
</event>
<event>
 4    1  0.1043382E-007  0.1491599E+04  0.7818608E-02  0.8915591E-01
          1   -1    0    0  501    0  0.00000000000E+00  0.00000000000E+00  0.18107240479E+04  0.18107240479E+04  0.50400000000E-02 0. -1.
         -1   -1    0    0    0  501 -0.00000000000E+00 -0.00000000000E+00 -0.14847921922E+04  0.14847921923E+04  0.50400000000E-02 0.  1.
    8880023    1    1    2    0    0  0.12010674691E+04 -0.59033528578E+03 -0.65510289546E+03  0.16291190334E+04  0.65864270000E+03 0.  1.
    8880022    1    1    2    0    0 -0.12010674691E+04  0.59033528578E+03  0.98103475115E+03  0.16663972068E+04  0.15294330000E+03 0.  0.
<mgrwt>
<rscale>  0 0.14540599E+04</rscale>
<asrwt>0</asrwt>
<pdfrwt beam="1">  1        1 0.27857293E+00 0.14915995E+04</pdfrwt>
<pdfrwt beam="2">  1       -1 0.22842957E+00 0.14915995E+04</pdfrwt>
<totfact> 0.36623229E-01</totfact>
</mgrwt>
</event>
<event>
 4    1  0.1043382E-007  0.7853550E+03  0.7818608E-02  0.9743405E-01
          1   -1    0    0  501    0  0.00000000000E+00  0.00000000000E+00  0.16630571192E+04  0.16630571192E+04  0.50400000000E-02 0. -1.
         -1   -1    0    0    0  501 -0.00000000000E+00 -0.00000000000E+00 -0.38084890959E+03  0.38084890963E+03  0.50400000000E-02 0.  1.
    8880023    1    1    2    0    0  0.30195556171E+03  0.30297696188E+03  0.11795152420E+03  0.79416306197E+03  0.65864270000E+03 0.  1.
    8880022    1    1    2    0    0 -0.30195556171E+03 -0.30297696188E+03  0.11642566854E+04  0.12497429669E+04  0.15294330000E+03 0.  0.
<mgrwt>
<rscale>  0 0.68490241E+03</rscale>
<asrwt>0</asrwt>
<pdfrwt beam="1">  1        1 0.25585494E+00 0.78535496E+03</pdfrwt>
<pdfrwt beam="2">  1       -1 0.58592139E-01 0.78535496E+03</pdfrwt>
<totfact> 0.15406430E+01</totfact>
</mgrwt>
</event>
<event>
 4    1  0.1043382E-007  0.7345869E+03  0.7818608E-02  0.9876005E-01
         -1   -1    0    0    0  501 -0.00000000000E+00  0.00000000000E+00  0.93855424218E+03  0.93855424219E+03  0.50400000000E-02 0.  1.
          1   -1    0    0  501    0  0.00000000000E+00 -0.00000000000E+00 -0.56242758634E+03  0.56242758636E+03  0.50400000000E-02 0. -1.
    8880023    1    1    2    0    0  0.26123252882E+03 -0.19381752842E+03  0.70179982598E+03  0.10159433402E+04  0.65864270000E+03 0.  1.
    8880022    1    1    2    0    0 -0.26123252882E+03  0.19381752842E+03 -0.32567317015E+03  0.48503848838E+03  0.15294330000E+03 0.  0.
<mgrwt>
<rscale>  0 0.61438401E+03</rscale>
<asrwt>0</asrwt>
<pdfrwt beam="1">  1        1 0.86527321E-01 0.73458687E+03</pdfrwt>
<pdfrwt beam="2">  1       -1 0.14439296E+00 0.73458687E+03</pdfrwt>
<totfact> 0.14951870E+01</totfact>
</mgrwt>
</event>
<event>
 4    1  0.1043382E-007  0.1026858E+04  0.7818608E-02  0.9347233E-01
          1   -1    0    0  501    0  0.00000000000E+00  0.00000000000E+00  0.14516417738E+04  0.14516417738E+04  0.50400000000E-02 0. -1.
         -1   -1    0    0    0  501 -0.00000000000E+00 -0.00000000000E+00 -0.12000010809E+04  0.12000010809E+04  0.50400000000E-02 0.  1.
    8880023    1    1    2    0    0  0.61530458052E+03  0.49196217205E+03 -0.81911095762E+03  0.13135370085E+04  0.65864270000E+03 0.  0.
    8880022    1    1    2    0    0 -0.61530458052E+03 -0.49196217205E+03  0.10707516505E+04  0.13381058462E+04  0.15294330000E+03 0.  0.
<mgrwt>
<rscale>  0 0.96548373E+03</rscale>
<asrwt>0</asrwt>
<pdfrwt beam="1">  1        1 0.22332950E+00 0.10268577E+04</pdfrwt>
<pdfrwt beam="2">  1       -1 0.18461555E+00 0.10268577E+04</pdfrwt>
<totfact> 0.13664037E+00</totfact>
</mgrwt>
</event>
<event>
 4    1  0.1043382E-007  0.7749380E+03  0.7818608E-02  0.9767865E-01
          1   -1    0    0  501    0  0.00000000000E+00  0.00000000000E+00  0.56616997787E+03  0.56616997789E+03  0.50400000000E-02 0. -1.
         -1   -1    0    0    0  501 -0.00000000000E+00 -0.00000000000E+00 -0.11495922130E+04  0.11495922130E+04  0.50400000000E-02 0.  1.
    8880023    1    1    2    0    0  0.15484568196E+03  0.37781149853E+03 -0.89199448656E+03  0.11816019143E+04  0.65864270000E+03 0.  0.
    8880022    1    1    2    0    0 -0.15484568196E+03 -0.37781149853E+03  0.30857225146E+03  0.53416027653E+03  0.15294330000E+03 0.  0.
<mgrwt>
<rscale>  0 0.67115982E+03</rscale>
<asrwt>0</asrwt>
<pdfrwt beam="1">  1        1 0.87103074E-01 0.77493801E+03</pdfrwt>
<pdfrwt beam="2">  1       -1 0.17686034E+00 0.77493801E+03</pdfrwt>
<totfact> 0.83956118E+00</totfact>
</mgrwt>
</event>
<event>
 4    1  0.1043382E-007  0.7378209E+03  0.7818608E-02  0.9866341E-01
         -1   -1    0    0    0  501 -0.00000000000E+00  0.00000000000E+00  0.35972408958E+03  0.35972408962E+03  0.50400000000E-02 0.  1.
          1   -1    0    0  501    0  0.00000000000E+00 -0.00000000000E+00 -0.22676564337E+04  0.22676564337E+04  0.50400000000E-02 0. -1.
    8880023    1    1    2    0    0 -0.30324538414E+03  0.13642485850E+03 -0.56349533047E+02  0.73996958124E+03  0.65864270000E+03 0.  1.
    8880022    1    1    2    0    0  0.30324538414E+03 -0.13642485850E+03 -0.18515828111E+04  0.18874109421E+04  0.15294330000E+03 0.  0.
<mgrwt>
<rscale>  0 0.61920661E+03</rscale>
<asrwt>0</asrwt>
<pdfrwt beam="1">  1        1 0.34887021E+00 0.73782092E+03</pdfrwt>
<pdfrwt beam="2">  1       -1 0.55342169E-01 0.73782092E+03</pdfrwt>
<totfact> 0.68198110E+00</totfact>
</mgrwt>
</event>
<event>
 4    1  0.1043382E-007  0.9177033E+03  0.7818608E-02  0.9498190E-01
          1   -1    0    0  501    0  0.00000000000E+00  0.00000000000E+00  0.78121790793E+03  0.78121790795E+03  0.50400000000E-02 0. -1.
         -1   -1    0    0    0  501 -0.00000000000E+00 -0.00000000000E+00 -0.15172913622E+04  0.15172913623E+04  0.50400000000E-02 0.  1.
    8880023    1    1    2    0    0  0.30590947666E+02 -0.63830509161E+03 -0.11878822910E+04  0.15010808571E+04  0.65864270000E+03 0.  0.
    8880022    1    1    2    0    0 -0.30590947666E+02  0.63830509161E+03  0.45180883670E+03  0.79742841308E+03  0.15294330000E+03 0.  0.
<mgrwt>
<rscale>  0 0.84417432E+03</rscale>
<asrwt>0</asrwt>
<pdfrwt beam="1">  1        1 0.12018737E+00 0.91770333E+03</pdfrwt>
<pdfrwt beam="2">  1       -1 0.23342944E+00 0.91770333E+03</pdfrwt>
<totfact> 0.20934506E+00</totfact>
</mgrwt>
</event>
<event>
 4    1  0.1043382E-007  0.1116129E+04  0.7818608E-02  0.9243308E-01
         -1   -1    0    0    0  501 -0.00000000000E+00  0.00000000000E+00  0.13788540135E+04  0.13788540136E+04  0.50400000000E-02 0.  1.
          1   -1    0    0  501    0  0.00000000000E+00 -0.00000000000E+00 -0.97602636928E+03  0.97602636929E+03  0.50400000000E-02 0. -1.
    8880023    1    1    2    0    0  0.52378296083E+02 -0.89954967208E+03  0.78468184692E+03  0.13643565903E+04  0.65864270000E+03 0.  0.
    8880022    1    1    2    0    0 -0.52378296083E+02  0.89954967208E+03 -0.38185420264E+03  0.99052379251E+03  0.15294330000E+03 0.  0.
<mgrwt>
<rscale>  0 0.10617387E+04</rscale>
<asrwt>0</asrwt>
<pdfrwt beam="1">  1        1 0.15015790E+00 0.11161287E+04</pdfrwt>
<pdfrwt beam="2">  1       -1 0.21213139E+00 0.11161287E+04</pdfrwt>
<totfact> 0.19466111E+00</totfact>
</mgrwt>
</event>
<event>
 4    1  0.1043382E-007  0.6633366E+03  0.7818608E-02  0.1020972E+00
         -1   -1    0    0    0  501 -0.00000000000E+00  0.00000000000E+00  0.16399293632E+03  0.16399293640E+03  0.50400000000E-02 0.  1.
          1   -1    0    0  501    0  0.00000000000E+00 -0.00000000000E+00 -0.19421096062E+04  0.19421096062E+04  0.50400000000E-02 0. -1.
    8880023    1    1    2    0    0  0.40532290350E+01 -0.78669080171E+02 -0.53792890496E+03  0.85403920630E+03  0.65864270000E+03 0.  1.
    8880022    1    1    2    0    0 -0.40532290350E+01  0.78669080171E+02 -0.12401877649E+04  0.12520633363E+04  0.15294330000E+03 0.  0.
<mgrwt>
<rscale>  0 0.47337603E+03</rscale>
<asrwt>0</asrwt>
<pdfrwt beam="1">  1        1 0.29878608E+00 0.66333661E+03</pdfrwt>
<pdfrwt beam="2">  1       -1 0.25229684E-01 0.66333661E+03</pdfrwt>
<totfact> 0.46983718E+01</totfact>
</mgrwt>
</event>
<event>
 4    1  0.1043382E-007  0.9399496E+03  0.7818608E-02  0.9464724E-01
         -1   -1    0    0    0  501 -0.00000000000E+00  0.00000000000E+00  0.23482886115E+04  0.23482886115E+04  0.50400000000E-02 0.  1.
          1   -1    0    0  501    0  0.00000000000E+00 -0.00000000000E+00 -0.69546031964E+03  0.69546031966E+03  0.50400000000E-02 0. -1.
    8880023    1    1    2    0    0 -0.65894092134E+03  0.12446667050E+03  0.20459361117E+04  0.22515238994E+04  0.65864270000E+03 0.  0.
    8880022    1    1    2    0    0  0.65894092134E+03 -0.12446667050E+03 -0.39310781989E+03  0.79222503177E+03  0.15294330000E+03 0.  0.
<mgrwt>
<rscale>  0 0.86935275E+03</rscale>
<asrwt>0</asrwt>
<pdfrwt beam="1">  1        1 0.10699390E+00 0.93994962E+03</pdfrwt>
<pdfrwt beam="2">  1       -1 0.36127517E+00 0.93994962E+03</pdfrwt>
<totfact> 0.37119341E-01</totfact>
</mgrwt>
</event>
<event>
 4    1  0.1043382E-007  0.7733461E+03  0.7818608E-02  0.9771706E-01
         -1   -1    0    0    0  501 -0.00000000000E+00  0.00000000000E+00  0.15857382020E+04  0.15857382020E+04  0.50400000000E-02 0.  1.
          1   -1    0    0  501    0  0.00000000000E+00 -0.00000000000E+00 -0.43097325492E+03  0.43097325495E+03  0.50400000000E-02 0. -1.
    8880023    1    1    2    0    0  0.15793568599E+03  0.37324298249E+03  0.13387603955E+04  0.15460736100E+04  0.65864270000E+03 0.  1.
    8880022    1    1    2    0    0 -0.15793568599E+03 -0.37324298249E+03 -0.18399544841E+03  0.47063784690E+03  0.15294330000E+03 0.  0.
<mgrwt>
<rscale>  0 0.66903332E+03</rscale>
<asrwt>0</asrwt>
<pdfrwt beam="1">  1        1 0.66303577E-01 0.77334611E+03</pdfrwt>
<pdfrwt beam="2">  1       -1 0.24395972E+00 0.77334611E+03</pdfrwt>
<totfact> 0.42973658E+00</totfact>
</mgrwt>
</event>
<event>
 4    1  0.1043382E-007  0.9756919E+03  0.7818608E-02  0.9414075E-01
         -1   -1    0    0    0  501 -0.00000000000E+00  0.00000000000E+00  0.14492089905E+04  0.14492089905E+04  0.50400000000E-02 0.  1.
          1   -1    0    0  501    0  0.00000000000E+00 -0.00000000000E+00 -0.11690174857E+04  0.11690174857E+04  0.50400000000E-02 0. -1.
    8880023    1    1    2    0    0 -0.21450709012E+03  0.68713263275E+03 -0.83358383674E+03  0.12832913799E+04  0.65864270000E+03 0.  0.
    8880022    1    1    2    0    0  0.21450709012E+03 -0.68713263275E+03  0.11137753415E+04  0.13349350962E+04  0.15294330000E+03 0.  0.
<mgrwt>
<rscale>  0 0.90926396E+03</rscale>
<asrwt>0</asrwt>
<pdfrwt beam="1">  1        1 0.17984884E+00 0.97569194E+03</pdfrwt>
<pdfrwt beam="2">  1       -1 0.22295523E+00 0.97569194E+03</pdfrwt>
<totfact> 0.11960701E+00</totfact>
</mgrwt>
</event>
<event>
 4    1  0.1043382E-007  0.6628438E+03  0.7818608E-02  0.1021415E+00
          1   -1    0    0  501    0  0.00000000000E+00  0.00000000000E+00  0.22034885109E+03  0.22034885115E+03  0.50400000000E-02 0. -1.
         -1   -1    0    0    0  501 -0.00000000000E+00 -0.00000000000E+00 -0.12035304044E+04  0.12035304044E+04  0.50400000000E-02 0.  1.
    8880023    1    1    2    0    0  0.72181850387E+02 -0.18479048374E+02 -0.10494902394E+04  0.12412862940E+04  0.65864270000E+03 0.  1.
    8880022    1    1    2    0    0 -0.72181850387E+02  0.18479048374E+02  0.66308686089E+02  0.18259296158E+03  0.15294330000E+03 0.  0.
<mgrwt>
<rscale>  0 0.47179354E+03</rscale>
<asrwt>0</asrwt>
<pdfrwt beam="1">  1        1 0.33899824E-01 0.66284380E+03</pdfrwt>
<pdfrwt beam="2">  1       -1 0.18515852E+00 0.66284380E+03</pdfrwt>
<totfact> 0.25893156E+01</totfact>
</mgrwt>
</event>
<event>
 4    1  0.1043382E-007  0.1379777E+04  0.7818608E-02  0.8999558E-01
         -1   -1    0    0    0  501 -0.00000000000E+00  0.00000000000E+00  0.95865302687E+03  0.95865302688E+03  0.50400000000E-02 0.  1.
          1   -1    0    0  501    0  0.00000000000E+00 -0.00000000000E+00 -0.20082310590E+04  0.20082310591E+04  0.50400000000E-02 0. -1.
    8880023    1    1    2    0    0  0.11962676633E+04  0.19727469163E+03 -0.37693273112E+02  0.13802914965E+04  0.65864270000E+03 0.  0.
    8880022    1    1    2    0    0 -0.11962676633E+04 -0.19727469163E+03 -0.10118847591E+04  0.15865925894E+04  0.15294330000E+03 0.  0.
<mgrwt>
<rscale>  0 0.13385277E+04</rscale>
<asrwt>0</asrwt>
<pdfrwt beam="1">  1        1 0.30895862E+00 0.13797767E+04</pdfrwt>
<pdfrwt beam="2">  1       -1 0.14748508E+00 0.13797767E+04</pdfrwt>
<totfact> 0.10336957E+00</totfact>
</mgrwt>
</event>
<event>
 4    1  0.1043382E-007  0.6803437E+03  0.7818608E-02  0.1009130E+00
          1   -1    0    0  501    0  0.00000000000E+00  0.00000000000E+00  0.15831191654E+04  0.15831191654E+04  0.50400000000E-02 0. -1.
         -1   -1    0    0    0  501 -0.00000000000E+00 -0.00000000000E+00 -0.24707115223E+03  0.24707115228E+03  0.50400000000E-02 0.  1.
    8880023    1    1    2    0    0 -0.16655067046E+03 -0.36307122803E+02  0.25725588517E+03  0.72735694794E+03  0.65864270000E+03 0.  1.
    8880022    1    1    2    0    0  0.16655067046E+03  0.36307122803E+02  0.10787921280E+04  0.11028333697E+04  0.15294330000E+03 0.  0.
<mgrwt>
<rscale>  0 0.51821909E+03</rscale>
<asrwt>0</asrwt>
<pdfrwt beam="1">  1        1 0.24355680E+00 0.68034369E+03</pdfrwt>
<pdfrwt beam="2">  1       -1 0.38010946E-01 0.68034369E+03</pdfrwt>
<totfact> 0.39827343E+01</totfact>
</mgrwt>
</event>
<event>
 4    1  0.1043382E-007  0.6687935E+03  0.7818608E-02  0.1016543E+00
         -1   -1    0    0    0  501 -0.00000000000E+00  0.00000000000E+00  0.47586807752E+03  0.47586807754E+03  0.50400000000E-02 0.  1.
          1   -1    0    0  501    0  0.00000000000E+00 -0.00000000000E+00 -0.39063328586E+03  0.39063328589E+03  0.50400000000E-02 0. -1.
    8880023    1    1    2    0    0  0.11605595693E+03  0.23484490343E+01  0.87424141248E+02  0.67448327413E+03  0.65864270000E+03 0.  1.
    8880022    1    1    2    0    0 -0.11605595693E+03 -0.23484490343E+01 -0.21893495903E+01  0.19201808930E+03  0.15294330000E+03 0. -1.
<mgrwt>
<rscale>  0 0.48955050E+03</rscale>
<asrwt>0</asrwt>
<pdfrwt beam="1">  1        1 0.60097429E-01 0.66879347E+03</pdfrwt>
<pdfrwt beam="2">  1       -1 0.73210474E-01 0.66879347E+03</pdfrwt>
<totfact> 0.11895265E+02</totfact>
</mgrwt>
</event>
<event>
 4    1  0.1043382E-007  0.7867987E+03  0.7818608E-02  0.9740102E-01
          1   -1    0    0  501    0  0.00000000000E+00  0.00000000000E+00  0.33013854376E+03  0.33013854380E+03  0.50400000000E-02 0. -1.
         -1   -1    0    0    0  501 -0.00000000000E+00 -0.00000000000E+00 -0.14161067927E+04  0.14161067927E+04  0.50400000000E-02 0.  1.
    8880023    1    1    2    0    0 -0.41846636097E+03  0.10063715433E+03 -0.10146210900E+04  0.12839424031E+04  0.65864270000E+03 0.  1.
    8880022    1    1    2    0    0  0.41846636097E+03 -0.10063715433E+03 -0.71347158973E+02  0.46230293337E+03  0.15294330000E+03 0.  0.
<mgrwt>
<rscale>  0 0.68678490E+03</rscale>
<asrwt>0</asrwt>
<pdfrwt beam="1">  1        1 0.50790546E-01 0.78679866E+03</pdfrwt>
<pdfrwt beam="2">  1       -1 0.21786258E+00 0.78679866E+03</pdfrwt>
<totfact> 0.90472893E+00</totfact>
</mgrwt>
</event>
<event>
 4    1  0.1043382E-007  0.8127012E+03  0.7818608E-02  0.9683978E-01
         -1   -1    0    0    0  501 -0.00000000000E+00  0.00000000000E+00  0.28279704429E+03  0.28279704434E+03  0.50400000000E-02 0.  1.
          1   -1    0    0  501    0  0.00000000000E+00 -0.00000000000E+00 -0.19898041299E+04  0.19898041299E+04  0.50400000000E-02 0. -1.
    8880023    1    1    2    0    0 -0.33262575910E+03 -0.34063645950E+03 -0.47112580152E+03  0.93938427722E+03  0.65864270000E+03 0.  0.
    8880022    1    1    2    0    0  0.33262575910E+03  0.34063645950E+03 -0.12358812841E+04  0.13332168970E+04  0.15294330000E+03 0.  0.
<mgrwt>
<rscale>  0 0.71978824E+03</rscale>
<asrwt>0</asrwt>
<pdfrwt beam="1">  1        1 0.30612370E+00 0.81270124E+03</pdfrwt>
<pdfrwt beam="2">  1       -1 0.43507239E-01 0.81270124E+03</pdfrwt>
<totfact> 0.16316184E+01</totfact>
</mgrwt>
</event>
<event>
 4    1  0.1043382E-007  0.8440811E+03  0.7818608E-02  0.9622533E-01
          1   -1    0    0  501    0  0.00000000000E+00  0.00000000000E+00  0.76989061071E+03  0.76989061073E+03  0.50400000000E-02 0. -1.
         -1   -1    0    0    0  501 -0.00000000000E+00 -0.00000000000E+00 -0.67433818281E+03  0.67433818283E+03  0.50400000000E-02 0.  1.
    8880023    1    1    2    0    0 -0.12363137191E+03 -0.51320356993E+03 -0.12256668194E+03  0.85293341949E+03  0.65864270000E+03 0.  0.
    8880022    1    1    2    0    0  0.12363137191E+03  0.51320356993E+03  0.21811910984E+03  0.59129537407E+03  0.15294330000E+03 0.  0.
<mgrwt>
<rscale>  0 0.75822611E+03</rscale>
<asrwt>0</asrwt>
<pdfrwt beam="1">  1        1 0.11844471E+00 0.84408105E+03</pdfrwt>
<pdfrwt beam="2">  1       -1 0.10374434E+00 0.84408105E+03</pdfrwt>
<totfact> 0.20926035E+01</totfact>
</mgrwt>
</event>
<event>
 4    1  0.1043382E-007  0.7010396E+03  0.7818608E-02  0.9992915E-01
          1   -1    0    0  501    0  0.00000000000E+00  0.00000000000E+00  0.14830488199E+04  0.14830488199E+04  0.50400000000E-02 0. -1.
         -1   -1    0    0    0  501 -0.00000000000E+00 -0.00000000000E+00 -0.16705399224E+03  0.16705399232E+03  0.50400000000E-02 0.  1.
    8880023    1    1    2    0    0  0.56236109989E+02 -0.23341772757E+03  0.82573107768E+03  0.10831843585E+04  0.65864270000E+03 0.  1.
    8880022    1    1    2    0    0 -0.56236109989E+02  0.23341772757E+03  0.49026375001E+03  0.56691845375E+03  0.15294330000E+03 0.  1.
<mgrwt>
<rscale>  0 0.55961971E+03</rscale>
<asrwt>0</asrwt>
<pdfrwt beam="1">  1        1 0.22816135E+00 0.70103962E+03</pdfrwt>
<pdfrwt beam="2">  1       -1 0.25700615E-01 0.70103962E+03</pdfrwt>
<totfact> 0.92258177E+01</totfact>
</mgrwt>
</event>
<event>
 4    1  0.1043382E-007  0.6863181E+03  0.7818608E-02  0.1005954E+00
         -1   -1    0    0    0  501 -0.00000000000E+00  0.00000000000E+00  0.24249338051E+03  0.24249338056E+03  0.50400000000E-02 0.  1.
          1   -1    0    0  501    0  0.00000000000E+00 -0.00000000000E+00 -0.89766994627E+03  0.89766994629E+03  0.50400000000E-02 0. -1.
    8880023    1    1    2    0    0 -0.21033261857E+02  0.19178077315E+03 -0.46390520805E+03  0.82839634920E+03  0.65864270000E+03 0.  1.
    8880022    1    1    2    0    0  0.21033261857E+02 -0.19178077315E+03 -0.19127135771E+03  0.31176697765E+03  0.15294330000E+03 0. -1.
<mgrwt>
<rscale>  0 0.53114807E+03</rscale>
<asrwt>0</asrwt>
<pdfrwt beam="1">  1        1 0.13810307E+00 0.68631805E+03</pdfrwt>
<pdfrwt beam="2">  1       -1 0.37306674E-01 0.68631805E+03</pdfrwt>
<totfact> 0.12914802E+02</totfact>
</mgrwt>
</event>
<event>
 4    1  0.1043382E-007  0.8606889E+03  0.7818608E-02  0.9592339E-01
          1   -1    0    0  501    0  0.00000000000E+00  0.00000000000E+00  0.74489352774E+03  0.74489352776E+03  0.50400000000E-02 0. -1.
         -1   -1    0    0    0  501 -0.00000000000E+00 -0.00000000000E+00 -0.17287724509E+04  0.17287724509E+04  0.50400000000E-02 0.  1.
    8880023    1    1    2    0    0 -0.54627157765E+03 -0.92533531584E+02 -0.14815262251E+04  0.17133899886E+04  0.65864270000E+03 0.  1.
    8880022    1    1    2    0    0  0.54627157765E+03  0.92533531584E+02  0.49764730193E+03  0.76027599011E+03  0.15294330000E+03 0.  0.
<mgrwt>
<rscale>  0 0.77805298E+03</rscale>
<asrwt>0</asrwt>
<pdfrwt beam="1">  1        1 0.11459900E+00 0.86068885E+03</pdfrwt>
<pdfrwt beam="2">  1       -1 0.26596499E+00 0.86068885E+03</pdfrwt>
<totfact> 0.13999946E+00</totfact>
</mgrwt>
</event>
<event>
 4    1  0.1043382E-007  0.6715434E+03  0.7818608E-02  0.1014580E+00
          1   -1    0    0  501    0  0.00000000000E+00  0.00000000000E+00  0.15995814284E+04  0.15995814284E+04  0.50400000000E-02 0. -1.
         -1   -1    0    0    0  501 -0.00000000000E+00 -0.00000000000E+00 -0.12535807285E+03  0.12535807295E+03  0.50400000000E-02 0.  1.
    8880023    1    1    2    0    0  0.57446101425E+02  0.11772942892E+03  0.95016306666E+03  0.11635206627E+04  0.65864270000E+03 0.  1.
    8880022    1    1    2    0    0 -0.57446101425E+02 -0.11772942892E+03  0.52406028890E+03  0.56141883867E+03  0.15294330000E+03 0.  0.
<mgrwt>
<rscale>  0 0.49694346E+03</rscale>
<asrwt>0</asrwt>
<pdfrwt beam="1">  1        1 0.24608946E+00 0.67154336E+03</pdfrwt>
<pdfrwt beam="2">  1       -1 0.19285857E-01 0.67154336E+03</pdfrwt>
<totfact> 0.12496387E+02</totfact>
</mgrwt>
</event>
<event>
 4    1  0.1377064E-007  0.1066560E+04  0.7818608E-02  0.9299234E-01
         -1   -1    0    0    0  501 -0.00000000000E+00  0.00000000000E+00  0.11149803675E+04  0.11149803675E+04  0.50400000000E-02 0.  1.
          1   -1    0    0  501    0  0.00000000000E+00 -0.00000000000E+00 -0.26615028186E+04  0.26615028186E+04  0.50400000000E-02 0. -1.
    8880023    1    1    2    0    0 -0.27574602351E+03 -0.79227756686E+03  0.76509649260E+03  0.13126014101E+04  0.65864270000E+03 0.  0.
    8880022    1    1    2    0    0  0.27574602351E+03  0.79227756686E+03 -0.23116189437E+04  0.24638817760E+04  0.15294330000E+03 0.  0.
<mgrwt>
<rscale>  0 0.10085339E+04</rscale>
<asrwt>0</asrwt>
<pdfrwt beam="1">  1        1 0.40946197E+00 0.10665598E+04</pdfrwt>
<pdfrwt beam="2">  1       -1 0.17153544E+00 0.10665598E+04</pdfrwt>
<totfact> 0.25285320E-01</totfact>
</mgrwt>
</event>
<event>
 4    1  0.1043382E-007  0.1042180E+04  0.7818608E-02  0.9328342E-01
          1   -1    0    0  501    0  0.00000000000E+00  0.00000000000E+00  0.13791849502E+04  0.13791849502E+04  0.50400000000E-02 0. -1.
         -1   -1    0    0    0  501 -0.00000000000E+00 -0.00000000000E+00 -0.12839328997E+04  0.12839328997E+04  0.50400000000E-02 0.  1.
    8880023    1    1    2    0    0 -0.18773830478E+03 -0.78554654350E+03  0.99745671490E+03  0.14425876568E+04  0.65864270000E+03 0. -1.
    8880022    1    1    2    0    0  0.18773830478E+03  0.78554654350E+03 -0.90220466438E+03  0.12205301932E+04  0.15294330000E+03 0.  0.
<mgrwt>
<rscale>  0 0.98215033E+03</rscale>
<asrwt>0</asrwt>
<pdfrwt beam="1">  1        1 0.21218230E+00 0.10421800E+04</pdfrwt>
<pdfrwt beam="2">  1       -1 0.19752814E+00 0.10421800E+04</pdfrwt>
<totfact> 0.12440702E+00</totfact>
</mgrwt>
</event>
<event>
 4    1  0.1043382E-007  0.8007161E+03  0.7818608E-02  0.9709250E-01
          1   -1    0    0  501    0  0.00000000000E+00  0.00000000000E+00  0.27638237448E+04  0.27638237449E+04  0.50400000000E-02 0. -1.
         -1   -1    0    0    0  501 -0.00000000000E+00 -0.00000000000E+00 -0.26735979843E+03  0.26735979848E+03  0.50400000000E-02 0.  1.
    8880023    1    1    2    0    0 -0.18639490985E+02  0.45496001945E+03  0.42849192802E+03  0.90815834994E+03  0.65864270000E+03 0.  0.
    8880022    1    1    2    0    0  0.18639490985E+02 -0.45496001945E+03  0.20679720184E+04  0.21230251934E+04  0.15294330000E+03 0.  0.
<mgrwt>
<rscale>  0 0.70468720E+03</rscale>
<asrwt>0</asrwt>
<pdfrwt beam="1">  1        1 0.42520365E+00 0.80071609E+03</pdfrwt>
<pdfrwt beam="2">  1       -1 0.41132277E-01 0.80071609E+03</pdfrwt>
<totfact> 0.53904581E+00</totfact>
</mgrwt>
</event>
<event>
 4    1  0.1043382E-007  0.8784928E+03  0.7818608E-02  0.9561479E-01
         -1   -1    0    0    0  501 -0.00000000000E+00  0.00000000000E+00  0.58338536971E+03  0.58338536974E+03  0.50400000000E-02 0.  1.
          1   -1    0    0  501    0  0.00000000000E+00 -0.00000000000E+00 -0.35569270169E+04  0.35569270169E+04  0.50400000000E-02 0. -1.
    8880023    1    1    2    0    0 -0.56475270123E+03  0.13781803165E+03  0.20775436390E+03  0.90272449029E+03  0.65864270000E+03 0.  0.
    8880022    1    1    2    0    0  0.56475270123E+03 -0.13781803165E+03 -0.31812960111E+04  0.32375878964E+04  0.15294330000E+03 0.  0.
<mgrwt>
<rscale>  0 0.79899089E+03</rscale>
<asrwt>0</asrwt>
<pdfrwt beam="1">  1        1 0.54721953E+00 0.87849282E+03</pdfrwt>
<pdfrwt beam="2">  1       -1 0.89751598E-01 0.87849282E+03</pdfrwt>
<totfact> 0.29209910E-01</totfact>
</mgrwt>
</event>
<event>
 4    1  0.1043382E-007  0.8322775E+03  0.7818608E-02  0.9644917E-01
          1   -1    0    0  501    0  0.00000000000E+00  0.00000000000E+00  0.17192535858E+04  0.17192535858E+04  0.50400000000E-02 0. -1.
         -1   -1    0    0    0  501 -0.00000000000E+00 -0.00000000000E+00 -0.35338725939E+03  0.35338725943E+03  0.50400000000E-02 0.  1.
    8880023    1    1    2    0    0  0.10683552287E+02 -0.50868603770E+03  0.30541788959E+03  0.88654718814E+03  0.65864270000E+03 0. -1.
    8880022    1    1    2    0    0 -0.10683552287E+02  0.50868603770E+03  0.10604484368E+04  0.11860936571E+04  0.15294330000E+03 0.  0.
<mgrwt>
<rscale>  0 0.74393275E+03</rscale>
<asrwt>0</asrwt>
<pdfrwt beam="1">  1        1 0.26450056E+00 0.83227750E+03</pdfrwt>
<pdfrwt beam="2">  1       -1 0.54367269E-01 0.83227750E+03</pdfrwt>
<totfact> 0.16231461E+01</totfact>
</mgrwt>
</event>
<event>
 4    1  0.1043382E-007  0.8247994E+03  0.7818608E-02  0.9659537E-01
          1   -1    0    0  501    0  0.00000000000E+00  0.00000000000E+00  0.60727548360E+03  0.60727548362E+03  0.50400000000E-02 0. -1.
         -1   -1    0    0    0  501 -0.00000000000E+00 -0.00000000000E+00 -0.10777631710E+04  0.10777631710E+04  0.50400000000E-02 0.  1.
    8880023    1    1    2    0    0  0.22342635629E+02  0.49596847041E+03 -0.73258915000E+03  0.11031686118E+04  0.65864270000E+03 0.  0.
    8880022    1    1    2    0    0 -0.22342635629E+02 -0.49596847041E+03  0.26210146265E+03  0.58187004283E+03  0.15294330000E+03 0.  0.
<mgrwt>
<rscale>  0 0.73477897E+03</rscale>
<asrwt>0</asrwt>
<pdfrwt beam="1">  1        1 0.93426998E-01 0.82479944E+03</pdfrwt>
<pdfrwt beam="2">  1       -1 0.16580972E+00 0.82479944E+03</pdfrwt>
<totfact> 0.90876453E+00</totfact>
</mgrwt>
</event>
<event>
 4    1  0.1043382E-007  0.1150943E+04  0.7818608E-02  0.9206350E-01
          1   -1    0    0  501    0  0.00000000000E+00  0.00000000000E+00  0.15931283092E+04  0.15931283092E+04  0.50400000000E-02 0. -1.
         -1   -1    0    0    0  501 -0.00000000000E+00 -0.00000000000E+00 -0.89318156766E+03  0.89318156767E+03  0.50400000000E-02 0.  1.
    8880023    1    1    2    0    0  0.47665534881E+03 -0.81465296788E+03  0.95628602733E+03  0.14963799491E+04  0.65864270000E+03 0.  0.
    8880022    1    1    2    0    0 -0.47665534881E+03  0.81465296788E+03 -0.25633928575E+03  0.98992992786E+03  0.15294330000E+03 0.  0.
<mgrwt>
<rscale>  0 0.10988125E+04</rscale>
<asrwt>0</asrwt>
<pdfrwt beam="1">  1        1 0.24509666E+00 0.11509431E+04</pdfrwt>
<pdfrwt beam="2">  1       -1 0.13741255E+00 0.11509431E+04</pdfrwt>
<totfact> 0.24510967E+00</totfact>
</mgrwt>
</event>
<event>
 4    1  0.1043382E-007  0.6649967E+03  0.7818608E-02  0.1019536E+00
         -1   -1    0    0    0  501 -0.00000000000E+00  0.00000000000E+00  0.97538752819E+02  0.97538752949E+02  0.50400000000E-02 0.  1.
          1   -1    0    0  501    0  0.00000000000E+00 -0.00000000000E+00 -0.29470470755E+04  0.29470470755E+04  0.50400000000E-02 0. -1.
    8880023    1    1    2    0    0  0.81773466118E+02 -0.41514895281E+02 -0.10955227566E+04  0.12815579202E+04  0.65864270000E+03 0.  1.
    8880022    1    1    2    0    0 -0.81773466118E+02  0.41514895281E+02 -0.17539855661E+04  0.17630279082E+04  0.15294330000E+03 0.  0.
<mgrwt>
<rscale>  0 0.47854357E+03</rscale>
<asrwt>0</asrwt>
<pdfrwt beam="1">  1        1 0.45339179E+00 0.66499669E+03</pdfrwt>
<pdfrwt beam="2">  1       -1 0.15005964E-01 0.66499669E+03</pdfrwt>
<totfact> 0.22994066E+01</totfact>
</mgrwt>
</event>
<event>
 4    1  0.1043382E-007  0.6654469E+03  0.7818608E-02  0.1019161E+00
          1   -1    0    0  501    0  0.00000000000E+00  0.00000000000E+00  0.19470782601E+04  0.19470782601E+04  0.50400000000E-02 0. -1.
         -1   -1    0    0    0  501 -0.00000000000E+00 -0.00000000000E+00 -0.22281782449E+03  0.22281782455E+03  0.50400000000E-02 0.  1.
    8880023    1    1    2    0    0  0.77007718922E+02 -0.55490572887E+02  0.29255045766E+03  0.72691496682E+03  0.65864270000E+03 0.  1.
    8880022    1    1    2    0    0 -0.77007718922E+02  0.55490572887E+02  0.14317099780E+04  0.14429811178E+04  0.15294330000E+03 0.  0.
<mgrwt>
<rscale>  0 0.47990463E+03</rscale>
<asrwt>0</asrwt>
<pdfrwt beam="1">  1        1 0.29955050E+00 0.66544692E+03</pdfrwt>
<pdfrwt beam="2">  1       -1 0.34279665E-01 0.66544692E+03</pdfrwt>
<totfact> 0.27378781E+01</totfact>
</mgrwt>
</event>
<event>
 4    1  0.1043382E-007  0.1275067E+04  0.7818608E-02  0.9087396E-01
         -1   -1    0    0    0  501 -0.00000000000E+00  0.00000000000E+00  0.10282595769E+04  0.10282595769E+04  0.50400000000E-02 0.  1.
          1   -1    0    0  501    0  0.00000000000E+00 -0.00000000000E+00 -0.16667593964E+04  0.16667593964E+04  0.50400000000E-02 0. -1.
    8880023    1    1    2    0    0 -0.81467053846E+03 -0.72684001209E+03  0.22486425817E+03  0.12947426888E+04  0.65864270000E+03 0.  0.
    8880022    1    1    2    0    0  0.81467053846E+03  0.72684001209E+03 -0.86336407762E+03  0.14002762845E+04  0.15294330000E+03 0.  0.
<mgrwt>
<rscale>  0 0.12295282E+04</rscale>
<asrwt>0</asrwt>
<pdfrwt beam="1">  1        1 0.25642452E+00 0.12750665E+04</pdfrwt>
<pdfrwt beam="2">  1       -1 0.15819378E+00 0.12750665E+04</pdfrwt>
<totfact> 0.14730475E+00</totfact>
</mgrwt>
</event>
<event>
 4    1  0.1083254E-007  0.7604275E+03  0.7818608E-02  0.9804002E-01
         -1   -1    0    0    0  501 -0.00000000000E+00  0.00000000000E+00  0.86728327154E+03  0.86728327155E+03  0.50400000000E-02 0.  1.
          1   -1    0    0  501    0  0.00000000000E+00 -0.00000000000E+00 -0.25413357549E+04  0.25413357549E+04  0.50400000000E-02 0. -1.
    8880023    1    1    2    0    0  0.31716090770E+03 -0.20940099937E+03  0.67943239344E+03  0.10197442834E+04  0.65864270000E+03 0.  1.
    8880022    1    1    2    0    0 -0.31716090770E+03  0.20940099937E+03 -0.23534848768E+04  0.23888747431E+04  0.15294330000E+03 0.  0.
<mgrwt>
<rscale>  0 0.65148219E+03</rscale>
<asrwt>0</asrwt>
<pdfrwt beam="1">  1        1 0.39097473E+00 0.76042753E+03</pdfrwt>
<pdfrwt beam="2">  1       -1 0.13342820E+00 0.76042753E+03</pdfrwt>
<totfact> 0.64298774E-01</totfact>
</mgrwt>
</event>
<event>
 4    1  0.1043382E-007  0.7932193E+03  0.7818608E-02  0.9725654E-01
         -1   -1    0    0    0  501 -0.00000000000E+00  0.00000000000E+00  0.80503102888E+03  0.80503102890E+03  0.50400000000E-02 0.  1.
          1   -1    0    0  501    0  0.00000000000E+00 -0.00000000000E+00 -0.91614584493E+03  0.91614584494E+03  0.50400000000E-02 0. -1.
    8880023    1    1    2    0    0 -0.14818307946E+03 -0.41644739197E+03  0.51045950259E+03  0.94327396093E+03  0.65864270000E+03 0.  1.
    8880022    1    1    2    0    0  0.14818307946E+03  0.41644739197E+03 -0.62157431863E+03  0.77790291291E+03  0.15294330000E+03 0.  0.
<mgrwt>
<rscale>  0 0.69509712E+03</rscale>
<asrwt>0</asrwt>
<pdfrwt beam="1">  1        1 0.14094551E+00 0.79321930E+03</pdfrwt>
<pdfrwt beam="2">  1       -1 0.12385093E+00 0.79321930E+03</pdfrwt>
<totfact> 0.10369548E+01</totfact>
</mgrwt>
</event>
<event>
 4    1  0.1043382E-007  0.9127565E+03  0.7818608E-02  0.9505856E-01
         -1   -1    0    0    0  501 -0.00000000000E+00  0.00000000000E+00  0.13373978626E+04  0.13373978626E+04  0.50400000000E-02 0.  1.
          1   -1    0    0  501    0  0.00000000000E+00 -0.00000000000E+00 -0.49993204211E+03  0.49993204214E+03  0.50400000000E-02 0. -1.
    8880023    1    1    2    0    0 -0.37309534510E+03 -0.51001379586E+03  0.21608494793E+03  0.93798567126E+03  0.65864270000E+03 0.  0.
    8880022    1    1    2    0    0  0.37309534510E+03  0.51001379586E+03  0.62138087252E+03  0.89934423345E+03  0.15294330000E+03 0.  0.
<mgrwt>
<rscale>  0 0.83853459E+03</rscale>
<asrwt>0</asrwt>
<pdfrwt beam="1">  1        1 0.76912622E-01 0.91275649E+03</pdfrwt>
<pdfrwt beam="2">  1       -1 0.20575352E+00 0.91275649E+03</pdfrwt>
<totfact> 0.61784443E+00</totfact>
</mgrwt>
</event>
<event>
 4    1  0.1043382E-007  0.6875845E+03  0.7818608E-02  0.1005322E+00
         -1   -1    0    0    0  501 -0.00000000000E+00  0.00000000000E+00  0.14938475148E+04  0.14938475148E+04  0.50400000000E-02 0.  1.
          1   -1    0    0  501    0  0.00000000000E+00 -0.00000000000E+00 -0.57411341237E+03  0.57411341239E+03  0.50400000000E-02 0. -1.
    8880023    1    1    2    0    0 -0.17143950928E+03 -0.97830003177E+02  0.13814162519E+04  0.15430759159E+04  0.65864270000E+03 0.  1.
    8880022    1    1    2    0    0  0.17143950928E+03  0.97830003177E+02 -0.46168214953E+03  0.52488501128E+03  0.15294330000E+03 0.  0.
<mgrwt>
<rscale>  0 0.53376793E+03</rscale>
<asrwt>0</asrwt>
<pdfrwt beam="1">  1        1 0.88325142E-01 0.68758448E+03</pdfrwt>
<pdfrwt beam="2">  1       -1 0.22982269E+00 0.68758448E+03</pdfrwt>
<totfact> 0.36292800E+00</totfact>
</mgrwt>
</event>
<event>
 4    1  0.1043382E-007  0.6853512E+03  0.7818608E-02  0.1006445E+00
          1   -1    0    0  501    0  0.00000000000E+00  0.00000000000E+00  0.87615709118E+03  0.87615709120E+03  0.50400000000E-02 0. -1.
         -1   -1    0    0    0  501 -0.00000000000E+00 -0.00000000000E+00 -0.28542496984E+03  0.28542496988E+03  0.50400000000E-02 0.  1.
    8880023    1    1    2    0    0 -0.57421703137E+01  0.18937548682E+03  0.22333320413E+03  0.72082173515E+03  0.65864270000E+03 0.  1.
    8880022    1    1    2    0    0  0.57421703137E+01 -0.18937548682E+03  0.36739891722E+03  0.44076032593E+03  0.15294330000E+03 0. -1.
<mgrwt>
<rscale>  0 0.52912156E+03</rscale>
<asrwt>0</asrwt>
<pdfrwt beam="1">  1        1 0.13479340E+00 0.68535119E+03</pdfrwt>
<pdfrwt beam="2">  1       -1 0.43911534E-01 0.68535119E+03</pdfrwt>
<totfact> 0.99969670E+01</totfact>
</mgrwt>
</event>
<event>
 4    1  0.1043382E-007  0.9636999E+03  0.7818608E-02  0.9430671E-01
         -1   -1    0    0    0  501 -0.00000000000E+00  0.00000000000E+00  0.38297115039E+03  0.38297115043E+03  0.50400000000E-02 0.  1.
          1   -1    0    0  501    0  0.00000000000E+00 -0.00000000000E+00 -0.24944496431E+04  0.24944496431E+04  0.50400000000E-02 0. -1.
    8880023    1    1    2    0    0 -0.71304000685E+02  0.69987361365E+03 -0.44379392687E+03  0.10609762445E+04  0.65864270000E+03 0.  0.
    8880022    1    1    2    0    0  0.71304000685E+02 -0.69987361365E+03 -0.16676845658E+04  0.18164445490E+04  0.15294330000E+03 0.  0.
<mgrwt>
<rscale>  0 0.89593997E+03</rscale>
<asrwt>0</asrwt>
<pdfrwt beam="1">  1        1 0.38376147E+00 0.96369992E+03</pdfrwt>
<pdfrwt beam="2">  1       -1 0.58918640E-01 0.96369992E+03</pdfrwt>
<totfact> 0.40858305E+00</totfact>
</mgrwt>
</event>
<event>
 4    1  0.1043382E-007  0.6734776E+03  0.7818608E-02  0.1013284E+00
          1   -1    0    0  501    0  0.00000000000E+00  0.00000000000E+00  0.11188940682E+04  0.11188940682E+04  0.50400000000E-02 0. -1.
         -1   -1    0    0    0  501 -0.00000000000E+00 -0.00000000000E+00 -0.28785153409E+03  0.28785153414E+03  0.50400000000E-02 0.  1.
    8880023    1    1    2    0    0  0.43760274582E+02  0.13359211657E+03  0.14362009462E+03  0.68862090666E+03  0.65864270000E+03 0.  1.
    8880022    1    1    2    0    0 -0.43760274582E+02 -0.13359211657E+03  0.68742243948E+03  0.71812469569E+03  0.15294330000E+03 0.  0.
<mgrwt>
<rscale>  0 0.50190244E+03</rscale>
<asrwt>0</asrwt>
<pdfrwt beam="1">  1        1 0.17213755E+00 0.67347756E+03</pdfrwt>
<pdfrwt beam="2">  1       -1 0.44284850E-01 0.67347756E+03</pdfrwt>
<totfact> 0.63846388E+01</totfact>
</mgrwt>
</event>
<event>
 4    1  0.1043382E-007  0.8549731E+03  0.7818608E-02  0.9602569E-01
          1   -1    0    0  501    0  0.00000000000E+00  0.00000000000E+00  0.33644952251E+04  0.33644952251E+04  0.50400000000E-02 0. -1.
         -1   -1    0    0    0  501 -0.00000000000E+00 -0.00000000000E+00 -0.26194816580E+03  0.26194816585E+03  0.50400000000E-02 0.  1.
    8880023    1    1    2    0    0 -0.54510025335E+03 -0.58743953762E+01  0.56099735057E+03  0.10225932859E+04  0.65864270000E+03 0.  1.
    8880022    1    1    2    0    0  0.54510025335E+03  0.58743953762E+01  0.25415497087E+04  0.26038501050E+04  0.15294330000E+03 0.  0.
<mgrwt>
<rscale>  0 0.77126403E+03</rscale>
<asrwt>0</asrwt>
<pdfrwt beam="1">  1        1 0.51761464E+00 0.85497310E+03</pdfrwt>
<pdfrwt beam="2">  1       -1 0.40299719E-01 0.85497310E+03</pdfrwt>
<totfact> 0.20308183E+00</totfact>
</mgrwt>
</event>
<event>
 4    1  0.1043382E-007  0.6854168E+03  0.7818608E-02  0.1006412E+00
          1   -1    0    0  501    0  0.00000000000E+00  0.00000000000E+00  0.29285594411E+04  0.29285594411E+04  0.50400000000E-02 0. -1.
         -1   -1    0    0    0  501 -0.00000000000E+00 -0.00000000000E+00 -0.96963681469E+02  0.96963681600E+02  0.50400000000E-02 0.  1.
    8880023    1    1    2    0    0 -0.10250296529E+03 -0.15962174605E+03  0.12528783407E+04  0.14281107459E+04  0.65864270000E+03 0.  1.
    8880022    1    1    2    0    0  0.10250296529E+03  0.15962174605E+03  0.15787174189E+04  0.15974123768E+04  0.15294330000E+03 0.  0.
<mgrwt>
<rscale>  0 0.52925978E+03</rscale>
<asrwt>0</asrwt>
<pdfrwt beam="1">  1        1 0.45054760E+00 0.68541678E+03</pdfrwt>
<pdfrwt beam="2">  1       -1 0.14917490E-01 0.68541678E+03</pdfrwt>
<totfact> 0.23848431E+01</totfact>
</mgrwt>
</event>
<event>
 4    1  0.1376105E-007  0.6695250E+03  0.7818608E-02  0.1016006E+00
          1   -1    0    0  501    0  0.00000000000E+00  0.00000000000E+00  0.20864383066E+04  0.20864383066E+04  0.50400000000E-02 0. -1.
         -1   -1    0    0    0  501 -0.00000000000E+00 -0.00000000000E+00 -0.11110781259E+04  0.11110781259E+04  0.50400000000E-02 0.  1.
    8880023    1    1    2    0    0 -0.25377186430E+02  0.11751388748E+03 -0.10050152193E+04  0.12076089237E+04  0.65864270000E+03 0.  1.
    8880022    1    1    2    0    0  0.25377186430E+02 -0.11751388748E+03  0.19803754000E+04  0.19899075087E+04  0.15294330000E+03 0.  0.
<mgrwt>
<rscale>  0 0.49155985E+03</rscale>
<asrwt>0</asrwt>
<pdfrwt beam="1">  1        1 0.32099051E+00 0.66952500E+03</pdfrwt>
<pdfrwt beam="2">  1       -1 0.17093510E+00 0.66952500E+03</pdfrwt>
<totfact> 0.68322984E-01</totfact>
</mgrwt>
</event>
<event>
 4    1  0.1043382E-007  0.6750919E+03  0.7818608E-02  0.1012248E+00
          1   -1    0    0  501    0  0.00000000000E+00  0.00000000000E+00  0.46839429251E+03  0.46839429253E+03  0.50400000000E-02 0. -1.
         -1   -1    0    0    0  501 -0.00000000000E+00 -0.00000000000E+00 -0.46183105925E+03  0.46183105928E+03  0.50400000000E-02 0.  1.
    8880023    1    1    2    0    0  0.12775479995E+03  0.74950341355E+02 -0.11535961340E+03  0.68487728043E+03  0.65864270000E+03 0.  0.
    8880022    1    1    2    0    0 -0.12775479995E+03 -0.74950341355E+02  0.12192284666E+03  0.24534807138E+03  0.15294330000E+03 0.  0.
<mgrwt>
<rscale>  0 0.50590733E+03</rscale>
<asrwt>0</asrwt>
<pdfrwt beam="1">  1        1 0.72060660E-01 0.67509188E+03</pdfrwt>
<pdfrwt beam="2">  1       -1 0.71050933E-01 0.67509188E+03</pdfrwt>
<totfact> 0.99247245E+01</totfact>
</mgrwt>
</event>
<event>
 4    1  0.1043382E-007  0.8512657E+03  0.7818608E-02  0.9609293E-01
          1   -1    0    0  501    0  0.00000000000E+00  0.00000000000E+00  0.26492868061E+03  0.26492868066E+03  0.50400000000E-02 0. -1.
         -1   -1    0    0    0  501 -0.00000000000E+00 -0.00000000000E+00 -0.44234512164E+04  0.44234512164E+04  0.50400000000E-02 0.  1.
    8880023    1    1    2    0    0  0.48924954085E+03  0.22688765945E+03 -0.40224433386E+04  0.41115330161E+04  0.65864270000E+03 0.  0.
    8880022    1    1    2    0    0 -0.48924954085E+03 -0.22688765945E+03 -0.13607919716E+03  0.57684688102E+03  0.15294330000E+03 0.  0.
<mgrwt>
<rscale>  0 0.76684156E+03</rscale>
<asrwt>0</asrwt>
<pdfrwt beam="1">  1        1 0.40758262E-01 0.85126572E+03</pdfrwt>
<pdfrwt beam="2">  1       -1 0.68053090E+00 0.85126572E+03</pdfrwt>
<totfact> 0.24632892E-02</totfact>
</mgrwt>
</event>
<event>
 4    1  0.1043382E-007  0.8898027E+03  0.7818608E-02  0.9542604E-01
          1   -1    0    0  501    0  0.00000000000E+00  0.00000000000E+00  0.16430425372E+04  0.16430425373E+04  0.50400000000E-02 0. -1.
         -1   -1    0    0    0  501 -0.00000000000E+00 -0.00000000000E+00 -0.46120762096E+03  0.46120762099E+03  0.50400000000E-02 0.  1.
    8880023    1    1    2    0    0  0.50293333779E+03 -0.32403180412E+03  0.15088271058E+03  0.90250448805E+03  0.65864270000E+03 0.  0.
    8880022    1    1    2    0    0 -0.50293333779E+03  0.32403180412E+03  0.10309522057E+04  0.12017456702E+04  0.15294330000E+03 0.  0.
<mgrwt>
<rscale>  0 0.81214378E+03</rscale>
<asrwt>0</asrwt>
<pdfrwt beam="1">  1        1 0.25277577E+00 0.88980265E+03</pdfrwt>
<pdfrwt beam="2">  1       -1 0.70955019E-01 0.88980265E+03</pdfrwt>
<totfact> 0.10672594E+01</totfact>
</mgrwt>
</event>
<event>
 4    1  0.1043382E-007  0.7869915E+03  0.7818608E-02  0.9739663E-01
         -1   -1    0    0    0  501 -0.00000000000E+00  0.00000000000E+00  0.77298068826E+03  0.77298068827E+03  0.50400000000E-02 0.  1.
          1   -1    0    0  501    0  0.00000000000E+00 -0.00000000000E+00 -0.24669852609E+04  0.24669852609E+04  0.50400000000E-02 0. -1.
    8880023    1    1    2    0    0 -0.42680484457E+03  0.58163825199E+02  0.54338651960E+03  0.95636003778E+03  0.65864270000E+03 0.  1.
    8880022    1    1    2    0    0  0.42680484457E+03 -0.58163825199E+02 -0.22373910923E+04  0.22836059114E+04  0.15294330000E+03 0.  0.
<mgrwt>
<rscale>  0 0.68703595E+03</rscale>
<asrwt>0</asrwt>
<pdfrwt beam="1">  1        1 0.37953619E+00 0.78699149E+03</pdfrwt>
<pdfrwt beam="2">  1       -1 0.11892011E+00 0.78699149E+03</pdfrwt>
<totfact> 0.95694622E-01</totfact>
</mgrwt>
</event>
<event>
 4    1  0.1043382E-007  0.1137568E+04  0.7818608E-02  0.9220338E-01
          1   -1    0    0  501    0  0.00000000000E+00  0.00000000000E+00  0.81593955093E+03  0.81593955094E+03  0.50400000000E-02 0. -1.
         -1   -1    0    0    0  501 -0.00000000000E+00 -0.00000000000E+00 -0.18725914426E+04  0.18725914426E+04  0.50400000000E-02 0.  1.
    8880023    1    1    2    0    0  0.92627260509E+03 -0.47648660274E+02 -0.12900480512E+04  0.17199667190E+04  0.65864270000E+03 0.  1.
    8880022    1    1    2    0    0 -0.92627260509E+03  0.47648660274E+02  0.23339615948E+03  0.96856427460E+03  0.15294330000E+03 0.  0.
<mgrwt>
<rscale>  0 0.10845953E+04</rscale>
<asrwt>0</asrwt>
<pdfrwt beam="1">  1        1 0.12552916E+00 0.11375683E+04</pdfrwt>
<pdfrwt beam="2">  1       -1 0.28809099E+00 0.11375683E+04</pdfrwt>
<totfact> 0.83938256E-01</totfact>
</mgrwt>
</event>
<event>
 4    1  0.1043382E-007  0.6884589E+03  0.7818608E-02  0.1004894E+00
          1   -1    0    0  501    0  0.00000000000E+00  0.00000000000E+00  0.16319886714E+03  0.16319886722E+03  0.50400000000E-02 0. -1.
         -1   -1    0    0    0  501 -0.00000000000E+00 -0.00000000000E+00 -0.19885366248E+04  0.19885366248E+04  0.50400000000E-02 0.  1.
    8880023    1    1    2    0    0  0.61775162297E+02 -0.19065474496E+03 -0.17621041659E+04  0.18918210011E+04  0.65864270000E+03 0.  1.
    8880022    1    1    2    0    0 -0.61775162297E+02  0.19065474496E+03 -0.63233591752E+02  0.25991449093E+03  0.15294330000E+03 0.  0.
<mgrwt>
<rscale>  0 0.53555486E+03</rscale>
<asrwt>0</asrwt>
<pdfrwt beam="1">  1        1 0.25107519E-01 0.68845886E+03</pdfrwt>
<pdfrwt beam="2">  1       -1 0.30592870E+00 0.68845886E+03</pdfrwt>
<totfact> 0.61841943E+00</totfact>
</mgrwt>
</event>
<event>
 4    1  0.1043382E-007  0.8716131E+03  0.7818608E-02  0.9573231E-01
         -1   -1    0    0    0  501 -0.00000000000E+00  0.00000000000E+00  0.32954103550E+03  0.32954103554E+03  0.50400000000E-02 0.  1.
          1   -1    0    0  501    0  0.00000000000E+00 -0.00000000000E+00 -0.19034922240E+04  0.19034922240E+04  0.50400000000E-02 0. -1.
    8880023    1    1    2    0    0  0.17369884854E+03  0.54380865394E+03 -0.49381467903E+03  0.10017795594E+04  0.65864270000E+03 0.  0.
    8880022    1    1    2    0    0 -0.17369884854E+03 -0.54380865394E+03 -0.10801365095E+04  0.12312537002E+04  0.15294330000E+03 0.  0.
<mgrwt>
<rscale>  0 0.79093573E+03</rscale>
<asrwt>0</asrwt>
<pdfrwt beam="1">  1        1 0.29284495E+00 0.87161307E+03</pdfrwt>
<pdfrwt beam="2">  1       -1 0.50698622E-01 0.87161307E+03</pdfrwt>
<totfact> 0.13883765E+01</totfact>
</mgrwt>
</event>
<event>
 4    1  0.1043382E-007  0.8193872E+03  0.7818608E-02  0.9670346E-01
          1   -1    0    0  501    0  0.00000000000E+00  0.00000000000E+00  0.10078757679E+04  0.10078757679E+04  0.50400000000E-02 0. -1.
         -1   -1    0    0    0  501 -0.00000000000E+00 -0.00000000000E+00 -0.91159915600E+03  0.91159915601E+03  0.50400000000E-02 0.  1.
    8880023    1    1    2    0    0  0.11021195662E+03  0.47480362970E+03 -0.62855724327E+03  0.10327049804E+04  0.65864270000E+03 0.  1.
    8880022    1    1    2    0    0 -0.11021195662E+03 -0.47480362970E+03  0.72483385515E+03  0.88676994353E+03  0.15294330000E+03 0.  0.
<mgrwt>
<rscale>  0 0.72810182E+03</rscale>
<asrwt>0</asrwt>
<pdfrwt beam="1">  1        1 0.15505781E+00 0.81938719E+03</pdfrwt>
<pdfrwt beam="2">  1       -1 0.14024602E+00 0.81938719E+03</pdfrwt>
<totfact> 0.63793687E+00</totfact>
</mgrwt>
</event>
<event>
 4    1  0.1043382E-007  0.6887167E+03  0.7818608E-02  0.1004769E+00
         -1   -1    0    0    0  501 -0.00000000000E+00  0.00000000000E+00  0.11641057258E+03  0.11641057269E+03  0.50400000000E-02 0.  1.
          1   -1    0    0  501    0  0.00000000000E+00 -0.00000000000E+00 -0.20856332722E+04  0.20856332722E+04  0.50400000000E-02 0. -1.
    8880023    1    1    2    0    0 -0.19036384686E+03  0.65437737198E+02 -0.16923133956E+04  0.18270893046E+04  0.65864270000E+03 0.  0.
    8880022    1    1    2    0    0  0.19036384686E+03 -0.65437737198E+02 -0.27690930398E+03  0.37495454030E+03  0.15294330000E+03 0.  0.
<mgrwt>
<rscale>  0 0.53607850E+03</rscale>
<asrwt>0</asrwt>
<pdfrwt beam="1">  1        1 0.32086663E+00 0.68871670E+03</pdfrwt>
<pdfrwt beam="2">  1       -1 0.17909320E-01 0.68871670E+03</pdfrwt>
<totfact> 0.66675849E+01</totfact>
</mgrwt>
</event>
<event>
 4    1  0.1043382E-007  0.1216022E+04  0.7818608E-02  0.9141703E-01
          1   -1    0    0  501    0  0.00000000000E+00  0.00000000000E+00  0.37868903914E+04  0.37868903914E+04  0.50400000000E-02 0. -1.
         -1   -1    0    0    0  501 -0.00000000000E+00 -0.00000000000E+00 -0.33483955816E+03  0.33483955819E+03  0.50400000000E-02 0.  1.
    8880023    1    1    2    0    0  0.12568113239E+03 -0.10144476129E+04  0.17688032921E+04  0.21464796758E+04  0.65864270000E+03 0.  1.
    8880022    1    1    2    0    0 -0.12568113239E+03  0.10144476129E+04  0.16832475412E+04  0.19752502738E+04  0.15294330000E+03 0. -1.
<mgrwt>
<rscale>  0 0.11675953E+04</rscale>
<asrwt>0</asrwt>
<pdfrwt beam="1">  1        1 0.58259852E+00 0.12160222E+04</pdfrwt>
<pdfrwt beam="2">  1       -1 0.51513779E-01 0.12160222E+04</pdfrwt>
<totfact> 0.56091623E-01</totfact>
</mgrwt>
</event>
<event>
 4    1  0.1043382E-007  0.6871791E+03  0.7818608E-02  0.1005523E+00
          1   -1    0    0  501    0  0.00000000000E+00  0.00000000000E+00  0.75022777707E+03  0.75022777708E+03  0.50400000000E-02 0. -1.
         -1   -1    0    0    0  501 -0.00000000000E+00 -0.00000000000E+00 -0.42653739023E+03  0.42653739026E+03  0.50400000000E-02 0.  1.
    8880023    1    1    2    0    0  0.17012421528E+03 -0.97276010146E+02 -0.91095840385E+02  0.69319083172E+03  0.65864270000E+03 0.  1.
    8880022    1    1    2    0    0 -0.17012421528E+03  0.97276010146E+02  0.41478622722E+03  0.48357433563E+03  0.15294330000E+03 0.  0.
<mgrwt>
<rscale>  0 0.53293341E+03</rscale>
<asrwt>0</asrwt>
<pdfrwt beam="1">  1        1 0.11541966E+00 0.68717907E+03</pdfrwt>
<pdfrwt beam="2">  1       -1 0.65621137E-01 0.68717907E+03</pdfrwt>
<totfact> 0.59215043E+01</totfact>
</mgrwt>
</event>
<event>
 4    1  0.1109149E-007  0.7738253E+03  0.7818608E-02  0.9770546E-01
          1   -1    0    0  501    0  0.00000000000E+00  0.00000000000E+00  0.15116837940E+04  0.15116837940E+04  0.50400000000E-02 0. -1.
         -1   -1    0    0    0  501 -0.00000000000E+00 -0.00000000000E+00 -0.73543868729E+03  0.73543868731E+03  0.50400000000E-02 0.  1.
    8880023    1    1    2    0    0 -0.29143679125E+03 -0.28294886369E+03 -0.48502081674E+03  0.91326385108E+03  0.65864270000E+03 0.  1.
    8880022    1    1    2    0    0  0.29143679125E+03  0.28294886369E+03  0.12612659234E+04  0.13338586302E+04  0.15294330000E+03 0.  0.
<mgrwt>
<rscale>  0 0.66967427E+03</rscale>
<asrwt>0</asrwt>
<pdfrwt beam="1">  1        1 0.23256674E+00 0.77382535E+03</pdfrwt>
<pdfrwt beam="2">  1       -1 0.11314441E+00 0.77382535E+03</pdfrwt>
<totfact> 0.47577749E+00</totfact>
</mgrwt>
</event>
<event>
 4    1  0.1126441E-007  0.1008182E+04  0.7818608E-02  0.9370931E-01
         -1   -1    0    0    0  501 -0.00000000000E+00  0.00000000000E+00  0.97774798922E+03  0.97774798923E+03  0.50400000000E-02 0.  1.
          1   -1    0    0  501    0  0.00000000000E+00 -0.00000000000E+00 -0.27124352418E+04  0.27124352419E+04  0.50400000000E-02 0. -1.
    8880023    1    1    2    0    0  0.64929887717E+03 -0.40128760207E+03  0.63797220550E+03  0.11930798434E+04  0.65864270000E+03 0.  1.
    8880022    1    1    2    0    0 -0.64929887717E+03  0.40128760207E+03 -0.23726594581E+04  0.24971033877E+04  0.15294330000E+03 0.  0.
<mgrwt>
<rscale>  0 0.94507092E+03</rscale>
<asrwt>0</asrwt>
<pdfrwt beam="1">  1        1 0.41729773E+00 0.10081820E+04</pdfrwt>
<pdfrwt beam="2">  1       -1 0.15042277E+00 0.10081820E+04</pdfrwt>
<totfact> 0.33991080E-01</totfact>
</mgrwt>
</event>
<event>
 4    1  0.1043382E-007  0.7616087E+03  0.7818608E-02  0.9800960E-01
         -1   -1    0    0    0  501 -0.00000000000E+00  0.00000000000E+00  0.21706078565E+03  0.21706078571E+03  0.50400000000E-02 0.  1.
          1   -1    0    0  501    0  0.00000000000E+00 -0.00000000000E+00 -0.34452941579E+04  0.34452941579E+04  0.50400000000E-02 0. -1.
    8880023    1    1    2    0    0  0.36721953048E+03  0.10671201689E+03 -0.51815266474E+03  0.92115689671E+03  0.65864270000E+03 0.  1.
    8880022    1    1    2    0    0 -0.36721953048E+03 -0.10671201689E+03 -0.27100807075E+04  0.27411980469E+04  0.15294330000E+03 0.  0.
<mgrwt>
<rscale>  0 0.65311031E+03</rscale>
<asrwt>0</asrwt>
<pdfrwt beam="1">  1        1 0.53004522E+00 0.76160872E+03</pdfrwt>
<pdfrwt beam="2">  1       -1 0.33393969E-01 0.76160872E+03</pdfrwt>
<totfact> 0.25150819E+00</totfact>
</mgrwt>
</event>
<event>
 4    1  0.1043382E-007  0.8987204E+03  0.7818608E-02  0.9528089E-01
         -1   -1    0    0    0  501 -0.00000000000E+00  0.00000000000E+00  0.49000981888E+03  0.49000981891E+03  0.50400000000E-02 0.  1.
          1   -1    0    0  501    0  0.00000000000E+00 -0.00000000000E+00 -0.21344058191E+04  0.21344058191E+04  0.50400000000E-02 0. -1.
    8880023    1    1    2    0    0 -0.42741561149E+02 -0.60996827609E+03 -0.38827065388E+02  0.89955871746E+03  0.65864270000E+03 0.  0.
    8880022    1    1    2    0    0  0.42741561149E+02  0.60996827609E+03 -0.16055689349E+04  0.17248569206E+04  0.15294330000E+03 0.  0.
<mgrwt>
<rscale>  0 0.82244243E+03</rscale>
<asrwt>0</asrwt>
<pdfrwt beam="1">  1        1 0.32837012E+00 0.89872039E+03</pdfrwt>
<pdfrwt beam="2">  1       -1 0.75386127E-01 0.89872039E+03</pdfrwt>
<totfact> 0.43890970E+00</totfact>
</mgrwt>
</event>
<event>
 4    1  0.1043382E-007  0.8505689E+03  0.7818608E-02  0.9610565E-01
         -1   -1    0    0    0  501 -0.00000000000E+00  0.00000000000E+00  0.41775614122E+03  0.41775614125E+03  0.50400000000E-02 0.  1.
          1   -1    0    0  501    0  0.00000000000E+00 -0.00000000000E+00 -0.18923631601E+04  0.18923631601E+04  0.50400000000E-02 0. -1.
    8880023    1    1    2    0    0  0.33648273895E+03  0.42004357939E+03 -0.13873517172E+03  0.86180908346E+03  0.65864270000E+03 0.  1.
    8880022    1    1    2    0    0 -0.33648273895E+03 -0.42004357939E+03 -0.13358718472E+04  0.14483102179E+04  0.15294330000E+03 0.  0.
<mgrwt>
<rscale>  0 0.76600860E+03</rscale>
<asrwt>0</asrwt>
<pdfrwt beam="1">  1        1 0.29113279E+00 0.85056890E+03</pdfrwt>
<pdfrwt beam="2">  1       -1 0.64270177E-01 0.85056890E+03</pdfrwt>
<totfact> 0.89101540E+00</totfact>
</mgrwt>
</event>
<event>
 4    1  0.1043382E-007  0.8121657E+03  0.7818608E-02  0.9685083E-01
          1   -1    0    0  501    0  0.00000000000E+00  0.00000000000E+00  0.21084494847E+04  0.21084494847E+04  0.50400000000E-02 0. -1.
         -1   -1    0    0    0  501 -0.00000000000E+00 -0.00000000000E+00 -0.47667022243E+03  0.47667022245E+03  0.50400000000E-02 0.  1.
    8880023    1    1    2    0    0  0.20897712872E+03 -0.42676865198E+03 -0.66605440739E+02  0.81489227119E+03  0.65864270000E+03 0.  1.
    8880022    1    1    2    0    0 -0.20897712872E+03  0.42676865198E+03  0.16983847030E+04  0.17702274360E+04  0.15294330000E+03 0.  0.
<mgrwt>
<rscale>  0 0.71911907E+03</rscale>
<asrwt>0</asrwt>
<pdfrwt beam="1">  1        1 0.32437685E+00 0.81216570E+03</pdfrwt>
<pdfrwt beam="2">  1       -1 0.73333879E-01 0.81216570E+03</pdfrwt>
<totfact> 0.49049147E+00</totfact>
</mgrwt>
</event>
<event>
 4    1  0.1043382E-007  0.9065333E+03  0.7818608E-02  0.9515624E-01
         -1   -1    0    0    0  501 -0.00000000000E+00  0.00000000000E+00  0.31177591315E+04  0.31177591315E+04  0.50400000000E-02 0.  1.
          1   -1    0    0  501    0  0.00000000000E+00 -0.00000000000E+00 -0.25887711497E+03  0.25887711502E+03  0.50400000000E-02 0. -1.
    8880023    1    1    2    0    0 -0.14369740739E+03 -0.60608869032E+03  0.24590487176E+04  0.26208249173E+04  0.65864270000E+03 0.  0.
    8880022    1    1    2    0    0  0.14369740739E+03  0.60608869032E+03  0.39983329894E+03  0.75581132923E+03  0.15294330000E+03 0.  0.
<mgrwt>
<rscale>  0 0.83141674E+03</rscale>
<asrwt>0</asrwt>
<pdfrwt beam="1">  1        1 0.39827248E-01 0.90653332E+03</pdfrwt>
<pdfrwt beam="2">  1       -1 0.47965525E+00 0.90653332E+03</pdfrwt>
<totfact> 0.22400965E-01</totfact>
</mgrwt>
</event>
<event>
 4    1  0.1104205E-007  0.6854654E+03  0.7818608E-02  0.1006387E+00
         -1   -1    0    0    0  501 -0.00000000000E+00  0.00000000000E+00  0.11115929265E+04  0.11115929266E+04  0.50400000000E-02 0.  1.
          1   -1    0    0  501    0  0.00000000000E+00 -0.00000000000E+00 -0.10228035278E+04  0.10228035278E+04  0.50400000000E-02 0. -1.
    8880023    1    1    2    0    0  0.16073041662E+03 -0.10108560034E+03  0.98812213066E+03  0.12026005641E+04  0.65864270000E+03 0.  0.
    8880022    1    1    2    0    0 -0.16073041662E+03  0.10108560034E+03 -0.89933273193E+03  0.93179589029E+03  0.15294330000E+03 0.  0.
<mgrwt>
<rscale>  0 0.52936210E+03</rscale>
<asrwt>0</asrwt>
<pdfrwt beam="1">  1        1 0.15735439E+00 0.68546537E+03</pdfrwt>
<pdfrwt beam="2">  1       -1 0.17101430E+00 0.68546537E+03</pdfrwt>
<totfact> 0.36908068E+00</totfact>
</mgrwt>
</event>
<event>
 4    1  0.1043382E-007  0.7269978E+03  0.7818608E-02  0.9899582E-01
          1   -1    0    0  501    0  0.00000000000E+00  0.00000000000E+00  0.28742918106E+03  0.28742918110E+03  0.50400000000E-02 0. -1.
         -1   -1    0    0    0  501 -0.00000000000E+00 -0.00000000000E+00 -0.22025698021E+04  0.22025698021E+04  0.50400000000E-02 0.  1.
    8880023    1    1    2    0    0  0.16300219780E+02  0.30732712495E+03 -0.20067105170E+04  0.21343413420E+04  0.65864270000E+03 0.  0.
    8880022    1    1    2    0    0 -0.16300219780E+02 -0.30732712495E+03  0.91569895952E+02  0.35565764121E+03  0.15294330000E+03 0.  0.
<mgrwt>
<rscale>  0 0.60281554E+03</rscale>
<asrwt>0</asrwt>
<pdfrwt beam="1">  1        1 0.44219875E-01 0.72699784E+03</pdfrwt>
<pdfrwt beam="2">  1       -1 0.33885688E+00 0.72699784E+03</pdfrwt>
<totfact> 0.18107753E+00</totfact>
</mgrwt>
</event>
<event>
 4    1  0.1043382E-007  0.7148649E+03  0.7818608E-02  0.9940361E-01
         -1   -1    0    0    0  501 -0.00000000000E+00  0.00000000000E+00  0.34756050892E+03  0.34756050896E+03  0.50400000000E-02 0.  1.
          1   -1    0    0  501    0  0.00000000000E+00 -0.00000000000E+00 -0.99895683416E+03  0.99895683417E+03  0.50400000000E-02 0. -1.
    8880023    1    1    2    0    0 -0.18302981272E+03  0.20909733631E+03 -0.11600305881E+03  0.72421579955E+03  0.65864270000E+03 0.  1.
    8880022    1    1    2    0    0  0.18302981272E+03 -0.20909733631E+03 -0.53539326643E+03  0.62230154359E+03  0.15294330000E+03 0.  0.
<mgrwt>
<rscale>  0 0.58344494E+03</rscale>
<asrwt>0</asrwt>
<pdfrwt beam="1">  1        1 0.15368567E+00 0.71486489E+03</pdfrwt>
<pdfrwt beam="2">  1       -1 0.53470848E-01 0.71486489E+03</pdfrwt>
<totfact> 0.54938693E+01</totfact>
</mgrwt>
</event>
<event>
 4    1  0.1043382E-007  0.6636571E+03  0.7818608E-02  0.1020688E+00
          1   -1    0    0  501    0  0.00000000000E+00  0.00000000000E+00  0.12456816719E+04  0.12456816719E+04  0.50400000000E-02 0. -1.
         -1   -1    0    0    0  501 -0.00000000000E+00 -0.00000000000E+00 -0.19236302919E+03  0.19236302926E+03  0.50400000000E-02 0.  1.
    8880023    1    1    2    0    0  0.34542455025E+02  0.73738888843E+02  0.42927009832E+03  0.79038827705E+03  0.65864270000E+03 0.  1.
    8880022    1    1    2    0    0 -0.34542455025E+02 -0.73738888843E+02  0.62404854441E+03  0.64765642413E+03  0.15294330000E+03 0.  0.
<mgrwt>
<rscale>  0 0.47439298E+03</rscale>
<asrwt>0</asrwt>
<pdfrwt beam="1">  1        1 0.19164333E+00 0.66365715E+03</pdfrwt>
<pdfrwt beam="2">  1       -1 0.29594312E-01 0.66365715E+03</pdfrwt>
<totfact> 0.10632452E+02</totfact>
</mgrwt>
</event>
<event>
 4    1  0.1043382E-007  0.6591579E+03  0.7818608E-02  0.1025036E+00
         -1   -1    0    0    0  501 -0.00000000000E+00  0.00000000000E+00  0.93389646631E+03  0.93389646633E+03  0.50400000000E-02 0.  1.
          1   -1    0    0  501    0  0.00000000000E+00 -0.00000000000E+00 -0.38328247465E+03  0.38328247469E+03  0.50400000000E-02 0. -1.
    8880023    1    1    2    0    0  0.17676492579E+02  0.19144887580E+02  0.79188764787E+03  0.10303277334E+04  0.65864270000E+03 0.  1.
    8880022    1    1    2    0    0 -0.17676492579E+02 -0.19144887580E+02 -0.24127365621E+03  0.28685120761E+03  0.15294330000E+03 0.  0.
<mgrwt>
<rscale>  0 0.45912196E+03</rscale>
<asrwt>0</asrwt>
<pdfrwt beam="1">  1        1 0.58966535E-01 0.65915794E+03</pdfrwt>
<pdfrwt beam="2">  1       -1 0.14367638E+00 0.65915794E+03</pdfrwt>
<totfact> 0.25708266E+01</totfact>
</mgrwt>
</event>
<event>
 4    1  0.1043382E-007  0.8038638E+03  0.7818608E-02  0.9702503E-01
          1   -1    0    0  501    0  0.00000000000E+00  0.00000000000E+00  0.62492976238E+03  0.62492976240E+03  0.50400000000E-02 0. -1.
         -1   -1    0    0    0  501 -0.00000000000E+00 -0.00000000000E+00 -0.11358008958E+04  0.11358008959E+04  0.50400000000E-02 0.  1.
    8880023    1    1    2    0    0 -0.76651302770E+02  0.45443523114E+03 -0.84887913015E+03  0.11690991341E+04  0.65864270000E+03 0.  1.
    8880022    1    1    2    0    0  0.76651302770E+02 -0.45443523114E+03  0.33800799669E+03  0.59163152414E+03  0.15294330000E+03 0. -1.
<mgrwt>
<rscale>  0 0.70867950E+03</rscale>
<asrwt>0</asrwt>
<pdfrwt beam="1">  1        1 0.96143041E-01 0.80386380E+03</pdfrwt>
<pdfrwt beam="2">  1       -1 0.17473860E+00 0.80386380E+03</pdfrwt>
<totfact> 0.75187462E+00</totfact>
</mgrwt>
</event>
<event>
 4    1  0.1043382E-007  0.8622669E+03  0.7818608E-02  0.9589544E-01
          1   -1    0    0  501    0  0.00000000000E+00  0.00000000000E+00  0.15050970431E+04  0.15050970431E+04  0.50400000000E-02 0. -1.
         -1   -1    0    0    0  501 -0.00000000000E+00 -0.00000000000E+00 -0.46008737793E+03  0.46008737796E+03  0.50400000000E-02 0.  1.
    8880023    1    1    2    0    0  0.13661938228E+03  0.53947114807E+03  0.11395700527E+03  0.86976455465E+03  0.65864270000E+03 0.  0.
    8880022    1    1    2    0    0 -0.13661938228E+03 -0.53947114807E+03  0.93105265992E+03  0.10954198664E+04  0.15294330000E+03 0.  0.
<mgrwt>
<rscale>  0 0.77992128E+03</rscale>
<asrwt>0</asrwt>
<pdfrwt beam="1">  1        1 0.23155339E+00 0.86226689E+03</pdfrwt>
<pdfrwt beam="2">  1       -1 0.70782674E-01 0.86226689E+03</pdfrwt>
<totfact> 0.13367921E+01</totfact>
</mgrwt>
</event>
<event>
 4    1  0.1043382E-007  0.6625742E+03  0.7818608E-02  0.1021662E+00
         -1   -1    0    0    0  501 -0.00000000000E+00  0.00000000000E+00  0.72543522271E+02  0.72543522446E+02  0.50400000000E-02 0.  1.
          1   -1    0    0  501    0  0.00000000000E+00 -0.00000000000E+00 -0.28093445546E+04  0.28093445546E+04  0.50400000000E-02 0. -1.
    8880023    1    1    2    0    0 -0.16173983303E+02  0.70233306967E+02 -0.15875566901E+04  0.17202734566E+04  0.65864270000E+03 0.  1.
    8880022    1    1    2    0    0  0.16173983303E+02 -0.70233306967E+02 -0.11492443422E+04  0.11616146204E+04  0.15294330000E+03 0.  0.
<mgrwt>
<rscale>  0 0.47091767E+03</rscale>
<asrwt>0</asrwt>
<pdfrwt beam="1">  1        1 0.43220677E+00 0.66257416E+03</pdfrwt>
<pdfrwt beam="2">  1       -1 0.11160544E-01 0.66257416E+03</pdfrwt>
<totfact> 0.46282287E+01</totfact>
</mgrwt>
</event>
<event>
 4    1  0.1043382E-007  0.6819954E+03  0.7818608E-02  0.1008217E+00
          1   -1    0    0  501    0  0.00000000000E+00  0.00000000000E+00  0.22139210154E+04  0.22139210154E+04  0.50400000000E-02 0. -1.
         -1   -1    0    0    0  501 -0.00000000000E+00 -0.00000000000E+00 -0.94776880729E+02  0.94776880863E+02  0.50400000000E-02 0.  1.
    8880023    1    1    2    0    0 -0.12968949668E+03  0.12036682240E+03  0.15533942589E+04  0.16965115583E+04  0.65864270000E+03 0.  0.
    8880022    1    1    2    0    0  0.12968949668E+03 -0.12036682240E+03  0.56574987569E+03  0.61218633792E+03  0.15294330000E+03 0. -1.
<mgrwt>
<rscale>  0 0.52189568E+03</rscale>
<asrwt>0</asrwt>
<pdfrwt beam="1">  1        1 0.34060321E+00 0.68199541E+03</pdfrwt>
<pdfrwt beam="2">  1       -1 0.14581059E-01 0.68199541E+03</pdfrwt>
<totfact> 0.76627021E+01</totfact>
</mgrwt>
</event>
<event>
 4    1  0.1043382E-007  0.7479566E+03  0.7818608E-02  0.9837348E-01
          1   -1    0    0  501    0  0.00000000000E+00  0.00000000000E+00  0.25222274974E+04  0.25222274974E+04  0.50400000000E-02 0. -1.
         -1   -1    0    0    0  501 -0.00000000000E+00 -0.00000000000E+00 -0.59023181475E+03  0.59023181477E+03  0.50400000000E-02 0.  1.
    8880023    1    1    2    0    0 -0.34512592056E+03 -0.80727894735E+02 -0.33017264547E+03  0.81758979697E+03  0.65864270000E+03 0.  1.
    8880022    1    1    2    0    0  0.34512592056E+03  0.80727894735E+02  0.22621683281E+04  0.22948695152E+04  0.15294330000E+03 0.  0.
<mgrwt>
<rscale>  0 0.63396178E+03</rscale>
<asrwt>0</asrwt>
<pdfrwt beam="1">  1        1 0.38803500E+00 0.74795662E+03</pdfrwt>
<pdfrwt beam="2">  1       -1 0.90804895E-01 0.74795662E+03</pdfrwt>
<totfact> 0.16505785E+00</totfact>
</mgrwt>
</event>
<event>
 4    1  0.1043382E-007  0.9460655E+03  0.7818608E-02  0.9455798E-01
         -1   -1    0    0    0  501 -0.00000000000E+00  0.00000000000E+00  0.85397281992E+03  0.85397281993E+03  0.50400000000E-02 0.  1.
          1   -1    0    0  501    0  0.00000000000E+00 -0.00000000000E+00 -0.11504422774E+04  0.11504422774E+04  0.50400000000E-02 0. -1.
    8880023    1    1    2    0    0 -0.20125445678E+03 -0.64863416300E+03  0.39316458515E+03  0.10245087755E+04  0.65864270000E+03 0.  1.
    8880022    1    1    2    0    0  0.20125445678E+03  0.64863416300E+03 -0.68963404260E+03  0.97990632181E+03  0.15294330000E+03 0.  0.
<mgrwt>
<rscale>  0 0.87622613E+03</rscale>
<asrwt>0</asrwt>
<pdfrwt beam="1">  1        1 0.17699112E+00 0.94606545E+03</pdfrwt>
<pdfrwt beam="2">  1       -1 0.13138043E+00 0.94606545E+03</pdfrwt>
<totfact> 0.57932204E+00</totfact>
</mgrwt>
</event>
<event>
 4    1  0.1043382E-007  0.9670592E+03  0.7818608E-02  0.9425983E-01
         -1   -1    0    0    0  501 -0.00000000000E+00  0.00000000000E+00  0.12487339806E+04  0.12487339806E+04  0.50400000000E-02 0.  1.
          1   -1    0    0  501    0  0.00000000000E+00 -0.00000000000E+00 -0.94555418049E+03  0.94555418050E+03  0.50400000000E-02 0. -1.
    8880023    1    1    2    0    0 -0.54735037383E+03  0.44922255783E+03  0.84931629324E+03  0.12870670963E+04  0.65864270000E+03 0.  1.
    8880022    1    1    2    0    0  0.54735037383E+03 -0.44922255783E+03 -0.54613649315E+03  0.90722106477E+03  0.15294330000E+03 0.  0.
<mgrwt>
<rscale>  0 0.89967879E+03</rscale>
<asrwt>0</asrwt>
<pdfrwt beam="1">  1        1 0.14546987E+00 0.96705922E+03</pdfrwt>
<pdfrwt beam="2">  1       -1 0.19211292E+00 0.96705922E+03</pdfrwt>
<totfact> 0.28764739E+00</totfact>
</mgrwt>
</event>
<event>
 4    1  0.1043382E-007  0.6708082E+03  0.7818608E-02  0.1015090E+00
          1   -1    0    0  501    0  0.00000000000E+00  0.00000000000E+00  0.98960750943E+03  0.98960750945E+03  0.50400000000E-02 0. -1.
         -1   -1    0    0    0  501 -0.00000000000E+00 -0.00000000000E+00 -0.21220535501E+03  0.21220535507E+03  0.50400000000E-02 0.  1.
    8880023    1    1    2    0    0  0.12412824935E+03  0.27669884977E+02  0.74111993101E+03  0.99962112984E+03  0.65864270000E+03 0. -1.
    8880022    1    1    2    0    0 -0.12412824935E+03 -0.27669884977E+02  0.36282223418E+02  0.20219173468E+03  0.15294330000E+03 0.  0.
<mgrwt>
<rscale>  0 0.49500867E+03</rscale>
<asrwt>0</asrwt>
<pdfrwt beam="1">  1        1 0.15224731E+00 0.67080821E+03</pdfrwt>
<pdfrwt beam="2">  1       -1 0.32646977E-01 0.67080821E+03</pdfrwt>
<totfact> 0.13855249E+02</totfact>
</mgrwt>
</event>
<event>
 4    1  0.1043382E-007  0.6876497E+03  0.7818608E-02  0.1005290E+00
         -1   -1    0    0    0  501 -0.00000000000E+00  0.00000000000E+00  0.86476928376E+03  0.86476928377E+03  0.50400000000E-02 0.  1.
          1   -1    0    0  501    0  0.00000000000E+00 -0.00000000000E+00 -0.64122766116E+03  0.64122766118E+03  0.50400000000E-02 0. -1.
    8880023    1    1    2    0    0 -0.19343687464E+03 -0.40422915888E+02  0.69168142230E+03  0.97533852216E+03  0.65864270000E+03 0.  1.
    8880022    1    1    2    0    0  0.19343687464E+03  0.40422915888E+02 -0.46813979970E+03  0.53065842279E+03  0.15294330000E+03 0.  0.
<mgrwt>
<rscale>  0 0.53390172E+03</rscale>
<asrwt>0</asrwt>
<pdfrwt beam="1">  1        1 0.98650410E-01 0.68764965E+03</pdfrwt>
<pdfrwt beam="2">  1       -1 0.13304143E+00 0.68764965E+03</pdfrwt>
<totfact> 0.15394778E+01</totfact>
</mgrwt>
</event>
<event>
 4    1  0.1043382E-007  0.8158766E+03  0.7818608E-02  0.9677464E-01
          1   -1    0    0  501    0  0.00000000000E+00  0.00000000000E+00  0.93887585156E+03  0.93887585157E+03  0.50400000000E-02 0. -1.
         -1   -1    0    0    0  501 -0.00000000000E+00 -0.00000000000E+00 -0.61024158016E+03  0.61024158019E+03  0.50400000000E-02 0.  1.
    8880023    1    1    2    0    0  0.47777451586E+03  0.59799417683E+02 -0.17644257119E+03  0.83473747103E+03  0.65864270000E+03 0.  0.
    8880022    1    1    2    0    0 -0.47777451586E+03 -0.59799417683E+02  0.50507684258E+03  0.71437996073E+03  0.15294330000E+03 0.  0.
<mgrwt>
<rscale>  0 0.72374593E+03</rscale>
<asrwt>0</asrwt>
<pdfrwt beam="1">  1        1 0.14444244E+00 0.81587662E+03</pdfrwt>
<pdfrwt beam="2">  1       -1 0.93883320E-01 0.81587662E+03</pdfrwt>
<totfact> 0.18995398E+01</totfact>
</mgrwt>
</event>
<event>
 4    1  0.1043382E-007  0.1010797E+04  0.7818608E-02  0.9367566E-01
          1   -1    0    0  501    0  0.00000000000E+00  0.00000000000E+00  0.10414704122E+04  0.10414704123E+04  0.50400000000E-02 0. -1.
         -1   -1    0    0    0  501 -0.00000000000E+00 -0.00000000000E+00 -0.11484796230E+04  0.11484796230E+04  0.50400000000E-02 0.  1.
    8880023    1    1    2    0    0 -0.55794778383E+02 -0.76471437161E+03 -0.68206288403E+03  0.12193937475E+04  0.65864270000E+03 0.  1.
    8880022    1    1    2    0    0  0.55794778383E+02  0.76471437161E+03  0.57505367330E+03  0.97055628772E+03  0.15294330000E+03 0.  0.
<mgrwt>
<rscale>  0 0.94793648E+03</rscale>
<asrwt>0</asrwt>
<pdfrwt beam="1">  1        1 0.16022622E+00 0.10107974E+04</pdfrwt>
<pdfrwt beam="2">  1       -1 0.17668917E+00 0.10107974E+04</pdfrwt>
<totfact> 0.30955906E+00</totfact>
</mgrwt>
</event>
<event>
 4    1  0.1043382E-007  0.9847361E+03  0.7818608E-02  0.9401806E-01
          1   -1    0    0  501    0  0.00000000000E+00  0.00000000000E+00  0.10535751595E+04  0.10535751595E+04  0.50400000000E-02 0. -1.
         -1   -1    0    0    0  501 -0.00000000000E+00 -0.00000000000E+00 -0.88491613389E+03  0.88491613391E+03  0.50400000000E-02 0.  1.
    8880023    1    1    2    0    0 -0.71415630092E+03  0.16085965284E+03 -0.33122842860E+03  0.10389502049E+04  0.65864270000E+03 0.  0.
    8880022    1    1    2    0    0  0.71415630092E+03 -0.16085965284E+03  0.49988745421E+03  0.89954108853E+03  0.15294330000E+03 0.  0.
<mgrwt>
<rscale>  0 0.91927239E+03</rscale>
<asrwt>0</asrwt>
<pdfrwt beam="1">  1        1 0.16208849E+00 0.98473614E+03</pdfrwt>
<pdfrwt beam="2">  1       -1 0.13614094E+00 0.98473614E+03</pdfrwt>
<totfact> 0.62262525E+00</totfact>
</mgrwt>
</event>
<event>
 4    1  0.1043382E-007  0.1156139E+04  0.7818608E-02  0.9200984E-01
         -1   -1    0    0    0  501 -0.00000000000E+00  0.00000000000E+00  0.16690306550E+04  0.16690306550E+04  0.50400000000E-02 0.  1.
          1   -1    0    0  501    0  0.00000000000E+00 -0.00000000000E+00 -0.11184186776E+04  0.11184186776E+04  0.50400000000E-02 0. -1.
    8880023    1    1    2    0    0 -0.47818642055E+03  0.82108826686E+03  0.11684747261E+04  0.16437735813E+04  0.65864270000E+03 0.  0.
    8880022    1    1    2    0    0  0.47818642055E+03 -0.82108826686E+03 -0.61786274870E+03  0.11436757513E+04  0.15294330000E+03 0.  0.
<mgrwt>
<rscale>  0 0.11043280E+04</rscale>
<asrwt>0</asrwt>
<pdfrwt beam="1">  1        1 0.17206441E+00 0.11561394E+04</pdfrwt>
<pdfrwt beam="2">  1       -1 0.25677395E+00 0.11561394E+04</pdfrwt>
<totfact> 0.76367450E-01</totfact>
</mgrwt>
</event>
<event>
 4    1  0.1043382E-007  0.7334959E+03  0.7818608E-02  0.9879315E-01
         -1   -1    0    0    0  501 -0.00000000000E+00  0.00000000000E+00  0.31720546514E+03  0.31720546518E+03  0.50400000000E-02 0.  1.
          1   -1    0    0  501    0  0.00000000000E+00 -0.00000000000E+00 -0.23135367273E+04  0.23135367273E+04  0.50400000000E-02 0. -1.
    8880023    1    1    2    0    0  0.14798700848E+03 -0.28689009767E+03 -0.14808658327E+03  0.74829534625E+03  0.65864270000E+03 0.  1.
    8880022    1    1    2    0    0 -0.14798700848E+03  0.28689009767E+03 -0.18482446789E+04  0.18824468462E+04  0.15294330000E+03 0.  0.
<mgrwt>
<rscale>  0 0.61274342E+03</rscale>
<asrwt>0</asrwt>
<pdfrwt beam="1">  1        1 0.35592872E+00 0.73349594E+03</pdfrwt>
<pdfrwt beam="2">  1       -1 0.48800842E-01 0.73349594E+03</pdfrwt>
<totfact> 0.80805565E+00</totfact>
</mgrwt>
</event>
<event>
 4    1  0.1043382E-007  0.9075109E+03  0.7818608E-02  0.9514080E-01
         -1   -1    0    0    0  501 -0.00000000000E+00  0.00000000000E+00  0.71421143658E+03  0.71421143660E+03  0.50400000000E-02 0.  1.
          1   -1    0    0  501    0  0.00000000000E+00 -0.00000000000E+00 -0.29747904252E+04  0.29747904253E+04  0.50400000000E-02 0. -1.
    8880023    1    1    2    0    0  0.57846636758E+03  0.23482446546E+03  0.37073573259E+03  0.98031681496E+03  0.65864270000E+03 0.  1.
    8880022    1    1    2    0    0 -0.57846636758E+03 -0.23482446546E+03 -0.26313147213E+04  0.27086850469E+04  0.15294330000E+03 0.  0.
<mgrwt>
<rscale>  0 0.83253664E+03</rscale>
<asrwt>0</asrwt>
<pdfrwt beam="1">  1        1 0.45766006E+00 0.90751092E+03</pdfrwt>
<pdfrwt beam="2">  1       -1 0.10987868E+00 0.90751092E+03</pdfrwt>
<totfact> 0.49873240E-01</totfact>
</mgrwt>
</event>
<event>
 4    1  0.1043382E-007  0.9928353E+03  0.7818608E-02  0.9390992E-01
         -1   -1    0    0    0  501 -0.00000000000E+00  0.00000000000E+00  0.10531114588E+04  0.10531114588E+04  0.50400000000E-02 0.  1.
          1   -1    0    0  501    0  0.00000000000E+00 -0.00000000000E+00 -0.11499194218E+04  0.11499194218E+04  0.50400000000E-02 0. -1.
    8880023    1    1    2    0    0  0.62770047220E+03  0.39737126687E+03  0.61083769843E+03  0.11656949458E+04  0.65864270000E+03 0.  0.
    8880022    1    1    2    0    0 -0.62770047220E+03 -0.39737126687E+03 -0.70764566140E+03  0.10373359348E+04  0.15294330000E+03 0.  0.
<mgrwt>
<rscale>  0 0.92820744E+03</rscale>
<asrwt>0</asrwt>
<pdfrwt beam="1">  1        1 0.17691068E+00 0.99283534E+03</pdfrwt>
<pdfrwt beam="2">  1       -1 0.16201715E+00 0.99283534E+03</pdfrwt>
<totfact> 0.32966489E+00</totfact>
</mgrwt>
</event>
<event>
 4    1  0.1043382E-007  0.1115267E+04  0.7818608E-02  0.9244246E-01
          1   -1    0    0  501    0  0.00000000000E+00  0.00000000000E+00  0.17659759893E+04  0.17659759893E+04  0.50400000000E-02 0. -1.
         -1   -1    0    0    0  501 -0.00000000000E+00 -0.00000000000E+00 -0.68419989929E+03  0.68419989931E+03  0.50400000000E-02 0.  1.
    8880023    1    1    2    0    0 -0.54893688065E+03  0.71321636278E+03  0.11610141591E+03  0.11212934603E+04  0.65864270000E+03 0.  0.
    8880022    1    1    2    0    0  0.54893688065E+03 -0.71321636278E+03  0.96567467414E+03  0.13288824283E+04  0.15294330000E+03 0.  0.
<mgrwt>
<rscale>  0 0.10608177E+04</rscale>
<asrwt>0</asrwt>
<pdfrwt beam="1">  1        1 0.27168861E+00 0.11152666E+04</pdfrwt>
<pdfrwt beam="2">  1       -1 0.10526152E+00 0.11152666E+04</pdfrwt>
<totfact> 0.36153840E+00</totfact>
</mgrwt>
</event>
<event>
 4    1  0.1043382E-007  0.7770027E+03  0.7818608E-02  0.9762925E-01
          1   -1    0    0  501    0  0.00000000000E+00  0.00000000000E+00  0.28947003990E+04  0.28947003990E+04  0.50400000000E-02 0. -1.
         -1   -1    0    0    0  501 -0.00000000000E+00 -0.00000000000E+00 -0.49457261043E+03  0.49457261046E+03  0.50400000000E-02 0.  1.
    8880023    1    1    2    0    0 -0.28455541074E+03  0.29824680204E+03 -0.15861726897E+03  0.79302747808E+03  0.65864270000E+03 0.  1.
    8880022    1    1    2    0    0  0.28455541074E+03 -0.29824680204E+03  0.25587450575E+04  0.25962455314E+04  0.15294330000E+03 0.  0.
<mgrwt>
<rscale>  0 0.67390699E+03</rscale>
<asrwt>0</asrwt>
<pdfrwt beam="1">  1        1 0.44533853E+00 0.77700267E+03</pdfrwt>
<pdfrwt beam="2">  1       -1 0.76088093E-01 0.77700267E+03</pdfrwt>
<totfact> 0.13211911E+00</totfact>
</mgrwt>
</event>
<event>
 4    1  0.1043382E-007  0.7237658E+03  0.7818608E-02  0.9910044E-01
          1   -1    0    0  501    0  0.00000000000E+00  0.00000000000E+00  0.89510674941E+03  0.89510674942E+03  0.50400000000E-02 0. -1.
         -1   -1    0    0    0  501 -0.00000000000E+00 -0.00000000000E+00 -0.49063134231E+03  0.49063134234E+03  0.50400000000E-02 0.  1.
    8880023    1    1    2    0    0 -0.15955460357E+03  0.25410450516E+03 -0.14796727719E+03  0.73873628072E+03  0.65864270000E+03 0.  1.
    8880022    1    1    2    0    0  0.15955460357E+03 -0.25410450516E+03  0.55244268428E+03  0.64700181105E+03  0.15294330000E+03 0.  0.
<mgrwt>
<rscale>  0 0.59776985E+03</rscale>
<asrwt>0</asrwt>
<pdfrwt beam="1">  1        1 0.13770873E+00 0.72376583E+03</pdfrwt>
<pdfrwt beam="2">  1       -1 0.75481746E-01 0.72376583E+03</pdfrwt>
<totfact> 0.33324024E+01</totfact>
</mgrwt>
</event>
<event>
 4    1  0.1043382E-007  0.1424945E+04  0.7818608E-02  0.8964538E-01
          1   -1    0    0  501    0  0.00000000000E+00  0.00000000000E+00  0.16848058053E+04  0.16848058053E+04  0.50400000000E-02 0. -1.
         -1   -1    0    0    0  501 -0.00000000000E+00 -0.00000000000E+00 -0.16064094731E+04  0.16064094731E+04  0.50400000000E-02 0.  1.
    8880023    1    1    2    0    0 -0.12048268715E+04 -0.38085535036E+03 -0.90039007766E+03  0.16855773748E+04  0.65864270000E+03 0.  1.
    8880022    1    1    2    0    0  0.12048268715E+04  0.38085535036E+03  0.97878640989E+03  0.16056379036E+04  0.15294330000E+03 0.  0.
<mgrwt>
<rscale>  0 0.13852867E+04</rscale>
<asrwt>0</asrwt>
<pdfrwt beam="1">  1        1 0.25920089E+00 0.14249452E+04</pdfrwt>
<pdfrwt beam="2">  1       -1 0.24713992E+00 0.14249452E+04</pdfrwt>
<totfact> 0.33858210E-01</totfact>
</mgrwt>
</event>
<event>
 4    1  0.1043382E-007  0.8308234E+03  0.7818608E-02  0.9647733E-01
         -1   -1    0    0    0  501 -0.00000000000E+00  0.00000000000E+00  0.67372743230E+03  0.67372743231E+03  0.50400000000E-02 0.  1.
          1   -1    0    0  501    0  0.00000000000E+00 -0.00000000000E+00 -0.14346046201E+04  0.14346046201E+04  0.50400000000E-02 0. -1.
    8880023    1    1    2    0    0 -0.79972751294E+01 -0.50635294155E+03  0.33156854745E+03  0.89454187479E+03  0.65864270000E+03 0.  0.
    8880022    1    1    2    0    0  0.79972751294E+01  0.50635294155E+03 -0.10924457353E+04  0.12137901776E+04  0.15294330000E+03 0. -1.
<mgrwt>
<rscale>  0 0.74215903E+03</rscale>
<asrwt>0</asrwt>
<pdfrwt beam="1">  1        1 0.22070840E+00 0.83082337E+03</pdfrwt>
<pdfrwt beam="2">  1       -1 0.10365037E+00 0.83082337E+03</pdfrwt>
<totfact> 0.65473336E+00</totfact>
</mgrwt>
</event>
<event>
 4    1  0.1043382E-007  0.8610719E+03  0.7818608E-02  0.9591660E-01
          1   -1    0    0  501    0  0.00000000000E+00  0.00000000000E+00  0.36345509497E+03  0.36345509501E+03  0.50400000000E-02 0. -1.
         -1   -1    0    0    0  501 -0.00000000000E+00 -0.00000000000E+00 -0.21865523443E+04  0.21865523444E+04  0.50400000000E-02 0.  1.
    8880023    1    1    2    0    0  0.53171311819E+03  0.15784726354E+03 -0.17747780075E+04  0.19726332099E+04  0.65864270000E+03 0.  1.
    8880022    1    1    2    0    0 -0.53171311819E+03 -0.15784726354E+03 -0.48319241848E+02  0.57737422943E+03  0.15294330000E+03 0.  0.
<mgrwt>
<rscale>  0 0.77850672E+03</rscale>
<asrwt>0</asrwt>
<pdfrwt beam="1">  1        1 0.55916170E-01 0.86107189E+03</pdfrwt>
<pdfrwt beam="2">  1       -1 0.33639266E+00 0.86107189E+03</pdfrwt>
<totfact> 0.13535448E+00</totfact>
</mgrwt>
</event>
<event>
 4    1  0.1043382E-007  0.1181854E+04  0.7818608E-02  0.9174967E-01
          1   -1    0    0  501    0  0.00000000000E+00  0.00000000000E+00  0.79826679767E+03  0.79826679769E+03  0.50400000000E-02 0. -1.
         -1   -1    0    0    0  501 -0.00000000000E+00 -0.00000000000E+00 -0.16971183755E+04  0.16971183755E+04  0.50400000000E-02 0.  1.
    8880023    1    1    2    0    0 -0.68938493210E+03  0.69836675496E+03 -0.40244097887E+02  0.11825385840E+04  0.65864270000E+03 0.  0.
    8880022    1    1    2    0    0  0.68938493210E+03 -0.69836675496E+03 -0.85860747996E+03  0.13128465892E+04  0.15294330000E+03 0.  0.
<mgrwt>
<rscale>  0 0.11315589E+04</rscale>
<asrwt>0</asrwt>
<pdfrwt beam="1">  1        1 0.12281028E+00 0.11818536E+04</pdfrwt>
<pdfrwt beam="2">  1       -1 0.26109513E+00 0.11818536E+04</pdfrwt>
<totfact> 0.12918848E+00</totfact>
</mgrwt>
</event>
<event>
 4    1  0.1043382E-007  0.1007056E+04  0.7818608E-02  0.9372384E-01
          1   -1    0    0  501    0  0.00000000000E+00  0.00000000000E+00  0.81073048099E+03  0.81073048101E+03  0.50400000000E-02 0. -1.
         -1   -1    0    0    0  501 -0.00000000000E+00 -0.00000000000E+00 -0.15996848958E+04  0.15996848958E+04  0.50400000000E-02 0.  1.
    8880023    1    1    2    0    0 -0.16748207318E+02  0.76162441055E+03  0.31969995778E+03  0.10565843622E+04  0.65864270000E+03 0.  0.
    8880022    1    1    2    0    0  0.16748207318E+02 -0.76162441055E+03 -0.11086543726E+04  0.13538310146E+04  0.15294330000E+03 0.  0.
<mgrwt>
<rscale>  0 0.94383682E+03</rscale>
<asrwt>0</asrwt>
<pdfrwt beam="1">  1        1 0.12472777E+00 0.10070563E+04</pdfrwt>
<pdfrwt beam="2">  1       -1 0.24610537E+00 0.10070563E+04</pdfrwt>
<totfact> 0.16104849E+00</totfact>
</mgrwt>
</event>
<event>
 4    1  0.1043382E-007  0.8274243E+03  0.7818608E-02  0.9654365E-01
          1   -1    0    0  501    0  0.00000000000E+00  0.00000000000E+00  0.14724252204E+04  0.14724252204E+04  0.50400000000E-02 0. -1.
         -1   -1    0    0    0  501 -0.00000000000E+00 -0.00000000000E+00 -0.85615710120E+03  0.85615710122E+03  0.50400000000E-02 0.  1.
    8880023    1    1    2    0    0 -0.22014628096E+03  0.44984036386E+03 -0.58821126032E+03  0.10151962525E+04  0.65864270000E+03 0.  1.
    8880022    1    1    2    0    0  0.22014628096E+03 -0.44984036386E+03  0.12044793795E+04  0.13133860691E+04  0.15294330000E+03 0.  0.
<mgrwt>
<rscale>  0 0.73800122E+03</rscale>
<asrwt>0</asrwt>
<pdfrwt beam="1">  1        1 0.22652695E+00 0.82742428E+03</pdfrwt>
<pdfrwt beam="2">  1       -1 0.13171648E+00 0.82742428E+03</pdfrwt>
<totfact> 0.34549214E+00</totfact>
</mgrwt>
</event>
<event>
 4    1  0.1043382E-007  0.8276792E+03  0.7818608E-02  0.9653865E-01
         -1   -1    0    0    0  501 -0.00000000000E+00  0.00000000000E+00  0.51196452239E+03  0.51196452242E+03  0.50400000000E-02 0.  1.
          1   -1    0    0  501    0  0.00000000000E+00 -0.00000000000E+00 -0.13014215072E+04  0.13014215072E+04  0.50400000000E-02 0. -1.
    8880023    1    1    2    0    0 -0.45055190755E+03  0.21964878810E+03  0.44017243543E+02  0.82884880136E+03  0.65864270000E+03 0.  0.
    8880022    1    1    2    0    0  0.45055190755E+03 -0.21964878810E+03 -0.83347422834E+03  0.98453722827E+03  0.15294330000E+03 0.  0.
<mgrwt>
<rscale>  0 0.73831359E+03</rscale>
<asrwt>0</asrwt>
<pdfrwt beam="1">  1        1 0.20021869E+00 0.82767918E+03</pdfrwt>
<pdfrwt beam="2">  1       -1 0.78763773E-01 0.82767918E+03</pdfrwt>
<totfact> 0.14894341E+01</totfact>
</mgrwt>
</event>
<event>
 4    1  0.1043382E-007  0.7264768E+03  0.7818608E-02  0.9901250E-01
         -1   -1    0    0    0  501 -0.00000000000E+00  0.00000000000E+00  0.51042781431E+03  0.51042781434E+03  0.50400000000E-02 0.  1.
          1   -1    0    0  501    0  0.00000000000E+00 -0.00000000000E+00 -0.59800487549E+03  0.59800487551E+03  0.50400000000E-02 0. -1.
    8880023    1    1    2    0    0 -0.18579496658E+03  0.24380032558E+03  0.72934186473E+02  0.73012873535E+03  0.65864270000E+03 0.  1.
    8880022    1    1    2    0    0  0.18579496658E+03 -0.24380032558E+03 -0.16051124765E+03  0.37830395451E+03  0.15294330000E+03 0.  0.
<mgrwt>
<rscale>  0 0.60200725E+03</rscale>
<asrwt>0</asrwt>
<pdfrwt beam="1">  1        1 0.92000750E-01 0.72647682E+03</pdfrwt>
<pdfrwt beam="2">  1       -1 0.78527356E-01 0.72647682E+03</pdfrwt>
<totfact> 0.57141853E+01</totfact>
</mgrwt>
</event>
<event>
 4    1  0.1043382E-007  0.6634014E+03  0.7818608E-02  0.1020914E+00
          1   -1    0    0  501    0  0.00000000000E+00  0.00000000000E+00  0.44751422781E+03  0.44751422784E+03  0.50400000000E-02 0. -1.
         -1   -1    0    0    0  501 -0.00000000000E+00 -0.00000000000E+00 -0.57134782269E+03  0.57134782272E+03  0.50400000000E-02 0.  1.
    8880023    1    1    2    0    0  0.58065348604E+02 -0.54033554134E+02 -0.33755742038E+03  0.74434295053E+03  0.65864270000E+03 0.  0.
    8880022    1    1    2    0    0 -0.58065348604E+02  0.54033554134E+02  0.21372382549E+03  0.27451910003E+03  0.15294330000E+03 0.  0.
<mgrwt>
<rscale>  0 0.47358235E+03</rscale>
<asrwt>0</asrwt>
<pdfrwt beam="1">  1        1 0.68848342E-01 0.66340140E+03</pdfrwt>
<pdfrwt beam="2">  1       -1 0.87899665E-01 0.66340140E+03</pdfrwt>
<totfact> 0.67397839E+01</totfact>
</mgrwt>
</event>
<event>
 4    1  0.1043382E-007  0.7943075E+03  0.7818608E-02  0.9723242E-01
         -1   -1    0    0    0  501 -0.00000000000E+00  0.00000000000E+00  0.37507324157E+03  0.37507324160E+03  0.50400000000E-02 0.  1.
          1   -1    0    0  501    0  0.00000000000E+00 -0.00000000000E+00 -0.19132786646E+04  0.19132786646E+04  0.50400000000E-02 0. -1.
    8880023    1    1    2    0    0  0.36208746802E+03 -0.25691808158E+03 -0.13121942090E+03  0.80507327482E+03  0.65864270000E+03 0.  1.
    8880022    1    1    2    0    0 -0.36208746802E+03  0.25691808158E+03 -0.14069860021E+04  0.14832786314E+04  0.15294330000E+03 0.  0.
<mgrwt>
<rscale>  0 0.69649665E+03</rscale>
<asrwt>0</asrwt>
<pdfrwt beam="1">  1        1 0.29435056E+00 0.79430752E+03</pdfrwt>
<pdfrwt beam="2">  1       -1 0.57703577E-01 0.79430752E+03</pdfrwt>
<totfact> 0.10767048E+01</totfact>
</mgrwt>
</event>
<event>
 4    1  0.1043382E-007  0.8916121E+03  0.7818608E-02  0.9539633E-01
          1   -1    0    0  501    0  0.00000000000E+00  0.00000000000E+00  0.32806416369E+04  0.32806416369E+04  0.50400000000E-02 0. -1.
         -1   -1    0    0    0  501 -0.00000000000E+00 -0.00000000000E+00 -0.22319695336E+03  0.22319695341E+03  0.50400000000E-02 0.  1.
    8880023    1    1    2    0    0  0.51310063489E+03 -0.31287312463E+03  0.93211641867E+03  0.12898887851E+04  0.65864270000E+03 0.  1.
    8880022    1    1    2    0    0 -0.51310063489E+03  0.31287312463E+03  0.21253282648E+04  0.22139498052E+04  0.15294330000E+03 0.  0.
<mgrwt>
<rscale>  0 0.81423834E+03</rscale>
<asrwt>0</asrwt>
<pdfrwt beam="1">  1        1 0.50471407E+00 0.89161206E+03</pdfrwt>
<pdfrwt beam="2">  1       -1 0.34337995E-01 0.89161206E+03</pdfrwt>
<totfact> 0.31148434E+00</totfact>
</mgrwt>
</event>
<event>
 4    1  0.1043382E-007  0.7467670E+03  0.7818608E-02  0.9840656E-01
          1   -1    0    0  501    0  0.00000000000E+00  0.00000000000E+00  0.12527020504E+04  0.12527020505E+04  0.50400000000E-02 0. -1.
         -1   -1    0    0    0  501 -0.00000000000E+00 -0.00000000000E+00 -0.89283522458E+03  0.89283522459E+03  0.50400000000E-02 0.  1.
    8880023    1    1    2    0    0  0.21040413195E+03 -0.28210073794E+03 -0.69679203853E+03  0.10213618733E+04  0.65864270000E+03 0.  1.
    8880022    1    1    2    0    0 -0.21040413195E+03  0.28210073794E+03  0.10566588644E+04  0.11241754017E+04  0.15294330000E+03 0.  0.
<mgrwt>
<rscale>  0 0.63225596E+03</rscale>
<asrwt>0</asrwt>
<pdfrwt beam="1">  1        1 0.19272339E+00 0.74676699E+03</pdfrwt>
<pdfrwt beam="2">  1       -1 0.13735926E+00 0.74676699E+03</pdfrwt>
<totfact> 0.44816544E+00</totfact>
</mgrwt>
</event>
<event>
 4    1  0.1099808E-007  0.9002808E+03  0.7818608E-02  0.9525581E-01
         -1   -1    0    0    0  501 -0.00000000000E+00  0.00000000000E+00  0.10867533453E+04  0.10867533453E+04  0.50400000000E-02 0.  1.
          1   -1    0    0  501    0  0.00000000000E+00 -0.00000000000E+00 -0.24076831117E+04  0.24076831117E+04  0.50400000000E-02 0. -1.
    8880023    1    1    2    0    0 -0.25183079731E+03 -0.55971112850E+03  0.84701743759E+03  0.12361003372E+04  0.65864270000E+03 0.  0.
    8880022    1    1    2    0    0  0.25183079731E+03  0.55971112850E+03 -0.21679472040E+04  0.22583361198E+04  0.15294330000E+03 0.  0.
<mgrwt>
<rscale>  0 0.82423829E+03</rscale>
<asrwt>0</asrwt>
<pdfrwt beam="1">  1        1 0.37041278E+00 0.90028079E+03</pdfrwt>
<pdfrwt beam="2">  1       -1 0.16719282E+00 0.90028079E+03</pdfrwt>
<totfact> 0.41985768E-01</totfact>
</mgrwt>
</event>
<event>
 4    1  0.1043382E-007  0.9303655E+03  0.7818608E-02  0.9478945E-01
          1   -1    0    0  501    0  0.00000000000E+00  0.00000000000E+00  0.16207878852E+04  0.16207878852E+04  0.50400000000E-02 0. -1.
         -1   -1    0    0    0  501 -0.00000000000E+00 -0.00000000000E+00 -0.64908362468E+03  0.64908362470E+03  0.50400000000E-02 0.  1.
    8880023    1    1    2    0    0  0.46365973367E+03  0.46560642707E+03 -0.16803846075E+03  0.94541886173E+03  0.65864270000E+03 0.  1.
    8880022    1    1    2    0    0 -0.46365973367E+03 -0.46560642707E+03  0.11397427212E+04  0.13244526481E+04  0.15294330000E+03 0.  0.
<mgrwt>
<rscale>  0 0.85854064E+03</rscale>
<asrwt>0</asrwt>
<pdfrwt beam="1">  1        1 0.24935198E+00 0.93036547E+03</pdfrwt>
<pdfrwt beam="2">  1       -1 0.99859021E-01 0.93036547E+03</pdfrwt>
<totfact> 0.52445865E+00</totfact>
</mgrwt>
</event>
<event>
 4    1  0.1043382E-007  0.7135169E+03  0.7818608E-02  0.9945166E-01
          1   -1    0    0  501    0  0.00000000000E+00  0.00000000000E+00  0.97673148489E+03  0.97673148490E+03  0.50400000000E-02 0. -1.
         -1   -1    0    0    0  501 -0.00000000000E+00 -0.00000000000E+00 -0.74629615927E+03  0.74629615929E+03  0.50400000000E-02 0.  1.
    8880023    1    1    2    0    0 -0.26723421700E+03 -0.62305589298E+02 -0.53750387629E+03  0.89331782501E+03  0.65864270000E+03 0.  1.
    8880022    1    1    2    0    0  0.26723421700E+03  0.62305589298E+02  0.76793920191E+03  0.82970981918E+03  0.15294330000E+03 0.  0.
<mgrwt>
<rscale>  0 0.58121404E+03</rscale>
<asrwt>0</asrwt>
<pdfrwt beam="1">  1        1 0.15026638E+00 0.71351687E+03</pdfrwt>
<pdfrwt beam="2">  1       -1 0.11481479E+00 0.71351687E+03</pdfrwt>
<totfact> 0.11277504E+01</totfact>
</mgrwt>
</event>
<event>
 4    1  0.1043382E-007  0.7831762E+03  0.7818608E-02  0.9748428E-01
         -1   -1    0    0    0  501 -0.00000000000E+00  0.00000000000E+00  0.20406325900E+04  0.20406325900E+04  0.50400000000E-02 0.  1.
          1   -1    0    0  501    0  0.00000000000E+00 -0.00000000000E+00 -0.43182374795E+03  0.43182374798E+03  0.50400000000E-02 0. -1.
    8880023    1    1    2    0    0  0.16582237019E+03  0.38994584213E+03  0.18151898458E+04  0.19769368227E+04  0.65864270000E+03 0.  1.
    8880022    1    1    2    0    0 -0.16582237019E+03 -0.38994584213E+03 -0.20638100382E+03  0.49551951526E+03  0.15294330000E+03 0.  0.
<mgrwt>
<rscale>  0 0.68205173E+03</rscale>
<asrwt>0</asrwt>
<pdfrwt beam="1">  1        1 0.66434422E-01 0.78317624E+03</pdfrwt>
<pdfrwt beam="2">  1       -1 0.31394348E+00 0.78317624E+03</pdfrwt>
<totfact> 0.15225565E+00</totfact>
</mgrwt>
</event>
<event>
 4    1  0.1043382E-007  0.6686217E+03  0.7818608E-02  0.1016671E+00
          1   -1    0    0  501    0  0.00000000000E+00  0.00000000000E+00  0.20315431927E+03  0.20315431933E+03  0.50400000000E-02 0. -1.
         -1   -1    0    0    0  501 -0.00000000000E+00 -0.00000000000E+00 -0.20706265658E+04  0.20706265658E+04  0.50400000000E-02 0.  1.
    8880023    1    1    2    0    0  0.99727968240E+02  0.57438275981E+02 -0.19528905966E+04  0.20641794282E+04  0.65864270000E+03 0.  1.
    8880022    1    1    2    0    0 -0.99727968240E+02 -0.57438275981E+02  0.85418350098E+02  0.20960145693E+03  0.15294330000E+03 0.  0.
<mgrwt>
<rscale>  0 0.48907401E+03</rscale>
<asrwt>0</asrwt>
<pdfrwt beam="1">  1        1 0.31254512E-01 0.66862174E+03</pdfrwt>
<pdfrwt beam="2">  1       -1 0.31855792E+00 0.66862174E+03</pdfrwt>
<totfact> 0.38729114E+00</totfact>
</mgrwt>
</event>
<event>
 4    1  0.1043382E-007  0.8769699E+03  0.7818608E-02  0.9564062E-01
         -1   -1    0    0    0  501 -0.00000000000E+00  0.00000000000E+00  0.55724662387E+03  0.55724662390E+03  0.50400000000E-02 0.  1.
          1   -1    0    0  501    0  0.00000000000E+00 -0.00000000000E+00 -0.15859920149E+04  0.15859920149E+04  0.50400000000E-02 0. -1.
    8880023    1    1    2    0    0  0.57871603567E+03 -0.18806835263E+02  0.82549481059E+02  0.88084650768E+03  0.65864270000E+03 0.  1.
    8880022    1    1    2    0    0 -0.57871603567E+03  0.18806835263E+02 -0.11112948721E+04  0.12623921311E+04  0.15294330000E+03 0.  0.
<mgrwt>
<rscale>  0 0.79721142E+03</rscale>
<asrwt>0</asrwt>
<pdfrwt beam="1">  1        1 0.24399877E+00 0.87696987E+03</pdfrwt>
<pdfrwt beam="2">  1       -1 0.85730250E-01 0.87696987E+03</pdfrwt>
<totfact> 0.78354397E+00</totfact>
</mgrwt>
</event>
<event>
 4    1  0.1043382E-007  0.7664165E+03  0.7818608E-02  0.9788770E-01
         -1   -1    0    0    0  501 -0.00000000000E+00  0.00000000000E+00  0.39491906778E+03  0.39491906782E+03  0.50400000000E-02 0.  1.
          1   -1    0    0  501    0  0.00000000000E+00 -0.00000000000E+00 -0.18795020782E+04  0.18795020782E+04  0.50400000000E-02 0. -1.
    8880023    1    1    2    0    0 -0.18319069135E+03  0.34644658237E+03 -0.37394957184E+02  0.76732825630E+03  0.65864270000E+03 0.  1.
    8880022    1    1    2    0    0  0.18319069135E+03 -0.34644658237E+03 -0.14471880532E+04  0.15070928897E+04  0.15294330000E+03 0.  0.
<mgrwt>
<rscale>  0 0.65968688E+03</rscale>
<asrwt>0</asrwt>
<pdfrwt beam="1">  1        1 0.28915416E+00 0.76641651E+03</pdfrwt>
<pdfrwt beam="2">  1       -1 0.60756781E-01 0.76641651E+03</pdfrwt>
<totfact> 0.10291071E+01</totfact>
</mgrwt>
</event>
<event>
 4    1  0.1043382E-007  0.9898431E+03  0.7818608E-02  0.9394968E-01
          1   -1    0    0  501    0  0.00000000000E+00  0.00000000000E+00  0.20342350044E+04  0.20342350044E+04  0.50400000000E-02 0. -1.
         -1   -1    0    0    0  501 -0.00000000000E+00 -0.00000000000E+00 -0.61933389995E+03  0.61933389997E+03  0.50400000000E-02 0.  1.
    8880023    1    1    2    0    0 -0.70512459058E+03  0.22085864569E+03 -0.65445484982E+02  0.99200430815E+03  0.65864270000E+03 0.  0.
    8880022    1    1    2    0    0  0.70512459058E+03 -0.22085864569E+03  0.14803465895E+04  0.16615645963E+04  0.15294330000E+03 0.  0.
<mgrwt>
<rscale>  0 0.92490939E+03</rscale>
<asrwt>0</asrwt>
<pdfrwt beam="1">  1        1 0.31295923E+00 0.98984314E+03</pdfrwt>
<pdfrwt beam="2">  1       -1 0.95282140E-01 0.98984314E+03</pdfrwt>
<totfact> 0.30437601E+00</totfact>
</mgrwt>
</event>
<event>
 4    1  0.1043382E-007  0.9593419E+03  0.7818608E-02  0.9436799E-01
         -1   -1    0    0    0  501 -0.00000000000E+00  0.00000000000E+00  0.57501228285E+03  0.57501228287E+03  0.50400000000E-02 0.  1.
          1   -1    0    0  501    0  0.00000000000E+00 -0.00000000000E+00 -0.16660373521E+04  0.16660373521E+04  0.50400000000E-02 0. -1.
    8880023    1    1    2    0    0 -0.67535000054E+03  0.17443943804E+03 -0.27129759004E+02  0.95972546640E+03  0.65864270000E+03 0.  0.
    8880022    1    1    2    0    0  0.67535000054E+03 -0.17443943804E+03 -0.10638953102E+04  0.12813241685E+04  0.15294330000E+03 0.  0.
<mgrwt>
<rscale>  0 0.89108197E+03</rscale>
<asrwt>0</asrwt>
<pdfrwt beam="1">  1        1 0.25631344E+00 0.95934193E+03</pdfrwt>
<pdfrwt beam="2">  1       -1 0.88463429E-01 0.95934193E+03</pdfrwt>
<totfact> 0.63862875E+00</totfact>
</mgrwt>
</event>
<event>
 4    1  0.1043382E-007  0.9928861E+03  0.7818608E-02  0.9390925E-01
         -1   -1    0    0    0  501 -0.00000000000E+00  0.00000000000E+00  0.45569819502E+03  0.45569819505E+03  0.50400000000E-02 0.  1.
          1   -1    0    0  501    0  0.00000000000E+00 -0.00000000000E+00 -0.25504716796E+04  0.25504716796E+04  0.50400000000E-02 0. -1.
    8880023    1    1    2    0    0  0.53523338678E+03  0.51530357121E+03 -0.26838493411E+03  0.10285199210E+04  0.65864270000E+03 0. -1.
    8880022    1    1    2    0    0 -0.53523338678E+03 -0.51530357121E+03 -0.18263885505E+04  0.19776499536E+04  0.15294330000E+03 0. -1.
<mgrwt>
<rscale>  0 0.92826333E+03</rscale>
<asrwt>0</asrwt>
<pdfrwt beam="1">  1        1 0.39238025E+00 0.99288607E+03</pdfrwt>
<pdfrwt beam="2">  1       -1 0.70107416E-01 0.99288607E+03</pdfrwt>
<totfact> 0.26233639E+00</totfact>
</mgrwt>
</event>
<event>
 4    1  0.1043382E-007  0.9147150E+03  0.7818608E-02  0.9502811E-01
         -1   -1    0    0    0  501 -0.00000000000E+00  0.00000000000E+00  0.15503360585E+04  0.15503360585E+04  0.50400000000E-02 0.  1.
          1   -1    0    0  501    0  0.00000000000E+00 -0.00000000000E+00 -0.13525546805E+04  0.13525546805E+04  0.50400000000E-02 0. -1.
    8880023    1    1    2    0    0  0.61420370041E+03 -0.16014701298E+03  0.13191711704E+04  0.16052775568E+04  0.65864270000E+03 0.  1.
    8880022    1    1    2    0    0 -0.61420370041E+03  0.16014701298E+03 -0.11213897923E+04  0.12976131822E+04  0.15294330000E+03 0.  0.
<mgrwt>
<rscale>  0 0.84076927E+03</rscale>
<asrwt>0</asrwt>
<pdfrwt beam="1">  1        1 0.20808534E+00 0.91471496E+03</pdfrwt>
<pdfrwt beam="2">  1       -1 0.23851324E+00 0.91471496E+03</pdfrwt>
<totfact> 0.70412588E-01</totfact>
</mgrwt>
</event>
<event>
 4    1  0.1043382E-007  0.7256760E+03  0.7818608E-02  0.9903828E-01
         -1   -1    0    0    0  501 -0.00000000000E+00  0.00000000000E+00  0.23640204313E+03  0.23640204318E+03  0.50400000000E-02 0.  1.
          1   -1    0    0  501    0  0.00000000000E+00 -0.00000000000E+00 -0.12410768880E+04  0.12410768881E+04  0.50400000000E-02 0. -1.
    8880023    1    1    2    0    0  0.17610190364E+03 -0.24856306363E+03 -0.55695069955E+03  0.91476760167E+03  0.65864270000E+03 0.  0.
    8880022    1    1    2    0    0 -0.17610190364E+03  0.24856306363E+03 -0.44772414537E+03  0.56271132957E+03  0.15294330000E+03 0.  0.
<mgrwt>
<rscale>  0 0.60076114E+03</rscale>
<asrwt>0</asrwt>
<pdfrwt beam="1">  1        1 0.19093490E+00 0.72567602E+03</pdfrwt>
<pdfrwt beam="2">  1       -1 0.36369546E-01 0.72567602E+03</pdfrwt>
<totfact> 0.74047404E+01</totfact>
</mgrwt>
</event>
<event>
 4    1  0.1043382E-007  0.9450777E+03  0.7818608E-02  0.9457232E-01
          1   -1    0    0  501    0  0.00000000000E+00  0.00000000000E+00  0.20578117505E+04  0.20578117505E+04  0.50400000000E-02 0. -1.
         -1   -1    0    0    0  501 -0.00000000000E+00 -0.00000000000E+00 -0.48002227658E+03  0.48002227661E+03  0.50400000000E-02 0.  1.
    8880023    1    1    2    0    0  0.67221283650E+03 -0.86553344889E+02  0.15942241106E+03  0.95842959599E+03  0.65864270000E+03 0.  0.
    8880022    1    1    2    0    0 -0.67221283650E+03  0.86553344889E+02  0.14183670629E+04  0.15794044312E+04  0.15294330000E+03 0.  0.
<mgrwt>
<rscale>  0 0.87511731E+03</rscale>
<asrwt>0</asrwt>
<pdfrwt beam="1">  1        1 0.31658642E+00 0.94507766E+03</pdfrwt>
<pdfrwt beam="2">  1       -1 0.73849581E-01 0.94507766E+03</pdfrwt>
<totfact> 0.51256604E+00</totfact>
</mgrwt>
</event>
<event>
 4    1  0.1043382E-007  0.7275412E+03  0.7818608E-02  0.9897849E-01
          1   -1    0    0  501    0  0.00000000000E+00  0.00000000000E+00  0.38454512786E+03  0.38454512790E+03  0.50400000000E-02 0. -1.
         -1   -1    0    0    0  501 -0.00000000000E+00 -0.00000000000E+00 -0.16490041181E+04  0.16490041181E+04  0.50400000000E-02 0.  1.
    8880023    1    1    2    0    0 -0.30681991548E+03 -0.36979253841E+02 -0.14642485825E+04  0.16350351811E+04  0.65864270000E+03 0.  1.
    8880022    1    1    2    0    0  0.30681991548E+03  0.36979253841E+02  0.19978959227E+03  0.39851406492E+03  0.15294330000E+03 0.  0.
<mgrwt>
<rscale>  0 0.60365639E+03</rscale>
<asrwt>0</asrwt>
<pdfrwt beam="1">  1        1 0.59160790E-01 0.72754115E+03</pdfrwt>
<pdfrwt beam="2">  1       -1 0.25369294E+00 0.72754115E+03</pdfrwt>
<totfact> 0.43552610E+00</totfact>
</mgrwt>
</event>
<event>
 4    1  0.1043382E-007  0.8322164E+03  0.7818608E-02  0.9645035E-01
          1   -1    0    0  501    0  0.00000000000E+00  0.00000000000E+00  0.21109305421E+04  0.21109305421E+04  0.50400000000E-02 0. -1.
         -1   -1    0    0    0  501 -0.00000000000E+00 -0.00000000000E+00 -0.28691707993E+03  0.28691707998E+03  0.50400000000E-02 0.  1.
    8880023    1    1    2    0    0  0.49846811340E+03  0.10150571985E+03  0.49907235042E+03  0.97039027636E+03  0.65864270000E+03 0.  1.
    8880022    1    1    2    0    0 -0.49846811340E+03 -0.10150571985E+03  0.13249411117E+04  0.14274573457E+04  0.15294330000E+03 0.  0.
<mgrwt>
<rscale>  0 0.74385825E+03</rscale>
<asrwt>0</asrwt>
<pdfrwt beam="1">  1        1 0.32475856E+00 0.83221636E+03</pdfrwt>
<pdfrwt beam="2">  1       -1 0.44141088E-01 0.83221636E+03</pdfrwt>
<totfact> 0.13141359E+01</totfact>
</mgrwt>
</event>
<event>
 4    1  0.1043382E-007  0.6763550E+03  0.7818608E-02  0.1011465E+00
         -1   -1    0    0    0  501 -0.00000000000E+00  0.00000000000E+00  0.66209168767E+03  0.66209168769E+03  0.50400000000E-02 0.  1.
          1   -1    0    0  501    0  0.00000000000E+00 -0.00000000000E+00 -0.12305965777E+04  0.12305965777E+04  0.50400000000E-02 0. -1.
    8880023    1    1    2    0    0 -0.12513328859E+03 -0.89372701203E+02  0.47525502094E+03  0.82663375253E+03  0.65864270000E+03 0.  1.
    8880022    1    1    2    0    0  0.12513328859E+03  0.89372701203E+02 -0.10437599109E+04  0.10660545128E+04  0.15294330000E+03 0.  0.
<mgrwt>
<rscale>  0 0.50896334E+03</rscale>
<asrwt>0</asrwt>
<pdfrwt beam="1">  1        1 0.18932255E+00 0.67635496E+03</pdfrwt>
<pdfrwt beam="2">  1       -1 0.10186026E+00 0.67635496E+03</pdfrwt>
<totfact> 0.97074826E+00</totfact>
</mgrwt>
</event>
<event>
 4    1  0.1043382E-007  0.8019460E+03  0.7818608E-02  0.9706604E-01
         -1   -1    0    0    0  501 -0.00000000000E+00  0.00000000000E+00  0.23509869639E+03  0.23509869645E+03  0.50400000000E-02 0.  1.
          1   -1    0    0  501    0  0.00000000000E+00 -0.00000000000E+00 -0.25023055467E+04  0.25023055467E+04  0.50400000000E-02 0. -1.
    8880023    1    1    2    0    0  0.44468858830E+03 -0.10751420215E+03 -0.59929428116E+03  0.10011348990E+04  0.65864270000E+03 0.  1.
    8880022    1    1    2    0    0 -0.44468858830E+03  0.10751420215E+03 -0.16679125691E+04  0.17362693442E+04  0.15294330000E+03 0. -1.
<mgrwt>
<rscale>  0 0.70624950E+03</rscale>
<asrwt>0</asrwt>
<pdfrwt beam="1">  1        1 0.38497007E+00 0.80194604E+03</pdfrwt>
<pdfrwt beam="2">  1       -1 0.36169032E-01 0.80194604E+03</pdfrwt>
<totfact> 0.10313801E+01</totfact>
</mgrwt>
</event>
<event>
 4    1  0.1043382E-007  0.6894618E+03  0.7818608E-02  0.1004409E+00
          1   -1    0    0  501    0  0.00000000000E+00  0.00000000000E+00  0.18949409655E+04  0.18949409655E+04  0.50400000000E-02 0. -1.
         -1   -1    0    0    0  501 -0.00000000000E+00 -0.00000000000E+00 -0.37617980699E+03  0.37617980702E+03  0.50400000000E-02 0.  1.
    8880023    1    1    2    0    0  0.19387813921E+03  0.62918135934E+02 -0.40999883815E+02  0.69067982556E+03  0.65864270000E+03 0.  0.
    8880022    1    1    2    0    0 -0.19387813921E+03 -0.62918135934E+02  0.15597610423E+04  0.15804409470E+04  0.15294330000E+03 0. -1.
<mgrwt>
<rscale>  0 0.53758351E+03</rscale>
<asrwt>0</asrwt>
<pdfrwt beam="1">  1        1 0.29152937E+00 0.68946184E+03</pdfrwt>
<pdfrwt beam="2">  1       -1 0.57873818E-01 0.68946184E+03</pdfrwt>
<totfact> 0.11192873E+01</totfact>
</mgrwt>
</event>
<event>
 4    1  0.1043382E-007  0.6920422E+03  0.7818608E-02  0.1003197E+00
         -1   -1    0    0    0  501 -0.00000000000E+00  0.00000000000E+00  0.31166723207E+03  0.31166723211E+03  0.50400000000E-02 0.  1.
          1   -1    0    0  501    0  0.00000000000E+00 -0.00000000000E+00 -0.89921606415E+03  0.89921606416E+03  0.50400000000E-02 0. -1.
    8880023    1    1    2    0    0 -0.16715239693E+03 -0.13104299668E+03 -0.16113999076E+03  0.71055506026E+03  0.65864270000E+03 0.  1.
    8880022    1    1    2    0    0  0.16715239693E+03  0.13104299668E+03 -0.42640884132E+03  0.50032823601E+03  0.15294330000E+03 0.  0.
<mgrwt>
<rscale>  0 0.54270497E+03</rscale>
<asrwt>0</asrwt>
<pdfrwt beam="1">  1        1 0.13834093E+00 0.69204219E+03</pdfrwt>
<pdfrwt beam="2">  1       -1 0.47948805E-01 0.69204219E+03</pdfrwt>
<totfact> 0.81223687E+01</totfact>
</mgrwt>
</event>
<event>
 4    1  0.1043382E-007  0.6695669E+03  0.7818608E-02  0.1015975E+00
          1   -1    0    0  501    0  0.00000000000E+00  0.00000000000E+00  0.76801683600E+03  0.76801683601E+03  0.50400000000E-02 0. -1.
         -1   -1    0    0    0  501 -0.00000000000E+00 -0.00000000000E+00 -0.26522926864E+03  0.26522926869E+03  0.50400000000E-02 0.  1.
    8880023    1    1    2    0    0  0.23758204562E+01  0.12043273221E+03  0.25121581196E+03  0.71514283745E+03  0.65864270000E+03 0.  1.
    8880022    1    1    2    0    0 -0.23758204562E+01 -0.12043273221E+03  0.25157175539E+03  0.31810326725E+03  0.15294330000E+03 0. -1.
<mgrwt>
<rscale>  0 0.49167409E+03</rscale>
<asrwt>0</asrwt>
<pdfrwt beam="1">  1        1 0.11815643E+00 0.66956694E+03</pdfrwt>
<pdfrwt beam="2">  1       -1 0.40804504E-01 0.66956694E+03</pdfrwt>
<totfact> 0.14155938E+02</totfact>
</mgrwt>
</event>
<event>
 4    1  0.1043382E-007  0.6698062E+03  0.7818608E-02  0.1015802E+00
          1   -1    0    0  501    0  0.00000000000E+00  0.00000000000E+00  0.11513913412E+04  0.11513913413E+04  0.50400000000E-02 0. -1.
         -1   -1    0    0    0  501 -0.00000000000E+00 -0.00000000000E+00 -0.19096827831E+03  0.19096827838E+03  0.50400000000E-02 0.  1.
    8880023    1    1    2    0    0  0.76371854845E+02  0.94855237176E+02  0.48104515639E+03  0.82464830381E+03  0.65864270000E+03 0.  1.
    8880022    1    1    2    0    0 -0.76371854845E+02 -0.94855237176E+02  0.47937790654E+03  0.51771131582E+03  0.15294330000E+03 0.  0.
<mgrwt>
<rscale>  0 0.49232379E+03</rscale>
<asrwt>0</asrwt>
<pdfrwt beam="1">  1        1 0.17713712E+00 0.66980623E+03</pdfrwt>
<pdfrwt beam="2">  1       -1 0.29379736E-01 0.66980623E+03</pdfrwt>
<totfact> 0.12588012E+02</totfact>
</mgrwt>
</event>
<event>
 4    1  0.1043382E-007  0.7083772E+03  0.7818608E-02  0.9964077E-01
         -1   -1    0    0    0  501 -0.00000000000E+00  0.00000000000E+00  0.24630980703E+03  0.24630980708E+03  0.50400000000E-02 0.  1.
          1   -1    0    0  501    0  0.00000000000E+00 -0.00000000000E+00 -0.15194787366E+04  0.15194787366E+04  0.50400000000E-02 0. -1.
    8880023    1    1    2    0    0  0.25303780842E+03 -0.62928026887E+02 -0.34167707876E+03  0.78647409460E+03  0.65864270000E+03 0.  1.
    8880022    1    1    2    0    0 -0.25303780842E+03  0.62928026887E+02 -0.93149185079E+03  0.97931444907E+03  0.15294330000E+03 0.  0.
<mgrwt>
<rscale>  0 0.57253846E+03</rscale>
<asrwt>0</asrwt>
<pdfrwt beam="1">  1        1 0.23376595E+00 0.70837721E+03</pdfrwt>
<pdfrwt beam="2">  1       -1 0.37893817E-01 0.70837721E+03</pdfrwt>
<totfact> 0.44087961E+01</totfact>
</mgrwt>
</event>
<event>
 4    1  0.1043382E-007  0.1664510E+04  0.7818608E-02  0.8801437E-01
          1   -1    0    0  501    0  0.00000000000E+00  0.00000000000E+00  0.25917218713E+04  0.25917218713E+04  0.50400000000E-02 0. -1.
         -1   -1    0    0    0  501 -0.00000000000E+00 -0.00000000000E+00 -0.15772626136E+04  0.15772626137E+04  0.50400000000E-02 0.  1.
    8880023    1    1    2    0    0 -0.75700727407E+02  0.15267780631E+04 -0.75322429297E+03  0.18270027083E+04  0.65864270000E+03 0.  0.
    8880022    1    1    2    0    0  0.75700727407E+02 -0.15267780631E+04  0.17676835506E+04  0.23419817767E+04  0.15294330000E+03 0.  0.
<mgrwt>
<rscale>  0 0.16314836E+04</rscale>
<asrwt>0</asrwt>
<pdfrwt beam="1">  1        1 0.39872644E+00 0.16645096E+04</pdfrwt>
<pdfrwt beam="2">  1       -1 0.24265579E+00 0.16645096E+04</pdfrwt>
<totfact> 0.84206796E-02</totfact>
</mgrwt>
</event>
<event>
 4    1  0.1043382E-007  0.6885552E+03  0.7818608E-02  0.1004847E+00
         -1   -1    0    0    0  501 -0.00000000000E+00  0.00000000000E+00  0.51590209602E+03  0.51590209604E+03  0.50400000000E-02 0.  1.
          1   -1    0    0  501    0  0.00000000000E+00 -0.00000000000E+00 -0.94902964226E+03  0.94902964228E+03  0.50400000000E-02 0. -1.
    8880023    1    1    2    0    0 -0.16370724450E+03  0.11618099282E+03  0.25323273343E+03  0.73364508350E+03  0.65864270000E+03 0.  0.
    8880022    1    1    2    0    0  0.16370724450E+03 -0.11618099282E+03 -0.68636027967E+03  0.73128665482E+03  0.15294330000E+03 0. -1.
<mgrwt>
<rscale>  0 0.53575072E+03</rscale>
<asrwt>0</asrwt>
<pdfrwt beam="1">  1        1 0.14600456E+00 0.68855522E+03</pdfrwt>
<pdfrwt beam="2">  1       -1 0.79369553E-01 0.68855522E+03</pdfrwt>
<totfact> 0.27252406E+01</totfact>
</mgrwt>
</event>
<event>
 4    1  0.1043382E-007  0.6611226E+03  0.7818608E-02  0.1023035E+00
          1   -1    0    0  501    0  0.00000000000E+00  0.00000000000E+00  0.39142051746E+03  0.39142051749E+03  0.50400000000E-02 0. -1.
         -1   -1    0    0    0  501 -0.00000000000E+00 -0.00000000000E+00 -0.49755274688E+03  0.49755274690E+03  0.50400000000E-02 0.  1.
    8880023    1    1    2    0    0  0.45685134256E+02  0.34434693213E+02 -0.21209761480E+03  0.69431151802E+03  0.65864270000E+03 0.  1.
    8880022    1    1    2    0    0 -0.45685134256E+02 -0.34434693213E+02  0.10596538538E+03  0.19466174638E+03  0.15294330000E+03 0.  0.
<mgrwt>
<rscale>  0 0.46607225E+03</rscale>
<asrwt>0</asrwt>
<pdfrwt beam="1">  1        1 0.60218541E-01 0.66112260E+03</pdfrwt>
<pdfrwt beam="2">  1       -1 0.76546577E-01 0.66112260E+03</pdfrwt>
<totfact> 0.10819834E+02</totfact>
</mgrwt>
</event>
<event>
 4    1  0.1043382E-007  0.8509169E+03  0.7818608E-02  0.9609929E-01
         -1   -1    0    0    0  501 -0.00000000000E+00  0.00000000000E+00  0.12990824229E+04  0.12990824229E+04  0.50400000000E-02 0.  1.
          1   -1    0    0  501    0  0.00000000000E+00 -0.00000000000E+00 -0.48210784295E+03  0.48210784298E+03  0.50400000000E-02 0. -1.
    8880023    1    1    2    0    0 -0.11574352959E+03  0.52616804419E+03  0.78719577951E+02  0.85455038095E+03  0.65864270000E+03 0. -1.
    8880022    1    1    2    0    0  0.11574352959E+03 -0.52616804419E+03  0.73825500203E+03  0.92663988496E+03  0.15294330000E+03 0.  0.
<mgrwt>
<rscale>  0 0.76642467E+03</rscale>
<asrwt>0</asrwt>
<pdfrwt beam="1">  1        1 0.74170439E-01 0.85091691E+03</pdfrwt>
<pdfrwt beam="2">  1       -1 0.19985883E+00 0.85091691E+03</pdfrwt>
<totfact> 0.71756903E+00</totfact>
</mgrwt>
</event>
<event>
 4    1  0.1043382E-007  0.6841643E+03  0.7818608E-02  0.1007060E+00
          1   -1    0    0  501    0  0.00000000000E+00  0.00000000000E+00  0.30443689556E+04  0.30443689556E+04  0.50400000000E-02 0. -1.
         -1   -1    0    0    0  501 -0.00000000000E+00 -0.00000000000E+00 -0.73620728749E+02  0.73620728922E+02  0.50400000000E-02 0.  1.
    8880023    1    1    2    0    0 -0.16751124294E+03 -0.78806934103E+02  0.24640907483E+04  0.25573079540E+04  0.65864270000E+03 0. -1.
    8880022    1    1    2    0    0  0.16751124294E+03  0.78806934103E+02  0.50665747850E+03  0.56068173050E+03  0.15294330000E+03 0.  0.
<mgrwt>
<rscale>  0 0.52660102E+03</rscale>
<asrwt>0</asrwt>
<pdfrwt beam="1">  1        1 0.46836438E+00 0.68416428E+03</pdfrwt>
<pdfrwt beam="2">  1       -1 0.11326268E-01 0.68416428E+03</pdfrwt>
<totfact> 0.30697121E+01</totfact>
</mgrwt>
</event>
<event>
 4    1  0.1043382E-007  0.7013192E+03  0.7818608E-02  0.9991772E-01
         -1   -1    0    0    0  501 -0.00000000000E+00  0.00000000000E+00  0.51960383290E+03  0.51960383292E+03  0.50400000000E-02 0.  1.
          1   -1    0    0  501    0  0.00000000000E+00 -0.00000000000E+00 -0.87142212789E+03  0.87142212791E+03  0.50400000000E-02 0. -1.
    8880023    1    1    2    0    0  0.11968388904E+03 -0.20907950259E+03  0.23406192275E+03  0.73934678037E+03  0.65864270000E+03 0.  1.
    8880022    1    1    2    0    0 -0.11968388904E+03  0.20907950259E+03 -0.58588021774E+03  0.65167918046E+03  0.15294330000E+03 0.  0.
<mgrwt>
<rscale>  0 0.56012500E+03</rscale>
<asrwt>0</asrwt>
<pdfrwt beam="1">  1        1 0.13406494E+00 0.70131924E+03</pdfrwt>
<pdfrwt beam="2">  1       -1 0.79939051E-01 0.70131924E+03</pdfrwt>
<totfact> 0.30965964E+01</totfact>
</mgrwt>
</event>
<event>
 4    1  0.1043382E-007  0.8467441E+03  0.7818608E-02  0.9617592E-01
         -1   -1    0    0    0  501 -0.00000000000E+00  0.00000000000E+00  0.86915459995E+03  0.86915459996E+03  0.50400000000E-02 0.  1.
          1   -1    0    0  501    0  0.00000000000E+00 -0.00000000000E+00 -0.13572225508E+04  0.13572225508E+04  0.50400000000E-02 0. -1.
    8880023    1    1    2    0    0 -0.49590465671E+03 -0.19298707774E+03  0.57792535261E+03  0.10251699177E+04  0.65864270000E+03 0.  1.
    8880022    1    1    2    0    0  0.49590465671E+03  0.19298707774E+03 -0.10659933034E+04  0.12012072330E+04  0.15294330000E+03 0.  0.
<mgrwt>
<rscale>  0 0.76142665E+03</rscale>
<asrwt>0</asrwt>
<pdfrwt beam="1">  1        1 0.20880347E+00 0.84674414E+03</pdfrwt>
<pdfrwt beam="2">  1       -1 0.13371609E+00 0.84674414E+03</pdfrwt>
<totfact> 0.39864295E+00</totfact>
</mgrwt>
</event>
<event>
 4    1  0.1043382E-007  0.6637983E+03  0.7818608E-02  0.1020564E+00
         -1   -1    0    0    0  501 -0.00000000000E+00  0.00000000000E+00  0.39164851042E+03  0.39164851045E+03  0.50400000000E-02 0.  1.
          1   -1    0    0  501    0  0.00000000000E+00 -0.00000000000E+00 -0.12103456249E+04  0.12103456249E+04  0.50400000000E-02 0. -1.
    8880023    1    1    2    0    0 -0.33190503762E+02 -0.75606353614E+02  0.96200591287E+02  0.67073295004E+03  0.65864270000E+03 0.  1.
    8880022    1    1    2    0    0  0.33190503762E+02  0.75606353614E+02 -0.91489770577E+03  0.93126118532E+03  0.15294330000E+03 0.  0.
<mgrwt>
<rscale>  0 0.47483768E+03</rscale>
<asrwt>0</asrwt>
<pdfrwt beam="1">  1        1 0.18620702E+00 0.66379826E+03</pdfrwt>
<pdfrwt beam="2">  1       -1 0.60253618E-01 0.66379826E+03</pdfrwt>
<totfact> 0.30500352E+01</totfact>
</mgrwt>
</event>
<event>
 4    1  0.1043382E-007  0.6747328E+03  0.7818608E-02  0.1012475E+00
         -1   -1    0    0    0  501 -0.00000000000E+00  0.00000000000E+00  0.14060965509E+03  0.14060965518E+03  0.50400000000E-02 0.  1.
          1   -1    0    0  501    0  0.00000000000E+00 -0.00000000000E+00 -0.23672794566E+04  0.23672794566E+04  0.50400000000E-02 0. -1.
    8880023    1    1    2    0    0 -0.11765991176E+03  0.87237128660E+02 -0.72128580127E+03  0.98768293740E+03  0.65864270000E+03 0.  1.
    8880022    1    1    2    0    0  0.11765991176E+03 -0.87237128660E+02 -0.15053840002E+04  0.15202061744E+04  0.15294330000E+03 0.  0.
<mgrwt>
<rscale>  0 0.50502645E+03</rscale>
<asrwt>0</asrwt>
<pdfrwt beam="1">  1        1 0.36419681E+00 0.67473282E+03</pdfrwt>
<pdfrwt beam="2">  1       -1 0.21632256E-01 0.67473282E+03</pdfrwt>
<totfact> 0.31593089E+01</totfact>
</mgrwt>
</event>
<event>
 4    1  0.1043382E-007  0.6647169E+03  0.7818608E-02  0.1019772E+00
          1   -1    0    0  501    0  0.00000000000E+00  0.00000000000E+00  0.10593425552E+04  0.10593425553E+04  0.50400000000E-02 0. -1.
         -1   -1    0    0    0  501 -0.00000000000E+00 -0.00000000000E+00 -0.10969422033E+04  0.10969422033E+04  0.50400000000E-02 0.  1.
    8880023    1    1    2    0    0  0.38281990566E+02 -0.81072962575E+02 -0.98728046457E+03  0.11901979911E+04  0.65864270000E+03 0.  1.
    8880022    1    1    2    0    0 -0.38281990566E+02  0.81072962575E+02  0.94968081649E+03  0.96608676748E+03  0.15294330000E+03 0.  0.
<mgrwt>
<rscale>  0 0.47768936E+03</rscale>
<asrwt>0</asrwt>
<pdfrwt beam="1">  1        1 0.16297578E+00 0.66471689E+03</pdfrwt>
<pdfrwt beam="2">  1       -1 0.16876034E+00 0.66471689E+03</pdfrwt>
<totfact> 0.36095776E+00</totfact>
</mgrwt>
</event>
<event>
 4    1  0.1043382E-007  0.6836464E+03  0.7818608E-02  0.1007332E+00
         -1   -1    0    0    0  501 -0.00000000000E+00  0.00000000000E+00  0.48350820660E+03  0.48350820663E+03  0.50400000000E-02 0.  1.
          1   -1    0    0  501    0  0.00000000000E+00 -0.00000000000E+00 -0.46153883961E+03  0.46153883964E+03  0.50400000000E-02 0. -1.
    8880023    1    1    2    0    0  0.83689675879E+02 -0.16296698388E+03  0.10645202833E+03  0.69188470158E+03  0.65864270000E+03 0.  0.
    8880022    1    1    2    0    0 -0.83689675879E+02  0.16296698388E+03 -0.84482661337E+02  0.25316234468E+03  0.15294330000E+03 0.  1.
<mgrwt>
<rscale>  0 0.52548950E+03</rscale>
<asrwt>0</asrwt>
<pdfrwt beam="1">  1        1 0.71005976E-01 0.68364640E+03</pdfrwt>
<pdfrwt beam="2">  1       -1 0.74385877E-01 0.68364640E+03</pdfrwt>
<totfact> 0.92045982E+01</totfact>
</mgrwt>
</event>
<event>
 4    1  0.1043382E-007  0.6777559E+03  0.7818608E-02  0.1010623E+00
          1   -1    0    0  501    0  0.00000000000E+00  0.00000000000E+00  0.81319029968E+03  0.81319029970E+03  0.50400000000E-02 0. -1.
         -1   -1    0    0    0  501 -0.00000000000E+00 -0.00000000000E+00 -0.80642147835E+03  0.80642147837E+03  0.50400000000E-02 0.  1.
    8880023    1    1    2    0    0  0.15429113559E+03  0.41678203298E+02 -0.64237664658E+03  0.93380982512E+03  0.65864270000E+03 0.  1.
    8880022    1    1    2    0    0 -0.15429113559E+03 -0.41678203298E+02  0.64914546791E+03  0.68580195295E+03  0.15294330000E+03 0.  0.
<mgrwt>
<rscale>  0 0.51227934E+03</rscale>
<asrwt>0</asrwt>
<pdfrwt beam="1">  1        1 0.12510620E+00 0.67775588E+03</pdfrwt>
<pdfrwt beam="2">  1       -1 0.12406484E+00 0.67775588E+03</pdfrwt>
<totfact> 0.12768856E+01</totfact>
</mgrwt>
</event>
<event>
 4    1  0.1043382E-007  0.7934414E+03  0.7818608E-02  0.9725161E-01
          1   -1    0    0  501    0  0.00000000000E+00  0.00000000000E+00  0.17874199608E+04  0.17874199608E+04  0.50400000000E-02 0. -1.
         -1   -1    0    0    0  501 -0.00000000000E+00 -0.00000000000E+00 -0.57178116957E+03  0.57178116959E+03  0.50400000000E-02 0.  1.
    8880023    1    1    2    0    0  0.51648521475E+02  0.43939893371E+03 -0.24096582335E+03  0.82922477472E+03  0.65864270000E+03 0.  1.
    8880022    1    1    2    0    0 -0.51648521475E+02 -0.43939893371E+03  0.14566046146E+04  0.15299763557E+04  0.15294330000E+03 0.  0.
<mgrwt>
<rscale>  0 0.69538292E+03</rscale>
<asrwt>0</asrwt>
<pdfrwt beam="1">  1        1 0.27498768E+00 0.79344136E+03</pdfrwt>
<pdfrwt beam="2">  1       -1 0.87966335E-01 0.79344136E+03</pdfrwt>
<totfact> 0.54809338E+00</totfact>
</mgrwt>
</event>
<event>
 4    1  0.1043382E-007  0.9112099E+03  0.7818608E-02  0.9508270E-01
         -1   -1    0    0    0  501 -0.00000000000E+00  0.00000000000E+00  0.83361235162E+03  0.83361235163E+03  0.50400000000E-02 0.  1.
          1   -1    0    0  501    0  0.00000000000E+00 -0.00000000000E+00 -0.85325617813E+03  0.85325617814E+03  0.50400000000E-02 0. -1.
    8880023    1    1    2    0    0  0.97541292831E+02 -0.62207636073E+03  0.30657461160E+03  0.96140080150E+03  0.65864270000E+03 0.  1.
    8880022    1    1    2    0    0 -0.97541292831E+02  0.62207636073E+03 -0.32621843811E+03  0.72546772827E+03  0.15294330000E+03 0.  0.
<mgrwt>
<rscale>  0 0.83676810E+03</rscale>
<asrwt>0</asrwt>
<pdfrwt beam="1">  1        1 0.13127018E+00 0.91120991E+03</pdfrwt>
<pdfrwt beam="2">  1       -1 0.12824805E+00 0.91120991E+03</pdfrwt>
<totfact> 0.10563757E+01</totfact>
</mgrwt>
</event>
<event>
 4    1  0.1043382E-007  0.7171441E+03  0.7818608E-02  0.9932371E-01
         -1   -1    0    0    0  501 -0.00000000000E+00  0.00000000000E+00  0.20563152776E+03  0.20563152782E+03  0.50400000000E-02 0.  1.
          1   -1    0    0  501    0  0.00000000000E+00 -0.00000000000E+00 -0.16891907331E+04  0.16891907331E+04  0.50400000000E-02 0. -1.
    8880023    1    1    2    0    0  0.11866385686E+03 -0.25769034523E+03 -0.53994466401E+03  0.89768361431E+03  0.65864270000E+03 0.  1.
    8880022    1    1    2    0    0 -0.11866385686E+03  0.25769034523E+03 -0.94361454130E+03  0.99713864658E+03  0.15294330000E+03 0.  0.
<mgrwt>
<rscale>  0 0.58717800E+03</rscale>
<asrwt>0</asrwt>
<pdfrwt beam="1">  1        1 0.25987549E+00 0.71714408E+03</pdfrwt>
<pdfrwt beam="2">  1       -1 0.31635621E-01 0.71714408E+03</pdfrwt>
<totfact> 0.46588478E+01</totfact>
</mgrwt>
</event>
<event>
 4    1  0.1043382E-007  0.6876216E+03  0.7818608E-02  0.1005304E+00
         -1   -1    0    0    0  501 -0.00000000000E+00  0.00000000000E+00  0.26807054804E+03  0.26807054808E+03  0.50400000000E-02 0.  1.
          1   -1    0    0  501    0  0.00000000000E+00 -0.00000000000E+00 -0.86896614123E+03  0.86896614124E+03  0.50400000000E-02 0. -1.
    8880023    1    1    2    0    0  0.15373780185E+03  0.12400782342E+03 -0.31194511833E+03  0.75507166223E+03  0.65864270000E+03 0.  0.
    8880022    1    1    2    0    0 -0.15373780185E+03 -0.12400782342E+03 -0.28895047486E+03  0.38196502709E+03  0.15294330000E+03 0.  0.
<mgrwt>
<rscale>  0 0.53384413E+03</rscale>
<asrwt>0</asrwt>
<pdfrwt beam="1">  1        1 0.13368710E+00 0.68762160E+03</pdfrwt>
<pdfrwt beam="2">  1       -1 0.41241623E-01 0.68762160E+03</pdfrwt>
<totfact> 0.11369141E+02</totfact>
</mgrwt>
</event>
<event>
 4    1  0.1043382E-007  0.7704984E+03  0.7818608E-02  0.9778649E-01
          1   -1    0    0  501    0  0.00000000000E+00  0.00000000000E+00  0.21249138143E+04  0.21249138143E+04  0.50400000000E-02 0. -1.
         -1   -1    0    0    0  501 -0.00000000000E+00 -0.00000000000E+00 -0.35035389154E+03  0.35035389158E+03  0.50400000000E-02 0.  1.
    8880023    1    1    2    0    0 -0.64862291680E+02  0.39452557627E+03  0.13687755125E+03  0.78256195762E+03  0.65864270000E+03 0.  1.
    8880022    1    1    2    0    0  0.64862291680E+02 -0.39452557627E+03  0.16376823715E+04  0.16927057482E+04  0.15294330000E+03 0.  0.
<mgrwt>
<rscale>  0 0.66521044E+03</rscale>
<asrwt>0</asrwt>
<pdfrwt beam="1">  1        1 0.32690982E+00 0.77049838E+03</pdfrwt>
<pdfrwt beam="2">  1       -1 0.53900599E-01 0.77049838E+03</pdfrwt>
<totfact> 0.89001906E+00</totfact>
</mgrwt>
</event>
<event>
 4    1  0.1043382E-007  0.6894148E+03  0.7818608E-02  0.1004432E+00
         -1   -1    0    0    0  501 -0.00000000000E+00  0.00000000000E+00  0.18067862297E+03  0.18067862304E+03  0.50400000000E-02 0.  1.
          1   -1    0    0  501    0  0.00000000000E+00 -0.00000000000E+00 -0.13588494250E+04  0.13588494250E+04  0.50400000000E-02 0. -1.
    8880023    1    1    2    0    0 -0.17219678215E+03 -0.10876969212E+03 -0.62504958262E+03  0.93058033759E+03  0.65864270000E+03 0.  0.
    8880022    1    1    2    0    0  0.17219678215E+03  0.10876969212E+03 -0.55312121940E+03  0.60894771046E+03  0.15294330000E+03 0.  0.
<mgrwt>
<rscale>  0 0.53748888E+03</rscale>
<asrwt>0</asrwt>
<pdfrwt beam="1">  1        1 0.20905375E+00 0.68941481E+03</pdfrwt>
<pdfrwt beam="2">  1       -1 0.27796712E-01 0.68941481E+03</pdfrwt>
<totfact> 0.98371742E+01</totfact>
</mgrwt>
</event>
<event>
 4    1  0.1043382E-007  0.9838519E+03  0.7818608E-02  0.9402996E-01
          1   -1    0    0  501    0  0.00000000000E+00  0.00000000000E+00  0.68740504758E+03  0.68740504760E+03  0.50400000000E-02 0. -1.
         -1   -1    0    0    0  501 -0.00000000000E+00 -0.00000000000E+00 -0.17098488208E+04  0.17098488208E+04  0.50400000000E-02 0.  1.
    8880023    1    1    2    0    0  0.53226323591E+03 -0.50084942800E+03 -0.12736915877E+04  0.16094268448E+04  0.65864270000E+03 0.  0.
    8880022    1    1    2    0    0 -0.53226323591E+03  0.50084942800E+03  0.25124781450E+03  0.78782702361E+03  0.15294330000E+03 0.  0.
<mgrwt>
<rscale>  0 0.91829532E+03</rscale>
<asrwt>0</asrwt>
<pdfrwt beam="1">  1        1 0.10575462E+00 0.98385187E+03</pdfrwt>
<pdfrwt beam="2">  1       -1 0.26305366E+00 0.98385187E+03</pdfrwt>
<totfact> 0.16240269E+00</totfact>
</mgrwt>
</event>
<event>
 4    1  0.1043382E-007  0.1329537E+04  0.7818608E-02  0.9040464E-01
          1   -1    0    0  501    0  0.00000000000E+00  0.00000000000E+00  0.21988907515E+04  0.21988907515E+04  0.50400000000E-02 0. -1.
         -1   -1    0    0    0  501 -0.00000000000E+00 -0.00000000000E+00 -0.11330795712E+04  0.11330795712E+04  0.50400000000E-02 0.  1.
    8880023    1    1    2    0    0  0.72450321552E+03  0.89941782349E+03 -0.46478724659E+03  0.14084369781E+04  0.65864270000E+03 0.  0.
    8880022    1    1    2    0    0 -0.72450321552E+03 -0.89941782349E+03  0.15305984268E+04  0.19235333446E+04  0.15294330000E+03 0.  0.
<mgrwt>
<rscale>  0 0.12863456E+04</rscale>
<asrwt>0</asrwt>
<pdfrwt beam="1">  1        1 0.33829088E+00 0.13295366E+04</pdfrwt>
<pdfrwt beam="2">  1       -1 0.17431993E+00 0.13295366E+04</pdfrwt>
<totfact> 0.48256451E-01</totfact>
</mgrwt>
</event>
<event>
 4    1  0.1043382E-007  0.9099959E+03  0.7818608E-02  0.9510172E-01
         -1   -1    0    0    0  501 -0.00000000000E+00  0.00000000000E+00  0.14210775123E+04  0.14210775123E+04  0.50400000000E-02 0.  1.
          1   -1    0    0  501    0  0.00000000000E+00 -0.00000000000E+00 -0.78592776810E+03  0.78592776811E+03  0.50400000000E-02 0. -1.
    8880023    1    1    2    0    0 -0.23796198011E+03  0.58108209896E+03  0.10876044158E+04  0.14180888129E+04  0.65864270000E+03 0.  1.
    8880022    1    1    2    0    0  0.23796198011E+03 -0.58108209896E+03 -0.45245467167E+03  0.78891646747E+03  0.15294330000E+03 0.  0.
<mgrwt>
<rscale>  0 0.83538034E+03</rscale>
<asrwt>0</asrwt>
<pdfrwt beam="1">  1        1 0.12091197E+00 0.90999589E+03</pdfrwt>
<pdfrwt beam="2">  1       -1 0.21862731E+00 0.90999589E+03</pdfrwt>
<totfact> 0.26005718E+00</totfact>
</mgrwt>
</event>
<event>
 4    1  0.1043382E-007  0.1502945E+04  0.7818608E-02  0.8907559E-01
         -1   -1    0    0    0  501 -0.00000000000E+00  0.00000000000E+00  0.19737559655E+04  0.19737559656E+04  0.50400000000E-02 0.  1.
          1   -1    0    0  501    0  0.00000000000E+00 -0.00000000000E+00 -0.12334040067E+04  0.12334040067E+04  0.50400000000E-02 0. -1.
    8880023    1    1    2    0    0 -0.83522070814E+03 -0.10618094767E+04 -0.25203664683E+03  0.15239309938E+04  0.65864270000E+03 0. -1.
    8880022    1    1    2    0    0  0.83522070814E+03  0.10618094767E+04  0.99238860568E+03  0.16832289785E+04  0.15294330000E+03 0.  1.
<mgrwt>
<rscale>  0 0.14657419E+04</rscale>
<asrwt>0</asrwt>
<pdfrwt beam="1">  1        1 0.18975446E+00 0.15029448E+04</pdfrwt>
<pdfrwt beam="2">  1       -1 0.30365476E+00 0.15029448E+04</pdfrwt>
<totfact> 0.29948866E-01</totfact>
</mgrwt>
</event>
<event>
 4    1  0.1043382E-007  0.8825251E+03  0.7818608E-02  0.9554688E-01
          1   -1    0    0  501    0  0.00000000000E+00  0.00000000000E+00  0.97072669306E+03  0.97072669307E+03  0.50400000000E-02 0. -1.
         -1   -1    0    0    0  501 -0.00000000000E+00 -0.00000000000E+00 -0.62052359625E+03  0.62052359627E+03  0.50400000000E-02 0.  1.
    8880023    1    1    2    0    0 -0.46712370767E+03 -0.35614013196E+03 -0.15404415073E+02  0.88265953466E+03  0.65864270000E+03 0.  0.
    8880022    1    1    2    0    0  0.46712370767E+03  0.35614013196E+03  0.36560751188E+03  0.70859075468E+03  0.15294330000E+03 0.  0.
<mgrwt>
<rscale>  0 0.80369260E+03</rscale>
<asrwt>0</asrwt>
<pdfrwt beam="1">  1        1 0.14934257E+00 0.88252510E+03</pdfrwt>
<pdfrwt beam="2">  1       -1 0.95465169E-01 0.88252510E+03</pdfrwt>
<totfact> 0.17138597E+01</totfact>
</mgrwt>
</event>
<event>
 4    1  0.1043382E-007  0.7166078E+03  0.7818608E-02  0.9934235E-01
          1   -1    0    0  501    0  0.00000000000E+00  0.00000000000E+00  0.15678057328E+04  0.15678057329E+04  0.50400000000E-02 0. -1.
         -1   -1    0    0    0  501 -0.00000000000E+00 -0.00000000000E+00 -0.17237481560E+03  0.17237481567E+03  0.50400000000E-02 0.  1.
    8880023    1    1    2    0    0  0.26282037566E+03  0.10316033227E+03  0.91273507684E+03  0.11604361813E+04  0.65864270000E+03 0.  1.
    8880022    1    1    2    0    0 -0.26282037566E+03 -0.10316033227E+03  0.48269584041E+03  0.57974436727E+03  0.15294330000E+03 0. -1.
<mgrwt>
<rscale>  0 0.58630399E+03</rscale>
<asrwt>0</asrwt>
<pdfrwt beam="1">  1        1 0.24120088E+00 0.71660785E+03</pdfrwt>
<pdfrwt beam="2">  1       -1 0.26519202E-01 0.71660785E+03</pdfrwt>
<totfact> 0.76421148E+01</totfact>
</mgrwt>
</event>
<event>
 4    1  0.1043382E-007  0.7543560E+03  0.7818608E-02  0.9819944E-01
         -1   -1    0    0    0  501 -0.00000000000E+00  0.00000000000E+00  0.31854787608E+03  0.31854787612E+03  0.50400000000E-02 0.  1.
          1   -1    0    0  501    0  0.00000000000E+00 -0.00000000000E+00 -0.11367148682E+04  0.11367148683E+04  0.50400000000E-02 0. -1.
    8880023    1    1    2    0    0  0.58343818486E+02 -0.36309616964E+03 -0.32510485821E+03  0.82142936681E+03  0.65864270000E+03 0.  1.
    8880022    1    1    2    0    0 -0.58343818486E+02  0.36309616964E+03 -0.49306213395E+03  0.63383337756E+03  0.15294330000E+03 0. -1.
<mgrwt>
<rscale>  0 0.64303110E+03</rscale>
<asrwt>0</asrwt>
<pdfrwt beam="1">  1        1 0.17487921E+00 0.75435604E+03</pdfrwt>
<pdfrwt beam="2">  1       -1 0.49007366E-01 0.75435604E+03</pdfrwt>
<totfact> 0.50838333E+01</totfact>
</mgrwt>
</event>
<event>
 4    1  0.1043382E-007  0.7152200E+03  0.7818608E-02  0.9939105E-01
          1   -1    0    0  501    0  0.00000000000E+00  0.00000000000E+00  0.10691996181E+04  0.10691996181E+04  0.50400000000E-02 0. -1.
         -1   -1    0    0    0  501 -0.00000000000E+00 -0.00000000000E+00 -0.39707193775E+03  0.39707193778E+03  0.50400000000E-02 0.  1.
    8880023    1    1    2    0    0  0.63564879859E+02  0.27145702611E+03 -0.82297920880E+01  0.71526732535E+03  0.65864270000E+03 0.  0.
    8880022    1    1    2    0    0 -0.63564879859E+02 -0.27145702611E+03  0.68035747243E+03  0.75100423053E+03  0.15294330000E+03 0.  0.
<mgrwt>
<rscale>  0 0.58402970E+03</rscale>
<asrwt>0</asrwt>
<pdfrwt beam="1">  1        1 0.16449224E+00 0.71521998E+03</pdfrwt>
<pdfrwt beam="2">  1       -1 0.61087992E-01 0.71521998E+03</pdfrwt>
<totfact> 0.37462385E+01</totfact>
</mgrwt>
</event>
<event>
 4    1  0.1043382E-007  0.6937379E+03  0.7818608E-02  0.1002424E+00
         -1   -1    0    0    0  501 -0.00000000000E+00  0.00000000000E+00  0.45508942571E+03  0.45508942574E+03  0.50400000000E-02 0.  1.
          1   -1    0    0  501    0  0.00000000000E+00 -0.00000000000E+00 -0.20568154492E+04  0.20568154492E+04  0.50400000000E-02 0. -1.
    8880023    1    1    2    0    0 -0.19177708663E+03 -0.10336165122E+03  0.17490280631E+03  0.71544621029E+03  0.65864270000E+03 0.  1.
    8880022    1    1    2    0    0  0.19177708663E+03  0.10336165122E+03 -0.17766288298E+04  0.17964586646E+04  0.15294330000E+03 0.  0.
<mgrwt>
<rscale>  0 0.54599908E+03</rscale>
<asrwt>0</asrwt>
<pdfrwt beam="1">  1        1 0.31643314E+00 0.69373791E+03</pdfrwt>
<pdfrwt beam="2">  1       -1 0.70013759E-01 0.69373791E+03</pdfrwt>
<totfact> 0.59639585E+00</totfact>
</mgrwt>
</event>
<event>
 4    1  0.1043382E-007  0.7288867E+03  0.7818608E-02  0.9893589E-01
          1   -1    0    0  501    0  0.00000000000E+00  0.00000000000E+00  0.14835552228E+04  0.14835552228E+04  0.50400000000E-02 0. -1.
         -1   -1    0    0    0  501 -0.00000000000E+00 -0.00000000000E+00 -0.31086437979E+03  0.31086437983E+03  0.50400000000E-02 0.  1.
    8880023    1    1    2    0    0 -0.17574126142E+03  0.25803227937E+03  0.19173439216E+03  0.75368291182E+03  0.65864270000E+03 0.  1.
    8880022    1    1    2    0    0  0.17574126142E+03 -0.25803227937E+03  0.98095645085E+03  0.10407366908E+04  0.15294330000E+03 0.  0.
<mgrwt>
<rscale>  0 0.60573008E+03</rscale>
<asrwt>0</asrwt>
<pdfrwt beam="1">  1        1 0.22823927E+00 0.72888672E+03</pdfrwt>
<pdfrwt beam="2">  1       -1 0.47825289E-01 0.72888672E+03</pdfrwt>
<totfact> 0.30339033E+01</totfact>
</mgrwt>
</event>
<event>
 4    1  0.1043382E-007  0.8335390E+03  0.7818608E-02  0.9642486E-01
         -1   -1    0    0    0  501 -0.00000000000E+00  0.00000000000E+00  0.32047320736E+03  0.32047320740E+03  0.50400000000E-02 0.  1.
          1   -1    0    0  501    0  0.00000000000E+00 -0.00000000000E+00 -0.20249174117E+04  0.20249174117E+04  0.50400000000E-02 0. -1.
    8880023    1    1    2    0    0  0.29932584319E+03  0.41398194375E+03 -0.37698419294E+03  0.91482473630E+03  0.65864270000E+03 0.  0.
    8880022    1    1    2    0    0 -0.29932584319E+03 -0.41398194375E+03 -0.13274600114E+04  0.14305658828E+04  0.15294330000E+03 0.  0.
<mgrwt>
<rscale>  0 0.74546910E+03</rscale>
<asrwt>0</asrwt>
<pdfrwt beam="1">  1        1 0.31152575E+00 0.83353897E+03</pdfrwt>
<pdfrwt beam="2">  1       -1 0.49303572E-01 0.83353897E+03</pdfrwt>
<totfact> 0.12197613E+01</totfact>
</mgrwt>
</event>
<event>
 4    1  0.1043382E-007  0.8506201E+03  0.7818608E-02  0.9610471E-01
          1   -1    0    0  501    0  0.00000000000E+00  0.00000000000E+00  0.99451127136E+03  0.99451127137E+03  0.50400000000E-02 0. -1.
         -1   -1    0    0    0  501 -0.00000000000E+00 -0.00000000000E+00 -0.83327815627E+03  0.83327815628E+03  0.50400000000E-02 0.  1.
    8880023    1    1    2    0    0  0.41794498852E+03 -0.33921418883E+03 -0.48001286891E+03  0.97671226056E+03  0.65864270000E+03 0.  0.
    8880022    1    1    2    0    0 -0.41794498852E+03  0.33921418883E+03  0.64124598400E+03  0.85107716709E+03  0.15294330000E+03 0.  0.
<mgrwt>
<rscale>  0 0.76606978E+03</rscale>
<asrwt>0</asrwt>
<pdfrwt beam="1">  1        1 0.15300173E+00 0.85062006E+03</pdfrwt>
<pdfrwt beam="2">  1       -1 0.12819664E+00 0.85062006E+03</pdfrwt>
<totfact> 0.81865827E+00</totfact>
</mgrwt>
</event>
<event>
 4    1  0.1043382E-007  0.9253631E+03  0.7818608E-02  0.9486484E-01
         -1   -1    0    0    0  501 -0.00000000000E+00  0.00000000000E+00  0.32904750914E+03  0.32904750918E+03  0.50400000000E-02 0.  1.
          1   -1    0    0  501    0  0.00000000000E+00 -0.00000000000E+00 -0.21854631689E+04  0.21854631689E+04  0.50400000000E-02 0. -1.
    8880023    1    1    2    0    0  0.60415158058E+03  0.23976547179E+03 -0.63435498625E+03  0.11219193681E+04  0.65864270000E+03 0.  0.
    8880022    1    1    2    0    0 -0.60415158058E+03 -0.23976547179E+03 -0.12220606735E+04  0.13925913100E+04  0.15294330000E+03 0.  0.
<mgrwt>
<rscale>  0 0.85287653E+03</rscale>
<asrwt>0</asrwt>
<pdfrwt beam="1">  1        1 0.33622509E+00 0.92536307E+03</pdfrwt>
<pdfrwt beam="2">  1       -1 0.50622695E-01 0.92536307E+03</pdfrwt>
<totfact> 0.89387167E+00</totfact>
</mgrwt>
</event>
<event>
 4    1  0.1043382E-007  0.1049101E+04  0.7818608E-02  0.9319963E-01
         -1   -1    0    0    0  501 -0.00000000000E+00  0.00000000000E+00  0.29072705820E+04  0.29072705820E+04  0.50400000000E-02 0.  1.
          1   -1    0    0  501    0  0.00000000000E+00 -0.00000000000E+00 -0.45839487568E+03  0.45839487571E+03  0.50400000000E-02 0. -1.
    8880023    1    1    2    0    0  0.51730580077E+03 -0.63182077198E+03  0.22913289326E+04  0.25200796144E+04  0.65864270000E+03 0.  0.
    8880022    1    1    2    0    0 -0.51730580077E+03  0.63182077198E+03  0.15754677370E+03  0.84558584326E+03  0.15294330000E+03 0.  0.
<mgrwt>
<rscale>  0 0.98965636E+03</rscale>
<asrwt>0</asrwt>
<pdfrwt beam="1">  1        1 0.70522288E-01 0.10491010E+04</pdfrwt>
<pdfrwt beam="2">  1       -1 0.44727240E+00 0.10491010E+04</pdfrwt>
<totfact> 0.17198793E-01</totfact>
</mgrwt>
</event>
<event>
 4    1  0.1043382E-007  0.6753216E+03  0.7818608E-02  0.1012104E+00
         -1   -1    0    0    0  501 -0.00000000000E+00  0.00000000000E+00  0.13718035510E+03  0.13718035520E+03  0.50400000000E-02 0.  1.
          1   -1    0    0  501    0  0.00000000000E+00 -0.00000000000E+00 -0.26668758065E+04  0.26668758065E+04  0.50400000000E-02 0. -1.
    8880023    1    1    2    0    0  0.12159511538E+03 -0.86392957811E+02 -0.74068136467E+03  0.10023313851E+04  0.65864270000E+03 0.  0.
    8880022    1    1    2    0    0 -0.12159511538E+03  0.86392957811E+02 -0.17890140867E+04  0.18017247766E+04  0.15294330000E+03 0.  0.
<mgrwt>
<rscale>  0 0.50646813E+03</rscale>
<asrwt>0</asrwt>
<pdfrwt beam="1">  1        1 0.41028855E+00 0.67532164E+03</pdfrwt>
<pdfrwt beam="2">  1       -1 0.21104672E-01 0.67532164E+03</pdfrwt>
<totfact> 0.20565607E+01</totfact>
</mgrwt>
</event>
<event>
 4    1  0.1043382E-007  0.9839904E+03  0.7818608E-02  0.9402809E-01
         -1   -1    0    0    0  501 -0.00000000000E+00  0.00000000000E+00  0.80529611077E+03  0.80529611078E+03  0.50400000000E-02 0.  1.
          1   -1    0    0  501    0  0.00000000000E+00 -0.00000000000E+00 -0.10625204840E+04  0.10625204841E+04  0.50400000000E-02 0. -1.
    8880023    1    1    2    0    0 -0.25596992992E+03  0.68476729804E+03  0.18299425136E+03  0.10008616087E+04  0.65864270000E+03 0.  0.
    8880022    1    1    2    0    0  0.25596992992E+03 -0.68476729804E+03 -0.44021862464E+03  0.86695498614E+03  0.15294330000E+03 0.  0.
<mgrwt>
<rscale>  0 0.91844838E+03</rscale>
<asrwt>0</asrwt>
<pdfrwt beam="1">  1        1 0.16346469E+00 0.98399038E+03</pdfrwt>
<pdfrwt beam="2">  1       -1 0.12389171E+00 0.98399038E+03</pdfrwt>
<totfact> 0.77798295E+00</totfact>
</mgrwt>
</event>
<event>
 4    1  0.1043382E-007  0.6685668E+03  0.7818608E-02  0.1016712E+00
         -1   -1    0    0    0  501 -0.00000000000E+00  0.00000000000E+00  0.12785673280E+03  0.12785673290E+03  0.50400000000E-02 0.  1.
          1   -1    0    0  501    0  0.00000000000E+00 -0.00000000000E+00 -0.16839593831E+04  0.16839593831E+04  0.50400000000E-02 0. -1.
    8880023    1    1    2    0    0  0.11277242341E+03  0.21301589149E+02 -0.85643966439E+03  0.10864945845E+04  0.65864270000E+03 0.  1.
    8880022    1    1    2    0    0 -0.11277242341E+03 -0.21301589149E+02 -0.69966298595E+03  0.72532153154E+03  0.15294330000E+03 0.  0.
<mgrwt>
<rscale>  0 0.48892122E+03</rscale>
<asrwt>0</asrwt>
<pdfrwt beam="1">  1        1 0.25907066E+00 0.66856681E+03</pdfrwt>
<pdfrwt beam="2">  1       -1 0.19670268E-01 0.66856681E+03</pdfrwt>
<totfact> 0.10613527E+02</totfact>
</mgrwt>
</event>
<event>
 4    1  0.1043382E-007  0.7353847E+03  0.7818608E-02  0.9873601E-01
         -1   -1    0    0    0  501 -0.00000000000E+00  0.00000000000E+00  0.40828655317E+03  0.40828655320E+03  0.50400000000E-02 0.  1.
          1   -1    0    0  501    0  0.00000000000E+00 -0.00000000000E+00 -0.11223907722E+04  0.11223907722E+04  0.50400000000E-02 0. -1.
    8880023    1    1    2    0    0  0.32680144247E+03 -0.13461836304E+02 -0.55244073681E+01  0.73540541824E+03  0.65864270000E+03 0.  0.
    8880022    1    1    2    0    0 -0.32680144247E+03  0.13461836304E+02 -0.70857981168E+03  0.79527190719E+03  0.15294330000E+03 0.  0.
<mgrwt>
<rscale>  0 0.61557928E+03</rscale>
<asrwt>0</asrwt>
<pdfrwt beam="1">  1        1 0.17267550E+00 0.73538467E+03</pdfrwt>
<pdfrwt beam="2">  1       -1 0.62813316E-01 0.73538467E+03</pdfrwt>
<totfact> 0.32276594E+01</totfact>
</mgrwt>
</event>
<event>
 4    1  0.1284283E-007  0.7326411E+03  0.7818608E-02  0.9881926E-01
         -1   -1    0    0    0  501 -0.00000000000E+00  0.00000000000E+00  0.73453241595E+03  0.73453241596E+03  0.50400000000E-02 0.  1.
          1   -1    0    0  501    0  0.00000000000E+00 -0.00000000000E+00 -0.13948432768E+04  0.13948432768E+04  0.50400000000E-02 0. -1.
    8880023    1    1    2    0    0  0.28835483207E+03  0.14072742512E+03  0.51888147943E+03  0.89777553616E+03  0.65864270000E+03 0.  1.
    8880022    1    1    2    0    0 -0.28835483207E+03 -0.14072742512E+03 -0.11791923403E+04  0.12316001566E+04  0.15294330000E+03 0.  0.
<mgrwt>
<rscale>  0 0.61145279E+03</rscale>
<asrwt>0</asrwt>
<pdfrwt beam="1">  1        1 0.21459127E+00 0.73264106E+03</pdfrwt>
<pdfrwt beam="2">  1       -1 0.11300499E+00 0.73264106E+03</pdfrwt>
<totfact> 0.57823326E+00</totfact>
</mgrwt>
</event>
<event>
 4    1  0.1043382E-007  0.1080780E+04  0.7818608E-02  0.9282763E-01
          1   -1    0    0  501    0  0.00000000000E+00  0.00000000000E+00  0.10848759882E+04  0.10848759882E+04  0.50400000000E-02 0. -1.
         -1   -1    0    0    0  501 -0.00000000000E+00 -0.00000000000E+00 -0.10227861958E+04  0.10227861958E+04  0.50400000000E-02 0.  1.
    8880023    1    1    2    0    0  0.28393059913E+03  0.80849111698E+03  0.42931964943E+03  0.11629273576E+04  0.65864270000E+03 0.  0.
    8880022    1    1    2    0    0 -0.28393059913E+03 -0.80849111698E+03 -0.36722985702E+03  0.94473482643E+03  0.15294330000E+03 0.  0.
<mgrwt>
<rscale>  0 0.10238530E+04</rscale>
<asrwt>0</asrwt>
<pdfrwt beam="1">  1        1 0.16690400E+00 0.10807797E+04</pdfrwt>
<pdfrwt beam="2">  1       -1 0.15735172E+00 0.10807797E+04</pdfrwt>
<totfact> 0.39599301E+00</totfact>
</mgrwt>
</event>
<event>
 4    1  0.1043382E-007  0.7443716E+03  0.7818608E-02  0.9847391E-01
         -1   -1    0    0    0  501 -0.00000000000E+00  0.00000000000E+00  0.38174712450E+03  0.38174712454E+03  0.50400000000E-02 0.  1.
          1   -1    0    0  501    0  0.00000000000E+00 -0.00000000000E+00 -0.13664401063E+04  0.13664401063E+04  0.50400000000E-02 0. -1.
    8880023    1    1    2    0    0  0.57377691695E+02  0.34203310868E+03 -0.57593262073E+02  0.74659630125E+03  0.65864270000E+03 0.  0.
    8880022    1    1    2    0    0 -0.57377691695E+02 -0.34203310868E+03 -0.92709971976E+03  0.10015909296E+04  0.15294330000E+03 0.  0.
<mgrwt>
<rscale>  0 0.62880109E+03</rscale>
<asrwt>0</asrwt>
<pdfrwt beam="1">  1        1 0.21022155E+00 0.74437158E+03</pdfrwt>
<pdfrwt beam="2">  1       -1 0.58730328E-01 0.74437158E+03</pdfrwt>
<totfact> 0.24612405E+01</totfact>
</mgrwt>
</event>
<event>
 4    1  0.1043382E-007  0.7259170E+03  0.7818608E-02  0.9903051E-01
         -1   -1    0    0    0  501 -0.00000000000E+00  0.00000000000E+00  0.73292245188E+03  0.73292245190E+03  0.50400000000E-02 0.  1.
          1   -1    0    0  501    0  0.00000000000E+00 -0.00000000000E+00 -0.58432936672E+03  0.58432936675E+03  0.50400000000E-02 0. -1.
    8880023    1    1    2    0    0  0.73182063126E+02 -0.29629328597E+03  0.45650526672E+03  0.85752702026E+03  0.65864270000E+03 0.  1.
    8880022    1    1    2    0    0 -0.73182063126E+02  0.29629328597E+03 -0.30791218156E+03  0.45972479838E+03  0.15294330000E+03 0.  0.
<mgrwt>
<rscale>  0 0.60113665E+03</rscale>
<asrwt>0</asrwt>
<pdfrwt beam="1">  1        1 0.89896826E-01 0.72591703E+03</pdfrwt>
<pdfrwt beam="2">  1       -1 0.11275730E+00 0.72591703E+03</pdfrwt>
<totfact> 0.26307320E+01</totfact>
</mgrwt>
</event>
<event>
 4    1  0.1043382E-007  0.6625190E+03  0.7818608E-02  0.1021712E+00
          1   -1    0    0  501    0  0.00000000000E+00  0.00000000000E+00  0.79908959093E+03  0.79908959095E+03  0.50400000000E-02 0. -1.
         -1   -1    0    0    0  501 -0.00000000000E+00 -0.00000000000E+00 -0.32541908800E+03  0.32541908804E+03  0.50400000000E-02 0.  1.
    8880023    1    1    2    0    0 -0.67588839656E+02  0.23515221017E+02  0.45308313929E+02  0.66406646237E+03  0.65864270000E+03 0.  1.
    8880022    1    1    2    0    0  0.67588839656E+02 -0.23515221017E+02  0.42836218901E+03  0.46044221662E+03  0.15294330000E+03 0.  0.
<mgrwt>
<rscale>  0 0.47073758E+03</rscale>
<asrwt>0</asrwt>
<pdfrwt beam="1">  1        1 0.12293686E+00 0.66251900E+03</pdfrwt>
<pdfrwt beam="2">  1       -1 0.50064475E-01 0.66251900E+03</pdfrwt>
<totfact> 0.91050630E+01</totfact>
</mgrwt>
</event>
<event>
 4    1  0.1043382E-007  0.6973895E+03  0.7818608E-02  0.1000821E+00
          1   -1    0    0  501    0  0.00000000000E+00  0.00000000000E+00  0.91029296386E+03  0.91029296387E+03  0.50400000000E-02 0. -1.
         -1   -1    0    0    0  501 -0.00000000000E+00 -0.00000000000E+00 -0.53985825323E+03  0.53985825326E+03  0.50400000000E-02 0.  1.
    8880023    1    1    2    0    0  0.21033873383E+03  0.91101842741E+02 -0.27399092982E+03  0.74928176582E+03  0.65864270000E+03 0.  1.
    8880022    1    1    2    0    0 -0.21033873383E+03 -0.91101842741E+02  0.64442564045E+03  0.70086945131E+03  0.15294330000E+03 0.  0.
<mgrwt>
<rscale>  0 0.55291809E+03</rscale>
<asrwt>0</asrwt>
<pdfrwt beam="1">  1        1 0.14004507E+00 0.69738951E+03</pdfrwt>
<pdfrwt beam="2">  1       -1 0.83055116E-01 0.69738951E+03</pdfrwt>
<totfact> 0.26543316E+01</totfact>
</mgrwt>
</event>
<event>
 4    1  0.1043382E-007  0.6696609E+03  0.7818608E-02  0.1015907E+00
          1   -1    0    0  501    0  0.00000000000E+00  0.00000000000E+00  0.13951143333E+04  0.13951143333E+04  0.50400000000E-02 0. -1.
         -1   -1    0    0    0  501 -0.00000000000E+00 -0.00000000000E+00 -0.28726108134E+03  0.28726108138E+03  0.50400000000E-02 0.  1.
    8880023    1    1    2    0    0 -0.15805219927E+02  0.11994047848E+03  0.12608433237E+03  0.68142717035E+03  0.65864270000E+03 0.  1.
    8880022    1    1    2    0    0  0.15805219927E+02 -0.11994047848E+03  0.98176891956E+03  0.10009482443E+04  0.15294330000E+03 0.  0.
<mgrwt>
<rscale>  0 0.49192962E+03</rscale>
<asrwt>0</asrwt>
<pdfrwt beam="1">  1        1 0.21463297E+00 0.66966091E+03</pdfrwt>
<pdfrwt beam="2">  1       -1 0.44194013E-01 0.66966091E+03</pdfrwt>
<totfact> 0.40740536E+01</totfact>
</mgrwt>
</event>
<event>
 4    1  0.1043382E-007  0.7983503E+03  0.7818608E-02  0.9714374E-01
         -1   -1    0    0    0  501 -0.00000000000E+00  0.00000000000E+00  0.93227031719E+03  0.93227031721E+03  0.50400000000E-02 0.  1.
          1   -1    0    0  501    0  0.00000000000E+00 -0.00000000000E+00 -0.97532057001E+03  0.97532057003E+03  0.50400000000E-02 0. -1.
    8880023    1    1    2    0    0  0.44401206129E+03 -0.80039540010E+02  0.67528531647E+03  0.10456450179E+04  0.65864270000E+03 0.  1.
    8880022    1    1    2    0    0 -0.44401206129E+03  0.80039540010E+02 -0.71833556929E+03  0.86194586934E+03  0.15294330000E+03 0. -1.
<mgrwt>
<rscale>  0 0.70167360E+03</rscale>
<asrwt>0</asrwt>
<pdfrwt beam="1">  1        1 0.15004932E+00 0.79835033E+03</pdfrwt>
<pdfrwt beam="2">  1       -1 0.14342620E+00 0.79835033E+03</pdfrwt>
<totfact> 0.63956947E+00</totfact>
</mgrwt>
</event>
<event>
 4    1  0.1043382E-007  0.9417570E+03  0.7818608E-02  0.9462075E-01
          1   -1    0    0  501    0  0.00000000000E+00  0.00000000000E+00  0.12284927776E+04  0.12284927776E+04  0.50400000000E-02 0. -1.
         -1   -1    0    0    0  501 -0.00000000000E+00 -0.00000000000E+00 -0.97036748269E+03  0.97036748270E+03  0.50400000000E-02 0.  1.
    8880023    1    1    2    0    0  0.45379604666E+03 -0.49715705398E+03 -0.58541749130E+03  0.11088822452E+04  0.65864270000E+03 0.  0.
    8880022    1    1    2    0    0 -0.45379604666E+03  0.49715705398E+03  0.84354278623E+03  0.10899780151E+04  0.15294330000E+03 0.  0.
<mgrwt>
<rscale>  0 0.87138602E+03</rscale>
<asrwt>0</asrwt>
<pdfrwt beam="1">  1        1 0.18899889E+00 0.94175697E+03</pdfrwt>
<pdfrwt beam="2">  1       -1 0.14928730E+00 0.94175697E+03</pdfrwt>
<totfact> 0.36398122E+00</totfact>
</mgrwt>
</event>
<event>
 4    1  0.1043382E-007  0.7611672E+03  0.7818608E-02  0.9802095E-01
         -1   -1    0    0    0  501 -0.00000000000E+00  0.00000000000E+00  0.23688211039E+03  0.23688211044E+03  0.50400000000E-02 0.  1.
          1   -1    0    0  501    0  0.00000000000E+00 -0.00000000000E+00 -0.23885682266E+04  0.23885682266E+04  0.50400000000E-02 0. -1.
    8880023    1    1    2    0    0 -0.17197537467E+03  0.34057274793E+03 -0.47072401629E+03  0.89496180472E+03  0.65864270000E+03 0.  1.
    8880022    1    1    2    0    0  0.17197537467E+03 -0.34057274793E+03 -0.16809620999E+04  0.17304885323E+04  0.15294330000E+03 0.  0.
<mgrwt>
<rscale>  0 0.65250234E+03</rscale>
<asrwt>0</asrwt>
<pdfrwt beam="1">  1        1 0.36747202E+00 0.76116722E+03</pdfrwt>
<pdfrwt beam="2">  1       -1 0.36443403E-01 0.76116722E+03</pdfrwt>
<totfact> 0.12236832E+01</totfact>
</mgrwt>
</event>
<event>
 4    1  0.1043382E-007  0.7267731E+03  0.7818608E-02  0.9900301E-01
          1   -1    0    0  501    0  0.00000000000E+00  0.00000000000E+00  0.11896655677E+04  0.11896655677E+04  0.50400000000E-02 0. -1.
         -1   -1    0    0    0  501 -0.00000000000E+00 -0.00000000000E+00 -0.29169776147E+03  0.29169776151E+03  0.50400000000E-02 0.  1.
    8880023    1    1    2    0    0 -0.10442996760E+03  0.28893474412E+03  0.28855641067E+03  0.78196158019E+03  0.65864270000E+03 0.  1.
    8880022    1    1    2    0    0  0.10442996760E+03 -0.28893474412E+03  0.60941139554E+03  0.69940174901E+03  0.15294330000E+03 0.  0.
<mgrwt>
<rscale>  0 0.60246709E+03</rscale>
<asrwt>0</asrwt>
<pdfrwt beam="1">  1        1 0.18302547E+00 0.72677308E+03</pdfrwt>
<pdfrwt beam="2">  1       -1 0.44876578E-01 0.72677308E+03</pdfrwt>
<totfact> 0.54982227E+01</totfact>
</mgrwt>
</event>
<event>
 4    1  0.1043382E-007  0.6838852E+03  0.7818608E-02  0.1007206E+00
          1   -1    0    0  501    0  0.00000000000E+00  0.00000000000E+00  0.21788108501E+04  0.21788108501E+04  0.50400000000E-02 0. -1.
         -1   -1    0    0    0  501 -0.00000000000E+00 -0.00000000000E+00 -0.28250258136E+03  0.28250258140E+03  0.50400000000E-02 0.  1.
    8880023    1    1    2    0    0  0.18259325447E+03  0.23419689688E+02  0.15188478662E+03  0.70054833746E+03  0.65864270000E+03 0.  1.
    8880022    1    1    2    0    0 -0.18259325447E+03 -0.23419689688E+02  0.17444234821E+04  0.17607650941E+04  0.15294330000E+03 0.  0.
<mgrwt>
<rscale>  0 0.52600297E+03</rscale>
<asrwt>0</asrwt>
<pdfrwt beam="1">  1        1 0.33520167E+00 0.68388521E+03</pdfrwt>
<pdfrwt beam="2">  1       -1 0.43461935E-01 0.68388521E+03</pdfrwt>
<totfact> 0.12456221E+01</totfact>
</mgrwt>
</event>
<event>
 4    1  0.1043382E-007  0.6871764E+03  0.7818608E-02  0.1005525E+00
         -1   -1    0    0    0  501 -0.00000000000E+00  0.00000000000E+00  0.33817653516E+03  0.33817653520E+03  0.50400000000E-02 0.  1.
          1   -1    0    0  501    0  0.00000000000E+00 -0.00000000000E+00 -0.11459970707E+04  0.11459970707E+04  0.50400000000E-02 0. -1.
    8880023    1    1    2    0    0  0.11871050651E+03  0.15591353750E+03 -0.52705554034E+02  0.68919467295E+03  0.65864270000E+03 0.  1.
    8880022    1    1    2    0    0 -0.11871050651E+03 -0.15591353750E+03 -0.75511498151E+03  0.79497893296E+03  0.15294330000E+03 0.  0.
<mgrwt>
<rscale>  0 0.53292792E+03</rscale>
<asrwt>0</asrwt>
<pdfrwt beam="1">  1        1 0.17630724E+00 0.68717641E+03</pdfrwt>
<pdfrwt beam="2">  1       -1 0.52027160E-01 0.68717641E+03</pdfrwt>
<totfact> 0.45001875E+01</totfact>
</mgrwt>
</event>
<event>
 4    1  0.1043382E-007  0.6650501E+03  0.7818608E-02  0.1019491E+00
         -1   -1    0    0    0  501 -0.00000000000E+00  0.00000000000E+00  0.21725591320E+03  0.21725591326E+03  0.50400000000E-02 0.  1.
          1   -1    0    0  501    0  0.00000000000E+00 -0.00000000000E+00 -0.12847228461E+04  0.12847228461E+04  0.50400000000E-02 0. -1.
    8880023    1    1    2    0    0 -0.90449620344E+02 -0.17328191717E+02 -0.32851053619E+03  0.74176194207E+03  0.65864270000E+03 0.  1.
    8880022    1    1    2    0    0  0.90449620344E+02  0.17328191717E+02 -0.73895639671E+03  0.76021681730E+03  0.15294330000E+03 0.  0.
<mgrwt>
<rscale>  0 0.47870583E+03</rscale>
<asrwt>0</asrwt>
<pdfrwt beam="1">  1        1 0.19764966E+00 0.66505008E+03</pdfrwt>
<pdfrwt beam="2">  1       -1 0.33423987E-01 0.66505008E+03</pdfrwt>
<totfact> 0.80598214E+01</totfact>
</mgrwt>
</event>
<event>
 4    1  0.1043382E-007  0.9311300E+03  0.7818608E-02  0.9477800E-01
          1   -1    0    0  501    0  0.00000000000E+00  0.00000000000E+00  0.12359117421E+04  0.12359117421E+04  0.50400000000E-02 0. -1.
         -1   -1    0    0    0  501 -0.00000000000E+00 -0.00000000000E+00 -0.71564512909E+03  0.71564512911E+03  0.50400000000E-02 0.  1.
    8880023    1    1    2    0    0 -0.52389228041E+03 -0.39840902982E+03 -0.21221389272E+03  0.95500671152E+03  0.65864270000E+03 0.  1.
    8880022    1    1    2    0    0  0.52389228041E+03  0.39840902982E+03  0.73248050575E+03  0.99655015972E+03  0.15294330000E+03 0. -1.
<mgrwt>
<rscale>  0 0.85940503E+03</rscale>
<asrwt>0</asrwt>
<pdfrwt beam="1">  1        1 0.19014027E+00 0.93113000E+03</pdfrwt>
<pdfrwt beam="2">  1       -1 0.11009925E+00 0.93113000E+03</pdfrwt>
<totfact> 0.77502286E+00</totfact>
</mgrwt>
</event>
<event>
 4    1  0.1043382E-007  0.8849767E+03  0.7818608E-02  0.9550592E-01
         -1   -1    0    0    0  501 -0.00000000000E+00  0.00000000000E+00  0.11759095366E+04  0.11759095366E+04  0.50400000000E-02 0.  1.
          1   -1    0    0  501    0  0.00000000000E+00 -0.00000000000E+00 -0.90780727885E+03  0.90780727886E+03  0.50400000000E-02 0. -1.
    8880023    1    1    2    0    0  0.35090841448E+03  0.47564362639E+03  0.85953177656E+03  0.12336849905E+04  0.65864270000E+03 0.  1.
    8880022    1    1    2    0    0 -0.35090841448E+03 -0.47564362639E+03 -0.59142951881E+03  0.85003182494E+03  0.15294330000E+03 0.  0.
<mgrwt>
<rscale>  0 0.80654445E+03</rscale>
<asrwt>0</asrwt>
<pdfrwt beam="1">  1        1 0.13966266E+00 0.88497671E+03</pdfrwt>
<pdfrwt beam="2">  1       -1 0.18090916E+00 0.88497671E+03</pdfrwt>
<totfact> 0.37413676E+00</totfact>
</mgrwt>
</event>
<event>
 4    1  0.1043382E-007  0.1029779E+04  0.7818608E-02  0.9343595E-01
          1   -1    0    0  501    0  0.00000000000E+00  0.00000000000E+00  0.11598267921E+04  0.11598267921E+04  0.50400000000E-02 0. -1.
         -1   -1    0    0    0  501 -0.00000000000E+00 -0.00000000000E+00 -0.92674215919E+03  0.92674215920E+03  0.50400000000E-02 0.  1.
    8880023    1    1    2    0    0 -0.50637736413E+03  0.60845369829E+03 -0.35432753275E+03  0.10890326646E+04  0.65864270000E+03 0.  1.
    8880022    1    1    2    0    0  0.50637736413E+03 -0.60845369829E+03  0.58741216561E+03  0.99753628665E+03  0.15294330000E+03 0.  0.
<mgrwt>
<rscale>  0 0.96866639E+03</rscale>
<asrwt>0</asrwt>
<pdfrwt beam="1">  1        1 0.17843489E+00 0.10297787E+04</pdfrwt>
<pdfrwt beam="2">  1       -1 0.14257572E+00 0.10297787E+04</pdfrwt>
<totfact> 0.45685754E+00</totfact>
</mgrwt>
</event>
<event>
 4    1  0.1043382E-007  0.1196254E+04  0.7818608E-02  0.9160773E-01
          1   -1    0    0  501    0  0.00000000000E+00  0.00000000000E+00  0.12368085974E+04  0.12368085974E+04  0.50400000000E-02 0. -1.
         -1   -1    0    0    0  501 -0.00000000000E+00 -0.00000000000E+00 -0.12627979165E+04  0.12627979165E+04  0.50400000000E-02 0.  1.
    8880023    1    1    2    0    0 -0.90713925467E+03 -0.41750525790E+03 -0.59934280420E+03  0.13379963643E+04  0.65864270000E+03 0.  1.
    8880022    1    1    2    0    0  0.90713925467E+03  0.41750525790E+03  0.57335348510E+03  0.11616101496E+04  0.15294330000E+03 0.  0.
<mgrwt>
<rscale>  0 0.11467654E+04</rscale>
<asrwt>0</asrwt>
<pdfrwt beam="1">  1        1 0.19027824E+00 0.11962535E+04</pdfrwt>
<pdfrwt beam="2">  1       -1 0.19427660E+00 0.11962535E+04</pdfrwt>
<totfact> 0.16244158E+00</totfact>
</mgrwt>
</event>
<event>
 4    1  0.1043382E-007  0.8895299E+03  0.7818608E-02  0.9543053E-01
          1   -1    0    0  501    0  0.00000000000E+00  0.00000000000E+00  0.51601784753E+03  0.51601784755E+03  0.50400000000E-02 0. -1.
         -1   -1    0    0    0  501 -0.00000000000E+00 -0.00000000000E+00 -0.15657721560E+04  0.15657721560E+04  0.50400000000E-02 0.  1.
    8880023    1    1    2    0    0 -0.19581332057E+02 -0.59755321466E+03 -0.11528262930E+04  0.14561153598E+04  0.65864270000E+03 0.  1.
    8880022    1    1    2    0    0  0.19581332057E+02  0.59755321466E+03  0.10307198448E+03  0.62567464382E+03  0.15294330000E+03 0.  0.
<mgrwt>
<rscale>  0 0.81182784E+03</rscale>
<asrwt>0</asrwt>
<pdfrwt beam="1">  1        1 0.79387362E-01 0.88952992E+03</pdfrwt>
<pdfrwt beam="2">  1       -1 0.24088802E+00 0.88952992E+03</pdfrwt>
<totfact> 0.34650080E+00</totfact>
</mgrwt>
</event>
<event>
 4    1  0.1043382E-007  0.9878051E+03  0.7818608E-02  0.9397689E-01
          1   -1    0    0  501    0  0.00000000000E+00  0.00000000000E+00  0.73893843545E+03  0.73893843547E+03  0.50400000000E-02 0. -1.
         -1   -1    0    0    0  501 -0.00000000000E+00 -0.00000000000E+00 -0.11616373616E+04  0.11616373616E+04  0.50400000000E-02 0.  1.
    8880023    1    1    2    0    0 -0.49754080244E+03  0.54258812303E+03 -0.56111571276E+03  0.11360500740E+04  0.65864270000E+03 0.  1.
    8880022    1    1    2    0    0  0.49754080244E+03 -0.54258812303E+03  0.13841678662E+03  0.76452572304E+03  0.15294330000E+03 0.  0.
<mgrwt>
<rscale>  0 0.92266108E+03</rscale>
<asrwt>0</asrwt>
<pdfrwt beam="1">  1        1 0.11368284E+00 0.98780511E+03</pdfrwt>
<pdfrwt beam="2">  1       -1 0.17871344E+00 0.98780511E+03</pdfrwt>
<totfact> 0.53526690E+00</totfact>
</mgrwt>
</event>
<event>
 4    1  0.1043382E-007  0.6758781E+03  0.7818608E-02  0.1011758E+00
          1   -1    0    0  501    0  0.00000000000E+00  0.00000000000E+00  0.16552825177E+04  0.16552825177E+04  0.50400000000E-02 0. -1.
         -1   -1    0    0    0  501 -0.00000000000E+00 -0.00000000000E+00 -0.33290283809E+03  0.33290283813E+03  0.50400000000E-02 0.  1.
    8880023    1    1    2    0    0 -0.10362279236E+03 -0.11074015877E+03  0.28477059254E+02  0.67647780084E+03  0.65864270000E+03 0.  1.
    8880022    1    1    2    0    0  0.10362279236E+03  0.11074015877E+03  0.12939026204E+04  0.13117075550E+04  0.15294330000E+03 0.  0.
<mgrwt>
<rscale>  0 0.50781735E+03</rscale>
<asrwt>0</asrwt>
<pdfrwt beam="1">  1        1 0.25465885E+00 0.67587815E+03</pdfrwt>
<pdfrwt beam="2">  1       -1 0.51215821E-01 0.67587815E+03</pdfrwt>
<totfact> 0.20532407E+01</totfact>
</mgrwt>
</event>
<event>
 4    1  0.1043382E-007  0.7443675E+03  0.7818608E-02  0.9847403E-01
         -1   -1    0    0    0  501 -0.00000000000E+00  0.00000000000E+00  0.90179402101E+03  0.90179402102E+03  0.50400000000E-02 0.  1.
          1   -1    0    0  501    0  0.00000000000E+00 -0.00000000000E+00 -0.54354717325E+03  0.54354717327E+03  0.50400000000E-02 0. -1.
    8880023    1    1    2    0    0  0.84278313431E+02  0.33640737403E+03  0.63306342007E+03  0.97716541870E+03  0.65864270000E+03 0.  1.
    8880022    1    1    2    0    0 -0.84278313431E+02 -0.33640737403E+03 -0.27481657231E+03  0.46817577559E+03  0.15294330000E+03 0.  0.
<mgrwt>
<rscale>  0 0.62879517E+03</rscale>
<asrwt>0</asrwt>
<pdfrwt beam="1">  1        1 0.83622642E-01 0.74436749E+03</pdfrwt>
<pdfrwt beam="2">  1       -1 0.13873754E+00 0.74436749E+03</pdfrwt>
<totfact> 0.17396489E+01</totfact>
</mgrwt>
</event>
<event>
 4    1  0.1043382E-007  0.8350198E+03  0.7818608E-02  0.9639643E-01
         -1   -1    0    0    0  501 -0.00000000000E+00  0.00000000000E+00  0.28542860353E+03  0.28542860358E+03  0.50400000000E-02 0.  1.
          1   -1    0    0  501    0  0.00000000000E+00 -0.00000000000E+00 -0.26578235044E+04  0.26578235044E+04  0.50400000000E-02 0. -1.
    8880023    1    1    2    0    0  0.15795616990E+03 -0.48836226511E+03 -0.45186279038E+03  0.94944090979E+03  0.65864270000E+03 0.  1.
    8880022    1    1    2    0    0 -0.15795616990E+03  0.48836226511E+03 -0.19205321104E+04  0.19938111981E+04  0.15294330000E+03 0.  0.
<mgrwt>
<rscale>  0 0.74726983E+03</rscale>
<asrwt>0</asrwt>
<pdfrwt beam="1">  1        1 0.40889591E+00 0.83501980E+03</pdfrwt>
<pdfrwt beam="2">  1       -1 0.43912095E-01 0.83501980E+03</pdfrwt>
<totfact> 0.56320667E+00</totfact>
</mgrwt>
</event>
<event>
 4    1  0.1043382E-007  0.6646432E+03  0.7818608E-02  0.1019835E+00
         -1   -1    0    0    0  501 -0.00000000000E+00  0.00000000000E+00  0.69640424725E+03  0.69640424727E+03  0.50400000000E-02 0.  1.
          1   -1    0    0  501    0  0.00000000000E+00 -0.00000000000E+00 -0.69039847973E+03  0.69039847975E+03  0.50400000000E-02 0. -1.
    8880023    1    1    2    0    0  0.12043688671E+02  0.88291335572E+02  0.51954727941E+03  0.84361128026E+03  0.65864270000E+03 0.  1.
    8880022    1    1    2    0    0 -0.12043688671E+02 -0.88291335572E+02 -0.51354151189E+03  0.54319144675E+03  0.15294330000E+03 0.  0.
<mgrwt>
<rscale>  0 0.47746337E+03</rscale>
<asrwt>0</asrwt>
<pdfrwt beam="1">  1        1 0.10621515E+00 0.66464323E+03</pdfrwt>
<pdfrwt beam="2">  1       -1 0.10713911E+00 0.66464323E+03</pdfrwt>
<totfact> 0.23415109E+01</totfact>
</mgrwt>
</event>
<event>
 4    1  0.1043382E-007  0.6689788E+03  0.7818608E-02  0.1016406E+00
         -1   -1    0    0    0  501 -0.00000000000E+00  0.00000000000E+00  0.25601837550E+03  0.25601837554E+03  0.50400000000E-02 0.  1.
          1   -1    0    0  501    0  0.00000000000E+00 -0.00000000000E+00 -0.10106067371E+04  0.10106067371E+04  0.50400000000E-02 0. -1.
    8880023    1    1    2    0    0  0.19857599201E+02 -0.11544768703E+03 -0.22940065878E+03  0.70721804360E+03  0.65864270000E+03 0.  1.
    8880022    1    1    2    0    0 -0.19857599201E+02  0.11544768703E+03 -0.52518770278E+03  0.55940706901E+03  0.15294330000E+03 0.  0.
<mgrwt>
<rscale>  0 0.49006278E+03</rscale>
<asrwt>0</asrwt>
<pdfrwt beam="1">  1        1 0.15547796E+00 0.66897885E+03</pdfrwt>
<pdfrwt beam="2">  1       -1 0.39387443E-01 0.66897885E+03</pdfrwt>
<totfact> 0.95505694E+01</totfact>
</mgrwt>
</event>
<event>
 4    1  0.1043382E-007  0.1004876E+04  0.7818608E-02  0.9375206E-01
         -1   -1    0    0    0  501 -0.00000000000E+00  0.00000000000E+00  0.22281975315E+04  0.22281975315E+04  0.50400000000E-02 0.  1.
          1   -1    0    0  501    0  0.00000000000E+00 -0.00000000000E+00 -0.85998086966E+03  0.85998086967E+03  0.50400000000E-02 0. -1.
    8880023    1    1    2    0    0  0.58943523112E+03  0.47804944944E+03  0.18997127977E+04  0.21491123954E+04  0.65864270000E+03 0.  1.
    8880022    1    1    2    0    0 -0.58943523112E+03 -0.47804944944E+03 -0.53149613589E+03  0.93906600581E+03  0.15294330000E+03 0.  0.
<mgrwt>
<rscale>  0 0.94144504E+03</rscale>
<asrwt>0</asrwt>
<pdfrwt beam="1">  1        1 0.13230475E+00 0.10048758E+04</pdfrwt>
<pdfrwt beam="2">  1       -1 0.34279962E+00 0.10048758E+04</pdfrwt>
<totfact> 0.34697950E-01</totfact>
</mgrwt>
</event>
<event>
 4    1  0.1043382E-007  0.6981851E+03  0.7818608E-02  0.1000482E+00
         -1   -1    0    0    0  501 -0.00000000000E+00  0.00000000000E+00  0.36293890250E+03  0.36293890254E+03  0.50400000000E-02 0.  1.
          1   -1    0    0  501    0  0.00000000000E+00 -0.00000000000E+00 -0.75461188890E+03  0.75461188891E+03  0.50400000000E-02 0. -1.
    8880023    1    1    2    0    0  0.22241124389E+03  0.64694762940E+02 -0.45433720263E+03  0.83299740319E+03  0.65864270000E+03 0. -1.
    8880022    1    1    2    0    0 -0.22241124389E+03 -0.64694762940E+02  0.62664216234E+02  0.28455338826E+03  0.15294330000E+03 0.  0.
<mgrwt>
<rscale>  0 0.55439607E+03</rscale>
<asrwt>0</asrwt>
<pdfrwt beam="1">  1        1 0.11609414E+00 0.69818506E+03</pdfrwt>
<pdfrwt beam="2">  1       -1 0.55836754E-01 0.69818506E+03</pdfrwt>
<totfact> 0.80608442E+01</totfact>
</mgrwt>
</event>
<event>
 4    1  0.1043382E-007  0.7284449E+03  0.7818608E-02  0.9894983E-01
          1   -1    0    0  501    0  0.00000000000E+00  0.00000000000E+00  0.82258535716E+03  0.82258535717E+03  0.50400000000E-02 0. -1.
         -1   -1    0    0    0  501 -0.00000000000E+00 -0.00000000000E+00 -0.87369728205E+03  0.87369728207E+03  0.50400000000E-02 0.  1.
    8880023    1    1    2    0    0 -0.23003102703E+03 -0.20954116963E+03 -0.66817791399E+03  0.98848050369E+03  0.65864270000E+03 0.  1.
    8880022    1    1    2    0    0  0.23003102703E+03  0.20954116963E+03  0.61706598910E+03  0.70780213555E+03  0.15294330000E+03 0.  0.
<mgrwt>
<rscale>  0 0.60505054E+03</rscale>
<asrwt>0</asrwt>
<pdfrwt beam="1">  1        1 0.12655159E+00 0.72844491E+03</pdfrwt>
<pdfrwt beam="2">  1       -1 0.13441497E+00 0.72844491E+03</pdfrwt>
<totfact> 0.10181297E+01</totfact>
</mgrwt>
</event>
<event>
 4    1  0.1043382E-007  0.1082863E+04  0.7818608E-02  0.9280380E-01
          1   -1    0    0  501    0  0.00000000000E+00  0.00000000000E+00  0.17256809973E+04  0.17256809973E+04  0.50400000000E-02 0. -1.
         -1   -1    0    0    0  501 -0.00000000000E+00 -0.00000000000E+00 -0.98997807138E+03  0.98997807139E+03  0.50400000000E-02 0.  1.
    8880023    1    1    2    0    0  0.78419177215E+03 -0.35188808258E+03 -0.50802328398E+03  0.11961102882E+04  0.65864270000E+03 0.  0.
    8880022    1    1    2    0    0 -0.78419177215E+03  0.35188808258E+03  0.12437262099E+04  0.15195487805E+04  0.15294330000E+03 0.  0.
<mgrwt>
<rscale>  0 0.10260933E+04</rscale>
<asrwt>0</asrwt>
<pdfrwt beam="1">  1        1 0.26548938E+00 0.10828629E+04</pdfrwt>
<pdfrwt beam="2">  1       -1 0.15230432E+00 0.10828629E+04</pdfrwt>
<totfact> 0.15265653E+00</totfact>
</mgrwt>
</event>
<event>
 4    1  0.1043382E-007  0.6760151E+03  0.7818608E-02  0.1011674E+00
          1   -1    0    0  501    0  0.00000000000E+00  0.00000000000E+00  0.71852741792E+03  0.71852741794E+03  0.50400000000E-02 0. -1.
         -1   -1    0    0    0  501 -0.00000000000E+00 -0.00000000000E+00 -0.53183770362E+03  0.53183770364E+03  0.50400000000E-02 0.  1.
    8880023    1    1    2    0    0  0.10126405255E+03  0.11371789157E+03 -0.28346589722E+03  0.73304112323E+03  0.65864270000E+03 0.  1.
    8880022    1    1    2    0    0 -0.10126405255E+03 -0.11371789157E+03  0.47015561152E+03  0.51732399834E+03  0.15294330000E+03 0.  0.
<mgrwt>
<rscale>  0 0.50814736E+03</rscale>
<asrwt>0</asrwt>
<pdfrwt beam="1">  1        1 0.11054268E+00 0.67601507E+03</pdfrwt>
<pdfrwt beam="2">  1       -1 0.81821186E-01 0.67601507E+03</pdfrwt>
<totfact> 0.40129892E+01</totfact>
</mgrwt>
</event>
<event>
 4    1  0.1043382E-007  0.8251810E+03  0.7818608E-02  0.9658782E-01
          1   -1    0    0  501    0  0.00000000000E+00  0.00000000000E+00  0.10437469779E+04  0.10437469780E+04  0.50400000000E-02 0. -1.
         -1   -1    0    0    0  501 -0.00000000000E+00 -0.00000000000E+00 -0.12459782875E+04  0.12459782875E+04  0.50400000000E-02 0.  1.
    8880023    1    1    2    0    0 -0.33204910371E+03 -0.36994180128E+03 -0.10252892118E+04  0.13161085509E+04  0.65864270000E+03 0.  0.
    8880022    1    1    2    0    0  0.33204910371E+03  0.36994180128E+03  0.82305790220E+03  0.97361671463E+03  0.15294330000E+03 0.  0.
<mgrwt>
<rscale>  0 0.73524805E+03</rscale>
<asrwt>0</asrwt>
<pdfrwt beam="1">  1        1 0.16057646E+00 0.82518104E+03</pdfrwt>
<pdfrwt beam="2">  1       -1 0.19168897E+00 0.82518104E+03</pdfrwt>
<totfact> 0.24764440E+00</totfact>
</mgrwt>
</event>
<event>
 4    1  0.1043382E-007  0.7551989E+03  0.7818608E-02  0.9817699E-01
         -1   -1    0    0    0  501 -0.00000000000E+00  0.00000000000E+00  0.76027951658E+03  0.76027951659E+03  0.50400000000E-02 0.  1.
          1   -1    0    0  501    0  0.00000000000E+00 -0.00000000000E+00 -0.56717603400E+03  0.56717603402E+03  0.50400000000E-02 0. -1.
    8880023    1    1    2    0    0 -0.27516550265E+03  0.24657469442E+03  0.42360989219E+03  0.86589299616E+03  0.65864270000E+03 0.  1.
    8880022    1    1    2    0    0  0.27516550265E+03 -0.24657469442E+03 -0.23050640962E+03  0.46156255445E+03  0.15294330000E+03 0.  0.
<mgrwt>
<rscale>  0 0.64421282E+03</rscale>
<asrwt>0</asrwt>
<pdfrwt beam="1">  1        1 0.87257852E-01 0.75519887E+03</pdfrwt>
<pdfrwt beam="2">  1       -1 0.11696608E+00 0.75519887E+03</pdfrwt>
<totfact> 0.25067846E+01</totfact>
</mgrwt>
</event>
<event>
 4    1  0.1043382E-007  0.1134816E+04  0.7818608E-02  0.9223248E-01
         -1   -1    0    0    0  501 -0.00000000000E+00  0.00000000000E+00  0.15660439453E+04  0.15660439453E+04  0.50400000000E-02 0.  1.
          1   -1    0    0  501    0  0.00000000000E+00 -0.00000000000E+00 -0.10466381927E+04  0.10466381927E+04  0.50400000000E-02 0. -1.
    8880023    1    1    2    0    0  0.89892541578E+03 -0.21431270551E+03  0.10415115983E+04  0.15403095321E+04  0.65864270000E+03 0.  0.
    8880022    1    1    2    0    0 -0.89892541578E+03  0.21431270551E+03 -0.52210584567E+03  0.10723726059E+04  0.15294330000E+03 0.  0.
<mgrwt>
<rscale>  0 0.10816657E+04</rscale>
<asrwt>0</asrwt>
<pdfrwt beam="1">  1        1 0.16102126E+00 0.11348159E+04</pdfrwt>
<pdfrwt beam="2">  1       -1 0.24092984E+00 0.11348159E+04</pdfrwt>
<totfact> 0.11011781E+00</totfact>
</mgrwt>
</event>
<event>
 4    1  0.1043382E-007  0.8955893E+03  0.7818608E-02  0.9533150E-01
         -1   -1    0    0    0  501 -0.00000000000E+00  0.00000000000E+00  0.12742235443E+04  0.12742235443E+04  0.50400000000E-02 0.  1.
          1   -1    0    0  501    0  0.00000000000E+00 -0.00000000000E+00 -0.68378649516E+03  0.68378649518E+03  0.50400000000E-02 0. -1.
    8880023    1    1    2    0    0  0.73658180847E+02  0.60236579406E+03  0.89138151542E+03  0.12635827198E+04  0.65864270000E+03 0.  0.
    8880022    1    1    2    0    0 -0.73658180847E+02 -0.60236579406E+03 -0.30094446633E+03  0.69442731966E+03  0.15294330000E+03 0.  0.
<mgrwt>
<rscale>  0 0.81883346E+03</rscale>
<asrwt>0</asrwt>
<pdfrwt beam="1">  1        1 0.10519792E+00 0.89558935E+03</pdfrwt>
<pdfrwt beam="2">  1       -1 0.19603439E+00 0.89558935E+03</pdfrwt>
<totfact> 0.45997989E+00</totfact>
</mgrwt>
</event>
<event>
 4    1  0.1043382E-007  0.6675846E+03  0.7818608E-02  0.1017457E+00
          1   -1    0    0  501    0  0.00000000000E+00  0.00000000000E+00  0.79496114824E+03  0.79496114826E+03  0.50400000000E-02 0. -1.
         -1   -1    0    0    0  501 -0.00000000000E+00 -0.00000000000E+00 -0.26214529416E+03  0.26214529421E+03  0.50400000000E-02 0.  1.
    8880023    1    1    2    0    0 -0.76283751333E+02 -0.77716152321E+02  0.24029212299E+03  0.70951358104E+03  0.65864270000E+03 0.  0.
    8880022    1    1    2    0    0  0.76283751333E+02  0.77716152321E+02  0.29252373108E+03  0.34759286142E+03  0.15294330000E+03 0.  0.
<mgrwt>
<rscale>  0 0.48615600E+03</rscale>
<asrwt>0</asrwt>
<pdfrwt beam="1">  1        1 0.12230171E+00 0.66758461E+03</pdfrwt>
<pdfrwt beam="2">  1       -1 0.40330046E-01 0.66758461E+03</pdfrwt>
<totfact> 0.13698397E+02</totfact>
</mgrwt>
</event>
<event>
 4    1  0.1043382E-007  0.8505964E+03  0.7818608E-02  0.9610515E-01
         -1   -1    0    0    0  501 -0.00000000000E+00  0.00000000000E+00  0.87488178328E+03  0.87488178329E+03  0.50400000000E-02 0.  1.
          1   -1    0    0  501    0  0.00000000000E+00 -0.00000000000E+00 -0.15219860906E+04  0.15219860906E+04  0.50400000000E-02 0. -1.
    8880023    1    1    2    0    0 -0.98162662386E+02  0.52921464702E+03  0.59264216173E+03  0.10366961894E+04  0.65864270000E+03 0.  1.
    8880022    1    1    2    0    0  0.98162662386E+02 -0.52921464702E+03 -0.12397464691E+04  0.13601716845E+04  0.15294330000E+03 0.  0.
<mgrwt>
<rscale>  0 0.76604150E+03</rscale>
<asrwt>0</asrwt>
<pdfrwt beam="1">  1        1 0.23415171E+00 0.85059641E+03</pdfrwt>
<pdfrwt beam="2">  1       -1 0.13459720E+00 0.85059641E+03</pdfrwt>
<totfact> 0.30121322E+00</totfact>
</mgrwt>
</event>
<event>
 4    1  0.1043382E-007  0.1649580E+04  0.7818608E-02  0.8810651E-01
          1   -1    0    0  501    0  0.00000000000E+00  0.00000000000E+00  0.28769364699E+04  0.28769364699E+04  0.50400000000E-02 0. -1.
         -1   -1    0    0    0  501 -0.00000000000E+00 -0.00000000000E+00 -0.13521010992E+04  0.13521010992E+04  0.50400000000E-02 0.  1.
    8880023    1    1    2    0    0  0.15101635868E+04  0.81911391862E+02 -0.47542142284E+03  0.17167234112E+04  0.65864270000E+03 0.  0.
    8880022    1    1    2    0    0 -0.15101635868E+04 -0.81911391862E+02  0.20002567935E+04  0.25123141579E+04  0.15294330000E+03 0.  0.
<mgrwt>
<rscale>  0 0.16162102E+04</rscale>
<asrwt>0</asrwt>
<pdfrwt beam="1">  1        1 0.44260561E+00 0.16495799E+04</pdfrwt>
<pdfrwt beam="2">  1       -1 0.20801555E+00 0.16495799E+04</pdfrwt>
<totfact> 0.90415971E-02</totfact>
</mgrwt>
</event>
<event>
 4    1  0.1043382E-007  0.1233328E+04  0.7818608E-02  0.9125387E-01
          1   -1    0    0  501    0  0.00000000000E+00  0.00000000000E+00  0.32187122679E+04  0.32187122679E+04  0.50400000000E-02 0. -1.
         -1   -1    0    0    0  501 -0.00000000000E+00 -0.00000000000E+00 -0.44998648210E+03  0.44998648213E+03  0.50400000000E-02 0.  1.
    8880023    1    1    2    0    0  0.44376446637E+03 -0.94358977166E+03  0.20522382915E+04  0.23943226119E+04  0.65864270000E+03 0. -1.
    8880022    1    1    2    0    0 -0.44376446637E+03  0.94358977166E+03  0.71648749433E+03  0.12743761381E+04  0.15294330000E+03 0.  0.
<mgrwt>
<rscale>  0 0.11857897E+04</rscale>
<asrwt>0</asrwt>
<pdfrwt beam="1">  1        1 0.49518650E+00 0.12333283E+04</pdfrwt>
<pdfrwt beam="2">  1       -1 0.69228689E-01 0.12333283E+04</pdfrwt>
<totfact> 0.86660934E-01</totfact>
</mgrwt>
</event>
<event>
 4    1  0.1043382E-007  0.8100657E+03  0.7818608E-02  0.9689440E-01
          1   -1    0    0  501    0  0.00000000000E+00  0.00000000000E+00  0.18855239716E+04  0.18855239716E+04  0.50400000000E-02 0. -1.
         -1   -1    0    0    0  501 -0.00000000000E+00 -0.00000000000E+00 -0.55946934412E+03  0.55946934415E+03  0.50400000000E-02 0.  1.
    8880023    1    1    2    0    0  0.28420848837E+03 -0.37632673464E+03 -0.20505781600E+03  0.83561665268E+03  0.65864270000E+03 0.  0.
    8880022    1    1    2    0    0 -0.28420848837E+03  0.37632673464E+03  0.15311124434E+04  0.16093766630E+04  0.15294330000E+03 0.  0.
<mgrwt>
<rscale>  0 0.71649021E+03</rscale>
<asrwt>0</asrwt>
<pdfrwt beam="1">  1        1 0.29008061E+00 0.81006573E+03</pdfrwt>
<pdfrwt beam="2">  1       -1 0.86072207E-01 0.81006573E+03</pdfrwt>
<totfact> 0.49262659E+00</totfact>
</mgrwt>
</event>
<event>
 4    1  0.1043382E-007  0.6941749E+03  0.7818608E-02  0.1002228E+00
         -1   -1    0    0    0  501 -0.00000000000E+00  0.00000000000E+00  0.10512307611E+04  0.10512307611E+04  0.50400000000E-02 0.  1.
          1   -1    0    0  501    0  0.00000000000E+00 -0.00000000000E+00 -0.26993647916E+03  0.26993647920E+03  0.50400000000E-02 0. -1.
    8880023    1    1    2    0    0 -0.21350834689E+03  0.49826775651E+02  0.79259769724E+03  0.10536080095E+04  0.65864270000E+03 0.  1.
    8880022    1    1    2    0    0  0.21350834689E+03 -0.49826775651E+02 -0.11303415327E+02  0.26755923078E+03  0.15294330000E+03 0. -1.
<mgrwt>
<rscale>  0 0.54683924E+03</rscale>
<asrwt>0</asrwt>
<pdfrwt beam="1">  1        1 0.41528689E-01 0.69417485E+03</pdfrwt>
<pdfrwt beam="2">  1       -1 0.16172781E+00 0.69417485E+03</pdfrwt>
<totfact> 0.29348328E+01</totfact>
</mgrwt>
</event>
<event>
 4    1  0.1043382E-007  0.8285151E+03  0.7818608E-02  0.9652228E-01
         -1   -1    0    0    0  501 -0.00000000000E+00  0.00000000000E+00  0.21222809289E+04  0.21222809289E+04  0.50400000000E-02 0.  1.
          1   -1    0    0  501    0  0.00000000000E+00 -0.00000000000E+00 -0.39133005083E+03  0.39133005086E+03  0.50400000000E-02 0. -1.
    8880023    1    1    2    0    0  0.20016566535E+03  0.46104317053E+03  0.18021081493E+04  0.19834392067E+04  0.65864270000E+03 0.  1.
    8880022    1    1    2    0    0 -0.20016566535E+03 -0.46104317053E+03 -0.71157271233E+02  0.53017177306E+03  0.15294330000E+03 0.  0.
<mgrwt>
<rscale>  0 0.73933736E+03</rscale>
<asrwt>0</asrwt>
<pdfrwt beam="1">  1        1 0.60204622E-01 0.82851512E+03</pdfrwt>
<pdfrwt beam="2">  1       -1 0.32650476E+00 0.82851512E+03</pdfrwt>
<totfact> 0.14302391E+00</totfact>
</mgrwt>
</event>
<event>
 4    1  0.1043382E-007  0.1115609E+04  0.7818608E-02  0.9243874E-01
         -1   -1    0    0    0  501 -0.00000000000E+00  0.00000000000E+00  0.32395868495E+03  0.32395868499E+03  0.50400000000E-02 0.  1.
          1   -1    0    0  501    0  0.00000000000E+00 -0.00000000000E+00 -0.37833686566E+04  0.37833686566E+04  0.50400000000E-02 0. -1.
    8880023    1    1    2    0    0 -0.89439131034E+03  0.10409971482E+03 -0.10556283056E+04  0.15358821219E+04  0.65864270000E+03 0.  1.
    8880022    1    1    2    0    0  0.89439131034E+03 -0.10409971482E+03 -0.24037816660E+04  0.25714452197E+04  0.15294330000E+03 0.  0.
<mgrwt>
<rscale>  0 0.10611832E+04</rscale>
<asrwt>0</asrwt>
<pdfrwt beam="1">  1        1 0.58205668E+00 0.11156087E+04</pdfrwt>
<pdfrwt beam="2">  1       -1 0.49839800E-01 0.11156087E+04</pdfrwt>
<totfact> 0.61069858E-01</totfact>
</mgrwt>
</event>
<event>
 4    1  0.1043382E-007  0.6673248E+03  0.7818608E-02  0.1017658E+00
         -1   -1    0    0    0  501 -0.00000000000E+00  0.00000000000E+00  0.52339136999E+03  0.52339137002E+03  0.50400000000E-02 0.  1.
          1   -1    0    0  501    0  0.00000000000E+00 -0.00000000000E+00 -0.77769509511E+03  0.77769509513E+03  0.50400000000E-02 0. -1.
    8880023    1    1    2    0    0  0.72226021468E+02  0.79345071429E+02  0.28850986494E+03  0.72702158631E+03  0.65864270000E+03 0.  1.
    8880022    1    1    2    0    0 -0.72226021468E+02 -0.79345071429E+02 -0.54281359006E+03  0.57406487883E+03  0.15294330000E+03 0.  0.
<mgrwt>
<rscale>  0 0.48541389E+03</rscale>
<asrwt>0</asrwt>
<pdfrwt beam="1">  1        1 0.11964540E+00 0.66732484E+03</pdfrwt>
<pdfrwt beam="2">  1       -1 0.80521749E-01 0.66732484E+03</pdfrwt>
<totfact> 0.36775815E+01</totfact>
</mgrwt>
</event>
<event>
 4    1  0.1043382E-007  0.9496507E+03  0.7818608E-02  0.9450617E-01
          1   -1    0    0  501    0  0.00000000000E+00  0.00000000000E+00  0.68650672297E+03  0.68650672299E+03  0.50400000000E-02 0. -1.
         -1   -1    0    0    0  501 -0.00000000000E+00 -0.00000000000E+00 -0.13246254915E+04  0.13246254915E+04  0.50400000000E-02 0.  1.
    8880023    1    1    2    0    0  0.65742119467E+03 -0.18927135619E+03 -0.85448386820E+03  0.12774893975E+04  0.65864270000E+03 0.  1.
    8880022    1    1    2    0    0 -0.65742119467E+03  0.18927135619E+03  0.21636509971E+03  0.73364281695E+03  0.15294330000E+03 0.  0.
<mgrwt>
<rscale>  0 0.88024648E+03</rscale>
<asrwt>0</asrwt>
<pdfrwt beam="1">  1        1 0.10561642E+00 0.94965071E+03</pdfrwt>
<pdfrwt beam="2">  1       -1 0.20378854E+00 0.94965071E+03</pdfrwt>
<totfact> 0.40180318E+00</totfact>
</mgrwt>
</event>
<event>
 4    1  0.1043382E-007  0.1006394E+04  0.7818608E-02  0.9373240E-01
         -1   -1    0    0    0  501 -0.00000000000E+00  0.00000000000E+00  0.42285128806E+03  0.42285128809E+03  0.50400000000E-02 0.  1.
          1   -1    0    0  501    0  0.00000000000E+00 -0.00000000000E+00 -0.19122126244E+04  0.19122126244E+04  0.50400000000E-02 0. -1.
    8880023    1    1    2    0    0  0.75037028379E+03  0.12634413712E+03 -0.68564607472E+03  0.12177598901E+04  0.65864270000E+03 0.  1.
    8880022    1    1    2    0    0 -0.75037028379E+03 -0.12634413712E+03 -0.80371526157E+03  0.11173040224E+04  0.15294330000E+03 0. -1.
<mgrwt>
<rscale>  0 0.94311035E+03</rscale>
<asrwt>0</asrwt>
<pdfrwt beam="1">  1        1 0.29418655E+00 0.10063939E+04</pdfrwt>
<pdfrwt beam="2">  1       -1 0.65054045E-01 0.10063939E+04</pdfrwt>
<totfact> 0.82666673E+00</totfact>
</mgrwt>
</event>
<event>
 4    1  0.1043382E-007  0.6600857E+03  0.7818608E-02  0.1024069E+00
          1   -1    0    0  501    0  0.00000000000E+00  0.00000000000E+00  0.22053217472E+04  0.22053217472E+04  0.50400000000E-02 0. -1.
         -1   -1    0    0    0  501 -0.00000000000E+00 -0.00000000000E+00 -0.98995563858E+02  0.98995563986E+02  0.50400000000E-02 0.  1.
    8880023    1    1    2    0    0 -0.57229284404E+01  0.43246170642E+02  0.10800353535E+04  0.12657762655E+04  0.65864270000E+03 0.  0.
    8880022    1    1    2    0    0  0.57229284404E+01 -0.43246170642E+02  0.10262908299E+04  0.10385410458E+04  0.15294330000E+03 0.  0.
<mgrwt>
<rscale>  0 0.46246495E+03</rscale>
<asrwt>0</asrwt>
<pdfrwt beam="1">  1        1 0.33928026E+00 0.66008574E+03</pdfrwt>
<pdfrwt beam="2">  1       -1 0.15230087E-01 0.66008574E+03</pdfrwt>
<totfact> 0.72548803E+01</totfact>
</mgrwt>
</event>
<event>
 4    1  0.1043382E-007  0.6965890E+03  0.7818608E-02  0.1001166E+00
          1   -1    0    0  501    0  0.00000000000E+00  0.00000000000E+00  0.58740629255E+03  0.58740629257E+03  0.50400000000E-02 0. -1.
         -1   -1    0    0    0  501 -0.00000000000E+00 -0.00000000000E+00 -0.52488167487E+03  0.52488167489E+03  0.50400000000E-02 0.  1.
    8880023    1    1    2    0    0  0.22280284828E+03 -0.42248462790E+02  0.29193643907E+03  0.75529009826E+03  0.65864270000E+03 0. -1.
    8880022    1    1    2    0    0 -0.22280284828E+03  0.42248462790E+02 -0.22941182139E+03  0.35699786920E+03  0.15294330000E+03 0.  0.
<mgrwt>
<rscale>  0 0.55142062E+03</rscale>
<asrwt>0</asrwt>
<pdfrwt beam="1">  1        1 0.90370199E-01 0.69658901E+03</pdfrwt>
<pdfrwt beam="2">  1       -1 0.80751027E-01 0.69658901E+03</pdfrwt>
<totfact> 0.55403851E+01</totfact>
</mgrwt>
</event>
<event>
 4    1  0.1043382E-007  0.8374900E+03  0.7818608E-02  0.9634931E-01
          1   -1    0    0  501    0  0.00000000000E+00  0.00000000000E+00  0.29310528285E+04  0.29310528285E+04  0.50400000000E-02 0. -1.
         -1   -1    0    0    0  501 -0.00000000000E+00 -0.00000000000E+00 -0.33171978504E+03  0.33171978508E+03  0.50400000000E-02 0.  1.
    8880023    1    1    2    0    0 -0.64690704781E+02  0.51321965679E+03  0.28231590037E+03  0.88379396765E+03  0.65864270000E+03 0.  0.
    8880022    1    1    2    0    0  0.64690704781E+02 -0.51321965679E+03  0.23170171431E+04  0.23789786459E+04  0.15294330000E+03 0.  0.
<mgrwt>
<rscale>  0 0.75026715E+03</rscale>
<asrwt>0</asrwt>
<pdfrwt beam="1">  1        1 0.45093117E+00 0.83749001E+03</pdfrwt>
<pdfrwt beam="2">  1       -1 0.51033816E-01 0.83749001E+03</pdfrwt>
<totfact> 0.27283709E+00</totfact>
</mgrwt>
</event>
<event>
 4    1  0.1043382E-007  0.6684973E+03  0.7818608E-02  0.1016764E+00
         -1   -1    0    0    0  501 -0.00000000000E+00  0.00000000000E+00  0.64311781432E+03  0.64311781434E+03  0.50400000000E-02 0.  1.
          1   -1    0    0  501    0  0.00000000000E+00 -0.00000000000E+00 -0.65430710606E+03  0.65430710608E+03  0.50400000000E-02 0. -1.
    8880023    1    1    2    0    0  0.11240387807E+03  0.21065225804E+02  0.44487187071E+03  0.80299412399E+03  0.65864270000E+03 0.  0.
    8880022    1    1    2    0    0 -0.11240387807E+03 -0.21065225804E+02 -0.45606116246E+03  0.49443079643E+03  0.15294330000E+03 0. -1.
<mgrwt>
<rscale>  0 0.48872745E+03</rscale>
<asrwt>0</asrwt>
<pdfrwt beam="1">  1        1 0.10066263E+00 0.66849726E+03</pdfrwt>
<pdfrwt beam="2">  1       -1 0.98941203E-01 0.66849726E+03</pdfrwt>
<totfact> 0.30442579E+01</totfact>
</mgrwt>
</event>
<event>
 4    1  0.1043382E-007  0.8699924E+03  0.7818608E-02  0.9576030E-01
          1   -1    0    0  501    0  0.00000000000E+00  0.00000000000E+00  0.99844857062E+03  0.99844857063E+03  0.50400000000E-02 0. -1.
         -1   -1    0    0    0  501 -0.00000000000E+00 -0.00000000000E+00 -0.10956428380E+04  0.10956428380E+04  0.50400000000E-02 0.  1.
    8880023    1    1    2    0    0 -0.50861629104E+03 -0.25374419488E+03 -0.79684907462E+03  0.11797691732E+04  0.65864270000E+03 0.  0.
    8880022    1    1    2    0    0  0.50861629104E+03  0.25374419488E+03  0.69965480725E+03  0.91432223547E+03  0.15294330000E+03 0.  0.
<mgrwt>
<rscale>  0 0.78903188E+03</rscale>
<asrwt>0</asrwt>
<pdfrwt beam="1">  1        1 0.15360747E+00 0.86999244E+03</pdfrwt>
<pdfrwt beam="2">  1       -1 0.16856044E+00 0.86999244E+03</pdfrwt>
<totfact> 0.39016535E+00</totfact>
</mgrwt>
</event>
<event>
 4    1  0.1043382E-007  0.6998713E+03  0.7818608E-02  0.9997735E-01
         -1   -1    0    0    0  501 -0.00000000000E+00  0.00000000000E+00  0.50359898518E+03  0.50359898520E+03  0.50400000000E-02 0.  1.
          1   -1    0    0  501    0  0.00000000000E+00 -0.00000000000E+00 -0.85985293608E+03  0.85985293610E+03  0.50400000000E-02 0. -1.
    8880023    1    1    2    0    0  0.28450540118E+02  0.23494731957E+03  0.21022209537E+03  0.73076207609E+03  0.65864270000E+03 0.  1.
    8880022    1    1    2    0    0 -0.28450540118E+02 -0.23494731957E+03 -0.56647604628E+03  0.63268984521E+03  0.15294330000E+03 0.  0.
<mgrwt>
<rscale>  0 0.55749647E+03</rscale>
<asrwt>0</asrwt>
<pdfrwt beam="1">  1        1 0.13228507E+00 0.69987133E+03</pdfrwt>
<pdfrwt beam="2">  1       -1 0.77476767E-01 0.69987133E+03</pdfrwt>
<totfact> 0.33822578E+01</totfact>
</mgrwt>
</event>
<event>
 4    1  0.1043382E-007  0.7501137E+03  0.7818608E-02  0.9831409E-01
          1   -1    0    0  501    0  0.00000000000E+00  0.00000000000E+00  0.80480109526E+03  0.80480109528E+03  0.50400000000E-02 0. -1.
         -1   -1    0    0    0  501 -0.00000000000E+00 -0.00000000000E+00 -0.22107925887E+04  0.22107925887E+04  0.50400000000E-02 0.  1.
    8880023    1    1    2    0    0  0.33079772915E+03 -0.13940328211E+03 -0.20941881767E+04  0.22244762840E+04  0.65864270000E+03 0.  1.
    8880022    1    1    2    0    0 -0.33079772915E+03  0.13940328211E+03  0.68819668323E+03  0.79111739995E+03  0.15294330000E+03 0.  0.
<mgrwt>
<rscale>  0 0.63703859E+03</rscale>
<asrwt>0</asrwt>
<pdfrwt beam="1">  1        1 0.12381555E+00 0.75011374E+03</pdfrwt>
<pdfrwt beam="2">  1       -1 0.34012193E+00 0.75011374E+03</pdfrwt>
<totfact> 0.42223210E-01</totfact>
</mgrwt>
</event>
<event>
 4    1  0.1043382E-007  0.6678133E+03  0.7818608E-02  0.1017281E+00
          1   -1    0    0  501    0  0.00000000000E+00  0.00000000000E+00  0.12465295409E+04  0.12465295409E+04  0.50400000000E-02 0. -1.
         -1   -1    0    0    0  501 -0.00000000000E+00 -0.00000000000E+00 -0.20637552599E+03  0.20637552605E+03  0.50400000000E-02 0.  1.
    8880023    1    1    2    0    0  0.26686698939E+02 -0.10701480813E+03  0.38432482522E+03  0.77050640919E+03  0.65864270000E+03 0.  1.
    8880022    1    1    2    0    0 -0.26686698939E+02  0.10701480813E+03  0.65582918969E+03  0.68239865777E+03  0.15294330000E+03 0.  0.
<mgrwt>
<rscale>  0 0.48680541E+03</rscale>
<asrwt>0</asrwt>
<pdfrwt beam="1">  1        1 0.19177378E+00 0.66781326E+03</pdfrwt>
<pdfrwt beam="2">  1       -1 0.31750081E-01 0.66781326E+03</pdfrwt>
<totfact> 0.93880084E+01</totfact>
</mgrwt>
</event>
<event>
 4    1  0.1043382E-007  0.6869414E+03  0.7818608E-02  0.1005642E+00
         -1   -1    0    0    0  501 -0.00000000000E+00  0.00000000000E+00  0.29355611714E+03  0.29355611718E+03  0.50400000000E-02 0.  1.
          1   -1    0    0  501    0  0.00000000000E+00 -0.00000000000E+00 -0.25704715222E+04  0.25704715222E+04  0.50400000000E-02 0. -1.
    8880023    1    1    2    0    0 -0.13116896997E+03  0.14447475175E+03 -0.12542368218E+03  0.69829761484E+03  0.65864270000E+03 0.  1.
    8880022    1    1    2    0    0  0.13116896997E+03 -0.14447475175E+03 -0.21514917229E+04  0.21657300245E+04  0.15294330000E+03 0.  0.
<mgrwt>
<rscale>  0 0.53244233E+03</rscale>
<asrwt>0</asrwt>
<pdfrwt beam="1">  1        1 0.39545714E+00 0.68694138E+03</pdfrwt>
<pdfrwt beam="2">  1       -1 0.45162481E-01 0.68694138E+03</pdfrwt>
<totfact> 0.63026187E+00</totfact>
</mgrwt>
</event>
<event>
 4    1  0.1043382E-007  0.6695565E+03  0.7818608E-02  0.1015983E+00
         -1   -1    0    0    0  501 -0.00000000000E+00  0.00000000000E+00  0.69163484545E+03  0.69163484547E+03  0.50400000000E-02 0.  1.
          1   -1    0    0  501    0  0.00000000000E+00 -0.00000000000E+00 -0.27163984317E+03  0.27163984322E+03  0.50400000000E-02 0. -1.
    8880023    1    1    2    0    0  0.52679459885E+02 -0.10826165678E+03  0.35639593076E+03  0.75850113879E+03  0.65864270000E+03 0.  1.
    8880022    1    1    2    0    0 -0.52679459885E+02  0.10826165678E+03  0.63599071519E+02  0.20477354989E+03  0.15294330000E+03 0.  1.
<mgrwt>
<rscale>  0 0.49164568E+03</rscale>
<asrwt>0</asrwt>
<pdfrwt beam="1">  1        1 0.41790745E-01 0.66955651E+03</pdfrwt>
<pdfrwt beam="2">  1       -1 0.10640536E+00 0.66955651E+03</pdfrwt>
<totfact> 0.84241305E+01</totfact>
</mgrwt>
</event>
<event>
 4    1  0.1043382E-007  0.6630633E+03  0.7818608E-02  0.1021217E+00
          1   -1    0    0  501    0  0.00000000000E+00  0.00000000000E+00  0.92356790101E+03  0.92356790102E+03  0.50400000000E-02 0. -1.
         -1   -1    0    0    0  501 -0.00000000000E+00 -0.00000000000E+00 -0.43553842171E+03  0.43553842174E+03  0.50400000000E-02 0.  1.
    8880023    1    1    2    0    0 -0.69698480474E+02 -0.31381731869E+02 -0.16564462759E+03  0.68344059009E+03  0.65864270000E+03 0.  1.
    8880022    1    1    2    0    0  0.69698480474E+02  0.31381731869E+02  0.65367410689E+03  0.67566573267E+03  0.15294330000E+03 0.  0.
<mgrwt>
<rscale>  0 0.47250118E+03</rscale>
<asrwt>0</asrwt>
<pdfrwt beam="1">  1        1 0.14208737E+00 0.66306327E+03</pdfrwt>
<pdfrwt beam="2">  1       -1 0.67005912E-01 0.66306327E+03</pdfrwt>
<totfact> 0.40633024E+01</totfact>
</mgrwt>
</event>
<event>
 4    1  0.1043382E-007  0.7762214E+03  0.7818608E-02  0.9764789E-01
         -1   -1    0    0    0  501 -0.00000000000E+00  0.00000000000E+00  0.42830518097E+03  0.42830518100E+03  0.50400000000E-02 0.  1.
          1   -1    0    0  501    0  0.00000000000E+00 -0.00000000000E+00 -0.11829469631E+04  0.11829469631E+04  0.50400000000E-02 0. -1.
    8880023    1    1    2    0    0 -0.23541261224E+03 -0.33658631916E+03 -0.45447177984E+02  0.77755070606E+03  0.65864270000E+03 0.  0.
    8880022    1    1    2    0    0  0.23541261224E+03  0.33658631916E+03 -0.70919460415E+03  0.83370143806E+03  0.15294330000E+03 0.  0.
<mgrwt>
<rscale>  0 0.67286887E+03</rscale>
<asrwt>0</asrwt>
<pdfrwt beam="1">  1        1 0.18199184E+00 0.77622140E+03</pdfrwt>
<pdfrwt beam="2">  1       -1 0.65893105E-01 0.77622140E+03</pdfrwt>
<totfact> 0.26348624E+01</totfact>
</mgrwt>
</event>
<event>
 4    1  0.1043382E-007  0.7204399E+03  0.7818608E-02  0.9921100E-01
         -1   -1    0    0    0  501 -0.00000000000E+00  0.00000000000E+00  0.12984477265E+04  0.12984477265E+04  0.50400000000E-02 0.  1.
          1   -1    0    0  501    0  0.00000000000E+00 -0.00000000000E+00 -0.33784751792E+03  0.33784751796E+03  0.50400000000E-02 0. -1.
    8880023    1    1    2    0    0 -0.14233590655E+03  0.25488022432E+03  0.10692203419E+04  0.12892888679E+04  0.65864270000E+03 0.  1.
    8880022    1    1    2    0    0  0.14233590655E+03 -0.25488022432E+03 -0.10862013329E+03  0.34700637662E+03  0.15294330000E+03 0.  0.
<mgrwt>
<rscale>  0 0.59249486E+03</rscale>
<asrwt>0</asrwt>
<pdfrwt beam="1">  1        1 0.51976541E-01 0.72043990E+03</pdfrwt>
<pdfrwt beam="2">  1       -1 0.19976119E+00 0.72043990E+03</pdfrwt>
<totfact> 0.11719599E+01</totfact>
</mgrwt>
</event>
<event>
 4    1  0.1043382E-007  0.8941525E+03  0.7818608E-02  0.9535485E-01
          1   -1    0    0  501    0  0.00000000000E+00  0.00000000000E+00  0.74015480314E+03  0.74015480315E+03  0.50400000000E-02 0. -1.
         -1   -1    0    0    0  501 -0.00000000000E+00 -0.00000000000E+00 -0.89472067775E+03  0.89472067777E+03  0.50400000000E-02 0.  1.
    8880023    1    1    2    0    0  0.47405806516E+03 -0.37545632306E+03 -0.38009328018E+03  0.97158612977E+03  0.65864270000E+03 0.  1.
    8880022    1    1    2    0    0 -0.47405806516E+03  0.37545632306E+03  0.22552740556E+03  0.66328935115E+03  0.15294330000E+03 0.  0.
<mgrwt>
<rscale>  0 0.81717483E+03</rscale>
<asrwt>0</asrwt>
<pdfrwt beam="1">  1        1 0.11386997E+00 0.89415251E+03</pdfrwt>
<pdfrwt beam="2">  1       -1 0.13764934E+00 0.89415251E+03</pdfrwt>
<totfact> 0.11095651E+01</totfact>
</mgrwt>
</event>
<event>
 4    1  0.1043382E-007  0.6630416E+03  0.7818608E-02  0.1021236E+00
         -1   -1    0    0    0  501 -0.00000000000E+00  0.00000000000E+00  0.49727023248E+03  0.49727023251E+03  0.50400000000E-02 0.  1.
          1   -1    0    0  501    0  0.00000000000E+00 -0.00000000000E+00 -0.72439892116E+03  0.72439892118E+03  0.50400000000E-02 0. -1.
    8880023    1    1    2    0    0  0.75547270120E+02 -0.10322957994E+02  0.25481679260E+03  0.71032088350E+03  0.65864270000E+03 0.  1.
    8880022    1    1    2    0    0 -0.75547270120E+02  0.10322957994E+02 -0.48194548128E+03  0.51134827019E+03  0.15294330000E+03 0.  0.
<mgrwt>
<rscale>  0 0.47243151E+03</rscale>
<asrwt>0</asrwt>
<pdfrwt beam="1">  1        1 0.11144599E+00 0.66304160E+03</pdfrwt>
<pdfrwt beam="2">  1       -1 0.76503113E-01 0.66304160E+03</pdfrwt>
<totfact> 0.45740656E+01</totfact>
</mgrwt>
</event>
<event>
 4    1  0.1043382E-007  0.7406665E+03  0.7818608E-02  0.9858010E-01
          1   -1    0    0  501    0  0.00000000000E+00  0.00000000000E+00  0.32157994473E+04  0.32157994473E+04  0.50400000000E-02 0. -1.
         -1   -1    0    0    0  501 -0.00000000000E+00 -0.00000000000E+00 -0.32097542731E+03  0.32097542735E+03  0.50400000000E-02 0.  1.
    8880023    1    1    2    0    0  0.26682194472E+03 -0.20876454533E+03  0.13603290095E+03  0.75305493955E+03  0.65864270000E+03 0.  1.
    8880022    1    1    2    0    0 -0.26682194472E+03  0.20876454533E+03  0.27587911190E+04  0.27837199351E+04  0.15294330000E+03 0.  0.
<mgrwt>
<rscale>  0 0.62340177E+03</rscale>
<asrwt>0</asrwt>
<pdfrwt beam="1">  1        1 0.49473837E+00 0.74066645E+03</pdfrwt>
<pdfrwt beam="2">  1       -1 0.49380835E-01 0.74066645E+03</pdfrwt>
<totfact> 0.18398333E+00</totfact>
</mgrwt>
</event>
<event>
 4    1  0.1043382E-007  0.7521467E+03  0.7818608E-02  0.9825880E-01
         -1   -1    0    0    0  501 -0.00000000000E+00  0.00000000000E+00  0.32257377919E+03  0.32257377923E+03  0.50400000000E-02 0.  1.
          1   -1    0    0  501    0  0.00000000000E+00 -0.00000000000E+00 -0.11487043914E+04  0.11487043914E+04  0.50400000000E-02 0. -1.
    8880023    1    1    2    0    0  0.31528990902E+03 -0.18029605285E+03 -0.29051053880E+03  0.80630079550E+03  0.65864270000E+03 0.  0.
    8880022    1    1    2    0    0 -0.31528990902E+03  0.18029605285E+03 -0.53562007341E+03  0.66497737515E+03  0.15294330000E+03 0.  0.
<mgrwt>
<rscale>  0 0.63991965E+03</rscale>
<asrwt>0</asrwt>
<pdfrwt beam="1">  1        1 0.17672375E+00 0.75214666E+03</pdfrwt>
<pdfrwt beam="2">  1       -1 0.49626736E-01 0.75214666E+03</pdfrwt>
<totfact> 0.48658273E+01</totfact>
</mgrwt>
</event>
<event>
 4    1  0.1043382E-007  0.7556052E+03  0.7818608E-02  0.9816621E-01
         -1   -1    0    0    0  501 -0.00000000000E+00  0.00000000000E+00  0.16360508999E+03  0.16360509007E+03  0.50400000000E-02 0.  1.
          1   -1    0    0  501    0  0.00000000000E+00 -0.00000000000E+00 -0.25012913281E+04  0.25012913281E+04  0.50400000000E-02 0. -1.
    8880023    1    1    2    0    0 -0.26269481404E+03 -0.26099881740E+03 -0.91389993280E+03  0.11858129032E+04  0.65864270000E+03 0.  0.
    8880022    1    1    2    0    0  0.26269481404E+03  0.26099881740E+03 -0.14237863053E+04  0.14790835149E+04  0.15294330000E+03 0.  0.
<mgrwt>
<rscale>  0 0.64478145E+03</rscale>
<asrwt>0</asrwt>
<pdfrwt beam="1">  1        1 0.38481402E+00 0.75560516E+03</pdfrwt>
<pdfrwt beam="2">  1       -1 0.25170016E-01 0.75560516E+03</pdfrwt>
<totfact> 0.19597544E+01</totfact>
</mgrwt>
</event>
<event>
 4    1  0.1043382E-007  0.7155267E+03  0.7818608E-02  0.9938023E-01
         -1   -1    0    0    0  501 -0.00000000000E+00  0.00000000000E+00  0.14462639601E+04  0.14462639601E+04  0.50400000000E-02 0.  1.
          1   -1    0    0  501    0  0.00000000000E+00 -0.00000000000E+00 -0.38787305188E+03  0.38787305191E+03  0.50400000000E-02 0. -1.
    8880023    1    1    2    0    0 -0.15072686213E+03  0.23547760548E+03  0.12657037302E+04  0.14539547546E+04  0.65864270000E+03 0.  0.
    8880022    1    1    2    0    0  0.15072686213E+03 -0.23547760548E+03 -0.20731282198E+03  0.38018225737E+03  0.15294330000E+03 0.  0.
<mgrwt>
<rscale>  0 0.58453390E+03</rscale>
<asrwt>0</asrwt>
<pdfrwt beam="1">  1        1 0.59672777E-01 0.71552673E+03</pdfrwt>
<pdfrwt beam="2">  1       -1 0.22250215E+00 0.71552673E+03</pdfrwt>
<totfact> 0.68840446E+00</totfact>
</mgrwt>
</event>
<event>
 4    1  0.1043382E-007  0.9563170E+03  0.7818608E-02  0.9441083E-01
         -1   -1    0    0    0  501 -0.00000000000E+00  0.00000000000E+00  0.71377439421E+03  0.71377439423E+03  0.50400000000E-02 0.  1.
          1   -1    0    0  501    0  0.00000000000E+00 -0.00000000000E+00 -0.13198811164E+04  0.13198811165E+04  0.50400000000E-02 0. -1.
    8880023    1    1    2    0    0 -0.40765048479E+03 -0.56085024827E+03  0.18135742524E+03  0.97336151593E+03  0.65864270000E+03 0. -1.
    8880022    1    1    2    0    0  0.40765048479E+03  0.56085024827E+03 -0.78746414748E+03  0.10602939948E+04  0.15294330000E+03 0.  0.
<mgrwt>
<rscale>  0 0.88770470E+03</rscale>
<asrwt>0</asrwt>
<pdfrwt beam="1">  1        1 0.20305863E+00 0.95631696E+03</pdfrwt>
<pdfrwt beam="2">  1       -1 0.10981145E+00 0.95631696E+03</pdfrwt>
<totfact> 0.67708465E+00</totfact>
</mgrwt>
</event>
<event>
 4    1  0.1043382E-007  0.7545615E+03  0.7818608E-02  0.9819396E-01
         -1   -1    0    0    0  501 -0.00000000000E+00  0.00000000000E+00  0.26648352837E+03  0.26648352841E+03  0.50400000000E-02 0.  1.
          1   -1    0    0  501    0  0.00000000000E+00 -0.00000000000E+00 -0.13073302299E+04  0.13073302299E+04  0.50400000000E-02 0. -1.
    8880023    1    1    2    0    0  0.17313078888E+03  0.32492858927E+03 -0.51345192562E+03  0.91268611492E+03  0.65864270000E+03 0.  0.
    8880022    1    1    2    0    0 -0.17313078888E+03 -0.32492858927E+03 -0.52739477586E+03  0.66112764335E+03  0.15294330000E+03 0.  1.
<mgrwt>
<rscale>  0 0.64331944E+03</rscale>
<asrwt>0</asrwt>
<pdfrwt beam="1">  1        1 0.20112772E+00 0.75456150E+03</pdfrwt>
<pdfrwt beam="2">  1       -1 0.40997467E-01 0.75456150E+03</pdfrwt>
<totfact> 0.53346315E+01</totfact>
</mgrwt>
</event>
<event>
 4    1  0.1043382E-007  0.1070589E+04  0.7818608E-02  0.9294530E-01
          1   -1    0    0  501    0  0.00000000000E+00  0.00000000000E+00  0.19540165376E+04  0.19540165376E+04  0.50400000000E-02 0. -1.
         -1   -1    0    0    0  501 -0.00000000000E+00 -0.00000000000E+00 -0.58296684955E+03  0.58296684957E+03  0.50400000000E-02 0.  1.
    8880023    1    1    2    0    0  0.21738876958E+03 -0.81553252630E+03  0.12885539430E+04  0.16752709180E+04  0.65864270000E+03 0. -1.
    8880022    1    1    2    0    0 -0.21738876958E+03  0.81553252630E+03  0.82495745131E+02  0.86171246920E+03  0.15294330000E+03 0.  0.
<mgrwt>
<rscale>  0 0.10128798E+04</rscale>
<asrwt>0</asrwt>
<pdfrwt beam="1">  1        1 0.30061793E+00 0.10705893E+04</pdfrwt>
<pdfrwt beam="2">  1       -1 0.89687207E-01 0.10705893E+04</pdfrwt>
<totfact> 0.39040730E+00</totfact>
</mgrwt>
</event>
<event>
 4    1  0.1043382E-007  0.6619583E+03  0.7818608E-02  0.1022234E+00
          1   -1    0    0  501    0  0.00000000000E+00  0.00000000000E+00  0.15642317646E+04  0.15642317646E+04  0.50400000000E-02 0. -1.
         -1   -1    0    0    0  501 -0.00000000000E+00 -0.00000000000E+00 -0.37278134494E+03  0.37278134498E+03  0.50400000000E-02 0.  1.
    8880023    1    1    2    0    0  0.59412228745E+02 -0.29133665765E+02 -0.69045369681E+02  0.66554943674E+03  0.65864270000E+03 0.  1.
    8880022    1    1    2    0    0 -0.59412228745E+02  0.29133665765E+02  0.12604957893E+04  0.12714636728E+04  0.15294330000E+03 0.  0.
<mgrwt>
<rscale>  0 0.46888941E+03</rscale>
<asrwt>0</asrwt>
<pdfrwt beam="1">  1        1 0.24065104E+00 0.66195830E+03</pdfrwt>
<pdfrwt beam="2">  1       -1 0.57350977E-01 0.66195830E+03</pdfrwt>
<totfact> 0.19072861E+01</totfact>
</mgrwt>
</event>
<event>
 4    1  0.1043382E-007  0.8389779E+03  0.7818608E-02  0.9632110E-01
          1   -1    0    0  501    0  0.00000000000E+00  0.00000000000E+00  0.92936708897E+03  0.92936708899E+03  0.50400000000E-02 0. -1.
         -1   -1    0    0    0  501 -0.00000000000E+00 -0.00000000000E+00 -0.55504200891E+03  0.55504200894E+03  0.50400000000E-02 0.  1.
    8880023    1    1    2    0    0 -0.51956175755E+03  0.11372871624E+02  0.42469933421E+03  0.94034753834E+03  0.65864270000E+03 0.  1.
    8880022    1    1    2    0    0  0.51956175755E+03 -0.11372871624E+02 -0.50374254148E+02  0.54406155958E+03  0.15294330000E+03 0.  0.
<mgrwt>
<rscale>  0 0.75206871E+03</rscale>
<asrwt>0</asrwt>
<pdfrwt beam="1">  1        1 0.14297955E+00 0.83897793E+03</pdfrwt>
<pdfrwt beam="2">  1       -1 0.85391077E-01 0.83897793E+03</pdfrwt>
<totfact> 0.23758253E+01</totfact>
</mgrwt>
</event>
<event>
 4    1  0.1043382E-007  0.1138842E+04  0.7818608E-02  0.9218995E-01
          1   -1    0    0  501    0  0.00000000000E+00  0.00000000000E+00  0.33022071818E+04  0.33022071819E+04  0.50400000000E-02 0. -1.
         -1   -1    0    0    0  501 -0.00000000000E+00 -0.00000000000E+00 -0.57951076691E+03  0.57951076693E+03  0.50400000000E-02 0.  1.
    8880023    1    1    2    0    0  0.91812348562E+03 -0.14212761681E+03  0.27105504560E+04  0.29400756751E+04  0.65864270000E+03 0. -1.
    8880022    1    1    2    0    0 -0.91812348562E+03  0.14212761681E+03  0.12145958923E+02  0.94164227371E+03  0.15294330000E+03 0.  0.
<mgrwt>
<rscale>  0 0.10859506E+04</rscale>
<asrwt>0</asrwt>
<pdfrwt beam="1">  1        1 0.50803187E+00 0.11388420E+04</pdfrwt>
<pdfrwt beam="2">  1       -1 0.89155504E-01 0.11388420E+04</pdfrwt>
<totfact> 0.44362718E-01</totfact>
</mgrwt>
</event>
<event>
 4    1  0.1043382E-007  0.8286496E+03  0.7818608E-02  0.9651966E-01
          1   -1    0    0  501    0  0.00000000000E+00  0.00000000000E+00  0.10416479826E+04  0.10416479826E+04  0.50400000000E-02 0. -1.
         -1   -1    0    0    0  501 -0.00000000000E+00 -0.00000000000E+00 -0.16533570852E+04  0.16533570852E+04  0.50400000000E-02 0.  1.
    8880023    1    1    2    0    0 -0.45029629500E+03  0.22379277297E+03 -0.14706390618E+04  0.16880282625E+04  0.65864270000E+03 0.  1.
    8880022    1    1    2    0    0  0.45029629500E+03 -0.22379277297E+03  0.85892995928E+03  0.10069768053E+04  0.15294330000E+03 0.  0.
<mgrwt>
<rscale>  0 0.73950197E+03</rscale>
<asrwt>0</asrwt>
<pdfrwt beam="1">  1        1 0.16025354E+00 0.82864960E+03</pdfrwt>
<pdfrwt beam="2">  1       -1 0.25436263E+00 0.82864960E+03</pdfrwt>
<totfact> 0.95136980E-01</totfact>
</mgrwt>
</event>
<event>
 4    1  0.1043382E-007  0.7318042E+03  0.7818608E-02  0.9884498E-01
         -1   -1    0    0    0  501 -0.00000000000E+00  0.00000000000E+00  0.24442365928E+03  0.24442365933E+03  0.50400000000E-02 0.  1.
          1   -1    0    0  501    0  0.00000000000E+00 -0.00000000000E+00 -0.13176902367E+04  0.13176902367E+04  0.50400000000E-02 0. -1.
    8880023    1    1    2    0    0  0.14978145751E+03 -0.28158957074E+03 -0.92271997829E+03  0.11776882168E+04  0.65864270000E+03 0. -1.
    8880022    1    1    2    0    0 -0.14978145751E+03  0.28158957074E+03 -0.15054659916E+03  0.38442567929E+03  0.15294330000E+03 0.  0.
<mgrwt>
<rscale>  0 0.61018496E+03</rscale>
<asrwt>0</asrwt>
<pdfrwt beam="1">  1        1 0.20272157E+00 0.73180419E+03</pdfrwt>
<pdfrwt beam="2">  1       -1 0.37603641E-01 0.73180419E+03</pdfrwt>
<totfact> 0.61497053E+01</totfact>
</mgrwt>
</event>
<event>
 4    1  0.1043382E-007  0.8272817E+03  0.7818608E-02  0.9654645E-01
          1   -1    0    0  501    0  0.00000000000E+00  0.00000000000E+00  0.12113715757E+04  0.12113715757E+04  0.50400000000E-02 0. -1.
         -1   -1    0    0    0  501 -0.00000000000E+00 -0.00000000000E+00 -0.16693242276E+04  0.16693242276E+04  0.50400000000E-02 0.  1.
    8880023    1    1    2    0    0 -0.23576883504E+03  0.44158568790E+03 -0.15008854817E+04  0.17137830372E+04  0.65864270000E+03 0.  0.
    8880022    1    1    2    0    0  0.23576883504E+03 -0.44158568790E+03  0.10429328298E+04  0.11669127661E+04  0.15294330000E+03 0.  0.
<mgrwt>
<rscale>  0 0.73782649E+03</rscale>
<asrwt>0</asrwt>
<pdfrwt beam="1">  1        1 0.18636486E+00 0.82728174E+03</pdfrwt>
<pdfrwt beam="2">  1       -1 0.25681911E+00 0.82728174E+03</pdfrwt>
<totfact> 0.68640202E-01</totfact>
</mgrwt>
</event>
<event>
 4    1  0.1043382E-007  0.1157254E+04  0.7818608E-02  0.9199838E-01
         -1   -1    0    0    0  501 -0.00000000000E+00  0.00000000000E+00  0.51867155362E+03  0.51867155365E+03  0.50400000000E-02 0.  1.
          1   -1    0    0  501    0  0.00000000000E+00 -0.00000000000E+00 -0.24880303414E+04  0.24880303414E+04  0.50400000000E-02 0. -1.
    8880023    1    1    2    0    0 -0.81257727857E+03  0.49512040034E+03 -0.52605839133E+03  0.12712095350E+04  0.65864270000E+03 0.  1.
    8880022    1    1    2    0    0  0.81257727857E+03 -0.49512040034E+03 -0.14433003965E+04  0.17354923601E+04  0.15294330000E+03 0.  0.
<mgrwt>
<rscale>  0 0.11055102E+04</rscale>
<asrwt>0</asrwt>
<pdfrwt beam="1">  1        1 0.38277389E+00 0.11572538E+04</pdfrwt>
<pdfrwt beam="2">  1       -1 0.79795625E-01 0.11572538E+04</pdfrwt>
<totfact> 0.21596838E+00</totfact>
</mgrwt>
</event>
<event>
 4    1  0.1043382E-007  0.8922052E+03  0.7818608E-02  0.9538662E-01
          1   -1    0    0  501    0  0.00000000000E+00  0.00000000000E+00  0.76159886100E+03  0.76159886102E+03  0.50400000000E-02 0. -1.
         -1   -1    0    0    0  501 -0.00000000000E+00 -0.00000000000E+00 -0.12089005639E+04  0.12089005639E+04  0.50400000000E-02 0.  1.
    8880023    1    1    2    0    0 -0.55574331604E+03 -0.23101804771E+03 -0.84845304976E+03  0.12312200273E+04  0.65864270000E+03 0.  1.
    8880022    1    1    2    0    0  0.55574331604E+03  0.23101804771E+03  0.40115134685E+03  0.73927939765E+03  0.15294330000E+03 0.  0.
<mgrwt>
<rscale>  0 0.81492443E+03</rscale>
<asrwt>0</asrwt>
<pdfrwt beam="1">  1        1 0.11716906E+00 0.89220523E+03</pdfrwt>
<pdfrwt beam="2">  1       -1 0.18598470E+00 0.89220523E+03</pdfrwt>
<totfact> 0.45830200E+00</totfact>
</mgrwt>
</event>
<event>
 4    1  0.1043382E-007  0.9437708E+03  0.7818608E-02  0.9459134E-01
          1   -1    0    0  501    0  0.00000000000E+00  0.00000000000E+00  0.99710630156E+03  0.99710630157E+03  0.50400000000E-02 0. -1.
         -1   -1    0    0    0  501 -0.00000000000E+00 -0.00000000000E+00 -0.99623009267E+03  0.99623009268E+03  0.50400000000E-02 0.  1.
    8880023    1    1    2    0    0 -0.21997375264E+02  0.67558060608E+03  0.56479852947E+03  0.10998639120E+04  0.65864270000E+03 0. -1.
    8880022    1    1    2    0    0  0.21997375264E+02 -0.67558060608E+03 -0.56392232057E+03  0.89347248222E+03  0.15294330000E+03 0.  0.
<mgrwt>
<rscale>  0 0.87364950E+03</rscale>
<asrwt>0</asrwt>
<pdfrwt beam="1">  1        1 0.15340097E+00 0.94377076E+03</pdfrwt>
<pdfrwt beam="2">  1       -1 0.15326617E+00 0.94377076E+03</pdfrwt>
<totfact> 0.50521493E+00</totfact>
</mgrwt>
</event>
<event>
 4    1  0.1043382E-007  0.7579377E+03  0.7818608E-02  0.9810476E-01
         -1   -1    0    0    0  501 -0.00000000000E+00  0.00000000000E+00  0.15445599138E+03  0.15445599146E+03  0.50400000000E-02 0.  1.
          1   -1    0    0  501    0  0.00000000000E+00 -0.00000000000E+00 -0.23865607045E+04  0.23865607045E+04  0.50400000000E-02 0. -1.
    8880023    1    1    2    0    0 -0.31436505187E+03  0.20453361613E+03 -0.10770552931E+04  0.13170108947E+04  0.65864270000E+03 0.  0.
    8880022    1    1    2    0    0  0.31436505187E+03 -0.20453361613E+03 -0.11550494201E+04  0.12240058014E+04  0.15294330000E+03 0.  0.
<mgrwt>
<rscale>  0 0.64803359E+03</rscale>
<asrwt>0</asrwt>
<pdfrwt beam="1">  1        1 0.36716316E+00 0.75793772E+03</pdfrwt>
<pdfrwt beam="2">  1       -1 0.23762462E-01 0.75793772E+03</pdfrwt>
<totfact> 0.25859436E+01</totfact>
</mgrwt>
</event>
<event>
 4    1  0.1043382E-007  0.7199661E+03  0.7818608E-02  0.9922701E-01
         -1   -1    0    0    0  501 -0.00000000000E+00  0.00000000000E+00  0.12340910565E+04  0.12340910565E+04  0.50400000000E-02 0.  1.
          1   -1    0    0  501    0  0.00000000000E+00 -0.00000000000E+00 -0.25006871132E+03  0.25006871137E+03  0.50400000000E-02 0. -1.
    8880023    1    1    2    0    0  0.27588644307E+03  0.91802142224E+02  0.88533545550E+03  0.11411266528E+04  0.65864270000E+03 0.  1.
    8880022    1    1    2    0    0 -0.27588644307E+03 -0.91802142224E+02  0.98686889648E+02  0.34303311501E+03  0.15294330000E+03 0. -1.
<mgrwt>
<rscale>  0 0.59173617E+03</rscale>
<asrwt>0</asrwt>
<pdfrwt beam="1">  1        1 0.38472110E-01 0.71996609E+03</pdfrwt>
<pdfrwt beam="2">  1       -1 0.18986016E+00 0.71996609E+03</pdfrwt>
<totfact> 0.20261198E+01</totfact>
</mgrwt>
</event>
<event>
 4    1  0.1218983E-007  0.6839734E+03  0.7818608E-02  0.1007160E+00
         -1   -1    0    0    0  501 -0.00000000000E+00  0.00000000000E+00  0.75338340862E+03  0.75338340864E+03  0.50400000000E-02 0.  1.
          1   -1    0    0  501    0  0.00000000000E+00 -0.00000000000E+00 -0.16886091777E+04  0.16886091777E+04  0.50400000000E-02 0. -1.
    8880023    1    1    2    0    0 -0.41661939376E+02  0.17964891258E+03  0.58681804728E+03  0.90120756536E+03  0.65864270000E+03 0.  1.
    8880022    1    1    2    0    0  0.41661939376E+02 -0.17964891258E+03 -0.15220438163E+04  0.15407850210E+04  0.15294330000E+03 0.  0.
<mgrwt>
<rscale>  0 0.52619226E+03</rscale>
<asrwt>0</asrwt>
<pdfrwt beam="1">  1        1 0.25978603E+00 0.68397343E+03</pdfrwt>
<pdfrwt beam="2">  1       -1 0.11590514E+00 0.68397343E+03</pdfrwt>
<totfact> 0.34635955E+00</totfact>
</mgrwt>
</event>
<event>
 4    1  0.1043382E-007  0.8188992E+03  0.7818608E-02  0.9671330E-01
         -1   -1    0    0    0  501 -0.00000000000E+00  0.00000000000E+00  0.74493092590E+03  0.74493092591E+03  0.50400000000E-02 0.  1.
          1   -1    0    0  501    0  0.00000000000E+00 -0.00000000000E+00 -0.10351064414E+04  0.10351064414E+04  0.50400000000E-02 0. -1.
    8880023    1    1    2    0    0  0.12489768034E+03 -0.47030437307E+03  0.40837788878E+03  0.91507832462E+03  0.65864270000E+03 0.  1.
    8880022    1    1    2    0    0 -0.12489768034E+03  0.47030437307E+03 -0.69855340424E+03  0.86495904266E+03  0.15294330000E+03 0.  0.
<mgrwt>
<rscale>  0 0.72749748E+03</rscale>
<asrwt>0</asrwt>
<pdfrwt beam="1">  1        1 0.15924714E+00 0.81889916E+03</pdfrwt>
<pdfrwt beam="2">  1       -1 0.11460476E+00 0.81889916E+03</pdfrwt>
<totfact> 0.10065336E+01</totfact>
</mgrwt>
</event>
<event>
 4    1  0.1043382E-007  0.8312311E+03  0.7818608E-02  0.9646942E-01
         -1   -1    0    0    0  501 -0.00000000000E+00  0.00000000000E+00  0.24598757075E+03  0.24598757080E+03  0.50400000000E-02 0.  1.
          1   -1    0    0  501    0  0.00000000000E+00 -0.00000000000E+00 -0.25942644338E+04  0.25942644338E+04  0.50400000000E-02 0. -1.
    8880023    1    1    2    0    0 -0.11463335096E+03  0.49395753587E+03 -0.63228338634E+03  0.10443789251E+04  0.65864270000E+03 0.  1.
    8880022    1    1    2    0    0  0.11463335096E+03 -0.49395753587E+03 -0.17159934767E+04  0.17958730795E+04  0.15294330000E+03 0.  0.
<mgrwt>
<rscale>  0 0.74265662E+03</rscale>
<asrwt>0</asrwt>
<pdfrwt beam="1">  1        1 0.39911759E+00 0.83123105E+03</pdfrwt>
<pdfrwt beam="2">  1       -1 0.37844244E-01 0.83123105E+03</pdfrwt>
<totfact> 0.81842648E+00</totfact>
</mgrwt>
</event>
<event>
 4    1  0.1043382E-007  0.7491969E+03  0.7818608E-02  0.9833924E-01
          1   -1    0    0  501    0  0.00000000000E+00  0.00000000000E+00  0.74087805059E+03  0.74087805061E+03  0.50400000000E-02 0. -1.
         -1   -1    0    0    0  501 -0.00000000000E+00 -0.00000000000E+00 -0.97950187940E+03  0.97950187942E+03  0.50400000000E-02 0.  1.
    8880023    1    1    2    0    0 -0.25966344267E+03  0.24507276762E+03 -0.76199812698E+03  0.10686145782E+04  0.65864270000E+03 0.  1.
    8880022    1    1    2    0    0  0.25966344267E+03 -0.24507276762E+03  0.52337429817E+03  0.65176535186E+03  0.15294330000E+03 0.  0.
<mgrwt>
<rscale>  0 0.63573336E+03</rscale>
<asrwt>0</asrwt>
<pdfrwt beam="1">  1        1 0.11398124E+00 0.74919688E+03</pdfrwt>
<pdfrwt beam="2">  1       -1 0.15069260E+00 0.74919688E+03</pdfrwt>
<totfact> 0.88754924E+00</totfact>
</mgrwt>
</event>
<event>
 4    1  0.1043382E-007  0.7783556E+03  0.7818608E-02  0.9759714E-01
          1   -1    0    0  501    0  0.00000000000E+00  0.00000000000E+00  0.94486739679E+03  0.94486739680E+03  0.50400000000E-02 0. -1.
         -1   -1    0    0    0  501 -0.00000000000E+00 -0.00000000000E+00 -0.11324997407E+04  0.11324997408E+04  0.50400000000E-02 0.  1.
    8880023    1    1    2    0    0 -0.26050701788E+03  0.32274333254E+03 -0.93037430261E+03  0.12130266750E+04  0.65864270000E+03 0.  0.
    8880022    1    1    2    0    0  0.26050701788E+03 -0.32274333254E+03  0.74274195865E+03  0.86434046256E+03  0.15294330000E+03 0.  0.
<mgrwt>
<rscale>  0 0.67570062E+03</rscale>
<asrwt>0</asrwt>
<pdfrwt beam="1">  1        1 0.14536422E+00 0.77835556E+03</pdfrwt>
<pdfrwt beam="2">  1       -1 0.17423073E+00 0.77835556E+03</pdfrwt>
<totfact> 0.39618651E+00</totfact>
</mgrwt>
</event>
<event>
 4    1  0.1043382E-007  0.7497208E+03  0.7818608E-02  0.9832485E-01
          1   -1    0    0  501    0  0.00000000000E+00  0.00000000000E+00  0.24050854449E+04  0.24050854449E+04  0.50400000000E-02 0. -1.
         -1   -1    0    0    0  501 -0.00000000000E+00 -0.00000000000E+00 -0.14216203250E+03  0.14216203259E+03  0.50400000000E-02 0.  1.
    8880023    1    1    2    0    0  0.32135698737E+03  0.15811643442E+03  0.11969520392E+04  0.14123652185E+04  0.65864270000E+03 0.  1.
    8880022    1    1    2    0    0 -0.32135698737E+03 -0.15811643442E+03  0.10659713732E+04  0.11348822590E+04  0.15294330000E+03 0.  0.
<mgrwt>
<rscale>  0 0.63647970E+03</rscale>
<asrwt>0</asrwt>
<pdfrwt beam="1">  1        1 0.37001317E+00 0.74972083E+03</pdfrwt>
<pdfrwt beam="2">  1       -1 0.21871081E-01 0.74972083E+03</pdfrwt>
<totfact> 0.28931257E+01</totfact>
</mgrwt>
</event>
<event>
 4    1  0.1043382E-007  0.7393182E+03  0.7818608E-02  0.9861938E-01
          1   -1    0    0  501    0  0.00000000000E+00  0.00000000000E+00  0.77959865914E+03  0.77959865915E+03  0.50400000000E-02 0. -1.
         -1   -1    0    0    0  501 -0.00000000000E+00 -0.00000000000E+00 -0.80805844352E+03  0.80805844354E+03  0.50400000000E-02 0.  1.
    8880023    1    1    2    0    0 -0.27337435682E+03 -0.19505810845E+03 -0.56916766178E+03  0.93302906606E+03  0.65864270000E+03 0.  1.
    8880022    1    1    2    0    0  0.27337435682E+03  0.19505810845E+03  0.54070787739E+03  0.65462803662E+03  0.15294330000E+03 0.  0.
<mgrwt>
<rscale>  0 0.62141949E+03</rscale>
<asrwt>0</asrwt>
<pdfrwt beam="1">  1        1 0.11993826E+00 0.73931821E+03</pdfrwt>
<pdfrwt beam="2">  1       -1 0.12431668E+00 0.73931821E+03</pdfrwt>
<totfact> 0.13474789E+01</totfact>
</mgrwt>
</event>
<event>
 4    1  0.1043382E-007  0.7444464E+03  0.7818608E-02  0.9847179E-01
         -1   -1    0    0    0  501 -0.00000000000E+00  0.00000000000E+00  0.27541089599E+03  0.27541089603E+03  0.50400000000E-02 0.  1.
          1   -1    0    0  501    0  0.00000000000E+00 -0.00000000000E+00 -0.14057229737E+04  0.14057229737E+04  0.50400000000E-02 0. -1.
    8880023    1    1    2    0    0  0.14652470781E+03 -0.31451663880E+03 -0.36958205737E+03  0.83113856214E+03  0.65864270000E+03 0.  1.
    8880022    1    1    2    0    0 -0.14652470781E+03  0.31451663880E+03 -0.76073002033E+03  0.84999530759E+03  0.15294330000E+03 0.  0.
<mgrwt>
<rscale>  0 0.62890939E+03</rscale>
<asrwt>0</asrwt>
<pdfrwt beam="1">  1        1 0.21626507E+00 0.74444638E+03</pdfrwt>
<pdfrwt beam="2">  1       -1 0.42370908E-01 0.74444638E+03</pdfrwt>
<totfact> 0.42905864E+01</totfact>
</mgrwt>
</event>
<event>
 4    1  0.1043382E-007  0.8368751E+03  0.7818608E-02  0.9636101E-01
         -1   -1    0    0    0  501 -0.00000000000E+00  0.00000000000E+00  0.18307468012E+04  0.18307468012E+04  0.50400000000E-02 0.  1.
          1   -1    0    0  501    0  0.00000000000E+00 -0.00000000000E+00 -0.51328420977E+03  0.51328420980E+03  0.50400000000E-02 0. -1.
    8880023    1    1    2    0    0 -0.26303862881E+02  0.51561411258E+03  0.15468674527E+04  0.17587378795E+04  0.65864270000E+03 0.  1.
    8880022    1    1    2    0    0  0.26303862881E+02 -0.51561411258E+03 -0.22940486134E+03  0.58529313145E+03  0.15294330000E+03 0.  0.
<mgrwt>
<rscale>  0 0.74952184E+03</rscale>
<asrwt>0</asrwt>
<pdfrwt beam="1">  1        1 0.78966802E-01 0.83687515E+03</pdfrwt>
<pdfrwt beam="2">  1       -1 0.28165335E+00 0.83687515E+03</pdfrwt>
<totfact> 0.19207780E+00</totfact>
</mgrwt>
</event>
<event>
 4    1  0.1043382E-007  0.6599199E+03  0.7818608E-02  0.1024239E+00
          1   -1    0    0  501    0  0.00000000000E+00  0.00000000000E+00  0.69529117677E+03  0.69529117679E+03  0.50400000000E-02 0. -1.
         -1   -1    0    0    0  501 -0.00000000000E+00 -0.00000000000E+00 -0.37000107807E+03  0.37000107811E+03  0.50400000000E-02 0.  1.
    8880023    1    1    2    0    0 -0.39991005328E+02 -0.92080191765E+01 -0.46123941214E+02  0.66152981213E+03  0.65864270000E+03 0.  0.
    8880022    1    1    2    0    0  0.39991005328E+02  0.92080191765E+01  0.37141403991E+03  0.40376244276E+03  0.15294330000E+03 0. -1.
<mgrwt>
<rscale>  0 0.46187568E+03</rscale>
<asrwt>0</asrwt>
<pdfrwt beam="1">  1        1 0.10696787E+00 0.65991990E+03</pdfrwt>
<pdfrwt beam="2">  1       -1 0.56923243E-01 0.65991990E+03</pdfrwt>
<totfact> 0.88283980E+01</totfact>
</mgrwt>
</event>
<event>
 4    1  0.1043382E-007  0.6915384E+03  0.7818608E-02  0.1003430E+00
         -1   -1    0    0    0  501 -0.00000000000E+00  0.00000000000E+00  0.75550074880E+03  0.75550074882E+03  0.50400000000E-02 0.  1.
          1   -1    0    0  501    0  0.00000000000E+00 -0.00000000000E+00 -0.55447219518E+03  0.55447219520E+03  0.50400000000E-02 0. -1.
    8880023    1    1    2    0    0 -0.10800428884E+01  0.21074625158E+03  0.54363624949E+03  0.87963954383E+03  0.65864270000E+03 0.  1.
    8880022    1    1    2    0    0  0.10800428884E+01 -0.21074625158E+03 -0.34260769586E+03  0.43033340019E+03  0.15294330000E+03 0.  0.
<mgrwt>
<rscale>  0 0.54171565E+03</rscale>
<asrwt>0</asrwt>
<pdfrwt beam="1">  1        1 0.85303414E-01 0.69153840E+03</pdfrwt>
<pdfrwt beam="2">  1       -1 0.11623088E+00 0.69153840E+03</pdfrwt>
<totfact> 0.26455261E+01</totfact>
</mgrwt>
</event>
<event>
 4    1  0.1043382E-007  0.8114947E+03  0.7818608E-02  0.9686472E-01
         -1   -1    0    0    0  501 -0.00000000000E+00  0.00000000000E+00  0.73190949391E+03  0.73190949393E+03  0.50400000000E-02 0.  1.
          1   -1    0    0  501    0  0.00000000000E+00 -0.00000000000E+00 -0.63819448726E+03  0.63819448728E+03  0.50400000000E-02 0. -1.
    8880023    1    1    2    0    0 -0.89285626244E+02  0.46555506115E+03  0.24818806542E+03  0.84859941085E+03  0.65864270000E+03 0.  1.
    8880022    1    1    2    0    0  0.89285626244E+02 -0.46555506115E+03 -0.15447305877E+03  0.52150457037E+03  0.15294330000E+03 0.  0.
<mgrwt>
<rscale>  0 0.71827992E+03</rscale>
<asrwt>0</asrwt>
<pdfrwt beam="1">  1        1 0.98183767E-01 0.81149470E+03</pdfrwt>
<pdfrwt beam="2">  1       -1 0.11260146E+00 0.81149470E+03</pdfrwt>
<totfact> 0.23030085E+01</totfact>
</mgrwt>
</event>
<event>
 4    1  0.1043382E-007  0.9115595E+03  0.7818608E-02  0.9507724E-01
          1   -1    0    0  501    0  0.00000000000E+00  0.00000000000E+00  0.22816806450E+04  0.22816806450E+04  0.50400000000E-02 0. -1.
         -1   -1    0    0    0  501 -0.00000000000E+00 -0.00000000000E+00 -0.39799803006E+03  0.39799803009E+03  0.50400000000E-02 0.  1.
    8880023    1    1    2    0    0 -0.13365694616E+03 -0.61584597278E+03  0.28594457496E+03  0.95535592721E+03  0.65864270000E+03 0.  0.
    8880022    1    1    2    0    0  0.13365694616E+03  0.61584597278E+03  0.15977380400E+04  0.17243227479E+04  0.15294330000E+03 0.  0.
<mgrwt>
<rscale>  0 0.83716749E+03</rscale>
<asrwt>0</asrwt>
<pdfrwt beam="1">  1        1 0.35102779E+00 0.91155946E+03</pdfrwt>
<pdfrwt beam="2">  1       -1 0.61230466E-01 0.91155946E+03</pdfrwt>
<totfact> 0.53255488E+00</totfact>
</mgrwt>
</event>
<event>
 4    1  0.1043382E-007  0.8114540E+03  0.7818608E-02  0.9686556E-01
         -1   -1    0    0    0  501 -0.00000000000E+00  0.00000000000E+00  0.92194518502E+03  0.92194518504E+03  0.50400000000E-02 0.  1.
          1   -1    0    0  501    0  0.00000000000E+00 -0.00000000000E+00 -0.98264889448E+03  0.98264889450E+03  0.50400000000E-02 0. -1.
    8880023    1    1    2    0    0  0.47389448074E+03  0.84525932487E+01  0.64796779029E+03  0.10384218260E+04  0.65864270000E+03 0.  0.
    8880022    1    1    2    0    0 -0.47389448074E+03 -0.84525932487E+01 -0.70867149975E+03  0.86617225353E+03  0.15294330000E+03 0.  0.
<mgrwt>
<rscale>  0 0.71822903E+03</rscale>
<asrwt>0</asrwt>
<pdfrwt beam="1">  1        1 0.15117675E+00 0.81145402E+03</pdfrwt>
<pdfrwt beam="2">  1       -1 0.14183772E+00 0.81145402E+03</pdfrwt>
<totfact> 0.64873942E+00</totfact>
</mgrwt>
</event>
<event>
 4    1  0.1043382E-007  0.9810125E+03  0.7818608E-02  0.9406832E-01
         -1   -1    0    0    0  501 -0.00000000000E+00  0.00000000000E+00  0.19019236078E+04  0.19019236079E+04  0.50400000000E-02 0.  1.
          1   -1    0    0  501    0  0.00000000000E+00 -0.00000000000E+00 -0.46812372777E+03  0.46812372779E+03  0.50400000000E-02 0. -1.
    8880023    1    1    2    0    0 -0.25534737226E+03 -0.68071507076E+03  0.12777177302E+04  0.16108842579E+04  0.65864270000E+03 0.  0.
    8880022    1    1    2    0    0  0.25534737226E+03  0.68071507076E+03  0.15608214991E+03  0.75916307775E+03  0.15294330000E+03 0.  0.
<mgrwt>
<rscale>  0 0.91515579E+03</rscale>
<asrwt>0</asrwt>
<pdfrwt beam="1">  1        1 0.72019034E-01 0.98101248E+03</pdfrwt>
<pdfrwt beam="2">  1       -1 0.29260363E+00 0.98101248E+03</pdfrwt>
<totfact> 0.18181177E+00</totfact>
</mgrwt>
</event>
<event>
 4    1  0.1043382E-007  0.1262832E+04  0.7818608E-02  0.9098340E-01
         -1   -1    0    0    0  501 -0.00000000000E+00  0.00000000000E+00  0.33388866439E+04  0.33388866439E+04  0.50400000000E-02 0.  1.
          1   -1    0    0  501    0  0.00000000000E+00 -0.00000000000E+00 -0.43895160473E+03  0.43895160476E+03  0.50400000000E-02 0. -1.
    8880023    1    1    2    0    0  0.99558043126E+03 -0.41201149570E+03  0.20016892532E+04  0.23667496573E+04  0.65864270000E+03 0.  0.
    8880022    1    1    2    0    0 -0.99558043126E+03  0.41201149570E+03  0.89824578600E+03  0.14110885914E+04  0.15294330000E+03 0.  0.
<mgrwt>
<rscale>  0 0.12167266E+04</rscale>
<asrwt>0</asrwt>
<pdfrwt beam="1">  1        1 0.67531019E-01 0.12628318E+04</pdfrwt>
<pdfrwt beam="2">  1       -1 0.51367485E+00 0.12628318E+04</pdfrwt>
<totfact> 0.63282964E-02</totfact>
</mgrwt>
</event>
<event>
 4    1  0.1043382E-007  0.6965654E+03  0.7818608E-02  0.1001176E+00
         -1   -1    0    0    0  501 -0.00000000000E+00  0.00000000000E+00  0.49338713563E+03  0.49338713566E+03  0.50400000000E-02 0.  1.
          1   -1    0    0  501    0  0.00000000000E+00 -0.00000000000E+00 -0.59759363766E+03  0.59759363768E+03  0.50400000000E-02 0. -1.
    8880023    1    1    2    0    0 -0.67118030517E+02  0.21653717837E+03  0.15564627152E+03  0.71374305442E+03  0.65864270000E+03 0.  1.
    8880022    1    1    2    0    0  0.67118030517E+02 -0.21653717837E+03 -0.25985277354E+03  0.37723771891E+03  0.15294330000E+03 0.  0.
<mgrwt>
<rscale>  0 0.55137634E+03</rscale>
<asrwt>0</asrwt>
<pdfrwt beam="1">  1        1 0.91937482E-01 0.69656542E+03</pdfrwt>
<pdfrwt beam="2">  1       -1 0.75905713E-01 0.69656542E+03</pdfrwt>
<totfact> 0.61584463E+01</totfact>
</mgrwt>
</event>
<event>
 4    1  0.1093086E-007  0.6796094E+03  0.7818608E-02  0.1009545E+00
         -1   -1    0    0    0  501 -0.00000000000E+00  0.00000000000E+00  0.68919441667E+03  0.68919441668E+03  0.50400000000E-02 0.  1.
          1   -1    0    0  501    0  0.00000000000E+00 -0.00000000000E+00 -0.19026436447E+04  0.19026436448E+04  0.50400000000E-02 0. -1.
    8880023    1    1    2    0    0 -0.58699152968E+02  0.15688557891E+03  0.51241044099E+03  0.85113650006E+03  0.65864270000E+03 0.  1.
    8880022    1    1    2    0    0  0.58699152968E+02 -0.15688557891E+03 -0.17258596691E+04  0.17407015614E+04  0.15294330000E+03 0.  0.
<mgrwt>
<rscale>  0 0.51655674E+03</rscale>
<asrwt>0</asrwt>
<pdfrwt beam="1">  1        1 0.29271440E+00 0.67960936E+03</pdfrwt>
<pdfrwt beam="2">  1       -1 0.10602991E+00 0.67960936E+03</pdfrwt>
<totfact> 0.30760879E+00</totfact>
</mgrwt>
</event>
<event>
 4    1  0.1043382E-007  0.7217093E+03  0.7818608E-02  0.9916844E-01
         -1   -1    0    0    0  501 -0.00000000000E+00  0.00000000000E+00  0.31527148773E+03  0.31527148777E+03  0.50400000000E-02 0.  1.
          1   -1    0    0  501    0  0.00000000000E+00 -0.00000000000E+00 -0.91344270431E+03  0.91344270433E+03  0.50400000000E-02 0. -1.
    8880023    1    1    2    0    0  0.25907131760E+03  0.14119538212E+03 -0.51355259580E+03  0.88577681074E+03  0.65864270000E+03 0.  1.
    8880022    1    1    2    0    0 -0.25907131760E+03 -0.14119538212E+03 -0.84618620790E+02  0.34293738136E+03  0.15294330000E+03 0.  0.
<mgrwt>
<rscale>  0 0.59451845E+03</rscale>
<asrwt>0</asrwt>
<pdfrwt beam="1">  1        1 0.14052965E+00 0.72170928E+03</pdfrwt>
<pdfrwt beam="2">  1       -1 0.48503306E-01 0.72170928E+03</pdfrwt>
<totfact> 0.77201273E+01</totfact>
</mgrwt>
</event>
<event>
 4    1  0.1043382E-007  0.9500934E+03  0.7818608E-02  0.9449980E-01
          1   -1    0    0  501    0  0.00000000000E+00  0.00000000000E+00  0.76913718940E+03  0.76913718942E+03  0.50400000000E-02 0. -1.
         -1   -1    0    0    0  501 -0.00000000000E+00 -0.00000000000E+00 -0.94338418510E+03  0.94338418512E+03  0.50400000000E-02 0.  1.
    8880023    1    1    2    0    0 -0.87876489190E+02  0.67907656374E+03 -0.30699780110E+03  0.99846137277E+03  0.65864270000E+03 0.  1.
    8880022    1    1    2    0    0  0.87876489190E+02 -0.67907656374E+03  0.13275080540E+03  0.71406000177E+03  0.15294330000E+03 0. -1.
<mgrwt>
<rscale>  0 0.88074244E+03</rscale>
<asrwt>0</asrwt>
<pdfrwt beam="1">  1        1 0.11832880E+00 0.95009340E+03</pdfrwt>
<pdfrwt beam="2">  1       -1 0.14513603E+00 0.95009340E+03</pdfrwt>
<totfact> 0.90388782E+00</totfact>
</mgrwt>
</event>
<event>
 4    1  0.1043382E-007  0.8051772E+03  0.7818608E-02  0.9699712E-01
          1   -1    0    0  501    0  0.00000000000E+00  0.00000000000E+00  0.14813505850E+04  0.14813505850E+04  0.50400000000E-02 0. -1.
         -1   -1    0    0    0  501 -0.00000000000E+00 -0.00000000000E+00 -0.77382694237E+03  0.77382694238E+03  0.50400000000E-02 0.  1.
    8880023    1    1    2    0    0  0.11143966791E+03  0.44953454635E+03 -0.50348669754E+03  0.94963633503E+03  0.65864270000E+03 0.  0.
    8880022    1    1    2    0    0 -0.11143966791E+03 -0.44953454635E+03  0.12110103401E+04  0.13055411923E+04  0.15294330000E+03 0.  0.
<mgrwt>
<rscale>  0 0.71033960E+03</rscale>
<asrwt>0</asrwt>
<pdfrwt beam="1">  1        1 0.22790009E+00 0.80517719E+03</pdfrwt>
<pdfrwt beam="2">  1       -1 0.11905030E+00 0.80517719E+03</pdfrwt>
<totfact> 0.43948164E+00</totfact>
</mgrwt>
</event>
<event>
 4    1  0.1043382E-007  0.6981740E+03  0.7818608E-02  0.1000486E+00
          1   -1    0    0  501    0  0.00000000000E+00  0.00000000000E+00  0.48095042394E+03  0.48095042397E+03  0.50400000000E-02 0. -1.
         -1   -1    0    0    0  501 -0.00000000000E+00 -0.00000000000E+00 -0.91401240963E+03  0.91401240965E+03  0.50400000000E-02 0.  1.
    8880023    1    1    2    0    0  0.23086503638E+03 -0.18388037296E+02 -0.71500290941E+03  0.99933785662E+03  0.65864270000E+03 0.  1.
    8880022    1    1    2    0    0 -0.23086503638E+03  0.18388037296E+02  0.28194092372E+03  0.39562497700E+03  0.15294330000E+03 0.  0.
<mgrwt>
<rscale>  0 0.55437567E+03</rscale>
<asrwt>0</asrwt>
<pdfrwt beam="1">  1        1 0.73992373E-01 0.69817404E+03</pdfrwt>
<pdfrwt beam="2">  1       -1 0.14061729E+00 0.69817404E+03</pdfrwt>
<totfact> 0.19993424E+01</totfact>
</mgrwt>
</event>
<event>
 4    1  0.1043382E-007  0.8697544E+03  0.7818608E-02  0.9576442E-01
         -1   -1    0    0    0  501 -0.00000000000E+00  0.00000000000E+00  0.16593064308E+03  0.16593064316E+03  0.50400000000E-02 0.  1.
          1   -1    0    0  501    0  0.00000000000E+00 -0.00000000000E+00 -0.32167783495E+04  0.32167783496E+04  0.50400000000E-02 0. -1.
    8880023    1    1    2    0    0  0.56746775609E+03 -0.25353174378E+02 -0.17095193933E+04  0.19180534925E+04  0.65864270000E+03 0.  1.
    8880022    1    1    2    0    0 -0.56746775609E+03  0.25353174378E+02 -0.13413283132E+04  0.14646555002E+04  0.15294330000E+03 0. -1.
<mgrwt>
<rscale>  0 0.78875197E+03</rscale>
<asrwt>0</asrwt>
<pdfrwt beam="1">  1        1 0.49488893E+00 0.86975436E+03</pdfrwt>
<pdfrwt beam="2">  1       -1 0.25527794E-01 0.86975436E+03</pdfrwt>
<totfact> 0.58529027E+00</totfact>
</mgrwt>
</event>
<event>
 4    1  0.1043382E-007  0.6911909E+03  0.7818608E-02  0.1003592E+00
         -1   -1    0    0    0  501 -0.00000000000E+00  0.00000000000E+00  0.14235264207E+03  0.14235264216E+03  0.50400000000E-02 0.  1.
          1   -1    0    0  501    0  0.00000000000E+00 -0.00000000000E+00 -0.38862370048E+04  0.38862370048E+04  0.50400000000E-02 0. -1.
    8880023    1    1    2    0    0 -0.71942113464E+02 -0.19687310311E+03 -0.73652117002E+03  0.10100536256E+04  0.65864270000E+03 0.  1.
    8880022    1    1    2    0    0  0.71942113464E+02  0.19687310311E+03 -0.30073631927E+04  0.30185360214E+04  0.15294330000E+03 0.  0.
<mgrwt>
<rscale>  0 0.54103037E+03</rscale>
<asrwt>0</asrwt>
<pdfrwt beam="1">  1        1 0.59788253E+00 0.69119092E+03</pdfrwt>
<pdfrwt beam="2">  1       -1 0.21900409E-01 0.69119092E+03</pdfrwt>
<totfact> 0.23446832E+00</totfact>
</mgrwt>
</event>
<event>
 4    1  0.1043382E-007  0.6862065E+03  0.7818608E-02  0.1006010E+00
         -1   -1    0    0    0  501 -0.00000000000E+00  0.00000000000E+00  0.26199523509E+04  0.26199523509E+04  0.50400000000E-02 0.  1.
          1   -1    0    0  501    0  0.00000000000E+00 -0.00000000000E+00 -0.14379377582E+03  0.14379377590E+03  0.50400000000E-02 0. -1.
    8880023    1    1    2    0    0 -0.13476271297E+03 -0.13750682767E+03  0.24146781532E+04  0.25102888094E+04  0.65864270000E+03 0.  1.
    8880022    1    1    2    0    0  0.13476271297E+03  0.13750682767E+03  0.61480421809E+02  0.25345731740E+03  0.15294330000E+03 0.  0.
<mgrwt>
<rscale>  0 0.53091539E+03</rscale>
<asrwt>0</asrwt>
<pdfrwt beam="1">  1        1 0.22122120E-01 0.68620647E+03</pdfrwt>
<pdfrwt beam="2">  1       -1 0.40306958E+00 0.68620647E+03</pdfrwt>
<totfact> 0.16810438E+00</totfact>
</mgrwt>
</event>
<event>
 4    1  0.1043382E-007  0.6748585E+03  0.7818608E-02  0.1012396E+00
         -1   -1    0    0    0  501 -0.00000000000E+00  0.00000000000E+00  0.36637294188E+03  0.36637294192E+03  0.50400000000E-02 0.  1.
          1   -1    0    0  501    0  0.00000000000E+00 -0.00000000000E+00 -0.74114762534E+03  0.74114762536E+03  0.50400000000E-02 0. -1.
    8880023    1    1    2    0    0  0.11923547358E+03 -0.86062348158E+02  0.22897676877E+01  0.67486241207E+03  0.65864270000E+03 0.  1.
    8880022    1    1    2    0    0 -0.11923547358E+03  0.86062348158E+02 -0.37706445114E+03  0.43265815520E+03  0.15294330000E+03 0.  0.
<mgrwt>
<rscale>  0 0.50533548E+03</rscale>
<asrwt>0</asrwt>
<pdfrwt beam="1">  1        1 0.11402271E+00 0.67485853E+03</pdfrwt>
<pdfrwt beam="2">  1       -1 0.56365068E-01 0.67485853E+03</pdfrwt>
<totfact> 0.81550583E+01</totfact>
</mgrwt>
</event>
<event>
 4    1  0.1043382E-007  0.8958328E+03  0.7818608E-02  0.9532755E-01
         -1   -1    0    0    0  501 -0.00000000000E+00  0.00000000000E+00  0.11821934379E+04  0.11821934379E+04  0.50400000000E-02 0.  1.
          1   -1    0    0  501    0  0.00000000000E+00 -0.00000000000E+00 -0.64655122916E+03  0.64655122918E+03  0.50400000000E-02 0. -1.
    8880023    1    1    2    0    0 -0.11583848555E+02  0.60710134776E+03  0.74850084585E+03  0.11673773831E+04  0.65864270000E+03 0.  1.
    8880022    1    1    2    0    0  0.11583848555E+02 -0.60710134776E+03 -0.21285863710E+03  0.66136728404E+03  0.15294330000E+03 0.  0.
<mgrwt>
<rscale>  0 0.81911436E+03</rscale>
<asrwt>0</asrwt>
<pdfrwt beam="1">  1        1 0.99469420E-01 0.89583282E+03</pdfrwt>
<pdfrwt beam="2">  1       -1 0.18187591E+00 0.89583282E+03</pdfrwt>
<totfact> 0.62856827E+00</totfact>
</mgrwt>
</event>
<event>
 4    1  0.1043382E-007  0.7676488E+03  0.7818608E-02  0.9785693E-01
          1   -1    0    0  501    0  0.00000000000E+00  0.00000000000E+00  0.20588040363E+04  0.20588040363E+04  0.50400000000E-02 0. -1.
         -1   -1    0    0    0  501 -0.00000000000E+00 -0.00000000000E+00 -0.24633652352E+03  0.24633652357E+03  0.50400000000E-02 0.  1.
    8880023    1    1    2    0    0  0.27538531935E+03  0.28220086967E+03  0.47576117226E+03  0.90312419093E+03  0.65864270000E+03 0.  1.
    8880022    1    1    2    0    0 -0.27538531935E+03 -0.28220086967E+03  0.13367063405E+04  0.14020163689E+04  0.15294330000E+03 0.  0.
<mgrwt>
<rscale>  0 0.66135997E+03</rscale>
<asrwt>0</asrwt>
<pdfrwt beam="1">  1        1 0.31673909E+00 0.76764876E+03</pdfrwt>
<pdfrwt beam="2">  1       -1 0.37897925E-01 0.76764876E+03</pdfrwt>
<totfact> 0.18990645E+01</totfact>
</mgrwt>
</event>
<event>
 4    1  0.1043382E-007  0.6658539E+03  0.7818608E-02  0.1018828E+00
          1   -1    0    0  501    0  0.00000000000E+00  0.00000000000E+00  0.25938142467E+04  0.25938142467E+04  0.50400000000E-02 0. -1.
         -1   -1    0    0    0  501 -0.00000000000E+00 -0.00000000000E+00 -0.42582452308E+03  0.42582452311E+03  0.50400000000E-02 0.  1.
    8880023    1    1    2    0    0 -0.97545459796E+02 -0.60061460006E+01 -0.15981862494E+03  0.68476520769E+03  0.65864270000E+03 0.  1.
    8880022    1    1    2    0    0  0.97545459796E+02  0.60061460006E+01  0.23278083486E+04  0.23348735621E+04  0.15294330000E+03 0.  0.
<mgrwt>
<rscale>  0 0.48112103E+03</rscale>
<asrwt>0</asrwt>
<pdfrwt beam="1">  1        1 0.39904835E+00 0.66585389E+03</pdfrwt>
<pdfrwt beam="2">  1       -1 0.65511465E-01 0.66585389E+03</pdfrwt>
<totfact> 0.29801258E+00</totfact>
</mgrwt>
</event>
<event>
 4    1  0.1043382E-007  0.8552622E+03  0.7818608E-02  0.9602047E-01
          1   -1    0    0  501    0  0.00000000000E+00  0.00000000000E+00  0.15221525492E+04  0.15221525492E+04  0.50400000000E-02 0. -1.
         -1   -1    0    0    0  501 -0.00000000000E+00 -0.00000000000E+00 -0.78965205660E+03  0.78965205662E+03  0.50400000000E-02 0.  1.
    8880023    1    1    2    0    0 -0.12554439707E+03  0.53094431984E+03 -0.47475321901E+03  0.97819430157E+03  0.65864270000E+03 0.  1.
    8880022    1    1    2    0    0  0.12554439707E+03 -0.53094431984E+03  0.12072537116E+04  0.13336103043E+04  0.15294330000E+03 0.  0.
<mgrwt>
<rscale>  0 0.77160829E+03</rscale>
<asrwt>0</asrwt>
<pdfrwt beam="1">  1        1 0.23417731E+00 0.85526222E+03</pdfrwt>
<pdfrwt beam="2">  1       -1 0.12148493E+00 0.85526222E+03</pdfrwt>
<totfact> 0.38908534E+00</totfact>
</mgrwt>
</event>
<event>
 4    1  0.1043382E-007  0.6893951E+03  0.7818608E-02  0.1004441E+00
          1   -1    0    0  501    0  0.00000000000E+00  0.00000000000E+00  0.20900705881E+04  0.20900705881E+04  0.50400000000E-02 0. -1.
         -1   -1    0    0    0  501 -0.00000000000E+00 -0.00000000000E+00 -0.65796924203E+03  0.65796924205E+03  0.50400000000E-02 0.  1.
    8880023    1    1    2    0    0 -0.15505629919E+03  0.13195788963E+03 -0.46652463016E+03  0.83241262446E+03  0.65864270000E+03 0.  1.
    8880022    1    1    2    0    0  0.15505629919E+03 -0.13195788963E+03  0.18986259762E+04  0.19156272057E+04  0.15294330000E+03 0.  0.
<mgrwt>
<rscale>  0 0.53744912E+03</rscale>
<asrwt>0</asrwt>
<pdfrwt beam="1">  1        1 0.32154932E+00 0.68939506E+03</pdfrwt>
<pdfrwt beam="2">  1       -1 0.10122604E+00 0.68939506E+03</pdfrwt>
<totfact> 0.25618467E+00</totfact>
</mgrwt>
</event>
<event>
 4    1  0.1043382E-007  0.7538641E+03  0.7818608E-02  0.9821260E-01
          1   -1    0    0  501    0  0.00000000000E+00  0.00000000000E+00  0.10433054312E+04  0.10433054312E+04  0.50400000000E-02 0. -1.
         -1   -1    0    0    0  501 -0.00000000000E+00 -0.00000000000E+00 -0.48504033166E+03  0.48504033168E+03  0.50400000000E-02 0.  1.
    8880023    1    1    2    0    0  0.35155744482E+03  0.10444224747E+03 -0.98965602440E+02  0.76033230682E+03  0.65864270000E+03 0.  0.
    8880022    1    1    2    0    0 -0.35155744482E+03 -0.10444224747E+03  0.65723070197E+03  0.76801345606E+03  0.15294330000E+03 0.  0.
<mgrwt>
<rscale>  0 0.64233999E+03</rscale>
<asrwt>0</asrwt>
<pdfrwt beam="1">  1        1 0.16050853E+00 0.75386406E+03</pdfrwt>
<pdfrwt beam="2">  1       -1 0.74621590E-01 0.75386406E+03</pdfrwt>
<totfact> 0.26006423E+01</totfact>
</mgrwt>
</event>
<event>
 4    1  0.1043382E-007  0.9208788E+03  0.7818608E-02  0.9493313E-01
          1   -1    0    0  501    0  0.00000000000E+00  0.00000000000E+00  0.18824479231E+04  0.18824479231E+04  0.50400000000E-02 0. -1.
         -1   -1    0    0    0  501 -0.00000000000E+00 -0.00000000000E+00 -0.82172474573E+03  0.82172474575E+03  0.50400000000E-02 0.  1.
    8880023    1    1    2    0    0  0.15261751712E+03 -0.62523229897E+03  0.16030779551E+04  0.18487500293E+04  0.65864270000E+03 0. -1.
    8880022    1    1    2    0    0 -0.15261751712E+03  0.62523229897E+03 -0.54235477782E+03  0.85542263954E+03  0.15294330000E+03 0.  0.
<mgrwt>
<rscale>  0 0.84778634E+03</rscale>
<asrwt>0</asrwt>
<pdfrwt beam="1">  1        1 0.28960737E+00 0.92087879E+03</pdfrwt>
<pdfrwt beam="2">  1       -1 0.12641919E+00 0.92087879E+03</pdfrwt>
<totfact> 0.19902460E+00</totfact>
</mgrwt>
</event>
<event>
 4    1  0.1043382E-007  0.9328867E+03  0.7818608E-02  0.9475176E-01
         -1   -1    0    0    0  501 -0.00000000000E+00  0.00000000000E+00  0.25718223125E+04  0.25718223125E+04  0.50400000000E-02 0.  1.
          1   -1    0    0  501    0  0.00000000000E+00 -0.00000000000E+00 -0.44118164757E+03  0.44118164759E+03  0.50400000000E-02 0. -1.
    8880023    1    1    2    0    0  0.56890507221E+02 -0.65820268157E+03  0.21403363930E+04  0.23348056410E+04  0.65864270000E+03 0.  1.
    8880022    1    1    2    0    0 -0.56890507221E+02  0.65820268157E+03 -0.96957280753E+01  0.67819831908E+03  0.15294330000E+03 0.  0.
<mgrwt>
<rscale>  0 0.86138983E+03</rscale>
<asrwt>0</asrwt>
<pdfrwt beam="1">  1        1 0.67874099E-01 0.93288665E+03</pdfrwt>
<pdfrwt beam="2">  1       -1 0.39566498E+00 0.93288665E+03</pdfrwt>
<totfact> 0.41757720E-01</totfact>
</mgrwt>
</event>
<event>
 4    1  0.1043382E-007  0.6945526E+03  0.7818608E-02  0.1002060E+00
         -1   -1    0    0    0  501 -0.00000000000E+00  0.00000000000E+00  0.57281675826E+03  0.57281675828E+03  0.50400000000E-02 0.  1.
          1   -1    0    0  501    0  0.00000000000E+00 -0.00000000000E+00 -0.60867315404E+03  0.60867315406E+03  0.50400000000E-02 0. -1.
    8880023    1    1    2    0    0  0.19658911513E+03 -0.99728696806E+02  0.29578298390E+03  0.75491116893E+03  0.65864270000E+03 0.  1.
    8880022    1    1    2    0    0 -0.19658911513E+03  0.99728696806E+02 -0.33163937968E+03  0.42657874341E+03  0.15294330000E+03 0.  0.
<mgrwt>
<rscale>  0 0.54756277E+03</rscale>
<asrwt>0</asrwt>
<pdfrwt beam="1">  1        1 0.93642023E-01 0.69455259E+03</pdfrwt>
<pdfrwt beam="2">  1       -1 0.88125655E-01 0.69455259E+03</pdfrwt>
<totfact> 0.43625902E+01</totfact>
</mgrwt>
</event>
<event>
 4    1  0.1043382E-007  0.1043672E+04  0.7818608E-02  0.9326528E-01
         -1   -1    0    0    0  501 -0.00000000000E+00  0.00000000000E+00  0.13881671669E+04  0.13881671669E+04  0.50400000000E-02 0.  1.
          1   -1    0    0  501    0  0.00000000000E+00 -0.00000000000E+00 -0.66317780408E+03  0.66317780410E+03  0.50400000000E-02 0. -1.
    8880023    1    1    2    0    0  0.69254263764E+03 -0.41931470924E+03  0.63709058561E+03  0.12227570286E+04  0.65864270000E+03 0.  1.
    8880022    1    1    2    0    0 -0.69254263764E+03  0.41931470924E+03  0.87898777226E+02  0.82858794246E+03  0.15294330000E+03 0. -1.
<mgrwt>
<rscale>  0 0.98376906E+03</rscale>
<asrwt>0</asrwt>
<pdfrwt beam="1">  1        1 0.10202735E+00 0.10436716E+04</pdfrwt>
<pdfrwt beam="2">  1       -1 0.21356418E+00 0.10436716E+04</pdfrwt>
<totfact> 0.35946312E+00</totfact>
</mgrwt>
</event>
<event>
 4    1  0.1043382E-007  0.7922298E+03  0.7818608E-02  0.9727856E-01
          1   -1    0    0  501    0  0.00000000000E+00  0.00000000000E+00  0.74563719380E+03  0.74563719381E+03  0.50400000000E-02 0. -1.
         -1   -1    0    0    0  501 -0.00000000000E+00 -0.00000000000E+00 -0.82710413753E+03  0.82710413755E+03  0.50400000000E-02 0.  1.
    8880023    1    1    2    0    0  0.39039579739E+03 -0.20349198780E+03 -0.50787976212E+03  0.94104725001E+03  0.65864270000E+03 0.  1.
    8880022    1    1    2    0    0 -0.39039579739E+03  0.20349198780E+03  0.42641281838E+03  0.63169408135E+03  0.15294330000E+03 0.  0.
<mgrwt>
<rscale>  0 0.69382228E+03</rscale>
<asrwt>0</asrwt>
<pdfrwt beam="1">  1        1 0.11471341E+00 0.79222981E+03</pdfrwt>
<pdfrwt beam="2">  1       -1 0.12724679E+00 0.79222981E+03</pdfrwt>
<totfact> 0.13546595E+01</totfact>
</mgrwt>
</event>
<event>
 4    1  0.1043382E-007  0.1107108E+04  0.7818608E-02  0.9253183E-01
          1   -1    0    0  501    0  0.00000000000E+00  0.00000000000E+00  0.17456049032E+04  0.17456049032E+04  0.50400000000E-02 0. -1.
         -1   -1    0    0    0  501 -0.00000000000E+00 -0.00000000000E+00 -0.71784680004E+03  0.71784680005E+03  0.50400000000E-02 0.  1.
    8880023    1    1    2    0    0  0.80390004448E+03 -0.38160480658E+03  0.15782589821E+02  0.11072203061E+04  0.65864270000E+03 0.  1.
    8880022    1    1    2    0    0 -0.80390004448E+03  0.38160480658E+03  0.10119755133E+04  0.13562313971E+04  0.15294330000E+03 0.  0.
<mgrwt>
<rscale>  0 0.10520953E+04</rscale>
<asrwt>0</asrwt>
<pdfrwt beam="1">  1        1 0.26855460E+00 0.11071078E+04</pdfrwt>
<pdfrwt beam="2">  1       -1 0.11043797E+00 0.11071078E+04</pdfrwt>
<totfact> 0.33359106E+00</totfact>
</mgrwt>
</event>
<event>
 4    1  0.1043382E-007  0.1041063E+04  0.7818608E-02  0.9329703E-01
          1   -1    0    0  501    0  0.00000000000E+00  0.00000000000E+00  0.15033693476E+04  0.15033693477E+04  0.50400000000E-02 0. -1.
         -1   -1    0    0    0  501 -0.00000000000E+00 -0.00000000000E+00 -0.70841767718E+03  0.70841767720E+03  0.50400000000E-02 0.  1.
    8880023    1    1    2    0    0 -0.42844029269E+03  0.68296494304E+03  0.91054732227E+03  0.13830794736E+04  0.65864270000E+03 0. -1.
    8880022    1    1    2    0    0  0.42844029269E+03 -0.68296494304E+03 -0.11559565181E+03  0.82870755129E+03  0.15294330000E+03 0.  0.
<mgrwt>
<rscale>  0 0.98093773E+03</rscale>
<asrwt>0</asrwt>
<pdfrwt beam="1">  1        1 0.23128759E+00 0.10410631E+04</pdfrwt>
<pdfrwt beam="2">  1       -1 0.10898734E+00 0.10410631E+04</pdfrwt>
<totfact> 0.50786541E+00</totfact>
</mgrwt>
</event>
<event>
 4    1  0.1043382E-007  0.6756807E+03  0.7818608E-02  0.1011881E+00
         -1   -1    0    0    0  501 -0.00000000000E+00  0.00000000000E+00  0.82556718381E+02  0.82556718535E+02  0.50400000000E-02 0.  1.
          1   -1    0    0  501    0  0.00000000000E+00 -0.00000000000E+00 -0.29021132904E+04  0.29021132905E+04  0.50400000000E-02 0. -1.
    8880023    1    1    2    0    0  0.91197000959E+01  0.15050276676E+03 -0.14664739392E+04  0.16146486530E+04  0.65864270000E+03 0.  1.
    8880022    1    1    2    0    0 -0.91197000959E+01 -0.15050276676E+03 -0.13530826328E+04  0.13700213560E+04  0.15294330000E+03 0.  0.
<mgrwt>
<rscale>  0 0.50734019E+03</rscale>
<asrwt>0</asrwt>
<pdfrwt beam="1">  1        1 0.44647889E+00 0.67568074E+03</pdfrwt>
<pdfrwt beam="2">  1       -1 0.12701036E-01 0.67568074E+03</pdfrwt>
<totfact> 0.32329691E+01</totfact>
</mgrwt>
</event>
<event>
 4    1  0.1043382E-007  0.7040182E+03  0.7818608E-02  0.9980923E-01
          1   -1    0    0  501    0  0.00000000000E+00  0.00000000000E+00  0.10017897278E+04  0.10017897278E+04  0.50400000000E-02 0. -1.
         -1   -1    0    0    0  501 -0.00000000000E+00 -0.00000000000E+00 -0.25801445251E+03  0.25801445256E+03  0.50400000000E-02 0.  1.
    8880023    1    1    2    0    0 -0.24824344578E+03  0.14375170478E+02  0.40345931136E+03  0.81143149808E+03  0.65864270000E+03 0.  1.
    8880022    1    1    2    0    0  0.24824344578E+03 -0.14375170478E+02  0.34031596391E+03  0.44837268227E+03  0.15294330000E+03 0.  0.
<mgrwt>
<rscale>  0 0.56494686E+03</rscale>
<asrwt>0</asrwt>
<pdfrwt beam="1">  1        1 0.15412150E+00 0.70401822E+03</pdfrwt>
<pdfrwt beam="2">  1       -1 0.39694531E-01 0.70401822E+03</pdfrwt>
<totfact> 0.95356134E+01</totfact>
</mgrwt>
</event>
<event>
 4    1  0.1043382E-007  0.6894307E+03  0.7818608E-02  0.1004424E+00
         -1   -1    0    0    0  501 -0.00000000000E+00  0.00000000000E+00  0.44683923772E+03  0.44683923774E+03  0.50400000000E-02 0.  1.
          1   -1    0    0  501    0  0.00000000000E+00 -0.00000000000E+00 -0.79369769785E+03  0.79369769787E+03  0.50400000000E-02 0. -1.
    8880023    1    1    2    0    0  0.46279551224E+02  0.19840047703E+03  0.12842207152E+03  0.70128951287E+03  0.65864270000E+03 0.  1.
    8880022    1    1    2    0    0 -0.46279551224E+02 -0.19840047703E+03 -0.47528053165E+03  0.53924742274E+03  0.15294330000E+03 0.  0.
<mgrwt>
<rscale>  0 0.53752095E+03</rscale>
<asrwt>0</asrwt>
<pdfrwt beam="1">  1        1 0.12210734E+00 0.68943075E+03</pdfrwt>
<pdfrwt beam="2">  1       -1 0.68744498E-01 0.68943075E+03</pdfrwt>
<totfact> 0.49337151E+01</totfact>
</mgrwt>
</event>
<event>
 4    1  0.1043382E-007  0.6848246E+03  0.7818608E-02  0.1006716E+00
         -1   -1    0    0    0  501 -0.00000000000E+00  0.00000000000E+00  0.84306483401E+03  0.84306483403E+03  0.50400000000E-02 0.  1.
          1   -1    0    0  501    0  0.00000000000E+00 -0.00000000000E+00 -0.46159798561E+03  0.46159798564E+03  0.50400000000E-02 0. -1.
    8880023    1    1    2    0    0 -0.18526676514E+03  0.29167988669E+02  0.64929151230E+03  0.94369710185E+03  0.65864270000E+03 0.  1.
    8880022    1    1    2    0    0  0.18526676514E+03 -0.29167988669E+02 -0.26782466390E+03  0.36096571782E+03  0.15294330000E+03 0.  0.
<mgrwt>
<rscale>  0 0.52800788E+03</rscale>
<asrwt>0</asrwt>
<pdfrwt beam="1">  1        1 0.71015075E-01 0.68482461E+03</pdfrwt>
<pdfrwt beam="2">  1       -1 0.12970228E+00 0.68482461E+03</pdfrwt>
<totfact> 0.26024067E+01</totfact>
</mgrwt>
</event>
<event>
 4    1  0.1043382E-007  0.9010554E+03  0.7818608E-02  0.9524339E-01
         -1   -1    0    0    0  501 -0.00000000000E+00  0.00000000000E+00  0.13686107970E+04  0.13686107970E+04  0.50400000000E-02 0.  1.
          1   -1    0    0  501    0  0.00000000000E+00 -0.00000000000E+00 -0.49660757410E+03  0.49660757412E+03  0.50400000000E-02 0. -1.
    8880023    1    1    2    0    0  0.48002003888E+03  0.38428042775E+03  0.83827776425E+03  0.12306951293E+04  0.65864270000E+03 0.  0.
    8880022    1    1    2    0    0 -0.48002003888E+03 -0.38428042775E+03  0.33725458633E+02  0.63452324186E+03  0.15294330000E+03 0.  0.
<mgrwt>
<rscale>  0 0.82512916E+03</rscale>
<asrwt>0</asrwt>
<pdfrwt beam="1">  1        1 0.76401166E-01 0.90105543E+03</pdfrwt>
<pdfrwt beam="2">  1       -1 0.21055550E+00 0.90105543E+03</pdfrwt>
<totfact> 0.57936084E+00</totfact>
</mgrwt>
</event>
<event>
 4    1  0.1043382E-007  0.9055357E+03  0.7818608E-02  0.9517203E-01
          1   -1    0    0  501    0  0.00000000000E+00  0.00000000000E+00  0.14903858267E+04  0.14903858267E+04  0.50400000000E-02 0. -1.
         -1   -1    0    0    0  501 -0.00000000000E+00 -0.00000000000E+00 -0.10766621228E+04  0.10766621228E+04  0.50400000000E-02 0.  1.
    8880023    1    1    2    0    0  0.60256943776E+03  0.15196941137E+03 -0.79134017955E+03  0.12025864274E+04  0.65864270000E+03 0.  1.
    8880022    1    1    2    0    0 -0.60256943776E+03 -0.15196941137E+03  0.12050638834E+04  0.13644615221E+04  0.15294330000E+03 0.  0.
<mgrwt>
<rscale>  0 0.83027320E+03</rscale>
<asrwt>0</asrwt>
<pdfrwt beam="1">  1        1 0.22929013E+00 0.90553566E+03</pdfrwt>
<pdfrwt beam="2">  1       -1 0.16564033E+00 0.90553566E+03</pdfrwt>
<totfact> 0.17958950E+00</totfact>
</mgrwt>
</event>
<event>
 4    1  0.1043382E-007  0.8214072E+03  0.7818608E-02  0.9666288E-01
         -1   -1    0    0    0  501 -0.00000000000E+00  0.00000000000E+00  0.96368669083E+03  0.96368669084E+03  0.50400000000E-02 0.  1.
          1   -1    0    0  501    0  0.00000000000E+00 -0.00000000000E+00 -0.96540348745E+03  0.96540348747E+03  0.50400000000E-02 0. -1.
    8880023    1    1    2    0    0  0.30492264142E+03  0.38460607730E+03  0.68618752076E+03  0.10703098485E+04  0.65864270000E+03 0.  1.
    8880022    1    1    2    0    0 -0.30492264142E+03 -0.38460607730E+03 -0.68790431738E+03  0.85878032979E+03  0.15294330000E+03 0.  0.
<mgrwt>
<rscale>  0 0.73059931E+03</rscale>
<asrwt>0</asrwt>
<pdfrwt beam="1">  1        1 0.14852361E+00 0.82140724E+03</pdfrwt>
<pdfrwt beam="2">  1       -1 0.14825949E+00 0.82140724E+03</pdfrwt>
<totfact> 0.59444074E+00</totfact>
</mgrwt>
</event>
<event>
 4    1  0.1043382E-007  0.1423533E+04  0.7818608E-02  0.8965610E-01
          1   -1    0    0  501    0  0.00000000000E+00  0.00000000000E+00  0.22721752394E+04  0.22721752394E+04  0.50400000000E-02 0. -1.
         -1   -1    0    0    0  501 -0.00000000000E+00 -0.00000000000E+00 -0.11161179301E+04  0.11161179301E+04  0.50400000000E-02 0.  1.
    8880023    1    1    2    0    0  0.75914563143E+03  0.10081335002E+04 -0.30060978426E+03  0.14549266967E+04  0.65864270000E+03 0.  0.
    8880022    1    1    2    0    0 -0.75914563143E+03 -0.10081335002E+04  0.14566670935E+04  0.19333664728E+04  0.15294330000E+03 0.  0.
<mgrwt>
<rscale>  0 0.13838266E+04</rscale>
<asrwt>0</asrwt>
<pdfrwt beam="1">  1        1 0.34956542E+00 0.14235327E+04</pdfrwt>
<pdfrwt beam="2">  1       -1 0.17171045E+00 0.14235327E+04</pdfrwt>
<totfact> 0.44435677E-01</totfact>
</mgrwt>
</event>
<event>
 4    1  0.1043382E-007  0.1329975E+04  0.7818608E-02  0.9040097E-01
         -1   -1    0    0    0  501 -0.00000000000E+00  0.00000000000E+00  0.12087352192E+04  0.12087352192E+04  0.50400000000E-02 0.  1.
          1   -1    0    0  501    0  0.00000000000E+00 -0.00000000000E+00 -0.33185788769E+04  0.33185788769E+04  0.50400000000E-02 0. -1.
    8880023    1    1    2    0    0  0.97482825183E+03  0.62026929734E+03 -0.28511062137E+04  0.31460516477E+04  0.65864270000E+03 0. -1.
    8880022    1    1    2    0    0 -0.97482825183E+03 -0.62026929734E+03  0.74126255597E+03  0.13812624485E+04  0.15294330000E+03 0.  0.
<mgrwt>
<rscale>  0 0.12868021E+04</rscale>
<asrwt>0</asrwt>
<pdfrwt beam="1">  1        1 0.51055059E+00 0.13299753E+04</pdfrwt>
<pdfrwt beam="2">  1       -1 0.18595927E+00 0.13299753E+04</pdfrwt>
<totfact> 0.63603627E-02</totfact>
</mgrwt>
</event>
<event>
 4    1  0.1043382E-007  0.7049026E+03  0.7818608E-02  0.9977441E-01
         -1   -1    0    0    0  501 -0.00000000000E+00  0.00000000000E+00  0.50093051472E+03  0.50093051474E+03  0.50400000000E-02 0.  1.
          1   -1    0    0  501    0  0.00000000000E+00 -0.00000000000E+00 -0.66661599839E+03  0.66661599841E+03  0.50400000000E-02 0. -1.
    8880023    1    1    2    0    0  0.80502287991E+02 -0.23790082323E+03  0.16609838085E+03  0.72420735874E+03  0.65864270000E+03 0.  0.
    8880022    1    1    2    0    0 -0.80502287991E+02  0.23790082323E+03 -0.33178386453E+03  0.44333915442E+03  0.15294330000E+03 0.  0.
<mgrwt>
<rscale>  0 0.56650588E+03</rscale>
<asrwt>0</asrwt>
<pdfrwt beam="1">  1        1 0.10255631E+00 0.70490257E+03</pdfrwt>
<pdfrwt beam="2">  1       -1 0.77066233E-01 0.70490257E+03</pdfrwt>
<totfact> 0.50831653E+01</totfact>
</mgrwt>
</event>
<event>
 4    1  0.1043382E-007  0.7175756E+03  0.7818608E-02  0.9930876E-01
          1   -1    0    0  501    0  0.00000000000E+00  0.00000000000E+00  0.13289335113E+04  0.13289335114E+04  0.50400000000E-02 0. -1.
         -1   -1    0    0    0  501 -0.00000000000E+00 -0.00000000000E+00 -0.53445989888E+03  0.53445989891E+03  0.50400000000E-02 0.  1.
    8880023    1    1    2    0    0  0.24074154590E+03 -0.15214487876E+03 -0.25788233464E+03  0.76250774477E+03  0.65864270000E+03 0.  1.
    8880022    1    1    2    0    0 -0.24074154590E+03  0.15214487876E+03  0.10523559471E+04  0.11008856655E+04  0.15294330000E+03 0.  0.
<mgrwt>
<rscale>  0 0.58787951E+03</rscale>
<asrwt>0</asrwt>
<pdfrwt beam="1">  1        1 0.20445131E+00 0.71757561E+03</pdfrwt>
<pdfrwt beam="2">  1       -1 0.82224601E-01 0.71757561E+03</pdfrwt>
<totfact> 0.13189427E+01</totfact>
</mgrwt>
</event>
<event>
 4    1  0.1043382E-007  0.1089362E+04  0.7818608E-02  0.9272993E-01
         -1   -1    0    0    0  501 -0.00000000000E+00  0.00000000000E+00  0.91193481801E+03  0.91193481803E+03  0.50400000000E-02 0.  1.
          1   -1    0    0  501    0  0.00000000000E+00 -0.00000000000E+00 -0.27487850096E+04  0.27487850096E+04  0.50400000000E-02 0. -1.
    8880023    1    1    2    0    0 -0.72420618071E+03 -0.47793872662E+03  0.47368686504E+03  0.11878928702E+04  0.65864270000E+03 0.  0.
    8880022    1    1    2    0    0  0.72420618071E+03  0.47793872662E+03 -0.23105370567E+04  0.24728269575E+04  0.15294330000E+03 0.  0.
<mgrwt>
<rscale>  0 0.10330762E+04</rscale>
<asrwt>0</asrwt>
<pdfrwt beam="1">  1        1 0.42289000E+00 0.10893623E+04</pdfrwt>
<pdfrwt beam="2">  1       -1 0.14029767E+00 0.10893623E+04</pdfrwt>
<totfact> 0.38053133E-01</totfact>
</mgrwt>
</event>
<event>
 4    1  0.1043382E-007  0.8219114E+03  0.7818608E-02  0.9665280E-01
          1   -1    0    0  501    0  0.00000000000E+00  0.00000000000E+00  0.49867499164E+03  0.49867499166E+03  0.50400000000E-02 0. -1.
         -1   -1    0    0    0  501 -0.00000000000E+00 -0.00000000000E+00 -0.93464229588E+03  0.93464229590E+03  0.50400000000E-02 0.  1.
    8880023    1    1    2    0    0  0.37155929873E+02  0.49025256311E+03 -0.40813723891E+03  0.91766788699E+03  0.65864270000E+03 0.  0.
    8880022    1    1    2    0    0 -0.37155929873E+02 -0.49025256311E+03 -0.27830065335E+02  0.51564940057E+03  0.15294330000E+03 0.  0.
<mgrwt>
<rscale>  0 0.73122162E+03</rscale>
<asrwt>0</asrwt>
<pdfrwt beam="1">  1        1 0.76719230E-01 0.82191140E+03</pdfrwt>
<pdfrwt beam="2">  1       -1 0.14379112E+00 0.82191140E+03</pdfrwt>
<totfact> 0.17709603E+01</totfact>
</mgrwt>
</event>
<event>
 4    1  0.1043382E-007  0.1134373E+04  0.7818608E-02  0.9223717E-01
          1   -1    0    0  501    0  0.00000000000E+00  0.00000000000E+00  0.21574564303E+04  0.21574564303E+04  0.50400000000E-02 0. -1.
         -1   -1    0    0    0  501 -0.00000000000E+00 -0.00000000000E+00 -0.68397798414E+03  0.68397798416E+03  0.50400000000E-02 0.  1.
    8880023    1    1    2    0    0 -0.51490142284E+03  0.76672606839E+03  0.47180205612E+02  0.11353539172E+04  0.65864270000E+03 0.  0.
    8880022    1    1    2    0    0  0.51490142284E+03 -0.76672606839E+03  0.14262982405E+04  0.17060804973E+04  0.15294330000E+03 0.  0.
<mgrwt>
<rscale>  0 0.10811944E+04</rscale>
<asrwt>0</asrwt>
<pdfrwt beam="1">  1        1 0.33191636E+00 0.11343732E+04</pdfrwt>
<pdfrwt beam="2">  1       -1 0.10522739E+00 0.11343732E+04</pdfrwt>
<totfact> 0.19627416E+00</totfact>
</mgrwt>
</event>
<event>
 4    1  0.1043382E-007  0.6964512E+03  0.7818608E-02  0.1001225E+00
          1   -1    0    0  501    0  0.00000000000E+00  0.00000000000E+00  0.63012551727E+03  0.63012551729E+03  0.50400000000E-02 0. -1.
         -1   -1    0    0    0  501 -0.00000000000E+00 -0.00000000000E+00 -0.43970282474E+03  0.43970282477E+03  0.50400000000E-02 0.  1.
    8880023    1    1    2    0    0 -0.11170659800E+03 -0.19686480397E+03  0.32121211377E+03  0.76695602441E+03  0.65864270000E+03 0. -1.
    8880022    1    1    2    0    0  0.11170659800E+03  0.19686480397E+03 -0.13078942124E+03  0.30287231766E+03  0.15294330000E+03 0.  1.
<mgrwt>
<rscale>  0 0.55116183E+03</rscale>
<asrwt>0</asrwt>
<pdfrwt beam="1">  1        1 0.96942387E-01 0.69645123E+03</pdfrwt>
<pdfrwt beam="2">  1       -1 0.67646588E-01 0.69645123E+03</pdfrwt>
<totfact> 0.72292704E+01</totfact>
</mgrwt>
</event>
<event>
 4    1  0.1043382E-007  0.8001122E+03  0.7818608E-02  0.9710553E-01
          1   -1    0    0  501    0  0.00000000000E+00  0.00000000000E+00  0.10555902128E+04  0.10555902128E+04  0.50400000000E-02 0. -1.
         -1   -1    0    0    0  501 -0.00000000000E+00 -0.00000000000E+00 -0.54636120734E+03  0.54636120736E+03  0.50400000000E-02 0.  1.
    8880023    1    1    2    0    0  0.39465687599E+03  0.22497854776E+03 -0.12199337862E+03  0.80935899785E+03  0.65864270000E+03 0.  0.
    8880022    1    1    2    0    0 -0.39465687599E+03 -0.22497854776E+03  0.63122238404E+03  0.79259242227E+03  0.15294330000E+03 0.  0.
<mgrwt>
<rscale>  0 0.70391908E+03</rscale>
<asrwt>0</asrwt>
<pdfrwt beam="1">  1        1 0.16239849E+00 0.80011224E+03</pdfrwt>
<pdfrwt beam="2">  1       -1 0.84055571E-01 0.80011224E+03</pdfrwt>
<totfact> 0.19675452E+01</totfact>
</mgrwt>
</event>
<event>
 4    1  0.1043382E-007  0.7288025E+03  0.7818608E-02  0.9893854E-01
         -1   -1    0    0    0  501 -0.00000000000E+00  0.00000000000E+00  0.41780181098E+03  0.41780181101E+03  0.50400000000E-02 0.  1.
          1   -1    0    0  501    0  0.00000000000E+00 -0.00000000000E+00 -0.13870873845E+04  0.13870873845E+04  0.50400000000E-02 0. -1.
    8880023    1    1    2    0    0 -0.62689719107E+01  0.31193531557E+03  0.47522786533E+02  0.73035030130E+03  0.65864270000E+03 0.  1.
    8880022    1    1    2    0    0  0.62689719107E+01 -0.31193531557E+03 -0.10168083600E+04  0.10745388942E+04  0.15294330000E+03 0.  0.
<mgrwt>
<rscale>  0 0.60560071E+03</rscale>
<asrwt>0</asrwt>
<pdfrwt beam="1">  1        1 0.21339806E+00 0.72880254E+03</pdfrwt>
<pdfrwt beam="2">  1       -1 0.64277202E-01 0.72880254E+03</pdfrwt>
<totfact> 0.19951637E+01</totfact>
</mgrwt>
</event>
<event>
 4    1  0.1437056E-007  0.7407608E+03  0.7818608E-02  0.9857736E-01
         -1   -1    0    0    0  501 -0.00000000000E+00  0.00000000000E+00  0.14146159219E+04  0.14146159219E+04  0.50400000000E-02 0.  1.
          1   -1    0    0  501    0  0.00000000000E+00 -0.00000000000E+00 -0.14284595967E+04  0.14284595967E+04  0.50400000000E-02 0. -1.
    8880023    1    1    2    0    0 -0.94764633583E+02 -0.32547812973E+03  0.12898212119E+04  0.14874022030E+04  0.65864270000E+03 0.  1.
    8880022    1    1    2    0    0  0.94764633583E+02  0.32547812973E+03 -0.13036648867E+04  0.13556733155E+04  0.15294330000E+03 0.  0.
<mgrwt>
<rscale>  0 0.62354012E+03</rscale>
<asrwt>0</asrwt>
<pdfrwt beam="1">  1        1 0.21976302E+00 0.74076079E+03</pdfrwt>
<pdfrwt beam="2">  1       -1 0.21763322E+00 0.74076079E+03</pdfrwt>
<totfact> 0.88455577E-01</totfact>
</mgrwt>
</event>
<event>
 4    1  0.1043382E-007  0.7175648E+03  0.7818608E-02  0.9930914E-01
          1   -1    0    0  501    0  0.00000000000E+00  0.00000000000E+00  0.19572070486E+04  0.19572070486E+04  0.50400000000E-02 0. -1.
         -1   -1    0    0    0  501 -0.00000000000E+00 -0.00000000000E+00 -0.39990765725E+03  0.39990765728E+03  0.50400000000E-02 0.  1.
    8880023    1    1    2    0    0  0.15219704024E+03  0.24067637041E+03 -0.48408412786E+02  0.71919582522E+03  0.65864270000E+03 0.  0.
    8880022    1    1    2    0    0 -0.15219704024E+03 -0.24067637041E+03  0.16057078041E+04  0.16379188806E+04  0.15294330000E+03 0. -1.
<mgrwt>
<rscale>  0 0.58786197E+03</rscale>
<asrwt>0</asrwt>
<pdfrwt beam="1">  1        1 0.30110877E+00 0.71756481E+03</pdfrwt>
<pdfrwt beam="2">  1       -1 0.61524257E-01 0.71756481E+03</pdfrwt>
<totfact> 0.89761838E+00</totfact>
</mgrwt>
</event>
<event>
 4    1  0.1043382E-007  0.8475969E+03  0.7818608E-02  0.9616019E-01
          1   -1    0    0  501    0  0.00000000000E+00  0.00000000000E+00  0.15119404221E+04  0.15119404221E+04  0.50400000000E-02 0. -1.
         -1   -1    0    0    0  501 -0.00000000000E+00 -0.00000000000E+00 -0.55432210843E+03  0.55432210845E+03  0.50400000000E-02 0.  1.
    8880023    1    1    2    0    0 -0.52821402692E+03  0.74834629253E+02 -0.11813373202E+03  0.85578973170E+03  0.65864270000E+03 0.  1.
    8880022    1    1    2    0    0  0.52821402692E+03 -0.74834629253E+02  0.10757520457E+04  0.12104727989E+04  0.15294330000E+03 0.  0.
<mgrwt>
<rscale>  0 0.76244970E+03</rscale>
<asrwt>0</asrwt>
<pdfrwt beam="1">  1        1 0.23260621E+00 0.84759689E+03</pdfrwt>
<pdfrwt beam="2">  1       -1 0.85280326E-01 0.84759689E+03</pdfrwt>
<totfact> 0.89405009E+00</totfact>
</mgrwt>
</event>
<event>
 4    1  0.1043382E-007  0.7493452E+03  0.7818608E-02  0.9833516E-01
          1   -1    0    0  501    0  0.00000000000E+00  0.00000000000E+00  0.50431803545E+03  0.50431803548E+03  0.50400000000E-02 0. -1.
         -1   -1    0    0    0  501 -0.00000000000E+00 -0.00000000000E+00 -0.98218120814E+03  0.98218120815E+03  0.50400000000E-02 0.  1.
    8880023    1    1    2    0    0 -0.35477693142E+03 -0.42911449631E+02 -0.71121168804E+03  0.10331216458E+04  0.65864270000E+03 0.  0.
    8880022    1    1    2    0    0  0.35477693142E+03  0.42911449631E+02  0.23334851535E+03  0.45337759782E+03  0.15294330000E+03 0.  0.
<mgrwt>
<rscale>  0 0.63594479E+03</rscale>
<asrwt>0</asrwt>
<pdfrwt beam="1">  1        1 0.77587390E-01 0.74934523E+03</pdfrwt>
<pdfrwt beam="2">  1       -1 0.15110480E+00 0.74934523E+03</pdfrwt>
<totfact> 0.15395877E+01</totfact>
</mgrwt>
</event>
<event>
 4    1  0.1043382E-007  0.7116868E+03  0.7818608E-02  0.9951790E-01
          1   -1    0    0  501    0  0.00000000000E+00  0.00000000000E+00  0.20041491242E+04  0.20041491242E+04  0.50400000000E-02 0. -1.
         -1   -1    0    0    0  501 -0.00000000000E+00 -0.00000000000E+00 -0.27346221019E+03  0.27346221023E+03  0.50400000000E-02 0.  1.
    8880023    1    1    2    0    0 -0.24647465571E+03 -0.10926147938E+03  0.23400731271E+03  0.74917117900E+03  0.65864270000E+03 0.  0.
    8880022    1    1    2    0    0  0.24647465571E+03  0.10926147938E+03  0.14966796013E+04  0.15284401554E+04  0.15294330000E+03 0.  0.
<mgrwt>
<rscale>  0 0.57815661E+03</rscale>
<asrwt>0</asrwt>
<pdfrwt beam="1">  1        1 0.30833063E+00 0.71168675E+03</pdfrwt>
<pdfrwt beam="2">  1       -1 0.42071110E-01 0.71168675E+03</pdfrwt>
<totfact> 0.17222067E+01</totfact>
</mgrwt>
</event>
<event>
 4    1  0.1043382E-007  0.8133881E+03  0.7818608E-02  0.9682562E-01
         -1   -1    0    0    0  501 -0.00000000000E+00  0.00000000000E+00  0.48426246229E+03  0.48426246232E+03  0.50400000000E-02 0.  1.
          1   -1    0    0  501    0  0.00000000000E+00 -0.00000000000E+00 -0.10241721132E+04  0.10241721132E+04  0.50400000000E-02 0. -1.
    8880023    1    1    2    0    0  0.47137533226E+03  0.74801533953E+02 -0.58988206448E+03  0.10047691424E+04  0.65864270000E+03 0.  0.
    8880022    1    1    2    0    0 -0.47137533226E+03 -0.74801533953E+02  0.49972413585E+02  0.50366543308E+03  0.15294330000E+03 0.  0.
<mgrwt>
<rscale>  0 0.72064577E+03</rscale>
<asrwt>0</asrwt>
<pdfrwt beam="1">  1        1 0.15756494E+00 0.81338809E+03</pdfrwt>
<pdfrwt beam="2">  1       -1 0.74501918E-01 0.81338809E+03</pdfrwt>
<totfact> 0.26813454E+01</totfact>
</mgrwt>
</event>
<event>
 4    1  0.1460828E-007  0.6887958E+03  0.7818608E-02  0.1004730E+00
         -1   -1    0    0    0  501 -0.00000000000E+00  0.00000000000E+00  0.55562596566E+03  0.55562596568E+03  0.50400000000E-02 0.  1.
          1   -1    0    0  501    0  0.00000000000E+00 -0.00000000000E+00 -0.18498898489E+04  0.18498898489E+04  0.50400000000E-02 0. -1.
    8880023    1    1    2    0    0  0.18823931665E+03 -0.72079357209E+02  0.32851731984E+03  0.76312732212E+03  0.65864270000E+03 0.  1.
    8880022    1    1    2    0    0 -0.18823931665E+03  0.72079357209E+02 -0.16227812031E+04  0.16423884925E+04  0.15294330000E+03 0.  0.
<mgrwt>
<rscale>  0 0.53623887E+03</rscale>
<asrwt>0</asrwt>
<pdfrwt beam="1">  1        1 0.28459843E+00 0.68879582E+03</pdfrwt>
<pdfrwt beam="2">  1       -1 0.85480919E-01 0.68879582E+03</pdfrwt>
<totfact> 0.53941638E+00</totfact>
</mgrwt>
</event>
<event>
 4    1  0.1043382E-007  0.6733279E+03  0.7818608E-02  0.1013382E+00
          1   -1    0    0  501    0  0.00000000000E+00  0.00000000000E+00  0.66286637701E+03  0.66286637703E+03  0.50400000000E-02 0. -1.
         -1   -1    0    0    0  501 -0.00000000000E+00 -0.00000000000E+00 -0.38673112398E+03  0.38673112402E+03  0.50400000000E-02 0.  1.
    8880023    1    1    2    0    0 -0.13927719626E+03  0.12730874813E+02 -0.36714945718E+02  0.67432811455E+03  0.65864270000E+03 0.  1.
    8880022    1    1    2    0    0  0.13927719626E+03 -0.12730874813E+02  0.31285019874E+03  0.37526938649E+03  0.15294330000E+03 0.  0.
<mgrwt>
<rscale>  0 0.50152513E+03</rscale>
<asrwt>0</asrwt>
<pdfrwt beam="1">  1        1 0.10197944E+00 0.67332787E+03</pdfrwt>
<pdfrwt beam="2">  1       -1 0.59497097E-01 0.67332787E+03</pdfrwt>
<totfact> 0.86858148E+01</totfact>
</mgrwt>
</event>
<event>
 4    1  0.1043382E-007  0.7477872E+03  0.7818608E-02  0.9837818E-01
          1   -1    0    0  501    0  0.00000000000E+00  0.00000000000E+00  0.54017365297E+03  0.54017365299E+03  0.50400000000E-02 0. -1.
         -1   -1    0    0    0  501 -0.00000000000E+00 -0.00000000000E+00 -0.61774969550E+03  0.61774969552E+03  0.50400000000E-02 0.  1.
    8880023    1    1    2    0    0 -0.94247197535E+02 -0.34131061429E+03 -0.15708985369E+03  0.76410921868E+03  0.65864270000E+03 0. -1.
    8880022    1    1    2    0    0  0.94247197535E+02  0.34131061429E+03  0.79513811160E+02  0.39381412983E+03  0.15294330000E+03 0.  0.
<mgrwt>
<rscale>  0 0.63371923E+03</rscale>
<asrwt>0</asrwt>
<pdfrwt beam="1">  1        1 0.83103639E-01 0.74778719E+03</pdfrwt>
<pdfrwt beam="2">  1       -1 0.95038415E-01 0.74778719E+03</pdfrwt>
<totfact> 0.43521915E+01</totfact>
</mgrwt>
</event>
<event>
 4    1  0.1043382E-007  0.8020429E+03  0.7818608E-02  0.9706396E-01
         -1   -1    0    0    0  501 -0.00000000000E+00  0.00000000000E+00  0.44341765494E+03  0.44341765497E+03  0.50400000000E-02 0.  1.
          1   -1    0    0  501    0  0.00000000000E+00 -0.00000000000E+00 -0.10283599930E+04  0.10283599930E+04  0.50400000000E-02 0. -1.
    8880023    1    1    2    0    0  0.47126515933E+02 -0.45523801174E+03 -0.13757487207E+03  0.81375647925E+03  0.65864270000E+03 0. -1.
    8880022    1    1    2    0    0 -0.47126515933E+02  0.45523801174E+03 -0.44736746596E+03  0.65802116869E+03  0.15294330000E+03 0.  0.
<mgrwt>
<rscale>  0 0.70637236E+03</rscale>
<asrwt>0</asrwt>
<pdfrwt beam="1">  1        1 0.15820923E+00 0.80204287E+03</pdfrwt>
<pdfrwt beam="2">  1       -1 0.68218101E-01 0.80204287E+03</pdfrwt>
<totfact> 0.31948359E+01</totfact>
</mgrwt>
</event>
<event>
 4    1  0.1043382E-007  0.6790464E+03  0.7818608E-02  0.1009868E+00
          1   -1    0    0  501    0  0.00000000000E+00  0.00000000000E+00  0.86803388949E+03  0.86803388950E+03  0.50400000000E-02 0. -1.
         -1   -1    0    0    0  501 -0.00000000000E+00 -0.00000000000E+00 -0.56447359094E+03  0.56447359096E+03  0.50400000000E-02 0.  1.
    8880023    1    1    2    0    0  0.14834499589E+03 -0.72715949537E+02 -0.33372687496E+03  0.75662254821E+03  0.65864270000E+03 0.  1.
    8880022    1    1    2    0    0 -0.14834499589E+03  0.72715949537E+02  0.63728717351E+03  0.67588493226E+03  0.15294330000E+03 0.  0.
<mgrwt>
<rscale>  0 0.51527025E+03</rscale>
<asrwt>0</asrwt>
<pdfrwt beam="1">  1        1 0.13354368E+00 0.67904643E+03</pdfrwt>
<pdfrwt beam="2">  1       -1 0.86842091E-01 0.67904643E+03</pdfrwt>
<totfact> 0.26162292E+01</totfact>
</mgrwt>
</event>
<event>
 4    1  0.1043382E-007  0.6616451E+03  0.7818608E-02  0.1022531E+00
         -1   -1    0    0    0  501 -0.00000000000E+00  0.00000000000E+00  0.15250653933E+03  0.15250653942E+03  0.50400000000E-02 0.  1.
          1   -1    0    0  501    0  0.00000000000E+00 -0.00000000000E+00 -0.11412148427E+04  0.11412148427E+04  0.50400000000E-02 0. -1.
    8880023    1    1    2    0    0 -0.62224925050E+02 -0.95953283145E+01 -0.85456242186E+03  0.10807641513E+04  0.65864270000E+03 0. -1.
    8880022    1    1    2    0    0  0.62224925050E+02  0.95953283145E+01 -0.13414588151E+03  0.21295723083E+03  0.15294330000E+03 0.  1.
<mgrwt>
<rscale>  0 0.46784256E+03</rscale>
<asrwt>0</asrwt>
<pdfrwt beam="1">  1        1 0.17557151E+00 0.66164508E+03</pdfrwt>
<pdfrwt beam="2">  1       -1 0.23462545E-01 0.66164508E+03</pdfrwt>
<totfact> 0.18830818E+02</totfact>
</mgrwt>
</event>
<event>
 4    1  0.1043382E-007  0.6898607E+03  0.7818608E-02  0.1004219E+00
          1   -1    0    0  501    0  0.00000000000E+00  0.00000000000E+00  0.37287842493E+03  0.37287842497E+03  0.50400000000E-02 0. -1.
         -1   -1    0    0    0  501 -0.00000000000E+00 -0.00000000000E+00 -0.82211515704E+03  0.82211515705E+03  0.50400000000E-02 0.  1.
    8880023    1    1    2    0    0  0.18117562693E+03 -0.96295926815E+02 -0.58571266965E+03  0.90496798339E+03  0.65864270000E+03 0.  1.
    8880022    1    1    2    0    0 -0.18117562693E+03  0.96295926815E+02  0.13647593755E+03  0.29002559862E+03  0.15294330000E+03 0.  0.
<mgrwt>
<rscale>  0 0.53838409E+03</rscale>
<asrwt>0</asrwt>
<pdfrwt beam="1">  1        1 0.57365912E-01 0.68986065E+03</pdfrwt>
<pdfrwt beam="2">  1       -1 0.12647925E+00 0.68986065E+03</pdfrwt>
<totfact> 0.36791396E+01</totfact>
</mgrwt>
</event>
<event>
 4    1  0.1043382E-007  0.6948963E+03  0.7818608E-02  0.1001907E+00
         -1   -1    0    0    0  501 -0.00000000000E+00  0.00000000000E+00  0.15452682413E+03  0.15452682421E+03  0.50400000000E-02 0.  1.
          1   -1    0    0  501    0  0.00000000000E+00 -0.00000000000E+00 -0.38879401787E+04  0.38879401787E+04  0.50400000000E-02 0. -1.
    8880023    1    1    2    0    0 -0.22124340200E+03 -0.11046097897E+02 -0.66354425237E+03  0.96081831806E+03  0.65864270000E+03 0.  1.
    8880022    1    1    2    0    0  0.22124340200E+03  0.11046097897E+02 -0.30698691022E+04  0.30816486849E+04  0.15294330000E+03 0.  0.
<mgrwt>
<rscale>  0 0.54821892E+03</rscale>
<asrwt>0</asrwt>
<pdfrwt beam="1">  1        1 0.59814457E+00 0.69489630E+03</pdfrwt>
<pdfrwt beam="2">  1       -1 0.23773361E-01 0.69489630E+03</pdfrwt>
<totfact> 0.20332702E+00</totfact>
</mgrwt>
</event>
<event>
 4    1  0.1043382E-007  0.6734429E+03  0.7818608E-02  0.1013306E+00
         -1   -1    0    0    0  501 -0.00000000000E+00  0.00000000000E+00  0.24284899106E+03  0.24284899111E+03  0.50400000000E-02 0.  1.
          1   -1    0    0  501    0  0.00000000000E+00 -0.00000000000E+00 -0.12390856533E+04  0.12390856533E+04  0.50400000000E-02 0. -1.
    8880023    1    1    2    0    0  0.13407377003E+03  0.41705526469E+02 -0.26822035196E+03  0.72489136443E+03  0.65864270000E+03 0.  1.
    8880022    1    1    2    0    0 -0.13407377003E+03 -0.41705526469E+02 -0.72801631029E+03  0.75704328002E+03  0.15294330000E+03 0.  0.
<mgrwt>
<rscale>  0 0.50181516E+03</rscale>
<asrwt>0</asrwt>
<pdfrwt beam="1">  1        1 0.19062856E+00 0.67344290E+03</pdfrwt>
<pdfrwt beam="2">  1       -1 0.37361384E-01 0.67344290E+03</pdfrwt>
<totfact> 0.71169245E+01</totfact>
</mgrwt>
</event>
<event>
 4    1  0.1043382E-007  0.7955337E+03  0.7818608E-02  0.9720538E-01
          1   -1    0    0  501    0  0.00000000000E+00  0.00000000000E+00  0.16419647747E+04  0.16419647747E+04  0.50400000000E-02 0. -1.
         -1   -1    0    0    0  501 -0.00000000000E+00 -0.00000000000E+00 -0.78346433959E+03  0.78346433960E+03  0.50400000000E-02 0.  1.
    8880023    1    1    2    0    0  0.34734967946E+03 -0.28002110070E+03 -0.53205945685E+03  0.95705856067E+03  0.65864270000E+03 0.  1.
    8880022    1    1    2    0    0 -0.34734967946E+03  0.28002110070E+03  0.13905598919E+04  0.14683705536E+04  0.15294330000E+03 0.  0.
<mgrwt>
<rscale>  0 0.69807046E+03</rscale>
<asrwt>0</asrwt>
<pdfrwt beam="1">  1        1 0.25260997E+00 0.79553367E+03</pdfrwt>
<pdfrwt beam="2">  1       -1 0.12053298E+00 0.79553367E+03</pdfrwt>
<totfact> 0.33189554E+00</totfact>
</mgrwt>
</event>
<event>
 4    1  0.1043382E-007  0.1004873E+04  0.7818608E-02  0.9375210E-01
         -1   -1    0    0    0  501 -0.00000000000E+00  0.00000000000E+00  0.11327126013E+04  0.11327126013E+04  0.50400000000E-02 0.  1.
          1   -1    0    0  501    0  0.00000000000E+00 -0.00000000000E+00 -0.93569883435E+03  0.93569883437E+03  0.50400000000E-02 0. -1.
    8880023    1    1    2    0    0 -0.41696361528E+03 -0.63411462714E+03  0.62541952820E+03  0.11836045832E+04  0.65864270000E+03 0.  0.
    8880022    1    1    2    0    0  0.41696361528E+03  0.63411462714E+03 -0.42840576129E+03  0.88480685245E+03  0.15294330000E+03 0.  0.
<mgrwt>
<rscale>  0 0.94144223E+03</rscale>
<asrwt>0</asrwt>
<pdfrwt beam="1">  1        1 0.14395367E+00 0.10048732E+04</pdfrwt>
<pdfrwt beam="2">  1       -1 0.17426348E+00 0.10048732E+04</pdfrwt>
<totfact> 0.39068803E+00</totfact>
</mgrwt>
</event>
<event>
 4    1  0.1043382E-007  0.6981955E+03  0.7818608E-02  0.1000477E+00
          1   -1    0    0  501    0  0.00000000000E+00  0.00000000000E+00  0.27215069282E+04  0.27215069282E+04  0.50400000000E-02 0. -1.
         -1   -1    0    0    0  501 -0.00000000000E+00 -0.00000000000E+00 -0.13593512527E+03  0.13593512536E+03  0.50400000000E-02 0.  1.
    8880023    1    1    2    0    0  0.22882302140E+03 -0.36149325901E+02  0.85083334531E+03  0.11006336069E+04  0.65864270000E+03 0.  0.
    8880022    1    1    2    0    0 -0.22882302140E+03  0.36149325901E+02  0.17347384576E+04  0.17568084467E+04  0.15294330000E+03 0.  0.
<mgrwt>
<rscale>  0 0.55441540E+03</rscale>
<asrwt>0</asrwt>
<pdfrwt beam="1">  1        1 0.41869333E+00 0.69819550E+03</pdfrwt>
<pdfrwt beam="2">  1       -1 0.20913098E-01 0.69819550E+03</pdfrwt>
<totfact> 0.19068123E+01</totfact>
</mgrwt>
</event>
<event>
 4    1  0.1043382E-007  0.9282342E+03  0.7818608E-02  0.9482147E-01
         -1   -1    0    0    0  501 -0.00000000000E+00  0.00000000000E+00  0.47663291413E+03  0.47663291415E+03  0.50400000000E-02 0.  1.
          1   -1    0    0  501    0  0.00000000000E+00 -0.00000000000E+00 -0.14895884759E+04  0.14895884759E+04  0.50400000000E-02 0. -1.
    8880023    1    1    2    0    0 -0.35561492172E+03 -0.54895033441E+03 -0.27451531210E+03  0.96797588040E+03  0.65864270000E+03 0.  0.
    8880022    1    1    2    0    0  0.35561492172E+03  0.54895033441E+03 -0.73844024968E+03  0.99824550967E+03  0.15294330000E+03 0.  0.
<mgrwt>
<rscale>  0 0.85612919E+03</rscale>
<asrwt>0</asrwt>
<pdfrwt beam="1">  1        1 0.22916746E+00 0.92823416E+03</pdfrwt>
<pdfrwt beam="2">  1       -1 0.73328141E-01 0.92823416E+03</pdfrwt>
<totfact> 0.12636732E+01</totfact>
</mgrwt>
</event>
<event>
 4    1  0.1043382E-007  0.1071257E+04  0.7818608E-02  0.9293754E-01
         -1   -1    0    0    0  501 -0.00000000000E+00  0.00000000000E+00  0.24412543173E+04  0.24412543173E+04  0.50400000000E-02 0.  1.
          1   -1    0    0  501    0  0.00000000000E+00 -0.00000000000E+00 -0.44696846831E+03  0.44696846833E+03  0.50400000000E-02 0. -1.
    8880023    1    1    2    0    0  0.41988398842E+03  0.73312899452E+03  0.16411752283E+04  0.19598589293E+04  0.65864270000E+03 0.  0.
    8880022    1    1    2    0    0 -0.41988398842E+03 -0.73312899452E+03  0.35311062065E+03  0.92836385635E+03  0.15294330000E+03 0.  0.
<mgrwt>
<rscale>  0 0.10135993E+04</rscale>
<asrwt>0</asrwt>
<pdfrwt beam="1">  1        1 0.68764380E-01 0.10712567E+04</pdfrwt>
<pdfrwt beam="2">  1       -1 0.37557759E+00 0.10712567E+04</pdfrwt>
<totfact> 0.54901289E-01</totfact>
</mgrwt>
</event>
<event>
 4    1  0.1043382E-007  0.6903251E+03  0.7818608E-02  0.1003998E+00
          1   -1    0    0  501    0  0.00000000000E+00  0.00000000000E+00  0.36980168910E+03  0.36980168914E+03  0.50400000000E-02 0. -1.
         -1   -1    0    0    0  501 -0.00000000000E+00 -0.00000000000E+00 -0.18085231368E+04  0.18085231368E+04  0.50400000000E-02 0.  1.
    8880023    1    1    2    0    0 -0.18897248527E+03 -0.83833179085E+02 -0.16858232006E+04  0.18216884125E+04  0.65864270000E+03 0.  1.
    8880022    1    1    2    0    0  0.18897248527E+03  0.83833179085E+02  0.24710175292E+03  0.35663641348E+03  0.15294330000E+03 0.  0.
<mgrwt>
<rscale>  0 0.53931226E+03</rscale>
<asrwt>0</asrwt>
<pdfrwt beam="1">  1        1 0.56892569E-01 0.69032515E+03</pdfrwt>
<pdfrwt beam="2">  1       -1 0.27823432E+00 0.69032515E+03</pdfrwt>
<totfact> 0.32125897E+00</totfact>
</mgrwt>
</event>
<event>
 4    1  0.1043382E-007  0.7441640E+03  0.7818608E-02  0.9847980E-01
          1   -1    0    0  501    0  0.00000000000E+00  0.00000000000E+00  0.13248241096E+04  0.13248241096E+04  0.50400000000E-02 0. -1.
         -1   -1    0    0    0  501 -0.00000000000E+00 -0.00000000000E+00 -0.27346079882E+03  0.27346079886E+03  0.50400000000E-02 0.  1.
    8880023    1    1    2    0    0  0.26406460977E+03 -0.22414216526E+03  0.94915892388E+03  0.12061022749E+04  0.65864270000E+03 0. -1.
    8880022    1    1    2    0    0 -0.26406460977E+03  0.22414216526E+03  0.10220438689E+03  0.39218263360E+03  0.15294330000E+03 0.  1.
<mgrwt>
<rscale>  0 0.62850038E+03</rscale>
<asrwt>0</asrwt>
<pdfrwt beam="1">  1        1 0.20381910E+00 0.74416398E+03</pdfrwt>
<pdfrwt beam="2">  1       -1 0.42070891E-01 0.74416398E+03</pdfrwt>
<totfact> 0.49509651E+01</totfact>
</mgrwt>
</event>
<event>
 4    1  0.1043382E-007  0.7099925E+03  0.7818608E-02  0.9958029E-01
          1   -1    0    0  501    0  0.00000000000E+00  0.00000000000E+00  0.32538448226E+03  0.32538448230E+03  0.50400000000E-02 0. -1.
         -1   -1    0    0    0  501 -0.00000000000E+00 -0.00000000000E+00 -0.99856505387E+03  0.99856505389E+03  0.50400000000E-02 0.  1.
    8880023    1    1    2    0    0  0.60596356486E+02 -0.25808388210E+03 -0.72362132524E+03  0.10137638962E+04  0.65864270000E+03 0.  1.
    8880022    1    1    2    0    0 -0.60596356486E+02  0.25808388210E+03  0.50440753634E+02  0.31018563999E+03  0.15294330000E+03 0.  1.
<mgrwt>
<rscale>  0 0.57529541E+03</rscale>
<asrwt>0</asrwt>
<pdfrwt beam="1">  1        1 0.50059152E-01 0.70999255E+03</pdfrwt>
<pdfrwt beam="2">  1       -1 0.15362539E+00 0.70999255E+03</pdfrwt>
<totfact> 0.26495462E+01</totfact>
</mgrwt>
</event>
<event>
 4    1  0.1043382E-007  0.7563426E+03  0.7818608E-02  0.9814670E-01
          1   -1    0    0  501    0  0.00000000000E+00  0.00000000000E+00  0.23341993343E+04  0.23341993343E+04  0.50400000000E-02 0. -1.
         -1   -1    0    0    0  501 -0.00000000000E+00 -0.00000000000E+00 -0.39065554649E+03  0.39065554653E+03  0.50400000000E-02 0.  1.
    8880023    1    1    2    0    0 -0.23721226459E+03  0.28631144428E+03  0.16712642362E+02  0.75652721053E+03  0.65864270000E+03 0.  0.
    8880022    1    1    2    0    0  0.23721226459E+03 -0.28631144428E+03  0.19268311454E+04  0.19683276703E+04  0.15294330000E+03 0.  0.
<mgrwt>
<rscale>  0 0.64581188E+03</rscale>
<asrwt>0</asrwt>
<pdfrwt beam="1">  1        1 0.35910758E+00 0.75634259E+03</pdfrwt>
<pdfrwt beam="2">  1       -1 0.60100855E-01 0.75634259E+03</pdfrwt>
<totfact> 0.52185961E+00</totfact>
</mgrwt>
</event>
<event>
 4    1  0.1043382E-007  0.7454262E+03  0.7818608E-02  0.9844414E-01
         -1   -1    0    0    0  501 -0.00000000000E+00  0.00000000000E+00  0.17396841815E+04  0.17396841816E+04  0.50400000000E-02 0.  1.
          1   -1    0    0  501    0  0.00000000000E+00 -0.00000000000E+00 -0.92154014143E+03  0.92154014144E+03  0.50400000000E-02 0. -1.
    8880023    1    1    2    0    0 -0.18644238139E+03  0.29510876440E+03  0.16145534770E+04  0.17783259208E+04  0.65864270000E+03 0.  1.
    8880022    1    1    2    0    0  0.18644238139E+03 -0.29510876440E+03 -0.79640943687E+03  0.88289840217E+03  0.15294330000E+03 0.  0.
<mgrwt>
<rscale>  0 0.63032546E+03</rscale>
<asrwt>0</asrwt>
<pdfrwt beam="1">  1        1 0.14177541E+00 0.74542615E+03</pdfrwt>
<pdfrwt beam="2">  1       -1 0.26764372E+00 0.74542615E+03</pdfrwt>
<totfact> 0.98622428E-01</totfact>
</mgrwt>
</event>
<event>
 4    1  0.1043382E-007  0.7360088E+03  0.7818608E-02  0.9871730E-01
          1   -1    0    0  501    0  0.00000000000E+00  0.00000000000E+00  0.21283469511E+03  0.21283469517E+03  0.50400000000E-02 0. -1.
         -1   -1    0    0    0  501 -0.00000000000E+00 -0.00000000000E+00 -0.22421421309E+04  0.22421421309E+04  0.50400000000E-02 0.  1.
    8880023    1    1    2    0    0 -0.31407184867E+03 -0.96216160866E+02 -0.19496984374E+04  0.20839944527E+04  0.65864270000E+03 0.  1.
    8880022    1    1    2    0    0  0.31407184867E+03  0.96216160866E+02 -0.79608998419E+02  0.37098237342E+03  0.15294330000E+03 0.  0.
<mgrwt>
<rscale>  0 0.61651170E+03</rscale>
<asrwt>0</asrwt>
<pdfrwt beam="1">  1        1 0.32743801E-01 0.73600875E+03</pdfrwt>
<pdfrwt beam="2">  1       -1 0.34494493E+00 0.73600875E+03</pdfrwt>
<totfact> 0.24346485E+00</totfact>
</mgrwt>
</event>
<event>
 4    1  0.1043382E-007  0.6715032E+03  0.7818608E-02  0.1014607E+00
         -1   -1    0    0    0  501 -0.00000000000E+00  0.00000000000E+00  0.12836114905E+03  0.12836114915E+03  0.50400000000E-02 0.  1.
          1   -1    0    0  501    0  0.00000000000E+00 -0.00000000000E+00 -0.17734761781E+04  0.17734761781E+04  0.50400000000E-02 0. -1.
    8880023    1    1    2    0    0  0.12795025849E+03 -0.27112399778E+02 -0.85870844512E+03  0.10900902489E+04  0.65864270000E+03 0.  1.
    8880022    1    1    2    0    0 -0.12795025849E+03  0.27112399778E+02 -0.78640658390E+03  0.81174707827E+03  0.15294330000E+03 0.  0.
<mgrwt>
<rscale>  0 0.49683853E+03</rscale>
<asrwt>0</asrwt>
<pdfrwt beam="1">  1        1 0.27284247E+00 0.67150321E+03</pdfrwt>
<pdfrwt beam="2">  1       -1 0.19747870E-01 0.67150321E+03</pdfrwt>
<totfact> 0.91812616E+01</totfact>
</mgrwt>
</event>
<event>
 4    1  0.1043382E-007  0.1179158E+04  0.7818608E-02  0.9177653E-01
          1   -1    0    0  501    0  0.00000000000E+00  0.00000000000E+00  0.19197095899E+04  0.19197095899E+04  0.50400000000E-02 0. -1.
         -1   -1    0    0    0  501 -0.00000000000E+00 -0.00000000000E+00 -0.87568902519E+03  0.87568902520E+03  0.50400000000E-02 0.  1.
    8880023    1    1    2    0    0  0.46452556865E+01 -0.97805026525E+03  0.13177555488E+04  0.17683025172E+04  0.65864270000E+03 0.  0.
    8880022    1    1    2    0    0 -0.46452556865E+01  0.97805026525E+03 -0.27373498408E+03  0.10270960979E+04  0.15294330000E+03 0.  0.
<mgrwt>
<rscale>  0 0.11287092E+04</rscale>
<asrwt>0</asrwt>
<pdfrwt beam="1">  1        1 0.29533993E+00 0.11791582E+04</pdfrwt>
<pdfrwt beam="2">  1       -1 0.13472139E+00 0.11791582E+04</pdfrwt>
<totfact> 0.15422148E+00</totfact>
</mgrwt>
</event>
<event>
 4    1  0.1043382E-007  0.7734583E+03  0.7818608E-02  0.9771434E-01
         -1   -1    0    0    0  501 -0.00000000000E+00  0.00000000000E+00  0.38911287605E+03  0.38911287608E+03  0.50400000000E-02 0.  1.
          1   -1    0    0  501    0  0.00000000000E+00 -0.00000000000E+00 -0.12766502814E+04  0.12766502814E+04  0.50400000000E-02 0. -1.
    8880023    1    1    2    0    0 -0.39165162537E+03 -0.10505528419E+03 -0.11775668015E+03  0.78237104393E+03  0.65864270000E+03 0.  0.
    8880022    1    1    2    0    0  0.39165162537E+03  0.10505528419E+03 -0.76978072521E+03  0.88339211356E+03  0.15294330000E+03 0.  0.
<mgrwt>
<rscale>  0 0.66918348E+03</rscale>
<asrwt>0</asrwt>
<pdfrwt beam="1">  1        1 0.19640773E+00 0.77345835E+03</pdfrwt>
<pdfrwt beam="2">  1       -1 0.59863520E-01 0.77345835E+03</pdfrwt>
<totfact> 0.27325926E+01</totfact>
</mgrwt>
</event>
<event>
 4    1  0.1043382E-007  0.8124096E+03  0.7818608E-02  0.9684579E-01
          1   -1    0    0  501    0  0.00000000000E+00  0.00000000000E+00  0.59375923451E+03  0.59375923453E+03  0.50400000000E-02 0. -1.
         -1   -1    0    0    0  501 -0.00000000000E+00 -0.00000000000E+00 -0.11697404308E+04  0.11697404308E+04  0.50400000000E-02 0.  1.
    8880023    1    1    2    0    0 -0.29735717696E+03  0.37118447868E+03 -0.86470822348E+03  0.11864778657E+04  0.65864270000E+03 0.  1.
    8880022    1    1    2    0    0  0.29735717696E+03 -0.37118447868E+03  0.28872702722E+03  0.57702179956E+03  0.15294330000E+03 0.  0.
<mgrwt>
<rscale>  0 0.71942394E+03</rscale>
<asrwt>0</asrwt>
<pdfrwt beam="1">  1        1 0.91347575E-01 0.81240963E+03</pdfrwt>
<pdfrwt beam="2">  1       -1 0.17996007E+00 0.81240963E+03</pdfrwt>
<totfact> 0.74181755E+00</totfact>
</mgrwt>
</event>
<event>
 4    1  0.1043382E-007  0.7917833E+03  0.7818608E-02  0.9728852E-01
          1   -1    0    0  501    0  0.00000000000E+00  0.00000000000E+00  0.58766805394E+03  0.58766805396E+03  0.50400000000E-02 0. -1.
         -1   -1    0    0    0  501 -0.00000000000E+00 -0.00000000000E+00 -0.11812175428E+04  0.11812175428E+04  0.50400000000E-02 0.  1.
    8880023    1    1    2    0    0 -0.25406659706E+03  0.35855373765E+03 -0.90994879445E+03  0.12062038109E+04  0.65864270000E+03 0.  1.
    8880022    1    1    2    0    0  0.25406659706E+03 -0.35855373765E+03  0.31639930564E+03  0.56268178587E+03  0.15294330000E+03 0.  0.
<mgrwt>
<rscale>  0 0.69324631E+03</rscale>
<asrwt>0</asrwt>
<pdfrwt beam="1">  1        1 0.90410470E-01 0.79178332E+03</pdfrwt>
<pdfrwt beam="2">  1       -1 0.18172578E+00 0.79178332E+03</pdfrwt>
<totfact> 0.73327030E+00</totfact>
</mgrwt>
</event>
<event>
 4    1  0.1043382E-007  0.7089356E+03  0.7818608E-02  0.9961975E-01
          1   -1    0    0  501    0  0.00000000000E+00  0.00000000000E+00  0.12990168732E+04  0.12990168733E+04  0.50400000000E-02 0. -1.
         -1   -1    0    0    0  501 -0.00000000000E+00 -0.00000000000E+00 -0.44355347296E+03  0.44355347299E+03  0.50400000000E-02 0.  1.
    8880023    1    1    2    0    0  0.18143093764E+03 -0.18937354707E+03 -0.12172223045E+03  0.71930941403E+03  0.65864270000E+03 0.  1.
    8880022    1    1    2    0    0 -0.18143093764E+03  0.18937354707E+03  0.97718563074E+03  0.10232609322E+04  0.15294330000E+03 0.  0.
<mgrwt>
<rscale>  0 0.57349482E+03</rscale>
<asrwt>0</asrwt>
<pdfrwt beam="1">  1        1 0.19984875E+00 0.70893563E+03</pdfrwt>
<pdfrwt beam="2">  1       -1 0.68238997E-01 0.70893563E+03</pdfrwt>
<totfact> 0.20438521E+01</totfact>
</mgrwt>
</event>
<event>
 4    1  0.1043382E-007  0.7879710E+03  0.7818608E-02  0.9737436E-01
          1   -1    0    0  501    0  0.00000000000E+00  0.00000000000E+00  0.18232084049E+04  0.18232084049E+04  0.50400000000E-02 0. -1.
         -1   -1    0    0    0  501 -0.00000000000E+00 -0.00000000000E+00 -0.73192001388E+03  0.73192001390E+03  0.50400000000E-02 0.  1.
    8880023    1    1    2    0    0 -0.45402894130E+02  0.43014721205E+03 -0.47700767693E+03  0.92110508464E+03  0.65864270000E+03 0.  1.
    8880022    1    1    2    0    0  0.45402894130E+02 -0.43014721205E+03  0.15682960680E+04  0.16340233342E+04  0.15294330000E+03 0.  0.
<mgrwt>
<rscale>  0 0.68830978E+03</rscale>
<asrwt>0</asrwt>
<pdfrwt beam="1">  1        1 0.28049360E+00 0.78797097E+03</pdfrwt>
<pdfrwt beam="2">  1       -1 0.11260308E+00 0.78797097E+03</pdfrwt>
<totfact> 0.29563655E+00</totfact>
</mgrwt>
</event>
<event>
 4    1  0.1043382E-007  0.7542048E+03  0.7818608E-02  0.9820348E-01
         -1   -1    0    0    0  501 -0.00000000000E+00  0.00000000000E+00  0.30794077521E+03  0.30794077525E+03  0.50400000000E-02 0.  1.
          1   -1    0    0  501    0  0.00000000000E+00 -0.00000000000E+00 -0.15049690800E+04  0.15049690800E+04  0.50400000000E-02 0. -1.
    8880023    1    1    2    0    0  0.36735095074E+03  0.82426953670E+01 -0.26491017846E+03  0.79937617675E+03  0.65864270000E+03 0.  1.
    8880022    1    1    2    0    0 -0.36735095074E+03 -0.82426953670E+01 -0.93211812630E+03  0.10135336785E+04  0.15294330000E+03 0.  0.
<mgrwt>
<rscale>  0 0.64281874E+03</rscale>
<asrwt>0</asrwt>
<pdfrwt beam="1">  1        1 0.23153370E+00 0.75420479E+03</pdfrwt>
<pdfrwt beam="2">  1       -1 0.47375505E-01 0.75420479E+03</pdfrwt>
<totfact> 0.29763771E+01</totfact>
</mgrwt>
</event>
<event>
 4    1  0.1043382E-007  0.6756150E+03  0.7818608E-02  0.1011921E+00
          1   -1    0    0  501    0  0.00000000000E+00  0.00000000000E+00  0.43379091419E+03  0.43379091422E+03  0.50400000000E-02 0. -1.
         -1   -1    0    0    0  501 -0.00000000000E+00 -0.00000000000E+00 -0.64404432405E+03  0.64404432407E+03  0.50400000000E-02 0.  1.
    8880023    1    1    2    0    0  0.34571500323E+02  0.14645901272E+03 -0.40530763237E+03  0.78786414702E+03  0.65864270000E+03 0.  1.
    8880022    1    1    2    0    0 -0.34571500323E+02 -0.14645901272E+03  0.19505422251E+03  0.28997109127E+03  0.15294330000E+03 0.  0.
<mgrwt>
<rscale>  0 0.50718096E+03</rscale>
<asrwt>0</asrwt>
<pdfrwt beam="1">  1        1 0.66737064E-01 0.67561501E+03</pdfrwt>
<pdfrwt beam="2">  1       -1 0.99083742E-01 0.67561501E+03</pdfrwt>
<totfact> 0.53797771E+01</totfact>
</mgrwt>
</event>
<event>
 4    1  0.1043382E-007  0.6715325E+03  0.7818608E-02  0.1014587E+00
         -1   -1    0    0    0  501 -0.00000000000E+00  0.00000000000E+00  0.89785741611E+03  0.89785741613E+03  0.50400000000E-02 0.  1.
          1   -1    0    0  501    0  0.00000000000E+00 -0.00000000000E+00 -0.75403380856E+03  0.75403380858E+03  0.50400000000E-02 0. -1.
    8880023    1    1    2    0    0 -0.12349675476E+03 -0.43523172186E+02  0.75380318574E+03  0.10095420566E+04  0.65864270000E+03 0.  1.
    8880022    1    1    2    0    0  0.12349675476E+03  0.43523172186E+02 -0.60997957818E+03  0.64234916811E+03  0.15294330000E+03 0.  0.
<mgrwt>
<rscale>  0 0.49691514E+03</rscale>
<asrwt>0</asrwt>
<pdfrwt beam="1">  1        1 0.11600520E+00 0.67153252E+03</pdfrwt>
<pdfrwt beam="2">  1       -1 0.13813191E+00 0.67153252E+03</pdfrwt>
<totfact> 0.10982558E+01</totfact>
</mgrwt>
</event>
<event>
 4    1  0.1043382E-007  0.6822374E+03  0.7818608E-02  0.1008085E+00
          1   -1    0    0  501    0  0.00000000000E+00  0.00000000000E+00  0.39575374324E+03  0.39575374328E+03  0.50400000000E-02 0. -1.
         -1   -1    0    0    0  501 -0.00000000000E+00 -0.00000000000E+00 -0.68516023691E+03  0.68516023693E+03  0.50400000000E-02 0.  1.
    8880023    1    1    2    0    0 -0.76907380216E+02 -0.16038381105E+03 -0.43093814629E+03  0.80694213186E+03  0.65864270000E+03 0.  1.
    8880022    1    1    2    0    0  0.76907380216E+02  0.16038381105E+03  0.14153165262E+03  0.27397184835E+03  0.15294330000E+03 0.  0.
<mgrwt>
<rscale>  0 0.52242743E+03</rscale>
<asrwt>0</asrwt>
<pdfrwt beam="1">  1        1 0.60885191E-01 0.68223744E+03</pdfrwt>
<pdfrwt beam="2">  1       -1 0.10540927E+00 0.68223744E+03</pdfrwt>
<totfact> 0.52694877E+01</totfact>
</mgrwt>
</event>
<event>
 4    1  0.1043382E-007  0.7985534E+03  0.7818608E-02  0.9713933E-01
         -1   -1    0    0    0  501 -0.00000000000E+00  0.00000000000E+00  0.68060781977E+03  0.68060781979E+03  0.50400000000E-02 0.  1.
          1   -1    0    0  501    0  0.00000000000E+00 -0.00000000000E+00 -0.64353962624E+03  0.64353962626E+03  0.50400000000E-02 0. -1.
    8880023    1    1    2    0    0 -0.40466802997E+03 -0.20030264355E+03  0.19486122237E+03  0.82198446806E+03  0.65864270000E+03 0.  1.
    8880022    1    1    2    0    0  0.40466802997E+03  0.20030264355E+03 -0.15779302883E+03  0.50216297798E+03  0.15294330000E+03 0.  0.
<mgrwt>
<rscale>  0 0.70193276E+03</rscale>
<asrwt>0</asrwt>
<pdfrwt beam="1">  1        1 0.99006097E-01 0.79855342E+03</pdfrwt>
<pdfrwt beam="2">  1       -1 0.10470889E+00 0.79855342E+03</pdfrwt>
<totfact> 0.27020116E+01</totfact>
</mgrwt>
</event>
<event>
 4    1  0.1043382E-007  0.7580102E+03  0.7818608E-02  0.9810286E-01
         -1   -1    0    0    0  501 -0.00000000000E+00  0.00000000000E+00  0.30933508914E+03  0.30933508918E+03  0.50400000000E-02 0.  1.
          1   -1    0    0  501    0  0.00000000000E+00 -0.00000000000E+00 -0.22475681693E+04  0.22475681693E+04  0.50400000000E-02 0. -1.
    8880023    1    1    2    0    0  0.67791413839E+02 -0.36901698386E+03 -0.21676148562E+03  0.78839391048E+03  0.65864270000E+03 0.  1.
    8880022    1    1    2    0    0 -0.67791413839E+02  0.36901698386E+03 -0.17214715946E+04  0.17685093480E+04  0.15294330000E+03 0.  0.
<mgrwt>
<rscale>  0 0.64813426E+03</rscale>
<asrwt>0</asrwt>
<pdfrwt beam="1">  1        1 0.34577971E+00 0.75801017E+03</pdfrwt>
<pdfrwt beam="2">  1       -1 0.47590015E-01 0.75801017E+03</pdfrwt>
<totfact> 0.93465644E+00</totfact>
</mgrwt>
</event>
<event>
 4    1  0.1043382E-007  0.8291992E+03  0.7818608E-02  0.9650893E-01
         -1   -1    0    0    0  501 -0.00000000000E+00  0.00000000000E+00  0.14950906577E+04  0.14950906577E+04  0.50400000000E-02 0.  1.
          1   -1    0    0  501    0  0.00000000000E+00 -0.00000000000E+00 -0.54790625248E+03  0.54790625250E+03  0.50400000000E-02 0. -1.
    8880023    1    1    2    0    0 -0.36823365650E+03 -0.34375140732E+03  0.12002919370E+04  0.14588598274E+04  0.65864270000E+03 0.  0.
    8880022    1    1    2    0    0  0.36823365650E+03  0.34375140732E+03 -0.25310753178E+03  0.58413708278E+03  0.15294330000E+03 0.  0.
<mgrwt>
<rscale>  0 0.74017436E+03</rscale>
<asrwt>0</asrwt>
<pdfrwt beam="1">  1        1 0.84293270E-01 0.82919917E+03</pdfrwt>
<pdfrwt beam="2">  1       -1 0.23001395E+00 0.82919917E+03</pdfrwt>
<totfact> 0.37836300E+00</totfact>
</mgrwt>
</event>
<event>
 4    1  0.1043382E-007  0.7309491E+03  0.7818608E-02  0.9887142E-01
          1   -1    0    0  501    0  0.00000000000E+00  0.00000000000E+00  0.19269948412E+04  0.19269948413E+04  0.50400000000E-02 0. -1.
         -1   -1    0    0    0  501 -0.00000000000E+00 -0.00000000000E+00 -0.19433966399E+03  0.19433966405E+03  0.50400000000E-02 0.  1.
    8880023    1    1    2    0    0  0.75175679133E+02 -0.30793664881E+03  0.63370736975E+03  0.96740456849E+03  0.65864270000E+03 0.  1.
    8880022    1    1    2    0    0 -0.75175679133E+02  0.30793664881E+03  0.10989478075E+04  0.11539299368E+04  0.15294330000E+03 0.  0.
<mgrwt>
<rscale>  0 0.60888496E+03</rscale>
<asrwt>0</asrwt>
<pdfrwt beam="1">  1        1 0.29646076E+00 0.73094909E+03</pdfrwt>
<pdfrwt beam="2">  1       -1 0.29898409E-01 0.73094909E+03</pdfrwt>
<totfact> 0.35578189E+01</totfact>
</mgrwt>
</event>
<event>
 4    1  0.1043382E-007  0.7987354E+03  0.7818608E-02  0.9713537E-01
          1   -1    0    0  501    0  0.00000000000E+00  0.00000000000E+00  0.12273990176E+04  0.12273990176E+04  0.50400000000E-02 0. -1.
         -1   -1    0    0    0  501 -0.00000000000E+00 -0.00000000000E+00 -0.45480866014E+03  0.45480866016E+03  0.50400000000E-02 0.  1.
    8880023    1    1    2    0    0 -0.41636015727E+03  0.17553434090E+03  0.88496681751E+03  0.11921176787E+04  0.65864270000E+03 0. -1.
    8880022    1    1    2    0    0  0.41636015727E+03 -0.17553434090E+03 -0.11237646009E+03  0.49008999907E+03  0.15294330000E+03 0.  0.
<mgrwt>
<rscale>  0 0.70216494E+03</rscale>
<asrwt>0</asrwt>
<pdfrwt beam="1">  1        1 0.18883061E+00 0.79873543E+03</pdfrwt>
<pdfrwt beam="2">  1       -1 0.69970565E-01 0.79873543E+03</pdfrwt>
<totfact> 0.21599486E+01</totfact>
</mgrwt>
</event>
<event>
 4    1  0.1043382E-007  0.7992803E+03  0.7818608E-02  0.9712354E-01
         -1   -1    0    0    0  501 -0.00000000000E+00  0.00000000000E+00  0.11568522324E+04  0.11568522324E+04  0.50400000000E-02 0.  1.
          1   -1    0    0  501    0  0.00000000000E+00 -0.00000000000E+00 -0.60526905488E+03  0.60526905490E+03  0.50400000000E-02 0. -1.
    8880023    1    1    2    0    0 -0.40297160189E+03 -0.20652541855E+03  0.87494578610E+03  0.11850650595E+04  0.65864270000E+03 0.  0.
    8880022    1    1    2    0    0  0.40297160189E+03  0.20652541855E+03 -0.32336260855E+03  0.57705622782E+03  0.15294330000E+03 0.  0.
<mgrwt>
<rscale>  0 0.70285965E+03</rscale>
<asrwt>0</asrwt>
<pdfrwt beam="1">  1        1 0.93118317E-01 0.79928034E+03</pdfrwt>
<pdfrwt beam="2">  1       -1 0.17797727E+00 0.79928034E+03</pdfrwt>
<totfact> 0.74678972E+00</totfact>
</mgrwt>
</event>
<event>
 4    1  0.1043382E-007  0.7035449E+03  0.7818608E-02  0.9982801E-01
         -1   -1    0    0    0  501 -0.00000000000E+00  0.00000000000E+00  0.34728863682E+03  0.34728863685E+03  0.50400000000E-02 0.  1.
          1   -1    0    0  501    0  0.00000000000E+00 -0.00000000000E+00 -0.11537612561E+04  0.11537612561E+04  0.50400000000E-02 0. -1.
    8880023    1    1    2    0    0 -0.13791206066E+03 -0.20529374924E+03 -0.67323425800E+02  0.70675873527E+03  0.65864270000E+03 0.  1.
    8880022    1    1    2    0    0  0.13791206066E+03  0.20529374924E+03 -0.73914919346E+03  0.79429115768E+03  0.15294330000E+03 0. -1.
<mgrwt>
<rscale>  0 0.56410834E+03</rscale>
<asrwt>0</asrwt>
<pdfrwt beam="1">  1        1 0.17750173E+00 0.70354493E+03</pdfrwt>
<pdfrwt beam="2">  1       -1 0.53429022E-01 0.70354493E+03</pdfrwt>
<totfact> 0.42135992E+01</totfact>
</mgrwt>
</event>
<event>
 4    1  0.1043382E-007  0.7706891E+03  0.7818608E-02  0.9778181E-01
          1   -1    0    0  501    0  0.00000000000E+00  0.00000000000E+00  0.22688603770E+04  0.22688603770E+04  0.50400000000E-02 0. -1.
         -1   -1    0    0    0  501 -0.00000000000E+00 -0.00000000000E+00 -0.25913478128E+03  0.25913478133E+03  0.50400000000E-02 0.  1.
    8880023    1    1    2    0    0 -0.32720174767E+03 -0.23041375599E+03  0.41215157681E+03  0.87397403346E+03  0.65864270000E+03 0.  0.
    8880022    1    1    2    0    0  0.32720174767E+03  0.23041375599E+03  0.15975740189E+04  0.16540211248E+04  0.15294330000E+03 0.  0.
<mgrwt>
<rscale>  0 0.66546724E+03</rscale>
<asrwt>0</asrwt>
<pdfrwt beam="1">  1        1 0.34905543E+00 0.77068910E+03</pdfrwt>
<pdfrwt beam="2">  1       -1 0.39866890E-01 0.77068910E+03</pdfrwt>
<totfact> 0.12517965E+01</totfact>
</mgrwt>
</event>
<event>
 4    1  0.1043382E-007  0.8725005E+03  0.7818608E-02  0.9571703E-01
         -1   -1    0    0    0  501 -0.00000000000E+00  0.00000000000E+00  0.36985176784E+03  0.36985176787E+03  0.50400000000E-02 0.  1.
          1   -1    0    0  501    0  0.00000000000E+00 -0.00000000000E+00 -0.25481647342E+04  0.25481647342E+04  0.50400000000E-02 0. -1.
    8880023    1    1    2    0    0 -0.47767314991E+03  0.31507971701E+03 -0.26011261591E+03  0.91044804653E+03  0.65864270000E+03 0.  0.
    8880022    1    1    2    0    0  0.47767314991E+03 -0.31507971701E+03 -0.19182003505E+04  0.20075684556E+04  0.15294330000E+03 0.  0.
<mgrwt>
<rscale>  0 0.79197717E+03</rscale>
<asrwt>0</asrwt>
<pdfrwt beam="1">  1        1 0.39202533E+00 0.87250047E+03</pdfrwt>
<pdfrwt beam="2">  1       -1 0.56900274E-01 0.87250047E+03</pdfrwt>
<totfact> 0.40734796E+00</totfact>
</mgrwt>
</event>
<event>
 4    1  0.1043382E-007  0.8755775E+03  0.7818608E-02  0.9566433E-01
          1   -1    0    0  501    0  0.00000000000E+00  0.00000000000E+00  0.80552754720E+03  0.80552754722E+03  0.50400000000E-02 0. -1.
         -1   -1    0    0    0  501 -0.00000000000E+00 -0.00000000000E+00 -0.77498910999E+03  0.77498911001E+03  0.50400000000E-02 0.  1.
    8880023    1    1    2    0    0  0.34901015040E+03  0.45936657441E+03 -0.26460756729E+03  0.91468743606E+03  0.65864270000E+03 0.  0.
    8880022    1    1    2    0    0 -0.34901015040E+03 -0.45936657441E+03  0.29514600450E+03  0.66582922116E+03  0.15294330000E+03 0.  0.
<mgrwt>
<rscale>  0 0.79558270E+03</rscale>
<asrwt>0</asrwt>
<pdfrwt beam="1">  1        1 0.12392731E+00 0.87557749E+03</pdfrwt>
<pdfrwt beam="2">  1       -1 0.11922909E+00 0.87557749E+03</pdfrwt>
<totfact> 0.13952712E+01</totfact>
</mgrwt>
</event>
<event>
 4    1  0.1043382E-007  0.6674297E+03  0.7818608E-02  0.1017577E+00
          1   -1    0    0  501    0  0.00000000000E+00  0.00000000000E+00  0.11250756892E+04  0.11250756892E+04  0.50400000000E-02 0. -1.
         -1   -1    0    0    0  501 -0.00000000000E+00 -0.00000000000E+00 -0.45161255321E+03  0.45161255324E+03  0.50400000000E-02 0.  1.
    8880023    1    1    2    0    0  0.69740474914E+02  0.82391905260E+02 -0.18937518802E+03  0.69377613680E+03  0.65864270000E+03 0.  0.
    8880022    1    1    2    0    0 -0.69740474914E+02 -0.82391905260E+02  0.86283832402E+03  0.88291210565E+03  0.15294330000E+03 0.  0.
<mgrwt>
<rscale>  0 0.48571392E+03</rscale>
<asrwt>0</asrwt>
<pdfrwt beam="1">  1        1 0.17308857E+00 0.66742967E+03</pdfrwt>
<pdfrwt beam="2">  1       -1 0.69478855E-01 0.66742967E+03</pdfrwt>
<totfact> 0.26442610E+01</totfact>
</mgrwt>
</event>
<event>
 4    1  0.1043382E-007  0.8027427E+03  0.7818608E-02  0.9704897E-01
          1   -1    0    0  501    0  0.00000000000E+00  0.00000000000E+00  0.12466128361E+04  0.12466128361E+04  0.50400000000E-02 0. -1.
         -1   -1    0    0    0  501 -0.00000000000E+00 -0.00000000000E+00 -0.34943399324E+03  0.34943399327E+03  0.50400000000E-02 0.  1.
    8880023    1    1    2    0    0 -0.45822502919E+03  0.24807445513E+02  0.38075233803E+03  0.88846391930E+03  0.65864270000E+03 0.  0.
    8880022    1    1    2    0    0  0.45822502919E+03 -0.24807445513E+02  0.51642650487E+03  0.70758291010E+03  0.15294330000E+03 0.  0.
<mgrwt>
<rscale>  0 0.70725978E+03</rscale>
<asrwt>0</asrwt>
<pdfrwt beam="1">  1        1 0.19178659E+00 0.80274267E+03</pdfrwt>
<pdfrwt beam="2">  1       -1 0.53759077E-01 0.80274267E+03</pdfrwt>
<totfact> 0.35284606E+01</totfact>
</mgrwt>
</event>
<event>
 4    1  0.1043382E-007  0.6788672E+03  0.7818608E-02  0.1009972E+00
          1   -1    0    0  501    0  0.00000000000E+00  0.00000000000E+00  0.20724849033E+04  0.20724849033E+04  0.50400000000E-02 0. -1.
         -1   -1    0    0    0  501 -0.00000000000E+00 -0.00000000000E+00 -0.20911305003E+03  0.20911305009E+03  0.50400000000E-02 0.  1.
    8880023    1    1    2    0    0 -0.29716199339E+02  0.16176334340E+03  0.37337769965E+03  0.77477193072E+03  0.65864270000E+03 0.  1.
    8880022    1    1    2    0    0  0.29716199339E+02 -0.16176334340E+03  0.14899941536E+04  0.15068260227E+04  0.15294330000E+03 0.  0.
<mgrwt>
<rscale>  0 0.51485832E+03</rscale>
<asrwt>0</asrwt>
<pdfrwt beam="1">  1        1 0.31884383E+00 0.67886717E+03</pdfrwt>
<pdfrwt beam="2">  1       -1 0.32171238E-01 0.67886717E+03</pdfrwt>
<totfact> 0.25209933E+01</totfact>
</mgrwt>
</event>
<event>
 4    1  0.1043382E-007  0.7099338E+03  0.7818608E-02  0.9958247E-01
          1   -1    0    0  501    0  0.00000000000E+00  0.00000000000E+00  0.82260604033E+03  0.82260604034E+03  0.50400000000E-02 0. -1.
         -1   -1    0    0    0  501 -0.00000000000E+00 -0.00000000000E+00 -0.11638981506E+04  0.11638981506E+04  0.50400000000E-02 0.  1.
    8880023    1    1    2    0    0 -0.14337373659E+03  0.22279984299E+03 -0.10195932482E+04  0.12424075002E+04  0.65864270000E+03 0.  1.
    8880022    1    1    2    0    0  0.14337373659E+03 -0.22279984299E+03  0.67830113799E+03  0.74409669075E+03  0.15294330000E+03 0.  0.
<mgrwt>
<rscale>  0 0.57519565E+03</rscale>
<asrwt>0</asrwt>
<pdfrwt beam="1">  1        1 0.12655478E+00 0.70993380E+03</pdfrwt>
<pdfrwt beam="2">  1       -1 0.17906125E+00 0.70993380E+03</pdfrwt>
<totfact> 0.46594926E+00</totfact>
</mgrwt>
</event>
<event>
 4    1  0.1043382E-007  0.6991238E+03  0.7818608E-02  0.1000086E+00
          1   -1    0    0  501    0  0.00000000000E+00  0.00000000000E+00  0.75498448062E+03  0.75498448064E+03  0.50400000000E-02 0. -1.
         -1   -1    0    0    0  501 -0.00000000000E+00 -0.00000000000E+00 -0.48486878767E+03  0.48486878769E+03  0.50400000000E-02 0.  1.
    8880023    1    1    2    0    0  0.21816479640E+03  0.85836924534E+02 -0.16885673688E+03  0.71922643156E+03  0.65864270000E+03 0.  1.
    8880022    1    1    2    0    0 -0.21816479640E+03 -0.85836924534E+02  0.43897242983E+03  0.52062683677E+03  0.15294330000E+03 0.  1.
<mgrwt>
<rscale>  0 0.55612734E+03</rscale>
<asrwt>0</asrwt>
<pdfrwt beam="1">  1        1 0.11615146E+00 0.69912378E+03</pdfrwt>
<pdfrwt beam="2">  1       -1 0.74595199E-01 0.69912378E+03</pdfrwt>
<totfact> 0.45071904E+01</totfact>
</mgrwt>
</event>
<event>
 4    1  0.1043382E-007  0.7725697E+03  0.7818608E-02  0.9773590E-01
         -1   -1    0    0    0  501 -0.00000000000E+00  0.00000000000E+00  0.45416255022E+03  0.45416255025E+03  0.50400000000E-02 0.  1.
          1   -1    0    0  501    0  0.00000000000E+00 -0.00000000000E+00 -0.15277058271E+04  0.15277058271E+04  0.50400000000E-02 0. -1.
    8880023    1    1    2    0    0 -0.19244591388E+03 -0.35499049278E+03  0.54020185734E+02  0.77445598097E+03  0.65864270000E+03 0.  1.
    8880022    1    1    2    0    0  0.19244591388E+03  0.35499049278E+03 -0.11275634626E+04  0.12074123964E+04  0.15294330000E+03 0.  0.
<mgrwt>
<rscale>  0 0.66799341E+03</rscale>
<asrwt>0</asrwt>
<pdfrwt beam="1">  1        1 0.23503166E+00 0.77256966E+03</pdfrwt>
<pdfrwt beam="2">  1       -1 0.69871162E-01 0.77256966E+03</pdfrwt>
<totfact> 0.13403044E+01</totfact>
</mgrwt>
</event>
<event>
 4    1  0.1043382E-007  0.6741164E+03  0.7818608E-02  0.1012869E+00
          1   -1    0    0  501    0  0.00000000000E+00  0.00000000000E+00  0.50635159288E+03  0.50635159290E+03  0.50400000000E-02 0. -1.
         -1   -1    0    0    0  501 -0.00000000000E+00 -0.00000000000E+00 -0.77893532071E+03  0.77893532073E+03  0.50400000000E-02 0.  1.
    8880023    1    1    2    0    0 -0.84210638057E+02  0.11632421499E+03 -0.59598604395E+03  0.89979571315E+03  0.65864270000E+03 0.  1.
    8880022    1    1    2    0    0  0.84210638057E+02 -0.11632421499E+03  0.32340231612E+03  0.38549120047E+03  0.15294330000E+03 0.  0.
<mgrwt>
<rscale>  0 0.50350124E+03</rscale>
<asrwt>0</asrwt>
<pdfrwt beam="1">  1        1 0.77900245E-01 0.67411643E+03</pdfrwt>
<pdfrwt beam="2">  1       -1 0.11983620E+00 0.67411643E+03</pdfrwt>
<totfact> 0.27931330E+01</totfact>
</mgrwt>
</event>
<event>
 4    1  0.1043382E-007  0.1019982E+04  0.7818608E-02  0.9355870E-01
          1   -1    0    0  501    0  0.00000000000E+00  0.00000000000E+00  0.20580974272E+04  0.20580974273E+04  0.50400000000E-02 0. -1.
         -1   -1    0    0    0  501 -0.00000000000E+00 -0.00000000000E+00 -0.61310282057E+03  0.61310282059E+03  0.50400000000E-02 0.  1.
    8880023    1    1    2    0    0 -0.38261989938E+03 -0.67834700181E+03 -0.29570328139E+01  0.10199860747E+04  0.65864270000E+03 0.  0.
    8880022    1    1    2    0    0  0.38261989938E+03  0.67834700181E+03  0.14479516395E+04  0.16512141731E+04  0.15294330000E+03 0.  0.
<mgrwt>
<rscale>  0 0.95798141E+03</rscale>
<asrwt>0</asrwt>
<pdfrwt beam="1">  1        1 0.31663037E+00 0.10199818E+04</pdfrwt>
<pdfrwt beam="2">  1       -1 0.94323511E-01 0.10199818E+04</pdfrwt>
<totfact> 0.29881933E+00</totfact>
</mgrwt>
</event>
<event>
 4    1  0.1043382E-007  0.9857048E+03  0.7818608E-02  0.9400504E-01
          1   -1    0    0  501    0  0.00000000000E+00  0.00000000000E+00  0.13892457760E+04  0.13892457760E+04  0.50400000000E-02 0. -1.
         -1   -1    0    0    0  501 -0.00000000000E+00 -0.00000000000E+00 -0.64521320498E+03  0.64521320500E+03  0.50400000000E-02 0.  1.
    8880023    1    1    2    0    0 -0.64755370956E+03 -0.34420628879E+03  0.10152325360E+02  0.98575709583E+03  0.65864270000E+03 0.  1.
    8880022    1    1    2    0    0  0.64755370956E+03  0.34420628879E+03  0.73388024569E+03  0.10487018852E+04  0.15294330000E+03 0. -1.
<mgrwt>
<rscale>  0 0.92034239E+03</rscale>
<asrwt>0</asrwt>
<pdfrwt beam="1">  1        1 0.21373012E+00 0.98570481E+03</pdfrwt>
<pdfrwt beam="2">  1       -1 0.99263571E-01 0.98570481E+03</pdfrwt>
<totfact> 0.76267663E+00</totfact>
</mgrwt>
</event>
<event>
 4    1  0.1043382E-007  0.9624343E+03  0.7818608E-02  0.9432445E-01
         -1   -1    0    0    0  501 -0.00000000000E+00  0.00000000000E+00  0.33689386001E+03  0.33689386004E+03  0.50400000000E-02 0.  1.
          1   -1    0    0  501    0  0.00000000000E+00 -0.00000000000E+00 -0.25094578183E+04  0.25094578183E+04  0.50400000000E-02 0. -1.
    8880023    1    1    2    0    0  0.42892473375E+03 -0.55542162810E+03 -0.17906113861E+04  0.20328720950E+04  0.65864270000E+03 0. -1.
    8880022    1    1    2    0    0 -0.42892473375E+03  0.55542162810E+03 -0.38195257221E+03  0.81347958340E+03  0.15294330000E+03 0.  0.
<mgrwt>
<rscale>  0 0.89453006E+03</rscale>
<asrwt>0</asrwt>
<pdfrwt beam="1">  1        1 0.38607042E+00 0.96243432E+03</pdfrwt>
<pdfrwt beam="2">  1       -1 0.51829826E-01 0.96243432E+03</pdfrwt>
<totfact> 0.51195554E+00</totfact>
</mgrwt>
</event>
<event>
 4    1  0.1043382E-007  0.8008100E+03  0.7818608E-02  0.9709047E-01
         -1   -1    0    0    0  501 -0.00000000000E+00  0.00000000000E+00  0.83819426259E+03  0.83819426261E+03  0.50400000000E-02 0.  1.
          1   -1    0    0  501    0  0.00000000000E+00 -0.00000000000E+00 -0.52746002945E+03  0.52746002948E+03  0.50400000000E-02 0. -1.
    8880023    1    1    2    0    0 -0.17767105499E+03 -0.41942754967E+03  0.36881637082E+03  0.88165877461E+03  0.65864270000E+03 0. -1.
    8880022    1    1    2    0    0  0.17767105499E+03  0.41942754967E+03 -0.58082137684E+02  0.48399551747E+03  0.15294330000E+03 0.  0.
<mgrwt>
<rscale>  0 0.70480661E+03</rscale>
<asrwt>0</asrwt>
<pdfrwt beam="1">  1        1 0.81147697E-01 0.80081001E+03</pdfrwt>
<pdfrwt beam="2">  1       -1 0.12895296E+00 0.80081001E+03</pdfrwt>
<totfact> 0.21730001E+01</totfact>
</mgrwt>
</event>
<event>
 4    1  0.1043382E-007  0.6793380E+03  0.7818608E-02  0.1009701E+00
          1   -1    0    0  501    0  0.00000000000E+00  0.00000000000E+00  0.14570781760E+04  0.14570781761E+04  0.50400000000E-02 0. -1.
         -1   -1    0    0    0  501 -0.00000000000E+00 -0.00000000000E+00 -0.58847422050E+03  0.58847422052E+03  0.50400000000E-02 0.  1.
    8880023    1    1    2    0    0  0.15307559136E+03  0.65251840008E+02 -0.37881893605E+03  0.77781998680E+03  0.65864270000E+03 0.  1.
    8880022    1    1    2    0    0 -0.15307559136E+03 -0.65251840008E+02  0.12474228916E+04  0.12677324098E+04  0.15294330000E+03 0.  0.
<mgrwt>
<rscale>  0 0.51593797E+03</rscale>
<asrwt>0</asrwt>
<pdfrwt beam="1">  1        1 0.22416587E+00 0.67933802E+03</pdfrwt>
<pdfrwt beam="2">  1       -1 0.90534496E-01 0.67933802E+03</pdfrwt>
<totfact> 0.87752215E+00</totfact>
</mgrwt>
</event>
<event>
 4    1  0.1043382E-007  0.9165587E+03  0.7818608E-02  0.9499956E-01
          1   -1    0    0  501    0  0.00000000000E+00  0.00000000000E+00  0.16384491523E+04  0.16384491523E+04  0.50400000000E-02 0. -1.
         -1   -1    0    0    0  501 -0.00000000000E+00 -0.00000000000E+00 -0.85968701438E+03  0.85968701440E+03  0.50400000000E-02 0.  1.
    8880023    1    1    2    0    0  0.48494832053E+03  0.41363598371E+03  0.13479286211E+04  0.16300280287E+04  0.65864270000E+03 0.  0.
    8880022    1    1    2    0    0 -0.48494832053E+03 -0.41363598371E+03 -0.56916648319E+03  0.86810813797E+03  0.15294330000E+03 0.  0.
<mgrwt>
<rscale>  0 0.84287074E+03</rscale>
<asrwt>0</asrwt>
<pdfrwt beam="1">  1        1 0.25206910E+00 0.91655868E+03</pdfrwt>
<pdfrwt beam="2">  1       -1 0.13225954E+00 0.91655868E+03</pdfrwt>
<totfact> 0.25969373E+00</totfact>
</mgrwt>
</event>
<event>
 4    1  0.1043382E-007  0.7711559E+03  0.7818608E-02  0.9777038E-01
         -1   -1    0    0    0  501 -0.00000000000E+00  0.00000000000E+00  0.46350945433E+03  0.46350945436E+03  0.50400000000E-02 0.  1.
          1   -1    0    0  501    0  0.00000000000E+00 -0.00000000000E+00 -0.10876570883E+04  0.10876570884E+04  0.50400000000E-02 0. -1.
    8880023    1    1    2    0    0 -0.34464254024E+03 -0.20516514667E+03  0.26574900289E+02  0.77161366599E+03  0.65864270000E+03 0.  1.
    8880022    1    1    2    0    0  0.34464254024E+03  0.20516514667E+03 -0.65072253431E+03  0.77955287673E+03  0.15294330000E+03 0.  0.
<mgrwt>
<rscale>  0 0.66609530E+03</rscale>
<asrwt>0</asrwt>
<pdfrwt beam="1">  1        1 0.16733186E+00 0.77115590E+03</pdfrwt>
<pdfrwt beam="2">  1       -1 0.71309147E-01 0.77115590E+03</pdfrwt>
<totfact> 0.26394622E+01</totfact>
</mgrwt>
</event>
<event>
 4    1  0.1043382E-007  0.6608982E+03  0.7818608E-02  0.1023254E+00
         -1   -1    0    0    0  501 -0.00000000000E+00  0.00000000000E+00  0.43167182950E+03  0.43167182953E+03  0.50400000000E-02 0.  1.
          1   -1    0    0  501    0  0.00000000000E+00 -0.00000000000E+00 -0.62842147630E+03  0.62842147632E+03  0.50400000000E-02 0. -1.
    8880023    1    1    2    0    0 -0.49125752316E+02  0.23725434439E+02  0.14955489331E+03  0.67760837374E+03  0.65864270000E+03 0.  1.
    8880022    1    1    2    0    0  0.49125752316E+02 -0.23725434439E+02 -0.34630454011E+03  0.38248493212E+03  0.15294330000E+03 0.  0.
<mgrwt>
<rscale>  0 0.46530246E+03</rscale>
<asrwt>0</asrwt>
<pdfrwt beam="1">  1        1 0.96680227E-01 0.66089821E+03</pdfrwt>
<pdfrwt beam="2">  1       -1 0.66411051E-01 0.66089821E+03</pdfrwt>
<totfact> 0.75563700E+01</totfact>
</mgrwt>
</event>
<event>
 4    1  0.1043382E-007  0.7388300E+03  0.7818608E-02  0.9863368E-01
          1   -1    0    0  501    0  0.00000000000E+00  0.00000000000E+00  0.82760654231E+03  0.82760654232E+03  0.50400000000E-02 0. -1.
         -1   -1    0    0    0  501 -0.00000000000E+00 -0.00000000000E+00 -0.59611608910E+03  0.59611608912E+03  0.50400000000E-02 0.  1.
    8880023    1    1    2    0    0  0.30128343490E+03  0.14590347015E+03 -0.28297584221E+03  0.79116690040E+03  0.65864270000E+03 0.  1.
    8880022    1    1    2    0    0 -0.30128343490E+03 -0.14590347015E+03  0.51446629542E+03  0.63255573105E+03  0.15294330000E+03 0.  0.
<mgrwt>
<rscale>  0 0.62069927E+03</rscale>
<asrwt>0</asrwt>
<pdfrwt beam="1">  1        1 0.12732408E+00 0.73882998E+03</pdfrwt>
<pdfrwt beam="2">  1       -1 0.91710167E-01 0.73882998E+03</pdfrwt>
<totfact> 0.24921622E+01</totfact>
</mgrwt>
</event>
<event>
 4    1  0.1043382E-007  0.8934550E+03  0.7818608E-02  0.9536621E-01
          1   -1    0    0  501    0  0.00000000000E+00  0.00000000000E+00  0.22819516586E+04  0.22819516586E+04  0.50400000000E-02 0. -1.
         -1   -1    0    0    0  501 -0.00000000000E+00 -0.00000000000E+00 -0.83745461362E+03  0.83745461363E+03  0.50400000000E-02 0.  1.
    8880023    1    1    2    0    0 -0.25002679478E+03  0.54948908870E+03 -0.53695334090E+03  0.10423918425E+04  0.65864270000E+03 0.  0.
    8880022    1    1    2    0    0  0.25002679478E+03 -0.54948908870E+03  0.19814503858E+04  0.20770144297E+04  0.15294330000E+03 0.  0.
<mgrwt>
<rscale>  0 0.81636910E+03</rscale>
<asrwt>0</asrwt>
<pdfrwt beam="1">  1        1 0.35106949E+00 0.89345501E+03</pdfrwt>
<pdfrwt beam="2">  1       -1 0.12883917E+00 0.89345501E+03</pdfrwt>
<totfact> 0.10265401E+00</totfact>
</mgrwt>
</event>
<event>
 4    1  0.1043382E-007  0.9554424E+03  0.7818608E-02  0.9442326E-01
          1   -1    0    0  501    0  0.00000000000E+00  0.00000000000E+00  0.16961535366E+04  0.16961535366E+04  0.50400000000E-02 0. -1.
         -1   -1    0    0    0  501 -0.00000000000E+00 -0.00000000000E+00 -0.83170338917E+03  0.83170338919E+03  0.50400000000E-02 0.  1.
    8880023    1    1    2    0    0  0.18739175299E+03 -0.66629148463E+03 -0.43332704690E+03  0.10491151259E+04  0.65864270000E+03 0.  0.
    8880022    1    1    2    0    0 -0.18739175299E+03  0.66629148463E+03  0.12977771943E+04  0.14787417998E+04  0.15294330000E+03 0.  0.
<mgrwt>
<rscale>  0 0.88672750E+03</rscale>
<asrwt>0</asrwt>
<pdfrwt beam="1">  1        1 0.26094670E+00 0.95544242E+03</pdfrwt>
<pdfrwt beam="2">  1       -1 0.12795437E+00 0.95544242E+03</pdfrwt>
<totfact> 0.25655048E+00</totfact>
</mgrwt>
</event>
<event>
 4    1  0.1043382E-007  0.8299054E+03  0.7818608E-02  0.9649516E-01
         -1   -1    0    0    0  501 -0.00000000000E+00  0.00000000000E+00  0.84743258403E+03  0.84743258404E+03  0.50400000000E-02 0.  1.
          1   -1    0    0  501    0  0.00000000000E+00 -0.00000000000E+00 -0.90902863970E+03  0.90902863972E+03  0.50400000000E-02 0. -1.
    8880023    1    1    2    0    0 -0.41453458523E+03 -0.28826016423E+03  0.51359142797E+03  0.97597090416E+03  0.65864270000E+03 0.  1.
    8880022    1    1    2    0    0  0.41453458523E+03  0.28826016423E+03 -0.57518748364E+03  0.78049031960E+03  0.15294330000E+03 0.  0.
<mgrwt>
<rscale>  0 0.74103785E+03</rscale>
<asrwt>0</asrwt>
<pdfrwt beam="1">  1        1 0.13985056E+00 0.82990545E+03</pdfrwt>
<pdfrwt beam="2">  1       -1 0.13037424E+00 0.82990545E+03</pdfrwt>
<totfact> 0.92008629E+00</totfact>
</mgrwt>
</event>
<event>
 4    1  0.2120510E-007  0.1136277E+04  0.7818608E-02  0.9221702E-01
          1   -1    0    0  501    0  0.00000000000E+00  0.00000000000E+00  0.13899666605E+04  0.13899666605E+04  0.50400000000E-02 0. -1.
         -1   -1    0    0    0  501 -0.00000000000E+00 -0.00000000000E+00 -0.29406896503E+04  0.29406896503E+04  0.50400000000E-02 0.  1.
    8880023    1    1    2    0    0 -0.39622152166E+03 -0.83685353208E+03 -0.26511564904E+04  0.28843987712E+04  0.65864270000E+03 0.  0.
    8880022    1    1    2    0    0  0.39622152166E+03  0.83685353208E+03  0.11004335007E+04  0.14462575396E+04  0.15294330000E+03 0.  0.
<mgrwt>
<rscale>  0 0.10832211E+04</rscale>
<asrwt>0</asrwt>
<pdfrwt beam="1">  1        1 0.21384103E+00 0.11362771E+04</pdfrwt>
<pdfrwt beam="2">  1       -1 0.45241379E+00 0.11362771E+04</pdfrwt>
<totfact> 0.24356128E-02</totfact>
</mgrwt>
</event>
<event>
 4    1  0.1043382E-007  0.8832945E+03  0.7818608E-02  0.9553400E-01
          1   -1    0    0  501    0  0.00000000000E+00  0.00000000000E+00  0.13659743993E+04  0.13659743993E+04  0.50400000000E-02 0. -1.
         -1   -1    0    0    0  501 -0.00000000000E+00 -0.00000000000E+00 -0.17485113553E+04  0.17485113553E+04  0.50400000000E-02 0.  1.
    8880023    1    1    2    0    0 -0.54902859750E+03  0.21205317155E+03  0.11590704563E+04  0.14572760471E+04  0.65864270000E+03 0. -1.
    8880022    1    1    2    0    0  0.54902859750E+03 -0.21205317155E+03 -0.15416074123E+04  0.16572097076E+04  0.15294330000E+03 0.  0.
<mgrwt>
<rscale>  0 0.80458814E+03</rscale>
<asrwt>0</asrwt>
<pdfrwt beam="1">  1        1 0.21014991E+00 0.88329449E+03</pdfrwt>
<pdfrwt beam="2">  1       -1 0.26900175E+00 0.88329449E+03</pdfrwt>
<totfact> 0.44005664E-01</totfact>
</mgrwt>
</event>
<event>
 4    1  0.1043382E-007  0.8045489E+03  0.7818608E-02  0.9701045E-01
          1   -1    0    0  501    0  0.00000000000E+00  0.00000000000E+00  0.27222145485E+04  0.27222145486E+04  0.50400000000E-02 0. -1.
         -1   -1    0    0    0  501 -0.00000000000E+00 -0.00000000000E+00 -0.64861994800E+03  0.64861994802E+03  0.50400000000E-02 0.  1.
    8880023    1    1    2    0    0 -0.38624446300E+03  0.25358220261E+03 -0.36548239994E+03  0.88367205999E+03  0.65864270000E+03 0.  1.
    8880022    1    1    2    0    0  0.38624446300E+03 -0.25358220261E+03  0.24390770005E+04  0.24871624366E+04  0.15294330000E+03 0.  0.
<mgrwt>
<rscale>  0 0.70954585E+03</rscale>
<asrwt>0</asrwt>
<pdfrwt beam="1">  1        1 0.41880224E+00 0.80454890E+03</pdfrwt>
<pdfrwt beam="2">  1       -1 0.99787683E-01 0.80454890E+03</pdfrwt>
<totfact> 0.96096008E-01</totfact>
</mgrwt>
</event>
<event>
 4    1  0.1043382E-007  0.1023696E+04  0.7818608E-02  0.9351192E-01
         -1   -1    0    0    0  501 -0.00000000000E+00  0.00000000000E+00  0.58874760253E+03  0.58874760255E+03  0.50400000000E-02 0.  1.
          1   -1    0    0  501    0  0.00000000000E+00 -0.00000000000E+00 -0.24861273611E+04  0.24861273611E+04  0.50400000000E-02 0. -1.
    8880023    1    1    2    0    0  0.40301064255E+03 -0.67210590991E+03 -0.80229081518E+01  0.10237277497E+04  0.65864270000E+03 0.  0.
    8880022    1    1    2    0    0 -0.40301064255E+03  0.67210590991E+03 -0.18893568504E+04  0.20511472140E+04  0.15294330000E+03 0.  0.
<mgrwt>
<rscale>  0 0.96203619E+03</rscale>
<asrwt>0</asrwt>
<pdfrwt beam="1">  1        1 0.38248113E+00 0.10236963E+04</pdfrwt>
<pdfrwt beam="2">  1       -1 0.90576556E-01 0.10236963E+04</pdfrwt>
<totfact> 0.16741577E+00</totfact>
</mgrwt>
</event>
<event>
 4    1  0.1043382E-007  0.6701608E+03  0.7818608E-02  0.1015548E+00
         -1   -1    0    0    0  501 -0.00000000000E+00  0.00000000000E+00  0.15041825343E+04  0.15041825343E+04  0.50400000000E-02 0.  1.
          1   -1    0    0  501    0  0.00000000000E+00 -0.00000000000E+00 -0.22597953142E+03  0.22597953148E+03  0.50400000000E-02 0. -1.
    8880023    1    1    2    0    0  0.11000654646E+03  0.56602891415E+02  0.13607536421E+04  0.15168276133E+04  0.65864270000E+03 0.  1.
    8880022    1    1    2    0    0 -0.11000654646E+03 -0.56602891415E+02 -0.82550639226E+02  0.21333445252E+03  0.15294330000E+03 0.  0.
<mgrwt>
<rscale>  0 0.49328046E+03</rscale>
<asrwt>0</asrwt>
<pdfrwt beam="1">  1        1 0.34766081E-01 0.67016083E+03</pdfrwt>
<pdfrwt beam="2">  1       -1 0.23141270E+00 0.67016083E+03</pdfrwt>
<totfact> 0.12207639E+01</totfact>
</mgrwt>
</event>
<event>
 4    1  0.1043382E-007  0.1178771E+04  0.7818608E-02  0.9178040E-01
          1   -1    0    0  501    0  0.00000000000E+00  0.00000000000E+00  0.72342960164E+03  0.72342960166E+03  0.50400000000E-02 0. -1.
         -1   -1    0    0    0  501 -0.00000000000E+00 -0.00000000000E+00 -0.21652701534E+04  0.21652701535E+04  0.50400000000E-02 0.  1.
    8880023    1    1    2    0    0 -0.16696720881E+03 -0.96322992827E+03 -0.48511923796E+02  0.11797684334E+04  0.65864270000E+03 0.  0.
    8880022    1    1    2    0    0  0.16696720881E+03  0.96322992827E+03 -0.13933286280E+04  0.17089313217E+04  0.15294330000E+03 0.  0.
<mgrwt>
<rscale>  0 0.11282993E+04</rscale>
<asrwt>0</asrwt>
<pdfrwt beam="1">  1        1 0.11129686E+00 0.11787706E+04</pdfrwt>
<pdfrwt beam="2">  1       -1 0.33311848E+00 0.11787706E+04</pdfrwt>
<totfact> 0.51657136E-01</totfact>
</mgrwt>
</event>
<event>
 4    1  0.1043382E-007  0.7958531E+03  0.7818608E-02  0.9719835E-01
          1   -1    0    0  501    0  0.00000000000E+00  0.00000000000E+00  0.22366775712E+04  0.22366775712E+04  0.50400000000E-02 0. -1.
         -1   -1    0    0    0  501 -0.00000000000E+00 -0.00000000000E+00 -0.53562400904E+03  0.53562400906E+03  0.50400000000E-02 0.  1.
    8880023    1    1    2    0    0 -0.44332115905E+03  0.55120991347E+02 -0.19412345060E+03  0.81918623895E+03  0.65864270000E+03 0.  1.
    8880022    1    1    2    0    0  0.44332115905E+03 -0.55120991347E+02  0.18951770128E+04  0.19531153413E+04  0.15294330000E+03 0.  0.
<mgrwt>
<rscale>  0 0.69847995E+03</rscale>
<asrwt>0</asrwt>
<pdfrwt beam="1">  1        1 0.34410424E+00 0.79585311E+03</pdfrwt>
<pdfrwt beam="2">  1       -1 0.82403695E-01 0.79585311E+03</pdfrwt>
<totfact> 0.31543339E+00</totfact>
</mgrwt>
</event>
<event>
 4    1  0.1043382E-007  0.6909423E+03  0.7818608E-02  0.1003708E+00
          1   -1    0    0  501    0  0.00000000000E+00  0.00000000000E+00  0.14082317423E+04  0.14082317424E+04  0.50400000000E-02 0. -1.
         -1   -1    0    0    0  501 -0.00000000000E+00 -0.00000000000E+00 -0.28885115292E+03  0.28885115297E+03  0.50400000000E-02 0.  1.
    8880023    1    1    2    0    0  0.16548141906E+03 -0.12730666749E+03  0.16792548586E+03  0.71105573812E+03  0.65864270000E+03 0.  1.
    8880022    1    1    2    0    0 -0.16548141906E+03  0.12730666749E+03  0.95145510356E+03  0.98602715721E+03  0.15294330000E+03 0.  0.
<mgrwt>
<rscale>  0 0.54053860E+03</rscale>
<asrwt>0</asrwt>
<pdfrwt beam="1">  1        1 0.21665104E+00 0.69094232E+03</pdfrwt>
<pdfrwt beam="2">  1       -1 0.44438639E-01 0.69094232E+03</pdfrwt>
<totfact> 0.39387493E+01</totfact>
</mgrwt>
</event>
<event>
 4    1  0.1043382E-007  0.7333243E+03  0.7818608E-02  0.9879838E-01
          1   -1    0    0  501    0  0.00000000000E+00  0.00000000000E+00  0.21660806879E+04  0.21660806879E+04  0.50400000000E-02 0. -1.
         -1   -1    0    0    0  501 -0.00000000000E+00 -0.00000000000E+00 -0.19841395383E+03  0.19841395389E+03  0.50400000000E-02 0.  1.
    8880023    1    1    2    0    0  0.26773388355E+03  0.17964644863E+03  0.58954157457E+03  0.94091644333E+03  0.65864270000E+03 0.  1.
    8880022    1    1    2    0    0 -0.26773388355E+03 -0.17964644863E+03  0.13781251595E+04  0.14235781985E+04  0.15294330000E+03 0.  0.
<mgrwt>
<rscale>  0 0.61248461E+03</rscale>
<asrwt>0</asrwt>
<pdfrwt beam="1">  1        1 0.33324320E+00 0.73332427E+03</pdfrwt>
<pdfrwt beam="2">  1       -1 0.30525222E-01 0.73332427E+03</pdfrwt>
<totfact> 0.23739836E+01</totfact>
</mgrwt>
</event>
<event>
 4    1  0.1043382E-007  0.8051132E+03  0.7818608E-02  0.9699847E-01
          1   -1    0    0  501    0  0.00000000000E+00  0.00000000000E+00  0.23284938977E+04  0.23284938977E+04  0.50400000000E-02 0. -1.
         -1   -1    0    0    0  501 -0.00000000000E+00 -0.00000000000E+00 -0.20849159699E+03  0.20849159705E+03  0.50400000000E-02 0.  1.
    8880023    1    1    2    0    0 -0.40297060064E+02  0.46127350945E+03  0.17451749625E+04  0.19219372934E+04  0.65864270000E+03 0. -1.
    8880022    1    1    2    0    0  0.40297060064E+02 -0.46127350945E+03  0.37482733824E+03  0.61504820142E+03  0.15294330000E+03 0.  0.
<mgrwt>
<rscale>  0 0.71025882E+03</rscale>
<asrwt>0</asrwt>
<pdfrwt beam="1">  1        1 0.35822980E+00 0.80511323E+03</pdfrwt>
<pdfrwt beam="2">  1       -1 0.32075633E-01 0.80511323E+03</pdfrwt>
<totfact> 0.16752157E+01</totfact>
</mgrwt>
</event>
<event>
 4    1  0.1043382E-007  0.7689429E+03  0.7818608E-02  0.9782482E-01
         -1   -1    0    0    0  501 -0.00000000000E+00  0.00000000000E+00  0.15436348535E+04  0.15436348535E+04  0.50400000000E-02 0.  1.
          1   -1    0    0  501    0  0.00000000000E+00 -0.00000000000E+00 -0.93899183874E+03  0.93899183875E+03  0.50400000000E-02 0. -1.
    8880023    1    1    2    0    0 -0.27158945977E+03 -0.28931322003E+03  0.13905738092E+04  0.15890150090E+04  0.65864270000E+03 0.  1.
    8880022    1    1    2    0    0  0.27158945977E+03  0.28931322003E+03 -0.78593079436E+03  0.89361168327E+03  0.15294330000E+03 0.  0.
<mgrwt>
<rscale>  0 0.66311182E+03</rscale>
<asrwt>0</asrwt>
<pdfrwt beam="1">  1        1 0.14446028E+00 0.76894290E+03</pdfrwt>
<pdfrwt beam="2">  1       -1 0.23748228E+00 0.76894290E+03</pdfrwt>
<totfact> 0.14877938E+00</totfact>
</mgrwt>
</event>
<event>
 4    1  0.1043382E-007  0.7755445E+03  0.7818608E-02  0.9766409E-01
          1   -1    0    0  501    0  0.00000000000E+00  0.00000000000E+00  0.19433667644E+04  0.19433667644E+04  0.50400000000E-02 0. -1.
         -1   -1    0    0    0  501 -0.00000000000E+00 -0.00000000000E+00 -0.43341556900E+03  0.43341556903E+03  0.50400000000E-02 0.  1.
    8880023    1    1    2    0    0  0.61131915824E+02  0.40487269692E+03  0.17237655910E+04  0.18901949717E+04  0.65864270000E+03 0. -1.
    8880022    1    1    2    0    0 -0.61131915824E+02 -0.40487269692E+03 -0.21381439563E+03  0.48658736177E+03  0.15294330000E+03 0.  0.
<mgrwt>
<rscale>  0 0.67196801E+03</rscale>
<asrwt>0</asrwt>
<pdfrwt beam="1">  1        1 0.29897950E+00 0.77554447E+03</pdfrwt>
<pdfrwt beam="2">  1       -1 0.66679318E-01 0.77554447E+03</pdfrwt>
<totfact> 0.77329019E+00</totfact>
</mgrwt>
</event>
<event>
 4    1  0.1823542E-007  0.1081471E+04  0.7818608E-02  0.9281972E-01
         -1   -1    0    0    0  501 -0.00000000000E+00  0.00000000000E+00  0.15542015931E+04  0.15542015931E+04  0.50400000000E-02 0.  1.
          1   -1    0    0  501    0  0.00000000000E+00 -0.00000000000E+00 -0.22404072010E+04  0.22404072010E+04  0.50400000000E-02 0. -1.
    8880023    1    1    2    0    0  0.17093130461E+03 -0.84056606595E+03  0.12610723049E+04  0.16612893747E+04  0.65864270000E+03 0.  0.
    8880022    1    1    2    0    0 -0.17093130461E+03  0.84056606595E+03 -0.19472779128E+04  0.21333194194E+04  0.15294330000E+03 0.  0.
<mgrwt>
<rscale>  0 0.10245963E+04</rscale>
<asrwt>0</asrwt>
<pdfrwt beam="1">  1        1 0.34467803E+00 0.10814708E+04</pdfrwt>
<pdfrwt beam="2">  1       -1 0.23910794E+00 0.10814708E+04</pdfrwt>
<totfact> 0.16864382E-01</totfact>
</mgrwt>
</event>
<event>
 4    1  0.1043382E-007  0.8256959E+03  0.7818608E-02  0.9657766E-01
          1   -1    0    0  501    0  0.00000000000E+00  0.00000000000E+00  0.85120633099E+03  0.85120633101E+03  0.50400000000E-02 0. -1.
         -1   -1    0    0    0  501 -0.00000000000E+00 -0.00000000000E+00 -0.76722690717E+03  0.76722690719E+03  0.50400000000E-02 0.  1.
    8880023    1    1    2    0    0  0.19143538215E+03  0.45969123758E+03 -0.39089513271E+03  0.91354953368E+03  0.65864270000E+03 0.  1.
    8880022    1    1    2    0    0 -0.19143538215E+03 -0.45969123758E+03  0.47487455653E+03  0.70488370452E+03  0.15294330000E+03 0.  0.
<mgrwt>
<rscale>  0 0.73588063E+03</rscale>
<asrwt>0</asrwt>
<pdfrwt beam="1">  1        1 0.13095482E+00 0.82569592E+03</pdfrwt>
<pdfrwt beam="2">  1       -1 0.11803491E+00 0.82569592E+03</pdfrwt>
<totfact> 0.13144110E+01</totfact>
</mgrwt>
</event>
<event>
 4    1  0.1043382E-007  0.7162635E+03  0.7818608E-02  0.9935438E-01
         -1   -1    0    0    0  501 -0.00000000000E+00  0.00000000000E+00  0.33323750047E+03  0.33323750051E+03  0.50400000000E-02 0.  1.
          1   -1    0    0  501    0  0.00000000000E+00 -0.00000000000E+00 -0.11601230859E+04  0.11601230859E+04  0.50400000000E-02 0. -1.
    8880023    1    1    2    0    0 -0.28076515574E+03  0.19853358114E+02 -0.13218122885E+03  0.72835795597E+03  0.65864270000E+03 0.  1.
    8880022    1    1    2    0    0  0.28076515574E+03 -0.19853358114E+02 -0.69470435655E+03  0.76500263041E+03  0.15294330000E+03 0.  0.
<mgrwt>
<rscale>  0 0.58574140E+03</rscale>
<asrwt>0</asrwt>
<pdfrwt beam="1">  1        1 0.17848047E+00 0.71626352E+03</pdfrwt>
<pdfrwt beam="2">  1       -1 0.51267308E-01 0.71626352E+03</pdfrwt>
<totfact> 0.45043598E+01</totfact>
</mgrwt>
</event>
<event>
 4    1  0.1043382E-007  0.1244861E+04  0.7818608E-02  0.9114701E-01
          1   -1    0    0  501    0  0.00000000000E+00  0.00000000000E+00  0.24023735222E+04  0.24023735222E+04  0.50400000000E-02 0. -1.
         -1   -1    0    0    0  501 -0.00000000000E+00 -0.00000000000E+00 -0.14887643671E+04  0.14887643671E+04  0.50400000000E-02 0.  1.
    8880023    1    1    2    0    0 -0.10164345362E+04 -0.28762815060E+03  0.20079088395E+04  0.23624938589E+04  0.65864270000E+03 0. -1.
    8880022    1    1    2    0    0  0.10164345362E+04  0.28762815060E+03 -0.10942996844E+04  0.15286440304E+04  0.15294330000E+03 0.  0.
<mgrwt>
<rscale>  0 0.11978945E+04</rscale>
<asrwt>0</asrwt>
<pdfrwt beam="1">  1        1 0.36959592E+00 0.12448612E+04</pdfrwt>
<pdfrwt beam="2">  1       -1 0.22904067E+00 0.12448612E+04</pdfrwt>
<totfact> 0.14828954E-01</totfact>
</mgrwt>
</event>
<event>
 4    1  0.1043382E-007  0.8341879E+03  0.7818608E-02  0.9641238E-01
          1   -1    0    0  501    0  0.00000000000E+00  0.00000000000E+00  0.12625969050E+04  0.12625969051E+04  0.50400000000E-02 0. -1.
         -1   -1    0    0    0  501 -0.00000000000E+00 -0.00000000000E+00 -0.50701930110E+03  0.50701930113E+03  0.50400000000E-02 0.  1.
    8880023    1    1    2    0    0 -0.12381876520E+02 -0.51176751534E+03  0.88883364859E+03  0.12189728306E+04  0.65864270000E+03 0.  0.
    8880022    1    1    2    0    0  0.12381876520E+02  0.51176751534E+03 -0.13325604465E+03  0.55064337558E+03  0.15294330000E+03 0.  0.
<mgrwt>
<rscale>  0 0.74625863E+03</rscale>
<asrwt>0</asrwt>
<pdfrwt beam="1">  1        1 0.19424567E+00 0.83418793E+03</pdfrwt>
<pdfrwt beam="2">  1       -1 0.78002971E-01 0.83418793E+03</pdfrwt>
<totfact> 0.16189536E+01</totfact>
</mgrwt>
</event>
<event>
 4    1  0.1043382E-007  0.6612288E+03  0.7818608E-02  0.1022931E+00
          1   -1    0    0  501    0  0.00000000000E+00  0.00000000000E+00  0.29588070465E+04  0.29588070465E+04  0.50400000000E-02 0. -1.
         -1   -1    0    0    0  501 -0.00000000000E+00 -0.00000000000E+00 -0.72946863487E+02  0.72946863661E+02  0.50400000000E-02 0.  1.
    8880023    1    1    2    0    0 -0.26352947340E+02  0.52142583918E+02  0.15397632314E+04  0.16757369549E+04  0.65864270000E+03 0.  1.
    8880022    1    1    2    0    0  0.26352947340E+02 -0.52142583918E+02  0.13460969516E+04  0.13560169552E+04  0.15294330000E+03 0.  0.
<mgrwt>
<rscale>  0 0.46643460E+03</rscale>
<asrwt>0</asrwt>
<pdfrwt beam="1">  1        1 0.45520124E+00 0.66122881E+03</pdfrwt>
<pdfrwt beam="2">  1       -1 0.11222591E-01 0.66122881E+03</pdfrwt>
<totfact> 0.35993569E+01</totfact>
</mgrwt>
</event>
<event>
 4    1  0.1043382E-007  0.7233096E+03  0.7818608E-02  0.9911543E-01
          1   -1    0    0  501    0  0.00000000000E+00  0.00000000000E+00  0.13750819827E+04  0.13750819827E+04  0.50400000000E-02 0. -1.
         -1   -1    0    0    0  501 -0.00000000000E+00 -0.00000000000E+00 -0.26769840944E+03  0.26769840949E+03  0.50400000000E-02 0.  1.
    8880023    1    1    2    0    0 -0.17526082242E+03  0.24217799133E+03  0.32813508047E+03  0.79426026758E+03  0.65864270000E+03 0.  0.
    8880022    1    1    2    0    0  0.17526082242E+03 -0.24217799133E+03  0.77924849278E+03  0.84852012461E+03  0.15294330000E+03 0.  0.
<mgrwt>
<rscale>  0 0.59705133E+03</rscale>
<asrwt>0</asrwt>
<pdfrwt beam="1">  1        1 0.21155108E+00 0.72330958E+03</pdfrwt>
<pdfrwt beam="2">  1       -1 0.41184370E-01 0.72330958E+03</pdfrwt>
<totfact> 0.47580839E+01</totfact>
</mgrwt>
</event>
<event>
 4    1  0.1043382E-007  0.1030964E+04  0.7818608E-02  0.9342123E-01
          1   -1    0    0  501    0  0.00000000000E+00  0.00000000000E+00  0.63835615159E+03  0.63835615161E+03  0.50400000000E-02 0. -1.
         -1   -1    0    0    0  501 -0.00000000000E+00 -0.00000000000E+00 -0.17828452148E+04  0.17828452148E+04  0.50400000000E-02 0.  1.
    8880023    1    1    2    0    0 -0.53485887096E+03 -0.58566483414E+03 -0.12345783825E+04  0.16084375334E+04  0.65864270000E+03 0.  1.
    8880022    1    1    2    0    0  0.53485887096E+03  0.58566483414E+03  0.90089319362E+02  0.81276383303E+03  0.15294330000E+03 0.  0.
<mgrwt>
<rscale>  0 0.96995754E+03</rscale>
<asrwt>0</asrwt>
<pdfrwt beam="1">  1        1 0.98208640E-01 0.10309644E+04</pdfrwt>
<pdfrwt beam="2">  1       -1 0.27428388E+00 0.10309644E+04</pdfrwt>
<totfact> 0.15264450E+00</totfact>
</mgrwt>
</event>
<event>
 4    1  0.1043382E-007  0.9126831E+03  0.7818608E-02  0.9505970E-01
         -1   -1    0    0    0  501 -0.00000000000E+00  0.00000000000E+00  0.52755344561E+03  0.52755344564E+03  0.50400000000E-02 0.  1.
          1   -1    0    0  501    0  0.00000000000E+00 -0.00000000000E+00 -0.30225057686E+04  0.30225057686E+04  0.50400000000E-02 0. -1.
    8880023    1    1    2    0    0 -0.11680326968E+03 -0.62091647365E+03 -0.27145819477E+04  0.28639039139E+04  0.65864270000E+03 0.  0.
    8880022    1    1    2    0    0  0.11680326968E+03  0.62091647365E+03  0.21962962474E+03  0.68615530031E+03  0.15294330000E+03 0.  0.
<mgrwt>
<rscale>  0 0.83845082E+03</rscale>
<asrwt>0</asrwt>
<pdfrwt beam="1">  1        1 0.46500088E+00 0.91268312E+03</pdfrwt>
<pdfrwt beam="2">  1       -1 0.81162070E-01 0.91268312E+03</pdfrwt>
<totfact> 0.90920143E-01</totfact>
</mgrwt>
</event>
<event>
 4    1  0.1043382E-007  0.1055753E+04  0.7818608E-02  0.9311998E-01
          1   -1    0    0  501    0  0.00000000000E+00  0.00000000000E+00  0.85061965393E+03  0.85061965394E+03  0.50400000000E-02 0. -1.
         -1   -1    0    0    0  501 -0.00000000000E+00 -0.00000000000E+00 -0.13956445560E+04  0.13956445560E+04  0.50400000000E-02 0.  1.
    8880023    1    1    2    0    0 -0.30231269707E+03  0.76773089875E+03 -0.84793114283E+03  0.13541052872E+04  0.65864270000E+03 0.  1.
    8880022    1    1    2    0    0  0.30231269707E+03 -0.76773089875E+03  0.30290624073E+03  0.89215892273E+03  0.15294330000E+03 0.  0.
<mgrwt>
<rscale>  0 0.99685804E+03</rscale>
<asrwt>0</asrwt>
<pdfrwt beam="1">  1        1 0.13086456E+00 0.10557528E+04</pdfrwt>
<pdfrwt beam="2">  1       -1 0.21471455E+00 0.10557528E+04</pdfrwt>
<totfact> 0.23847682E+00</totfact>
</mgrwt>
</event>
<event>
 4    1  0.1043382E-007  0.1367596E+04  0.7818608E-02  0.9009279E-01
          1   -1    0    0  501    0  0.00000000000E+00  0.00000000000E+00  0.82932413440E+03  0.82932413441E+03  0.50400000000E-02 0. -1.
         -1   -1    0    0    0  501 -0.00000000000E+00 -0.00000000000E+00 -0.26266187193E+04  0.26266187193E+04  0.50400000000E-02 0.  1.
    8880023    1    1    2    0    0 -0.79360212566E+03  0.89816763802E+03 -0.98305272482E+02  0.13711249296E+04  0.65864270000E+03 0.  0.
    8880022    1    1    2    0    0  0.79360212566E+03 -0.89816763802E+03 -0.16989893124E+04  0.20848179241E+04  0.15294330000E+03 0.  0.
<mgrwt>
<rscale>  0 0.13258942E+04</rscale>
<asrwt>0</asrwt>
<pdfrwt beam="1">  1        1 0.12758833E+00 0.13675963E+04</pdfrwt>
<pdfrwt beam="2">  1       -1 0.40409518E+00 0.13675963E+04</pdfrwt>
<totfact> 0.13584834E-01</totfact>
</mgrwt>
</event>
<event>
 4    1  0.1043382E-007  0.8272763E+03  0.7818608E-02  0.9654655E-01
          1   -1    0    0  501    0  0.00000000000E+00  0.00000000000E+00  0.22548079829E+04  0.22548079829E+04  0.50400000000E-02 0. -1.
         -1   -1    0    0    0  501 -0.00000000000E+00 -0.00000000000E+00 -0.60761705954E+03  0.60761705956E+03  0.50400000000E-02 0.  1.
    8880023    1    1    2    0    0  0.49834991531E+03  0.47151055478E+02 -0.27379486422E+03  0.87140673285E+03  0.65864270000E+03 0.  0.
    8880022    1    1    2    0    0 -0.49834991531E+03 -0.47151055478E+02  0.19209857876E+04  0.19910183096E+04  0.15294330000E+03 0.  0.
<mgrwt>
<rscale>  0 0.73781982E+03</rscale>
<asrwt>0</asrwt>
<pdfrwt beam="1">  1        1 0.34689353E+00 0.82727629E+03</pdfrwt>
<pdfrwt beam="2">  1       -1 0.93479549E-01 0.82727629E+03</pdfrwt>
<totfact> 0.23148295E+00</totfact>
</mgrwt>
</event>
<event>
 4    1  0.1043382E-007  0.7675225E+03  0.7818608E-02  0.9786008E-01
         -1   -1    0    0    0  501 -0.00000000000E+00  0.00000000000E+00  0.37718642613E+03  0.37718642617E+03  0.50400000000E-02 0.  1.
          1   -1    0    0  501    0  0.00000000000E+00 -0.00000000000E+00 -0.14194730670E+04  0.14194730670E+04  0.50400000000E-02 0. -1.
    8880023    1    1    2    0    0 -0.23709684546E+03  0.31474710552E+03 -0.11305397547E+03  0.77580413907E+03  0.65864270000E+03 0.  1.
    8880022    1    1    2    0    0  0.23709684546E+03 -0.31474710552E+03 -0.92923266544E+03  0.10208553541E+04  0.15294330000E+03 0.  0.
<mgrwt>
<rscale>  0 0.66118884E+03</rscale>
<asrwt>0</asrwt>
<pdfrwt beam="1">  1        1 0.21838047E+00 0.76752255E+03</pdfrwt>
<pdfrwt beam="2">  1       -1 0.58028682E-01 0.76752255E+03</pdfrwt>
<totfact> 0.23081381E+01</totfact>
</mgrwt>
</event>
<event>
 4    1  0.1043382E-007  0.1033225E+04  0.7818608E-02  0.9339324E-01
         -1   -1    0    0    0  501 -0.00000000000E+00  0.00000000000E+00  0.64997921295E+03  0.64997921297E+03  0.50400000000E-02 0.  1.
          1   -1    0    0  501    0  0.00000000000E+00 -0.00000000000E+00 -0.27810343914E+04  0.27810343914E+04  0.50400000000E-02 0. -1.
    8880023    1    1    2    0    0 -0.11527531785E+03 -0.78768998652E+03  0.11836524052E+03  0.10399829086E+04  0.65864270000E+03 0.  1.
    8880022    1    1    2    0    0  0.11527531785E+03  0.78768998652E+03 -0.22494204190E+04  0.23910306958E+04  0.15294330000E+03 0.  0.
<mgrwt>
<rscale>  0 0.97241821E+03</rscale>
<asrwt>0</asrwt>
<pdfrwt beam="1">  1        1 0.42785144E+00 0.10332251E+04</pdfrwt>
<pdfrwt beam="2">  1       -1 0.99996803E-01 0.10332251E+04</pdfrwt>
<totfact> 0.83428324E-01</totfact>
</mgrwt>
</event>
<event>
 4    1  0.1043382E-007  0.6750766E+03  0.7818608E-02  0.1012258E+00
          1   -1    0    0  501    0  0.00000000000E+00  0.00000000000E+00  0.12023616261E+04  0.12023616261E+04  0.50400000000E-02 0. -1.
         -1   -1    0    0    0  501 -0.00000000000E+00 -0.00000000000E+00 -0.37114329248E+03  0.37114329252E+03  0.50400000000E-02 0.  1.
    8880023    1    1    2    0    0 -0.93316646370E+02 -0.11493556925E+03 -0.40387224672E+02  0.67628360600E+03  0.65864270000E+03 0.  1.
    8880022    1    1    2    0    0  0.93316646370E+02  0.11493556925E+03  0.87160555827E+03  0.89722131260E+03  0.15294330000E+03 0.  0.
<mgrwt>
<rscale>  0 0.50586990E+03</rscale>
<asrwt>0</asrwt>
<pdfrwt beam="1">  1        1 0.18497871E+00 0.67507658E+03</pdfrwt>
<pdfrwt beam="2">  1       -1 0.57098968E-01 0.67507658E+03</pdfrwt>
<totfact> 0.34286591E+01</totfact>
</mgrwt>
</event>
<event>
 4    1  0.1043382E-007  0.8001287E+03  0.7818608E-02  0.9710518E-01
          1   -1    0    0  501    0  0.00000000000E+00  0.00000000000E+00  0.75295519828E+03  0.75295519829E+03  0.50400000000E-02 0. -1.
         -1   -1    0    0    0  501 -0.00000000000E+00 -0.00000000000E+00 -0.62777486812E+03  0.62777486814E+03  0.50400000000E-02 0.  1.
    8880023    1    1    2    0    0  0.95711055002E+02  0.44411161110E+03 -0.16970714198E+03  0.81792814444E+03  0.65864270000E+03 0.  1.
    8880022    1    1    2    0    0 -0.95711055002E+02 -0.44411161110E+03  0.29488747213E+03  0.56280192200E+03  0.15294330000E+03 0.  0.
<mgrwt>
<rscale>  0 0.70394002E+03</rscale>
<asrwt>0</asrwt>
<pdfrwt beam="1">  1        1 0.11583926E+00 0.80012870E+03</pdfrwt>
<pdfrwt beam="2">  1       -1 0.96580749E-01 0.80012870E+03</pdfrwt>
<totfact> 0.25630484E+01</totfact>
</mgrwt>
</event>
<event>
 4    1  0.1043382E-007  0.6652974E+03  0.7818608E-02  0.1019285E+00
         -1   -1    0    0    0  501 -0.00000000000E+00  0.00000000000E+00  0.14818007815E+03  0.14818007824E+03  0.50400000000E-02 0.  1.
          1   -1    0    0  501    0  0.00000000000E+00 -0.00000000000E+00 -0.12043348617E+04  0.12043348617E+04  0.50400000000E-02 0. -1.
    8880023    1    1    2    0    0  0.93701071090E+02  0.55212552419E+01 -0.84177473738E+03  0.10729423515E+04  0.65864270000E+03 0.  0.
    8880022    1    1    2    0    0 -0.93701071090E+02 -0.55212552419E+01 -0.21438004620E+03  0.27957258844E+03  0.15294330000E+03 0. -1.
<mgrwt>
<rscale>  0 0.47945434E+03</rscale>
<asrwt>0</asrwt>
<pdfrwt beam="1">  1        1 0.18528228E+00 0.66529736E+03</pdfrwt>
<pdfrwt beam="2">  1       -1 0.22796936E-01 0.66529736E+03</pdfrwt>
<totfact> 0.17780398E+02</totfact>
</mgrwt>
</event>
<event>
 4    1  0.1043382E-007  0.1004829E+04  0.7818608E-02  0.9375267E-01
          1   -1    0    0  501    0  0.00000000000E+00  0.00000000000E+00  0.99448492192E+03  0.99448492193E+03  0.50400000000E-02 0. -1.
         -1   -1    0    0    0  501 -0.00000000000E+00 -0.00000000000E+00 -0.12019005674E+04  0.12019005674E+04  0.50400000000E-02 0.  1.
    8880023    1    1    2    0    0  0.46801489190E+03 -0.59735506689E+03 -0.74759346771E+03  0.12524285266E+04  0.65864270000E+03 0.  1.
    8880022    1    1    2    0    0 -0.46801489190E+03  0.59735506689E+03  0.54017782220E+03  0.94395696278E+03  0.15294330000E+03 0.  0.
<mgrwt>
<rscale>  0 0.94139363E+03</rscale>
<asrwt>0</asrwt>
<pdfrwt beam="1">  1        1 0.15299768E+00 0.10048290E+04</pdfrwt>
<pdfrwt beam="2">  1       -1 0.18490778E+00 0.10048290E+04</pdfrwt>
<totfact> 0.29422363E+00</totfact>
</mgrwt>
</event>
<event>
 4    1  0.1043382E-007  0.7016024E+03  0.7818608E-02  0.9990618E-01
         -1   -1    0    0    0  501 -0.00000000000E+00  0.00000000000E+00  0.12841060843E+03  0.12841060852E+03  0.50400000000E-02 0.  1.
          1   -1    0    0  501    0  0.00000000000E+00 -0.00000000000E+00 -0.26617016050E+04  0.26617016050E+04  0.50400000000E-02 0. -1.
    8880023    1    1    2    0    0 -0.11999611732E+03 -0.20984917125E+03 -0.94892027464E+03  0.11801252632E+04  0.65864270000E+03 0.  1.
    8880022    1    1    2    0    0  0.11999611732E+03  0.20984917125E+03 -0.15843707219E+04  0.16099869504E+04  0.15294330000E+03 0.  0.
<mgrwt>
<rscale>  0 0.56063557E+03</rscale>
<asrwt>0</asrwt>
<pdfrwt beam="1">  1        1 0.40949252E+00 0.70160242E+03</pdfrwt>
<pdfrwt beam="2">  1       -1 0.19755480E-01 0.70160242E+03</pdfrwt>
<totfact> 0.23052650E+01</totfact>
</mgrwt>
</event>
<event>
 4    1  0.1043382E-007  0.1014319E+04  0.7818608E-02  0.9363059E-01
          1   -1    0    0  501    0  0.00000000000E+00  0.00000000000E+00  0.27039799753E+04  0.27039799753E+04  0.50400000000E-02 0. -1.
         -1   -1    0    0    0  501 -0.00000000000E+00 -0.00000000000E+00 -0.74377677507E+03  0.74377677508E+03  0.50400000000E-02 0.  1.
    8880023    1    1    2    0    0 -0.82034916837E+02 -0.76700958065E+03  0.23576811136E+04  0.25666133063E+04  0.65864270000E+03 0. -1.
    8880022    1    1    2    0    0  0.82034916837E+02  0.76700958065E+03 -0.39747791338E+03  0.88114344407E+03  0.15294330000E+03 0.  0.
<mgrwt>
<rscale>  0 0.95179167E+03</rscale>
<asrwt>0</asrwt>
<pdfrwt beam="1">  1        1 0.41599693E+00 0.10143193E+04</pdfrwt>
<pdfrwt beam="2">  1       -1 0.11442719E+00 0.10143193E+04</pdfrwt>
<totfact> 0.69061115E-01</totfact>
</mgrwt>
</event>
<event>
 4    1  0.1043382E-007  0.7670704E+03  0.7818608E-02  0.9787135E-01
          1   -1    0    0  501    0  0.00000000000E+00  0.00000000000E+00  0.48319944289E+04  0.48319944289E+04  0.50400000000E-02 0. -1.
         -1   -1    0    0    0  501 -0.00000000000E+00 -0.00000000000E+00 -0.12575297106E+03  0.12575297116E+03  0.50400000000E-02 0.  1.
    8880023    1    1    2    0    0  0.39279903584E+03  0.17194652095E+02  0.11868190290E+04  0.14131299843E+04  0.65864270000E+03 0.  1.
    8880022    1    1    2    0    0 -0.39279903584E+03 -0.17194652095E+02  0.35194224288E+04  0.35446174157E+04  0.15294330000E+03 0.  0.
<mgrwt>
<rscale>  0 0.66057527E+03</rscale>
<asrwt>0</asrwt>
<pdfrwt beam="1">  1        1 0.74338377E+00 0.76707037E+03</pdfrwt>
<pdfrwt beam="2">  1       -1 0.19346611E-01 0.76707037E+03</pdfrwt>
<totfact> 0.34359517E-01</totfact>
</mgrwt>
</event>
<event>
 4    1  0.1043382E-007  0.8209149E+03  0.7818608E-02  0.9667275E-01
         -1   -1    0    0    0  501 -0.00000000000E+00  0.00000000000E+00  0.13078948921E+04  0.13078948921E+04  0.50400000000E-02 0.  1.
          1   -1    0    0  501    0  0.00000000000E+00 -0.00000000000E+00 -0.53741737474E+03  0.53741737476E+03  0.50400000000E-02 0. -1.
    8880023    1    1    2    0    0  0.42996568244E+02 -0.48810070955E+03  0.99082136800E+03  0.12867121656E+04  0.65864270000E+03 0.  0.
    8880022    1    1    2    0    0 -0.42996568244E+02  0.48810070955E+03 -0.22034385068E+03  0.55860010123E+03  0.15294330000E+03 0.  0.
<mgrwt>
<rscale>  0 0.72999115E+03</rscale>
<asrwt>0</asrwt>
<pdfrwt beam="1">  1        1 0.82679597E-01 0.82091486E+03</pdfrwt>
<pdfrwt beam="2">  1       -1 0.20121460E+00 0.82091486E+03</pdfrwt>
<totfact> 0.60656209E+00</totfact>
</mgrwt>
</event>
<event>
 4    1  0.1043382E-007  0.6605216E+03  0.7818608E-02  0.1023628E+00
         -1   -1    0    0    0  501 -0.00000000000E+00  0.00000000000E+00  0.52308317476E+03  0.52308317479E+03  0.50400000000E-02 0.  1.
          1   -1    0    0  501    0  0.00000000000E+00 -0.00000000000E+00 -0.15215519169E+04  0.15215519169E+04  0.50400000000E-02 0. -1.
    8880023    1    1    2    0    0  0.45092864318E+02  0.21098842055E+02  0.30764699009E+03  0.72865314404E+03  0.65864270000E+03 0.  1.
    8880022    1    1    2    0    0 -0.45092864318E+02 -0.21098842055E+02 -0.13061157323E+04  0.13159819477E+04  0.15294330000E+03 0.  0.
<mgrwt>
<rscale>  0 0.46399701E+03</rscale>
<asrwt>0</asrwt>
<pdfrwt beam="1">  1        1 0.23408491E+00 0.66052156E+03</pdfrwt>
<pdfrwt beam="2">  1       -1 0.80474335E-01 0.66052156E+03</pdfrwt>
<totfact> 0.10257978E+01</totfact>
</mgrwt>
</event>
<event>
 4    1  0.1043382E-007  0.7190472E+03  0.7818608E-02  0.9925823E-01
          1   -1    0    0  501    0  0.00000000000E+00  0.00000000000E+00  0.13070541341E+04  0.13070541342E+04  0.50400000000E-02 0. -1.
         -1   -1    0    0    0  501 -0.00000000000E+00 -0.00000000000E+00 -0.26524460583E+03  0.26524460588E+03  0.50400000000E-02 0.  1.
    8880023    1    1    2    0    0  0.28074046930E+03 -0.66358852864E+02  0.33405085160E+03  0.79285489604E+03  0.65864270000E+03 0.  1.
    8880022    1    1    2    0    0 -0.28074046930E+03  0.66358852864E+02  0.70775867672E+03  0.77944384400E+03  0.15294330000E+03 0.  0.
<mgrwt>
<rscale>  0 0.59025950E+03</rscale>
<asrwt>0</asrwt>
<pdfrwt beam="1">  1        1 0.20108525E+00 0.71904723E+03</pdfrwt>
<pdfrwt beam="2">  1       -1 0.40806863E-01 0.71904723E+03</pdfrwt>
<totfact> 0.54026459E+01</totfact>
</mgrwt>
</event>
<event>
 4    1  0.1043382E-007  0.6776687E+03  0.7818608E-02  0.1010674E+00
          1   -1    0    0  501    0  0.00000000000E+00  0.00000000000E+00  0.78225772571E+03  0.78225772573E+03  0.50400000000E-02 0. -1.
         -1   -1    0    0    0  501 -0.00000000000E+00 -0.00000000000E+00 -0.44636054012E+03  0.44636054015E+03  0.50400000000E-02 0.  1.
    8880023    1    1    2    0    0  0.72716881598E+01 -0.15928538868E+03 -0.15068775344E+03  0.69422022284E+03  0.65864270000E+03 0.  1.
    8880022    1    1    2    0    0 -0.72716881598E+01  0.15928538868E+03  0.48658493903E+03  0.53439804304E+03  0.15294330000E+03 0.  0.
<mgrwt>
<rscale>  0 0.51207523E+03</rscale>
<asrwt>0</asrwt>
<pdfrwt beam="1">  1        1 0.12034734E+00 0.67766874E+03</pdfrwt>
<pdfrwt beam="2">  1       -1 0.68670852E-01 0.67766874E+03</pdfrwt>
<totfact> 0.50653574E+01</totfact>
</mgrwt>
</event>
<event>
 4    1  0.1043382E-007  0.7032185E+03  0.7818608E-02  0.9984103E-01
         -1   -1    0    0    0  501 -0.00000000000E+00  0.00000000000E+00  0.46706485000E+03  0.46706485002E+03  0.50400000000E-02 0.  1.
          1   -1    0    0  501    0  0.00000000000E+00 -0.00000000000E+00 -0.13617915811E+04  0.13617915811E+04  0.50400000000E-02 0. -1.
    8880023    1    1    2    0    0  0.23865134099E+03 -0.61249657464E+02  0.17155591306E+03  0.72384226228E+03  0.65864270000E+03 0.  1.
    8880022    1    1    2    0    0 -0.23865134099E+03  0.61249657464E+02 -0.10662826441E+04  0.11050141688E+04  0.15294330000E+03 0.  0.
<mgrwt>
<rscale>  0 0.56352822E+03</rscale>
<asrwt>0</asrwt>
<pdfrwt beam="1">  1        1 0.20950639E+00 0.70321845E+03</pdfrwt>
<pdfrwt beam="2">  1       -1 0.71856132E-01 0.70321845E+03</pdfrwt>
<totfact> 0.16629843E+01</totfact>
</mgrwt>
</event>
<event>
 4    1  0.1043382E-007  0.8916763E+03  0.7818608E-02  0.9539528E-01
         -1   -1    0    0    0  501 -0.00000000000E+00  0.00000000000E+00  0.45138373507E+03  0.45138373510E+03  0.50400000000E-02 0.  1.
          1   -1    0    0  501    0  0.00000000000E+00 -0.00000000000E+00 -0.15023131444E+04  0.15023131444E+04  0.50400000000E-02 0. -1.
    8880023    1    1    2    0    0 -0.51532151393E+03  0.30938686354E+03 -0.98709516364E+03  0.13302043311E+04  0.65864270000E+03 0.  0.
    8880022    1    1    2    0    0  0.51532151393E+03 -0.30938686354E+03 -0.63834245712E+02  0.62349254847E+03  0.15294330000E+03 0.  0.
<mgrwt>
<rscale>  0 0.81431271E+03</rscale>
<asrwt>0</asrwt>
<pdfrwt beam="1">  1        1 0.23112510E+00 0.89167634E+03</pdfrwt>
<pdfrwt beam="2">  1       -1 0.69443652E-01 0.89167634E+03</pdfrwt>
<totfact> 0.13915137E+01</totfact>
</mgrwt>
</event>
<event>
 4    1  0.1043382E-007  0.7309320E+03  0.7818608E-02  0.9887195E-01
         -1   -1    0    0    0  501 -0.00000000000E+00  0.00000000000E+00  0.52708746662E+03  0.52708746664E+03  0.50400000000E-02 0.  1.
          1   -1    0    0  501    0  0.00000000000E+00 -0.00000000000E+00 -0.17402058081E+04  0.17402058081E+04  0.50400000000E-02 0. -1.
    8880023    1    1    2    0    0 -0.31657488791E+03 -0.15223401418E+02  0.24221270355E+03  0.77001857875E+03  0.65864270000E+03 0.  1.
    8880022    1    1    2    0    0  0.31657488791E+03  0.15223401418E+02 -0.14553310450E+04  0.14972746959E+04  0.15294330000E+03 0.  0.
<mgrwt>
<rscale>  0 0.60885896E+03</rscale>
<asrwt>0</asrwt>
<pdfrwt beam="1">  1        1 0.26772397E+00 0.73093202E+03</pdfrwt>
<pdfrwt beam="2">  1       -1 0.81090381E-01 0.73093202E+03</pdfrwt>
<totfact> 0.70993332E+00</totfact>
</mgrwt>
</event>
<event>
 4    1  0.1043382E-007  0.1141412E+04  0.7818608E-02  0.9216292E-01
         -1   -1    0    0    0  501 -0.00000000000E+00  0.00000000000E+00  0.23404757977E+04  0.23404757977E+04  0.50400000000E-02 0.  1.
          1   -1    0    0  501    0  0.00000000000E+00 -0.00000000000E+00 -0.89360133949E+03  0.89360133951E+03  0.50400000000E-02 0. -1.
    8880023    1    1    2    0    0 -0.61519665130E+03 -0.70038826221E+03  0.18764394562E+04  0.21963255398E+04  0.65864270000E+03 0.  0.
    8880022    1    1    2    0    0  0.61519665130E+03  0.70038826221E+03 -0.42956499794E+03  0.10377515975E+04  0.15294330000E+03 0.  0.
<mgrwt>
<rscale>  0 0.10886840E+04</rscale>
<asrwt>0</asrwt>
<pdfrwt beam="1">  1        1 0.13747713E+00 0.11414118E+04</pdfrwt>
<pdfrwt beam="2">  1       -1 0.36007320E+00 0.11414118E+04</pdfrwt>
<totfact> 0.24502521E-01</totfact>
</mgrwt>
</event>
<event>
 4    1  0.1043382E-007  0.6886275E+03  0.7818608E-02  0.1004812E+00
         -1   -1    0    0    0  501 -0.00000000000E+00  0.00000000000E+00  0.24065835849E+03  0.24065835854E+03  0.50400000000E-02 0.  1.
          1   -1    0    0  501    0  0.00000000000E+00 -0.00000000000E+00 -0.13194704147E+04  0.13194704147E+04  0.50400000000E-02 0. -1.
    8880023    1    1    2    0    0 -0.17641376440E+03 -0.96311295284E+02 -0.31803039217E+03  0.75851909566E+03  0.65864270000E+03 0.  1.
    8880022    1    1    2    0    0  0.17641376440E+03  0.96311295284E+02 -0.76078166407E+03  0.80160967762E+03  0.15294330000E+03 0.  0.
<mgrwt>
<rscale>  0 0.53589758E+03</rscale>
<asrwt>0</asrwt>
<pdfrwt beam="1">  1        1 0.20299544E+00 0.68862754E+03</pdfrwt>
<pdfrwt beam="2">  1       -1 0.37024364E-01 0.68862754E+03</pdfrwt>
<totfact> 0.63342907E+01</totfact>
</mgrwt>
</event>
<event>
 4    1  0.1043382E-007  0.8007921E+03  0.7818608E-02  0.9709086E-01
          1   -1    0    0  501    0  0.00000000000E+00  0.00000000000E+00  0.25729999734E+04  0.25729999734E+04  0.50400000000E-02 0. -1.
         -1   -1    0    0    0  501 -0.00000000000E+00 -0.00000000000E+00 -0.33757595636E+03  0.33757595640E+03  0.50400000000E-02 0.  1.
    8880023    1    1    2    0    0 -0.44009318592E+03  0.11737017005E+03  0.20850823024E+03  0.82749239117E+03  0.65864270000E+03 0.  1.
    8880022    1    1    2    0    0  0.44009318592E+03 -0.11737017005E+03  0.20269157868E+04  0.20830835386E+04  0.15294330000E+03 0.  0.
<mgrwt>
<rscale>  0 0.70478383E+03</rscale>
<asrwt>0</asrwt>
<pdfrwt beam="1">  1        1 0.39584613E+00 0.80079209E+03</pdfrwt>
<pdfrwt beam="2">  1       -1 0.51934765E-01 0.80079209E+03</pdfrwt>
<totfact> 0.47272378E+00</totfact>
</mgrwt>
</event>
<event>
 4    1  0.1043382E-007  0.7194486E+03  0.7818608E-02  0.9924456E-01
         -1   -1    0    0    0  501 -0.00000000000E+00  0.00000000000E+00  0.66612340663E+03  0.66612340665E+03  0.50400000000E-02 0.  1.
          1   -1    0    0  501    0  0.00000000000E+00 -0.00000000000E+00 -0.46484489466E+03  0.46484489469E+03  0.50400000000E-02 0. -1.
    8880023    1    1    2    0    0 -0.28923254059E+03  0.11860842752E+02 -0.45646786768E+02  0.72089526114E+03  0.65864270000E+03 0.  0.
    8880022    1    1    2    0    0  0.28923254059E+03 -0.11860842752E+02  0.24692529874E+03  0.41007304020E+03  0.15294330000E+03 0. -1.
<mgrwt>
<rscale>  0 0.59090548E+03</rscale>
<asrwt>0</asrwt>
<pdfrwt beam="1">  1        1 0.71514600E-01 0.71944864E+03</pdfrwt>
<pdfrwt beam="2">  1       -1 0.10248052E+00 0.71944864E+03</pdfrwt>
<totfact> 0.45207714E+01</totfact>
</mgrwt>
</event>
<event>
 4    1  0.1043382E-007  0.6917922E+03  0.7818608E-02  0.1003312E+00
          1   -1    0    0  501    0  0.00000000000E+00  0.00000000000E+00  0.49213080565E+03  0.49213080568E+03  0.50400000000E-02 0. -1.
         -1   -1    0    0    0  501 -0.00000000000E+00 -0.00000000000E+00 -0.50944167105E+03  0.50944167108E+03  0.50400000000E-02 0.  1.
    8880023    1    1    2    0    0 -0.65133175347E+02  0.20130557219E+03  0.12687707058E+03  0.70333083341E+03  0.65864270000E+03 0. -1.
    8880022    1    1    2    0    0  0.65133175347E+02 -0.20130557219E+03 -0.14418793599E+03  0.29824164334E+03  0.15294330000E+03 0. -1.
<mgrwt>
<rscale>  0 0.54221471E+03</rscale>
<asrwt>0</asrwt>
<pdfrwt beam="1">  1        1 0.75712432E-01 0.69179222E+03</pdfrwt>
<pdfrwt beam="2">  1       -1 0.78375642E-01 0.69179222E+03</pdfrwt>
<totfact> 0.75579770E+01</totfact>
</mgrwt>
</event>
<event>
 4    1  0.2390729E-007  0.1157245E+04  0.7818608E-02  0.9199846E-01
         -1   -1    0    0    0  501 -0.00000000000E+00  0.00000000000E+00  0.18079421643E+04  0.18079421643E+04  0.50400000000E-02 0.  1.
          1   -1    0    0  501    0  0.00000000000E+00 -0.00000000000E+00 -0.20305023138E+04  0.20305023138E+04  0.50400000000E-02 0. -1.
    8880023    1    1    2    0    0 -0.94991394752E+03 -0.55408652557E+02  0.14819989138E+04  0.18803025324E+04  0.65864270000E+03 0.  1.
    8880022    1    1    2    0    0  0.94991394752E+03  0.55408652557E+02 -0.17045590632E+04  0.19581419457E+04  0.15294330000E+03 0.  0.
<mgrwt>
<rscale>  0 0.11055013E+04</rscale>
<asrwt>0</asrwt>
<pdfrwt beam="1">  1        1 0.31238497E+00 0.11572454E+04</pdfrwt>
<pdfrwt beam="2">  1       -1 0.27814495E+00 0.11572454E+04</pdfrwt>
<totfact> 0.12890623E-01</totfact>
</mgrwt>
</event>
<event>
 4    1  0.1611026E-007  0.7935788E+03  0.7818608E-02  0.9724856E-01
         -1   -1    0    0    0  501 -0.00000000000E+00  0.00000000000E+00  0.11261799316E+04  0.11261799316E+04  0.50400000000E-02 0.  1.
          1   -1    0    0  501    0  0.00000000000E+00 -0.00000000000E+00 -0.24896960326E+04  0.24896960326E+04  0.50400000000E-02 0. -1.
    8880023    1    1    2    0    0  0.18598963374E+03  0.40170251225E+03  0.96005081541E+03  0.12455781094E+04  0.65864270000E+03 0.  1.
    8880022    1    1    2    0    0 -0.18598963374E+03 -0.40170251225E+03 -0.23235669164E+04  0.23702978548E+04  0.15294330000E+03 0.  0.
<mgrwt>
<rscale>  0 0.69555970E+03</rscale>
<asrwt>0</asrwt>
<pdfrwt beam="1">  1        1 0.38303016E+00 0.79357877E+03</pdfrwt>
<pdfrwt beam="2">  1       -1 0.17325845E+00 0.79357877E+03</pdfrwt>
<totfact> 0.34098304E-01</totfact>
</mgrwt>
</event>
<event>
 4    1  0.1043382E-007  0.6635682E+03  0.7818608E-02  0.1020766E+00
         -1   -1    0    0    0  501 -0.00000000000E+00  0.00000000000E+00  0.33148520916E+03  0.33148520920E+03  0.50400000000E-02 0.  1.
          1   -1    0    0  501    0  0.00000000000E+00 -0.00000000000E+00 -0.80124735090E+03  0.80124735091E+03  0.50400000000E-02 0. -1.
    8880023    1    1    2    0    0 -0.12258117240E+02 -0.79764331895E+02 -0.34600295047E+02  0.66446971094E+03  0.65864270000E+03 0.  1.
    8880022    1    1    2    0    0  0.12258117240E+02  0.79764331895E+02 -0.43516184669E+03  0.46826284917E+03  0.15294330000E+03 0.  0.
<mgrwt>
<rscale>  0 0.47411188E+03</rscale>
<asrwt>0</asrwt>
<pdfrwt beam="1">  1        1 0.12326882E+00 0.66356825E+03</pdfrwt>
<pdfrwt beam="2">  1       -1 0.50997725E-01 0.66356825E+03</pdfrwt>
<totfact> 0.87536699E+01</totfact>
</mgrwt>
</event>
<event>
 4    1  0.1043382E-007  0.8899757E+03  0.7818608E-02  0.9542319E-01
         -1   -1    0    0    0  501 -0.00000000000E+00  0.00000000000E+00  0.64089123305E+03  0.64089123307E+03  0.50400000000E-02 0.  1.
          1   -1    0    0  501    0  0.00000000000E+00 -0.00000000000E+00 -0.13096928073E+04  0.13096928073E+04  0.50400000000E-02 0. -1.
    8880023    1    1    2    0    0  0.55648806566E+03 -0.22038057439E+03 -0.92334588597E+03  0.12824290999E+04  0.65864270000E+03 0.  0.
    8880022    1    1    2    0    0 -0.55648806566E+03  0.22038057439E+03  0.25454431177E+03  0.66815494046E+03  0.15294330000E+03 0.  0.
<mgrwt>
<rscale>  0 0.81234423E+03</rscale>
<asrwt>0</asrwt>
<pdfrwt beam="1">  1        1 0.20149120E+00 0.88997571E+03</pdfrwt>
<pdfrwt beam="2">  1       -1 0.98598651E-01 0.88997571E+03</pdfrwt>
<totfact> 0.89123100E+00</totfact>
</mgrwt>
</event>
<event>
 4    1  0.1043382E-007  0.1315805E+04  0.7818608E-02  0.9052030E-01
          1   -1    0    0  501    0  0.00000000000E+00  0.00000000000E+00  0.30969054944E+04  0.30969054944E+04  0.50400000000E-02 0. -1.
         -1   -1    0    0    0  501 -0.00000000000E+00 -0.00000000000E+00 -0.10484839590E+04  0.10484839590E+04  0.50400000000E-02 0.  1.
    8880023    1    1    2    0    0 -0.11570006297E+03  0.11332016471E+04 -0.45378265293E+03  0.13918553732E+04  0.65864270000E+03 0.  0.
    8880022    1    1    2    0    0  0.11570006297E+03 -0.11332016471E+04  0.25022041883E+04  0.27535340802E+04  0.15294330000E+03 0.  0.
<mgrwt>
<rscale>  0 0.12720476E+04</rscale>
<asrwt>0</asrwt>
<pdfrwt beam="1">  1        1 0.47644699E+00 0.13158050E+04</pdfrwt>
<pdfrwt beam="2">  1       -1 0.16130523E+00 0.13158050E+04</pdfrwt>
<totfact> 0.14144038E-01</totfact>
</mgrwt>
</event>
<event>
 4    1  0.1043382E-007  0.6944143E+03  0.7818608E-02  0.1002121E+00
          1   -1    0    0  501    0  0.00000000000E+00  0.00000000000E+00  0.60805164074E+03  0.60805164076E+03  0.50400000000E-02 0. -1.
         -1   -1    0    0    0  501 -0.00000000000E+00 -0.00000000000E+00 -0.63895428875E+03  0.63895428877E+03  0.50400000000E-02 0.  1.
    8880023    1    1    2    0    0  0.17076443680E+03  0.13871010618E+03 -0.39195320567E+03  0.79739482575E+03  0.65864270000E+03 0.  1.
    8880022    1    1    2    0    0 -0.17076443680E+03 -0.13871010618E+03  0.36105055767E+03  0.44961110378E+03  0.15294330000E+03 0.  0.
<mgrwt>
<rscale>  0 0.54729814E+03</rscale>
<asrwt>0</asrwt>
<pdfrwt beam="1">  1        1 0.93546406E-01 0.69441428E+03</pdfrwt>
<pdfrwt beam="2">  1       -1 0.98300660E-01 0.69441428E+03</pdfrwt>
<totfact> 0.34276933E+01</totfact>
</mgrwt>
</event>
<event>
 4    1  0.1043382E-007  0.6854965E+03  0.7818608E-02  0.1006371E+00
         -1   -1    0    0    0  501 -0.00000000000E+00  0.00000000000E+00  0.79841942956E+03  0.79841942958E+03  0.50400000000E-02 0.  1.
          1   -1    0    0  501    0  0.00000000000E+00 -0.00000000000E+00 -0.43686712429E+03  0.43686712431E+03  0.50400000000E-02 0. -1.
    8880023    1    1    2    0    0 -0.18989255421E+03  0.59998616323E+01  0.58750342886E+03  0.90280987238E+03  0.65864270000E+03 0.  1.
    8880022    1    1    2    0    0  0.18989255421E+03 -0.59998616323E+01 -0.22595112358E+03  0.33247668151E+03  0.15294330000E+03 0.  0.
<mgrwt>
<rscale>  0 0.52942752E+03</rscale>
<asrwt>0</asrwt>
<pdfrwt beam="1">  1        1 0.67210328E-01 0.68549645E+03</pdfrwt>
<pdfrwt beam="2">  1       -1 0.12283376E+00 0.68549645E+03</pdfrwt>
<totfact> 0.32077752E+01</totfact>
</mgrwt>
</event>
<event>
 4    1  0.1043382E-007  0.7910308E+03  0.7818608E-02  0.9730536E-01
         -1   -1    0    0    0  501 -0.00000000000E+00  0.00000000000E+00  0.27198076514E+03  0.27198076518E+03  0.50400000000E-02 0.  1.
          1   -1    0    0  501    0  0.00000000000E+00 -0.00000000000E+00 -0.17284447917E+04  0.17284447918E+04  0.50400000000E-02 0. -1.
    8880023    1    1    2    0    0 -0.12811393295E+03 -0.41893468453E+03 -0.49579903566E+03  0.93356646241E+03  0.65864270000E+03 0.  1.
    8880022    1    1    2    0    0  0.12811393295E+03  0.41893468453E+03 -0.96066499095E+03  0.10668590945E+04  0.15294330000E+03 0. -1.
<mgrwt>
<rscale>  0 0.69227449E+03</rscale>
<asrwt>0</asrwt>
<pdfrwt beam="1">  1        1 0.26591458E+00 0.79103076E+03</pdfrwt>
<pdfrwt beam="2">  1       -1 0.41843196E-01 0.79103076E+03</pdfrwt>
<totfact> 0.26319666E+01</totfact>
</mgrwt>
</event>
<event>
 4    1  0.1043382E-007  0.8293634E+03  0.7818608E-02  0.9650572E-01
         -1   -1    0    0    0  501 -0.00000000000E+00  0.00000000000E+00  0.53776906984E+03  0.53776906986E+03  0.50400000000E-02 0.  1.
          1   -1    0    0  501    0  0.00000000000E+00 -0.00000000000E+00 -0.11575680931E+04  0.11575680931E+04  0.50400000000E-02 0. -1.
    8880023    1    1    2    0    0  0.41463550374E+03  0.28654996304E+03  0.64426218306E+02  0.83186202350E+03  0.65864270000E+03 0.  1.
    8880022    1    1    2    0    0 -0.41463550374E+03 -0.28654996304E+03 -0.68422524159E+03  0.86347513950E+03  0.15294330000E+03 0. -1.
<mgrwt>
<rscale>  0 0.74037524E+03</rscale>
<asrwt>0</asrwt>
<pdfrwt beam="1">  1        1 0.17808740E+00 0.82936342E+03</pdfrwt>
<pdfrwt beam="2">  1       -1 0.82733703E-01 0.82936342E+03</pdfrwt>
<totfact> 0.17026729E+01</totfact>
</mgrwt>
</event>
<event>
 4    1  0.1043382E-007  0.6951872E+03  0.7818608E-02  0.1001778E+00
          1   -1    0    0  501    0  0.00000000000E+00  0.00000000000E+00  0.17556998223E+04  0.17556998223E+04  0.50400000000E-02 0. -1.
         -1   -1    0    0    0  501 -0.00000000000E+00 -0.00000000000E+00 -0.13636407037E+03  0.13636407046E+03  0.50400000000E-02 0.  1.
    8880023    1    1    2    0    0 -0.18690639109E+03 -0.12058638268E+03  0.12975675705E+04  0.14720621186E+04  0.65864270000E+03 0. -1.
    8880022    1    1    2    0    0  0.18690639109E+03  0.12058638268E+03  0.32176818147E+03  0.42000177421E+03  0.15294330000E+03 0.  1.
<mgrwt>
<rscale>  0 0.54877270E+03</rscale>
<asrwt>0</asrwt>
<pdfrwt beam="1">  1        1 0.27010765E+00 0.69518723E+03</pdfrwt>
<pdfrwt beam="2">  1       -1 0.20979089E-01 0.69518723E+03</pdfrwt>
<totfact> 0.85092251E+01</totfact>
</mgrwt>
</event>
<event>
 4    1  0.1043382E-007  0.1034778E+04  0.7818608E-02  0.9337408E-01
         -1   -1    0    0    0  501 -0.00000000000E+00  0.00000000000E+00  0.89680555525E+03  0.89680555526E+03  0.50400000000E-02 0.  1.
          1   -1    0    0  501    0  0.00000000000E+00 -0.00000000000E+00 -0.15078664334E+04  0.15078664334E+04  0.50400000000E-02 0. -1.
    8880023    1    1    2    0    0  0.79717765795E+03 -0.38255747303E+02  0.39835454793E+03  0.11088066886E+04  0.65864270000E+03 0.  1.
    8880022    1    1    2    0    0 -0.79717765795E+03  0.38255747303E+02 -0.10094154261E+04  0.12958653001E+04  0.15294330000E+03 0.  0.
<mgrwt>
<rscale>  0 0.97410778E+03</rscale>
<asrwt>0</asrwt>
<pdfrwt beam="1">  1        1 0.23197945E+00 0.10347782E+04</pdfrwt>
<pdfrwt beam="2">  1       -1 0.13797009E+00 0.10347782E+04</pdfrwt>
<totfact> 0.28156221E+00</totfact>
</mgrwt>
</event>
<event>
 4    1  0.1043382E-007  0.1074672E+04  0.7818608E-02  0.9289794E-01
         -1   -1    0    0    0  501 -0.00000000000E+00  0.00000000000E+00  0.86936958327E+03  0.86936958328E+03  0.50400000000E-02 0.  1.
          1   -1    0    0  501    0  0.00000000000E+00 -0.00000000000E+00 -0.15081530193E+04  0.15081530193E+04  0.50400000000E-02 0. -1.
    8880023    1    1    2    0    0  0.84126585054E+03 -0.11567983957E+03  0.28664967031E+03  0.11122447106E+04  0.65864270000E+03 0.  0.
    8880022    1    1    2    0    0 -0.84126585054E+03  0.11567983957E+03 -0.92543310638E+03  0.12652778920E+04  0.15294330000E+03 0.  0.
<mgrwt>
<rscale>  0 0.10172793E+04</rscale>
<asrwt>0</asrwt>
<pdfrwt beam="1">  1        1 0.23202354E+00 0.10746722E+04</pdfrwt>
<pdfrwt beam="2">  1       -1 0.13374917E+00 0.10746722E+04</pdfrwt>
<totfact> 0.30341641E+00</totfact>
</mgrwt>
</event>
<event>
 4    1  0.1043382E-007  0.6736004E+03  0.7818608E-02  0.1013203E+00
         -1   -1    0    0    0  501 -0.00000000000E+00  0.00000000000E+00  0.74772074441E+03  0.74772074443E+03  0.50400000000E-02 0.  1.
          1   -1    0    0  501    0  0.00000000000E+00 -0.00000000000E+00 -0.82093789245E+03  0.82093789246E+03  0.50400000000E-02 0. -1.
    8880023    1    1    2    0    0 -0.51877962023E+01  0.14106877293E+03  0.57637623119E+03  0.88653656330E+03  0.65864270000E+03 0.  1.
    8880022    1    1    2    0    0  0.51877962023E+01 -0.14106877293E+03 -0.64959337923E+03  0.68212207359E+03  0.15294330000E+03 0.  0.
<mgrwt>
<rscale>  0 0.50221134E+03</rscale>
<asrwt>0</asrwt>
<pdfrwt beam="1">  1        1 0.12629814E+00 0.67360041E+03</pdfrwt>
<pdfrwt beam="2">  1       -1 0.11503396E+00 0.67360041E+03</pdfrwt>
<totfact> 0.15117802E+01</totfact>
</mgrwt>
</event>
<event>
 4    1  0.1043382E-007  0.8339367E+03  0.7818608E-02  0.9641721E-01
          1   -1    0    0  501    0  0.00000000000E+00  0.00000000000E+00  0.93779413625E+03  0.93779413626E+03  0.50400000000E-02 0. -1.
         -1   -1    0    0    0  501 -0.00000000000E+00 -0.00000000000E+00 -0.68225753123E+03  0.68225753125E+03  0.50400000000E-02 0.  1.
    8880023    1    1    2    0    0 -0.10283864513E+03  0.50106333806E+03 -0.26437553953E+03  0.87483992127E+03  0.65864270000E+03 0.  1.
    8880022    1    1    2    0    0  0.10283864513E+03 -0.50106333806E+03  0.51991214455E+03  0.74521174625E+03  0.15294330000E+03 0.  0.
<mgrwt>
<rscale>  0 0.74595308E+03</rscale>
<asrwt>0</asrwt>
<pdfrwt beam="1">  1        1 0.14427602E+00 0.83393673E+03</pdfrwt>
<pdfrwt beam="2">  1       -1 0.10496270E+00 0.83393673E+03</pdfrwt>
<totfact> 0.14730830E+01</totfact>
</mgrwt>
</event>
<event>
 4    1  0.1043382E-007  0.1175368E+04  0.7818608E-02  0.9181446E-01
         -1   -1    0    0    0  501 -0.00000000000E+00  0.00000000000E+00  0.60611908302E+03  0.60611908304E+03  0.50400000000E-02 0.  1.
          1   -1    0    0  501    0  0.00000000000E+00 -0.00000000000E+00 -0.27499655533E+04  0.27499655533E+04  0.50400000000E-02 0. -1.
    8880023    1    1    2    0    0  0.89133379170E+03 -0.39141404274E+03 -0.22175324976E+03  0.11961043396E+04  0.65864270000E+03 0.  0.
    8880022    1    1    2    0    0 -0.89133379170E+03  0.39141404274E+03 -0.19220932205E+04  0.21599802968E+04  0.15294330000E+03 0.  0.
<mgrwt>
<rscale>  0 0.11247008E+04</rscale>
<asrwt>0</asrwt>
<pdfrwt beam="1">  1        1 0.42307161E+00 0.11753685E+04</pdfrwt>
<pdfrwt beam="2">  1       -1 0.93249092E-01 0.11753685E+04</pdfrwt>
<totfact> 0.10066775E+00</totfact>
</mgrwt>
</event>
<event>
 4    1  0.1043382E-007  0.6762305E+03  0.7818608E-02  0.1011542E+00
         -1   -1    0    0    0  501 -0.00000000000E+00  0.00000000000E+00  0.20673063892E+03  0.20673063899E+03  0.50400000000E-02 0.  1.
          1   -1    0    0  501    0  0.00000000000E+00 -0.00000000000E+00 -0.14170925269E+04  0.14170925269E+04  0.50400000000E-02 0. -1.
    8880023    1    1    2    0    0 -0.94846404826E+02 -0.12033974851E+03 -0.40139296890E+03  0.78638668435E+03  0.65864270000E+03 0.  0.
    8880022    1    1    2    0    0  0.94846404826E+02  0.12033974851E+03 -0.80896891911E+03  0.83743648158E+03  0.15294330000E+03 0.  0.
<mgrwt>
<rscale>  0 0.50866511E+03</rscale>
<asrwt>0</asrwt>
<pdfrwt beam="1">  1        1 0.21801423E+00 0.67623051E+03</pdfrwt>
<pdfrwt beam="2">  1       -1 0.31804715E-01 0.67623051E+03</pdfrwt>
<totfact> 0.71012256E+01</totfact>
</mgrwt>
</event>
<event>
 4    1  0.1043382E-007  0.6950107E+03  0.7818608E-02  0.1001856E+00
         -1   -1    0    0    0  501 -0.00000000000E+00  0.00000000000E+00  0.10646536598E+04  0.10646536598E+04  0.50400000000E-02 0.  1.
          1   -1    0    0  501    0  0.00000000000E+00 -0.00000000000E+00 -0.25382098567E+03  0.25382098572E+03  0.50400000000E-02 0. -1.
    8880023    1    1    2    0    0  0.19124802466E+03  0.11248942340E+03  0.78392109548E+03  0.10476507851E+04  0.65864270000E+03 0.  0.
    8880022    1    1    2    0    0 -0.19124802466E+03 -0.11248942340E+03  0.26911578669E+02  0.27082386046E+03  0.15294330000E+03 0.  0.
<mgrwt>
<rscale>  0 0.54843687E+03</rscale>
<asrwt>0</asrwt>
<pdfrwt beam="1">  1        1 0.39049382E-01 0.69501071E+03</pdfrwt>
<pdfrwt beam="2">  1       -1 0.16379287E+00 0.69501071E+03</pdfrwt>
<totfact> 0.30667318E+01</totfact>
</mgrwt>
</event>
<event>
 4    1  0.1043382E-007  0.8270524E+03  0.7818608E-02  0.9655095E-01
         -1   -1    0    0    0  501 -0.00000000000E+00  0.00000000000E+00  0.37977314798E+04  0.37977314798E+04  0.50400000000E-02 0.  1.
          1   -1    0    0  501    0  0.00000000000E+00 -0.00000000000E+00 -0.40343805314E+03  0.40343805317E+03  0.50400000000E-02 0. -1.
    8880023    1    1    2    0    0 -0.94292381456E+02 -0.49123764013E+03  0.35581772415E+04  0.36530317492E+04  0.65864270000E+03 0.  1.
    8880022    1    1    2    0    0  0.94292381456E+02  0.49123764013E+03 -0.16388381482E+03  0.54813778383E+03  0.15294330000E+03 0.  0.
<mgrwt>
<rscale>  0 0.73754532E+03</rscale>
<asrwt>0</asrwt>
<pdfrwt beam="1">  1        1 0.62067394E-01 0.82705240E+03</pdfrwt>
<pdfrwt beam="2">  1       -1 0.58426637E+00 0.82705240E+03</pdfrwt>
<totfact> 0.30929061E-02</totfact>
</mgrwt>
</event>
<event>
 4    1  0.1043382E-007  0.1142334E+04  0.7818608E-02  0.9215324E-01
          1   -1    0    0  501    0  0.00000000000E+00  0.00000000000E+00  0.81508843128E+03  0.81508843129E+03  0.50400000000E-02 0. -1.
         -1   -1    0    0    0  501 -0.00000000000E+00 -0.00000000000E+00 -0.16474010036E+04  0.16474010036E+04  0.50400000000E-02 0.  1.
    8880023    1    1    2    0    0 -0.87037927457E+03 -0.33698288970E+03 -0.98017677645E+03  0.15052156885E+04  0.65864270000E+03 0.  1.
    8880022    1    1    2    0    0  0.87037927457E+03  0.33698288970E+03  0.14786420418E+03  0.95727374635E+03  0.15294330000E+03 0. -1.
<mgrwt>
<rscale>  0 0.10896651E+04</rscale>
<asrwt>0</asrwt>
<pdfrwt beam="1">  1        1 0.12539822E+00 0.11423343E+04</pdfrwt>
<pdfrwt beam="2">  1       -1 0.25344631E+00 0.11423343E+04</pdfrwt>
<totfact> 0.14064787E+00</totfact>
</mgrwt>
</event>
<event>
 4    1  0.1043382E-007  0.7175917E+03  0.7818608E-02  0.9930821E-01
         -1   -1    0    0    0  501 -0.00000000000E+00  0.00000000000E+00  0.60991008506E+03  0.60991008508E+03  0.50400000000E-02 0.  1.
          1   -1    0    0  501    0  0.00000000000E+00 -0.00000000000E+00 -0.85583107028E+03  0.85583107029E+03  0.50400000000E-02 0. -1.
    8880023    1    1    2    0    0 -0.13880013077E+03  0.24872094274E+03  0.34190150041E+03  0.79488013304E+03  0.65864270000E+03 0.  0.
    8880022    1    1    2    0    0  0.13880013077E+03 -0.24872094274E+03 -0.58782248563E+03  0.67086102233E+03  0.15294330000E+03 0.  0.
<mgrwt>
<rscale>  0 0.58790556E+03</rscale>
<asrwt>0</asrwt>
<pdfrwt beam="1">  1        1 0.13166632E+00 0.71759166E+03</pdfrwt>
<pdfrwt beam="2">  1       -1 0.93832321E-01 0.71759166E+03</pdfrwt>
<totfact> 0.22481627E+01</totfact>
</mgrwt>
</event>
<event>
 4    1  0.1043382E-007  0.8128482E+03  0.7818608E-02  0.9683674E-01
          1   -1    0    0  501    0  0.00000000000E+00  0.00000000000E+00  0.30081999216E+03  0.30081999220E+03  0.50400000000E-02 0. -1.
         -1   -1    0    0    0  501 -0.00000000000E+00 -0.00000000000E+00 -0.16223099750E+04  0.16223099750E+04  0.50400000000E-02 0.  1.
    8880023    1    1    2    0    0 -0.46171561494E+03  0.11717805918E+03 -0.11197643341E+04  0.13836886849E+04  0.65864270000E+03 0.  0.
    8880022    1    1    2    0    0  0.46171561494E+03 -0.11717805918E+03 -0.20172564875E+03  0.53944128227E+03  0.15294330000E+03 0.  0.
<mgrwt>
<rscale>  0 0.71997181E+03</rscale>
<asrwt>0</asrwt>
<pdfrwt beam="1">  1        1 0.46280000E-01 0.81284821E+03</pdfrwt>
<pdfrwt beam="2">  1       -1 0.24958614E+00 0.81284821E+03</pdfrwt>
<totfact> 0.63100900E+00</totfact>
</mgrwt>
</event>
<event>
 4    1  0.1043382E-007  0.7324256E+03  0.7818608E-02  0.9882587E-01
          1   -1    0    0  501    0  0.00000000000E+00  0.00000000000E+00  0.37637692525E+03  0.37637692528E+03  0.50400000000E-02 0. -1.
         -1   -1    0    0    0  501 -0.00000000000E+00 -0.00000000000E+00 -0.13912732055E+04  0.13912732055E+04  0.50400000000E-02 0.  1.
    8880023    1    1    2    0    0 -0.10640241744E+01 -0.32036838827E+03 -0.11699181129E+04  0.13802737531E+04  0.65864270000E+03 0.  1.
    8880022    1    1    2    0    0  0.10640241744E+01  0.32036838827E+03  0.15502183267E+03  0.38737637766E+03  0.15294330000E+03 0.  0.
<mgrwt>
<rscale>  0 0.61112677E+03</rscale>
<asrwt>0</asrwt>
<pdfrwt beam="1">  1        1 0.57904143E-01 0.73242559E+03</pdfrwt>
<pdfrwt beam="2">  1       -1 0.21404203E+00 0.73242559E+03</pdfrwt>
<totfact> 0.81339948E+00</totfact>
</mgrwt>
</event>
<event>
 4    1  0.1043382E-007  0.7942931E+03  0.7818608E-02  0.9723274E-01
         -1   -1    0    0    0  501 -0.00000000000E+00  0.00000000000E+00  0.91563275747E+03  0.91563275748E+03  0.50400000000E-02 0.  1.
          1   -1    0    0  501    0  0.00000000000E+00 -0.00000000000E+00 -0.56292056672E+03  0.56292056674E+03  0.50400000000E-02 0. -1.
    8880023    1    1    2    0    0 -0.41304004163E+03 -0.16275541229E+03  0.55323543417E+03  0.96797265049E+03  0.65864270000E+03 0.  0.
    8880022    1    1    2    0    0  0.41304004163E+03  0.16275541229E+03 -0.20052324343E+03  0.51058067373E+03  0.15294330000E+03 0.  0.
<mgrwt>
<rscale>  0 0.69647818E+03</rscale>
<asrwt>0</asrwt>
<pdfrwt beam="1">  1        1 0.86603165E-01 0.79429315E+03</pdfrwt>
<pdfrwt beam="2">  1       -1 0.14086658E+00 0.79429315E+03</pdfrwt>
<totfact> 0.15828241E+01</totfact>
</mgrwt>
</event>
<event>
 4    1  0.1043382E-007  0.6766390E+03  0.7818608E-02  0.1011292E+00
          1   -1    0    0  501    0  0.00000000000E+00  0.00000000000E+00  0.11777610888E+04  0.11777610888E+04  0.50400000000E-02 0. -1.
         -1   -1    0    0    0  501 -0.00000000000E+00 -0.00000000000E+00 -0.66246208049E+03  0.66246208051E+03  0.50400000000E-02 0.  1.
    8880023    1    1    2    0    0  0.14510211086E+03 -0.54548368459E+02 -0.47470601916E+03  0.82655075946E+03  0.65864270000E+03 0.  1.
    8880022    1    1    2    0    0 -0.14510211086E+03  0.54548368459E+02  0.99000502743E+03  0.10136724098E+04  0.15294330000E+03 0.  0.
<mgrwt>
<rscale>  0 0.50964179E+03</rscale>
<asrwt>0</asrwt>
<pdfrwt beam="1">  1        1 0.18119401E+00 0.67663901E+03</pdfrwt>
<pdfrwt beam="2">  1       -1 0.10191724E+00 0.67663901E+03</pdfrwt>
<totfact> 0.10583566E+01</totfact>
</mgrwt>
</event>
<event>
 4    1  0.1043382E-007  0.7912242E+03  0.7818608E-02  0.9730102E-01
          1   -1    0    0  501    0  0.00000000000E+00  0.00000000000E+00  0.27815775373E+04  0.27815775373E+04  0.50400000000E-02 0. -1.
         -1   -1    0    0    0  501 -0.00000000000E+00 -0.00000000000E+00 -0.18375474374E+03  0.18375474381E+03  0.50400000000E-02 0.  1.
    8880023    1    1    2    0    0  0.31102368100E+03 -0.30901434252E+03  0.86903321672E+03  0.11752678555E+04  0.65864270000E+03 0.  1.
    8880022    1    1    2    0    0 -0.31102368100E+03  0.30901434252E+03  0.17287895768E+04  0.17900644256E+04  0.15294330000E+03 0.  0.
<mgrwt>
<rscale>  0 0.69252447E+03</rscale>
<asrwt>0</asrwt>
<pdfrwt beam="1">  1        1 0.42793501E+00 0.79122424E+03</pdfrwt>
<pdfrwt beam="2">  1       -1 0.28269961E-01 0.79122424E+03</pdfrwt>
<totfact> 0.10219478E+01</totfact>
</mgrwt>
</event>
<event>
 4    1  0.1043382E-007  0.6727107E+03  0.7818608E-02  0.1013790E+00
         -1   -1    0    0    0  501 -0.00000000000E+00  0.00000000000E+00  0.12605371745E+04  0.12605371745E+04  0.50400000000E-02 0.  1.
          1   -1    0    0  501    0  0.00000000000E+00 -0.00000000000E+00 -0.19949257618E+03  0.19949257624E+03  0.50400000000E-02 0. -1.
    8880023    1    1    2    0    0 -0.12755153063E+03  0.49599048484E+02  0.10592222110E+04  0.12547873753E+04  0.65864270000E+03 0.  0.
    8880022    1    1    2    0    0  0.12755153063E+03 -0.49599048484E+02  0.18223873008E+01  0.20524237547E+03  0.15294330000E+03 0.  0.
<mgrwt>
<rscale>  0 0.49995823E+03</rscale>
<asrwt>0</asrwt>
<pdfrwt beam="1">  1        1 0.30691165E-01 0.67271068E+03</pdfrwt>
<pdfrwt beam="2">  1       -1 0.19392880E+00 0.67271068E+03</pdfrwt>
<totfact> 0.25559100E+01</totfact>
</mgrwt>
</event>
<event>
 4    1  0.1043382E-007  0.7128163E+03  0.7818608E-02  0.9947688E-01
         -1   -1    0    0    0  501 -0.00000000000E+00  0.00000000000E+00  0.40664388932E+03  0.40664388935E+03  0.50400000000E-02 0.  1.
          1   -1    0    0  501    0  0.00000000000E+00 -0.00000000000E+00 -0.13155826468E+04  0.13155826468E+04  0.50400000000E-02 0. -1.
    8880023    1    1    2    0    0  0.25827251169E+03  0.87132794893E+02  0.49088003270E+02  0.71450448044E+03  0.65864270000E+03 0.  0.
    8880022    1    1    2    0    0 -0.25827251169E+03 -0.87132794893E+02 -0.95802676071E+03  0.10077220557E+04  0.15294330000E+03 0.  0.
<mgrwt>
<rscale>  0 0.58004757E+03</rscale>
<asrwt>0</asrwt>
<pdfrwt beam="1">  1        1 0.20239733E+00 0.71281626E+03</pdfrwt>
<pdfrwt beam="2">  1       -1 0.62560599E-01 0.71281626E+03</pdfrwt>
<totfact> 0.23679049E+01</totfact>
</mgrwt>
</event>
<event>
 4    1  0.1043382E-007  0.8692240E+03  0.7818608E-02  0.9577362E-01
         -1   -1    0    0    0  501 -0.00000000000E+00  0.00000000000E+00  0.53784136626E+03  0.53784136628E+03  0.50400000000E-02 0.  1.
          1   -1    0    0  501    0  0.00000000000E+00 -0.00000000000E+00 -0.24409004295E+04  0.24409004295E+04  0.50400000000E-02 0. -1.
    8880023    1    1    2    0    0 -0.56693335345E+03  0.18077299143E+02  0.11510284059E+03  0.87681188756E+03  0.65864270000E+03 0.  1.
    8880022    1    1    2    0    0  0.56693335345E+03 -0.18077299143E+02 -0.20181619038E+04  0.21019299082E+04  0.15294330000E+03 0.  0.
<mgrwt>
<rscale>  0 0.78812831E+03</rscale>
<asrwt>0</asrwt>
<pdfrwt beam="1">  1        1 0.37552314E+00 0.86922403E+03</pdfrwt>
<pdfrwt beam="2">  1       -1 0.82744827E-01 0.86922403E+03</pdfrwt>
<totfact> 0.22444395E+00</totfact>
</mgrwt>
</event>
<event>
 4    1  0.1043382E-007  0.9736835E+03  0.7818608E-02  0.9416828E-01
         -1   -1    0    0    0  501 -0.00000000000E+00  0.00000000000E+00  0.18717104819E+04  0.18717104819E+04  0.50400000000E-02 0.  1.
          1   -1    0    0  501    0  0.00000000000E+00 -0.00000000000E+00 -0.14531106105E+04  0.14531106105E+04  0.50400000000E-02 0. -1.
    8880023    1    1    2    0    0  0.47498033740E+03  0.53725501196E+03  0.16359018928E+04  0.19037422299E+04  0.65864270000E+03 0.  0.
    8880022    1    1    2    0    0 -0.47498033740E+03 -0.53725501196E+03 -0.12173020214E+04  0.14210788624E+04  0.15294330000E+03 0.  0.
<mgrwt>
<rscale>  0 0.90703675E+03</rscale>
<asrwt>0</asrwt>
<pdfrwt beam="1">  1        1 0.22355548E+00 0.97368346E+03</pdfrwt>
<pdfrwt beam="2">  1       -1 0.28795546E+00 0.97368346E+03</pdfrwt>
<totfact> 0.28432133E-01</totfact>
</mgrwt>
</event>
<event>
 4    1  0.1043382E-007  0.7974618E+03  0.7818608E-02  0.9716311E-01
         -1   -1    0    0    0  501 -0.00000000000E+00  0.00000000000E+00  0.36128623262E+03  0.36128623266E+03  0.50400000000E-02 0.  1.
          1   -1    0    0  501    0  0.00000000000E+00 -0.00000000000E+00 -0.25024935707E+04  0.25024935707E+04  0.50400000000E-02 0. -1.
    8880023    1    1    2    0    0  0.40684666865E+03  0.19133975716E+03 -0.14333452095E+03  0.81024077016E+03  0.65864270000E+03 0.  1.
    8880022    1    1    2    0    0 -0.40684666865E+03 -0.19133975716E+03 -0.19978728171E+04  0.20535390332E+04  0.15294330000E+03 0.  0.
<mgrwt>
<rscale>  0 0.70053877E+03</rscale>
<asrwt>0</asrwt>
<pdfrwt beam="1">  1        1 0.38499900E+00 0.79746180E+03</pdfrwt>
<pdfrwt beam="2">  1       -1 0.55582499E-01 0.79746180E+03</pdfrwt>
<totfact> 0.46394255E+00</totfact>
</mgrwt>
</event>
<event>
 4    1  0.1043382E-007  0.7040259E+03  0.7818608E-02  0.9980893E-01
         -1   -1    0    0    0  501 -0.00000000000E+00  0.00000000000E+00  0.23009321819E+03  0.23009321825E+03  0.50400000000E-02 0.  1.
          1   -1    0    0  501    0  0.00000000000E+00 -0.00000000000E+00 -0.12585440098E+04  0.12585440098E+04  0.50400000000E-02 0. -1.
    8880023    1    1    2    0    0  0.22303641873E+03  0.10998663370E+03 -0.43583983398E+03  0.82801501847E+03  0.65864270000E+03 0. -1.
    8880022    1    1    2    0    0 -0.22303641873E+03 -0.10998663370E+03 -0.59261095759E+03  0.66062220954E+03  0.15294330000E+03 0.  0.
<mgrwt>
<rscale>  0 0.56496048E+03</rscale>
<asrwt>0</asrwt>
<pdfrwt beam="1">  1        1 0.19362215E+00 0.70402593E+03</pdfrwt>
<pdfrwt beam="2">  1       -1 0.35398958E-01 0.70402593E+03</pdfrwt>
<totfact> 0.75673905E+01</totfact>
</mgrwt>
</event>
<event>
 4    1  0.1043382E-007  0.1088193E+04  0.7818608E-02  0.9274316E-01
         -1   -1    0    0    0  501 -0.00000000000E+00  0.00000000000E+00  0.11708299316E+04  0.11708299316E+04  0.50400000000E-02 0.  1.
          1   -1    0    0  501    0  0.00000000000E+00 -0.00000000000E+00 -0.95661675933E+03  0.95661675934E+03  0.50400000000E-02 0. -1.
    8880023    1    1    2    0    0 -0.78788637945E+03 -0.35998576096E+03  0.50681666449E+03  0.12004282705E+04  0.65864270000E+03 0.  1.
    8880022    1    1    2    0    0  0.78788637945E+03  0.35998576096E+03 -0.29260349226E+03  0.92701842038E+03  0.15294330000E+03 0.  0.
<mgrwt>
<rscale>  0 0.10318211E+04</rscale>
<asrwt>0</asrwt>
<pdfrwt beam="1">  1        1 0.14717181E+00 0.10881934E+04</pdfrwt>
<pdfrwt beam="2">  1       -1 0.18012768E+00 0.10881934E+04</pdfrwt>
<totfact> 0.33769810E+00</totfact>
</mgrwt>
</event>
<event>
 4    1  0.1205069E-007  0.7104803E+03  0.7818608E-02  0.9956222E-01
          1   -1    0    0  501    0  0.00000000000E+00  0.00000000000E+00  0.11023174054E+04  0.11023174054E+04  0.50400000000E-02 0. -1.
         -1   -1    0    0    0  501 -0.00000000000E+00 -0.00000000000E+00 -0.10440195007E+04  0.10440195007E+04  0.50400000000E-02 0.  1.
    8880023    1    1    2    0    0 -0.17167699922E+03 -0.20371326059E+03 -0.89618054100E+03  0.11436441111E+04  0.65864270000E+03 0.  0.
    8880022    1    1    2    0    0  0.17167699922E+03  0.20371326059E+03  0.95447844571E+03  0.10026927949E+04  0.15294330000E+03 0.  0.
<mgrwt>
<rscale>  0 0.57612230E+03</rscale>
<asrwt>0</asrwt>
<pdfrwt beam="1">  1        1 0.16958729E+00 0.71048032E+03</pdfrwt>
<pdfrwt beam="2">  1       -1 0.16061838E+00 0.71048032E+03</pdfrwt>
<totfact> 0.38191951E+00</totfact>
</mgrwt>
</event>
<event>
 4    1  0.1043382E-007  0.8168389E+03  0.7818608E-02  0.9675504E-01
         -1   -1    0    0    0  501 -0.00000000000E+00  0.00000000000E+00  0.29752316213E+03  0.29752316217E+03  0.50400000000E-02 0.  1.
          1   -1    0    0  501    0  0.00000000000E+00 -0.00000000000E+00 -0.20822279481E+04  0.20822279481E+04  0.50400000000E-02 0. -1.
    8880023    1    1    2    0    0 -0.11490340149E+03 -0.46926844342E+03 -0.40866520592E+03  0.91336362992E+03  0.65864270000E+03 0.  1.
    8880022    1    1    2    0    0  0.11490340149E+03  0.46926844342E+03 -0.13760395801E+04  0.14663874804E+04  0.15294330000E+03 0.  0.
<mgrwt>
<rscale>  0 0.72494199E+03</rscale>
<asrwt>0</asrwt>
<pdfrwt beam="1">  1        1 0.32034275E+00 0.81683895E+03</pdfrwt>
<pdfrwt beam="2">  1       -1 0.45772795E-01 0.81683895E+03</pdfrwt>
<totfact> 0.12867647E+01</totfact>
</mgrwt>
</event>
<event>
 4    1  0.1043382E-007  0.6844322E+03  0.7818608E-02  0.1006920E+00
          1   -1    0    0  501    0  0.00000000000E+00  0.00000000000E+00  0.99194854567E+03  0.99194854568E+03  0.50400000000E-02 0. -1.
         -1   -1    0    0    0  501 -0.00000000000E+00 -0.00000000000E+00 -0.50738111513E+03  0.50738111516E+03  0.50400000000E-02 0.  1.
    8880023    1    1    2    0    0  0.14401603633E+03 -0.11788383935E+03 -0.24815070575E+03  0.72802898111E+03  0.65864270000E+03 0.  1.
    8880022    1    1    2    0    0 -0.14401603633E+03  0.11788383935E+03  0.73271813629E+03  0.77130067974E+03  0.15294330000E+03 0.  0.
<mgrwt>
<rscale>  0 0.52717322E+03</rscale>
<asrwt>0</asrwt>
<pdfrwt beam="1">  1        1 0.15260747E+00 0.68443219E+03</pdfrwt>
<pdfrwt beam="2">  1       -1 0.78058634E-01 0.68443219E+03</pdfrwt>
<totfact> 0.26136660E+01</totfact>
</mgrwt>
</event>
<event>
 4    1  0.1043382E-007  0.8719486E+03  0.7818608E-02  0.9572653E-01
         -1   -1    0    0    0  501 -0.00000000000E+00  0.00000000000E+00  0.11941088687E+04  0.11941088687E+04  0.50400000000E-02 0.  1.
          1   -1    0    0  501    0  0.00000000000E+00 -0.00000000000E+00 -0.51121585398E+03  0.51121585401E+03  0.50400000000E-02 0. -1.
    8880023    1    1    2    0    0  0.33377294410E+03 -0.46376688161E+03  0.69290397470E+03  0.11137370529E+04  0.65864270000E+03 0.  1.
    8880022    1    1    2    0    0 -0.33377294410E+03  0.46376688161E+03 -0.10010959970E+02  0.59158766978E+03  0.15294330000E+03 0.  0.
<mgrwt>
<rscale>  0 0.79132955E+03</rscale>
<asrwt>0</asrwt>
<pdfrwt beam="1">  1        1 0.78648595E-01 0.87194857E+03</pdfrwt>
<pdfrwt beam="2">  1       -1 0.18370905E+00 0.87194857E+03</pdfrwt>
<totfact> 0.85566102E+00</totfact>
</mgrwt>
</event>
<event>
 4    1  0.1043382E-007  0.6731376E+03  0.7818608E-02  0.1013507E+00
          1   -1    0    0  501    0  0.00000000000E+00  0.00000000000E+00  0.56823910960E+03  0.56823910962E+03  0.50400000000E-02 0. -1.
         -1   -1    0    0    0  501 -0.00000000000E+00 -0.00000000000E+00 -0.58669077530E+03  0.58669077532E+03  0.50400000000E-02 0.  1.
    8880023    1    1    2    0    0 -0.12556100597E+03  0.59484733656E+02 -0.35424103311E+03  0.76065821205E+03  0.65864270000E+03 0.  1.
    8880022    1    1    2    0    0  0.12556100597E+03 -0.59484733656E+02  0.33578936742E+03  0.39427167289E+03  0.15294330000E+03 0.  0.
<mgrwt>
<rscale>  0 0.50104397E+03</rscale>
<asrwt>0</asrwt>
<pdfrwt beam="1">  1        1 0.87421401E-01 0.67313758E+03</pdfrwt>
<pdfrwt beam="2">  1       -1 0.90260119E-01 0.67313758E+03</pdfrwt>
<totfact> 0.45761204E+01</totfact>
</mgrwt>
</event>
<event>
 4    1  0.1043382E-007  0.9360331E+03  0.7818608E-02  0.9470501E-01
         -1   -1    0    0    0  501 -0.00000000000E+00  0.00000000000E+00  0.12204107880E+04  0.12204107880E+04  0.50400000000E-02 0.  1.
          1   -1    0    0  501    0  0.00000000000E+00 -0.00000000000E+00 -0.10202178340E+04  0.10202178341E+04  0.50400000000E-02 0. -1.
    8880023    1    1    2    0    0  0.64665217224E+03 -0.15552731077E+03  0.87468698390E+03  0.12811070612E+04  0.65864270000E+03 0.  0.
    8880022    1    1    2    0    0 -0.64665217224E+03  0.15552731077E+03 -0.67449402995E+03  0.95952156084E+03  0.15294330000E+03 0.  0.
<mgrwt>
<rscale>  0 0.86494060E+03</rscale>
<asrwt>0</asrwt>
<pdfrwt beam="1">  1        1 0.15695659E+00 0.93603311E+03</pdfrwt>
<pdfrwt beam="2">  1       -1 0.18775551E+00 0.93603311E+03</pdfrwt>
<totfact> 0.27064556E+00</totfact>
</mgrwt>
</event>
<event>
 4    1  0.1043382E-007  0.7221855E+03  0.7818608E-02  0.9915259E-01
          1   -1    0    0  501    0  0.00000000000E+00  0.00000000000E+00  0.97747500325E+03  0.97747500326E+03  0.50400000000E-02 0. -1.
         -1   -1    0    0    0  501 -0.00000000000E+00 -0.00000000000E+00 -0.28584323228E+03  0.28584323233E+03  0.50400000000E-02 0.  1.
    8880023    1    1    2    0    0  0.79891428024E+00  0.29621120521E+03  0.44027784371E+03  0.84581115048E+03  0.65864270000E+03 0.  1.
    8880022    1    1    2    0    0 -0.79891428024E+00 -0.29621120521E+03  0.25135392725E+03  0.41750708511E+03  0.15294330000E+03 0.  1.
<mgrwt>
<rscale>  0 0.59527431E+03</rscale>
<asrwt>0</asrwt>
<pdfrwt beam="1">  1        1 0.15038077E+00 0.72218552E+03</pdfrwt>
<pdfrwt beam="2">  1       -1 0.43975882E-01 0.72218552E+03</pdfrwt>
<totfact> 0.82431792E+01</totfact>
</mgrwt>
</event>
<event>
 4    1  0.1043382E-007  0.8443103E+03  0.7818608E-02  0.9622106E-01
          1   -1    0    0  501    0  0.00000000000E+00  0.00000000000E+00  0.13554665024E+04  0.13554665024E+04  0.50400000000E-02 0. -1.
         -1   -1    0    0    0  501 -0.00000000000E+00 -0.00000000000E+00 -0.11938190460E+04  0.11938190460E+04  0.50400000000E-02 0.  1.
    8880023    1    1    2    0    0 -0.36861872230E+03  0.37837793094E+03 -0.97308235755E+03  0.12883125016E+04  0.65864270000E+03 0.  1.
    8880022    1    1    2    0    0  0.36861872230E+03 -0.37837793094E+03  0.11347298139E+04  0.12609730468E+04  0.15294330000E+03 0.  0.
<mgrwt>
<rscale>  0 0.75850192E+03</rscale>
<asrwt>0</asrwt>
<pdfrwt beam="1">  1        1 0.20853331E+00 0.84431027E+03</pdfrwt>
<pdfrwt beam="2">  1       -1 0.18366447E+00 0.84431027E+03</pdfrwt>
<totfact> 0.16660684E+00</totfact>
</mgrwt>
</event>
<event>
 4    1  0.1043382E-007  0.8270982E+03  0.7818608E-02  0.9655005E-01
         -1   -1    0    0    0  501 -0.00000000000E+00  0.00000000000E+00  0.43511887945E+03  0.43511887948E+03  0.50400000000E-02 0.  1.
          1   -1    0    0  501    0  0.00000000000E+00 -0.00000000000E+00 -0.14706996165E+04  0.14706996165E+04  0.50400000000E-02 0. -1.
    8880023    1    1    2    0    0 -0.39025420051E+03  0.31302210180E+03 -0.98951268614E+02  0.83299624072E+03  0.65864270000E+03 0.  1.
    8880022    1    1    2    0    0  0.39025420051E+03 -0.31302210180E+03 -0.93662946842E+03  0.10728222553E+04  0.15294330000E+03 0.  0.
<mgrwt>
<rscale>  0 0.73760144E+03</rscale>
<asrwt>0</asrwt>
<pdfrwt beam="1">  1        1 0.22626148E+00 0.82709817E+03</pdfrwt>
<pdfrwt beam="2">  1       -1 0.66941367E-01 0.82709817E+03</pdfrwt>
<totfact> 0.15889560E+01</totfact>
</mgrwt>
</event>
<event>
 4    1  0.1043382E-007  0.7748947E+03  0.7818608E-02  0.9767969E-01
         -1   -1    0    0    0  501 -0.00000000000E+00  0.00000000000E+00  0.68834870827E+03  0.68834870829E+03  0.50400000000E-02 0.  1.
          1   -1    0    0  501    0  0.00000000000E+00 -0.00000000000E+00 -0.12063123236E+04  0.12063123236E+04  0.50400000000E-02 0. -1.
    8880023    1    1    2    0    0  0.37858332201E+03 -0.15272953869E+03  0.40468849951E+03  0.87420514274E+03  0.65864270000E+03 0.  1.
    8880022    1    1    2    0    0 -0.37858332201E+03  0.15272953869E+03 -0.92265211482E+03  0.10204558891E+04  0.15294330000E+03 0.  0.
<mgrwt>
<rscale>  0 0.67110211E+03</rscale>
<asrwt>0</asrwt>
<pdfrwt beam="1">  1        1 0.18558651E+00 0.77489473E+03</pdfrwt>
<pdfrwt beam="2">  1       -1 0.10589980E+00 0.77489473E+03</pdfrwt>
<totfact> 0.91015291E+00</totfact>
</mgrwt>
</event>
<event>
 4    1  0.1043382E-007  0.7429758E+03  0.7818608E-02  0.9851362E-01
         -1   -1    0    0    0  501 -0.00000000000E+00  0.00000000000E+00  0.13673175581E+03  0.13673175590E+03  0.50400000000E-02 0.  1.
          1   -1    0    0  501    0  0.00000000000E+00 -0.00000000000E+00 -0.26445876022E+04  0.26445876022E+04  0.50400000000E-02 0. -1.
    8880023    1    1    2    0    0  0.11972138755E+03  0.32228815402E+03 -0.11251289659E+04  0.13483057001E+04  0.65864270000E+03 0. -1.
    8880022    1    1    2    0    0 -0.11972138755E+03 -0.32228815402E+03 -0.13827268805E+04  0.14330136580E+04  0.15294330000E+03 0.  0.
<mgrwt>
<rscale>  0 0.62677522E+03</rscale>
<asrwt>0</asrwt>
<pdfrwt beam="1">  1        1 0.40685959E+00 0.74297582E+03</pdfrwt>
<pdfrwt beam="2">  1       -1 0.21035657E-01 0.74297582E+03</pdfrwt>
<totfact> 0.21199708E+01</totfact>
</mgrwt>
</event>
<event>
 4    1  0.1043382E-007  0.7566671E+03  0.7818608E-02  0.9813814E-01
         -1   -1    0    0    0  501 -0.00000000000E+00  0.00000000000E+00  0.16235258120E+04  0.16235258120E+04  0.50400000000E-02 0.  1.
          1   -1    0    0  501    0  0.00000000000E+00 -0.00000000000E+00 -0.22659102313E+03  0.22659102318E+03  0.50400000000E-02 0. -1.
    8880023    1    1    2    0    0  0.32225937472E+03 -0.18677221192E+03  0.11537110600E+04  0.13797080778E+04  0.65864270000E+03 0.  1.
    8880022    1    1    2    0    0 -0.32225937472E+03  0.18677221192E+03  0.24322372892E+03  0.47040875743E+03  0.15294330000E+03 0. -1.
<mgrwt>
<rscale>  0 0.64626472E+03</rscale>
<asrwt>0</asrwt>
<pdfrwt beam="1">  1        1 0.34860156E-01 0.75666715E+03</pdfrwt>
<pdfrwt beam="2">  1       -1 0.24977321E+00 0.75666715E+03</pdfrwt>
<totfact> 0.91473450E+00</totfact>
</mgrwt>
</event>
<event>
 4    1  0.1043382E-007  0.7821943E+03  0.7818608E-02  0.9750708E-01
          1   -1    0    0  501    0  0.00000000000E+00  0.00000000000E+00  0.42328425728E+04  0.42328425728E+04  0.50400000000E-02 0. -1.
         -1   -1    0    0    0  501 -0.00000000000E+00 -0.00000000000E+00 -0.67766193261E+03  0.67766193263E+03  0.50400000000E-02 0.  1.
    8880023    1    1    2    0    0 -0.25752935430E+03  0.33420997931E+03 -0.43510101391E+03  0.89506467764E+03  0.65864270000E+03 0.  0.
    8880022    1    1    2    0    0  0.25752935430E+03 -0.33420997931E+03  0.39902816541E+04  0.40154398278E+04  0.15294330000E+03 0.  0.
<mgrwt>
<rscale>  0 0.68076297E+03</rscale>
<asrwt>0</asrwt>
<pdfrwt beam="1">  1        1 0.65120656E+00 0.78219428E+03</pdfrwt>
<pdfrwt beam="2">  1       -1 0.10425568E+00 0.78219428E+03</pdfrwt>
<totfact> 0.57265661E-02</totfact>
</mgrwt>
</event>
<event>
 4    1  0.1043382E-007  0.8667939E+03  0.7818608E-02  0.9581591E-01
         -1   -1    0    0    0  501 -0.00000000000E+00  0.00000000000E+00  0.75895992060E+03  0.75895992062E+03  0.50400000000E-02 0.  1.
          1   -1    0    0  501    0  0.00000000000E+00 -0.00000000000E+00 -0.79147865477E+03  0.79147865479E+03  0.50400000000E-02 0. -1.
    8880023    1    1    2    0    0 -0.26940710132E+03  0.49491542721E+03  0.24954418053E+03  0.90199998372E+03  0.65864270000E+03 0.  0.
    8880022    1    1    2    0    0  0.26940710132E+03 -0.49491542721E+03 -0.28206291470E+03  0.64843859169E+03  0.15294330000E+03 0.  0.
<mgrwt>
<rscale>  0 0.78526701E+03</rscale>
<asrwt>0</asrwt>
<pdfrwt beam="1">  1        1 0.12176595E+00 0.86679390E+03</pdfrwt>
<pdfrwt beam="2">  1       -1 0.11676306E+00 0.86679390E+03</pdfrwt>
<totfact> 0.15111259E+01</totfact>
</mgrwt>
</event>
<event>
 4    1  0.1043382E-007  0.6779218E+03  0.7818608E-02  0.1010524E+00
         -1   -1    0    0    0  501 -0.00000000000E+00  0.00000000000E+00  0.40181382366E+03  0.40181382369E+03  0.50400000000E-02 0.  1.
          1   -1    0    0  501    0  0.00000000000E+00 -0.00000000000E+00 -0.86137149565E+03  0.86137149566E+03  0.50400000000E-02 0. -1.
    8880023    1    1    2    0    0 -0.41004748926E+02  0.15519804167E+03  0.77329093740E+02  0.68231797322E+03  0.65864270000E+03 0.  1.
    8880022    1    1    2    0    0  0.41004748926E+02 -0.15519804167E+03 -0.53688676573E+03  0.58086734613E+03  0.15294330000E+03 0.  0.
<mgrwt>
<rscale>  0 0.51266731E+03</rscale>
<asrwt>0</asrwt>
<pdfrwt beam="1">  1        1 0.13251869E+00 0.67792184E+03</pdfrwt>
<pdfrwt beam="2">  1       -1 0.61817512E-01 0.67792184E+03</pdfrwt>
<totfact> 0.53561920E+01</totfact>
</mgrwt>
</event>
<event>
 4    1  0.1043382E-007  0.7382610E+03  0.7818608E-02  0.9865042E-01
          1   -1    0    0  501    0  0.00000000000E+00  0.00000000000E+00  0.98043931720E+03  0.98043931722E+03  0.50400000000E-02 0. -1.
         -1   -1    0    0    0  501 -0.00000000000E+00 -0.00000000000E+00 -0.37154597009E+03  0.37154597012E+03  0.50400000000E-02 0.  1.
    8880023    1    1    2    0    0  0.17208037980E+03  0.28567007069E+03  0.13148053548E+03  0.74987757926E+03  0.65864270000E+03 0.  0.
    8880022    1    1    2    0    0 -0.17208037980E+03 -0.28567007069E+03  0.47741281164E+03  0.60210770808E+03  0.15294330000E+03 0.  0.
<mgrwt>
<rscale>  0 0.61985824E+03</rscale>
<asrwt>0</asrwt>
<pdfrwt beam="1">  1        1 0.15083682E+00 0.73826097E+03</pdfrwt>
<pdfrwt beam="2">  1       -1 0.57160919E-01 0.73826097E+03</pdfrwt>
<totfact> 0.49804086E+01</totfact>
</mgrwt>
</event>
<event>
 4    1  0.1043382E-007  0.6633746E+03  0.7818608E-02  0.1020938E+00
         -1   -1    0    0    0  501 -0.00000000000E+00  0.00000000000E+00  0.40741547827E+03  0.40741547831E+03  0.50400000000E-02 0.  1.
          1   -1    0    0  501    0  0.00000000000E+00 -0.00000000000E+00 -0.47765037228E+03  0.47765037231E+03  0.50400000000E-02 0. -1.
    8880023    1    1    2    0    0  0.42032732003E+02  0.66999158307E+02  0.64400488242E+02  0.66649326097E+03  0.65864270000E+03 0.  1.
    8880022    1    1    2    0    0 -0.42032732003E+02 -0.66999158307E+02 -0.13463538225E+03  0.21857258964E+03  0.15294330000E+03 0. -1.
<mgrwt>
<rscale>  0 0.47349702E+03</rscale>
<asrwt>0</asrwt>
<pdfrwt beam="1">  1        1 0.73484673E-01 0.66337459E+03</pdfrwt>
<pdfrwt beam="2">  1       -1 0.62679304E-01 0.66337459E+03</pdfrwt>
<totfact> 0.12457095E+02</totfact>
</mgrwt>
</event>
<event>
 4    1  0.1079731E-007  0.6639729E+03  0.7818608E-02  0.1020411E+00
          1   -1    0    0  501    0  0.00000000000E+00  0.00000000000E+00  0.19356597645E+04  0.19356597645E+04  0.50400000000E-02 0. -1.
         -1   -1    0    0    0  501 -0.00000000000E+00 -0.00000000000E+00 -0.49233077982E+03  0.49233077985E+03  0.50400000000E-02 0.  1.
    8880023    1    1    2    0    0 -0.67760396691E+02  0.49581509784E+02 -0.26197350225E+03  0.71378576591E+03  0.65864270000E+03 0.  1.
    8880022    1    1    2    0    0  0.67760396691E+02 -0.49581509784E+02  0.17053024870E+04  0.17142047785E+04  0.15294330000E+03 0.  0.
<mgrwt>
<rscale>  0 0.47538550E+03</rscale>
<asrwt>0</asrwt>
<pdfrwt beam="1">  1        1 0.29779381E+00 0.66397289E+03</pdfrwt>
<pdfrwt beam="2">  1       -1 0.75743198E-01 0.66397289E+03</pdfrwt>
<totfact> 0.61413549E+00</totfact>
</mgrwt>
</event>
<event>
 4    1  0.1043382E-007  0.9686686E+03  0.7818608E-02  0.9423748E-01
         -1   -1    0    0    0  501 -0.00000000000E+00  0.00000000000E+00  0.13676633992E+04  0.13676633992E+04  0.50400000000E-02 0.  1.
          1   -1    0    0  501    0  0.00000000000E+00 -0.00000000000E+00 -0.54966441678E+03  0.54966441680E+03  0.50400000000E-02 0. -1.
    8880023    1    1    2    0    0 -0.61202828661E+02  0.70764602976E+03  0.66461189558E+03  0.11747458737E+04  0.65864270000E+03 0. -1.
    8880022    1    1    2    0    0  0.61202828661E+02 -0.70764602976E+03  0.15338708683E+03  0.74258194234E+03  0.15294330000E+03 0.  0.
<mgrwt>
<rscale>  0 0.90146821E+03</rscale>
<asrwt>0</asrwt>
<pdfrwt beam="1">  1        1 0.84563758E-01 0.96866862E+03</pdfrwt>
<pdfrwt beam="2">  1       -1 0.21040975E+00 0.96866862E+03</pdfrwt>
<totfact> 0.50013744E+00</totfact>
</mgrwt>
</event>
<event>
 4    1  0.1043382E-007  0.8479656E+03  0.7818608E-02  0.9615340E-01
          1   -1    0    0  501    0  0.00000000000E+00  0.00000000000E+00  0.66014621733E+03  0.66014621735E+03  0.50400000000E-02 0. -1.
         -1   -1    0    0    0  501 -0.00000000000E+00 -0.00000000000E+00 -0.74897626818E+03  0.74897626820E+03  0.50400000000E-02 0.  1.
    8880023    1    1    2    0    0  0.32887761874E+03 -0.42080273778E+03 -0.97192156045E+02  0.85351740093E+03  0.65864270000E+03 0.  0.
    8880022    1    1    2    0    0 -0.32887761874E+03  0.42080273778E+03  0.83621051963E+01  0.55560508461E+03  0.15294330000E+03 0.  1.
<mgrwt>
<rscale>  0 0.76289176E+03</rscale>
<asrwt>0</asrwt>
<pdfrwt beam="1">  1        1 0.10156096E+00 0.84796559E+03</pdfrwt>
<pdfrwt beam="2">  1       -1 0.11522712E+00 0.84796559E+03</pdfrwt>
<totfact> 0.20659644E+01</totfact>
</mgrwt>
</event>
<event>
 4    1  0.1043382E-007  0.8685126E+03  0.7818608E-02  0.9578597E-01
          1   -1    0    0  501    0  0.00000000000E+00  0.00000000000E+00  0.10101146419E+04  0.10101146419E+04  0.50400000000E-02 0. -1.
         -1   -1    0    0    0  501 -0.00000000000E+00 -0.00000000000E+00 -0.11817299576E+04  0.11817299576E+04  0.50400000000E-02 0.  1.
    8880023    1    1    2    0    0  0.44315003991E+03  0.35230949630E+03 -0.90400253680E+03  0.12536086837E+04  0.65864270000E+03 0.  1.
    8880022    1    1    2    0    0 -0.44315003991E+03 -0.35230949630E+03  0.73238722108E+03  0.93823591579E+03  0.15294330000E+03 0.  0.
<mgrwt>
<rscale>  0 0.78729124E+03</rscale>
<asrwt>0</asrwt>
<pdfrwt beam="1">  1        1 0.15540225E+00 0.86851261E+03</pdfrwt>
<pdfrwt beam="2">  1       -1 0.18180461E+00 0.86851261E+03</pdfrwt>
<totfact> 0.30647972E+00</totfact>
</mgrwt>
</event>
<event>
 4    1  0.1043382E-007  0.1136697E+04  0.7818608E-02  0.9221258E-01
          1   -1    0    0  501    0  0.00000000000E+00  0.00000000000E+00  0.14164212648E+04  0.14164212648E+04  0.50400000000E-02 0. -1.
         -1   -1    0    0    0  501 -0.00000000000E+00 -0.00000000000E+00 -0.16032468225E+04  0.16032468225E+04  0.50400000000E-02 0.  1.
    8880023    1    1    2    0    0  0.46416503468E+03  0.80176150039E+03 -0.11899725152E+04  0.16456352804E+04  0.65864270000E+03 0.  1.
    8880022    1    1    2    0    0 -0.46416503468E+03 -0.80176150039E+03  0.10031469576E+04  0.13740328069E+04  0.15294330000E+03 0.  0.
<mgrwt>
<rscale>  0 0.10836684E+04</rscale>
<asrwt>0</asrwt>
<pdfrwt beam="1">  1        1 0.21791096E+00 0.11366974E+04</pdfrwt>
<pdfrwt beam="2">  1       -1 0.24665336E+00 0.11366974E+04</pdfrwt>
<totfact> 0.54279304E-01</totfact>
</mgrwt>
</event>
<event>
 4    1  0.1043382E-007  0.6631344E+03  0.7818608E-02  0.1021153E+00
          1   -1    0    0  501    0  0.00000000000E+00  0.00000000000E+00  0.22188290850E+04  0.22188290850E+04  0.50400000000E-02 0. -1.
         -1   -1    0    0    0  501 -0.00000000000E+00 -0.00000000000E+00 -0.87905130590E+02  0.87905130735E+02  0.50400000000E-02 0.  1.
    8880023    1    1    2    0    0  0.77047961101E+02  0.80879581046E+00  0.13116530020E+04  0.14697553696E+04  0.65864270000E+03 0.  1.
    8880022    1    1    2    0    0 -0.77047961101E+02 -0.80879581046E+00  0.81927095244E+03  0.83697884620E+03  0.15294330000E+03 0.  0.
<mgrwt>
<rscale>  0 0.47272957E+03</rscale>
<asrwt>0</asrwt>
<pdfrwt beam="1">  1        1 0.34135828E+00 0.66313441E+03</pdfrwt>
<pdfrwt beam="2">  1       -1 0.13523868E-01 0.66313441E+03</pdfrwt>
<totfact> 0.86080158E+01</totfact>
</mgrwt>
</event>
<event>
 4    1  0.1043382E-007  0.1000772E+04  0.7818608E-02  0.9380548E-01
         -1   -1    0    0    0  501 -0.00000000000E+00  0.00000000000E+00  0.19031753055E+04  0.19031753055E+04  0.50400000000E-02 0.  1.
          1   -1    0    0  501    0  0.00000000000E+00 -0.00000000000E+00 -0.96988846138E+03  0.96988846140E+03  0.50400000000E-02 0. -1.
    8880023    1    1    2    0    0 -0.49832882793E+03 -0.56515748855E+03 -0.59356740831E+03  0.11635579410E+04  0.65864270000E+03 0.  0.
    8880022    1    1    2    0    0  0.49832882793E+03  0.56515748855E+03  0.15268542525E+04  0.17095058259E+04  0.15294330000E+03 0.  0.
<mgrwt>
<rscale>  0 0.93693924E+03</rscale>
<asrwt>0</asrwt>
<pdfrwt beam="1">  1        1 0.14921361E+00 0.10007721E+04</pdfrwt>
<pdfrwt beam="2">  1       -1 0.29279620E+00 0.10007721E+04</pdfrwt>
<totfact> 0.59530635E-01</totfact>
</mgrwt>
</event>
<event>
 4    1  0.1043382E-007  0.9589440E+03  0.7818608E-02  0.9437361E-01
          1   -1    0    0  501    0  0.00000000000E+00  0.00000000000E+00  0.32580776653E+04  0.32580776653E+04  0.50400000000E-02 0. -1.
         -1   -1    0    0    0  501 -0.00000000000E+00 -0.00000000000E+00 -0.26132718389E+03  0.26132718394E+03  0.50400000000E-02 0.  1.
    8880023    1    1    2    0    0  0.21298807793E+03 -0.66362598615E+03  0.94175677519E+03  0.13440533474E+04  0.65864270000E+03 0.  0.
    8880022    1    1    2    0    0 -0.21298807793E+03  0.66362598615E+03  0.20549937062E+04  0.21753515018E+04  0.15294330000E+03 0.  0.
<mgrwt>
<rscale>  0 0.89063793E+03</rscale>
<asrwt>0</asrwt>
<pdfrwt beam="1">  1        1 0.50124272E+00 0.95894399E+03</pdfrwt>
<pdfrwt beam="2">  1       -1 0.40204182E-01 0.95894399E+03</pdfrwt>
<totfact> 0.24101207E+00</totfact>
</mgrwt>
</event>
<event>
 4    1  0.1043382E-007  0.7259793E+03  0.7818608E-02  0.9902850E-01
          1   -1    0    0  501    0  0.00000000000E+00  0.00000000000E+00  0.61569996927E+03  0.61569996929E+03  0.50400000000E-02 0. -1.
         -1   -1    0    0    0  501 -0.00000000000E+00 -0.00000000000E+00 -0.59881401781E+03  0.59881401783E+03  0.50400000000E-02 0.  1.
    8880023    1    1    2    0    0  0.13999230783E+03 -0.27136298688E+03  0.28542345241E+03  0.78007209304E+03  0.65864270000E+03 0.  0.
    8880022    1    1    2    0    0 -0.13999230783E+03  0.27136298688E+03 -0.26853750095E+03  0.43444189408E+03  0.15294330000E+03 0.  0.
<mgrwt>
<rscale>  0 0.60123358E+03</rscale>
<asrwt>0</asrwt>
<pdfrwt beam="1">  1        1 0.94723073E-01 0.72597929E+03</pdfrwt>
<pdfrwt beam="2">  1       -1 0.92125233E-01 0.72597929E+03</pdfrwt>
<totfact> 0.38800053E+01</totfact>
</mgrwt>
</event>
<event>
 4    1  0.1043382E-007  0.7826556E+03  0.7818608E-02  0.9749636E-01
          1   -1    0    0  501    0  0.00000000000E+00  0.00000000000E+00  0.25459472814E+03  0.25459472819E+03  0.50400000000E-02 0. -1.
         -1   -1    0    0    0  501 -0.00000000000E+00 -0.00000000000E+00 -0.23316924802E+04  0.23316924802E+04  0.50400000000E-02 0.  1.
    8880023    1    1    2    0    0  0.99101787278E+02  0.41099683532E+03 -0.19761653451E+04  0.21255068197E+04  0.65864270000E+03 0.  0.
    8880022    1    1    2    0    0 -0.99101787278E+02 -0.41099683532E+03 -0.10093240696E+03  0.46078038877E+03  0.15294330000E+03 0.  0.
<mgrwt>
<rscale>  0 0.68136872E+03</rscale>
<asrwt>0</asrwt>
<pdfrwt beam="1">  1        1 0.39168421E-01 0.78265559E+03</pdfrwt>
<pdfrwt beam="2">  1       -1 0.35872191E+00 0.78265559E+03</pdfrwt>
<totfact> 0.15562832E+00</totfact>
</mgrwt>
</event>
<event>
 4    1  0.1043382E-007  0.9546155E+03  0.7818608E-02  0.9443504E-01
         -1   -1    0    0    0  501 -0.00000000000E+00  0.00000000000E+00  0.27482544021E+03  0.27482544025E+03  0.50400000000E-02 0.  1.
          1   -1    0    0  501    0  0.00000000000E+00 -0.00000000000E+00 -0.37390485841E+04  0.37390485841E+04  0.50400000000E-02 0. -1.
    8880023    1    1    2    0    0 -0.59431367461E+03  0.35252195817E+03 -0.30453912182E+04  0.31915040895E+04  0.65864270000E+03 0. -1.
    8880022    1    1    2    0    0  0.59431367461E+03 -0.35252195817E+03 -0.41883192567E+03  0.82236993488E+03  0.15294330000E+03 0.  0.
<mgrwt>
<rscale>  0 0.88580312E+03</rscale>
<asrwt>0</asrwt>
<pdfrwt beam="1">  1        1 0.57523821E+00 0.95461546E+03</pdfrwt>
<pdfrwt beam="2">  1       -1 0.42280840E-01 0.95461546E+03</pdfrwt>
<totfact> 0.92846584E-01</totfact>
</mgrwt>
</event>
<event>
 4    1  0.1043382E-007  0.9777436E+03  0.7818608E-02  0.9411273E-01
          1   -1    0    0  501    0  0.00000000000E+00  0.00000000000E+00  0.10637012625E+04  0.10637012625E+04  0.50400000000E-02 0. -1.
         -1   -1    0    0    0  501 -0.00000000000E+00 -0.00000000000E+00 -0.10803652496E+04  0.10803652496E+04  0.50400000000E-02 0.  1.
    8880023    1    1    2    0    0  0.43535478903E+03  0.57674831383E+03  0.62935824950E+03  0.11627873504E+04  0.65864270000E+03 0.  0.
    8880022    1    1    2    0    0 -0.43535478903E+03 -0.57674831383E+03 -0.64602223662E+03  0.98127916163E+03  0.15294330000E+03 0.  0.
<mgrwt>
<rscale>  0 0.91153735E+03</rscale>
<asrwt>0</asrwt>
<pdfrwt beam="1">  1        1 0.16364635E+00 0.97774364E+03</pdfrwt>
<pdfrwt beam="2">  1       -1 0.16621004E+00 0.97774364E+03</pdfrwt>
<totfact> 0.35666700E+00</totfact>
</mgrwt>
</event>
<event>
 4    1  0.1043382E-007  0.1439850E+04  0.7818608E-02  0.8953321E-01
         -1   -1    0    0    0  501 -0.00000000000E+00  0.00000000000E+00  0.25242747716E+04  0.25242747716E+04  0.50400000000E-02 0.  1.
          1   -1    0    0  501    0  0.00000000000E+00 -0.00000000000E+00 -0.12063342519E+04  0.12063342519E+04  0.50400000000E-02 0. -1.
    8880023    1    1    2    0    0 -0.92891745954E+03 -0.88117478388E+03 -0.48028102260E+03  0.15178394887E+04  0.65864270000E+03 0.  0.
    8880022    1    1    2    0    0  0.92891745954E+03  0.88117478388E+03  0.17982215423E+04  0.22127695349E+04  0.15294330000E+03 0.  0.
<mgrwt>
<rscale>  0 0.14006872E+04</rscale>
<asrwt>0</asrwt>
<pdfrwt beam="1">  1        1 0.18558989E+00 0.14398496E+04</pdfrwt>
<pdfrwt beam="2">  1       -1 0.38834996E+00 0.14398496E+04</pdfrwt>
<totfact> 0.86915670E-02</totfact>
</mgrwt>
</event>
<event>
 4    1  0.1043382E-007  0.9002512E+03  0.7818608E-02  0.9525628E-01
         -1   -1    0    0    0  501 -0.00000000000E+00  0.00000000000E+00  0.18137533495E+03  0.18137533502E+03  0.50400000000E-02 0.  1.
          1   -1    0    0  501    0  0.00000000000E+00 -0.00000000000E+00 -0.35503568130E+04  0.35503568130E+04  0.50400000000E-02 0. -1.
    8880023    1    1    2    0    0 -0.61257869938E+03 -0.37275241608E+02 -0.24984559072E+04  0.26556984454E+04  0.65864270000E+03 0.  0.
    8880022    1    1    2    0    0  0.61257869938E+03  0.37275241608E+02 -0.87052557079E+03  0.10760337025E+04  0.15294330000E+03 0.  0.
<mgrwt>
<rscale>  0 0.82420431E+03</rscale>
<asrwt>0</asrwt>
<pdfrwt beam="1">  1        1 0.54620869E+00 0.90025125E+03</pdfrwt>
<pdfrwt beam="2">  1       -1 0.27903900E-01 0.90025125E+03</pdfrwt>
<totfact> 0.27844439E+00</totfact>
</mgrwt>
</event>
<event>
 4    1  0.1043382E-007  0.7938680E+03  0.7818608E-02  0.9724215E-01
         -1   -1    0    0    0  501 -0.00000000000E+00  0.00000000000E+00  0.55211810488E+03  0.55211810490E+03  0.50400000000E-02 0.  1.
          1   -1    0    0  501    0  0.00000000000E+00 -0.00000000000E+00 -0.93853851885E+03  0.93853851887E+03  0.50400000000E-02 0. -1.
    8880023    1    1    2    0    0  0.44052092040E+03  0.48554625282E+02  0.11732895293E+03  0.80249144693E+03  0.65864270000E+03 0.  1.
    8880022    1    1    2    0    0 -0.44052092040E+03 -0.48554625282E+02 -0.50374936690E+03  0.68816517684E+03  0.15294330000E+03 0.  0.
<mgrwt>
<rscale>  0 0.69593173E+03</rscale>
<asrwt>0</asrwt>
<pdfrwt beam="1">  1        1 0.14439054E+00 0.79386802E+03</pdfrwt>
<pdfrwt beam="2">  1       -1 0.84941247E-01 0.79386802E+03</pdfrwt>
<totfact> 0.23740621E+01</totfact>
</mgrwt>
</event>
<event>
 4    1  0.1043382E-007  0.8291814E+03  0.7818608E-02  0.9650927E-01
         -1   -1    0    0    0  501 -0.00000000000E+00  0.00000000000E+00  0.19352691011E+03  0.19352691018E+03  0.50400000000E-02 0.  1.
          1   -1    0    0  501    0  0.00000000000E+00 -0.00000000000E+00 -0.31226164215E+04  0.31226164215E+04  0.50400000000E-02 0. -1.
    8880023    1    1    2    0    0 -0.11172486868E+03 -0.49117117727E+03 -0.25095548567E+04  0.26429921220E+04  0.65864270000E+03 0.  0.
    8880022    1    1    2    0    0  0.11172486868E+03  0.49117117727E+03 -0.41953465468E+03  0.67315120972E+03  0.15294330000E+03 0.  0.
<mgrwt>
<rscale>  0 0.74015261E+03</rscale>
<asrwt>0</asrwt>
<pdfrwt beam="1">  1        1 0.48040249E+00 0.82918139E+03</pdfrwt>
<pdfrwt beam="2">  1       -1 0.29773373E-01 0.82918139E+03</pdfrwt>
<totfact> 0.52959061E+00</totfact>
</mgrwt>
</event>
<event>
 4    1  0.1043382E-007  0.7541755E+03  0.7818608E-02  0.9820427E-01
          1   -1    0    0  501    0  0.00000000000E+00  0.00000000000E+00  0.15185022424E+04  0.15185022424E+04  0.50400000000E-02 0. -1.
         -1   -1    0    0    0  501 -0.00000000000E+00 -0.00000000000E+00 -0.34051050485E+03  0.34051050489E+03  0.50400000000E-02 0.  1.
    8880023    1    1    2    0    0 -0.33569060646E+03  0.14927274292E+03  0.16689361669E+03  0.77242101253E+03  0.65864270000E+03 0.  0.
    8880022    1    1    2    0    0  0.33569060646E+03 -0.14927274292E+03  0.10110981208E+04  0.10865917347E+04  0.15294330000E+03 0.  0.
<mgrwt>
<rscale>  0 0.64277765E+03</rscale>
<asrwt>0</asrwt>
<pdfrwt beam="1">  1        1 0.23361573E+00 0.75417554E+03</pdfrwt>
<pdfrwt beam="2">  1       -1 0.52386232E-01 0.75417554E+03</pdfrwt>
<totfact> 0.24086146E+01</totfact>
</mgrwt>
</event>
<event>
 4    1  0.1043382E-007  0.1051542E+04  0.7818608E-02  0.9317031E-01
          1   -1    0    0  501    0  0.00000000000E+00  0.00000000000E+00  0.15616159884E+04  0.15616159884E+04  0.50400000000E-02 0. -1.
         -1   -1    0    0    0  501 -0.00000000000E+00 -0.00000000000E+00 -0.91732708883E+03  0.91732708884E+03  0.50400000000E-02 0.  1.
    8880023    1    1    2    0    0  0.68498855629E+03  0.45024449717E+03 -0.41530970528E+03  0.11305847102E+04  0.65864270000E+03 0.  1.
    8880022    1    1    2    0    0 -0.68498855629E+03 -0.45024449717E+03  0.10595986049E+04  0.13483583670E+04  0.15294330000E+03 0.  0.
<mgrwt>
<rscale>  0 0.99230003E+03</rscale>
<asrwt>0</asrwt>
<pdfrwt beam="1">  1        1 0.24024861E+00 0.10515416E+04</pdfrwt>
<pdfrwt beam="2">  1       -1 0.14112724E+00 0.10515416E+04</pdfrwt>
<totfact> 0.24318113E+00</totfact>
</mgrwt>
</event>
<event>
 4    1  0.1043382E-007  0.9842333E+03  0.7818608E-02  0.9402482E-01
          1   -1    0    0  501    0  0.00000000000E+00  0.00000000000E+00  0.47993647682E+03  0.47993647685E+03  0.50400000000E-02 0. -1.
         -1   -1    0    0    0  501 -0.00000000000E+00 -0.00000000000E+00 -0.19125936401E+04  0.19125936401E+04  0.50400000000E-02 0.  1.
    8880023    1    1    2    0    0 -0.11438401443E+03  0.72237199909E+03 -0.13049446069E+04  0.16345016492E+04  0.65864270000E+03 0. -1.
    8880022    1    1    2    0    0  0.11438401443E+03 -0.72237199909E+03 -0.12771255634E+03  0.75802846773E+03  0.15294330000E+03 0.  0.
<mgrwt>
<rscale>  0 0.91871683E+03</rscale>
<asrwt>0</asrwt>
<pdfrwt beam="1">  1        1 0.73836382E-01 0.98423331E+03</pdfrwt>
<pdfrwt beam="2">  1       -1 0.29424517E+00 0.98423331E+03</pdfrwt>
<totfact> 0.17142303E+00</totfact>
</mgrwt>
</event>
<event>
 4    1  0.1043382E-007  0.6851270E+03  0.7818608E-02  0.1006560E+00
         -1   -1    0    0    0  501 -0.00000000000E+00  0.00000000000E+00  0.40401237544E+03  0.40401237547E+03  0.50400000000E-02 0.  1.
          1   -1    0    0  501    0  0.00000000000E+00 -0.00000000000E+00 -0.39871884978E+04  0.39871884978E+04  0.50400000000E-02 0. -1.
    8880023    1    1    2    0    0  0.17165846271E+03 -0.78244523014E+02  0.10666122155E+03  0.69337987831E+03  0.65864270000E+03 0.  1.
    8880022    1    1    2    0    0 -0.17165846271E+03  0.78244523014E+02 -0.36898373440E+04  0.36978209950E+04  0.15294330000E+03 0.  0.
<mgrwt>
<rscale>  0 0.52864833E+03</rscale>
<asrwt>0</asrwt>
<pdfrwt beam="1">  1        1 0.61341359E+00 0.68512702E+03</pdfrwt>
<pdfrwt beam="2">  1       -1 0.62155753E-01 0.68512702E+03</pdfrwt>
<totfact> 0.29334955E-01</totfact>
</mgrwt>
</event>
<event>
 4    1  0.1043382E-007  0.7611040E+03  0.7818608E-02  0.9802258E-01
         -1   -1    0    0    0  501 -0.00000000000E+00  0.00000000000E+00  0.31290179524E+03  0.31290179528E+03  0.50400000000E-02 0.  1.
          1   -1    0    0  501    0  0.00000000000E+00 -0.00000000000E+00 -0.14286468691E+04  0.14286468691E+04  0.50400000000E-02 0. -1.
    8880023    1    1    2    0    0  0.36978688913E+03 -0.93417212443E+02 -0.10905119094E+04  0.13298479423E+04  0.65864270000E+03 0.  0.
    8880022    1    1    2    0    0 -0.36978688913E+03  0.93417212443E+02 -0.25233164514E+02  0.41170072208E+03  0.15294330000E+03 0.  1.
<mgrwt>
<rscale>  0 0.65241525E+03</rscale>
<asrwt>0</asrwt>
<pdfrwt beam="1">  1        1 0.21979182E+00 0.76110402E+03</pdfrwt>
<pdfrwt beam="2">  1       -1 0.48138739E-01 0.76110402E+03</pdfrwt>
<totfact> 0.32568733E+01</totfact>
</mgrwt>
</event>
<event>
 4    1  0.1043382E-007  0.7343420E+03  0.7818608E-02  0.9876746E-01
         -1   -1    0    0    0  501 -0.00000000000E+00  0.00000000000E+00  0.58021668217E+03  0.58021668219E+03  0.50400000000E-02 0.  1.
          1   -1    0    0  501    0  0.00000000000E+00 -0.00000000000E+00 -0.12546806587E+04  0.12546806587E+04  0.50400000000E-02 0. -1.
    8880023    1    1    2    0    0 -0.29982660261E+03 -0.12470728548E+03  0.30240487968E+03  0.79417052086E+03  0.65864270000E+03 0.  1.
    8880022    1    1    2    0    0  0.29982660261E+03  0.12470728548E+03 -0.97686885619E+03  0.10407268200E+04  0.15294330000E+03 0.  0.
<mgrwt>
<rscale>  0 0.61401631E+03</rscale>
<asrwt>0</asrwt>
<pdfrwt beam="1">  1        1 0.19302779E+00 0.73434195E+03</pdfrwt>
<pdfrwt beam="2">  1       -1 0.89264105E-01 0.73434195E+03</pdfrwt>
<totfact> 0.12430762E+01</totfact>
</mgrwt>
</event>
<event>
 4    1  0.1043382E-007  0.6762700E+03  0.7818608E-02  0.1011517E+00
          1   -1    0    0  501    0  0.00000000000E+00  0.00000000000E+00  0.61399826500E+03  0.61399826502E+03  0.50400000000E-02 0. -1.
         -1   -1    0    0    0  501 -0.00000000000E+00 -0.00000000000E+00 -0.41137126164E+03  0.41137126167E+03  0.50400000000E-02 0.  1.
    8880023    1    1    2    0    0  0.93953437608E+02 -0.12125890114E+03 -0.66915105914E+02  0.67957251799E+03  0.65864270000E+03 0.  1.
    8880022    1    1    2    0    0 -0.93953437608E+02  0.12125890114E+03  0.26954210927E+03  0.34579700871E+03  0.15294330000E+03 0.  0.
<mgrwt>
<rscale>  0 0.50875993E+03</rscale>
<asrwt>0</asrwt>
<pdfrwt beam="1">  1        1 0.94461271E-01 0.67627005E+03</pdfrwt>
<pdfrwt beam="2">  1       -1 0.63287887E-01 0.67627005E+03</pdfrwt>
<totfact> 0.85952197E+01</totfact>
</mgrwt>
</event>
<event>
 4    1  0.1043382E-007  0.6602232E+03  0.7818608E-02  0.1023929E+00
         -1   -1    0    0    0  501 -0.00000000000E+00  0.00000000000E+00  0.77510761151E+03  0.77510761153E+03  0.50400000000E-02 0.  1.
          1   -1    0    0  501    0  0.00000000000E+00 -0.00000000000E+00 -0.26273688997E+03  0.26273689002E+03  0.50400000000E-02 0. -1.
    8880023    1    1    2    0    0 -0.14715489222E+02 -0.43219541420E+02  0.56583130301E+03  0.86951696022E+03  0.65864270000E+03 0.  1.
    8880022    1    1    2    0    0  0.14715489222E+02  0.43219541420E+02 -0.53460581472E+02  0.16832754133E+03  0.15294330000E+03 0.  0.
<mgrwt>
<rscale>  0 0.46295072E+03</rscale>
<asrwt>0</asrwt>
<pdfrwt beam="1">  1        1 0.40421060E-01 0.66022321E+03</pdfrwt>
<pdfrwt beam="2">  1       -1 0.11924733E+00 0.66022321E+03</pdfrwt>
<totfact> 0.67168578E+01</totfact>
</mgrwt>
</event>
<event>
 4    1  0.1043382E-007  0.6760306E+03  0.7818608E-02  0.1011664E+00
         -1   -1    0    0    0  501 -0.00000000000E+00  0.00000000000E+00  0.50832424026E+03  0.50832424028E+03  0.50400000000E-02 0.  1.
          1   -1    0    0  501    0  0.00000000000E+00 -0.00000000000E+00 -0.88201987781E+03  0.88201987783E+03  0.50400000000E-02 0. -1.
    8880023    1    1    2    0    0 -0.36610064041E+02  0.14787443850E+03  0.25738078997E+03  0.72336866373E+03  0.65864270000E+03 0.  1.
    8880022    1    1    2    0    0  0.36610064041E+02 -0.14787443850E+03 -0.63107642753E+03  0.66697545438E+03  0.15294330000E+03 0.  0.
<mgrwt>
<rscale>  0 0.50818472E+03</rscale>
<asrwt>0</asrwt>
<pdfrwt beam="1">  1        1 0.13569537E+00 0.67603059E+03</pdfrwt>
<pdfrwt beam="2">  1       -1 0.78203729E-01 0.67603059E+03</pdfrwt>
<totfact> 0.31884485E+01</totfact>
</mgrwt>
</event>
<event>
 4    1  0.1043382E-007  0.1052786E+04  0.7818608E-02  0.9315539E-01
         -1   -1    0    0    0  501 -0.00000000000E+00  0.00000000000E+00  0.10821643051E+04  0.10821643051E+04  0.50400000000E-02 0.  1.
          1   -1    0    0  501    0  0.00000000000E+00 -0.00000000000E+00 -0.22503789161E+04  0.22503789161E+04  0.50400000000E-02 0. -1.
    8880023    1    1    2    0    0 -0.11556102984E+03  0.81313856201E+03  0.71480431975E+03  0.12725187993E+04  0.65864270000E+03 0.  1.
    8880022    1    1    2    0    0  0.11556102984E+03 -0.81313856201E+03 -0.18830189307E+04  0.20600244220E+04  0.15294330000E+03 0.  0.
<mgrwt>
<rscale>  0 0.99364772E+03</rscale>
<asrwt>0</asrwt>
<pdfrwt beam="1">  1        1 0.34621214E+00 0.10527862E+04</pdfrwt>
<pdfrwt beam="2">  1       -1 0.16648682E+00 0.10527862E+04</pdfrwt>
<totfact> 0.52889265E-01</totfact>
</mgrwt>
</event>
<event>
 4    1  0.1043382E-007  0.1216729E+04  0.7818608E-02  0.9141030E-01
         -1   -1    0    0    0  501 -0.00000000000E+00  0.00000000000E+00  0.11890402541E+04  0.11890402541E+04  0.50400000000E-02 0.  1.
          1   -1    0    0  501    0  0.00000000000E+00 -0.00000000000E+00 -0.11618041130E+04  0.11618041130E+04  0.50400000000E-02 0. -1.
    8880023    1    1    2    0    0  0.35735083397E+02  0.10224194433E+04  0.35204407057E+03  0.12666348125E+04  0.65864270000E+03 0.  1.
    8880022    1    1    2    0    0 -0.35735083397E+02 -0.10224194433E+04 -0.32480792949E+03  0.10842095546E+04  0.15294330000E+03 0. -1.
<mgrwt>
<rscale>  0 0.11683388E+04</rscale>
<asrwt>0</asrwt>
<pdfrwt beam="1">  1        1 0.17873909E+00 0.12167287E+04</pdfrwt>
<pdfrwt beam="2">  1       -1 0.18292927E+00 0.12167287E+04</pdfrwt>
<totfact> 0.22123472E+00</totfact>
</mgrwt>
</event>
<event>
 4    1  0.1043382E-007  0.7641544E+03  0.7818608E-02  0.9794469E-01
          1   -1    0    0  501    0  0.00000000000E+00  0.00000000000E+00  0.12712725580E+04  0.12712725581E+04  0.50400000000E-02 0. -1.
         -1   -1    0    0    0  501 -0.00000000000E+00 -0.00000000000E+00 -0.65559984959E+03  0.65559984961E+03  0.50400000000E-02 0.  1.
    8880023    1    1    2    0    0  0.13263491010E+03 -0.36404622772E+03 -0.37571862385E+03  0.85152590440E+03  0.65864270000E+03 0.  1.
    8880022    1    1    2    0    0 -0.13263491010E+03  0.36404622772E+03  0.99139133231E+03  0.10753465033E+04  0.15294330000E+03 0.  0.
<mgrwt>
<rscale>  0 0.65660234E+03</rscale>
<asrwt>0</asrwt>
<pdfrwt beam="1">  1        1 0.19558039E+00 0.76415436E+03</pdfrwt>
<pdfrwt beam="2">  1       -1 0.10086152E+00 0.76415436E+03</pdfrwt>
<totfact> 0.91637762E+00</totfact>
</mgrwt>
</event>
<event>
 4    1  0.1043382E-007  0.8475596E+03  0.7818608E-02  0.9616087E-01
         -1   -1    0    0    0  501 -0.00000000000E+00  0.00000000000E+00  0.10250987629E+04  0.10250987629E+04  0.50400000000E-02 0.  1.
          1   -1    0    0  501    0  0.00000000000E+00 -0.00000000000E+00 -0.60260976549E+03  0.60260976551E+03  0.50400000000E-02 0. -1.
    8880023    1    1    2    0    0  0.18826192312E+03 -0.49910374588E+03  0.60746235516E+03  0.10427693034E+04  0.65864270000E+03 0.  0.
    8880022    1    1    2    0    0 -0.18826192312E+03  0.49910374588E+03 -0.18497335779E+03  0.58493922501E+03  0.15294330000E+03 0.  0.
<mgrwt>
<rscale>  0 0.76240500E+03</rscale>
<asrwt>0</asrwt>
<pdfrwt beam="1">  1        1 0.92709195E-01 0.84755962E+03</pdfrwt>
<pdfrwt beam="2">  1       -1 0.15770750E+00 0.84755962E+03</pdfrwt>
<totfact> 0.10543685E+01</totfact>
</mgrwt>
</event>
<event>
 4    1  0.1043382E-007  0.7695691E+03  0.7818608E-02  0.9780936E-01
          1   -1    0    0  501    0  0.00000000000E+00  0.00000000000E+00  0.65617153864E+03  0.65617153866E+03  0.50400000000E-02 0. -1.
         -1   -1    0    0    0  501 -0.00000000000E+00 -0.00000000000E+00 -0.26178561659E+04  0.26178561659E+04  0.50400000000E-02 0.  1.
    8880023    1    1    2    0    0 -0.36973061954E+03 -0.14739602524E+03 -0.24835865684E+04  0.26000843771E+04  0.65864270000E+03 0.  1.
    8880022    1    1    2    0    0  0.36973061954E+03  0.14739602524E+03  0.52190194119E+03  0.67394332737E+03  0.15294330000E+03 0.  0.
<mgrwt>
<rscale>  0 0.66395752E+03</rscale>
<asrwt>0</asrwt>
<pdfrwt beam="1">  1        1 0.10094947E+00 0.76956905E+03</pdfrwt>
<pdfrwt beam="2">  1       -1 0.40274710E+00 0.76956905E+03</pdfrwt>
<totfact> 0.22055475E-01</totfact>
</mgrwt>
</event>
<event>
 4    1  0.1043382E-007  0.6747791E+03  0.7818608E-02  0.1012446E+00
          1   -1    0    0  501    0  0.00000000000E+00  0.00000000000E+00  0.28538299325E+04  0.28538299325E+04  0.50400000000E-02 0. -1.
         -1   -1    0    0    0  501 -0.00000000000E+00 -0.00000000000E+00 -0.21531142302E+03  0.21531142308E+03  0.50400000000E-02 0.  1.
    8880023    1    1    2    0    0 -0.65925275440E+02  0.13103613725E+03  0.33042016262E+03  0.75133501272E+03  0.65864270000E+03 0.  1.
    8880022    1    1    2    0    0  0.65925275440E+02 -0.13103613725E+03  0.23080983469E+04  0.23178063429E+04  0.15294330000E+03 0. -1.
<mgrwt>
<rscale>  0 0.50514027E+03</rscale>
<asrwt>0</asrwt>
<pdfrwt beam="1">  1        1 0.43905071E+00 0.67477909E+03</pdfrwt>
<pdfrwt beam="2">  1       -1 0.33124838E-01 0.67477909E+03</pdfrwt>
<totfact> 0.70350220E+00</totfact>
</mgrwt>
</event>
<event>
 4    1  0.1043382E-007  0.1274636E+04  0.7818608E-02  0.9087779E-01
         -1   -1    0    0    0  501 -0.00000000000E+00  0.00000000000E+00  0.73430666862E+03  0.73430666864E+03  0.50400000000E-02 0.  1.
          1   -1    0    0  501    0  0.00000000000E+00 -0.00000000000E+00 -0.22673422207E+04  0.22673422207E+04  0.50400000000E-02 0. -1.
    8880023    1    1    2    0    0  0.10912482124E+04  0.79545723165E+01 -0.23014071515E+03  0.12952454946E+04  0.65864270000E+03 0.  0.
    8880022    1    1    2    0    0 -0.10912482124E+04 -0.79545723165E+01 -0.13028948369E+04  0.17064033947E+04  0.15294330000E+03 0.  0.
<mgrwt>
<rscale>  0 0.12290776E+04</rscale>
<asrwt>0</asrwt>
<pdfrwt beam="1">  1        1 0.34882188E+00 0.12746357E+04</pdfrwt>
<pdfrwt beam="2">  1       -1 0.11297026E+00 0.12746357E+04</pdfrwt>
<totfact> 0.13728400E+00</totfact>
</mgrwt>
</event>
<event>
 4    1  0.1043382E-007  0.9248709E+03  0.7818608E-02  0.9487231E-01
         -1   -1    0    0    0  501 -0.00000000000E+00  0.00000000000E+00  0.10320444588E+04  0.10320444588E+04  0.50400000000E-02 0.  1.
          1   -1    0    0  501    0  0.00000000000E+00 -0.00000000000E+00 -0.81710768368E+03  0.81710768370E+03  0.50400000000E-02 0. -1.
    8880023    1    1    2    0    0  0.19535952344E+03  0.61920159221E+03  0.57706856543E+03  0.10901349874E+04  0.65864270000E+03 0.  1.
    8880022    1    1    2    0    0 -0.19535952344E+03 -0.61920159221E+03 -0.36213179033E+03  0.75901715513E+03  0.15294330000E+03 0.  0.
<mgrwt>
<rscale>  0 0.85231844E+03</rscale>
<asrwt>0</asrwt>
<pdfrwt beam="1">  1        1 0.12570887E+00 0.92487089E+03</pdfrwt>
<pdfrwt beam="2">  1       -1 0.15877607E+00 0.92487089E+03</pdfrwt>
<totfact> 0.64485204E+00</totfact>
</mgrwt>
</event>
<event>
 4    1  0.1535298E-007  0.7654270E+03  0.7818608E-02  0.9791255E-01
          1   -1    0    0  501    0  0.00000000000E+00  0.00000000000E+00  0.19578525972E+04  0.19578525972E+04  0.50400000000E-02 0. -1.
         -1   -1    0    0    0  501 -0.00000000000E+00 -0.00000000000E+00 -0.13779598514E+04  0.13779598514E+04  0.50400000000E-02 0.  1.
    8880023    1    1    2    0    0 -0.35267970230E+03 -0.16638924097E+03 -0.12460892247E+04  0.14624010784E+04  0.65864270000E+03 0.  1.
    8880022    1    1    2    0    0  0.35267970230E+03  0.16638924097E+03  0.18259819706E+04  0.18734113701E+04  0.15294330000E+03 0.  0.
<mgrwt>
<rscale>  0 0.65833981E+03</rscale>
<asrwt>0</asrwt>
<pdfrwt beam="1">  1        1 0.30120809E+00 0.76542704E+03</pdfrwt>
<pdfrwt beam="2">  1       -1 0.21199382E+00 0.76542704E+03</pdfrwt>
<totfact> 0.42113564E-01</totfact>
</mgrwt>
</event>
<event>
 4    1  0.1043382E-007  0.7272337E+03  0.7818608E-02  0.9898829E-01
         -1   -1    0    0    0  501 -0.00000000000E+00  0.00000000000E+00  0.45209257671E+03  0.45209257674E+03  0.50400000000E-02 0.  1.
          1   -1    0    0  501    0  0.00000000000E+00 -0.00000000000E+00 -0.96575983654E+03  0.96575983655E+03  0.50400000000E-02 0. -1.
    8880023    1    1    2    0    0 -0.10388879023E+03  0.29028572274E+03  0.80017030751E+02  0.73162258921E+03  0.65864270000E+03 0.  0.
    8880022    1    1    2    0    0  0.10388879023E+03 -0.29028572274E+03 -0.59368429058E+03  0.68622982408E+03  0.15294330000E+03 0.  0.
<mgrwt>
<rscale>  0 0.60318085E+03</rscale>
<asrwt>0</asrwt>
<pdfrwt beam="1">  1        1 0.14857844E+00 0.72723372E+03</pdfrwt>
<pdfrwt beam="2">  1       -1 0.69552704E-01 0.72723372E+03</pdfrwt>
<totfact> 0.34622519E+01</totfact>
</mgrwt>
</event>
<event>
 4    1  0.1043382E-007  0.6798628E+03  0.7818608E-02  0.1009401E+00
          1   -1    0    0  501    0  0.00000000000E+00  0.00000000000E+00  0.30450236939E+04  0.30450236939E+04  0.50400000000E-02 0. -1.
         -1   -1    0    0    0  501 -0.00000000000E+00 -0.00000000000E+00 -0.71717543408E+02  0.71717543585E+02  0.50400000000E-02 0.  1.
    8880023    1    1    2    0    0  0.11091090056E+03 -0.12689345384E+03  0.18586555443E+04  0.19790941906E+04  0.65864270000E+03 0.  1.
    8880022    1    1    2    0    0 -0.11091090056E+03  0.12689345384E+03  0.11146506061E+04  0.11376470469E+04  0.15294330000E+03 0.  1.
<mgrwt>
<rscale>  0 0.51713240E+03</rscale>
<asrwt>0</asrwt>
<pdfrwt beam="1">  1        1 0.46846502E+00 0.67986277E+03</pdfrwt>
<pdfrwt beam="2">  1       -1 0.11033472E-01 0.67986277E+03</pdfrwt>
<totfact> 0.31990704E+01</totfact>
</mgrwt>
</event>
<event>
 4    1  0.1589728E-007  0.7846368E+03  0.7818608E-02  0.9745056E-01
          1   -1    0    0  501    0  0.00000000000E+00  0.00000000000E+00  0.15858623006E+04  0.15858623006E+04  0.50400000000E-02 0. -1.
         -1   -1    0    0    0  501 -0.00000000000E+00 -0.00000000000E+00 -0.13142843674E+04  0.13142843674E+04  0.50400000000E-02 0.  1.
    8880023    1    1    2    0    0  0.21492914403E+03 -0.36830708288E+03 -0.11589609215E+04  0.13995875350E+04  0.65864270000E+03 0.  1.
    8880022    1    1    2    0    0 -0.21492914403E+03  0.36830708288E+03  0.14305388547E+04  0.15005591331E+04  0.15294330000E+03 0.  0.
<mgrwt>
<rscale>  0 0.68396403E+03</rscale>
<asrwt>0</asrwt>
<pdfrwt beam="1">  1        1 0.24397882E+00 0.78463676E+03</pdfrwt>
<pdfrwt beam="2">  1       -1 0.20219760E+00 0.78463676E+03</pdfrwt>
<totfact> 0.86879263E-01</totfact>
</mgrwt>
</event>
<event>
 4    1  0.1043382E-007  0.9101577E+03  0.7818608E-02  0.9509918E-01
          1   -1    0    0  501    0  0.00000000000E+00  0.00000000000E+00  0.31037920842E+04  0.31037920842E+04  0.50400000000E-02 0. -1.
         -1   -1    0    0    0  501 -0.00000000000E+00 -0.00000000000E+00 -0.72011755707E+03  0.72011755709E+03  0.50400000000E-02 0.  1.
    8880023    1    1    2    0    0  0.29843010554E+03  0.55273528474E+03 -0.37950274023E+03  0.98610818828E+03  0.65864270000E+03 0.  1.
    8880022    1    1    2    0    0 -0.29843010554E+03 -0.55273528474E+03  0.27631772674E+04  0.28378014531E+04  0.15294330000E+03 0.  0.
<mgrwt>
<rscale>  0 0.83556536E+03</rscale>
<asrwt>0</asrwt>
<pdfrwt beam="1">  1        1 0.47750647E+00 0.91015769E+03</pdfrwt>
<pdfrwt beam="2">  1       -1 0.11078732E+00 0.91015769E+03</pdfrwt>
<totfact> 0.39428650E-01</totfact>
</mgrwt>
</event>
<event>
 4    1  0.1167210E-007  0.7245341E+03  0.7818608E-02  0.9907532E-01
          1   -1    0    0  501    0  0.00000000000E+00  0.00000000000E+00  0.27824590721E+04  0.27824590721E+04  0.50400000000E-02 0. -1.
         -1   -1    0    0    0  501 -0.00000000000E+00 -0.00000000000E+00 -0.86837249063E+03  0.86837249065E+03  0.50400000000E-02 0.  1.
    8880023    1    1    2    0    0 -0.26960957362E+03  0.13583147553E+03 -0.70443346288E+03  0.10105326426E+04  0.65864270000E+03 0.  1.
    8880022    1    1    2    0    0  0.26960957362E+03 -0.13583147553E+03  0.26185200443E+04  0.26402989201E+04  0.15294330000E+03 0.  0.
<mgrwt>
<rscale>  0 0.59897625E+03</rscale>
<asrwt>0</asrwt>
<pdfrwt beam="1">  1        1 0.42807062E+00 0.72453414E+03</pdfrwt>
<pdfrwt beam="2">  1       -1 0.13359577E+00 0.72453414E+03</pdfrwt>
<totfact> 0.44028318E-01</totfact>
</mgrwt>
</event>
<event>
 4    1  0.1043382E-007  0.7375487E+03  0.7818608E-02  0.9867146E-01
          1   -1    0    0  501    0  0.00000000000E+00  0.00000000000E+00  0.71692368828E+03  0.71692368830E+03  0.50400000000E-02 0. -1.
         -1   -1    0    0    0  501 -0.00000000000E+00 -0.00000000000E+00 -0.54398584964E+03  0.54398584966E+03  0.50400000000E-02 0.  1.
    8880023    1    1    2    0    0 -0.13978363210E+03 -0.30104554696E+03  0.39156819808E+03  0.83504715146E+03  0.65864270000E+03 0. -1.
    8880022    1    1    2    0    0  0.13978363210E+03  0.30104554696E+03 -0.21863035944E+03  0.42586238650E+03  0.15294330000E+03 0.  0.
<mgrwt>
<rscale>  0 0.61880297E+03</rscale>
<asrwt>0</asrwt>
<pdfrwt beam="1">  1        1 0.11029595E+00 0.73754870E+03</pdfrwt>
<pdfrwt beam="2">  1       -1 0.83690131E-01 0.73754870E+03</pdfrwt>
<totfact> 0.38123852E+01</totfact>
</mgrwt>
</event>
<event>
 4    1  0.1043382E-007  0.6720428E+03  0.7818608E-02  0.1014239E+00
          1   -1    0    0  501    0  0.00000000000E+00  0.00000000000E+00  0.33035321624E+03  0.33035321628E+03  0.50400000000E-02 0. -1.
         -1   -1    0    0    0  501 -0.00000000000E+00 -0.00000000000E+00 -0.67642983000E+03  0.67642983002E+03  0.50400000000E-02 0.  1.
    8880023    1    1    2    0    0  0.94814208054E+02  0.94029648456E+02 -0.41794583977E+03  0.79140396769E+03  0.65864270000E+03 0.  1.
    8880022    1    1    2    0    0 -0.94814208054E+02 -0.94029648456E+02  0.71869226015E+02  0.21537907860E+03  0.15294330000E+03 0. -1.
<mgrwt>
<rscale>  0 0.49824173E+03</rscale>
<asrwt>0</asrwt>
<pdfrwt beam="1">  1        1 0.50823572E-01 0.67204279E+03</pdfrwt>
<pdfrwt beam="2">  1       -1 0.10406613E+00 0.67204279E+03</pdfrwt>
<totfact> 0.68832379E+01</totfact>
</mgrwt>
</event>
<event>
 4    1  0.1043382E-007  0.1010758E+04  0.7818608E-02  0.9367616E-01
          1   -1    0    0  501    0  0.00000000000E+00  0.00000000000E+00  0.30169270365E+04  0.30169270365E+04  0.50400000000E-02 0. -1.
         -1   -1    0    0    0  501 -0.00000000000E+00 -0.00000000000E+00 -0.33817274498E+03  0.33817274502E+03  0.50400000000E-02 0.  1.
    8880023    1    1    2    0    0  0.66821717766E+03  0.37590873809E+03  0.70552799823E+03  0.12326400685E+04  0.65864270000E+03 0.  1.
    8880022    1    1    2    0    0 -0.66821717766E+03 -0.37590873809E+03  0.19732262932E+04  0.21224597130E+04  0.15294330000E+03 0.  0.
<mgrwt>
<rscale>  0 0.94789338E+03</rscale>
<asrwt>0</asrwt>
<pdfrwt beam="1">  1        1 0.46414260E+00 0.10107580E+04</pdfrwt>
<pdfrwt beam="2">  1       -1 0.52026579E-01 0.10107580E+04</pdfrwt>
<totfact> 0.22185566E+00</totfact>
</mgrwt>
</event>
<event>
 4    1  0.1043382E-007  0.7011671E+03  0.7818608E-02  0.9992394E-01
         -1   -1    0    0    0  501 -0.00000000000E+00  0.00000000000E+00  0.23566691064E+03  0.23566691070E+03  0.50400000000E-02 0.  1.
          1   -1    0    0  501    0  0.00000000000E+00 -0.00000000000E+00 -0.10959465260E+04  0.10959465261E+04  0.50400000000E-02 0. -1.
    8880023    1    1    2    0    0 -0.20304215735E+03  0.12883683594E+03 -0.45388196145E+03  0.83525091388E+03  0.65864270000E+03 0.  0.
    8880022    1    1    2    0    0  0.20304215735E+03 -0.12883683594E+03 -0.40639765396E+03  0.49636252287E+03  0.15294330000E+03 0.  0.
<mgrwt>
<rscale>  0 0.55985015E+03</rscale>
<asrwt>0</asrwt>
<pdfrwt beam="1">  1        1 0.16860716E+00 0.70116707E+03</pdfrwt>
<pdfrwt beam="2">  1       -1 0.36256448E-01 0.70116707E+03</pdfrwt>
<totfact> 0.95247384E+01</totfact>
</mgrwt>
</event>
<event>
 4    1  0.1043382E-007  0.6932344E+03  0.7818608E-02  0.1002652E+00
          1   -1    0    0  501    0  0.00000000000E+00  0.00000000000E+00  0.83869324673E+03  0.83869324675E+03  0.50400000000E-02 0. -1.
         -1   -1    0    0    0  501 -0.00000000000E+00 -0.00000000000E+00 -0.30799069386E+03  0.30799069390E+03  0.50400000000E-02 0.  1.
    8880023    1    1    2    0    0 -0.21401663818E+03  0.30993465104E+02  0.19708133911E+03  0.72070450032E+03  0.65864270000E+03 0.  1.
    8880022    1    1    2    0    0  0.21401663818E+03 -0.30993465104E+02  0.33362121376E+03  0.42597944033E+03  0.15294330000E+03 0.  0.
<mgrwt>
<rscale>  0 0.54502659E+03</rscale>
<asrwt>0</asrwt>
<pdfrwt beam="1">  1        1 0.12902973E+00 0.69323439E+03</pdfrwt>
<pdfrwt beam="2">  1       -1 0.47383184E-01 0.69323439E+03</pdfrwt>
<totfact> 0.93181606E+01</totfact>
</mgrwt>
</event>
<event>
 4    1  0.1043382E-007  0.8043521E+03  0.7818608E-02  0.9701464E-01
          1   -1    0    0  501    0  0.00000000000E+00  0.00000000000E+00  0.10916002045E+04  0.10916002045E+04  0.50400000000E-02 0. -1.
         -1   -1    0    0    0  501 -0.00000000000E+00 -0.00000000000E+00 -0.62403160980E+03  0.62403160982E+03  0.50400000000E-02 0.  1.
    8880023    1    1    2    0    0 -0.19311217643E+02 -0.46130155271E+03 -0.25571578917E+03  0.84402181059E+03  0.65864270000E+03 0.  1.
    8880022    1    1    2    0    0  0.19311217643E+02  0.46130155271E+03  0.72328438386E+03  0.87161000374E+03  0.15294330000E+03 0.  0.
<mgrwt>
<rscale>  0 0.70929704E+03</rscale>
<asrwt>0</asrwt>
<pdfrwt beam="1">  1        1 0.16793849E+00 0.80435207E+03</pdfrwt>
<pdfrwt beam="2">  1       -1 0.96004864E-01 0.80435207E+03</pdfrwt>
<totfact> 0.13785600E+01</totfact>
</mgrwt>
</event>
<event>
 4    1  0.1043382E-007  0.9160020E+03  0.7818608E-02  0.9500817E-01
         -1   -1    0    0    0  501 -0.00000000000E+00  0.00000000000E+00  0.13059130476E+04  0.13059130477E+04  0.50400000000E-02 0.  1.
          1   -1    0    0  501    0  0.00000000000E+00 -0.00000000000E+00 -0.67269349788E+03  0.67269349790E+03  0.50400000000E-02 0. -1.
    8880023    1    1    2    0    0  0.47588840799E+03 -0.42282349644E+03  0.88828017228E+03  0.12759707507E+04  0.65864270000E+03 0.  0.
    8880022    1    1    2    0    0 -0.47588840799E+03  0.42282349644E+03 -0.25506062251E+03  0.70263579483E+03  0.15294330000E+03 0.  0.
<mgrwt>
<rscale>  0 0.84223649E+03</rscale>
<asrwt>0</asrwt>
<pdfrwt beam="1">  1        1 0.10349131E+00 0.91600202E+03</pdfrwt>
<pdfrwt beam="2">  1       -1 0.20090970E+00 0.91600202E+03</pdfrwt>
<totfact> 0.43526919E+00</totfact>
</mgrwt>
</event>
<event>
 4    1  0.1043382E-007  0.7360096E+03  0.7818608E-02  0.9871727E-01
         -1   -1    0    0    0  501 -0.00000000000E+00  0.00000000000E+00  0.46872064137E+03  0.46872064140E+03  0.50400000000E-02 0.  1.
          1   -1    0    0  501    0  0.00000000000E+00 -0.00000000000E+00 -0.81640270969E+03  0.81640270970E+03  0.50400000000E-02 0. -1.
    8880023    1    1    2    0    0  0.21406010406E+03 -0.24915504357E+03  0.61493368969E+02  0.73857403459E+03  0.65864270000E+03 0.  1.
    8880022    1    1    2    0    0 -0.21406010406E+03  0.24915504357E+03 -0.40917543728E+03  0.54654931651E+03  0.15294330000E+03 0.  0.
<mgrwt>
<rscale>  0 0.61651301E+03</rscale>
<asrwt>0</asrwt>
<pdfrwt beam="1">  1        1 0.12560042E+00 0.73600963E+03</pdfrwt>
<pdfrwt beam="2">  1       -1 0.72110868E-01 0.73600963E+03</pdfrwt>
<totfact> 0.42565717E+01</totfact>
</mgrwt>
</event>
<event>
 4    1  0.1043382E-007  0.1571516E+04  0.7818608E-02  0.8860720E-01
         -1   -1    0    0    0  501 -0.00000000000E+00  0.00000000000E+00  0.11433210168E+04  0.11433210168E+04  0.50400000000E-02 0.  1.
          1   -1    0    0  501    0  0.00000000000E+00 -0.00000000000E+00 -0.26371295261E+04  0.26371295261E+04  0.50400000000E-02 0. -1.
    8880023    1    1    2    0    0 -0.62549716479E+03  0.12824221655E+04  0.17301134147E+03  0.15810112094E+04  0.65864270000E+03 0.  0.
    8880022    1    1    2    0    0  0.62549716479E+03 -0.12824221655E+04 -0.16668198508E+04  0.21994393335E+04  0.15294330000E+03 0.  0.
<mgrwt>
<rscale>  0 0.15362174E+04</rscale>
<asrwt>0</asrwt>
<pdfrwt beam="1">  1        1 0.40571223E+00 0.15715163E+04</pdfrwt>
<pdfrwt beam="2">  1       -1 0.17589554E+00 0.15715163E+04</pdfrwt>
<totfact> 0.22755646E-01</totfact>
</mgrwt>
</event>
<event>
 4    1  0.1043382E-007  0.7433974E+03  0.7818608E-02  0.9850159E-01
          1   -1    0    0  501    0  0.00000000000E+00  0.00000000000E+00  0.11546946339E+04  0.11546946339E+04  0.50400000000E-02 0. -1.
         -1   -1    0    0    0  501 -0.00000000000E+00 -0.00000000000E+00 -0.49966907583E+03  0.49966907586E+03  0.50400000000E-02 0.  1.
    8880023    1    1    2    0    0  0.34444459842E+03  0.13688593135E+02 -0.15632054245E+03  0.75965503830E+03  0.65864270000E+03 0.  0.
    8880022    1    1    2    0    0 -0.34444459842E+03 -0.13688593135E+02  0.81134610051E+03  0.89470867146E+03  0.15294330000E+03 0.  0.
<mgrwt>
<rscale>  0 0.62738810E+03</rscale>
<asrwt>0</asrwt>
<pdfrwt beam="1">  1        1 0.17764533E+00 0.74339738E+03</pdfrwt>
<pdfrwt beam="2">  1       -1 0.76872166E-01 0.74339738E+03</pdfrwt>
<totfact> 0.20205337E+01</totfact>
</mgrwt>
</event>
<event>
 4    1  0.1043382E-007  0.6948226E+03  0.7818608E-02  0.1001940E+00
         -1   -1    0    0    0  501 -0.00000000000E+00  0.00000000000E+00  0.60586191462E+03  0.60586191464E+03  0.50400000000E-02 0.  1.
          1   -1    0    0  501    0  0.00000000000E+00 -0.00000000000E+00 -0.47733697429E+03  0.47733697432E+03  0.50400000000E-02 0. -1.
    8880023    1    1    2    0    0 -0.10171660638E+03  0.19652484409E+03  0.30778766884E+03  0.75994193048E+03  0.65864270000E+03 0.  1.
    8880022    1    1    2    0    0  0.10171660638E+03 -0.19652484409E+03 -0.17926272851E+03  0.32325695848E+03  0.15294330000E+03 0.  0.
<mgrwt>
<rscale>  0 0.54807846E+03</rscale>
<asrwt>0</asrwt>
<pdfrwt beam="1">  1        1 0.73436457E-01 0.69482263E+03</pdfrwt>
<pdfrwt beam="2">  1       -1 0.93209526E-01 0.69482263E+03</pdfrwt>
<totfact> 0.54147779E+01</totfact>
</mgrwt>
</event>
<event>
 4    1  0.1043382E-007  0.9181221E+03  0.7818608E-02  0.9497544E-01
         -1   -1    0    0    0  501 -0.00000000000E+00  0.00000000000E+00  0.11875719167E+04  0.11875719168E+04  0.50400000000E-02 0.  1.
          1   -1    0    0  501    0  0.00000000000E+00 -0.00000000000E+00 -0.87329121353E+03  0.87329121355E+03  0.50400000000E-02 0. -1.
    8880023    1    1    2    0    0 -0.10258716138E+03 -0.63135868323E+03  0.82018889281E+03  0.12311206028E+04  0.65864270000E+03 0.  0.
    8880022    1    1    2    0    0  0.10258716138E+03  0.63135868323E+03 -0.50590818959E+03  0.82974252747E+03  0.15294330000E+03 0.  0.
<mgrwt>
<rscale>  0 0.84465098E+03</rscale>
<asrwt>0</asrwt>
<pdfrwt beam="1">  1        1 0.13435249E+00 0.91812206E+03</pdfrwt>
<pdfrwt beam="2">  1       -1 0.18270337E+00 0.91812206E+03</pdfrwt>
<totfact> 0.38615461E+00</totfact>
</mgrwt>
</event>
<event>
 4    1  0.1043382E-007  0.8199500E+03  0.7818608E-02  0.9669212E-01
          1   -1    0    0  501    0  0.00000000000E+00  0.00000000000E+00  0.66759200920E+03  0.66759200921E+03  0.50400000000E-02 0. -1.
         -1   -1    0    0    0  501 -0.00000000000E+00 -0.00000000000E+00 -0.94073282513E+03  0.94073282514E+03  0.50400000000E-02 0.  1.
    8880023    1    1    2    0    0  0.48828858977E+03  0.90622786295E+01 -0.58661747360E+03  0.10081855674E+04  0.65864270000E+03 0.  1.
    8880022    1    1    2    0    0 -0.48828858977E+03 -0.90622786295E+01  0.31347665766E+03  0.60013926692E+03  0.15294330000E+03 0.  0.
<mgrwt>
<rscale>  0 0.72879836E+03</rscale>
<asrwt>0</asrwt>
<pdfrwt beam="1">  1        1 0.10270646E+00 0.81995005E+03</pdfrwt>
<pdfrwt beam="2">  1       -1 0.14472813E+00 0.81995005E+03</pdfrwt>
<totfact> 0.11476164E+01</totfact>
</mgrwt>
</event>
<event>
 4    1  0.1043382E-007  0.8863820E+03  0.7818608E-02  0.9548256E-01
         -1   -1    0    0    0  501 -0.00000000000E+00  0.00000000000E+00  0.93528458472E+03  0.93528458474E+03  0.50400000000E-02 0.  1.
          1   -1    0    0  501    0  0.00000000000E+00 -0.00000000000E+00 -0.15101101254E+04  0.15101101254E+04  0.50400000000E-02 0. -1.
    8880023    1    1    2    0    0  0.53625285438E+03 -0.25356607238E+03  0.63429203300E+03  0.10899538826E+04  0.65864270000E+03 0.  0.
    8880022    1    1    2    0    0 -0.53625285438E+03  0.25356607238E+03 -0.12091175737E+04  0.13554408275E+04  0.15294330000E+03 0.  0.
<mgrwt>
<rscale>  0 0.80817692E+03</rscale>
<asrwt>0</asrwt>
<pdfrwt beam="1">  1        1 0.23232464E+00 0.88638202E+03</pdfrwt>
<pdfrwt beam="2">  1       -1 0.14388994E+00 0.88638202E+03</pdfrwt>
<totfact> 0.25654529E+00</totfact>
</mgrwt>
</event>
<event>
 4    1  0.1043382E-007  0.7785113E+03  0.7818608E-02  0.9759346E-01
          1   -1    0    0  501    0  0.00000000000E+00  0.00000000000E+00  0.57910487956E+03  0.57910487959E+03  0.50400000000E-02 0. -1.
         -1   -1    0    0    0  501 -0.00000000000E+00 -0.00000000000E+00 -0.10374223158E+04  0.10374223158E+04  0.50400000000E-02 0.  1.
    8880023    1    1    2    0    0 -0.41015278143E+03 -0.63594481344E+02 -0.75454160340E+03  0.10841645630E+04  0.65864270000E+03 0.  1.
    8880022    1    1    2    0    0  0.41015278143E+03  0.63594481344E+02  0.29622416714E+03  0.53236263241E+03  0.15294330000E+03 0.  0.
<mgrwt>
<rscale>  0 0.67590672E+03</rscale>
<asrwt>0</asrwt>
<pdfrwt beam="1">  1        1 0.89093059E-01 0.77851125E+03</pdfrwt>
<pdfrwt beam="2">  1       -1 0.15960343E+00 0.77851125E+03</pdfrwt>
<totfact> 0.10886497E+01</totfact>
</mgrwt>
</event>
<event>
 4    1  0.1043382E-007  0.1415987E+04  0.7818608E-02  0.8971359E-01
          1   -1    0    0  501    0  0.00000000000E+00  0.00000000000E+00  0.23931147605E+04  0.23931147605E+04  0.50400000000E-02 0. -1.
         -1   -1    0    0    0  501 -0.00000000000E+00 -0.00000000000E+00 -0.14532568759E+04  0.14532568759E+04  0.50400000000E-02 0.  1.
    8880023    1    1    2    0    0 -0.15627816279E+03 -0.12436988685E+04 -0.85328146786E+03  0.16532117860E+04  0.65864270000E+03 0.  0.
    8880022    1    1    2    0    0  0.15627816279E+03  0.12436988685E+04  0.17931393525E+04  0.21931598505E+04  0.15294330000E+03 0.  0.
<mgrwt>
<rscale>  0 0.13760241E+04</rscale>
<asrwt>0</asrwt>
<pdfrwt beam="1">  1        1 0.36817149E+00 0.14159873E+04</pdfrwt>
<pdfrwt beam="2">  1       -1 0.22357799E+00 0.14159873E+04</pdfrwt>
<totfact> 0.15966717E-01</totfact>
</mgrwt>
</event>
<event>
 4    1  0.1043382E-007  0.8286892E+03  0.7818608E-02  0.9651888E-01
         -1   -1    0    0    0  501 -0.00000000000E+00  0.00000000000E+00  0.49541430874E+03  0.49541430876E+03  0.50400000000E-02 0.  1.
          1   -1    0    0  501    0  0.00000000000E+00 -0.00000000000E+00 -0.17505950313E+04  0.17505950313E+04  0.50400000000E-02 0. -1.
    8880023    1    1    2    0    0 -0.28000616755E+03 -0.41774646122E+03  0.58814962821E+02  0.83077371518E+03  0.65864270000E+03 0.  1.
    8880022    1    1    2    0    0  0.28000616755E+03  0.41774646122E+03 -0.13139956854E+04  0.14152356249E+04  0.15294330000E+03 0.  0.
<mgrwt>
<rscale>  0 0.73955041E+03</rscale>
<asrwt>0</asrwt>
<pdfrwt beam="1">  1        1 0.26932231E+00 0.82868919E+03</pdfrwt>
<pdfrwt beam="2">  1       -1 0.76217587E-01 0.82868919E+03</pdfrwt>
<totfact> 0.78446010E+00</totfact>
</mgrwt>
</event>
<event>
 4    1  0.1043382E-007  0.9313629E+03  0.7818608E-02  0.9477452E-01
          1   -1    0    0  501    0  0.00000000000E+00  0.00000000000E+00  0.17747021225E+04  0.17747021225E+04  0.50400000000E-02 0. -1.
         -1   -1    0    0    0  501 -0.00000000000E+00 -0.00000000000E+00 -0.47164356778E+03  0.47164356781E+03  0.50400000000E-02 0.  1.
    8880023    1    1    2    0    0 -0.65726469623E+03  0.40369833586E+02  0.19997895789E+03  0.95259036015E+03  0.65864270000E+03 0.  0.
    8880022    1    1    2    0    0  0.65726469623E+03 -0.40369833586E+02  0.11030795968E+04  0.12937553301E+04  0.15294330000E+03 0.  0.
<mgrwt>
<rscale>  0 0.85966825E+03</rscale>
<asrwt>0</asrwt>
<pdfrwt beam="1">  1        1 0.27303110E+00 0.93136288E+03</pdfrwt>
<pdfrwt beam="2">  1       -1 0.72560548E-01 0.93136288E+03</pdfrwt>
<totfact> 0.82582216E+00</totfact>
</mgrwt>
</event>
<event>
 4    1  0.1043382E-007  0.6943953E+03  0.7818608E-02  0.1002130E+00
          1   -1    0    0  501    0  0.00000000000E+00  0.00000000000E+00  0.11128692161E+04  0.11128692161E+04  0.50400000000E-02 0. -1.
         -1   -1    0    0    0  501 -0.00000000000E+00 -0.00000000000E+00 -0.37913521302E+03  0.37913521305E+03  0.50400000000E-02 0.  1.
    8880023    1    1    2    0    0 -0.12224683169E+02  0.21960218734E+03 -0.17311952451E+02  0.69461102318E+03  0.65864270000E+03 0.  1.
    8880022    1    1    2    0    0  0.12224683169E+02 -0.21960218734E+03  0.75104595550E+03  0.79739340594E+03  0.15294330000E+03 0.  0.
<mgrwt>
<rscale>  0 0.54726171E+03</rscale>
<asrwt>0</asrwt>
<pdfrwt beam="1">  1        1 0.17121065E+00 0.69439525E+03</pdfrwt>
<pdfrwt beam="2">  1       -1 0.58328494E-01 0.69439525E+03</pdfrwt>
<totfact> 0.38148776E+01</totfact>
</mgrwt>
</event>
<event>
 4    1  0.1043382E-007  0.8934625E+03  0.7818608E-02  0.9536609E-01
          1   -1    0    0  501    0  0.00000000000E+00  0.00000000000E+00  0.16155748821E+04  0.16155748821E+04  0.50400000000E-02 0. -1.
         -1   -1    0    0    0  501 -0.00000000000E+00 -0.00000000000E+00 -0.99408598958E+03  0.99408598959E+03  0.50400000000E-02 0.  1.
    8880023    1    1    2    0    0 -0.58524438412E+03 -0.14816899598E+03 -0.70902185238E+03  0.11406082737E+04  0.65864270000E+03 0.  1.
    8880022    1    1    2    0    0  0.58524438412E+03  0.14816899598E+03  0.13305107449E+04  0.14690525980E+04  0.15294330000E+03 0.  0.
<mgrwt>
<rscale>  0 0.81637775E+03</rscale>
<asrwt>0</asrwt>
<pdfrwt beam="1">  1        1 0.24854998E+00 0.89346250E+03</pdfrwt>
<pdfrwt beam="2">  1       -1 0.15293631E+00 0.89346250E+03</pdfrwt>
<totfact> 0.18435638E+00</totfact>
</mgrwt>
</event>
<event>
 4    1  0.1043382E-007  0.8757972E+03  0.7818608E-02  0.9566058E-01
         -1   -1    0    0    0  501 -0.00000000000E+00  0.00000000000E+00  0.94522656922E+03  0.94522656923E+03  0.50400000000E-02 0.  1.
          1   -1    0    0  501    0  0.00000000000E+00 -0.00000000000E+00 -0.84606937950E+03  0.84606937952E+03  0.50400000000E-02 0. -1.
    8880023    1    1    2    0    0 -0.15412605144E+02  0.57703816719E+03  0.55778766791E+03  0.10383390022E+04  0.65864270000E+03 0.  0.
    8880022    1    1    2    0    0  0.15412605144E+02 -0.57703816719E+03 -0.45863047819E+03  0.75295694653E+03  0.15294330000E+03 0.  0.
<mgrwt>
<rscale>  0 0.79583986E+03</rscale>
<asrwt>0</asrwt>
<pdfrwt beam="1">  1        1 0.13016452E+00 0.87579724E+03</pdfrwt>
<pdfrwt beam="2">  1       -1 0.14541947E+00 0.87579724E+03</pdfrwt>
<totfact> 0.77757561E+00</totfact>
</mgrwt>
</event>
<event>
 4    1  0.1043382E-007  0.7364339E+03  0.7818608E-02  0.9870459E-01
          1   -1    0    0  501    0  0.00000000000E+00  0.00000000000E+00  0.13571781583E+04  0.13571781583E+04  0.50400000000E-02 0. -1.
         -1   -1    0    0    0  501 -0.00000000000E+00 -0.00000000000E+00 -0.44270438144E+03  0.44270438146E+03  0.50400000000E-02 0.  1.
    8880023    1    1    2    0    0  0.41261212042E+01 -0.32940490016E+03 -0.80375323145E+02  0.74080700048E+03  0.65864270000E+03 0.  1.
    8880022    1    1    2    0    0 -0.41261212042E+01  0.32940490016E+03  0.99484910004E+03  0.10590755393E+04  0.15294330000E+03 0.  0.
<mgrwt>
<rscale>  0 0.61714555E+03</rscale>
<asrwt>0</asrwt>
<pdfrwt beam="1">  1        1 0.20879663E+00 0.73643385E+03</pdfrwt>
<pdfrwt beam="2">  1       -1 0.68108368E-01 0.73643385E+03</pdfrwt>
<totfact> 0.18607219E+01</totfact>
</mgrwt>
</event>
<event>
 4    1  0.1043382E-007  0.6644812E+03  0.7818608E-02  0.1019973E+00
          1   -1    0    0  501    0  0.00000000000E+00  0.00000000000E+00  0.80711800790E+03  0.80711800792E+03  0.50400000000E-02 0. -1.
         -1   -1    0    0    0  501 -0.00000000000E+00 -0.00000000000E+00 -0.35519765729E+03  0.35519765733E+03  0.50400000000E-02 0.  1.
    8880023    1    1    2    0    0 -0.41168512170E+02 -0.77654762601E+02 -0.13468184198E+02  0.66461771478E+03  0.65864270000E+03 0.  1.
    8880022    1    1    2    0    0  0.41168512170E+02  0.77654762601E+02  0.46538853481E+03  0.49769795046E+03  0.15294330000E+03 0.  0.
<mgrwt>
<rscale>  0 0.47696481E+03</rscale>
<asrwt>0</asrwt>
<pdfrwt beam="1">  1        1 0.12417200E+00 0.66448124E+03</pdfrwt>
<pdfrwt beam="2">  1       -1 0.54645794E-01 0.66448124E+03</pdfrwt>
<totfact> 0.75817404E+01</totfact>
</mgrwt>
</event>
<event>
 4    1  0.1043382E-007  0.7310169E+03  0.7818608E-02  0.9886932E-01
         -1   -1    0    0    0  501 -0.00000000000E+00  0.00000000000E+00  0.70687894536E+03  0.70687894538E+03  0.50400000000E-02 0.  1.
          1   -1    0    0  501    0  0.00000000000E+00 -0.00000000000E+00 -0.47813877280E+03  0.47813877283E+03  0.50400000000E-02 0. -1.
    8880023    1    1    2    0    0 -0.25568746864E+03  0.18761527113E+03  0.35281669096E+03  0.81170523915E+03  0.65864270000E+03 0.  0.
    8880022    1    1    2    0    0  0.25568746864E+03 -0.18761527113E+03 -0.12407651841E+03  0.37331247905E+03  0.15294330000E+03 0.  0.
<mgrwt>
<rscale>  0 0.60898829E+03</rscale>
<asrwt>0</asrwt>
<pdfrwt beam="1">  1        1 0.73559812E-01 0.73101695E+03</pdfrwt>
<pdfrwt beam="2">  1       -1 0.10875061E+00 0.73101695E+03</pdfrwt>
<totfact> 0.37860791E+01</totfact>
</mgrwt>
</event>
<event>
 4    1  0.1043382E-007  0.7109920E+03  0.7818608E-02  0.9954336E-01
         -1   -1    0    0    0  501 -0.00000000000E+00  0.00000000000E+00  0.32383069262E+03  0.32383069266E+03  0.50400000000E-02 0.  1.
          1   -1    0    0  501    0  0.00000000000E+00 -0.00000000000E+00 -0.15440017794E+04  0.15440017794E+04  0.50400000000E-02 0. -1.
    8880023    1    1    2    0    0  0.54302080822E+01  0.26771234570E+03 -0.11473329945E+03  0.72018978295E+03  0.65864270000E+03 0.  1.
    8880022    1    1    2    0    0 -0.54302080822E+01 -0.26771234570E+03 -0.11054377874E+04  0.11476426891E+04  0.15294330000E+03 0.  0.
<mgrwt>
<rscale>  0 0.57698693E+03</rscale>
<asrwt>0</asrwt>
<pdfrwt beam="1">  1        1 0.23753873E+00 0.71099198E+03</pdfrwt>
<pdfrwt beam="2">  1       -1 0.49820107E-01 0.71099198E+03</pdfrwt>
<totfact> 0.25602924E+01</totfact>
</mgrwt>
</event>
<event>
 4    1  0.1043382E-007  0.1082920E+04  0.7818608E-02  0.9280315E-01
          1   -1    0    0  501    0  0.00000000000E+00  0.00000000000E+00  0.10321150584E+04  0.10321150585E+04  0.50400000000E-02 0. -1.
         -1   -1    0    0    0  501 -0.00000000000E+00 -0.00000000000E+00 -0.10913297390E+04  0.10913297390E+04  0.50400000000E-02 0.  1.
    8880023    1    1    2    0    0  0.50577451034E+03 -0.69505282138E+03 -0.44260677415E+03  0.11698791573E+04  0.65864270000E+03 0.  0.
    8880022    1    1    2    0    0 -0.50577451034E+03  0.69505282138E+03  0.38339209356E+03  0.95356564024E+03  0.15294330000E+03 0.  0.
<mgrwt>
<rscale>  0 0.10261550E+04</rscale>
<asrwt>0</asrwt>
<pdfrwt beam="1">  1        1 0.15878693E+00 0.10829204E+04</pdfrwt>
<pdfrwt beam="2">  1       -1 0.16789688E+00 0.10829204E+04</pdfrwt>
<totfact> 0.36192839E+00</totfact>
</mgrwt>
</event>
<event>
 4    1  0.1043382E-007  0.7394857E+03  0.7818608E-02  0.9861448E-01
          1   -1    0    0  501    0  0.00000000000E+00  0.00000000000E+00  0.36469630365E+03  0.36469630368E+03  0.50400000000E-02 0. -1.
         -1   -1    0    0    0  501 -0.00000000000E+00 -0.00000000000E+00 -0.25334755077E+04  0.25334755077E+04  0.50400000000E-02 0.  1.
    8880023    1    1    2    0    0 -0.89682217218E+02 -0.32401537681E+03 -0.23664165076E+04  0.24792672623E+04  0.65864270000E+03 0.  0.
    8880022    1    1    2    0    0  0.89682217218E+02  0.32401537681E+03  0.19763730349E+03  0.41890454908E+03  0.15294330000E+03 0.  0.
<mgrwt>
<rscale>  0 0.62166625E+03</rscale>
<asrwt>0</asrwt>
<pdfrwt beam="1">  1        1 0.56107125E-01 0.73948568E+03</pdfrwt>
<pdfrwt beam="2">  1       -1 0.38976545E+00 0.73948568E+03</pdfrwt>
<totfact> 0.61037681E-01</totfact>
</mgrwt>
</event>
<event>
 4    1  0.1043382E-007  0.7354836E+03  0.7818608E-02  0.9873304E-01
          1   -1    0    0  501    0  0.00000000000E+00  0.00000000000E+00  0.27636852347E+04  0.27636852347E+04  0.50400000000E-02 0. -1.
         -1   -1    0    0    0  501 -0.00000000000E+00 -0.00000000000E+00 -0.56643335665E+03  0.56643335667E+03  0.50400000000E-02 0.  1.
    8880023    1    1    2    0    0  0.66592474091E+02  0.32045485450E+03 -0.30914861281E+03  0.79781510543E+03  0.65864270000E+03 0.  1.
    8880022    1    1    2    0    0 -0.66592474091E+02 -0.32045485450E+03  0.25064004909E+04  0.25323034860E+04  0.15294330000E+03 0.  0.
<mgrwt>
<rscale>  0 0.61572719E+03</rscale>
<asrwt>0</asrwt>
<pdfrwt beam="1">  1        1 0.42518235E+00 0.73548357E+03</pdfrwt>
<pdfrwt beam="2">  1       -1 0.87143593E-01 0.73548357E+03</pdfrwt>
<totfact> 0.12337194E+00</totfact>
</mgrwt>
</event>
<event>
 4    1  0.1043382E-007  0.8327193E+03  0.7818608E-02  0.9644064E-01
         -1   -1    0    0    0  501 -0.00000000000E+00  0.00000000000E+00  0.88159153501E+03  0.88159153502E+03  0.50400000000E-02 0.  1.
          1   -1    0    0  501    0  0.00000000000E+00 -0.00000000000E+00 -0.12312265400E+04  0.12312265400E+04  0.50400000000E-02 0. -1.
    8880023    1    1    2    0    0  0.49820435077E+03  0.10678813001E+03  0.59860291527E+03  0.10255471400E+04  0.65864270000E+03 0.  1.
    8880022    1    1    2    0    0 -0.49820435077E+03 -0.10678813001E+03 -0.94823792028E+03  0.10872709351E+04  0.15294330000E+03 0.  0.
<mgrwt>
<rscale>  0 0.74447112E+03</rscale>
<asrwt>0</asrwt>
<pdfrwt beam="1">  1        1 0.18941947E+00 0.83271933E+03</pdfrwt>
<pdfrwt beam="2">  1       -1 0.13562947E+00 0.83271933E+03</pdfrwt>
<totfact> 0.47340886E+00</totfact>
</mgrwt>
</event>
<event>
 4    1  0.1043382E-007  0.7457369E+03  0.7818608E-02  0.9843540E-01
         -1   -1    0    0    0  501 -0.00000000000E+00  0.00000000000E+00  0.84417591806E+03  0.84417591808E+03  0.50400000000E-02 0.  1.
          1   -1    0    0  501    0  0.00000000000E+00 -0.00000000000E+00 -0.11084923886E+04  0.11084923886E+04  0.50400000000E-02 0. -1.
    8880023    1    1    2    0    0 -0.11322784245E+03 -0.33089689297E+03  0.63259716804E+03  0.97790729691E+03  0.65864270000E+03 0.  1.
    8880022    1    1    2    0    0  0.11322784245E+03  0.33089689297E+03 -0.89691363856E+03  0.97476100975E+03  0.15294330000E+03 0.  0.
<mgrwt>
<rscale>  0 0.63077360E+03</rscale>
<asrwt>0</asrwt>
<pdfrwt beam="1">  1        1 0.17053729E+00 0.74573689E+03</pdfrwt>
<pdfrwt beam="2">  1       -1 0.12987322E+00 0.74573689E+03</pdfrwt>
<totfact> 0.65833946E+00</totfact>
</mgrwt>
</event>
<event>
 4    1  0.1043382E-007  0.6734722E+03  0.7818608E-02  0.1013287E+00
         -1   -1    0    0    0  501 -0.00000000000E+00  0.00000000000E+00  0.39463520962E+03  0.39463520965E+03  0.50400000000E-02 0.  1.
          1   -1    0    0  501    0  0.00000000000E+00 -0.00000000000E+00 -0.92579598725E+03  0.92579598726E+03  0.50400000000E-02 0. -1.
    8880023    1    1    2    0    0  0.15689829620E+02  0.13967257094E+03  0.76920946289E+02  0.67785074763E+03  0.65864270000E+03 0.  1.
    8880022    1    1    2    0    0 -0.15689829620E+02 -0.13967257094E+03 -0.60808172392E+03  0.64258044928E+03  0.15294330000E+03 0.  0.
<mgrwt>
<rscale>  0 0.50188895E+03</rscale>
<asrwt>0</asrwt>
<pdfrwt beam="1">  1        1 0.14243015E+00 0.67347220E+03</pdfrwt>
<pdfrwt beam="2">  1       -1 0.60713109E-01 0.67347220E+03</pdfrwt>
<totfact> 0.49210171E+01</totfact>
</mgrwt>
</event>
<event>
 4    1  0.1043382E-007  0.6768082E+03  0.7818608E-02  0.1011190E+00
         -1   -1    0    0    0  501 -0.00000000000E+00  0.00000000000E+00  0.73875999074E+03  0.73875999076E+03  0.50400000000E-02 0.  1.
          1   -1    0    0  501    0  0.00000000000E+00 -0.00000000000E+00 -0.10382146760E+04  0.10382146760E+04  0.50400000000E-02 0. -1.
    8880023    1    1    2    0    0  0.59678365052E+02  0.14386646084E+03  0.56732226397E+03  0.88313295900E+03  0.65864270000E+03 0.  1.
    8880022    1    1    2    0    0 -0.59678365052E+02 -0.14386646084E+03 -0.86677694922E+03  0.89384170775E+03  0.15294330000E+03 0.  0.
<mgrwt>
<rscale>  0 0.51004426E+03</rscale>
<asrwt>0</asrwt>
<pdfrwt beam="1">  1        1 0.15972534E+00 0.67680815E+03</pdfrwt>
<pdfrwt beam="2">  1       -1 0.11365538E+00 0.67680815E+03</pdfrwt>
<totfact> 0.10415102E+01</totfact>
</mgrwt>
</event>
<event>
 4    1  0.1043382E-007  0.7354168E+03  0.7818608E-02  0.9873505E-01
          1   -1    0    0  501    0  0.00000000000E+00  0.00000000000E+00  0.26558398640E+04  0.26558398640E+04  0.50400000000E-02 0. -1.
         -1   -1    0    0    0  501 -0.00000000000E+00 -0.00000000000E+00 -0.24145482723E+03  0.24145482729E+03  0.50400000000E-02 0.  1.
    8880023    1    1    2    0    0  0.26345079233E+03 -0.19396209535E+03  0.37373133150E+03  0.82493207528E+03  0.65864270000E+03 0.  0.
    8880022    1    1    2    0    0 -0.26345079233E+03  0.19396209535E+03  0.20406537053E+04  0.20723626160E+04  0.15294330000E+03 0.  0.
<mgrwt>
<rscale>  0 0.61562729E+03</rscale>
<asrwt>0</asrwt>
<pdfrwt beam="1">  1        1 0.40859074E+00 0.73541677E+03</pdfrwt>
<pdfrwt beam="2">  1       -1 0.37146898E-01 0.73541677E+03</pdfrwt>
<totfact> 0.77943554E+00</totfact>
</mgrwt>
</event>
<event>
 4    1  0.1043382E-007  0.8863180E+03  0.7818608E-02  0.9548362E-01
          1   -1    0    0  501    0  0.00000000000E+00  0.00000000000E+00  0.15342899230E+04  0.15342899230E+04  0.50400000000E-02 0. -1.
         -1   -1    0    0    0  501 -0.00000000000E+00 -0.00000000000E+00 -0.51931939255E+03  0.51931939258E+03  0.50400000000E-02 0.  1.
    8880023    1    1    2    0    0 -0.28838419098E+03 -0.51825085903E+03  0.21585155884E+02  0.88658080270E+03  0.65864270000E+03 0.  0.
    8880022    1    1    2    0    0  0.28838419098E+03  0.51825085903E+03  0.99338537458E+03  0.11670285129E+04  0.15294330000E+03 0.  0.
<mgrwt>
<rscale>  0 0.80810259E+03</rscale>
<asrwt>0</asrwt>
<pdfrwt beam="1">  1        1 0.23604460E+00 0.88631800E+03</pdfrwt>
<pdfrwt beam="2">  1       -1 0.79895292E-01 0.88631800E+03</pdfrwt>
<totfact> 0.98788701E+00</totfact>
</mgrwt>
</event>
<event>
 4    1  0.1043382E-007  0.7640093E+03  0.7818608E-02  0.9794836E-01
         -1   -1    0    0    0  501 -0.00000000000E+00  0.00000000000E+00  0.10767473520E+04  0.10767473520E+04  0.50400000000E-02 0.  1.
          1   -1    0    0  501    0  0.00000000000E+00 -0.00000000000E+00 -0.53786142409E+03  0.53786142411E+03  0.50400000000E-02 0. -1.
    8880023    1    1    2    0    0 -0.20761889024E+03 -0.32679403572E+03  0.81341376625E+03  0.11159534519E+04  0.65864270000E+03 0.  0.
    8880022    1    1    2    0    0  0.20761889024E+03  0.32679403572E+03 -0.27452783833E+03  0.49865532425E+03  0.15294330000E+03 0. -1.
<mgrwt>
<rscale>  0 0.65640390E+03</rscale>
<asrwt>0</asrwt>
<pdfrwt beam="1">  1        1 0.82747913E-01 0.76400926E+03</pdfrwt>
<pdfrwt beam="2">  1       -1 0.16565344E+00 0.76400926E+03</pdfrwt>
<totfact> 0.10907494E+01</totfact>
</mgrwt>
</event>
<event>
 4    1  0.1043382E-007  0.8378813E+03  0.7818608E-02  0.9634188E-01
          1   -1    0    0  501    0  0.00000000000E+00  0.00000000000E+00  0.22360420955E+04  0.22360420955E+04  0.50400000000E-02 0. -1.
         -1   -1    0    0    0  501 -0.00000000000E+00 -0.00000000000E+00 -0.23158345173E+03  0.23158345179E+03  0.50400000000E-02 0.  1.
    8880023    1    1    2    0    0 -0.51754318231E+03 -0.19595964893E+02  0.85226735460E+03  0.11951589005E+04  0.65864270000E+03 0.  0.
    8880022    1    1    2    0    0  0.51754318231E+03  0.19595964893E+02  0.11521912891E+04  0.12724666468E+04  0.15294330000E+03 0.  0.
<mgrwt>
<rscale>  0 0.75074126E+03</rscale>
<asrwt>0</asrwt>
<pdfrwt beam="1">  1        1 0.34400649E+00 0.83788135E+03</pdfrwt>
<pdfrwt beam="2">  1       -1 0.35628222E-01 0.83788135E+03</pdfrwt>
<totfact> 0.15980021E+01</totfact>
</mgrwt>
</event>
<event>
 4    1  0.1043382E-007  0.9728232E+03  0.7818608E-02  0.9418010E-01
         -1   -1    0    0    0  501 -0.00000000000E+00  0.00000000000E+00  0.39372240587E+03  0.39372240590E+03  0.50400000000E-02 0.  1.
          1   -1    0    0  501    0  0.00000000000E+00 -0.00000000000E+00 -0.20568287631E+04  0.20568287631E+04  0.50400000000E-02 0. -1.
    8880023    1    1    2    0    0  0.71580604651E+03  0.14014338202E+02 -0.54786470665E+03  0.11164858445E+04  0.65864270000E+03 0.  0.
    8880022    1    1    2    0    0 -0.71580604651E+03 -0.14014338202E+02 -0.11152416506E+04  0.13340653245E+04  0.15294330000E+03 0.  0.
<mgrwt>
<rscale>  0 0.90608224E+03</rscale>
<asrwt>0</asrwt>
<pdfrwt beam="1">  1        1 0.31643519E+00 0.97282316E+03</pdfrwt>
<pdfrwt beam="2">  1       -1 0.60572679E-01 0.97282316E+03</pdfrwt>
<totfact> 0.76527854E+00</totfact>
</mgrwt>
</event>
<event>
 4    1  0.1043382E-007  0.7534356E+03  0.7818608E-02  0.9822408E-01
         -1   -1    0    0    0  501 -0.00000000000E+00  0.00000000000E+00  0.14004234075E+04  0.14004234075E+04  0.50400000000E-02 0.  1.
          1   -1    0    0  501    0  0.00000000000E+00 -0.00000000000E+00 -0.58747214953E+03  0.58747214956E+03  0.50400000000E-02 0. -1.
    8880023    1    1    2    0    0 -0.24416899596E+03 -0.27246365563E+03  0.12108614038E+04  0.14261313010E+04  0.65864270000E+03 0.  1.
    8880022    1    1    2    0    0  0.24416899596E+03  0.27246365563E+03 -0.39791014583E+03  0.56176425607E+03  0.15294330000E+03 0.  0.
<mgrwt>
<rscale>  0 0.64173724E+03</rscale>
<asrwt>0</asrwt>
<pdfrwt beam="1">  1        1 0.90380331E-01 0.75343556E+03</pdfrwt>
<pdfrwt beam="2">  1       -1 0.21544975E+00 0.75343556E+03</pdfrwt>
<totfact> 0.43254356E+00</totfact>
</mgrwt>
</event>
<event>
 4    1  0.1043382E-007  0.1034593E+04  0.7818608E-02  0.9337636E-01
         -1   -1    0    0    0  501 -0.00000000000E+00  0.00000000000E+00  0.20383981146E+04  0.20383981146E+04  0.50400000000E-02 0.  1.
          1   -1    0    0  501    0  0.00000000000E+00 -0.00000000000E+00 -0.75858235287E+03  0.75858235288E+03  0.50400000000E-02 0. -1.
    8880023    1    1    2    0    0  0.49781035173E+03  0.62350450611E+03  0.16151611437E+04  0.19181055085E+04  0.65864270000E+03 0.  0.
    8880022    1    1    2    0    0 -0.49781035173E+03 -0.62350450611E+03 -0.33534538191E+03  0.87887495903E+03  0.15294330000E+03 0.  0.
<mgrwt>
<rscale>  0 0.97390663E+03</rscale>
<asrwt>0</asrwt>
<pdfrwt beam="1">  1        1 0.11670498E+00 0.10345933E+04</pdfrwt>
<pdfrwt beam="2">  1       -1 0.31359971E+00 0.10345933E+04</pdfrwt>
<totfact> 0.65500234E-01</totfact>
</mgrwt>
</event>
<event>
 4    1  0.1043382E-007  0.8240048E+03  0.7818608E-02  0.9661112E-01
          1   -1    0    0  501    0  0.00000000000E+00  0.00000000000E+00  0.14644943406E+04  0.14644943406E+04  0.50400000000E-02 0. -1.
         -1   -1    0    0    0  501 -0.00000000000E+00 -0.00000000000E+00 -0.58235122105E+03  0.58235122107E+03  0.50400000000E-02 0.  1.
    8880023    1    1    2    0    0 -0.38775333454E+03 -0.30793039532E+03 -0.19919399620E+03  0.84773948309E+03  0.65864270000E+03 0.  1.
    8880022    1    1    2    0    0  0.38775333454E+03  0.30793039532E+03  0.10813371158E+04  0.11991060786E+04  0.15294330000E+03 0.  0.
<mgrwt>
<rscale>  0 0.73380149E+03</rscale>
<asrwt>0</asrwt>
<pdfrwt beam="1">  1        1 0.22530682E+00 0.82400484E+03</pdfrwt>
<pdfrwt beam="2">  1       -1 0.89592497E-01 0.82400484E+03</pdfrwt>
<totfact> 0.86816234E+00</totfact>
</mgrwt>
</event>
<event>
 4    1  0.1043382E-007  0.1620072E+04  0.7818608E-02  0.8829195E-01
         -1   -1    0    0    0  501 -0.00000000000E+00  0.00000000000E+00  0.20727102547E+04  0.20727102547E+04  0.50400000000E-02 0.  1.
          1   -1    0    0  501    0  0.00000000000E+00 -0.00000000000E+00 -0.18121356529E+04  0.18121356529E+04  0.50400000000E-02 0. -1.
    8880023    1    1    2    0    0  0.71265768255E+03 -0.12972831551E+04 -0.10260944588E+04  0.19176820909E+04  0.65864270000E+03 0.  0.
    8880022    1    1    2    0    0 -0.71265768255E+03  0.12972831551E+04  0.12866690606E+04  0.19671638167E+04  0.15294330000E+03 0.  0.
<mgrwt>
<rscale>  0 0.15860005E+04</rscale>
<asrwt>0</asrwt>
<pdfrwt beam="1">  1        1 0.27879010E+00 0.16200725E+04</pdfrwt>
<pdfrwt beam="2">  1       -1 0.31887850E+00 0.16200725E+04</pdfrwt>
<totfact> 0.92559942E-02</totfact>
</mgrwt>
</event>
<event>
 4    1  0.1043382E-007  0.7589755E+03  0.7818608E-02  0.9807767E-01
         -1   -1    0    0    0  501 -0.00000000000E+00  0.00000000000E+00  0.61661014504E+03  0.61661014506E+03  0.50400000000E-02 0.  1.
          1   -1    0    0  501    0  0.00000000000E+00 -0.00000000000E+00 -0.11148866470E+04  0.11148866470E+04  0.50400000000E-02 0. -1.
    8880023    1    1    2    0    0 -0.33616016006E+03 -0.17096752201E+03 -0.88790437733E+03  0.11680830177E+04  0.65864270000E+03 0. -1.
    8880022    1    1    2    0    0  0.33616016006E+03  0.17096752201E+03  0.38962787538E+03  0.56341377431E+03  0.15294330000E+03 0.  0.
<mgrwt>
<rscale>  0 0.64947375E+03</rscale>
<asrwt>0</asrwt>
<pdfrwt beam="1">  1        1 0.17152102E+00 0.75897546E+03</pdfrwt>
<pdfrwt beam="2">  1       -1 0.94863099E-01 0.75897546E+03</pdfrwt>
<totfact> 0.13683704E+01</totfact>
</mgrwt>
</event>
<event>
 4    1  0.1043382E-007  0.9522220E+03  0.7818608E-02  0.9446924E-01
          1   -1    0    0  501    0  0.00000000000E+00  0.00000000000E+00  0.17247901137E+04  0.17247901137E+04  0.50400000000E-02 0. -1.
         -1   -1    0    0    0  501 -0.00000000000E+00 -0.00000000000E+00 -0.42566518175E+03  0.42566518178E+03  0.50400000000E-02 0.  1.
    8880023    1    1    2    0    0  0.19722659143E+03  0.65880062114E+03  0.46827777643E+03  0.10611365930E+04  0.65864270000E+03 0.  0.
    8880022    1    1    2    0    0 -0.19722659143E+03 -0.65880062114E+03  0.83084715549E+03  0.10893187025E+04  0.15294330000E+03 0.  0.
<mgrwt>
<rscale>  0 0.88312586E+03</rscale>
<asrwt>0</asrwt>
<pdfrwt beam="1">  1        1 0.26535233E+00 0.95222203E+03</pdfrwt>
<pdfrwt beam="2">  1       -1 0.65486951E-01 0.95222203E+03</pdfrwt>
<totfact> 0.10982388E+01</totfact>
</mgrwt>
</event>
<event>
 4    1  0.1043382E-007  0.7319612E+03  0.7818608E-02  0.9884014E-01
         -1   -1    0    0    0  501 -0.00000000000E+00  0.00000000000E+00  0.32134029897E+03  0.32134029901E+03  0.50400000000E-02 0.  1.
          1   -1    0    0  501    0  0.00000000000E+00 -0.00000000000E+00 -0.18480876082E+04  0.18480876082E+04  0.50400000000E-02 0. -1.
    8880023    1    1    2    0    0 -0.30710297259E+03  0.87433903695E+02 -0.14907187356E+03  0.74698698318E+03  0.65864270000E+03 0.  1.
    8880022    1    1    2    0    0  0.30710297259E+03 -0.87433903695E+02 -0.13776754357E+04  0.14224409240E+04  0.15294330000E+03 0.  0.
<mgrwt>
<rscale>  0 0.61042309E+03</rscale>
<asrwt>0</asrwt>
<pdfrwt beam="1">  1        1 0.28432116E+00 0.73196115E+03</pdfrwt>
<pdfrwt beam="2">  1       -1 0.49436970E-01 0.73196115E+03</pdfrwt>
<totfact> 0.16167144E+01</totfact>
</mgrwt>
</event>
<event>
 4    1  0.1043382E-007  0.7435893E+03  0.7818608E-02  0.9849612E-01
         -1   -1    0    0    0  501 -0.00000000000E+00  0.00000000000E+00  0.22259876040E+03  0.22259876046E+03  0.50400000000E-02 0.  1.
          1   -1    0    0  501    0  0.00000000000E+00 -0.00000000000E+00 -0.29366679387E+04  0.29366679387E+04  0.50400000000E-02 0. -1.
    8880023    1    1    2    0    0 -0.28993500170E+03  0.18722321940E+03 -0.26788384282E+04  0.27801259630E+04  0.65864270000E+03 0.  0.
    8880022    1    1    2    0    0  0.28993500170E+03 -0.18722321940E+03 -0.35230750080E+02  0.37914073622E+03  0.15294330000E+03 0.  0.
<mgrwt>
<rscale>  0 0.62766683E+03</rscale>
<asrwt>0</asrwt>
<pdfrwt beam="1">  1        1 0.45179504E+00 0.74358930E+03</pdfrwt>
<pdfrwt beam="2">  1       -1 0.34245965E-01 0.74358930E+03</pdfrwt>
<totfact> 0.57202247E+00</totfact>
</mgrwt>
</event>
<event>
 4    1  0.1043382E-007  0.8032895E+03  0.7818608E-02  0.9703728E-01
         -1   -1    0    0    0  501 -0.00000000000E+00  0.00000000000E+00  0.32269121579E+03  0.32269121583E+03  0.50400000000E-02 0.  1.
          1   -1    0    0  501    0  0.00000000000E+00 -0.00000000000E+00 -0.16773112956E+04  0.16773112956E+04  0.50400000000E-02 0. -1.
    8880023    1    1    2    0    0  0.12709900698E+03 -0.44193858624E+03 -0.33359498043E+03  0.86980439687E+03  0.65864270000E+03 0.  0.
    8880022    1    1    2    0    0 -0.12709900698E+03  0.44193858624E+03 -0.10210250994E+04  0.11301981145E+04  0.15294330000E+03 0.  0.
<mgrwt>
<rscale>  0 0.70795260E+03</rscale>
<asrwt>0</asrwt>
<pdfrwt beam="1">  1        1 0.25804789E+00 0.80328954E+03</pdfrwt>
<pdfrwt beam="2">  1       -1 0.49644803E-01 0.80328954E+03</pdfrwt>
<totfact> 0.20687072E+01</totfact>
</mgrwt>
</event>
<event>
 4    1  0.1043382E-007  0.7537818E+03  0.7818608E-02  0.9821480E-01
          1   -1    0    0  501    0  0.00000000000E+00  0.00000000000E+00  0.76975895669E+03  0.76975895671E+03  0.50400000000E-02 0. -1.
         -1   -1    0    0    0  501 -0.00000000000E+00 -0.00000000000E+00 -0.59474664588E+03  0.59474664590E+03  0.50400000000E-02 0.  1.
    8880023    1    1    2    0    0  0.11981235013E+03 -0.34644151223E+03 -0.23900399835E+03  0.79076534960E+03  0.65864270000E+03 0.  1.
    8880022    1    1    2    0    0 -0.11981235013E+03  0.34644151223E+03  0.41401630916E+03  0.57374025300E+03  0.15294330000E+03 0.  0.
<mgrwt>
<rscale>  0 0.64222426E+03</rscale>
<asrwt>0</asrwt>
<pdfrwt beam="1">  1        1 0.11842445E+00 0.75378175E+03</pdfrwt>
<pdfrwt beam="2">  1       -1 0.91499484E-01 0.75378175E+03</pdfrwt>
<totfact> 0.28070510E+01</totfact>
</mgrwt>
</event>
<event>
 4    1  0.1043382E-007  0.6917867E+03  0.7818608E-02  0.1003315E+00
         -1   -1    0    0    0  501 -0.00000000000E+00  0.00000000000E+00  0.49825087662E+03  0.49825087665E+03  0.50400000000E-02 0.  1.
          1   -1    0    0  501    0  0.00000000000E+00 -0.00000000000E+00 -0.92341909119E+03  0.92341909121E+03  0.50400000000E-02 0. -1.
    8880023    1    1    2    0    0  0.10152233001E+03 -0.18561220338E+03 -0.73978950800E+03  0.10128461857E+04  0.65864270000E+03 0. -1.
    8880022    1    1    2    0    0 -0.10152233001E+03  0.18561220338E+03  0.31462129344E+03  0.40882378213E+03  0.15294330000E+03 0.  0.
<mgrwt>
<rscale>  0 0.54220393E+03</rscale>
<asrwt>0</asrwt>
<pdfrwt beam="1">  1        1 0.14206448E+00 0.69178673E+03</pdfrwt>
<pdfrwt beam="2">  1       -1 0.76653981E-01 0.69178673E+03</pdfrwt>
<totfact> 0.30722231E+01</totfact>
</mgrwt>
</event>
<event>
 4    1  0.1043382E-007  0.7034808E+03  0.7818608E-02  0.9983057E-01
         -1   -1    0    0    0  501 -0.00000000000E+00  0.00000000000E+00  0.51304668161E+03  0.51304668164E+03  0.50400000000E-02 0.  1.
          1   -1    0    0  501    0  0.00000000000E+00 -0.00000000000E+00 -0.84038912140E+03  0.84038912142E+03  0.50400000000E-02 0. -1.
    8880023    1    1    2    0    0  0.18711095679E+03  0.16144490872E+03  0.21715030103E+03  0.73623327024E+03  0.65864270000E+03 0.  0.
    8880022    1    1    2    0    0 -0.18711095679E+03 -0.16144490872E+03 -0.54449274081E+03  0.61720253282E+03  0.15294330000E+03 0.  0.
<mgrwt>
<rscale>  0 0.56399442E+03</rscale>
<asrwt>0</asrwt>
<pdfrwt beam="1">  1        1 0.12929063E+00 0.70348076E+03</pdfrwt>
<pdfrwt beam="2">  1       -1 0.78930258E-01 0.70348076E+03</pdfrwt>
<totfact> 0.33752713E+01</totfact>
</mgrwt>
</event>
<event>
 4    1  0.1043382E-007  0.6667778E+03  0.7818608E-02  0.1018086E+00
          1   -1    0    0  501    0  0.00000000000E+00  0.00000000000E+00  0.20552465714E+04  0.20552465714E+04  0.50400000000E-02 0. -1.
         -1   -1    0    0    0  501 -0.00000000000E+00 -0.00000000000E+00 -0.89650571530E+02  0.89650571671E+02  0.50400000000E-02 0.  1.
    8880023    1    1    2    0    0 -0.75430013701E+02 -0.71363858268E+02  0.14181396778E+04  0.15670714212E+04  0.65864270000E+03 0.  0.
    8880022    1    1    2    0    0  0.75430013701E+02  0.71363858268E+02  0.54745632209E+03  0.57782572186E+03  0.15294330000E+03 0. -1.
<mgrwt>
<rscale>  0 0.48383588E+03</rscale>
<asrwt>0</asrwt>
<pdfrwt beam="1">  1        1 0.31619178E+00 0.66677784E+03</pdfrwt>
<pdfrwt beam="2">  1       -1 0.13792396E-01 0.66677784E+03</pdfrwt>
<totfact> 0.10721099E+02</totfact>
</mgrwt>
</event>
<event>
 4    1  0.1043382E-007  0.1092771E+04  0.7818608E-02  0.9269148E-01
          1   -1    0    0  501    0  0.00000000000E+00  0.00000000000E+00  0.12166561329E+04  0.12166561329E+04  0.50400000000E-02 0. -1.
         -1   -1    0    0    0  501 -0.00000000000E+00 -0.00000000000E+00 -0.10716998630E+04  0.10716998630E+04  0.50400000000E-02 0.  1.
    8880023    1    1    2    0    0  0.74041109299E+02 -0.86882410807E+03 -0.49131592302E+03  0.11981397911E+04  0.65864270000E+03 0.  1.
    8880022    1    1    2    0    0 -0.74041109299E+02  0.86882410807E+03  0.63627219296E+03  0.10902162048E+04  0.15294330000E+03 0. -1.
<mgrwt>
<rscale>  0 0.10367344E+04</rscale>
<asrwt>0</asrwt>
<pdfrwt beam="1">  1        1 0.18717787E+00 0.10927706E+04</pdfrwt>
<pdfrwt beam="2">  1       -1 0.16487690E+00 0.10927706E+04</pdfrwt>
<totfact> 0.27692998E+00</totfact>
</mgrwt>
</event>
<event>
 4    1  0.1043382E-007  0.7776170E+03  0.7818608E-02  0.9761465E-01
          1   -1    0    0  501    0  0.00000000000E+00  0.00000000000E+00  0.34097571878E+03  0.34097571882E+03  0.50400000000E-02 0. -1.
         -1   -1    0    0    0  501 -0.00000000000E+00 -0.00000000000E+00 -0.18343240383E+04  0.18343240383E+04  0.50400000000E-02 0.  1.
    8880023    1    1    2    0    0 -0.29484558890E+03 -0.28973108430E+03 -0.15468445554E+04  0.17313047991E+04  0.65864270000E+03 0.  0.
    8880022    1    1    2    0    0  0.29484558890E+03  0.28973108430E+03  0.53496235872E+02  0.44399495805E+03  0.15294330000E+03 0.  0.
<mgrwt>
<rscale>  0 0.67472211E+03</rscale>
<asrwt>0</asrwt>
<pdfrwt beam="1">  1        1 0.52457804E-01 0.77761702E+03</pdfrwt>
<pdfrwt beam="2">  1       -1 0.28220369E+00 0.77761702E+03</pdfrwt>
<totfact> 0.33250695E+00</totfact>
</mgrwt>
</event>
<event>
 4    1  0.1043382E-007  0.6702164E+03  0.7818608E-02  0.1015508E+00
          1   -1    0    0  501    0  0.00000000000E+00  0.00000000000E+00  0.34057378938E+03  0.34057378942E+03  0.50400000000E-02 0. -1.
         -1   -1    0    0    0  501 -0.00000000000E+00 -0.00000000000E+00 -0.94452323914E+03  0.94452323915E+03  0.50400000000E-02 0.  1.
    8880023    1    1    2    0    0  0.12193510613E+03  0.22619949672E+02 -0.77476416330E+03  0.10244264479E+04  0.65864270000E+03 0.  1.
    8880022    1    1    2    0    0 -0.12193510613E+03 -0.22619949672E+02  0.17081471354E+03  0.26067058063E+03  0.15294330000E+03 0.  0.
<mgrwt>
<rscale>  0 0.49342977E+03</rscale>
<asrwt>0</asrwt>
<pdfrwt beam="1">  1        1 0.52395968E-01 0.67021641E+03</pdfrwt>
<pdfrwt beam="2">  1       -1 0.14531127E+00 0.67021641E+03</pdfrwt>
<totfact> 0.29092207E+01</totfact>
</mgrwt>
</event>
<event>
 4    1  0.1043382E-007  0.6747724E+03  0.7818608E-02  0.1012450E+00
         -1   -1    0    0    0  501 -0.00000000000E+00  0.00000000000E+00  0.62931972866E+03  0.62931972868E+03  0.50400000000E-02 0.  1.
          1   -1    0    0  501    0  0.00000000000E+00 -0.00000000000E+00 -0.73482638568E+03  0.73482638570E+03  0.50400000000E-02 0. -1.
    8880023    1    1    2    0    0 -0.89059602795E-01  0.14665439886E+03  0.42186758934E+03  0.79579519340E+03  0.65864270000E+03 0.  1.
    8880022    1    1    2    0    0  0.89059602795E-01 -0.14665439886E+03 -0.52737424636E+03  0.56835092098E+03  0.15294330000E+03 0.  0.
<mgrwt>
<rscale>  0 0.50512371E+03</rscale>
<asrwt>0</asrwt>
<pdfrwt beam="1">  1        1 0.11305021E+00 0.67477235E+03</pdfrwt>
<pdfrwt beam="2">  1       -1 0.96818419E-01 0.67477235E+03</pdfrwt>
<totfact> 0.26832850E+01</totfact>
</mgrwt>
</event>
<event>
 4    1  0.1187132E-007  0.6872285E+03  0.7818608E-02  0.1005499E+00
          1   -1    0    0  501    0  0.00000000000E+00  0.00000000000E+00  0.12916153364E+04  0.12916153364E+04  0.50400000000E-02 0. -1.
         -1   -1    0    0    0  501 -0.00000000000E+00 -0.00000000000E+00 -0.80551712474E+03  0.80551712475E+03  0.50400000000E-02 0.  1.
    8880023    1    1    2    0    0 -0.18581936963E+03  0.62801174266E+02 -0.64289749891E+03  0.94106334855E+03  0.65864270000E+03 0.  0.
    8880022    1    1    2    0    0  0.18581936963E+03 -0.62801174266E+02  0.11289957106E+04  0.11560691126E+04  0.15294330000E+03 0. -1.
<mgrwt>
<rscale>  0 0.53303539E+03</rscale>
<asrwt>0</asrwt>
<pdfrwt beam="1">  1        1 0.19871005E+00 0.68722852E+03</pdfrwt>
<pdfrwt beam="2">  1       -1 0.12392571E+00 0.68722852E+03</pdfrwt>
<totfact> 0.55051931E+00</totfact>
</mgrwt>
</event>
<event>
 4    1  0.1043382E-007  0.1763851E+04  0.7818608E-02  0.8742801E-01
         -1   -1    0    0    0  501 -0.00000000000E+00  0.00000000000E+00  0.22731499964E+04  0.22731499964E+04  0.50400000000E-02 0.  1.
          1   -1    0    0  501    0  0.00000000000E+00 -0.00000000000E+00 -0.19346760222E+04  0.19346760222E+04  0.50400000000E-02 0. -1.
    8880023    1    1    2    0    0  0.13308645813E+04 -0.95192426650E+03 -0.10531802434E+04  0.20543512782E+04  0.65864270000E+03 0.  0.
    8880022    1    1    2    0    0 -0.13308645813E+04  0.95192426650E+03  0.13916542176E+04  0.21534747403E+04  0.15294330000E+03 0.  0.
<mgrwt>
<rscale>  0 0.17329340E+04</rscale>
<asrwt>0</asrwt>
<pdfrwt beam="1">  1        1 0.29764247E+00 0.17638511E+04</pdfrwt>
<pdfrwt beam="2">  1       -1 0.34971538E+00 0.17638511E+04</pdfrwt>
<totfact> 0.47045899E-02</totfact>
</mgrwt>
</event>
<event>
 4    1  0.1043382E-007  0.1244045E+04  0.7818608E-02  0.9115452E-01
          1   -1    0    0  501    0  0.00000000000E+00  0.00000000000E+00  0.23622434367E+04  0.23622434368E+04  0.50400000000E-02 0. -1.
         -1   -1    0    0    0  501 -0.00000000000E+00 -0.00000000000E+00 -0.78266735625E+03  0.78266735626E+03  0.50400000000E-02 0.  1.
    8880023    1    1    2    0    0  0.26125085708E+03 -0.10225394069E+04  0.16611927905E+04  0.20753820232E+04  0.65864270000E+03 0.  1.
    8880022    1    1    2    0    0 -0.26125085708E+03  0.10225394069E+04 -0.81616709959E+02  0.10695287698E+04  0.15294330000E+03 0.  0.
<mgrwt>
<rscale>  0 0.11970388E+04</rscale>
<asrwt>0</asrwt>
<pdfrwt beam="1">  1        1 0.36342206E+00 0.12440454E+04</pdfrwt>
<pdfrwt beam="2">  1       -1 0.12041036E+00 0.12440454E+04</pdfrwt>
<totfact> 0.10165347E+00</totfact>
</mgrwt>
</event>
<event>
 4    1  0.1043382E-007  0.9067860E+03  0.7818608E-02  0.9515225E-01
          1   -1    0    0  501    0  0.00000000000E+00  0.00000000000E+00  0.13248875840E+04  0.13248875840E+04  0.50400000000E-02 0. -1.
         -1   -1    0    0    0  501 -0.00000000000E+00 -0.00000000000E+00 -0.71219467876E+03  0.71219467877E+03  0.50400000000E-02 0.  1.
    8880023    1    1    2    0    0  0.25635673966E+03 -0.56809490974E+03 -0.26966036369E+03  0.94603251659E+03  0.65864270000E+03 0.  1.
    8880022    1    1    2    0    0 -0.25635673966E+03  0.56809490974E+03  0.88235326893E+03  0.10910497462E+04  0.15294330000E+03 0.  0.
<mgrwt>
<rscale>  0 0.83170624E+03</rscale>
<asrwt>0</asrwt>
<pdfrwt beam="1">  1        1 0.20382886E+00 0.90678598E+03</pdfrwt>
<pdfrwt beam="2">  1       -1 0.10956841E+00 0.90678598E+03</pdfrwt>
<totfact> 0.67921702E+00</totfact>
</mgrwt>
</event>
<event>
 4    1  0.1043382E-007  0.6953239E+03  0.7818608E-02  0.1001718E+00
          1   -1    0    0  501    0  0.00000000000E+00  0.00000000000E+00  0.64441122365E+03  0.64441122367E+03  0.50400000000E-02 0. -1.
         -1   -1    0    0    0  501 -0.00000000000E+00 -0.00000000000E+00 -0.71580446226E+03  0.71580446228E+03  0.50400000000E-02 0.  1.
    8880023    1    1    2    0    0 -0.83544505904E+02 -0.20660468770E+03 -0.49794750384E+03  0.85523511638E+03  0.65864270000E+03 0.  1.
    8880022    1    1    2    0    0  0.83544505904E+02  0.20660468770E+03  0.42655426523E+03  0.50498056957E+03  0.15294330000E+03 0.  0.
<mgrwt>
<rscale>  0 0.54903243E+03</rscale>
<asrwt>0</asrwt>
<pdfrwt beam="1">  1        1 0.99140189E-01 0.69532394E+03</pdfrwt>
<pdfrwt beam="2">  1       -1 0.11012376E+00 0.69532394E+03</pdfrwt>
<totfact> 0.24229934E+01</totfact>
</mgrwt>
</event>
<event>
 4    1  0.1043382E-007  0.7564180E+03  0.7818608E-02  0.9814471E-01
         -1   -1    0    0    0  501 -0.00000000000E+00  0.00000000000E+00  0.78334973994E+03  0.78334973995E+03  0.50400000000E-02 0.  1.
          1   -1    0    0  501    0  0.00000000000E+00 -0.00000000000E+00 -0.70702963754E+03  0.70702963756E+03  0.50400000000E-02 0. -1.
    8880023    1    1    2    0    0 -0.76004201665E+02  0.36411724909E+03  0.49958843406E+03  0.90650803607E+03  0.65864270000E+03 0.  1.
    8880022    1    1    2    0    0  0.76004201665E+02 -0.36411724909E+03 -0.42326833166E+03  0.58387134144E+03  0.15294330000E+03 0.  0.
<mgrwt>
<rscale>  0 0.64591716E+03</rscale>
<asrwt>0</asrwt>
<pdfrwt beam="1">  1        1 0.10877379E+00 0.75641802E+03</pdfrwt>
<pdfrwt beam="2">  1       -1 0.12051534E+00 0.75641802E+03</pdfrwt>
<totfact> 0.16881539E+01</totfact>
</mgrwt>
</event>
<event>
 4    1  0.1043382E-007  0.6780502E+03  0.7818608E-02  0.1010449E+00
         -1   -1    0    0    0  501 -0.00000000000E+00  0.00000000000E+00  0.32955570924E+03  0.32955570928E+03  0.50400000000E-02 0.  1.
          1   -1    0    0  501    0  0.00000000000E+00 -0.00000000000E+00 -0.61568381383E+03  0.61568381385E+03  0.50400000000E-02 0. -1.
    8880023    1    1    2    0    0  0.15414456888E+03  0.46704155765E+02 -0.23183335891E+03  0.71658826312E+03  0.65864270000E+03 0. -1.
    8880022    1    1    2    0    0 -0.15414456888E+03 -0.46704155765E+02 -0.54294745685E+02  0.22865126001E+03  0.15294330000E+03 0.  1.
<mgrwt>
<rscale>  0 0.51296660E+03</rscale>
<asrwt>0</asrwt>
<pdfrwt beam="1">  1        1 0.94720587E-01 0.67805017E+03</pdfrwt>
<pdfrwt beam="2">  1       -1 0.50700878E-01 0.67805017E+03</pdfrwt>
<totfact> 0.13167260E+02</totfact>
</mgrwt>
</event>
<event>
 4    1  0.1043382E-007  0.7085775E+03  0.7818608E-02  0.9963321E-01
          1   -1    0    0  501    0  0.00000000000E+00  0.00000000000E+00  0.25830567598E+04  0.25830567598E+04  0.50400000000E-02 0. -1.
         -1   -1    0    0    0  501 -0.00000000000E+00 -0.00000000000E+00 -0.20940105418E+03  0.20940105424E+03  0.50400000000E-02 0.  1.
    8880023    1    1    2    0    0  0.15411806117E+03 -0.21099654332E+03  0.43746965763E+03  0.83274355337E+03  0.65864270000E+03 0.  0.
    8880022    1    1    2    0    0 -0.15411806117E+03  0.21099654332E+03  0.19361860480E+04  0.19597142607E+04  0.15294330000E+03 0.  0.
<mgrwt>
<rscale>  0 0.57288194E+03</rscale>
<asrwt>0</asrwt>
<pdfrwt beam="1">  1        1 0.39739333E+00 0.70857754E+03</pdfrwt>
<pdfrwt beam="2">  1       -1 0.32215548E-01 0.70857754E+03</pdfrwt>
<totfact> 0.11319578E+01</totfact>
</mgrwt>
</event>
<event>
 4    1  0.1043382E-007  0.7243452E+03  0.7818608E-02  0.9908148E-01
         -1   -1    0    0    0  501 -0.00000000000E+00  0.00000000000E+00  0.64634297378E+03  0.64634297380E+03  0.50400000000E-02 0.  1.
          1   -1    0    0  501    0  0.00000000000E+00 -0.00000000000E+00 -0.13649950441E+04  0.13649950441E+04  0.50400000000E-02 0. -1.
    8880023    1    1    2    0    0 -0.21726156552E+03  0.20895742294E+03  0.41056816039E+03  0.83261168203E+03  0.65864270000E+03 0.  0.
    8880022    1    1    2    0    0  0.21726156552E+03 -0.20895742294E+03 -0.11292202307E+04  0.11787263359E+04  0.15294330000E+03 0. -1.
<mgrwt>
<rscale>  0 0.59868002E+03</rscale>
<asrwt>0</asrwt>
<pdfrwt beam="1">  1        1 0.20999924E+00 0.72434522E+03</pdfrwt>
<pdfrwt beam="2">  1       -1 0.99437381E-01 0.72434522E+03</pdfrwt>
<totfact> 0.81793602E+00</totfact>
</mgrwt>
</event>
<event>
 4    1  0.1043382E-007  0.7776339E+03  0.7818608E-02  0.9761425E-01
          1   -1    0    0  501    0  0.00000000000E+00  0.00000000000E+00  0.34615290935E+03  0.34615290938E+03  0.50400000000E-02 0. -1.
         -1   -1    0    0    0  501 -0.00000000000E+00 -0.00000000000E+00 -0.14807949655E+04  0.14807949655E+04  0.50400000000E-02 0.  1.
    8880023    1    1    2    0    0 -0.39155484593E+03  0.13262362417E+03 -0.11472654811E+04  0.13859770970E+04  0.65864270000E+03 0.  1.
    8880022    1    1    2    0    0  0.39155484593E+03 -0.13262362417E+03  0.12623424949E+02  0.44097077787E+03  0.15294330000E+03 0.  0.
<mgrwt>
<rscale>  0 0.67474445E+03</rscale>
<asrwt>0</asrwt>
<pdfrwt beam="1">  1        1 0.53254295E-01 0.77763387E+03</pdfrwt>
<pdfrwt beam="2">  1       -1 0.22781461E+00 0.77763387E+03</pdfrwt>
<totfact> 0.73159414E+00</totfact>
</mgrwt>
</event>
<event>
 4    1  0.1056634E-007  0.6781803E+03  0.7818608E-02  0.1010372E+00
          1   -1    0    0  501    0  0.00000000000E+00  0.00000000000E+00  0.15665596771E+04  0.15665596771E+04  0.50400000000E-02 0. -1.
         -1   -1    0    0    0  501 -0.00000000000E+00 -0.00000000000E+00 -0.83243528854E+03  0.83243528856E+03  0.50400000000E-02 0.  1.
    8880023    1    1    2    0    0  0.31500513172E+02 -0.15851174740E+03 -0.68417955477E+03  0.96334320251E+03  0.65864270000E+03 0.  1.
    8880022    1    1    2    0    0 -0.31500513172E+02  0.15851174740E+03  0.14183039434E+04  0.14356517632E+04  0.15294330000E+03 0.  0.
<mgrwt>
<rscale>  0 0.51326940E+03</rscale>
<asrwt>0</asrwt>
<pdfrwt beam="1">  1        1 0.24100918E+00 0.67818026E+03</pdfrwt>
<pdfrwt beam="2">  1       -1 0.12806697E+00 0.67818026E+03</pdfrwt>
<totfact> 0.32829487E+00</totfact>
</mgrwt>
</event>
<event>
 4    1  0.1043382E-007  0.6705871E+03  0.7818608E-02  0.1015245E+00
          1   -1    0    0  501    0  0.00000000000E+00  0.00000000000E+00  0.26279099761E+04  0.26279099761E+04  0.50400000000E-02 0. -1.
         -1   -1    0    0    0  501 -0.00000000000E+00 -0.00000000000E+00 -0.29708168435E+03  0.29708168439E+03  0.50400000000E-02 0.  1.
    8880023    1    1    2    0    0  0.79697163324E+02  0.97597216781E+02  0.91370204614E+02  0.67678325564E+03  0.65864270000E+03 0.  1.
    8880022    1    1    2    0    0 -0.79697163324E+02 -0.97597216781E+02  0.22394580871E+04  0.22482084048E+04  0.15294330000E+03 0.  0.
<mgrwt>
<rscale>  0 0.49442104E+03</rscale>
<asrwt>0</asrwt>
<pdfrwt beam="1">  1        1 0.40429384E+00 0.67058710E+03</pdfrwt>
<pdfrwt beam="2">  1       -1 0.45704874E-01 0.67058710E+03</pdfrwt>
<totfact> 0.56478112E+00</totfact>
</mgrwt>
</event>
<event>
 4    1  0.1043382E-007  0.6645137E+03  0.7818608E-02  0.1019945E+00
         -1   -1    0    0    0  501 -0.00000000000E+00  0.00000000000E+00  0.36289308230E+03  0.36289308234E+03  0.50400000000E-02 0.  1.
          1   -1    0    0  501    0  0.00000000000E+00 -0.00000000000E+00 -0.52808909583E+03  0.52808909585E+03  0.50400000000E-02 0. -1.
    8880023    1    1    2    0    0  0.46458772226E+02 -0.74898709025E+02 -0.24016068118E+02  0.66494752569E+03  0.65864270000E+03 0.  1.
    8880022    1    1    2    0    0 -0.46458772226E+02  0.74898709025E+02 -0.14117994541E+03  0.22603465250E+03  0.15294330000E+03 0.  0.
<mgrwt>
<rscale>  0 0.47706486E+03</rscale>
<asrwt>0</asrwt>
<pdfrwt beam="1">  1        1 0.81244477E-01 0.66451369E+03</pdfrwt>
<pdfrwt beam="2">  1       -1 0.55829705E-01 0.66451369E+03</pdfrwt>
<totfact> 0.13617067E+02</totfact>
</mgrwt>
</event>
<event>
 4    1  0.1043382E-007  0.1141158E+04  0.7818608E-02  0.9216559E-01
          1   -1    0    0  501    0  0.00000000000E+00  0.00000000000E+00  0.26402698221E+04  0.26402698221E+04  0.50400000000E-02 0. -1.
         -1   -1    0    0    0  501 -0.00000000000E+00 -0.00000000000E+00 -0.57210909133E+03  0.57210909136E+03  0.50400000000E-02 0.  1.
    8880023    1    1    2    0    0 -0.54026873989E+03 -0.75930257909E+03  0.25690781219E+03  0.11697190039E+04  0.65864270000E+03 0.  0.
    8880022    1    1    2    0    0  0.54026873989E+03  0.75930257909E+03  0.18112529185E+04  0.20426599095E+04  0.15294330000E+03 0.  0.
<mgrwt>
<rscale>  0 0.10884138E+04</rscale>
<asrwt>0</asrwt>
<pdfrwt beam="1">  1        1 0.40619535E+00 0.11411577E+04</pdfrwt>
<pdfrwt beam="2">  1       -1 0.88016784E-01 0.11411577E+04</pdfrwt>
<totfact> 0.13724005E+00</totfact>
</mgrwt>
</event>
<event>
 4    1  0.1525687E-007  0.6857776E+03  0.7818608E-02  0.1006228E+00
          1   -1    0    0  501    0  0.00000000000E+00  0.00000000000E+00  0.10636512218E+04  0.10636512218E+04  0.50400000000E-02 0. -1.
         -1   -1    0    0    0  501 -0.00000000000E+00 -0.00000000000E+00 -0.96085308169E+03  0.96085308171E+03  0.50400000000E-02 0.  1.
    8880023    1    1    2    0    0 -0.12371065368E+03 -0.14552105778E+03 -0.82048984967E+03  0.10693430244E+04  0.65864270000E+03 0.  1.
    8880022    1    1    2    0    0  0.12371065368E+03  0.14552105778E+03  0.92328798976E+03  0.95516127913E+03  0.15294330000E+03 0.  0.
<mgrwt>
<rscale>  0 0.53001818E+03</rscale>
<asrwt>0</asrwt>
<pdfrwt beam="1">  1        1 0.16363865E+00 0.68577760E+03</pdfrwt>
<pdfrwt beam="2">  1       -1 0.14782355E+00 0.68577760E+03</pdfrwt>
<totfact> 0.51378649E+00</totfact>
</mgrwt>
</event>
<event>
 4    1  0.1043382E-007  0.8215568E+03  0.7818608E-02  0.9665989E-01
         -1   -1    0    0    0  501 -0.00000000000E+00  0.00000000000E+00  0.31576393476E+03  0.31576393480E+03  0.50400000000E-02 0.  1.
          1   -1    0    0  501    0  0.00000000000E+00 -0.00000000000E+00 -0.17223208053E+04  0.17223208053E+04  0.50400000000E-02 0. -1.
    8880023    1    1    2    0    0  0.13351184807E+03  0.47256736587E+03 -0.41352403851E+03  0.91975956943E+03  0.65864270000E+03 0.  0.
    8880022    1    1    2    0    0 -0.13351184807E+03 -0.47256736587E+03 -0.99303283202E+03  0.11183251707E+04  0.15294330000E+03 0.  0.
<mgrwt>
<rscale>  0 0.73078392E+03</rscale>
<asrwt>0</asrwt>
<pdfrwt beam="1">  1        1 0.26497243E+00 0.82155678E+03</pdfrwt>
<pdfrwt beam="2">  1       -1 0.48579068E-01 0.82155678E+03</pdfrwt>
<totfact> 0.20052473E+01</totfact>
</mgrwt>
</event>
<event>
 4    1  0.1475017E-007  0.1414798E+04  0.7818608E-02  0.8972269E-01
          1   -1    0    0  501    0  0.00000000000E+00  0.00000000000E+00  0.23624464687E+04  0.23624464687E+04  0.50400000000E-02 0. -1.
         -1   -1    0    0    0  501 -0.00000000000E+00 -0.00000000000E+00 -0.18974524400E+04  0.18974524400E+04  0.50400000000E-02 0.  1.
    8880023    1    1    2    0    0  0.11097976471E+04 -0.57982114451E+03 -0.14117128409E+04  0.19986462240E+04  0.65864270000E+03 0.  0.
    8880022    1    1    2    0    0 -0.11097976471E+04  0.57982114451E+03  0.18767068695E+04  0.22612526847E+04  0.15294330000E+03 0.  0.
<mgrwt>
<rscale>  0 0.13747940E+04</rscale>
<asrwt>0</asrwt>
<pdfrwt beam="1">  1        1 0.36345330E+00 0.14147981E+04</pdfrwt>
<pdfrwt beam="2">  1       -1 0.29191576E+00 0.14147981E+04</pdfrwt>
<totfact> 0.59979662E-02</totfact>
</mgrwt>
</event>
<event>
 4    1  0.1043382E-007  0.8113213E+03  0.7818608E-02  0.9686831E-01
         -1   -1    0    0    0  501 -0.00000000000E+00  0.00000000000E+00  0.62654031690E+03  0.62654031692E+03  0.50400000000E-02 0.  1.
          1   -1    0    0  501    0  0.00000000000E+00 -0.00000000000E+00 -0.18257529167E+04  0.18257529168E+04  0.50400000000E-02 0. -1.
    8880023    1    1    2    0    0  0.88451213805E+02  0.46541215550E+03  0.30583526258E+03  0.86705103991E+03  0.65864270000E+03 0.  0.
    8880022    1    1    2    0    0 -0.88451213805E+02 -0.46541215550E+03 -0.15050478624E+04  0.15852421938E+04  0.15294330000E+03 0.  0.
<mgrwt>
<rscale>  0 0.71806298E+03</rscale>
<asrwt>0</asrwt>
<pdfrwt beam="1">  1        1 0.28088506E+00 0.81132133E+03</pdfrwt>
<pdfrwt beam="2">  1       -1 0.96390819E-01 0.81132133E+03</pdfrwt>
<totfact> 0.42047642E+00</totfact>
</mgrwt>
</event>
<event>
 4    1  0.1043382E-007  0.6625778E+03  0.7818608E-02  0.1021658E+00
         -1   -1    0    0    0  501 -0.00000000000E+00  0.00000000000E+00  0.44285854555E+03  0.44285854558E+03  0.50400000000E-02 0.  1.
          1   -1    0    0  501    0  0.00000000000E+00 -0.00000000000E+00 -0.72015477661E+03  0.72015477663E+03  0.50400000000E-02 0. -1.
    8880023    1    1    2    0    0  0.60901951337E+01  0.71847584940E+02  0.17066299357E+03  0.68420408474E+03  0.65864270000E+03 0.  1.
    8880022    1    1    2    0    0 -0.60901951337E+01 -0.71847584940E+02 -0.44795922463E+03  0.47880923747E+03  0.15294330000E+03 0.  0.
<mgrwt>
<rscale>  0 0.47092961E+03</rscale>
<asrwt>0</asrwt>
<pdfrwt beam="1">  1        1 0.11079304E+00 0.66257782E+03</pdfrwt>
<pdfrwt beam="2">  1       -1 0.68132084E-01 0.66257782E+03</pdfrwt>
<totfact> 0.58589160E+01</totfact>
</mgrwt>
</event>
<event>
 4    1  0.1043382E-007  0.1020891E+04  0.7818608E-02  0.9354722E-01
          1   -1    0    0  501    0  0.00000000000E+00  0.00000000000E+00  0.14140662907E+04  0.14140662907E+04  0.50400000000E-02 0. -1.
         -1   -1    0    0    0  501 -0.00000000000E+00 -0.00000000000E+00 -0.67963547760E+03  0.67963547762E+03  0.50400000000E-02 0.  1.
    8880023    1    1    2    0    0  0.71114865418E+03 -0.32043005125E+03  0.14072712104E+02  0.10209877931E+04  0.65864270000E+03 0. -1.
    8880022    1    1    2    0    0 -0.71114865418E+03  0.32043005125E+03  0.72035810102E+03  0.10727139753E+04  0.15294330000E+03 0.  0.
<mgrwt>
<rscale>  0 0.95897410E+03</rscale>
<asrwt>0</asrwt>
<pdfrwt beam="1">  1        1 0.21754866E+00 0.10208908E+04</pdfrwt>
<pdfrwt beam="2">  1       -1 0.10455931E+00 0.10208908E+04</pdfrwt>
<totfact> 0.64725820E+00</totfact>
</mgrwt>
</event>
<event>
 4    1  0.1043382E-007  0.6856777E+03  0.7818608E-02  0.1006279E+00
          1   -1    0    0  501    0  0.00000000000E+00  0.00000000000E+00  0.84783080823E+03  0.84783080825E+03  0.50400000000E-02 0. -1.
         -1   -1    0    0    0  501 -0.00000000000E+00 -0.00000000000E+00 -0.25747951350E+03  0.25747951355E+03  0.50400000000E-02 0.  1.
    8880023    1    1    2    0    0  0.12654596913E+03  0.14258250706E+03  0.38688791403E+03  0.78729671529E+03  0.65864270000E+03 0.  0.
    8880022    1    1    2    0    0 -0.12654596913E+03 -0.14258250706E+03  0.20346338070E+03  0.31801360651E+03  0.15294330000E+03 0.  1.
<mgrwt>
<rscale>  0 0.52980846E+03</rscale>
<asrwt>0</asrwt>
<pdfrwt beam="1">  1        1 0.13043551E+00 0.68567766E+03</pdfrwt>
<pdfrwt beam="2">  1       -1 0.39612233E-01 0.68567766E+03</pdfrwt>
<totfact> 0.12741682E+02</totfact>
</mgrwt>
</event>
<event>
 4    1  0.1043382E-007  0.8296549E+03  0.7818608E-02  0.9650004E-01
          1   -1    0    0  501    0  0.00000000000E+00  0.00000000000E+00  0.33957481042E+04  0.33957481042E+04  0.50400000000E-02 0. -1.
         -1   -1    0    0    0  501 -0.00000000000E+00 -0.00000000000E+00 -0.18033444542E+03  0.18033444549E+03  0.50400000000E-02 0.  1.
    8880023    1    1    2    0    0  0.37675478870E+03 -0.33551889943E+03  0.10026909901E+04  0.13014286498E+04  0.65864270000E+03 0.  0.
    8880022    1    1    2    0    0 -0.37675478870E+03  0.33551889943E+03  0.22127226687E+04  0.22746538999E+04  0.15294330000E+03 0.  0.
<mgrwt>
<rscale>  0 0.74073165E+03</rscale>
<asrwt>0</asrwt>
<pdfrwt beam="1">  1        1 0.52242275E+00 0.82965493E+03</pdfrwt>
<pdfrwt beam="2">  1       -1 0.27743763E-01 0.82965493E+03</pdfrwt>
<totfact> 0.37469676E+00</totfact>
</mgrwt>
</event>
<event>
 4    1  0.1043382E-007  0.8703593E+03  0.7818608E-02  0.9575395E-01
         -1   -1    0    0    0  501 -0.00000000000E+00  0.00000000000E+00  0.20031975163E+03  0.20031975169E+03  0.50400000000E-02 0.  1.
          1   -1    0    0  501    0  0.00000000000E+00 -0.00000000000E+00 -0.34646348815E+04  0.34646348815E+04  0.50400000000E-02 0. -1.
    8880023    1    1    2    0    0  0.83945241120E+02 -0.56273285115E+03 -0.10022031299E+04  0.13273795181E+04  0.65864270000E+03 0. -1.
    8880022    1    1    2    0    0 -0.83945241120E+02  0.56273285115E+03 -0.22621120000E+04  0.23375751151E+04  0.15294330000E+03 0.  1.
<mgrwt>
<rscale>  0 0.78946303E+03</rscale>
<asrwt>0</asrwt>
<pdfrwt beam="1">  1        1 0.53302071E+00 0.87035928E+03</pdfrwt>
<pdfrwt beam="2">  1       -1 0.30818426E-01 0.87035928E+03</pdfrwt>
<totfact> 0.27433164E+00</totfact>
</mgrwt>
</event>
<event>
 4    1  0.1043382E-007  0.7516732E+03  0.7818608E-02  0.9827162E-01
          1   -1    0    0  501    0  0.00000000000E+00  0.00000000000E+00  0.88789489976E+03  0.88789489977E+03  0.50400000000E-02 0. -1.
         -1   -1    0    0    0  501 -0.00000000000E+00 -0.00000000000E+00 -0.76194774672E+03  0.76194774674E+03  0.50400000000E-02 0.  1.
    8880023    1    1    2    0    0  0.29188862001E+03  0.21448413999E+03 -0.50560653614E+03  0.90589766996E+03  0.65864270000E+03 0.  0.
    8880022    1    1    2    0    0 -0.29188862001E+03 -0.21448413999E+03  0.63155368917E+03  0.74394497654E+03  0.15294330000E+03 0. -1.
<mgrwt>
<rscale>  0 0.63925025E+03</rscale>
<asrwt>0</asrwt>
<pdfrwt beam="1">  1        1 0.13659921E+00 0.75167321E+03</pdfrwt>
<pdfrwt beam="2">  1       -1 0.11722273E+00 0.75167321E+03</pdfrwt>
<totfact> 0.12573372E+01</totfact>
</mgrwt>
</event>
<event>
 4    1  0.1043382E-007  0.7114632E+03  0.7818608E-02  0.9952607E-01
         -1   -1    0    0    0  501 -0.00000000000E+00  0.00000000000E+00  0.15422536841E+03  0.15422536850E+03  0.50400000000E-02 0.  1.
          1   -1    0    0  501    0  0.00000000000E+00 -0.00000000000E+00 -0.20144051434E+04  0.20144051434E+04  0.50400000000E-02 0. -1.
    8880023    1    1    2    0    0  0.11790584598E+03  0.24180126044E+03 -0.83111300064E+03  0.10940423503E+04  0.65864270000E+03 0.  1.
    8880022    1    1    2    0    0 -0.11790584598E+03 -0.24180126044E+03 -0.10290667744E+04  0.10745881617E+04  0.15294330000E+03 0. -1.
<mgrwt>
<rscale>  0 0.57778075E+03</rscale>
<asrwt>0</asrwt>
<pdfrwt beam="1">  1        1 0.30990847E+00 0.71146317E+03</pdfrwt>
<pdfrwt beam="2">  1       -1 0.23726981E-01 0.71146317E+03</pdfrwt>
<totfact> 0.46376119E+01</totfact>
</mgrwt>
</event>
<event>
 4    1  0.1043382E-007  0.6715772E+03  0.7818608E-02  0.1014557E+00
          1   -1    0    0  501    0  0.00000000000E+00  0.00000000000E+00  0.69526704806E+03  0.69526704808E+03  0.50400000000E-02 0. -1.
         -1   -1    0    0    0  501 -0.00000000000E+00 -0.00000000000E+00 -0.27800526914E+03  0.27800526919E+03  0.50400000000E-02 0.  1.
    8880023    1    1    2    0    0  0.84870303483E+02  0.10001358243E+03  0.27052948108E+03  0.72401801875E+03  0.65864270000E+03 0.  0.
    8880022    1    1    2    0    0 -0.84870303483E+02 -0.10001358243E+03  0.14673229784E+03  0.24925429852E+03  0.15294330000E+03 0.  0.
<mgrwt>
<rscale>  0 0.49703176E+03</rscale>
<asrwt>0</asrwt>
<pdfrwt beam="1">  1        1 0.10696416E+00 0.67157717E+03</pdfrwt>
<pdfrwt beam="2">  1       -1 0.42770041E-01 0.67157717E+03</pdfrwt>
<totfact> 0.15125310E+02</totfact>
</mgrwt>
</event>
<event>
 4    1  0.1043382E-007  0.1016213E+04  0.7818608E-02  0.9360647E-01
          1   -1    0    0  501    0  0.00000000000E+00  0.00000000000E+00  0.23630099868E+04  0.23630099868E+04  0.50400000000E-02 0. -1.
         -1   -1    0    0    0  501 -0.00000000000E+00 -0.00000000000E+00 -0.47184358339E+03  0.47184358342E+03  0.50400000000E-02 0.  1.
    8880023    1    1    2    0    0  0.46765392431E+02  0.77245823205E+03  0.17640733298E+04  0.20358397878E+04  0.65864270000E+03 0.  0.
    8880022    1    1    2    0    0 -0.46765392431E+02 -0.77245823205E+03  0.12709307359E+03  0.79901378246E+03  0.15294330000E+03 0.  0.
<mgrwt>
<rscale>  0 0.95386291E+03</rscale>
<asrwt>0</asrwt>
<pdfrwt beam="1">  1        1 0.36354000E+00 0.10162130E+04</pdfrwt>
<pdfrwt beam="2">  1       -1 0.72591321E-01 0.10162130E+04</pdfrwt>
<totfact> 0.32705829E+00</totfact>
</mgrwt>
</event>
<event>
 4    1  0.1272675E-007  0.6805129E+03  0.7818608E-02  0.1009035E+00
         -1   -1    0    0    0  501 -0.00000000000E+00  0.00000000000E+00  0.62448470892E+03  0.62448470894E+03  0.50400000000E-02 0.  1.
          1   -1    0    0  501    0  0.00000000000E+00 -0.00000000000E+00 -0.31267633601E+04  0.31267633601E+04  0.50400000000E-02 0. -1.
    8880023    1    1    2    0    0 -0.17109414221E+03 -0.37874529875E+01  0.43327384344E+03  0.80673662367E+03  0.65864270000E+03 0.  1.
    8880022    1    1    2    0    0  0.17109414221E+03  0.37874529875E+01 -0.29355524946E+04  0.29445114454E+04  0.15294330000E+03 0.  0.
<mgrwt>
<rscale>  0 0.51859957E+03</rscale>
<asrwt>0</asrwt>
<pdfrwt beam="1">  1        1 0.48104051E+00 0.68051286E+03</pdfrwt>
<pdfrwt beam="2">  1       -1 0.96074573E-01 0.68051286E+03</pdfrwt>
<totfact> 0.55587133E-01</totfact>
</mgrwt>
</event>
<event>
 4    1  0.1043382E-007  0.8101933E+03  0.7818608E-02  0.9689174E-01
         -1   -1    0    0    0  501 -0.00000000000E+00  0.00000000000E+00  0.60934219825E+03  0.60934219827E+03  0.50400000000E-02 0.  1.
          1   -1    0    0  501    0  0.00000000000E+00 -0.00000000000E+00 -0.13320408056E+04  0.13320408056E+04  0.50400000000E-02 0. -1.
    8880023    1    1    2    0    0  0.47083720473E+03 -0.30255217680E+02  0.25138638412E+03  0.84829733699E+03  0.65864270000E+03 0. -1.
    8880022    1    1    2    0    0 -0.47083720473E+03  0.30255217680E+02 -0.97408499149E+03  0.10930856669E+04  0.15294330000E+03 0.  0.
<mgrwt>
<rscale>  0 0.71665020E+03</rscale>
<asrwt>0</asrwt>
<pdfrwt beam="1">  1        1 0.20492935E+00 0.81019335E+03</pdfrwt>
<pdfrwt beam="2">  1       -1 0.93744954E-01 0.81019335E+03</pdfrwt>
<totfact> 0.97288442E+00</totfact>
</mgrwt>
</event>
<event>
 4    1  0.1043382E-007  0.6814205E+03  0.7818608E-02  0.1008531E+00
         -1   -1    0    0    0  501 -0.00000000000E+00  0.00000000000E+00  0.19683212115E+03  0.19683212121E+03  0.50400000000E-02 0.  1.
          1   -1    0    0  501    0  0.00000000000E+00 -0.00000000000E+00 -0.16237715510E+04  0.16237715510E+04  0.50400000000E-02 0. -1.
    8880023    1    1    2    0    0 -0.13841464344E+03  0.10660691275E+03 -0.45035484706E+03  0.81679455305E+03  0.65864270000E+03 0.  1.
    8880022    1    1    2    0    0  0.13841464344E+03 -0.10660691275E+03 -0.97658458282E+03  0.10038091192E+04  0.15294330000E+03 0.  0.
<mgrwt>
<rscale>  0 0.52062544E+03</rscale>
<asrwt>0</asrwt>
<pdfrwt beam="1">  1        1 0.24981100E+00 0.68142047E+03</pdfrwt>
<pdfrwt beam="2">  1       -1 0.30281866E-01 0.68142047E+03</pdfrwt>
<totfact> 0.55902685E+01</totfact>
</mgrwt>
</event>
<event>
 4    1  0.1043382E-007  0.7543982E+03  0.7818608E-02  0.9819832E-01
         -1   -1    0    0    0  501 -0.00000000000E+00  0.00000000000E+00  0.12894839710E+04  0.12894839710E+04  0.50400000000E-02 0.  1.
          1   -1    0    0  501    0  0.00000000000E+00 -0.00000000000E+00 -0.48926409450E+03  0.48926409452E+03  0.50400000000E-02 0. -1.
    8880023    1    1    2    0    0 -0.18338842365E+03 -0.31886532774E+03  0.10615531118E+04  0.13023101115E+04  0.65864270000E+03 0.  0.
    8880022    1    1    2    0    0  0.18338842365E+03  0.31886532774E+03 -0.26133323527E+03  0.47643795402E+03  0.15294330000E+03 0. -1.
<mgrwt>
<rscale>  0 0.64309026E+03</rscale>
<asrwt>0</asrwt>
<pdfrwt beam="1">  1        1 0.75271400E-01 0.75439818E+03</pdfrwt>
<pdfrwt beam="2">  1       -1 0.19838215E+00 0.75439818E+03</pdfrwt>
<totfact> 0.72850594E+00</totfact>
</mgrwt>
</event>
<event>
 4    1  0.1043382E-007  0.6730415E+03  0.7818608E-02  0.1013570E+00
          1   -1    0    0  501    0  0.00000000000E+00  0.00000000000E+00  0.96426700913E+03  0.96426700914E+03  0.50400000000E-02 0. -1.
         -1   -1    0    0    0  501 -0.00000000000E+00 -0.00000000000E+00 -0.21902937237E+03  0.21902937243E+03  0.50400000000E-02 0.  1.
    8880023    1    1    2    0    0 -0.13704033551E+03 -0.19865706955E+02  0.40531812097E+03  0.78566385008E+03  0.65864270000E+03 0.  1.
    8880022    1    1    2    0    0  0.13704033551E+03  0.19865706955E+02  0.33991951580E+03  0.39763253150E+03  0.15294330000E+03 0. -1.
<mgrwt>
<rscale>  0 0.50080044E+03</rscale>
<asrwt>0</asrwt>
<pdfrwt beam="1">  1        1 0.14834877E+00 0.67304153E+03</pdfrwt>
<pdfrwt beam="2">  1       -1 0.33696826E-01 0.67304153E+03</pdfrwt>
<totfact> 0.13711215E+02</totfact>
</mgrwt>
</event>
<event>
 4    1  0.1043382E-007  0.6791538E+03  0.7818608E-02  0.1009806E+00
          1   -1    0    0  501    0  0.00000000000E+00  0.00000000000E+00  0.15634830365E+04  0.15634830365E+04  0.50400000000E-02 0. -1.
         -1   -1    0    0    0  501 -0.00000000000E+00 -0.00000000000E+00 -0.23084696982E+03  0.23084696988E+03  0.50400000000E-02 0.  1.
    8880023    1    1    2    0    0 -0.10921920505E+03 -0.12454273748E+03  0.30897317286E+03  0.74613293455E+03  0.65864270000E+03 0.  1.
    8880022    1    1    2    0    0  0.10921920505E+03  0.12454273748E+03  0.10236628938E+04  0.10481970718E+04  0.15294330000E+03 0.  0.
<mgrwt>
<rscale>  0 0.51551654E+03</rscale>
<asrwt>0</asrwt>
<pdfrwt beam="1">  1        1 0.24053586E+00 0.67915384E+03</pdfrwt>
<pdfrwt beam="2">  1       -1 0.35514918E-01 0.67915384E+03</pdfrwt>
<totfact> 0.46384976E+01</totfact>
</mgrwt>
</event>
<event>
 4    1  0.1043382E-007  0.9923599E+03  0.7818608E-02  0.9391622E-01
          1   -1    0    0  501    0  0.00000000000E+00  0.00000000000E+00  0.18717235547E+04  0.18717235547E+04  0.50400000000E-02 0. -1.
         -1   -1    0    0    0  501 -0.00000000000E+00 -0.00000000000E+00 -0.92629684014E+03  0.92629684015E+03  0.50400000000E-02 0.  1.
    8880023    1    1    2    0    0 -0.35185740894E+03  0.65357816866E+03 -0.54048397250E+03  0.11300005264E+04  0.65864270000E+03 0.  0.
    8880022    1    1    2    0    0  0.35185740894E+03 -0.65357816866E+03  0.14859106871E+04  0.16680198685E+04  0.15294330000E+03 0.  0.
<mgrwt>
<rscale>  0 0.92768368E+03</rscale>
<asrwt>0</asrwt>
<pdfrwt beam="1">  1        1 0.28795747E+00 0.99235995E+03</pdfrwt>
<pdfrwt beam="2">  1       -1 0.14250721E+00 0.99235995E+03</pdfrwt>
<totfact> 0.14721273E+00</totfact>
</mgrwt>
</event>
<event>
 4    1  0.1043382E-007  0.6703548E+03  0.7818608E-02  0.1015410E+00
         -1   -1    0    0    0  501 -0.00000000000E+00  0.00000000000E+00  0.10573810256E+03  0.10573810268E+03  0.50400000000E-02 0.  1.
          1   -1    0    0  501    0  0.00000000000E+00 -0.00000000000E+00 -0.47926817450E+04  0.47926817450E+04  0.50400000000E-02 0. -1.
    8880023    1    1    2    0    0  0.63287032321E+01  0.12460062128E+03 -0.98646601357E+03  0.11926821746E+04  0.65864270000E+03 0.  1.
    8880022    1    1    2    0    0 -0.63287032321E+01 -0.12460062128E+03 -0.37004776288E+04  0.37057376731E+04  0.15294330000E+03 0.  0.
<mgrwt>
<rscale>  0 0.49380077E+03</rscale>
<asrwt>0</asrwt>
<pdfrwt beam="1">  1        1 0.73733548E+00 0.67035481E+03</pdfrwt>
<pdfrwt beam="2">  1       -1 0.16267404E-01 0.67035481E+03</pdfrwt>
<totfact> 0.52026354E-01</totfact>
</mgrwt>
</event>
<event>
 4    1  0.1043382E-007  0.9079534E+03  0.7818608E-02  0.9513382E-01
          1   -1    0    0  501    0  0.00000000000E+00  0.00000000000E+00  0.35558990306E+04  0.35558990306E+04  0.50400000000E-02 0. -1.
         -1   -1    0    0    0  501 -0.00000000000E+00 -0.00000000000E+00 -0.19562477831E+03  0.19562477838E+03  0.50400000000E-02 0.  1.
    8880023    1    1    2    0    0  0.61526975536E+03  0.10960099363E+03  0.12473368053E+04  0.15427989376E+04  0.65864270000E+03 0.  1.
    8880022    1    1    2    0    0 -0.61526975536E+03 -0.10960099363E+03  0.21129374470E+04  0.22087248715E+04  0.15294330000E+03 0.  0.
<mgrwt>
<rscale>  0 0.83304335E+03</rscale>
<asrwt>0</asrwt>
<pdfrwt beam="1">  1        1 0.54706141E+00 0.90795344E+03</pdfrwt>
<pdfrwt beam="2">  1       -1 0.30096119E-01 0.90795344E+03</pdfrwt>
<totfact> 0.24133350E+00</totfact>
</mgrwt>
</event>
<event>
 4    1  0.1043382E-007  0.1052689E+04  0.7818608E-02  0.9315656E-01
         -1   -1    0    0    0  501 -0.00000000000E+00  0.00000000000E+00  0.97963568959E+03  0.97963568960E+03  0.50400000000E-02 0.  1.
          1   -1    0    0  501    0  0.00000000000E+00 -0.00000000000E+00 -0.20530316922E+04  0.20530316922E+04  0.50400000000E-02 0. -1.
    8880023    1    1    2    0    0 -0.28012799877E+02 -0.82070674375E+03 -0.16923459876E+04  0.19930352290E+04  0.65864270000E+03 0.  0.
    8880022    1    1    2    0    0  0.28012799877E+02  0.82070674375E+03  0.61894998497E+03  0.10396321528E+04  0.15294330000E+03 0.  0.
<mgrwt>
<rscale>  0 0.99354262E+03</rscale>
<asrwt>0</asrwt>
<pdfrwt beam="1">  1        1 0.31585103E+00 0.10526892E+04</pdfrwt>
<pdfrwt beam="2">  1       -1 0.15071318E+00 0.10526892E+04</pdfrwt>
<totfact> 0.94812245E-01</totfact>
</mgrwt>
</event>
<event>
 4    1  0.1043382E-007  0.6946547E+03  0.7818608E-02  0.1002014E+00
          1   -1    0    0  501    0  0.00000000000E+00  0.00000000000E+00  0.32391813948E+04  0.32391813948E+04  0.50400000000E-02 0. -1.
         -1   -1    0    0    0  501 -0.00000000000E+00 -0.00000000000E+00 -0.84953485011E+02  0.84953485160E+02  0.50400000000E-02 0.  1.
    8880023    1    1    2    0    0  0.13724408786E+03 -0.17291327986E+03  0.15631543472E+04  0.17105544894E+04  0.65864270000E+03 0.  0.
    8880022    1    1    2    0    0 -0.13724408786E+03  0.17291327986E+03  0.15910735626E+04  0.16135803905E+04  0.15294330000E+03 0.  0.
<mgrwt>
<rscale>  0 0.54775791E+03</rscale>
<asrwt>0</asrwt>
<pdfrwt beam="1">  1        1 0.49833562E+00 0.69465470E+03</pdfrwt>
<pdfrwt beam="2">  1       -1 0.13069766E-01 0.69465470E+03</pdfrwt>
<totfact> 0.17568045E+01</totfact>
</mgrwt>
</event>
<event>
 4    1  0.1043382E-007  0.7345008E+03  0.7818608E-02  0.9876265E-01
          1   -1    0    0  501    0  0.00000000000E+00  0.00000000000E+00  0.13976984153E+04  0.13976984153E+04  0.50400000000E-02 0. -1.
         -1   -1    0    0    0  501 -0.00000000000E+00 -0.00000000000E+00 -0.25698023680E+03  0.25698023685E+03  0.50400000000E-02 0.  1.
    8880023    1    1    2    0    0  0.18754278981E+02  0.32454514208E+03  0.41187699049E+03  0.84210102350E+03  0.65864270000E+03 0.  0.
    8880022    1    1    2    0    0 -0.18754278981E+02 -0.32454514208E+03  0.72884118800E+03  0.81257762864E+03  0.15294330000E+03 0.  0.
<mgrwt>
<rscale>  0 0.61425488E+03</rscale>
<asrwt>0</asrwt>
<pdfrwt beam="1">  1        1 0.21503052E+00 0.73450084E+03</pdfrwt>
<pdfrwt beam="2">  1       -1 0.39535421E-01 0.73450084E+03</pdfrwt>
<totfact> 0.49373670E+01</totfact>
</mgrwt>
</event>
<event>
 4    1  0.1043382E-007  0.6708345E+03  0.7818608E-02  0.1015072E+00
          1   -1    0    0  501    0  0.00000000000E+00  0.00000000000E+00  0.11468798037E+04  0.11468798037E+04  0.50400000000E-02 0. -1.
         -1   -1    0    0    0  501 -0.00000000000E+00 -0.00000000000E+00 -0.63910051857E+03  0.63910051859E+03  0.50400000000E-02 0.  1.
    8880023    1    1    2    0    0  0.74652930913E+02  0.10312948533E+03 -0.44997393969E+03  0.80777193781E+03  0.65864270000E+03 0.  1.
    8880022    1    1    2    0    0 -0.74652930913E+02 -0.10312948533E+03  0.95775322484E+03  0.97820838452E+03  0.15294330000E+03 0.  0.
<mgrwt>
<rscale>  0 0.49507843E+03</rscale>
<asrwt>0</asrwt>
<pdfrwt beam="1">  1        1 0.17644305E+00 0.67083452E+03</pdfrwt>
<pdfrwt beam="2">  1       -1 0.98323156E-01 0.67083452E+03</pdfrwt>
<totfact> 0.12107656E+01</totfact>
</mgrwt>
</event>
<event>
 4    1  0.1043382E-007  0.8016318E+03  0.7818608E-02  0.9707279E-01
          1   -1    0    0  501    0  0.00000000000E+00  0.00000000000E+00  0.10341694553E+04  0.10341694553E+04  0.50400000000E-02 0. -1.
         -1   -1    0    0    0  501 -0.00000000000E+00 -0.00000000000E+00 -0.13105034898E+04  0.13105034898E+04  0.50400000000E-02 0.  1.
    8880023    1    1    2    0    0 -0.18359740978E+03 -0.41844396655E+03 -0.11174846662E+04  0.13752765349E+04  0.65864270000E+03 0.  1.
    8880022    1    1    2    0    0  0.18359740978E+03  0.41844396655E+03  0.84115063162E+03  0.96939641020E+03  0.15294330000E+03 0.  0.
<mgrwt>
<rscale>  0 0.70585065E+03</rscale>
<asrwt>0</asrwt>
<pdfrwt beam="1">  1        1 0.15910299E+00 0.80163182E+03</pdfrwt>
<pdfrwt beam="2">  1       -1 0.20161592E+00 0.80163182E+03</pdfrwt>
<totfact> 0.21594512E+00</totfact>
</mgrwt>
</event>
<event>
 4    1  0.1043382E-007  0.6594069E+03  0.7818608E-02  0.1024772E+00
          1   -1    0    0  501    0  0.00000000000E+00  0.00000000000E+00  0.42439089024E+03  0.42439089027E+03  0.50400000000E-02 0. -1.
         -1   -1    0    0    0  501 -0.00000000000E+00 -0.00000000000E+00 -0.61712046323E+03  0.61712046325E+03  0.50400000000E-02 0.  1.
    8880023    1    1    2    0    0 -0.14578812062E+02 -0.28189879805E+02 -0.40808807451E+03  0.77546972468E+03  0.65864270000E+03 0.  1.
    8880022    1    1    2    0    0  0.14578812062E+02  0.28189879805E+02  0.21535850152E+03  0.26604162884E+03  0.15294330000E+03 0.  0.
<mgrwt>
<rscale>  0 0.46003015E+03</rscale>
<asrwt>0</asrwt>
<pdfrwt beam="1">  1        1 0.65290907E-01 0.65940687E+03</pdfrwt>
<pdfrwt beam="2">  1       -1 0.94941609E-01 0.65940687E+03</pdfrwt>
<totfact> 0.61065536E+01</totfact>
</mgrwt>
</event>
<event>
 4    1  0.1043382E-007  0.7714865E+03  0.7818608E-02  0.9776229E-01
         -1   -1    0    0    0  501 -0.00000000000E+00  0.00000000000E+00  0.48158051128E+03  0.48158051130E+03  0.50400000000E-02 0.  1.
          1   -1    0    0  501    0  0.00000000000E+00 -0.00000000000E+00 -0.14025654621E+04  0.14025654621E+04  0.50400000000E-02 0. -1.
    8880023    1    1    2    0    0  0.31577726083E+03  0.24832627634E+03  0.98496373292E+02  0.77774864821E+03  0.65864270000E+03 0.  1.
    8880022    1    1    2    0    0 -0.31577726083E+03 -0.24832627634E+03 -0.10194813241E+04  0.11063973252E+04  0.15294330000E+03 0.  0.
<mgrwt>
<rscale>  0 0.66653971E+03</rscale>
<asrwt>0</asrwt>
<pdfrwt beam="1">  1        1 0.21577930E+00 0.77148650E+03</pdfrwt>
<pdfrwt beam="2">  1       -1 0.74089310E-01 0.77148650E+03</pdfrwt>
<totfact> 0.14485197E+01</totfact>
</mgrwt>
</event>
<event>
 4    1  0.1043382E-007  0.6669153E+03  0.7818608E-02  0.1017978E+00
          1   -1    0    0  501    0  0.00000000000E+00  0.00000000000E+00  0.27603123410E+04  0.27603123410E+04  0.50400000000E-02 0. -1.
         -1   -1    0    0    0  501 -0.00000000000E+00 -0.00000000000E+00 -0.81636725873E+02  0.81636726028E+02  0.50400000000E-02 0.  1.
    8880023    1    1    2    0    0 -0.10069176265E+03 -0.28757579777E+02  0.14095754165E+04  0.15593841382E+04  0.65864270000E+03 0.  1.
    8880022    1    1    2    0    0  0.10069176265E+03  0.28757579777E+02  0.12691001986E+04  0.12825649288E+04  0.15294330000E+03 0.  0.
<mgrwt>
<rscale>  0 0.48423445E+03</rscale>
<asrwt>0</asrwt>
<pdfrwt beam="1">  1        1 0.42466349E+00 0.66691531E+03</pdfrwt>
<pdfrwt beam="2">  1       -1 0.12559495E-01 0.66691531E+03</pdfrwt>
<totfact> 0.41444979E+01</totfact>
</mgrwt>
</event>
<event>
 4    1  0.1043382E-007  0.1010977E+04  0.7818608E-02  0.9367335E-01
          1   -1    0    0  501    0  0.00000000000E+00  0.00000000000E+00  0.13988299417E+04  0.13988299417E+04  0.50400000000E-02 0. -1.
         -1   -1    0    0    0  501 -0.00000000000E+00 -0.00000000000E+00 -0.14080669765E+04  0.14080669765E+04  0.50400000000E-02 0.  1.
    8880023    1    1    2    0    0 -0.46059087888E+03 -0.61328647984E+03 -0.10810275772E+04  0.14800996902E+04  0.65864270000E+03 0.  0.
    8880022    1    1    2    0    0  0.46059087888E+03  0.61328647984E+03  0.10717905425E+04  0.13267972279E+04  0.15294330000E+03 0.  0.
<mgrwt>
<rscale>  0 0.94813319E+03</rscale>
<asrwt>0</asrwt>
<pdfrwt beam="1">  1        1 0.21520461E+00 0.10109770E+04</pdfrwt>
<pdfrwt beam="2">  1       -1 0.21662569E+00 0.10109770E+04</pdfrwt>
<totfact> 0.89766584E-01</totfact>
</mgrwt>
</event>
<event>
 4    1  0.1043382E-007  0.1741038E+04  0.7818608E-02  0.8755873E-01
         -1   -1    0    0    0  501 -0.00000000000E+00  0.00000000000E+00  0.14086987874E+04  0.14086987874E+04  0.50400000000E-02 0.  1.
          1   -1    0    0  501    0  0.00000000000E+00 -0.00000000000E+00 -0.21848988260E+04  0.21848988260E+04  0.50400000000E-02 0. -1.
    8880023    1    1    2    0    0  0.11721988092E+04  0.11060536063E+04 -0.91850459738E+03  0.19684678128E+04  0.65864270000E+03 0.  0.
    8880022    1    1    2    0    0 -0.11721988092E+04 -0.11060536063E+04  0.14230455882E+03  0.16251298006E+04  0.15294330000E+03 0.  0.
<mgrwt>
<rscale>  0 0.17096627E+04</rscale>
<asrwt>0</asrwt>
<pdfrwt beam="1">  1        1 0.33613828E+00 0.17410384E+04</pdfrwt>
<pdfrwt beam="2">  1       -1 0.21672289E+00 0.17410384E+04</pdfrwt>
<totfact> 0.23753770E-01</totfact>
</mgrwt>
</event>
<event>
 4    1  0.1043382E-007  0.1104912E+04  0.7818608E-02  0.9255607E-01
          1   -1    0    0  501    0  0.00000000000E+00  0.00000000000E+00  0.87104199125E+03  0.87104199126E+03  0.50400000000E-02 0. -1.
         -1   -1    0    0    0  501 -0.00000000000E+00 -0.00000000000E+00 -0.13921972209E+04  0.13921972209E+04  0.50400000000E-02 0.  1.
    8880023    1    1    2    0    0 -0.88299000846E+03  0.85729305673E+02 -0.74871648370E+03  0.13346937657E+04  0.65864270000E+03 0.  0.
    8880022    1    1    2    0    0  0.88299000846E+03 -0.85729305673E+02  0.22756125403E+03  0.92854544652E+03  0.15294330000E+03 0.  0.
<mgrwt>
<rscale>  0 0.10497457E+04</rscale>
<asrwt>0</asrwt>
<pdfrwt beam="1">  1        1 0.13400646E+00 0.11049122E+04</pdfrwt>
<pdfrwt beam="2">  1       -1 0.21418419E+00 0.11049122E+04</pdfrwt>
<totfact> 0.22981600E+00</totfact>
</mgrwt>
</event>
<event>
 4    1  0.1043382E-007  0.7173530E+03  0.7818608E-02  0.9931647E-01
         -1   -1    0    0    0  501 -0.00000000000E+00  0.00000000000E+00  0.34398848865E+03  0.34398848868E+03  0.50400000000E-02 0.  1.
          1   -1    0    0  501    0  0.00000000000E+00 -0.00000000000E+00 -0.95355345194E+03  0.95355345195E+03  0.50400000000E-02 0. -1.
    8880023    1    1    2    0    0  0.18992793203E+03 -0.21145316488E+03 -0.14500311129E+03  0.73186144102E+03  0.65864270000E+03 0.  0.
    8880022    1    1    2    0    0 -0.18992793203E+03  0.21145316488E+03 -0.46456185200E+03  0.56568049962E+03  0.15294330000E+03 0.  0.
<mgrwt>
<rscale>  0 0.58751776E+03</rscale>
<asrwt>0</asrwt>
<pdfrwt beam="1">  1        1 0.14670053E+00 0.71735296E+03</pdfrwt>
<pdfrwt beam="2">  1       -1 0.52921306E-01 0.71735296E+03</pdfrwt>
<totfact> 0.60799489E+01</totfact>
</mgrwt>
</event>
<event>
 4    1  0.1043382E-007  0.8362027E+03  0.7818608E-02  0.9637382E-01
         -1   -1    0    0    0  501 -0.00000000000E+00  0.00000000000E+00  0.45386595302E+03  0.45386595305E+03  0.50400000000E-02 0.  1.
          1   -1    0    0  501    0  0.00000000000E+00 -0.00000000000E+00 -0.10454501691E+04  0.10454501691E+04  0.50400000000E-02 0. -1.
    8880023    1    1    2    0    0  0.49842525229E+03  0.13037242050E+03 -0.41583940390E+03  0.93389363220E+03  0.65864270000E+03 0.  1.
    8880022    1    1    2    0    0 -0.49842525229E+03 -0.13037242050E+03 -0.17574481220E+03  0.56542248999E+03  0.15294330000E+03 0. -1.
<mgrwt>
<rscale>  0 0.74870612E+03</rscale>
<asrwt>0</asrwt>
<pdfrwt beam="1">  1        1 0.16083849E+00 0.83620267E+03</pdfrwt>
<pdfrwt beam="2">  1       -1 0.69825531E-01 0.83620267E+03</pdfrwt>
<totfact> 0.29457735E+01</totfact>
</mgrwt>
</event>
<event>
 4    1  0.1043382E-007  0.7551395E+03  0.7818608E-02  0.9817857E-01
         -1   -1    0    0    0  501 -0.00000000000E+00  0.00000000000E+00  0.12159124212E+04  0.12159124213E+04  0.50400000000E-02 0.  1.
          1   -1    0    0  501    0  0.00000000000E+00 -0.00000000000E+00 -0.47961525405E+03  0.47961525407E+03  0.50400000000E-02 0. -1.
    8880023    1    1    2    0    0 -0.33433668877E+03 -0.15698566944E+03  0.97244940538E+03  0.12312162987E+04  0.65864270000E+03 0.  1.
    8880022    1    1    2    0    0  0.33433668877E+03  0.15698566944E+03 -0.23615223818E+03  0.46431137664E+03  0.15294330000E+03 0.  0.
<mgrwt>
<rscale>  0 0.64412972E+03</rscale>
<asrwt>0</asrwt>
<pdfrwt beam="1">  1        1 0.73786964E-01 0.75513954E+03</pdfrwt>
<pdfrwt beam="2">  1       -1 0.18706345E+00 0.75513954E+03</pdfrwt>
<totfact> 0.89687345E+00</totfact>
</mgrwt>
</event>
<event>
 4    1  0.1043382E-007  0.8455932E+03  0.7818608E-02  0.9619723E-01
          1   -1    0    0  501    0  0.00000000000E+00  0.00000000000E+00  0.20460217574E+04  0.20460217574E+04  0.50400000000E-02 0. -1.
         -1   -1    0    0    0  501 -0.00000000000E+00 -0.00000000000E+00 -0.26974131608E+03  0.26974131613E+03  0.50400000000E-02 0.  1.
    8880023    1    1    2    0    0  0.12273745602E+03  0.51590037118E+03  0.66782644885E+03  0.10775064028E+04  0.65864270000E+03 0.  1.
    8880022    1    1    2    0    0 -0.12273745602E+03 -0.51590037118E+03  0.11084539925E+04  0.12382566707E+04  0.15294330000E+03 0.  0.
<mgrwt>
<rscale>  0 0.76004449E+03</rscale>
<asrwt>0</asrwt>
<pdfrwt beam="1">  1        1 0.31477259E+00 0.84559321E+03</pdfrwt>
<pdfrwt beam="2">  1       -1 0.41498662E-01 0.84559321E+03</pdfrwt>
<totfact> 0.16250595E+01</totfact>
</mgrwt>
</event>
<event>
 4    1  0.1043382E-007  0.8305705E+03  0.7818608E-02  0.9648223E-01
         -1   -1    0    0    0  501 -0.00000000000E+00  0.00000000000E+00  0.55197576615E+03  0.55197576617E+03  0.50400000000E-02 0.  1.
          1   -1    0    0  501    0  0.00000000000E+00 -0.00000000000E+00 -0.17336284277E+04  0.17336284277E+04  0.50400000000E-02 0. -1.
    8880023    1    1    2    0    0  0.27745796561E+03 -0.42314795299E+03  0.15796968062E+03  0.84545948398E+03  0.65864270000E+03 0.  1.
    8880022    1    1    2    0    0 -0.27745796561E+03  0.42314795299E+03 -0.13396223421E+04  0.14401447099E+04  0.15294330000E+03 0.  0.
<mgrwt>
<rscale>  0 0.74185027E+03</rscale>
<asrwt>0</asrwt>
<pdfrwt beam="1">  1        1 0.26671206E+00 0.83057048E+03</pdfrwt>
<pdfrwt beam="2">  1       -1 0.84919350E-01 0.83057048E+03</pdfrwt>
<totfact> 0.63952122E+00</totfact>
</mgrwt>
</event>
<event>
 4    1  0.1043382E-007  0.6861383E+03  0.7818608E-02  0.1006045E+00
         -1   -1    0    0    0  501 -0.00000000000E+00  0.00000000000E+00  0.15795728671E+04  0.15795728671E+04  0.50400000000E-02 0.  1.
          1   -1    0    0  501    0  0.00000000000E+00 -0.00000000000E+00 -0.63596921194E+03  0.63596921196E+03  0.50400000000E-02 0. -1.
    8880023    1    1    2    0    0 -0.18076912010E+03 -0.65560280977E+02  0.14768265916E+04  0.16284356337E+04  0.65864270000E+03 0.  1.
    8880022    1    1    2    0    0  0.18076912010E+03  0.65560280977E+02 -0.53322293644E+03  0.58710644536E+03  0.15294330000E+03 0.  0.
<mgrwt>
<rscale>  0 0.53077318E+03</rscale>
<asrwt>0</asrwt>
<pdfrwt beam="1">  1        1 0.97841418E-01 0.68613835E+03</pdfrwt>
<pdfrwt beam="2">  1       -1 0.24301121E+00 0.68613835E+03</pdfrwt>
<totfact> 0.25715529E+00</totfact>
</mgrwt>
</event>
<event>
 4    1  0.1043382E-007  0.7706970E+03  0.7818608E-02  0.9778162E-01
         -1   -1    0    0    0  501 -0.00000000000E+00  0.00000000000E+00  0.41403098524E+03  0.41403098527E+03  0.50400000000E-02 0.  1.
          1   -1    0    0  501    0  0.00000000000E+00 -0.00000000000E+00 -0.10662407389E+04  0.10662407389E+04  0.50400000000E-02 0. -1.
    8880023    1    1    2    0    0 -0.37811978185E+03 -0.13110706080E+03 -0.93714410105E+02  0.77637376807E+03  0.65864270000E+03 0.  1.
    8880022    1    1    2    0    0  0.37811978185E+03  0.13110706080E+03 -0.55849534354E+03  0.70389795609E+03  0.15294330000E+03 0.  0.
<mgrwt>
<rscale>  0 0.66547785E+03</rscale>
<asrwt>0</asrwt>
<pdfrwt beam="1">  1        1 0.16403704E+00 0.77069698E+03</pdfrwt>
<pdfrwt beam="2">  1       -1 0.63697075E-01 0.77069698E+03</pdfrwt>
<totfact> 0.34442314E+01</totfact>
</mgrwt>
</event>
<event>
 4    1  0.1043382E-007  0.7240218E+03  0.7818608E-02  0.9909205E-01
         -1   -1    0    0    0  501 -0.00000000000E+00  0.00000000000E+00  0.92713103517E+03  0.92713103518E+03  0.50400000000E-02 0.  1.
          1   -1    0    0  501    0  0.00000000000E+00 -0.00000000000E+00 -0.40695809867E+03  0.40695809871E+03  0.50400000000E-02 0. -1.
    8880023    1    1    2    0    0  0.25475832901E+03  0.15967341804E+03  0.64966189501E+03  0.97276317299E+03  0.65864270000E+03 0.  1.
    8880022    1    1    2    0    0 -0.25475832901E+03 -0.15967341804E+03 -0.12948895852E+03  0.36132596090E+03  0.15294330000E+03 0.  0.
<mgrwt>
<rscale>  0 0.59817232E+03</rscale>
<asrwt>0</asrwt>
<pdfrwt beam="1">  1        1 0.62608939E-01 0.72402183E+03</pdfrwt>
<pdfrwt beam="2">  1       -1 0.14263554E+00 0.72402183E+03</pdfrwt>
<totfact> 0.24040472E+01</totfact>
</mgrwt>
</event>
<event>
 4    1  0.1043382E-007  0.1096192E+04  0.7818608E-02  0.9265308E-01
         -1   -1    0    0    0  501 -0.00000000000E+00  0.00000000000E+00  0.67302654276E+03  0.67302654278E+03  0.50400000000E-02 0.  1.
          1   -1    0    0  501    0  0.00000000000E+00 -0.00000000000E+00 -0.23703296877E+04  0.23703296877E+04  0.50400000000E-02 0. -1.
    8880023    1    1    2    0    0 -0.66570042509E+03  0.56979721396E+03  0.34214607137E+02  0.10967254746E+04  0.65864270000E+03 0.  1.
    8880022    1    1    2    0    0  0.66570042509E+03 -0.56979721396E+03 -0.17315177520E+04  0.19466307558E+04  0.15294330000E+03 0.  0.
<mgrwt>
<rscale>  0 0.10404036E+04</rscale>
<asrwt>0</asrwt>
<pdfrwt beam="1">  1        1 0.36466610E+00 0.10961916E+04</pdfrwt>
<pdfrwt beam="2">  1       -1 0.10354255E+00 0.10961916E+04</pdfrwt>
<totfact> 0.14680211E+00</totfact>
</mgrwt>
</event>
<event>
 4    1  0.1043382E-007  0.9549326E+03  0.7818608E-02  0.9443052E-01
         -1   -1    0    0    0  501 -0.00000000000E+00  0.00000000000E+00  0.15148764081E+04  0.15148764081E+04  0.50400000000E-02 0.  1.
          1   -1    0    0  501    0  0.00000000000E+00 -0.00000000000E+00 -0.64429269814E+03  0.64429269816E+03  0.50400000000E-02 0. -1.
    8880023    1    1    2    0    0  0.33060559819E+03 -0.60727751445E+03  0.10594155926E+04  0.14262740428E+04  0.65864270000E+03 0.  0.
    8880022    1    1    2    0    0 -0.33060559819E+03  0.60727751445E+03 -0.18883188264E+03  0.73289506345E+03  0.15294330000E+03 0.  0.
<mgrwt>
<rscale>  0 0.88615764E+03</rscale>
<asrwt>0</asrwt>
<pdfrwt beam="1">  1        1 0.99121954E-01 0.95493259E+03</pdfrwt>
<pdfrwt beam="2">  1       -1 0.23305791E+00 0.95493259E+03</pdfrwt>
<totfact> 0.28136697E+00</totfact>
</mgrwt>
</event>
<event>
 4    1  0.1043382E-007  0.7883805E+03  0.7818608E-02  0.9736507E-01
         -1   -1    0    0    0  501 -0.00000000000E+00  0.00000000000E+00  0.46752400870E+03  0.46752400873E+03  0.50400000000E-02 0.  1.
          1   -1    0    0  501    0  0.00000000000E+00 -0.00000000000E+00 -0.12378556764E+04  0.12378556764E+04  0.50400000000E-02 0. -1.
    8880023    1    1    2    0    0 -0.29243641124E+03 -0.31971012832E+03  0.22860973598E+02  0.78871189363E+03  0.65864270000E+03 0.  1.
    8880022    1    1    2    0    0  0.29243641124E+03  0.31971012832E+03 -0.79319264131E+03  0.91666779152E+03  0.15294330000E+03 0.  0.
<mgrwt>
<rscale>  0 0.68884171E+03</rscale>
<asrwt>0</asrwt>
<pdfrwt beam="1">  1        1 0.19043933E+00 0.78838051E+03</pdfrwt>
<pdfrwt beam="2">  1       -1 0.71926771E-01 0.78838051E+03</pdfrwt>
<totfact> 0.20083312E+01</totfact>
</mgrwt>
</event>
<event>
 4    1  0.1159815E-007  0.9160537E+03  0.7818608E-02  0.9500737E-01
         -1   -1    0    0    0  501 -0.00000000000E+00  0.00000000000E+00  0.95970261520E+03  0.95970261521E+03  0.50400000000E-02 0.  1.
          1   -1    0    0  501    0  0.00000000000E+00 -0.00000000000E+00 -0.20681740518E+04  0.20681740518E+04  0.50400000000E-02 0. -1.
    8880023    1    1    2    0    0 -0.22642888518E+03  0.59504128979E+03  0.66854391953E+03  0.11340658514E+04  0.65864270000E+03 0.  1.
    8880022    1    1    2    0    0  0.22642888518E+03 -0.59504128979E+03 -0.17770153562E+04  0.18938108157E+04  0.15294330000E+03 0.  0.
<mgrwt>
<rscale>  0 0.84229539E+03</rscale>
<asrwt>0</asrwt>
<pdfrwt beam="1">  1        1 0.31818062E+00 0.91605370E+03</pdfrwt>
<pdfrwt beam="2">  1       -1 0.14764656E+00 0.91605370E+03</pdfrwt>
<totfact> 0.10006664E+00</totfact>
</mgrwt>
</event>
<event>
 4    1  0.1043382E-007  0.6617987E+03  0.7818608E-02  0.1022385E+00
          1   -1    0    0  501    0  0.00000000000E+00  0.00000000000E+00  0.10389023136E+04  0.10389023136E+04  0.50400000000E-02 0. -1.
         -1   -1    0    0    0  501 -0.00000000000E+00 -0.00000000000E+00 -0.21148395877E+03  0.21148395883E+03  0.50400000000E-02 0.  1.
    8880023    1    1    2    0    0  0.57171687694E+02  0.29979240023E+02  0.35788383827E+03  0.75236852982E+03  0.65864270000E+03 0.  1.
    8880022    1    1    2    0    0 -0.57171687694E+02 -0.29979240023E+02  0.46953451656E+03  0.49801774262E+03  0.15294330000E+03 0.  0.
<mgrwt>
<rscale>  0 0.46835741E+03</rscale>
<asrwt>0</asrwt>
<pdfrwt beam="1">  1        1 0.15983113E+00 0.66179873E+03</pdfrwt>
<pdfrwt beam="2">  1       -1 0.32535994E-01 0.66179873E+03</pdfrwt>
<totfact> 0.12784312E+02</totfact>
</mgrwt>
</event>
<event>
 4    1  0.1043382E-007  0.9964635E+03  0.7818608E-02  0.9386199E-01
         -1   -1    0    0    0  501 -0.00000000000E+00  0.00000000000E+00  0.93858739004E+03  0.93858739006E+03  0.50400000000E-02 0.  1.
          1   -1    0    0  501    0  0.00000000000E+00 -0.00000000000E+00 -0.16686052168E+04  0.16686052169E+04  0.50400000000E-02 0. -1.
    8880023    1    1    2    0    0  0.38395664481E+03 -0.64164365410E+03  0.53406979979E+03  0.11305618255E+04  0.65864270000E+03 0.  0.
    8880022    1    1    2    0    0 -0.38395664481E+03  0.64164365410E+03 -0.12640876266E+04  0.14766307814E+04  0.15294330000E+03 0.  0.
<mgrwt>
<rscale>  0 0.93220191E+03</rscale>
<asrwt>0</asrwt>
<pdfrwt beam="1">  1        1 0.25670849E+00 0.99646349E+03</pdfrwt>
<pdfrwt beam="2">  1       -1 0.14439806E+00 0.99646349E+03</pdfrwt>
<totfact> 0.19491873E+00</totfact>
</mgrwt>
</event>
<event>
 4    1  0.1043382E-007  0.6677272E+03  0.7818608E-02  0.1017347E+00
          1   -1    0    0  501    0  0.00000000000E+00  0.00000000000E+00  0.51885992020E+03  0.51885992023E+03  0.50400000000E-02 0. -1.
         -1   -1    0    0    0  501 -0.00000000000E+00 -0.00000000000E+00 -0.55018917394E+03  0.55018917397E+03  0.50400000000E-02 0.  1.
    8880023    1    1    2    0    0  0.55360536770E+02 -0.94787001513E+02 -0.30724837035E+03  0.73502457920E+03  0.65864270000E+03 0.  1.
    8880022    1    1    2    0    0 -0.55360536770E+02  0.94787001513E+02  0.27591911661E+03  0.33402451499E+03  0.15294330000E+03 0.  0.
<mgrwt>
<rscale>  0 0.48656129E+03</rscale>
<asrwt>0</asrwt>
<pdfrwt beam="1">  1        1 0.79824603E-01 0.66772717E+03</pdfrwt>
<pdfrwt beam="2">  1       -1 0.84644488E-01 0.66772717E+03</pdfrwt>
<totfact> 0.59779439E+01</totfact>
</mgrwt>
</event>
<event>
 4    1  0.1043382E-007  0.1125709E+04  0.7818608E-02  0.9232958E-01
          1   -1    0    0  501    0  0.00000000000E+00  0.00000000000E+00  0.10443437063E+04  0.10443437064E+04  0.50400000000E-02 0. -1.
         -1   -1    0    0    0  501 -0.00000000000E+00 -0.00000000000E+00 -0.19446434016E+04  0.19446434016E+04  0.50400000000E-02 0.  1.
    8880023    1    1    2    0    0  0.52777619749E+03 -0.74489062031E+03 -0.15078982902E+04  0.18817484451E+04  0.65864270000E+03 0.  0.
    8880022    1    1    2    0    0 -0.52777619749E+03  0.74489062031E+03  0.60759859496E+03  0.11072386628E+04  0.15294330000E+03 0.  0.
<mgrwt>
<rscale>  0 0.10719623E+04</rscale>
<asrwt>0</asrwt>
<pdfrwt beam="1">  1        1 0.16066826E+00 0.11257086E+04</pdfrwt>
<pdfrwt beam="2">  1       -1 0.29917591E+00 0.11257086E+04</pdfrwt>
<totfact> 0.46505239E-01</totfact>
</mgrwt>
</event>
<event>
 4    1  0.1043382E-007  0.6993224E+03  0.7818608E-02  0.1000002E+00
         -1   -1    0    0    0  501 -0.00000000000E+00  0.00000000000E+00  0.23690443991E+03  0.23690443997E+03  0.50400000000E-02 0.  1.
          1   -1    0    0  501    0  0.00000000000E+00 -0.00000000000E+00 -0.10837975277E+04  0.10837975277E+04  0.50400000000E-02 0. -1.
    8880023    1    1    2    0    0  0.21436063615E+03  0.96390531164E+02 -0.43892572434E+03  0.82565586934E+03  0.65864270000E+03 0.  1.
    8880022    1    1    2    0    0 -0.21436063615E+03 -0.96390531164E+02 -0.40796736345E+03  0.49504609834E+03  0.15294330000E+03 0.  0.
<mgrwt>
<rscale>  0 0.55649193E+03</rscale>
<asrwt>0</asrwt>
<pdfrwt beam="1">  1        1 0.16673808E+00 0.69932240E+03</pdfrwt>
<pdfrwt beam="2">  1       -1 0.36446838E-01 0.69932240E+03</pdfrwt>
<totfact> 0.96368655E+01</totfact>
</mgrwt>
</event>
<event>
 4    1  0.1043382E-007  0.8155217E+03  0.7818608E-02  0.9678188E-01
          1   -1    0    0  501    0  0.00000000000E+00  0.00000000000E+00  0.92712956091E+03  0.92712956092E+03  0.50400000000E-02 0. -1.
         -1   -1    0    0    0  501 -0.00000000000E+00 -0.00000000000E+00 -0.85087618791E+03  0.85087618793E+03  0.50400000000E-02 0.  1.
    8880023    1    1    2    0    0 -0.48013657537E+03  0.27098633046E+02 -0.54256117417E+03  0.97951431889E+03  0.65864270000E+03 0.  0.
    8880022    1    1    2    0    0  0.48013657537E+03 -0.27098633046E+02  0.61881454717E+03  0.79849142996E+03  0.15294330000E+03 0.  0.
<mgrwt>
<rscale>  0 0.72330443E+03</rscale>
<asrwt>0</asrwt>
<pdfrwt beam="1">  1        1 0.14263532E+00 0.81552172E+03</pdfrwt>
<pdfrwt beam="2">  1       -1 0.13090403E+00 0.81552172E+03</pdfrwt>
<totfact> 0.88213287E+00</totfact>
</mgrwt>
</event>
<event>
 4    1  0.1043382E-007  0.1313144E+04  0.7818608E-02  0.9054291E-01
          1   -1    0    0  501    0  0.00000000000E+00  0.00000000000E+00  0.10448613619E+04  0.10448613620E+04  0.50400000000E-02 0. -1.
         -1   -1    0    0    0  501 -0.00000000000E+00 -0.00000000000E+00 -0.20791665115E+04  0.20791665115E+04  0.50400000000E-02 0.  1.
    8880023    1    1    2    0    0  0.11004040145E+04 -0.28222072462E+03  0.31817350984E+03  0.13511410441E+04  0.65864270000E+03 0.  0.
    8880022    1    1    2    0    0 -0.11004040145E+04  0.28222072462E+03 -0.13524786594E+04  0.17728868293E+04  0.15294330000E+03 0.  0.
<mgrwt>
<rscale>  0 0.12692753E+04</rscale>
<asrwt>0</asrwt>
<pdfrwt beam="1">  1        1 0.16074790E+00 0.13131442E+04</pdfrwt>
<pdfrwt beam="2">  1       -1 0.31987177E+00 0.13131442E+04</pdfrwt>
<totfact> 0.33289427E-01</totfact>
</mgrwt>
</event>
<event>
 4    1  0.1043382E-007  0.7557923E+03  0.7818608E-02  0.9816125E-01
          1   -1    0    0  501    0  0.00000000000E+00  0.00000000000E+00  0.87507481693E+03  0.87507481694E+03  0.50400000000E-02 0. -1.
         -1   -1    0    0    0  501 -0.00000000000E+00 -0.00000000000E+00 -0.45355006917E+03  0.45355006920E+03  0.50400000000E-02 0.  1.
    8880023    1    1    2    0    0 -0.18273809395E+02 -0.37024026554E+03  0.12607535959E+02  0.75589744183E+03  0.65864270000E+03 0.  1.
    8880022    1    1    2    0    0  0.18273809395E+02  0.37024026554E+03  0.40891721180E+03  0.57272744430E+03  0.15294330000E+03 0.  0.
<mgrwt>
<rscale>  0 0.64504314E+03</rscale>
<asrwt>0</asrwt>
<pdfrwt beam="1">  1        1 0.13462689E+00 0.75579229E+03</pdfrwt>
<pdfrwt beam="2">  1       -1 0.69776935E-01 0.75579229E+03</pdfrwt>
<totfact> 0.40574114E+01</totfact>
</mgrwt>
</event>
<event>
 4    1  0.5110336E-007  0.7280515E+03  0.7818608E-02  0.9896228E-01
         -1   -1    0    0    0  501 -0.00000000000E+00  0.00000000000E+00  0.14771728097E+04  0.14771728097E+04  0.50400000000E-02 0.  1.
          1   -1    0    0  501    0  0.00000000000E+00 -0.00000000000E+00 -0.26052785898E+04  0.26052785898E+04  0.50400000000E-02 0. -1.
    8880023    1    1    2    0    0 -0.16179094285E+03 -0.26471217460E+03  0.13748428521E+04  0.15557158863E+04  0.65864270000E+03 0.  1.
    8880022    1    1    2    0    0  0.16179094285E+03  0.26471217460E+03 -0.25029486323E+04  0.25267355131E+04  0.15294330000E+03 0.  0.
<mgrwt>
<rscale>  0 0.60444442E+03</rscale>
<asrwt>0</asrwt>
<pdfrwt beam="1">  1        1 0.40081209E+00 0.72805154E+03</pdfrwt>
<pdfrwt beam="2">  1       -1 0.22725736E+00 0.72805154E+03</pdfrwt>
<totfact> 0.12306438E-01</totfact>
</mgrwt>
</event>
<event>
 4    1  0.1043382E-007  0.6972515E+03  0.7818608E-02  0.1000880E+00
         -1   -1    0    0    0  501 -0.00000000000E+00  0.00000000000E+00  0.45362058728E+03  0.45362058731E+03  0.50400000000E-02 0.  1.
          1   -1    0    0  501    0  0.00000000000E+00 -0.00000000000E+00 -0.25791818757E+04  0.25791818757E+04  0.50400000000E-02 0. -1.
    8880023    1    1    2    0    0 -0.22649235961E+03 -0.32413689441E+02  0.17253863663E+03  0.71828213372E+03  0.65864270000E+03 0.  0.
    8880022    1    1    2    0    0  0.22649235961E+03  0.32413689441E+02 -0.22980999251E+04  0.23145203293E+04  0.15294330000E+03 0.  0.
<mgrwt>
<rscale>  0 0.55266064E+03</rscale>
<asrwt>0</asrwt>
<pdfrwt beam="1">  1        1 0.39679720E+00 0.69725149E+03</pdfrwt>
<pdfrwt beam="2">  1       -1 0.69787784E-01 0.69725149E+03</pdfrwt>
<totfact> 0.26648587E+00</totfact>
</mgrwt>
</event>
<event>
 4    1  0.1043382E-007  0.8881472E+03  0.7818608E-02  0.9545333E-01
          1   -1    0    0  501    0  0.00000000000E+00  0.00000000000E+00  0.58414670560E+03  0.58414670562E+03  0.50400000000E-02 0. -1.
         -1   -1    0    0    0  501 -0.00000000000E+00 -0.00000000000E+00 -0.13346098835E+04  0.13346098835E+04  0.50400000000E-02 0.  1.
    8880023    1    1    2    0    0  0.32448115340E+03  0.49970705456E+03 -0.92196368031E+03  0.12801649868E+04  0.65864270000E+03 0.  0.
    8880022    1    1    2    0    0 -0.32448115340E+03 -0.49970705456E+03  0.17150050238E+03  0.63859160237E+03  0.15294330000E+03 0.  0.
<mgrwt>
<rscale>  0 0.81022510E+03</rscale>
<asrwt>0</asrwt>
<pdfrwt beam="1">  1        1 0.89868724E-01 0.88814715E+03</pdfrwt>
<pdfrwt beam="2">  1       -1 0.20532460E+00 0.88814715E+03</pdfrwt>
<totfact> 0.50108670E+00</totfact>
</mgrwt>
</event>
<event>
 4    1  0.1043382E-007  0.6704638E+03  0.7818608E-02  0.1015333E+00
         -1   -1    0    0    0  501 -0.00000000000E+00  0.00000000000E+00  0.73457593165E+03  0.73457593167E+03  0.50400000000E-02 0.  1.
          1   -1    0    0  501    0  0.00000000000E+00 -0.00000000000E+00 -0.95100480824E+03  0.95100480825E+03  0.50400000000E-02 0. -1.
    8880023    1    1    2    0    0 -0.12383779427E+03  0.19382498395E+02  0.56669578955E+03  0.87787573420E+03  0.65864270000E+03 0.  1.
    8880022    1    1    2    0    0  0.12383779427E+03 -0.19382498395E+02 -0.78312466614E+03  0.80770500572E+03  0.15294330000E+03 0.  0.
<mgrwt>
<rscale>  0 0.49409213E+03</rscale>
<asrwt>0</asrwt>
<pdfrwt beam="1">  1        1 0.14630843E+00 0.67046378E+03</pdfrwt>
<pdfrwt beam="2">  1       -1 0.11301168E+00 0.67046378E+03</pdfrwt>
<totfact> 0.12346029E+01</totfact>
</mgrwt>
</event>
<event>
 4    1  0.1043382E-007  0.6671716E+03  0.7818608E-02  0.1017777E+00
          1   -1    0    0  501    0  0.00000000000E+00  0.00000000000E+00  0.42739751955E+03  0.42739751958E+03  0.50400000000E-02 0. -1.
         -1   -1    0    0    0  501 -0.00000000000E+00 -0.00000000000E+00 -0.49109150211E+03  0.49109150214E+03  0.50400000000E-02 0.  1.
    8880023    1    1    2    0    0  0.56479402012E+02 -0.90098764274E+02 -0.18967525332E+03  0.69360984578E+03  0.65864270000E+03 0.  1.
    8880022    1    1    2    0    0 -0.56479402012E+02  0.90098764274E+02  0.12598127076E+03  0.22487917594E+03  0.15294330000E+03 0. -1.
<mgrwt>
<rscale>  0 0.48497387E+03</rscale>
<asrwt>0</asrwt>
<pdfrwt beam="1">  1        1 0.65753464E-01 0.66717158E+03</pdfrwt>
<pdfrwt beam="2">  1       -1 0.75552539E-01 0.66717158E+03</pdfrwt>
<totfact> 0.98914296E+01</totfact>
</mgrwt>
</event>
<event>
 4    1  0.1043382E-007  0.8226180E+03  0.7818608E-02  0.9663870E-01
          1   -1    0    0  501    0  0.00000000000E+00  0.00000000000E+00  0.14857718639E+04  0.14857718639E+04  0.50400000000E-02 0. -1.
         -1   -1    0    0    0  501 -0.00000000000E+00 -0.00000000000E+00 -0.31273179502E+03  0.31273179506E+03  0.50400000000E-02 0.  1.
    8880023    1    1    2    0    0  0.48407156839E+03 -0.92546702604E+02  0.88193632363E+03  0.12060315339E+04  0.65864270000E+03 0.  0.
    8880022    1    1    2    0    0 -0.48407156839E+03  0.92546702604E+02  0.29110374521E+03  0.59247212506E+03  0.15294330000E+03 0.  0.
<mgrwt>
<rscale>  0 0.73209316E+03</rscale>
<asrwt>0</asrwt>
<pdfrwt beam="1">  1        1 0.22858029E+00 0.82261800E+03</pdfrwt>
<pdfrwt beam="2">  1       -1 0.48112584E-01 0.82261800E+03</pdfrwt>
<totfact> 0.29568071E+01</totfact>
</mgrwt>
</event>
<event>
 4    1  0.1043382E-007  0.6906964E+03  0.7818608E-02  0.1003823E+00
          1   -1    0    0  501    0  0.00000000000E+00  0.00000000000E+00  0.13266893429E+04  0.13266893429E+04  0.50400000000E-02 0. -1.
         -1   -1    0    0    0  501 -0.00000000000E+00 -0.00000000000E+00 -0.25125734235E+03  0.25125734240E+03  0.50400000000E-02 0.  1.
    8880023    1    1    2    0    0  0.14616569321E+02 -0.20745536684E+03  0.28633596141E+03  0.74769637045E+03  0.65864270000E+03 0.  0.
    8880022    1    1    2    0    0 -0.14616569321E+02  0.20745536684E+03  0.78909603912E+03  0.83025031485E+03  0.15294330000E+03 0.  0.
<mgrwt>
<rscale>  0 0.54005098E+03</rscale>
<asrwt>0</asrwt>
<pdfrwt beam="1">  1        1 0.20410605E+00 0.69069645E+03</pdfrwt>
<pdfrwt beam="2">  1       -1 0.38654977E-01 0.69069645E+03</pdfrwt>
<totfact> 0.57922882E+01</totfact>
</mgrwt>
</event>
<event>
 4    1  0.1043382E-007  0.7757895E+03  0.7818608E-02  0.9765822E-01
          1   -1    0    0  501    0  0.00000000000E+00  0.00000000000E+00  0.84080869354E+03  0.84080869355E+03  0.50400000000E-02 0. -1.
         -1   -1    0    0    0  501 -0.00000000000E+00 -0.00000000000E+00 -0.12484686571E+04  0.12484686571E+04  0.50400000000E-02 0.  1.
    8880023    1    1    2    0    0  0.22582888443E+03  0.34211182150E+03 -0.10540286868E+04  0.13087497325E+04  0.65864270000E+03 0.  1.
    8880022    1    1    2    0    0 -0.22582888443E+03 -0.34211182150E+03  0.64636872319E+03  0.78052761821E+03  0.15294330000E+03 0.  0.
<mgrwt>
<rscale>  0 0.67229429E+03</rscale>
<asrwt>0</asrwt>
<pdfrwt beam="1">  1        1 0.12935518E+00 0.77578953E+03</pdfrwt>
<pdfrwt beam="2">  1       -1 0.19207210E+00 0.77578953E+03</pdfrwt>
<totfact> 0.36043085E+00</totfact>
</mgrwt>
</event>
<event>
 4    1  0.1043382E-007  0.1178073E+04  0.7818608E-02  0.9178737E-01
          1   -1    0    0  501    0  0.00000000000E+00  0.00000000000E+00  0.35635229752E+04  0.35635229752E+04  0.50400000000E-02 0. -1.
         -1   -1    0    0    0  501 -0.00000000000E+00 -0.00000000000E+00 -0.85580804157E+03  0.85580804158E+03  0.50400000000E-02 0.  1.
    8880023    1    1    2    0    0  0.29287698782E+03  0.93180987010E+03 -0.33111444095E+03  0.12237211869E+04  0.65864270000E+03 0.  1.
    8880022    1    1    2    0    0 -0.29287698782E+03 -0.93180987010E+03  0.30388293746E+04  0.31956098299E+04  0.15294330000E+03 0.  0.
<mgrwt>
<rscale>  0 0.11275619E+04</rscale>
<asrwt>0</asrwt>
<pdfrwt beam="1">  1        1 0.54823430E+00 0.11780733E+04</pdfrwt>
<pdfrwt beam="2">  1       -1 0.13166278E+00 0.11780733E+04</pdfrwt>
<totfact> 0.11001352E-01</totfact>
</mgrwt>
</event>
<event>
 4    1  0.1043382E-007  0.8535171E+03  0.7818608E-02  0.9605201E-01
         -1   -1    0    0    0  501 -0.00000000000E+00  0.00000000000E+00  0.29871555592E+03  0.29871555596E+03  0.50400000000E-02 0.  1.
          1   -1    0    0  501    0  0.00000000000E+00 -0.00000000000E+00 -0.16855763863E+04  0.16855763863E+04  0.50400000000E-02 0. -1.
    8880023    1    1    2    0    0  0.43004677259E+03  0.33127178333E+03 -0.78764304111E+03  0.11614099136E+04  0.65864270000E+03 0.  1.
    8880022    1    1    2    0    0 -0.43004677259E+03 -0.33127178333E+03 -0.59921778928E+03  0.82288202863E+03  0.15294330000E+03 0. -1.
<mgrwt>
<rscale>  0 0.76952901E+03</rscale>
<asrwt>0</asrwt>
<pdfrwt beam="1">  1        1 0.25931944E+00 0.85351709E+03</pdfrwt>
<pdfrwt beam="2">  1       -1 0.45956241E-01 0.85351709E+03</pdfrwt>
<totfact> 0.23473089E+01</totfact>
</mgrwt>
</event>
<event>
 4    1  0.1043382E-007  0.6599906E+03  0.7818608E-02  0.1024166E+00
          1   -1    0    0  501    0  0.00000000000E+00  0.00000000000E+00  0.24672492332E+04  0.24672492332E+04  0.50400000000E-02 0. -1.
         -1   -1    0    0    0  501 -0.00000000000E+00 -0.00000000000E+00 -0.11715242683E+03  0.11715242694E+03  0.50400000000E-02 0.  1.
    8880023    1    1    2    0    0  0.41590531535E+02 -0.68968911523E+01  0.85100628157E+03  0.10769397555E+04  0.65864270000E+03 0.  1.
    8880022    1    1    2    0    0 -0.41590531535E+02  0.68968911523E+01  0.14990905248E+04  0.15074619047E+04  0.15294330000E+03 0.  0.
<mgrwt>
<rscale>  0 0.46212719E+03</rscale>
<asrwt>0</asrwt>
<pdfrwt beam="1">  1        1 0.37957679E+00 0.65999056E+03</pdfrwt>
<pdfrwt beam="2">  1       -1 0.18023451E-01 0.65999056E+03</pdfrwt>
<totfact> 0.36690489E+01</totfact>
</mgrwt>
</event>
<event>
 4    1  0.1043382E-007  0.6879032E+03  0.7818608E-02  0.1005165E+00
          1   -1    0    0  501    0  0.00000000000E+00  0.00000000000E+00  0.11194694669E+04  0.11194694669E+04  0.50400000000E-02 0. -1.
         -1   -1    0    0    0  501 -0.00000000000E+00 -0.00000000000E+00 -0.60434572224E+03  0.60434572226E+03  0.50400000000E-02 0.  1.
    8880023    1    1    2    0    0 -0.17456436395E+03  0.94487544673E+02 -0.38579223393E+03  0.78869922485E+03  0.65864270000E+03 0.  1.
    8880022    1    1    2    0    0  0.17456436395E+03 -0.94487544673E+02  0.90091597859E+03  0.93511596434E+03  0.15294330000E+03 0.  0.
<mgrwt>
<rscale>  0 0.53442131E+03</rscale>
<asrwt>0</asrwt>
<pdfrwt beam="1">  1        1 0.17222607E+00 0.68790321E+03</pdfrwt>
<pdfrwt beam="2">  1       -1 0.92976265E-01 0.68790321E+03</pdfrwt>
<totfact> 0.14338522E+01</totfact>
</mgrwt>
</event>
<event>
 4    1  0.1043382E-007  0.6919008E+03  0.7818608E-02  0.1003262E+00
          1   -1    0    0  501    0  0.00000000000E+00  0.00000000000E+00  0.89181002514E+03  0.89181002516E+03  0.50400000000E-02 0. -1.
         -1   -1    0    0    0  501 -0.00000000000E+00 -0.00000000000E+00 -0.61005299756E+03  0.61005299758E+03  0.50400000000E-02 0.  1.
    8880023    1    1    2    0    0 -0.17543664317E+03 -0.11890526831E+03 -0.38069447697E+03  0.78971828500E+03  0.65864270000E+03 0.  1.
    8880022    1    1    2    0    0  0.17543664317E+03  0.11890526831E+03  0.66245150455E+03  0.71214473774E+03  0.15294330000E+03 0.  0.
<mgrwt>
<rscale>  0 0.54242777E+03</rscale>
<asrwt>0</asrwt>
<pdfrwt beam="1">  1        1 0.13720154E+00 0.69190078E+03</pdfrwt>
<pdfrwt beam="2">  1       -1 0.93854307E-01 0.69190078E+03</pdfrwt>
<totfact> 0.21053144E+01</totfact>
</mgrwt>
</event>
<event>
 4    1  0.1043382E-007  0.9182795E+03  0.7818608E-02  0.9497302E-01
         -1   -1    0    0    0  501 -0.00000000000E+00  0.00000000000E+00  0.20680024622E+04  0.20680024622E+04  0.50400000000E-02 0.  1.
          1   -1    0    0  501    0  0.00000000000E+00 -0.00000000000E+00 -0.31293977522E+03  0.31293977526E+03  0.50400000000E-02 0. -1.
    8880023    1    1    2    0    0  0.18493016596E+03  0.61255849266E+03  0.78081473762E+03  0.12053667218E+04  0.65864270000E+03 0. -1.
    8880022    1    1    2    0    0 -0.18493016596E+03 -0.61255849266E+03  0.97424794932E+03  0.11755755156E+04  0.15294330000E+03 0.  0.
<mgrwt>
<rscale>  0 0.84483020E+03</rscale>
<asrwt>0</asrwt>
<pdfrwt beam="1">  1        1 0.48144581E-01 0.91827952E+03</pdfrwt>
<pdfrwt beam="2">  1       -1 0.31815422E+00 0.91827952E+03</pdfrwt>
<totfact> 0.21449762E+00</totfact>
</mgrwt>
</event>
<event>
 4    1  0.1043382E-007  0.7412086E+03  0.7818608E-02  0.9856440E-01
          1   -1    0    0  501    0  0.00000000000E+00  0.00000000000E+00  0.77914267027E+03  0.77914267029E+03  0.50400000000E-02 0. -1.
         -1   -1    0    0    0  501 -0.00000000000E+00 -0.00000000000E+00 -0.12988031562E+04  0.12988031562E+04  0.50400000000E-02 0.  1.
    8880023    1    1    2    0    0  0.33742829533E+03  0.41498297020E+02 -0.11367158073E+04  0.13570235797E+04  0.65864270000E+03 0.  0.
    8880022    1    1    2    0    0 -0.33742829533E+03 -0.41498297020E+02  0.61705532140E+03  0.72092224673E+03  0.15294330000E+03 0.  0.
<mgrwt>
<rscale>  0 0.62419616E+03</rscale>
<asrwt>0</asrwt>
<pdfrwt beam="1">  1        1 0.11986810E+00 0.74120859E+03</pdfrwt>
<pdfrwt beam="2">  1       -1 0.19981587E+00 0.74120859E+03</pdfrwt>
<totfact> 0.36211802E+00</totfact>
</mgrwt>
</event>
<event>
 4    1  0.1043382E-007  0.1171856E+04  0.7818608E-02  0.9184978E-01
         -1   -1    0    0    0  501 -0.00000000000E+00  0.00000000000E+00  0.24441807387E+04  0.24441807387E+04  0.50400000000E-02 0.  1.
          1   -1    0    0  501    0  0.00000000000E+00 -0.00000000000E+00 -0.55229837481E+03  0.55229837484E+03  0.50400000000E-02 0. -1.
    8880023    1    1    2    0    0 -0.81742787460E+03 -0.52081365354E+03  0.45622607730E+03  0.12575323581E+04  0.65864270000E+03 0.  0.
    8880022    1    1    2    0    0  0.81742787460E+03  0.52081365354E+03  0.14356562865E+04  0.17389467554E+04  0.15294330000E+03 0.  0.
<mgrwt>
<rscale>  0 0.11209831E+04</rscale>
<asrwt>0</asrwt>
<pdfrwt beam="1">  1        1 0.84968981E-01 0.11718555E+04</pdfrwt>
<pdfrwt beam="2">  1       -1 0.37602780E+00 0.11718555E+04</pdfrwt>
<totfact> 0.40102924E-01</totfact>
</mgrwt>
</event>
<event>
 4    1  0.1043382E-007  0.7096136E+03  0.7818608E-02  0.9959439E-01
          1   -1    0    0  501    0  0.00000000000E+00  0.00000000000E+00  0.24275205619E+04  0.24275205619E+04  0.50400000000E-02 0. -1.
         -1   -1    0    0    0  501 -0.00000000000E+00 -0.00000000000E+00 -0.29213404921E+03  0.29213404925E+03  0.50400000000E-02 0.  1.
    8880023    1    1    2    0    0 -0.17649975941E+03 -0.19644109708E+03  0.16864667709E+03  0.72937862434E+03  0.65864270000E+03 0.  0.
    8880022    1    1    2    0    0  0.17649975941E+03  0.19644109708E+03  0.19667398356E+04  0.19902759868E+04  0.15294330000E+03 0.  0.
<mgrwt>
<rscale>  0 0.57465125E+03</rscale>
<asrwt>0</asrwt>
<pdfrwt beam="1">  1        1 0.37346472E+00 0.70961361E+03</pdfrwt>
<pdfrwt beam="2">  1       -1 0.44943698E-01 0.70961361E+03</pdfrwt>
<totfact> 0.79251950E+00</totfact>
</mgrwt>
</event>
<event>
 4    1  0.1043382E-007  0.9017953E+03  0.7818608E-02  0.9523156E-01
         -1   -1    0    0    0  501 -0.00000000000E+00  0.00000000000E+00  0.11911165225E+04  0.11911165225E+04  0.50400000000E-02 0.  1.
          1   -1    0    0  501    0  0.00000000000E+00 -0.00000000000E+00 -0.72675536012E+03  0.72675536013E+03  0.50400000000E-02 0. -1.
    8880023    1    1    2    0    0 -0.59986066114E+03 -0.13997044923E+03  0.79503915074E+03  0.12022154536E+04  0.65864270000E+03 0.  0.
    8880022    1    1    2    0    0  0.59986066114E+03  0.13997044923E+03 -0.33067798834E+03  0.71565642904E+03  0.15294330000E+03 0.  0.
<mgrwt>
<rscale>  0 0.82597963E+03</rscale>
<asrwt>0</asrwt>
<pdfrwt beam="1">  1        1 0.11180852E+00 0.90179529E+03</pdfrwt>
<pdfrwt beam="2">  1       -1 0.18324869E+00 0.90179529E+03</pdfrwt>
<totfact> 0.51478996E+00</totfact>
</mgrwt>
</event>
<event>
 4    1  0.1043382E-007  0.7413144E+03  0.7818608E-02  0.9856135E-01
         -1   -1    0    0    0  501 -0.00000000000E+00  0.00000000000E+00  0.12627915227E+04  0.12627915227E+04  0.50400000000E-02 0.  1.
          1   -1    0    0  501    0  0.00000000000E+00 -0.00000000000E+00 -0.87809529616E+03  0.87809529617E+03  0.50400000000E-02 0. -1.
    8880023    1    1    2    0    0 -0.75294363641E+01 -0.34011776410E+03  0.11044805277E+04  0.13301970637E+04  0.65864270000E+03 0.  1.
    8880022    1    1    2    0    0  0.75294363641E+01  0.34011776410E+03 -0.71978430120E+03  0.81068975517E+03  0.15294330000E+03 0.  0.
<mgrwt>
<rscale>  0 0.62435099E+03</rscale>
<asrwt>0</asrwt>
<pdfrwt beam="1">  1        1 0.13509158E+00 0.74131437E+03</pdfrwt>
<pdfrwt beam="2">  1       -1 0.19427562E+00 0.74131437E+03</pdfrwt>
<totfact> 0.32572200E+00</totfact>
</mgrwt>
</event>
<event>
 4    1  0.1043382E-007  0.6632716E+03  0.7818608E-02  0.1021030E+00
         -1   -1    0    0    0  501 -0.00000000000E+00  0.00000000000E+00  0.66026622406E+03  0.66026622408E+03  0.50400000000E-02 0.  1.
          1   -1    0    0  501    0  0.00000000000E+00 -0.00000000000E+00 -0.97360202168E+03  0.97360202169E+03  0.50400000000E-02 0. -1.
    8880023    1    1    2    0    0 -0.76625911129E+02 -0.15729893879E+02  0.48217961000E+03  0.82001606227E+03  0.65864270000E+03 0.  1.
    8880022    1    1    2    0    0  0.76625911129E+02  0.15729893879E+02 -0.79551540762E+03  0.81385218350E+03  0.15294330000E+03 0.  0.
<mgrwt>
<rscale>  0 0.47316849E+03</rscale>
<asrwt>0</asrwt>
<pdfrwt beam="1">  1        1 0.14978493E+00 0.66327156E+03</pdfrwt>
<pdfrwt beam="2">  1       -1 0.10157942E+00 0.66327156E+03</pdfrwt>
<totfact> 0.15213170E+01</totfact>
</mgrwt>
</event>
<event>
 4    1  0.1043382E-007  0.6924860E+03  0.7818608E-02  0.1002993E+00
         -1   -1    0    0    0  501 -0.00000000000E+00  0.00000000000E+00  0.10078415817E+04  0.10078415817E+04  0.50400000000E-02 0.  1.
          1   -1    0    0  501    0  0.00000000000E+00 -0.00000000000E+00 -0.26141009448E+03  0.26141009453E+03  0.50400000000E-02 0. -1.
    8880023    1    1    2    0    0 -0.20260184761E+03  0.68404438118E+02  0.72944983731E+03  0.10058001527E+04  0.65864270000E+03 0.  1.
    8880022    1    1    2    0    0  0.20260184761E+03 -0.68404438118E+02  0.16981649953E+02  0.26345152355E+03  0.15294330000E+03 0.  0.
<mgrwt>
<rscale>  0 0.54357242E+03</rscale>
<asrwt>0</asrwt>
<pdfrwt beam="1">  1        1 0.40216939E-01 0.69248602E+03</pdfrwt>
<pdfrwt beam="2">  1       -1 0.15505255E+00 0.69248602E+03</pdfrwt>
<totfact> 0.34365920E+01</totfact>
</mgrwt>
</event>
<event>
 4    1  0.1043382E-007  0.7478272E+03  0.7818608E-02  0.9837707E-01
          1   -1    0    0  501    0  0.00000000000E+00  0.00000000000E+00  0.14972067291E+04  0.14972067291E+04  0.50400000000E-02 0. -1.
         -1   -1    0    0    0  501 -0.00000000000E+00 -0.00000000000E+00 -0.21719861822E+03  0.21719861828E+03  0.50400000000E-02 0.  1.
    8880023    1    1    2    0    0 -0.21915153546E+03  0.27822270237E+03  0.75264178146E+03  0.10609972314E+04  0.65864270000E+03 0.  0.
    8880022    1    1    2    0    0  0.21915153546E+03 -0.27822270237E+03  0.52736632945E+03  0.65340811600E+03  0.15294330000E+03 0.  0.
<mgrwt>
<rscale>  0 0.63377648E+03</rscale>
<asrwt>0</asrwt>
<pdfrwt beam="1">  1        1 0.23033950E+00 0.74782717E+03</pdfrwt>
<pdfrwt beam="2">  1       -1 0.33415172E-01 0.74782717E+03</pdfrwt>
<totfact> 0.56899313E+01</totfact>
</mgrwt>
</event>
<event>
 4    1  0.1043382E-007  0.6606300E+03  0.7818608E-02  0.1023520E+00
          1   -1    0    0  501    0  0.00000000000E+00  0.00000000000E+00  0.12460422297E+04  0.12460422297E+04  0.50400000000E-02 0. -1.
         -1   -1    0    0    0  501 -0.00000000000E+00 -0.00000000000E+00 -0.25049913375E+03  0.25049913380E+03  0.50400000000E-02 0.  1.
    8880023    1    1    2    0    0  0.32393244254E+02  0.39653620958E+02  0.20792416842E+03  0.69257808080E+03  0.65864270000E+03 0.  1.
    8880022    1    1    2    0    0 -0.32393244254E+02 -0.39653620958E+02  0.78761892751E+03  0.80396328269E+03  0.15294330000E+03 0.  0.
<mgrwt>
<rscale>  0 0.46437444E+03</rscale>
<asrwt>0</asrwt>
<pdfrwt beam="1">  1        1 0.19169880E+00 0.66062996E+03</pdfrwt>
<pdfrwt beam="2">  1       -1 0.38538328E-01 0.66062996E+03</pdfrwt>
<totfact> 0.66633816E+01</totfact>
</mgrwt>
</event>
<event>
 4    1  0.1043382E-007  0.7764879E+03  0.7818608E-02  0.9764153E-01
         -1   -1    0    0    0  501 -0.00000000000E+00  0.00000000000E+00  0.83783925389E+03  0.83783925391E+03  0.50400000000E-02 0.  1.
          1   -1    0    0  501    0  0.00000000000E+00 -0.00000000000E+00 -0.94243012951E+03  0.94243012953E+03  0.50400000000E-02 0. -1.
    8880023    1    1    2    0    0  0.25806715014E+03  0.32019459325E+03  0.57857445687E+03  0.96833973374E+03  0.65864270000E+03 0.  1.
    8880022    1    1    2    0    0 -0.25806715014E+03 -0.32019459325E+03 -0.68316533249E+03  0.81192964970E+03  0.15294330000E+03 0.  0.
<mgrwt>
<rscale>  0 0.67322317E+03</rscale>
<asrwt>0</asrwt>
<pdfrwt beam="1">  1        1 0.14498925E+00 0.77648789E+03</pdfrwt>
<pdfrwt beam="2">  1       -1 0.12889835E+00 0.77648789E+03</pdfrwt>
<totfact> 0.89616412E+00</totfact>
</mgrwt>
</event>
<event>
 4    1  0.1043382E-007  0.7121001E+03  0.7818608E-02  0.9950283E-01
         -1   -1    0    0    0  501 -0.00000000000E+00  0.00000000000E+00  0.39637386145E+03  0.39637386149E+03  0.50400000000E-02 0.  1.
          1   -1    0    0  501    0  0.00000000000E+00 -0.00000000000E+00 -0.97950952875E+03  0.97950952876E+03  0.50400000000E-02 0. -1.
    8880023    1    1    2    0    0  0.28483906250E+02 -0.26919334327E+03  0.33197035090E+01  0.71210786800E+03  0.65864270000E+03 0.  0.
    8880022    1    1    2    0    0 -0.28483906250E+02  0.26919334327E+03 -0.58645537081E+03  0.66377552225E+03  0.15294330000E+03 0. -1.
<mgrwt>
<rscale>  0 0.57885017E+03</rscale>
<asrwt>0</asrwt>
<pdfrwt beam="1">  1        1 0.15069377E+00 0.71210013E+03</pdfrwt>
<pdfrwt beam="2">  1       -1 0.60980594E-01 0.71210013E+03</pdfrwt>
<totfact> 0.44057588E+01</totfact>
</mgrwt>
</event>
<event>
 4    1  0.1043382E-007  0.7608581E+03  0.7818608E-02  0.9802891E-01
         -1   -1    0    0    0  501 -0.00000000000E+00  0.00000000000E+00  0.32095805496E+03  0.32095805500E+03  0.50400000000E-02 0.  1.
          1   -1    0    0  501    0  0.00000000000E+00 -0.00000000000E+00 -0.13207996331E+04  0.13207996332E+04  0.50400000000E-02 0. -1.
    8880023    1    1    2    0    0 -0.21146060964E+03 -0.31682677460E+03 -0.27550623040E+03  0.80920249863E+03  0.65864270000E+03 0.  1.
    8880022    1    1    2    0    0  0.21146060964E+03  0.31682677460E+03 -0.72433534778E+03  0.83255518952E+03  0.15294330000E+03 0.  0.
<mgrwt>
<rscale>  0 0.65207622E+03</rscale>
<asrwt>0</asrwt>
<pdfrwt beam="1">  1        1 0.20319994E+00 0.76085807E+03</pdfrwt>
<pdfrwt beam="2">  1       -1 0.49378163E-01 0.76085807E+03</pdfrwt>
<totfact> 0.36918166E+01</totfact>
</mgrwt>
</event>
<event>
 4    1  0.1043382E-007  0.8950116E+03  0.7818608E-02  0.9534088E-01
          1   -1    0    0  501    0  0.00000000000E+00  0.00000000000E+00  0.45111470716E+04  0.45111470716E+04  0.50400000000E-02 0. -1.
         -1   -1    0    0    0  501 -0.00000000000E+00 -0.00000000000E+00 -0.12834175858E+03  0.12834175867E+03  0.50400000000E-02 0.  1.
    8880023    1    1    2    0    0  0.58452729720E+03 -0.15988547657E+03  0.26903442612E+04  0.28353126770E+04  0.65864270000E+03 0.  1.
    8880022    1    1    2    0    0 -0.58452729720E+03  0.15988547657E+03  0.16924610518E+04  0.18041761532E+04  0.15294330000E+03 0. -1.
<mgrwt>
<rscale>  0 0.81816670E+03</rscale>
<asrwt>0</asrwt>
<pdfrwt beam="1">  1        1 0.69402270E+00 0.89501158E+03</pdfrwt>
<pdfrwt beam="2">  1       -1 0.19744884E-01 0.89501158E+03</pdfrwt>
<totfact> 0.71539643E-01</totfact>
</mgrwt>
</event>
<event>
 4    1  0.1043382E-007  0.1294833E+04  0.7818608E-02  0.9070035E-01
         -1   -1    0    0    0  501 -0.00000000000E+00  0.00000000000E+00  0.11054819192E+04  0.11054819193E+04  0.50400000000E-02 0.  1.
          1   -1    0    0  501    0  0.00000000000E+00 -0.00000000000E+00 -0.22195088395E+04  0.22195088395E+04  0.50400000000E-02 0. -1.
    8880023    1    1    2    0    0  0.10654413112E+04 -0.32804926598E+03  0.47386800012E+03  0.13788192762E+04  0.65864270000E+03 0.  0.
    8880022    1    1    2    0    0 -0.10654413112E+04  0.32804926598E+03 -0.15878949204E+04  0.19461714826E+04  0.15294330000E+03 0.  0.
<mgrwt>
<rscale>  0 0.12501781E+04</rscale>
<asrwt>0</asrwt>
<pdfrwt beam="1">  1        1 0.34146290E+00 0.12948327E+04</pdfrwt>
<pdfrwt beam="2">  1       -1 0.17007414E+00 0.12948327E+04</pdfrwt>
<totfact> 0.50420861E-01</totfact>
</mgrwt>
</event>
<event>
 4    1  0.1043382E-007  0.7105690E+03  0.7818608E-02  0.9955894E-01
          1   -1    0    0  501    0  0.00000000000E+00  0.00000000000E+00  0.36923469952E+04  0.36923469952E+04  0.50400000000E-02 0. -1.
         -1   -1    0    0    0  501 -0.00000000000E+00 -0.00000000000E+00 -0.70455421259E+02  0.70455421439E+02  0.50400000000E-02 0.  1.
    8880023    1    1    2    0    0  0.12229898965E+03 -0.23694117024E+03  0.24136088133E+04  0.25160317706E+04  0.65864270000E+03 0.  1.
    8880022    1    1    2    0    0 -0.12229898965E+03  0.23694117024E+03  0.12082827607E+04  0.12467706460E+04  0.15294330000E+03 0.  1.
<mgrwt>
<rscale>  0 0.57627242E+03</rscale>
<asrwt>0</asrwt>
<pdfrwt beam="1">  1        1 0.56805334E+00 0.71056904E+03</pdfrwt>
<pdfrwt beam="2">  1       -1 0.10839296E-01 0.71056904E+03</pdfrwt>
<totfact> 0.10593824E+01</totfact>
</mgrwt>
</event>
<event>
 4    1  0.1043382E-007  0.6995008E+03  0.7818608E-02  0.9999278E-01
          1   -1    0    0  501    0  0.00000000000E+00  0.00000000000E+00  0.10360265196E+04  0.10360265196E+04  0.50400000000E-02 0. -1.
         -1   -1    0    0    0  501 -0.00000000000E+00 -0.00000000000E+00 -0.38585091308E+03  0.38585091311E+03  0.50400000000E-02 0.  1.
    8880023    1    1    2    0    0 -0.17575696416E+03 -0.15684592469E+03 -0.15186757657E+02  0.69966563329E+03  0.65864270000E+03 0.  0.
    8880022    1    1    2    0    0  0.17575696416E+03  0.15684592469E+03  0.66536236415E+03  0.72221179940E+03  0.15294330000E+03 0.  0.
<mgrwt>
<rscale>  0 0.55681888E+03</rscale>
<asrwt>0</asrwt>
<pdfrwt beam="1">  1        1 0.15938869E+00 0.69950079E+03</pdfrwt>
<pdfrwt beam="2">  1       -1 0.59361680E-01 0.69950079E+03</pdfrwt>
<totfact> 0.42075876E+01</totfact>
</mgrwt>
</event>
<event>
 4    1  0.1043382E-007  0.7635891E+03  0.7818608E-02  0.9795903E-01
          1   -1    0    0  501    0  0.00000000000E+00  0.00000000000E+00  0.59859575016E+03  0.59859575018E+03  0.50400000000E-02 0. -1.
         -1   -1    0    0    0  501 -0.00000000000E+00 -0.00000000000E+00 -0.10025968101E+04  0.10025968101E+04  0.50400000000E-02 0.  1.
    8880023    1    1    2    0    0 -0.38180619590E+03  0.59009210922E+02 -0.74263754672E+03  0.10651660858E+04  0.65864270000E+03 0.  0.
    8880022    1    1    2    0    0  0.38180619590E+03 -0.59009210922E+02  0.33863648678E+03  0.53602647453E+03  0.15294330000E+03 0.  0.
<mgrwt>
<rscale>  0 0.65582884E+03</rscale>
<asrwt>0</asrwt>
<pdfrwt beam="1">  1        1 0.92091654E-01 0.76358907E+03</pdfrwt>
<pdfrwt beam="2">  1       -1 0.15424566E+00 0.76358907E+03</pdfrwt>
<totfact> 0.11424823E+01</totfact>
</mgrwt>
</event>
<event>
 4    1  0.1043382E-007  0.7162066E+03  0.7818608E-02  0.9935637E-01
          1   -1    0    0  501    0  0.00000000000E+00  0.00000000000E+00  0.69653538381E+03  0.69653538383E+03  0.50400000000E-02 0. -1.
         -1   -1    0    0    0  501 -0.00000000000E+00 -0.00000000000E+00 -0.65490232395E+03  0.65490232397E+03  0.50400000000E-02 0.  1.
    8880023    1    1    2    0    0  0.24257531694E+03  0.14247422412E+03 -0.38882209047E+03  0.81494448475E+03  0.65864270000E+03 0.  1.
    8880022    1    1    2    0    0 -0.24257531694E+03 -0.14247422412E+03  0.43045515032E+03  0.53649322305E+03  0.15294330000E+03 0.  0.
<mgrwt>
<rscale>  0 0.58564829E+03</rscale>
<asrwt>0</asrwt>
<pdfrwt beam="1">  1        1 0.10715929E+00 0.71620660E+03</pdfrwt>
<pdfrwt beam="2">  1       -1 0.10075420E+00 0.71620660E+03</pdfrwt>
<totfact> 0.26468440E+01</totfact>
</mgrwt>
</event>
<event>
 4    1  0.1043382E-007  0.6600267E+03  0.7818608E-02  0.1024129E+00
         -1   -1    0    0    0  501 -0.00000000000E+00  0.00000000000E+00  0.56469174604E+03  0.56469174606E+03  0.50400000000E-02 0.  1.
          1   -1    0    0  501    0  0.00000000000E+00 -0.00000000000E+00 -0.68962854055E+03  0.68962854057E+03  0.50400000000E-02 0. -1.
    8880023    1    1    2    0    0 -0.27941881116E+02  0.32314696710E+02  0.35454661509E+03  0.74922526444E+03  0.65864270000E+03 0.  1.
    8880022    1    1    2    0    0  0.27941881116E+02 -0.32314696710E+02 -0.47948340960E+03  0.50509502219E+03  0.15294330000E+03 0.  0.
<mgrwt>
<rscale>  0 0.46225542E+03</rscale>
<asrwt>0</asrwt>
<pdfrwt beam="1">  1        1 0.10609670E+00 0.66002666E+03</pdfrwt>
<pdfrwt beam="2">  1       -1 0.86875653E-01 0.66002666E+03</pdfrwt>
<totfact> 0.37596292E+01</totfact>
</mgrwt>
</event>
<event>
 4    1  0.1043382E-007  0.7758326E+03  0.7818608E-02  0.9765719E-01
         -1   -1    0    0    0  501 -0.00000000000E+00  0.00000000000E+00  0.16850397359E+04  0.16850397359E+04  0.50400000000E-02 0.  1.
          1   -1    0    0  501    0  0.00000000000E+00 -0.00000000000E+00 -0.24189414817E+03  0.24189414822E+03  0.50400000000E-02 0. -1.
    8880023    1    1    2    0    0 -0.26463362253E+03 -0.31316927922E+03  0.61402028721E+03  0.98941248779E+03  0.65864270000E+03 0.  1.
    8880022    1    1    2    0    0  0.26463362253E+03  0.31316927922E+03  0.82912530054E+03  0.93752139636E+03  0.15294330000E+03 0.  0.
<mgrwt>
<rscale>  0 0.67235156E+03</rscale>
<asrwt>0</asrwt>
<pdfrwt beam="1">  1        1 0.37214484E-01 0.77583256E+03</pdfrwt>
<pdfrwt beam="2">  1       -1 0.25923689E+00 0.77583256E+03</pdfrwt>
<totfact> 0.72873634E+00</totfact>
</mgrwt>
</event>
<event>
 4    1  0.1043382E-007  0.6987693E+03  0.7818608E-02  0.1000235E+00
         -1   -1    0    0    0  501 -0.00000000000E+00  0.00000000000E+00  0.90361801066E+03  0.90361801068E+03  0.50400000000E-02 0.  1.
          1   -1    0    0  501    0  0.00000000000E+00 -0.00000000000E+00 -0.48341121834E+03  0.48341121837E+03  0.50400000000E-02 0. -1.
    8880023    1    1    2    0    0  0.13282760411E+03 -0.19189878851E+03  0.70197436153E+03  0.99047792906E+03  0.65864270000E+03 0.  1.
    8880022    1    1    2    0    0 -0.13282760411E+03  0.19189878851E+03 -0.28176756921E+03  0.39655129999E+03  0.15294330000E+03 0.  0.
<mgrwt>
<rscale>  0 0.55547515E+03</rscale>
<asrwt>0</asrwt>
<pdfrwt beam="1">  1        1 0.74370957E-01 0.69876929E+03</pdfrwt>
<pdfrwt beam="2">  1       -1 0.13901816E+00 0.69876929E+03</pdfrwt>
<totfact> 0.20452601E+01</totfact>
</mgrwt>
</event>
<event>
 4    1  0.1043382E-007  0.7968297E+03  0.7818608E-02  0.9717693E-01
         -1   -1    0    0    0  501 -0.00000000000E+00  0.00000000000E+00  0.56239262911E+03  0.56239262913E+03  0.50400000000E-02 0.  1.
          1   -1    0    0  501    0  0.00000000000E+00 -0.00000000000E+00 -0.23168661914E+04  0.23168661914E+04  0.50400000000E-02 0. -1.
    8880023    1    1    2    0    0 -0.42275403594E+03  0.14968753260E+03  0.23768583748E+03  0.83152395992E+03  0.65864270000E+03 0.  1.
    8880022    1    1    2    0    0  0.42275403594E+03 -0.14968753260E+03 -0.19921593998E+04  0.20477348606E+04  0.15294330000E+03 0.  0.
<mgrwt>
<rscale>  0 0.69973043E+03</rscale>
<asrwt>0</asrwt>
<pdfrwt beam="1">  1        1 0.35644095E+00 0.79682968E+03</pdfrwt>
<pdfrwt beam="2">  1       -1 0.86521944E-01 0.79682968E+03</pdfrwt>
<totfact> 0.25061408E+00</totfact>
</mgrwt>
</event>
<event>
 4    1  0.1043382E-007  0.7018063E+03  0.7818608E-02  0.9989789E-01
         -1   -1    0    0    0  501 -0.00000000000E+00  0.00000000000E+00  0.19208098398E+03  0.19208098405E+03  0.50400000000E-02 0.  1.
          1   -1    0    0  501    0  0.00000000000E+00 -0.00000000000E+00 -0.12720582590E+04  0.12720582590E+04  0.50400000000E-02 0. -1.
    8880023    1    1    2    0    0 -0.23673758018E+03  0.51741157288E+02 -0.78170881882E+03  0.10505240182E+04  0.65864270000E+03 0.  0.
    8880022    1    1    2    0    0  0.23673758018E+03 -0.51741157288E+02 -0.29826845622E+03  0.41361522484E+03  0.15294330000E+03 0. -1.
<mgrwt>
<rscale>  0 0.56100243E+03</rscale>
<asrwt>0</asrwt>
<pdfrwt beam="1">  1        1 0.19570127E+00 0.70180627E+03</pdfrwt>
<pdfrwt beam="2">  1       -1 0.29550921E-01 0.70180627E+03</pdfrwt>
<totfact> 0.10171975E+02</totfact>
</mgrwt>
</event>
<event>
 4    1  0.1043382E-007  0.1081793E+04  0.7818608E-02  0.9281603E-01
         -1   -1    0    0    0  501 -0.00000000000E+00  0.00000000000E+00  0.12469909381E+04  0.12469909381E+04  0.50400000000E-02 0.  1.
          1   -1    0    0  501    0  0.00000000000E+00 -0.00000000000E+00 -0.11876037646E+04  0.11876037646E+04  0.50400000000E-02 0. -1.
    8880023    1    1    2    0    0 -0.81262613125E+03  0.27587005675E+03  0.75513520900E+03  0.13192819667E+04  0.65864270000E+03 0.  1.
    8880022    1    1    2    0    0  0.81262613125E+03 -0.27587005675E+03 -0.69574803546E+03  0.11153127361E+04  0.15294330000E+03 0.  0.
<mgrwt>
<rscale>  0 0.10249427E+04</rscale>
<asrwt>0</asrwt>
<pdfrwt beam="1">  1        1 0.18270827E+00 0.10817928E+04</pdfrwt>
<pdfrwt beam="2">  1       -1 0.19184476E+00 0.10817928E+04</pdfrwt>
<totfact> 0.18602187E+00</totfact>
</mgrwt>
</event>
<event>
 4    1  0.1043382E-007  0.6997121E+03  0.7818608E-02  0.9998398E-01
         -1   -1    0    0    0  501 -0.00000000000E+00  0.00000000000E+00  0.31885929789E+03  0.31885929793E+03  0.50400000000E-02 0.  1.
          1   -1    0    0  501    0  0.00000000000E+00 -0.00000000000E+00 -0.79708726058E+03  0.79708726059E+03  0.50400000000E-02 0. -1.
    8880023    1    1    2    0    0  0.89298528435E+02 -0.21866082810E+03 -0.21855232380E+03  0.73304986831E+03  0.65864270000E+03 0.  0.
    8880022    1    1    2    0    0 -0.89298528435E+02  0.21866082810E+03 -0.25967563890E+03  0.38289669021E+03  0.15294330000E+03 0.  1.
<mgrwt>
<rscale>  0 0.55720550E+03</rscale>
<asrwt>0</asrwt>
<pdfrwt beam="1">  1        1 0.12262881E+00 0.69971208E+03</pdfrwt>
<pdfrwt beam="2">  1       -1 0.49055277E-01 0.69971208E+03</pdfrwt>
<totfact> 0.94696423E+01</totfact>
</mgrwt>
</event>
<event>
 4    1  0.1043382E-007  0.7288753E+03  0.7818608E-02  0.9893625E-01
         -1   -1    0    0    0  501 -0.00000000000E+00  0.00000000000E+00  0.72730274357E+03  0.72730274358E+03  0.50400000000E-02 0.  1.
          1   -1    0    0  501    0  0.00000000000E+00 -0.00000000000E+00 -0.43227827463E+03  0.43227827466E+03  0.50400000000E-02 0. -1.
    8880023    1    1    2    0    0  0.22511851675E+02  0.31135537054E+03  0.34844000872E+03  0.80787969164E+03  0.65864270000E+03 0.  0.
    8880022    1    1    2    0    0 -0.22511851675E+02 -0.31135537054E+03 -0.53415539786E+02  0.35170132660E+03  0.15294330000E+03 0.  0.
<mgrwt>
<rscale>  0 0.60571248E+03</rscale>
<asrwt>0</asrwt>
<pdfrwt beam="1">  1        1 0.66504351E-01 0.72887527E+03</pdfrwt>
<pdfrwt beam="2">  1       -1 0.11189273E+00 0.72887527E+03</pdfrwt>
<totfact> 0.40571390E+01</totfact>
</mgrwt>
</event>
<event>
 4    1  0.1043382E-007  0.6704713E+03  0.7818608E-02  0.1015327E+00
         -1   -1    0    0    0  501 -0.00000000000E+00  0.00000000000E+00  0.14996021704E+03  0.14996021713E+03  0.50400000000E-02 0.  1.
          1   -1    0    0  501    0  0.00000000000E+00 -0.00000000000E+00 -0.15060576482E+04  0.15060576482E+04  0.50400000000E-02 0. -1.
    8880023    1    1    2    0    0 -0.89129552201E+02  0.88190095803E+02 -0.69381705329E+03  0.96483878435E+03  0.65864270000E+03 0.  0.
    8880022    1    1    2    0    0  0.89129552201E+02 -0.88190095803E+02 -0.66228037783E+03  0.69117908096E+03  0.15294330000E+03 0.  0.
<mgrwt>
<rscale>  0 0.49411223E+03</rscale>
<asrwt>0</asrwt>
<pdfrwt beam="1">  1        1 0.23170117E+00 0.67047131E+03</pdfrwt>
<pdfrwt beam="2">  1       -1 0.23070804E-01 0.67047131E+03</pdfrwt>
<totfact> 0.10719957E+02</totfact>
</mgrwt>
</event>
<event>
 4    1  0.1043382E-007  0.7254193E+03  0.7818608E-02  0.9904658E-01
          1   -1    0    0  501    0  0.00000000000E+00  0.00000000000E+00  0.76448302933E+03  0.76448302934E+03  0.50400000000E-02 0. -1.
         -1   -1    0    0    0  501 -0.00000000000E+00 -0.00000000000E+00 -0.82691091699E+03  0.82691091701E+03  0.50400000000E-02 0.  1.
    8880023    1    1    2    0    0  0.27000363170E+03 -0.13971744278E+03 -0.60924992746E+03  0.94732180663E+03  0.65864270000E+03 0.  0.
    8880022    1    1    2    0    0 -0.27000363170E+03  0.13971744278E+03  0.54682203979E+03  0.64407213972E+03  0.15294330000E+03 0.  0.
<mgrwt>
<rscale>  0 0.60036066E+03</rscale>
<asrwt>0</asrwt>
<pdfrwt beam="1">  1        1 0.11761277E+00 0.72541928E+03</pdfrwt>
<pdfrwt beam="2">  1       -1 0.12721706E+00 0.72541928E+03</pdfrwt>
<totfact> 0.13145060E+01</totfact>
</mgrwt>
</event>
<event>
 4    1  0.1043382E-007  0.8086245E+03  0.7818608E-02  0.9692449E-01
         -1   -1    0    0    0  501 -0.00000000000E+00  0.00000000000E+00  0.27343045573E+03  0.27343045578E+03  0.50400000000E-02 0.  1.
          1   -1    0    0  501    0  0.00000000000E+00 -0.00000000000E+00 -0.21158640440E+04  0.21158640440E+04  0.50400000000E-02 0. -1.
    8880023    1    1    2    0    0  0.46909276950E+03 -0.39245545971E+01 -0.48021208496E+03  0.94046652324E+03  0.65864270000E+03 0.  1.
    8880022    1    1    2    0    0 -0.46909276950E+03  0.39245545971E+01 -0.13622215033E+04  0.14488279765E+04  0.15294330000E+03 0.  0.
<mgrwt>
<rscale>  0 0.71468150E+03</rscale>
<asrwt>0</asrwt>
<pdfrwt beam="1">  1        1 0.32551753E+00 0.80862453E+03</pdfrwt>
<pdfrwt beam="2">  1       -1 0.42066225E-01 0.80862453E+03</pdfrwt>
<totfact> 0.14300185E+01</totfact>
</mgrwt>
</event>
<event>
 4    1  0.1043382E-007  0.9459348E+03  0.7818608E-02  0.9455987E-01
          1   -1    0    0  501    0  0.00000000000E+00  0.00000000000E+00  0.20585688720E+04  0.20585688720E+04  0.50400000000E-02 0. -1.
         -1   -1    0    0    0  501 -0.00000000000E+00 -0.00000000000E+00 -0.48798281176E+03  0.48798281178E+03  0.50400000000E-02 0.  1.
    8880023    1    1    2    0    0  0.12366260634E+03 -0.66760011679E+03  0.14077513830E+03  0.95635255109E+03  0.65864270000E+03 0.  0.
    8880022    1    1    2    0    0 -0.12366260634E+03  0.66760011679E+03  0.14298109220E+04  0.15901991327E+04  0.15294330000E+03 0.  0.
<mgrwt>
<rscale>  0 0.87607945E+03</rscale>
<asrwt>0</asrwt>
<pdfrwt beam="1">  1        1 0.31670290E+00 0.94593476E+03</pdfrwt>
<pdfrwt beam="2">  1       -1 0.75074279E-01 0.94593476E+03</pdfrwt>
<totfact> 0.49461437E+00</totfact>
</mgrwt>
</event>
<event>
 4    1  0.1043382E-007  0.7804965E+03  0.7818608E-02  0.9754672E-01
         -1   -1    0    0    0  501 -0.00000000000E+00  0.00000000000E+00  0.74699765594E+03  0.74699765596E+03  0.50400000000E-02 0.  1.
          1   -1    0    0  501    0  0.00000000000E+00 -0.00000000000E+00 -0.12950345817E+04  0.12950345817E+04  0.50400000000E-02 0. -1.
    8880023    1    1    2    0    0 -0.91194493122E+02 -0.40871526208E+03  0.48360800811E+03  0.91817836655E+03  0.65864270000E+03 0.  1.
    8880022    1    1    2    0    0  0.91194493122E+02  0.40871526208E+03 -0.10316449339E+04  0.11238538711E+04  0.15294330000E+03 0.  0.
<mgrwt>
<rscale>  0 0.67852886E+03</rscale>
<asrwt>0</asrwt>
<pdfrwt beam="1">  1        1 0.19923609E+00 0.78049651E+03</pdfrwt>
<pdfrwt beam="2">  1       -1 0.11492272E+00 0.78049651E+03</pdfrwt>
<totfact> 0.64777728E+00</totfact>
</mgrwt>
</event>
<event>
 4    1  0.1043382E-007  0.6800391E+03  0.7818608E-02  0.1009302E+00
         -1   -1    0    0    0  501 -0.00000000000E+00  0.00000000000E+00  0.22947272403E+03  0.22947272408E+03  0.50400000000E-02 0.  1.
          1   -1    0    0  501    0  0.00000000000E+00 -0.00000000000E+00 -0.11199807147E+04  0.11199807147E+04  0.50400000000E-02 0. -1.
    8880023    1    1    2    0    0 -0.53119929183E+02  0.16068982819E+03 -0.35442762524E+03  0.76685858902E+03  0.65864270000E+03 0.  1.
    8880022    1    1    2    0    0  0.53119929183E+02 -0.16068982819E+03 -0.53608036545E+03  0.58259484979E+03  0.15294330000E+03 0. -1.
<mgrwt>
<rscale>  0 0.51753167E+03</rscale>
<asrwt>0</asrwt>
<pdfrwt beam="1">  1        1 0.17230472E+00 0.68003908E+03</pdfrwt>
<pdfrwt beam="2">  1       -1 0.35303497E-01 0.68003908E+03</pdfrwt>
<totfact> 0.96048437E+01</totfact>
</mgrwt>
</event>
<event>
 4    1  0.1043382E-007  0.9616726E+03  0.7818608E-02  0.9433515E-01
          1   -1    0    0  501    0  0.00000000000E+00  0.00000000000E+00  0.85559846344E+03  0.85559846346E+03  0.50400000000E-02 0. -1.
         -1   -1    0    0    0  501 -0.00000000000E+00 -0.00000000000E+00 -0.87745495681E+03  0.87745495682E+03  0.50400000000E-02 0.  1.
    8880023    1    1    2    0    0  0.28344813747E+03  0.64082847118E+03 -0.22496435487E+03  0.98763512662E+03  0.65864270000E+03 0.  0.
    8880022    1    1    2    0    0 -0.28344813747E+03 -0.64082847118E+03  0.20310786150E+03  0.74541829366E+03  0.15294330000E+03 0.  1.
<mgrwt>
<rscale>  0 0.89368113E+03</rscale>
<asrwt>0</asrwt>
<pdfrwt beam="1">  1        1 0.13163053E+00 0.96167260E+03</pdfrwt>
<pdfrwt beam="2">  1       -1 0.13499307E+00 0.96167260E+03</pdfrwt>
<totfact> 0.91835829E+00</totfact>
</mgrwt>
</event>
<event>
 4    1  0.1043382E-007  0.1066837E+04  0.7818608E-02  0.9298910E-01
         -1   -1    0    0    0  501 -0.00000000000E+00  0.00000000000E+00  0.22157336354E+04  0.22157336354E+04  0.50400000000E-02 0.  1.
          1   -1    0    0  501    0  0.00000000000E+00 -0.00000000000E+00 -0.10468025073E+04  0.10468025073E+04  0.50400000000E-02 0. -1.
    8880023    1    1    2    0    0 -0.30391922868E+02 -0.83869345968E+03  0.18736146432E+04  0.21560548290E+04  0.65864270000E+03 0.  1.
    8880022    1    1    2    0    0  0.30391922868E+02  0.83869345968E+03 -0.70468351499E+03  0.11064813137E+04  0.15294330000E+03 0.  0.
<mgrwt>
<rscale>  0 0.10088327E+04</rscale>
<asrwt>0</asrwt>
<pdfrwt beam="1">  1        1 0.16104654E+00 0.10668367E+04</pdfrwt>
<pdfrwt beam="2">  1       -1 0.34088210E+00 0.10668367E+04</pdfrwt>
<totfact> 0.25052159E-01</totfact>
</mgrwt>
</event>
<event>
 4    1  0.1043382E-007  0.7799123E+03  0.7818608E-02  0.9756043E-01
          1   -1    0    0  501    0  0.00000000000E+00  0.00000000000E+00  0.72311297549E+03  0.72311297550E+03  0.50400000000E-02 0. -1.
         -1   -1    0    0    0  501 -0.00000000000E+00 -0.00000000000E+00 -0.57099136152E+03  0.57099136155E+03  0.50400000000E-02 0.  1.
    8880023    1    1    2    0    0 -0.79192210255E+02 -0.41009955261E+03 -0.94325797699E+02  0.78559570492E+03  0.65864270000E+03 0.  0.
    8880022    1    1    2    0    0  0.79192210255E+02  0.41009955261E+03  0.24644741166E+03  0.50850863213E+03  0.15294330000E+03 0.  0.
<mgrwt>
<rscale>  0 0.67775838E+03</rscale>
<asrwt>0</asrwt>
<pdfrwt beam="1">  1        1 0.11124815E+00 0.77991234E+03</pdfrwt>
<pdfrwt beam="2">  1       -1 0.87844825E-01 0.77991234E+03</pdfrwt>
<totfact> 0.33736022E+01</totfact>
</mgrwt>
</event>
<event>
 4    1  0.1043382E-007  0.6873151E+03  0.7818608E-02  0.1005456E+00
          1   -1    0    0  501    0  0.00000000000E+00  0.00000000000E+00  0.21903652762E+04  0.21903652762E+04  0.50400000000E-02 0. -1.
         -1   -1    0    0    0  501 -0.00000000000E+00 -0.00000000000E+00 -0.13101604568E+03  0.13101604578E+03  0.50400000000E-02 0.  1.
    8880023    1    1    2    0    0  0.18279881517E+03 -0.71947832605E+02  0.88296728252E+03  0.11189429502E+04  0.65864270000E+03 0.  1.
    8880022    1    1    2    0    0 -0.18279881517E+03  0.71947832605E+02  0.11763819480E+04  0.12024383719E+04  0.15294330000E+03 0.  0.
<mgrwt>
<rscale>  0 0.53321393E+03</rscale>
<asrwt>0</asrwt>
<pdfrwt beam="1">  1        1 0.33697925E+00 0.68731514E+03</pdfrwt>
<pdfrwt beam="2">  1       -1 0.20156316E-01 0.68731514E+03</pdfrwt>
<totfact> 0.46666249E+01</totfact>
</mgrwt>
</event>
<event>
 4    1  0.1043382E-007  0.8955114E+03  0.7818608E-02  0.9533276E-01
         -1   -1    0    0    0  501 -0.00000000000E+00  0.00000000000E+00  0.35307585970E+03  0.35307585974E+03  0.50400000000E-02 0.  1.
          1   -1    0    0  501    0  0.00000000000E+00 -0.00000000000E+00 -0.17366451546E+04  0.17366451546E+04  0.50400000000E-02 0. -1.
    8880023    1    1    2    0    0  0.65662421943E+02 -0.60317399597E+03 -0.56293480656E+03  0.10577505499E+04  0.65864270000E+03 0.  0.
    8880022    1    1    2    0    0 -0.65662421943E+02  0.60317399597E+03 -0.82063448837E+03  0.10319704645E+04  0.15294330000E+03 0.  0.
<mgrwt>
<rscale>  0 0.81874350E+03</rscale>
<asrwt>0</asrwt>
<pdfrwt beam="1">  1        1 0.26717617E+00 0.89551138E+03</pdfrwt>
<pdfrwt beam="2">  1       -1 0.54319364E-01 0.89551138E+03</pdfrwt>
<totfact> 0.15704229E+01</totfact>
</mgrwt>
</event>
<event>
 4    1  0.1043382E-007  0.7690391E+03  0.7818608E-02  0.9782244E-01
         -1   -1    0    0    0  501 -0.00000000000E+00  0.00000000000E+00  0.54641578854E+03  0.54641578857E+03  0.50400000000E-02 0.  1.
          1   -1    0    0  501    0  0.00000000000E+00 -0.00000000000E+00 -0.92772203506E+03  0.92772203507E+03  0.50400000000E-02 0. -1.
    8880023    1    1    2    0    0 -0.36131585839E+03  0.16450454065E+03  0.16014488806E+03  0.78553643127E+03  0.65864270000E+03 0.  0.
    8880022    1    1    2    0    0  0.36131585839E+03 -0.16450454065E+03 -0.54145113458E+03  0.68860139237E+03  0.15294330000E+03 0.  0.
<mgrwt>
<rscale>  0 0.66324180E+03</rscale>
<asrwt>0</asrwt>
<pdfrwt beam="1">  1        1 0.14272647E+00 0.76903908E+03</pdfrwt>
<pdfrwt beam="2">  1       -1 0.84063968E-01 0.76903908E+03</pdfrwt>
<totfact> 0.24835240E+01</totfact>
</mgrwt>
</event>
<event>
 4    1  0.1043382E-007  0.9154061E+03  0.7818608E-02  0.9501739E-01
          1   -1    0    0  501    0  0.00000000000E+00  0.00000000000E+00  0.53851471089E+03  0.53851471091E+03  0.50400000000E-02 0. -1.
         -1   -1    0    0    0  501 -0.00000000000E+00 -0.00000000000E+00 -0.17344592096E+04  0.17344592097E+04  0.50400000000E-02 0.  1.
    8880023    1    1    2    0    0  0.63413222624E+03 -0.45103904761E+02 -0.13210747808E+04  0.16072357715E+04  0.65864270000E+03 0. -1.
    8880022    1    1    2    0    0 -0.63413222624E+03  0.45103904761E+02  0.12513028204E+03  0.66573814904E+03  0.15294330000E+03 0.  0.
<mgrwt>
<rscale>  0 0.84155724E+03</rscale>
<asrwt>0</asrwt>
<pdfrwt beam="1">  1        1 0.82848418E-01 0.91540606E+03</pdfrwt>
<pdfrwt beam="2">  1       -1 0.26683988E+00 0.91540606E+03</pdfrwt>
<totfact> 0.22107480E+00</totfact>
</mgrwt>
</event>
<event>
 4    1  0.1043382E-007  0.8691548E+03  0.7818608E-02  0.9577482E-01
          1   -1    0    0  501    0  0.00000000000E+00  0.00000000000E+00  0.13752583754E+04  0.13752583755E+04  0.50400000000E-02 0. -1.
         -1   -1    0    0    0  501 -0.00000000000E+00 -0.00000000000E+00 -0.65881179826E+03  0.65881179828E+03  0.50400000000E-02 0.  1.
    8880023    1    1    2    0    0 -0.23898829963E+03 -0.51430001292E+03 -0.24887899079E+03  0.90408565356E+03  0.65864270000E+03 0.  1.
    8880022    1    1    2    0    0  0.23898829963E+03  0.51430001292E+03  0.96532556798E+03  0.11299845202E+04  0.15294330000E+03 0.  0.
<mgrwt>
<rscale>  0 0.78804690E+03</rscale>
<asrwt>0</asrwt>
<pdfrwt beam="1">  1        1 0.21157821E+00 0.86915483E+03</pdfrwt>
<pdfrwt beam="2">  1       -1 0.10135566E+00 0.86915483E+03</pdfrwt>
<totfact> 0.75429578E+00</totfact>
</mgrwt>
</event>
<event>
 4    1  0.1043382E-007  0.6910619E+03  0.7818608E-02  0.1003652E+00
         -1   -1    0    0    0  501 -0.00000000000E+00  0.00000000000E+00  0.41506011394E+03  0.41506011397E+03  0.50400000000E-02 0.  1.
          1   -1    0    0  501    0  0.00000000000E+00 -0.00000000000E+00 -0.22068182047E+04  0.22068182047E+04  0.50400000000E-02 0. -1.
    8880023    1    1    2    0    0  0.95883221785E+02 -0.18591075883E+03  0.11242262787E+03  0.70014673890E+03  0.65864270000E+03 0.  1.
    8880022    1    1    2    0    0 -0.95883221785E+02  0.18591075883E+03 -0.19041807186E+04  0.19217315797E+04  0.15294330000E+03 0.  0.
<mgrwt>
<rscale>  0 0.54077538E+03</rscale>
<asrwt>0</asrwt>
<pdfrwt beam="1">  1        1 0.33951049E+00 0.69106194E+03</pdfrwt>
<pdfrwt beam="2">  1       -1 0.63855404E-01 0.69106194E+03</pdfrwt>
<totfact> 0.57045741E+00</totfact>
</mgrwt>
</event>
<event>
 4    1  0.1043382E-007  0.8092585E+03  0.7818608E-02  0.9691124E-01
         -1   -1    0    0    0  501 -0.00000000000E+00  0.00000000000E+00  0.78945275540E+03  0.78945275542E+03  0.50400000000E-02 0.  1.
          1   -1    0    0  501    0  0.00000000000E+00 -0.00000000000E+00 -0.74811422010E+03  0.74811422011E+03  0.50400000000E-02 0. -1.
    8880023    1    1    2    0    0  0.21286644082E+02  0.46971906634E+03  0.42282132476E+03  0.91305925407E+03  0.65864270000E+03 0.  1.
    8880022    1    1    2    0    0 -0.21286644082E+02 -0.46971906634E+03 -0.38148278946E+03  0.62450772146E+03  0.15294330000E+03 0.  0.
<mgrwt>
<rscale>  0 0.71547760E+03</rscale>
<asrwt>0</asrwt>
<pdfrwt beam="1">  1        1 0.11509450E+00 0.80925851E+03</pdfrwt>
<pdfrwt beam="2">  1       -1 0.12145427E+00 0.80925851E+03</pdfrwt>
<totfact> 0.15096482E+01</totfact>
</mgrwt>
</event>
<event>
 4    1  0.1043382E-007  0.7027978E+03  0.7818608E-02  0.9985787E-01
         -1   -1    0    0    0  501 -0.00000000000E+00  0.00000000000E+00  0.22325100918E+03  0.22325100924E+03  0.50400000000E-02 0.  1.
          1   -1    0    0  501    0  0.00000000000E+00 -0.00000000000E+00 -0.13001920650E+04  0.13001920650E+04  0.50400000000E-02 0. -1.
    8880023    1    1    2    0    0  0.65939481281E+02  0.23614926520E+03 -0.45384854381E+03  0.83660217405E+03  0.65864270000E+03 0.  1.
    8880022    1    1    2    0    0 -0.65939481281E+02 -0.23614926520E+03 -0.62309251196E+03  0.68684090015E+03  0.15294330000E+03 0.  1.
<mgrwt>
<rscale>  0 0.56277861E+03</rscale>
<asrwt>0</asrwt>
<pdfrwt beam="1">  1        1 0.20002954E+00 0.70279776E+03</pdfrwt>
<pdfrwt beam="2">  1       -1 0.34346310E-01 0.70279776E+03</pdfrwt>
<totfact> 0.74607436E+01</totfact>
</mgrwt>
</event>
<event>
 4    1  0.1043382E-007  0.7340177E+03  0.7818608E-02  0.9877729E-01
          1   -1    0    0  501    0  0.00000000000E+00  0.00000000000E+00  0.37101212328E+03  0.37101212331E+03  0.50400000000E-02 0. -1.
         -1   -1    0    0    0  501 -0.00000000000E+00 -0.00000000000E+00 -0.84531684851E+03  0.84531684852E+03  0.50400000000E-02 0.  1.
    8880023    1    1    2    0    0 -0.30830807009E+03  0.99588596801E+02 -0.18800973926E+03  0.75771341747E+03  0.65864270000E+03 0. -1.
    8880022    1    1    2    0    0  0.30830807009E+03 -0.99588596801E+02 -0.28629498597E+03  0.45861555436E+03  0.15294330000E+03 0.  0.
<mgrwt>
<rscale>  0 0.61352893E+03</rscale>
<asrwt>0</asrwt>
<pdfrwt beam="1">  1        1 0.57078789E-01 0.73401768E+03</pdfrwt>
<pdfrwt beam="2">  1       -1 0.13004875E+00 0.73401768E+03</pdfrwt>
<totfact> 0.34402120E+01</totfact>
</mgrwt>
</event>
<event>
 4    1  0.1043382E-007  0.9611572E+03  0.7818608E-02  0.9434240E-01
         -1   -1    0    0    0  501 -0.00000000000E+00  0.00000000000E+00  0.67375526811E+03  0.67375526812E+03  0.50400000000E-02 0.  1.
          1   -1    0    0  501    0  0.00000000000E+00 -0.00000000000E+00 -0.19729137684E+04  0.19729137684E+04  0.50400000000E-02 0. -1.
    8880023    1    1    2    0    0  0.39090839910E+03 -0.58069237068E+03 -0.16024498339E+04  0.18686007285E+04  0.65864270000E+03 0. -1.
    8880022    1    1    2    0    0 -0.39090839910E+03  0.58069237068E+03  0.30329133369E+03  0.77806830803E+03  0.15294330000E+03 0.  0.
<mgrwt>
<rscale>  0 0.89310661E+03</rscale>
<asrwt>0</asrwt>
<pdfrwt beam="1">  1        1 0.30352519E+00 0.96115723E+03</pdfrwt>
<pdfrwt beam="2">  1       -1 0.10365466E+00 0.96115723E+03</pdfrwt>
<totfact> 0.27720293E+00</totfact>
</mgrwt>
</event>
<event>
 4    1  0.1043382E-007  0.7039267E+03  0.7818608E-02  0.9981286E-01
          1   -1    0    0  501    0  0.00000000000E+00  0.00000000000E+00  0.57747576755E+03  0.57747576758E+03  0.50400000000E-02 0. -1.
         -1   -1    0    0    0  501 -0.00000000000E+00 -0.00000000000E+00 -0.67378166892E+03  0.67378166894E+03  0.50400000000E-02 0.  1.
    8880023    1    1    2    0    0 -0.14990526748E+03 -0.19806829455E+03 -0.41665439239E+03  0.81799372093E+03  0.65864270000E+03 0.  1.
    8880022    1    1    2    0    0  0.14990526748E+03  0.19806829455E+03  0.32034849102E+03  0.43326371558E+03  0.15294330000E+03 0.  0.
<mgrwt>
<rscale>  0 0.56478499E+03</rscale>
<asrwt>0</asrwt>
<pdfrwt beam="1">  1        1 0.88842426E-01 0.70392673E+03</pdfrwt>
<pdfrwt beam="2">  1       -1 0.10365872E+00 0.70392673E+03</pdfrwt>
<totfact> 0.32653514E+01</totfact>
</mgrwt>
</event>
<event>
 4    1  0.1043382E-007  0.9194815E+03  0.7818608E-02  0.9495454E-01
         -1   -1    0    0    0  501 -0.00000000000E+00  0.00000000000E+00  0.36120027053E+03  0.36120027057E+03  0.50400000000E-02 0.  1.
          1   -1    0    0  501    0  0.00000000000E+00 -0.00000000000E+00 -0.18213740871E+04  0.18213740871E+04  0.50400000000E-02 0. -1.
    8880023    1    1    2    0    0 -0.63589539619E+03 -0.85282176775E+02 -0.59715911726E+03  0.10963782295E+04  0.65864270000E+03 0.  1.
    8880022    1    1    2    0    0  0.63589539619E+03  0.85282176775E+02 -0.86301469928E+03  0.10861961281E+04  0.15294330000E+03 0. -1.
<mgrwt>
<rscale>  0 0.84619772E+03</rscale>
<asrwt>0</asrwt>
<pdfrwt beam="1">  1        1 0.28021139E+00 0.91948149E+03</pdfrwt>
<pdfrwt beam="2">  1       -1 0.55569274E-01 0.91948149E+03</pdfrwt>
<totfact> 0.13138375E+01</totfact>
</mgrwt>
</event>
<event>
 4    1  0.1043382E-007  0.7272152E+03  0.7818608E-02  0.9898888E-01
          1   -1    0    0  501    0  0.00000000000E+00  0.00000000000E+00  0.53623740503E+03  0.53623740505E+03  0.50400000000E-02 0. -1.
         -1   -1    0    0    0  501 -0.00000000000E+00 -0.00000000000E+00 -0.10351973082E+04  0.10351973082E+04  0.50400000000E-02 0.  1.
    8880023    1    1    2    0    0 -0.15520157218E+02  0.30788120001E+03 -0.82334677526E+03  0.10985180141E+04  0.65864270000E+03 0.  1.
    8880022    1    1    2    0    0  0.15520157218E+02 -0.30788120001E+03  0.32438687209E+03  0.47291669922E+03  0.15294330000E+03 0.  0.
<mgrwt>
<rscale>  0 0.60315214E+03</rscale>
<asrwt>0</asrwt>
<pdfrwt beam="1">  1        1 0.82498062E-01 0.72721518E+03</pdfrwt>
<pdfrwt beam="2">  1       -1 0.15926112E+00 0.72721518E+03</pdfrwt>
<totfact> 0.12282522E+01</totfact>
</mgrwt>
</event>
<event>
 4    1  0.1043382E-007  0.6699248E+03  0.7818608E-02  0.1015717E+00
          1   -1    0    0  501    0  0.00000000000E+00  0.00000000000E+00  0.48338146878E+03  0.48338146880E+03  0.50400000000E-02 0. -1.
         -1   -1    0    0    0  501 -0.00000000000E+00 -0.00000000000E+00 -0.10830971754E+04  0.10830971754E+04  0.50400000000E-02 0.  1.
    8880023    1    1    2    0    0 -0.11876413636E+03 -0.29734402328E+02 -0.95158347802E+03  0.11637484164E+04  0.65864270000E+03 0.  1.
    8880022    1    1    2    0    0  0.11876413636E+03  0.29734402328E+02  0.35186777144E+03  0.40273022777E+03  0.15294330000E+03 0.  0.
<mgrwt>
<rscale>  0 0.49264454E+03</rscale>
<asrwt>0</asrwt>
<pdfrwt beam="1">  1        1 0.74366380E-01 0.66992482E+03</pdfrwt>
<pdfrwt beam="2">  1       -1 0.16663033E+00 0.66992482E+03</pdfrwt>
<totfact> 0.12579288E+01</totfact>
</mgrwt>
</event>
<event>
 4    1  0.1043382E-007  0.1147638E+04  0.7818608E-02  0.9209783E-01
         -1   -1    0    0    0  501 -0.00000000000E+00  0.00000000000E+00  0.79815240039E+03  0.79815240040E+03  0.50400000000E-02 0.  1.
          1   -1    0    0  501    0  0.00000000000E+00 -0.00000000000E+00 -0.14156399332E+04  0.14156399332E+04  0.50400000000E-02 0. -1.
    8880023    1    1    2    0    0 -0.57500986994E+03  0.74338901918E+03 -0.16456949746E+03  0.11593778116E+04  0.65864270000E+03 0.  1.
    8880022    1    1    2    0    0  0.57500986994E+03 -0.74338901918E+03 -0.45291803534E+03  0.10544145220E+04  0.15294330000E+03 0. -1.
<mgrwt>
<rscale>  0 0.10953025E+04</rscale>
<asrwt>0</asrwt>
<pdfrwt beam="1">  1        1 0.21779076E+00 0.11476384E+04</pdfrwt>
<pdfrwt beam="2">  1       -1 0.12279268E+00 0.11476384E+04</pdfrwt>
<totfact> 0.43290183E+00</totfact>
</mgrwt>
</event>
<event>
 4    1  0.1043382E-007  0.1091954E+04  0.7818608E-02  0.9270067E-01
         -1   -1    0    0    0  501 -0.00000000000E+00  0.00000000000E+00  0.13216139433E+04  0.13216139433E+04  0.50400000000E-02 0.  1.
          1   -1    0    0  501    0  0.00000000000E+00 -0.00000000000E+00 -0.75509941314E+03  0.75509941315E+03  0.50400000000E-02 0. -1.
    8880023    1    1    2    0    0  0.75190580226E+03  0.43953544063E+03  0.46423790301E+03  0.11865415188E+04  0.65864270000E+03 0. -1.
    8880022    1    1    2    0    0 -0.75190580226E+03 -0.43953544063E+03  0.10227662716E+03  0.89017183764E+03  0.15294330000E+03 0.  1.
<mgrwt>
<rscale>  0 0.10358583E+04</rscale>
<asrwt>0</asrwt>
<pdfrwt beam="1">  1        1 0.11616914E+00 0.10919542E+04</pdfrwt>
<pdfrwt beam="2">  1       -1 0.20332522E+00 0.10919542E+04</pdfrwt>
<totfact> 0.34392752E+00</totfact>
</mgrwt>
</event>
<event>
 4    1  0.1043382E-007  0.8995772E+03  0.7818608E-02  0.9526711E-01
         -1   -1    0    0    0  501 -0.00000000000E+00  0.00000000000E+00  0.71474573270E+03  0.71474573272E+03  0.50400000000E-02 0.  1.
          1   -1    0    0  501    0  0.00000000000E+00 -0.00000000000E+00 -0.84670098339E+03  0.84670098341E+03  0.50400000000E-02 0. -1.
    8880023    1    1    2    0    0  0.11968837594E+03 -0.60091892202E+03 -0.21382258405E+03  0.92464001746E+03  0.65864270000E+03 0. -1.
    8880022    1    1    2    0    0 -0.11968837594E+03  0.60091892202E+03  0.81867333362E+02  0.63680669867E+03  0.15294330000E+03 0.  1.
<mgrwt>
<rscale>  0 0.82342870E+03</rscale>
<asrwt>0</asrwt>
<pdfrwt beam="1">  1        1 0.13026169E+00 0.89957716E+03</pdfrwt>
<pdfrwt beam="2">  1       -1 0.10996088E+00 0.89957716E+03</pdfrwt>
<totfact> 0.15581784E+01</totfact>
</mgrwt>
</event>
<event>
 4    1  0.1043382E-007  0.8037835E+03  0.7818608E-02  0.9702674E-01
         -1   -1    0    0    0  501 -0.00000000000E+00  0.00000000000E+00  0.41660172884E+03  0.41660172887E+03  0.50400000000E-02 0.  1.
          1   -1    0    0  501    0  0.00000000000E+00 -0.00000000000E+00 -0.12663553672E+04  0.12663553672E+04  0.50400000000E-02 0. -1.
    8880023    1    1    2    0    0 -0.25873028487E+03 -0.38120381484E+03 -0.88587439532E+03  0.11961778126E+04  0.65864270000E+03 0. -1.
    8880022    1    1    2    0    0  0.25873028487E+03  0.38120381484E+03  0.36120756939E+02  0.48677928351E+03  0.15294330000E+03 0.  1.
<mgrwt>
<rscale>  0 0.70857789E+03</rscale>
<asrwt>0</asrwt>
<pdfrwt beam="1">  1        1 0.19482390E+00 0.80378350E+03</pdfrwt>
<pdfrwt beam="2">  1       -1 0.64092574E-01 0.80378350E+03</pdfrwt>
<totfact> 0.24181156E+01</totfact>
</mgrwt>
</event>
<event>
 4    1  0.1043382E-007  0.7618521E+03  0.7818608E-02  0.9800336E-01
         -1   -1    0    0    0  501 -0.00000000000E+00  0.00000000000E+00  0.22702365987E+03  0.22702365993E+03  0.50400000000E-02 0.  1.
          1   -1    0    0  501    0  0.00000000000E+00 -0.00000000000E+00 -0.17344069380E+04  0.17344069380E+04  0.50400000000E-02 0. -1.
    8880023    1    1    2    0    0 -0.36415178926E+02 -0.38115930119E+03 -0.61752261287E+03  0.98068999271E+03  0.65864270000E+03 0.  1.
    8880022    1    1    2    0    0  0.36415178926E+02  0.38115930119E+03 -0.88986066525E+03  0.98074060521E+03  0.15294330000E+03 0.  0.
<mgrwt>
<rscale>  0 0.65344521E+03</rscale>
<asrwt>0</asrwt>
<pdfrwt beam="1">  1        1 0.26683183E+00 0.76185214E+03</pdfrwt>
<pdfrwt beam="2">  1       -1 0.34926718E-01 0.76185214E+03</pdfrwt>
<totfact> 0.36274216E+01</totfact>
</mgrwt>
</event>
<event>
 4    1  0.1043382E-007  0.6764728E+03  0.7818608E-02  0.1011394E+00
          1   -1    0    0  501    0  0.00000000000E+00  0.00000000000E+00  0.66464778383E+03  0.66464778385E+03  0.50400000000E-02 0. -1.
         -1   -1    0    0    0  501 -0.00000000000E+00 -0.00000000000E+00 -0.69970166391E+03  0.69970166393E+03  0.50400000000E-02 0.  1.
    8880023    1    1    2    0    0 -0.14870964747E+03 -0.41117464595E+02 -0.50661755029E+03  0.84514895354E+03  0.65864270000E+03 0.  1.
    8880022    1    1    2    0    0  0.14870964747E+03  0.41117464595E+02  0.47156367021E+03  0.51920049424E+03  0.15294330000E+03 0.  0.
<mgrwt>
<rscale>  0 0.50924512E+03</rscale>
<asrwt>0</asrwt>
<pdfrwt beam="1">  1        1 0.10225351E+00 0.67647277E+03</pdfrwt>
<pdfrwt beam="2">  1       -1 0.10764641E+00 0.67647277E+03</pdfrwt>
<totfact> 0.24473113E+01</totfact>
</mgrwt>
</event>
<event>
 4    1  0.1277608E-007  0.6633121E+03  0.7818608E-02  0.1020994E+00
         -1   -1    0    0    0  501 -0.00000000000E+00  0.00000000000E+00  0.21254929659E+04  0.21254929659E+04  0.50400000000E-02 0.  1.
          1   -1    0    0  501    0  0.00000000000E+00 -0.00000000000E+00 -0.92189376790E+03  0.92189376791E+03  0.50400000000E-02 0. -1.
    8880023    1    1    2    0    0  0.10591158466E+02 -0.77849814483E+02  0.20650384234E+04  0.21689552007E+04  0.65864270000E+03 0.  1.
    8880022    1    1    2    0    0 -0.10591158466E+02  0.77849814483E+02 -0.86143922542E+03  0.87843153311E+03  0.15294330000E+03 0.  0.
<mgrwt>
<rscale>  0 0.47329795E+03</rscale>
<asrwt>0</asrwt>
<pdfrwt beam="1">  1        1 0.14182981E+00 0.66331212E+03</pdfrwt>
<pdfrwt beam="2">  1       -1 0.32699892E+00 0.66331212E+03</pdfrwt>
<totfact> 0.41887825E-01</totfact>
</mgrwt>
</event>
<event>
 4    1  0.1043382E-007  0.6891767E+03  0.7818608E-02  0.1004546E+00
         -1   -1    0    0    0  501 -0.00000000000E+00  0.00000000000E+00  0.13948121074E+04  0.13948121074E+04  0.50400000000E-02 0.  1.
          1   -1    0    0  501    0  0.00000000000E+00 -0.00000000000E+00 -0.86547433849E+03  0.86547433851E+03  0.50400000000E-02 0. -1.
    8880023    1    1    2    0    0 -0.18361591971E+03  0.86252907473E+02  0.12876855328E+04  0.14605131317E+04  0.65864270000E+03 0.  1.
    8880022    1    1    2    0    0  0.18361591971E+03 -0.86252907473E+02 -0.75834776396E+03  0.79977331422E+03  0.15294330000E+03 0.  0.
<mgrwt>
<rscale>  0 0.53700910E+03</rscale>
<asrwt>0</asrwt>
<pdfrwt beam="1">  1        1 0.13314990E+00 0.68917674E+03</pdfrwt>
<pdfrwt beam="2">  1       -1 0.21458648E+00 0.68917674E+03</pdfrwt>
<totfact> 0.24516895E+00</totfact>
</mgrwt>
</event>
<event>
 4    1  0.1043382E-007  0.7167099E+03  0.7818608E-02  0.9933880E-01
          1   -1    0    0  501    0  0.00000000000E+00  0.00000000000E+00  0.11523721095E+04  0.11523721095E+04  0.50400000000E-02 0. -1.
         -1   -1    0    0    0  501 -0.00000000000E+00 -0.00000000000E+00 -0.32662944080E+03  0.32662944084E+03  0.50400000000E-02 0.  1.
    8880023    1    1    2    0    0 -0.32830103208E+02 -0.28068664516E+03  0.15213880928E+03  0.73267948791E+03  0.65864270000E+03 0.  1.
    8880022    1    1    2    0    0  0.32830103208E+02  0.28068664516E+03  0.67360385938E+03  0.74632206240E+03  0.15294330000E+03 0.  0.
<mgrwt>
<rscale>  0 0.58647045E+03</rscale>
<asrwt>0</asrwt>
<pdfrwt beam="1">  1        1 0.17728802E+00 0.71670985E+03</pdfrwt>
<pdfrwt beam="2">  1       -1 0.50250683E-01 0.71670985E+03</pdfrwt>
<totfact> 0.47402200E+01</totfact>
</mgrwt>
</event>
<event>
 4    1  0.1043382E-007  0.6963049E+03  0.7818608E-02  0.1001289E+00
          1   -1    0    0  501    0  0.00000000000E+00  0.00000000000E+00  0.11111651761E+04  0.11111651761E+04  0.50400000000E-02 0. -1.
         -1   -1    0    0    0  501 -0.00000000000E+00 -0.00000000000E+00 -0.62725596059E+03  0.62725596061E+03  0.50400000000E-02 0.  1.
    8880023    1    1    2    0    0 -0.27257792874E+02 -0.22424840965E+03 -0.40710326497E+03  0.80658143489E+03  0.65864270000E+03 0.  1.
    8880022    1    1    2    0    0  0.27257792874E+02  0.22424840965E+03  0.89101248047E+03  0.93183970182E+03  0.15294330000E+03 0.  0.
<mgrwt>
<rscale>  0 0.55088666E+03</rscale>
<asrwt>0</asrwt>
<pdfrwt beam="1">  1        1 0.17094849E+00 0.69630492E+03</pdfrwt>
<pdfrwt beam="2">  1       -1 0.96500919E-01 0.69630492E+03</pdfrwt>
<totfact> 0.13367142E+01</totfact>
</mgrwt>
</event>
<event>
 4    1  0.1043382E-007  0.8260548E+03  0.7818608E-02  0.9657058E-01
         -1   -1    0    0    0  501 -0.00000000000E+00  0.00000000000E+00  0.13398756072E+04  0.13398756072E+04  0.50400000000E-02 0.  1.
          1   -1    0    0  501    0  0.00000000000E+00 -0.00000000000E+00 -0.13069150128E+04  0.13069150128E+04  0.50400000000E-02 0. -1.
    8880023    1    1    2    0    0  0.34662082456E+03 -0.35834389189E+03  0.11488861121E+04  0.14150285671E+04  0.65864270000E+03 0.  1.
    8880022    1    1    2    0    0 -0.34662082456E+03  0.35834389189E+03 -0.11159255178E+04  0.12317620529E+04  0.15294330000E+03 0.  0.
<mgrwt>
<rscale>  0 0.73632133E+03</rscale>
<asrwt>0</asrwt>
<pdfrwt beam="1">  1        1 0.20106385E+00 0.82605481E+03</pdfrwt>
<pdfrwt beam="2">  1       -1 0.20613471E+00 0.82605481E+03</pdfrwt>
<totfact> 0.12638990E+00</totfact>
</mgrwt>
</event>
<event>
 4    1  0.1043382E-007  0.7655511E+03  0.7818608E-02  0.9790943E-01
          1   -1    0    0  501    0  0.00000000000E+00  0.00000000000E+00  0.51611576645E+03  0.51611576648E+03  0.50400000000E-02 0. -1.
         -1   -1    0    0    0  501 -0.00000000000E+00 -0.00000000000E+00 -0.10144569654E+04  0.10144569654E+04  0.50400000000E-02 0.  1.
    8880023    1    1    2    0    0  0.19888208196E+03 -0.33571442425E+03 -0.72477086314E+03  0.10542112063E+04  0.65864270000E+03 0.  1.
    8880022    1    1    2    0    0 -0.19888208196E+03  0.33571442425E+03  0.22642966423E+03  0.47636152556E+03  0.15294330000E+03 0.  0.
<mgrwt>
<rscale>  0 0.65850886E+03</rscale>
<asrwt>0</asrwt>
<pdfrwt beam="1">  1        1 0.79402426E-01 0.76555108E+03</pdfrwt>
<pdfrwt beam="2">  1       -1 0.15607030E+00 0.76555108E+03</pdfrwt>
<totfact> 0.13633738E+01</totfact>
</mgrwt>
</event>
<event>
 4    1  0.1043382E-007  0.8091287E+03  0.7818608E-02  0.9691395E-01
          1   -1    0    0  501    0  0.00000000000E+00  0.00000000000E+00  0.15966628080E+04  0.15966628080E+04  0.50400000000E-02 0. -1.
         -1   -1    0    0    0  501 -0.00000000000E+00 -0.00000000000E+00 -0.27089102574E+03  0.27089102579E+03  0.50400000000E-02 0.  1.
    8880023    1    1    2    0    0 -0.36085629742E+03  0.30110100738E+03  0.94212847757E+03  0.12418918466E+04  0.65864270000E+03 0.  0.
    8880022    1    1    2    0    0  0.36085629742E+03 -0.30110100738E+03  0.38364330472E+03  0.62566198726E+03  0.15294330000E+03 0. -1.
<mgrwt>
<rscale>  0 0.71531469E+03</rscale>
<asrwt>0</asrwt>
<pdfrwt beam="1">  1        1 0.24564043E+00 0.80912872E+03</pdfrwt>
<pdfrwt beam="2">  1       -1 0.41675543E-01 0.80912872E+03</pdfrwt>
<totfact> 0.32481546E+01</totfact>
</mgrwt>
</event>
<event>
 4    1  0.1043382E-007  0.6801127E+03  0.7818608E-02  0.1009260E+00
         -1   -1    0    0    0  501 -0.00000000000E+00  0.00000000000E+00  0.60921599837E+03  0.60921599840E+03  0.50400000000E-02 0.  1.
          1   -1    0    0  501    0  0.00000000000E+00 -0.00000000000E+00 -0.88289617356E+03  0.88289617358E+03  0.50400000000E-02 0. -1.
    8880023    1    1    2    0    0  0.68209696088E+02 -0.15521114788E+03  0.39432729837E+03  0.78615983589E+03  0.65864270000E+03 0.  1.
    8880022    1    1    2    0    0 -0.68209696088E+02  0.15521114788E+03 -0.66800747356E+03  0.70595233608E+03  0.15294330000E+03 0.  0.
<mgrwt>
<rscale>  0 0.51769806E+03</rscale>
<asrwt>0</asrwt>
<pdfrwt beam="1">  1        1 0.13583018E+00 0.68011269E+03</pdfrwt>
<pdfrwt beam="2">  1       -1 0.93725538E-01 0.68011269E+03</pdfrwt>
<totfact> 0.21507387E+01</totfact>
</mgrwt>
</event>
<event>
 4    1  0.1043382E-007  0.6622612E+03  0.7818608E-02  0.1021951E+00
          1   -1    0    0  501    0  0.00000000000E+00  0.00000000000E+00  0.64439827854E+03  0.64439827856E+03  0.50400000000E-02 0. -1.
         -1   -1    0    0    0  501 -0.00000000000E+00 -0.00000000000E+00 -0.42194058197E+03  0.42194058200E+03  0.50400000000E-02 0.  1.
    8880023    1    1    2    0    0  0.34950147819E+01 -0.69047003459E+02 -0.13096438768E+03  0.67508635071E+03  0.65864270000E+03 0.  1.
    8880022    1    1    2    0    0 -0.34950147819E+01  0.69047003459E+02  0.35342208424E+03  0.39125250985E+03  0.15294330000E+03 0.  0.
<mgrwt>
<rscale>  0 0.46989190E+03</rscale>
<asrwt>0</asrwt>
<pdfrwt beam="1">  1        1 0.99138196E-01 0.66226121E+03</pdfrwt>
<pdfrwt beam="2">  1       -1 0.64913936E-01 0.66226121E+03</pdfrwt>
<totfact> 0.76251649E+01</totfact>
</mgrwt>
</event>
<event>
 4    1  0.1043382E-007  0.7207516E+03  0.7818608E-02  0.9920051E-01
         -1   -1    0    0    0  501 -0.00000000000E+00  0.00000000000E+00  0.14148264275E+03  0.14148264284E+03  0.50400000000E-02 0.  1.
          1   -1    0    0  501    0  0.00000000000E+00 -0.00000000000E+00 -0.20941386353E+04  0.20941386353E+04  0.50400000000E-02 0. -1.
    8880023    1    1    2    0    0 -0.25789905633E+03 -0.13842229486E+03 -0.10424356886E+04  0.12673417164E+04  0.65864270000E+03 0.  1.
    8880022    1    1    2    0    0  0.25789905633E+03  0.13842229486E+03 -0.91022030397E+03  0.96827956177E+03  0.15294330000E+03 0. -1.
<mgrwt>
<rscale>  0 0.59299296E+03</rscale>
<asrwt>0</asrwt>
<pdfrwt beam="1">  1        1 0.32217515E+00 0.72075159E+03</pdfrwt>
<pdfrwt beam="2">  1       -1 0.21766562E-01 0.72075159E+03</pdfrwt>
<totfact> 0.47389083E+01</totfact>
</mgrwt>
</event>
<event>
 4    1  0.1043382E-007  0.1000182E+04  0.7818608E-02  0.9381320E-01
          1   -1    0    0  501    0  0.00000000000E+00  0.00000000000E+00  0.13401929520E+04  0.13401929520E+04  0.50400000000E-02 0. -1.
         -1   -1    0    0    0  501 -0.00000000000E+00 -0.00000000000E+00 -0.84081653743E+03  0.84081653745E+03  0.50400000000E-02 0.  1.
    8880023    1    1    2    0    0  0.51163738752E+03  0.55206930948E+03 -0.32750440940E+03  0.10524365459E+04  0.65864270000E+03 0.  0.
    8880022    1    1    2    0    0 -0.51163738752E+03 -0.55206930948E+03  0.82688082394E+03  0.11285729435E+04  0.15294330000E+03 0.  0.
<mgrwt>
<rscale>  0 0.93629054E+03</rscale>
<asrwt>0</asrwt>
<pdfrwt beam="1">  1        1 0.20618353E+00 0.10001818E+04</pdfrwt>
<pdfrwt beam="2">  1       -1 0.12935639E+00 0.10001818E+04</pdfrwt>
<totfact> 0.43667431E+00</totfact>
</mgrwt>
</event>
<event>
 4    1  0.1043382E-007  0.6809202E+03  0.7818608E-02  0.1008808E+00
          1   -1    0    0  501    0  0.00000000000E+00  0.00000000000E+00  0.61287971493E+03  0.61287971495E+03  0.50400000000E-02 0. -1.
         -1   -1    0    0    0  501 -0.00000000000E+00 -0.00000000000E+00 -0.75408293654E+03  0.75408293656E+03  0.50400000000E-02 0.  1.
    8880023    1    1    2    0    0  0.12009481776E+03  0.12417459974E+03 -0.56475392078E+03  0.88464642303E+03  0.65864270000E+03 0.  1.
    8880022    1    1    2    0    0 -0.12009481776E+03 -0.12417459974E+03  0.42355069917E+03  0.48231622848E+03  0.15294330000E+03 0.  0.
<mgrwt>
<rscale>  0 0.51951195E+03</rscale>
<asrwt>0</asrwt>
<pdfrwt beam="1">  1        1 0.94289187E-01 0.68092019E+03</pdfrwt>
<pdfrwt beam="2">  1       -1 0.11601276E+00 0.68092019E+03</pdfrwt>
<totfact> 0.23071093E+01</totfact>
</mgrwt>
</event>
<event>
 4    1  0.1043382E-007  0.7415045E+03  0.7818608E-02  0.9855586E-01
          1   -1    0    0  501    0  0.00000000000E+00  0.00000000000E+00  0.14504143474E+04  0.14504143474E+04  0.50400000000E-02 0. -1.
         -1   -1    0    0    0  501 -0.00000000000E+00 -0.00000000000E+00 -0.22429405960E+03  0.22429405966E+03  0.50400000000E-02 0.  1.
    8880023    1    1    2    0    0  0.15277919601E+03 -0.30442947576E+03  0.63863788959E+03  0.97861501559E+03  0.65864270000E+03 0.  0.
    8880022    1    1    2    0    0 -0.15277919601E+03  0.30442947576E+03  0.58748239819E+03  0.69609339147E+03  0.15294330000E+03 0.  0.
<mgrwt>
<rscale>  0 0.62462919E+03</rscale>
<asrwt>0</asrwt>
<pdfrwt beam="1">  1        1 0.22314067E+00 0.74150455E+03</pdfrwt>
<pdfrwt beam="2">  1       -1 0.34506778E-01 0.74150455E+03</pdfrwt>
<totfact> 0.57913949E+01</totfact>
</mgrwt>
</event>
<event>
 4    1  0.1043382E-007  0.6908325E+03  0.7818608E-02  0.1003759E+00
          1   -1    0    0  501    0  0.00000000000E+00  0.00000000000E+00  0.97953949085E+03  0.97953949086E+03  0.50400000000E-02 0. -1.
         -1   -1    0    0    0  501 -0.00000000000E+00 -0.00000000000E+00 -0.55913990958E+03  0.55913990960E+03  0.50400000000E-02 0.  1.
    8880023    1    1    2    0    0 -0.20768052944E+03 -0.17555276994E+02 -0.31493019609E+03  0.75923028439E+03  0.65864270000E+03 0.  1.
    8880022    1    1    2    0    0  0.20768052944E+03  0.17555276994E+02  0.73532977736E+03  0.77944911607E+03  0.15294330000E+03 0.  0.
<mgrwt>
<rscale>  0 0.54032103E+03</rscale>
<asrwt>0</asrwt>
<pdfrwt beam="1">  1        1 0.15069838E+00 0.69083254E+03</pdfrwt>
<pdfrwt beam="2">  1       -1 0.86021525E-01 0.69083254E+03</pdfrwt>
<totfact> 0.21702702E+01</totfact>
</mgrwt>
</event>
<event>
 4    1  0.1043382E-007  0.7325983E+03  0.7818608E-02  0.9882057E-01
         -1   -1    0    0    0  501 -0.00000000000E+00  0.00000000000E+00  0.56601343050E+03  0.56601343052E+03  0.50400000000E-02 0.  1.
          1   -1    0    0  501    0  0.00000000000E+00 -0.00000000000E+00 -0.67755321909E+03  0.67755321911E+03  0.50400000000E-02 0. -1.
    8880023    1    1    2    0    0 -0.23860345200E+03 -0.21437909300E+03  0.21234469259E+03  0.76275191089E+03  0.65864270000E+03 0.  1.
    8880022    1    1    2    0    0  0.23860345200E+03  0.21437909300E+03 -0.32388448119E+03  0.48081473874E+03  0.15294330000E+03 0.  0.
<mgrwt>
<rscale>  0 0.61138805E+03</rscale>
<asrwt>0</asrwt>
<pdfrwt beam="1">  1        1 0.10423896E+00 0.73259826E+03</pdfrwt>
<pdfrwt beam="2">  1       -1 0.87078989E-01 0.73259826E+03</pdfrwt>
<totfact> 0.38118218E+01</totfact>
</mgrwt>
</event>
<event>
 4    1  0.1043382E-007  0.6792841E+03  0.7818608E-02  0.1009732E+00
         -1   -1    0    0    0  501 -0.00000000000E+00  0.00000000000E+00  0.27861791961E+03  0.27861791965E+03  0.50400000000E-02 0.  1.
          1   -1    0    0  501    0  0.00000000000E+00 -0.00000000000E+00 -0.12100189616E+04  0.12100189616E+04  0.50400000000E-02 0. -1.
    8880023    1    1    2    0    0  0.91746265956E+02  0.13856133940E+03 -0.17815123653E+03  0.70225685574E+03  0.65864270000E+03 0.  1.
    8880022    1    1    2    0    0 -0.91746265956E+02 -0.13856133940E+03 -0.75324980546E+03  0.78638002551E+03  0.15294330000E+03 0.  0.
<mgrwt>
<rscale>  0 0.51581462E+03</rscale>
<asrwt>0</asrwt>
<pdfrwt beam="1">  1        1 0.18615676E+00 0.67928406E+03</pdfrwt>
<pdfrwt beam="2">  1       -1 0.42864296E-01 0.67928406E+03</pdfrwt>
<totfact> 0.58143716E+01</totfact>
</mgrwt>
</event>
<event>
 4    1  0.1043382E-007  0.6622667E+03  0.7818608E-02  0.1021946E+00
          1   -1    0    0  501    0  0.00000000000E+00  0.00000000000E+00  0.41985090927E+03  0.41985090930E+03  0.50400000000E-02 0. -1.
         -1   -1    0    0    0  501 -0.00000000000E+00 -0.00000000000E+00 -0.48642075483E+03  0.48642075485E+03  0.50400000000E-02 0.  1.
    8880023    1    1    2    0    0  0.63481236622E+02  0.27516687947E+02 -0.20003248744E+03  0.69181662152E+03  0.65864270000E+03 0.  1.
    8880022    1    1    2    0    0 -0.63481236622E+02 -0.27516687947E+02  0.13346264188E+03  0.21445504264E+03  0.15294330000E+03 0.  0.
<mgrwt>
<rscale>  0 0.46991013E+03</rscale>
<asrwt>0</asrwt>
<pdfrwt beam="1">  1        1 0.64592447E-01 0.66226675E+03</pdfrwt>
<pdfrwt beam="2">  1       -1 0.74833963E-01 0.66226675E+03</pdfrwt>
<totfact> 0.10336032E+02</totfact>
</mgrwt>
</event>
<event>
 4    1  0.1043382E-007  0.7392298E+03  0.7818608E-02  0.9862196E-01
          1   -1    0    0  501    0  0.00000000000E+00  0.00000000000E+00  0.19107498425E+03  0.19107498431E+03  0.50400000000E-02 0. -1.
         -1   -1    0    0    0  501 -0.00000000000E+00 -0.00000000000E+00 -0.16247060063E+04  0.16247060063E+04  0.50400000000E-02 0.  1.
    8880023    1    1    2    0    0  0.30078627582E+03 -0.14892330809E+03 -0.10444767947E+04  0.12796063912E+04  0.65864270000E+03 0.  1.
    8880022    1    1    2    0    0 -0.30078627582E+03  0.14892330809E+03 -0.38915422741E+03  0.53617459949E+03  0.15294330000E+03 0. -1.
<mgrwt>
<rscale>  0 0.62128921E+03</rscale>
<asrwt>0</asrwt>
<pdfrwt beam="1">  1        1 0.29396152E-01 0.73922983E+03</pdfrwt>
<pdfrwt beam="2">  1       -1 0.24995476E+00 0.73922983E+03</pdfrwt>
<totfact> 0.11404510E+01</totfact>
</mgrwt>
</event>
<event>
 4    1  0.1043382E-007  0.9913499E+03  0.7818608E-02  0.9392963E-01
          1   -1    0    0  501    0  0.00000000000E+00  0.00000000000E+00  0.95418372852E+03  0.95418372853E+03  0.50400000000E-02 0. -1.
         -1   -1    0    0    0  501 -0.00000000000E+00 -0.00000000000E+00 -0.93494105394E+03  0.93494105396E+03  0.50400000000E-02 0.  1.
    8880023    1    1    2    0    0  0.68763184108E+03 -0.27591093941E+03  0.36619142184E+03  0.10568210629E+04  0.65864270000E+03 0. -1.
    8880022    1    1    2    0    0 -0.68763184108E+03  0.27591093941E+03 -0.34694874727E+03  0.83230371956E+03  0.15294330000E+03 0.  0.
<mgrwt>
<rscale>  0 0.92657058E+03</rscale>
<asrwt>0</asrwt>
<pdfrwt beam="1">  1        1 0.14679750E+00 0.99134989E+03</pdfrwt>
<pdfrwt beam="2">  1       -1 0.14383709E+00 0.99134989E+03</pdfrwt>
<totfact> 0.64418028E+00</totfact>
</mgrwt>
</event>
<event>
 4    1  0.1043382E-007  0.1116801E+04  0.7818608E-02  0.9242577E-01
         -1   -1    0    0    0  501 -0.00000000000E+00  0.00000000000E+00  0.63059881492E+03  0.63059881494E+03  0.50400000000E-02 0.  1.
          1   -1    0    0  501    0  0.00000000000E+00 -0.00000000000E+00 -0.16922091997E+04  0.16922091997E+04  0.50400000000E-02 0. -1.
    8880023    1    1    2    0    0  0.44909017230E+02  0.90078705843E+03 -0.37170053068E+03  0.11770325549E+04  0.65864270000E+03 0.  1.
    8880022    1    1    2    0    0 -0.44909017230E+02 -0.90078705843E+03 -0.68990985412E+03  0.11457754598E+04  0.15294330000E+03 0. -1.
<mgrwt>
<rscale>  0 0.10624566E+04</rscale>
<asrwt>0</asrwt>
<pdfrwt beam="1">  1        1 0.26033988E+00 0.11168009E+04</pdfrwt>
<pdfrwt beam="2">  1       -1 0.97015203E-01 0.11168009E+04</pdfrwt>
<totfact> 0.48965502E+00</totfact>
</mgrwt>
</event>
<event>
 4    1  0.1043382E-007  0.8677968E+03  0.7818608E-02  0.9579842E-01
          1   -1    0    0  501    0  0.00000000000E+00  0.00000000000E+00  0.34880422298E+04  0.34880422298E+04  0.50400000000E-02 0. -1.
         -1   -1    0    0    0  501 -0.00000000000E+00 -0.00000000000E+00 -0.23308043614E+03  0.23308043619E+03  0.50400000000E-02 0.  1.
    8880023    1    1    2    0    0  0.47684836157E+03  0.30311159401E+03  0.74473421115E+03  0.11435472224E+04  0.65864270000E+03 0.  1.
    8880022    1    1    2    0    0 -0.47684836157E+03 -0.30311159401E+03  0.25102275825E+04  0.25775754436E+04  0.15294330000E+03 0.  0.
<mgrwt>
<rscale>  0 0.78644848E+03</rscale>
<asrwt>0</asrwt>
<pdfrwt beam="1">  1        1 0.53662192E+00 0.86779675E+03</pdfrwt>
<pdfrwt beam="2">  1       -1 0.35858526E-01 0.86779675E+03</pdfrwt>
<totfact> 0.20125393E+00</totfact>
</mgrwt>
</event>
<event>
 4    1  0.1043382E-007  0.8602968E+03  0.7818608E-02  0.9593036E-01
         -1   -1    0    0    0  501 -0.00000000000E+00  0.00000000000E+00  0.16459681300E+04  0.16459681300E+04  0.50400000000E-02 0.  1.
          1   -1    0    0  501    0  0.00000000000E+00 -0.00000000000E+00 -0.62243340844E+03  0.62243340846E+03  0.50400000000E-02 0. -1.
    8880023    1    1    2    0    0  0.40944782104E+01  0.55342895999E+03  0.13552774006E+04  0.16052686433E+04  0.65864270000E+03 0.  1.
    8880022    1    1    2    0    0 -0.40944782104E+01 -0.55342895999E+03 -0.33174267901E+03  0.66313289513E+03  0.15294330000E+03 0.  0.
<mgrwt>
<rscale>  0 0.77758842E+03</rscale>
<asrwt>0</asrwt>
<pdfrwt beam="1">  1        1 0.95758987E-01 0.86029680E+03</pdfrwt>
<pdfrwt beam="2">  1       -1 0.25322586E+00 0.86029680E+03</pdfrwt>
<totfact> 0.22157811E+00</totfact>
</mgrwt>
</event>
<event>
 4    1  0.1043382E-007  0.6601353E+03  0.7818608E-02  0.1024018E+00
         -1   -1    0    0    0  501 -0.00000000000E+00  0.00000000000E+00  0.18522821941E+03  0.18522821947E+03  0.50400000000E-02 0.  1.
          1   -1    0    0  501    0  0.00000000000E+00 -0.00000000000E+00 -0.93631003266E+03  0.93631003268E+03  0.50400000000E-02 0. -1.
    8880023    1    1    2    0    0  0.37528812742E+02 -0.23664562990E+02 -0.51732633199E+03  0.83869253208E+03  0.65864270000E+03 0.  1.
    8880022    1    1    2    0    0 -0.37528812742E+02  0.23664562990E+02 -0.23375548127E+03  0.28284572008E+03  0.15294330000E+03 0.  1.
<mgrwt>
<rscale>  0 0.46264039E+03</rscale>
<asrwt>0</asrwt>
<pdfrwt beam="1">  1        1 0.14404769E+00 0.66013531E+03</pdfrwt>
<pdfrwt beam="2">  1       -1 0.28496650E-01 0.66013531E+03</pdfrwt>
<totfact> 0.19355626E+02</totfact>
</mgrwt>
</event>
<event>
 4    1  0.1043382E-007  0.1103680E+04  0.7818608E-02  0.9256970E-01
          1   -1    0    0  501    0  0.00000000000E+00  0.00000000000E+00  0.18859355165E+04  0.18859355165E+04  0.50400000000E-02 0. -1.
         -1   -1    0    0    0  501 -0.00000000000E+00 -0.00000000000E+00 -0.14126629616E+04  0.14126629616E+04  0.50400000000E-02 0.  1.
    8880023    1    1    2    0    0  0.72727651197E+03  0.50533961841E+03  0.15457624169E+04  0.18993395986E+04  0.65864270000E+03 0.  0.
    8880022    1    1    2    0    0 -0.72727651197E+03 -0.50533961841E+03 -0.10724898621E+04  0.13992588796E+04  0.15294330000E+03 0.  0.
<mgrwt>
<rscale>  0 0.10484266E+04</rscale>
<asrwt>0</asrwt>
<pdfrwt beam="1">  1        1 0.29014392E+00 0.11036800E+04</pdfrwt>
<pdfrwt beam="2">  1       -1 0.21733276E+00 0.11036800E+04</pdfrwt>
<totfact> 0.40656504E-01</totfact>
</mgrwt>
</event>
<event>
 4    1  0.1043382E-007  0.1236369E+04  0.7818608E-02  0.9122555E-01
          1   -1    0    0  501    0  0.00000000000E+00  0.00000000000E+00  0.30657686475E+04  0.30657686475E+04  0.50400000000E-02 0. -1.
         -1   -1    0    0    0  501 -0.00000000000E+00 -0.00000000000E+00 -0.51453683878E+03  0.51453683881E+03  0.50400000000E-02 0.  1.
    8880023    1    1    2    0    0  0.10460752649E+04  0.22904393213E+02  0.20863745740E+04  0.24251942480E+04  0.65864270000E+03 0.  0.
    8880022    1    1    2    0    0 -0.10460752649E+04 -0.22904393213E+02  0.46485723466E+03  0.11551112383E+04  0.15294330000E+03 0.  0.
<mgrwt>
<rscale>  0 0.11889826E+04</rscale>
<asrwt>0</asrwt>
<pdfrwt beam="1">  1        1 0.47165671E+00 0.12363690E+04</pdfrwt>
<pdfrwt beam="2">  1       -1 0.79159515E-01 0.12363690E+04</pdfrwt>
<totfact> 0.84827774E-01</totfact>
</mgrwt>
</event>
<event>
 4    1  0.1043382E-007  0.7532707E+03  0.7818608E-02  0.9822851E-01
          1   -1    0    0  501    0  0.00000000000E+00  0.00000000000E+00  0.73423900997E+03  0.73423900999E+03  0.50400000000E-02 0. -1.
         -1   -1    0    0    0  501 -0.00000000000E+00 -0.00000000000E+00 -0.87265864186E+03  0.87265864187E+03  0.50400000000E-02 0.  1.
    8880023    1    1    2    0    0  0.36549258223E+03  0.46673253263E+01 -0.62542396167E+03  0.97906687702E+03  0.65864270000E+03 0.  0.
    8880022    1    1    2    0    0 -0.36549258223E+03 -0.46673253263E+01  0.48700432978E+03  0.62783077484E+03  0.15294330000E+03 0.  0.
<mgrwt>
<rscale>  0 0.64150520E+03</rscale>
<asrwt>0</asrwt>
<pdfrwt beam="1">  1        1 0.11295985E+00 0.75327075E+03</pdfrwt>
<pdfrwt beam="2">  1       -1 0.13425518E+00 0.75327075E+03</pdfrwt>
<totfact> 0.12174708E+01</totfact>
</mgrwt>
</event>
<event>
 4    1  0.1043382E-007  0.9196227E+03  0.7818608E-02  0.9495238E-01
          1   -1    0    0  501    0  0.00000000000E+00  0.00000000000E+00  0.16446463031E+04  0.16446463031E+04  0.50400000000E-02 0. -1.
         -1   -1    0    0    0  501 -0.00000000000E+00 -0.00000000000E+00 -0.47941607169E+03  0.47941607172E+03  0.50400000000E-02 0.  1.
    8880023    1    1    2    0    0  0.32073168066E+03  0.55590189799E+03  0.17803940353E+03  0.93669843954E+03  0.65864270000E+03 0.  0.
    8880022    1    1    2    0    0 -0.32073168066E+03 -0.55590189799E+03  0.98719082791E+03  0.11873639353E+04  0.15294330000E+03 0.  0.
<mgrwt>
<rscale>  0 0.84635834E+03</rscale>
<asrwt>0</asrwt>
<pdfrwt beam="1">  1        1 0.25302251E+00 0.91962271E+03</pdfrwt>
<pdfrwt beam="2">  1       -1 0.73756319E-01 0.91962271E+03</pdfrwt>
<totfact> 0.97894283E+00</totfact>
</mgrwt>
</event>
<event>
 4    1  0.1043382E-007  0.1257193E+04  0.7818608E-02  0.9103437E-01
         -1   -1    0    0    0  501 -0.00000000000E+00  0.00000000000E+00  0.10035027279E+04  0.10035027279E+04  0.50400000000E-02 0.  1.
          1   -1    0    0  501    0  0.00000000000E+00 -0.00000000000E+00 -0.13777966202E+04  0.13777966202E+04  0.50400000000E-02 0. -1.
    8880023    1    1    2    0    0  0.10127511338E+04  0.34793533689E+03 -0.77382676072E+02  0.12595722061E+04  0.65864270000E+03 0.  0.
    8880022    1    1    2    0    0 -0.10127511338E+04 -0.34793533689E+03 -0.29691121625E+03  0.11217271419E+04  0.15294330000E+03 0.  1.
<mgrwt>
<rscale>  0 0.12108213E+04</rscale>
<asrwt>0</asrwt>
<pdfrwt beam="1">  1        1 0.21196871E+00 0.12571929E+04</pdfrwt>
<pdfrwt beam="2">  1       -1 0.15438503E+00 0.12571929E+04</pdfrwt>
<totfact> 0.25048540E+00</totfact>
</mgrwt>
</event>
<event>
 4    1  0.1043382E-007  0.8517876E+03  0.7818608E-02  0.9608342E-01
         -1   -1    0    0    0  501 -0.00000000000E+00  0.00000000000E+00  0.68968017073E+03  0.68968017075E+03  0.50400000000E-02 0.  1.
          1   -1    0    0  501    0  0.00000000000E+00 -0.00000000000E+00 -0.31224550166E+04  0.31224550166E+04  0.50400000000E-02 0. -1.
    8880023    1    1    2    0    0  0.10083683262E+03 -0.53062594567E+03  0.38803606759E+03  0.93600969922E+03  0.65864270000E+03 0.  0.
    8880022    1    1    2    0    0 -0.10083683262E+03  0.53062594567E+03 -0.28208109135E+04  0.28761254882E+04  0.15294330000E+03 0.  0.
<mgrwt>
<rscale>  0 0.76746506E+03</rscale>
<asrwt>0</asrwt>
<pdfrwt beam="1">  1        1 0.48037769E+00 0.85178763E+03</pdfrwt>
<pdfrwt beam="2">  1       -1 0.10610464E+00 0.85178763E+03</pdfrwt>
<totfact> 0.42810711E-01</totfact>
</mgrwt>
</event>
<event>
 4    1  0.1043382E-007  0.6661322E+03  0.7818608E-02  0.1018602E+00
          1   -1    0    0  501    0  0.00000000000E+00  0.00000000000E+00  0.40957695683E+03  0.40957695686E+03  0.50400000000E-02 0. -1.
         -1   -1    0    0    0  501 -0.00000000000E+00 -0.00000000000E+00 -0.60885223670E+03  0.60885223672E+03  0.50400000000E-02 0.  1.
    8880023    1    1    2    0    0  0.96949035251E+02 -0.22865771402E+02 -0.37553475796E+03  0.76469505009E+03  0.65864270000E+03 0.  1.
    8880022    1    1    2    0    0 -0.96949035251E+02  0.22865771402E+02  0.17625947809E+03  0.25373414349E+03  0.15294330000E+03 0.  0.
<mgrwt>
<rscale>  0 0.48194564E+03</rscale>
<asrwt>0</asrwt>
<pdfrwt beam="1">  1        1 0.63011839E-01 0.66613224E+03</pdfrwt>
<pdfrwt beam="2">  1       -1 0.93669575E-01 0.66613224E+03</pdfrwt>
<totfact> 0.65932808E+01</totfact>
</mgrwt>
</event>
<event>
 4    1  0.1043382E-007  0.6993974E+03  0.7818608E-02  0.9999710E-01
         -1   -1    0    0    0  501 -0.00000000000E+00  0.00000000000E+00  0.44990886685E+03  0.44990886687E+03  0.50400000000E-02 0.  1.
          1   -1    0    0  501    0  0.00000000000E+00 -0.00000000000E+00 -0.13862654692E+04  0.13862654692E+04  0.50400000000E-02 0. -1.
    8880023    1    1    2    0    0 -0.23146643806E+03  0.42069095056E+02  0.14903285089E+03  0.71509965572E+03  0.65864270000E+03 0.  1.
    8880022    1    1    2    0    0  0.23146643806E+03 -0.42069095056E+02 -0.10853894532E+04  0.11210746803E+04  0.15294330000E+03 0.  0.
<mgrwt>
<rscale>  0 0.55662945E+03</rscale>
<asrwt>0</asrwt>
<pdfrwt beam="1">  1        1 0.21327161E+00 0.69939740E+03</pdfrwt>
<pdfrwt beam="2">  1       -1 0.69216749E-01 0.69939740E+03</pdfrwt>
<totfact> 0.17273419E+01</totfact>
</mgrwt>
</event>
<event>
 4    1  0.1043382E-007  0.9107034E+03  0.7818608E-02  0.9509063E-01
         -1   -1    0    0    0  501 -0.00000000000E+00  0.00000000000E+00  0.58898732617E+03  0.58898732619E+03  0.50400000000E-02 0.  1.
          1   -1    0    0  501    0  0.00000000000E+00 -0.00000000000E+00 -0.21768006894E+04  0.21768006894E+04  0.50400000000E-02 0. -1.
    8880023    1    1    2    0    0  0.15060655020E+03 -0.61064561364E+03  0.13936745105E+03  0.92130553623E+03  0.65864270000E+03 0.  1.
    8880022    1    1    2    0    0 -0.15060655020E+03  0.61064561364E+03 -0.17271808143E+04  0.18444824794E+04  0.15294330000E+03 0.  0.
<mgrwt>
<rscale>  0 0.83618917E+03</rscale>
<asrwt>0</asrwt>
<pdfrwt beam="1">  1        1 0.33489241E+00 0.91070336E+03</pdfrwt>
<pdfrwt beam="2">  1       -1 0.90613436E-01 0.91070336E+03</pdfrwt>
<totfact> 0.27614884E+00</totfact>
</mgrwt>
</event>
<event>
 4    1  0.1043382E-007  0.7019038E+03  0.7818608E-02  0.9989393E-01
         -1   -1    0    0    0  501 -0.00000000000E+00  0.00000000000E+00  0.81941393947E+03  0.81941393949E+03  0.50400000000E-02 0.  1.
          1   -1    0    0  501    0  0.00000000000E+00 -0.00000000000E+00 -0.60051351894E+03  0.60051351896E+03  0.50400000000E-02 0. -1.
    8880023    1    1    2    0    0  0.10280744914E+03  0.21974856780E+03  0.61342335386E+03  0.93217875001E+03  0.65864270000E+03 0.  1.
    8880022    1    1    2    0    0 -0.10280744914E+03 -0.21974856780E+03 -0.39452293332E+03  0.48774870844E+03  0.15294330000E+03 0.  0.
<mgrwt>
<rscale>  0 0.56117783E+03</rscale>
<asrwt>0</asrwt>
<pdfrwt beam="1">  1        1 0.92386695E-01 0.70190385E+03</pdfrwt>
<pdfrwt beam="2">  1       -1 0.12606368E+00 0.70190385E+03</pdfrwt>
<totfact> 0.19347011E+01</totfact>
</mgrwt>
</event>
<event>
 4    1  0.1043382E-007  0.6864659E+03  0.7818608E-02  0.1005880E+00
         -1   -1    0    0    0  501 -0.00000000000E+00  0.00000000000E+00  0.49005758754E+03  0.49005758756E+03  0.50400000000E-02 0.  1.
          1   -1    0    0  501    0  0.00000000000E+00 -0.00000000000E+00 -0.65349605736E+03  0.65349605738E+03  0.50400000000E-02 0. -1.
    8880023    1    1    2    0    0  0.14778357446E+03 -0.12484060843E+03  0.19028364785E+03  0.71235050031E+03  0.65864270000E+03 0.  1.
    8880022    1    1    2    0    0 -0.14778357446E+03  0.12484060843E+03 -0.35372211767E+03  0.43120314463E+03  0.15294330000E+03 0.  0.
<mgrwt>
<rscale>  0 0.53145582E+03</rscale>
<asrwt>0</asrwt>
<pdfrwt beam="1">  1        1 0.10053786E+00 0.68646585E+03</pdfrwt>
<pdfrwt beam="2">  1       -1 0.75393475E-01 0.68646585E+03</pdfrwt>
<totfact> 0.54901588E+01</totfact>
</mgrwt>
</event>
<event>
 4    1  0.1043382E-007  0.8517784E+03  0.7818608E-02  0.9608359E-01
          1   -1    0    0  501    0  0.00000000000E+00  0.00000000000E+00  0.10729131615E+04  0.10729131615E+04  0.50400000000E-02 0. -1.
         -1   -1    0    0    0  501 -0.00000000000E+00 -0.00000000000E+00 -0.49544207418E+03  0.49544207420E+03  0.50400000000E-02 0.  1.
    8880023    1    1    2    0    0  0.48435624410E+03  0.23898796395E+03  0.53400618364E+03  0.10053303082E+04  0.65864270000E+03 0. -1.
    8880022    1    1    2    0    0 -0.48435624410E+03 -0.23898796395E+03  0.43464903637E+02  0.56302492749E+03  0.15294330000E+03 0.  1.
<mgrwt>
<rscale>  0 0.76745403E+03</rscale>
<asrwt>0</asrwt>
<pdfrwt beam="1">  1        1 0.16506356E+00 0.85177839E+03</pdfrwt>
<pdfrwt beam="2">  1       -1 0.76221858E-01 0.85177839E+03</pdfrwt>
<totfact> 0.23372648E+01</totfact>
</mgrwt>
</event>
<event>
 4    1  0.1212777E-007  0.7787212E+03  0.7818608E-02  0.9758850E-01
         -1   -1    0    0    0  501 -0.00000000000E+00  0.00000000000E+00  0.19238766078E+04  0.19238766078E+04  0.50400000000E-02 0.  1.
          1   -1    0    0  501    0  0.00000000000E+00 -0.00000000000E+00 -0.11445875147E+04  0.11445875147E+04  0.50400000000E-02 0. -1.
    8880023    1    1    2    0    0  0.39952629424E+01  0.41542806552E+03  0.17970877098E+04  0.19585532626E+04  0.65864270000E+03 0.  0.
    8880022    1    1    2    0    0 -0.39952629424E+01 -0.41542806552E+03 -0.10177986167E+04  0.11099108599E+04  0.15294330000E+03 0.  0.
<mgrwt>
<rscale>  0 0.67618447E+03</rscale>
<asrwt>0</asrwt>
<pdfrwt beam="1">  1        1 0.17609039E+00 0.77872116E+03</pdfrwt>
<pdfrwt beam="2">  1       -1 0.29598101E+00 0.77872116E+03</pdfrwt>
<totfact> 0.43530127E-01</totfact>
</mgrwt>
</event>
<event>
 4    1  0.1043382E-007  0.7144698E+03  0.7818608E-02  0.9941763E-01
         -1   -1    0    0    0  501 -0.00000000000E+00  0.00000000000E+00  0.10653233878E+03  0.10653233890E+03  0.50400000000E-02 0.  1.
          1   -1    0    0  501    0  0.00000000000E+00 -0.00000000000E+00 -0.25197308434E+04  0.25197308434E+04  0.50400000000E-02 0. -1.
    8880023    1    1    2    0    0 -0.15693307753E+03 -0.22809832524E+03 -0.15437901679E+04  0.17011040901E+04  0.65864270000E+03 0.  0.
    8880022    1    1    2    0    0  0.15693307753E+03  0.22809832524E+03 -0.86940833674E+03  0.92515909216E+03  0.15294330000E+03 0.  1.
<mgrwt>
<rscale>  0 0.58279284E+03</rscale>
<asrwt>0</asrwt>
<pdfrwt beam="1">  1        1 0.38765085E+00 0.71446976E+03</pdfrwt>
<pdfrwt beam="2">  1       -1 0.16389593E-01 0.71446976E+03</pdfrwt>
<totfact> 0.39188801E+01</totfact>
</mgrwt>
</event>
<event>
 4    1  0.1043382E-007  0.7606760E+03  0.7818608E-02  0.9803361E-01
         -1   -1    0    0    0  501 -0.00000000000E+00  0.00000000000E+00  0.70593054008E+03  0.70593054010E+03  0.50400000000E-02 0.  1.
          1   -1    0    0  501    0  0.00000000000E+00 -0.00000000000E+00 -0.72938360873E+03  0.72938360874E+03  0.50400000000E-02 0. -1.
    8880023    1    1    2    0    0 -0.36216904016E+03  0.11683906484E+03  0.38838550909E+03  0.85409091475E+03  0.65864270000E+03 0.  1.
    8880022    1    1    2    0    0  0.36216904016E+03 -0.11683906484E+03 -0.41183857774E+03  0.58122323409E+03  0.15294330000E+03 0.  0.
<mgrwt>
<rscale>  0 0.65182510E+03</rscale>
<asrwt>0</asrwt>
<pdfrwt beam="1">  1        1 0.11221286E+00 0.76067601E+03</pdfrwt>
<pdfrwt beam="2">  1       -1 0.10860470E+00 0.76067601E+03</pdfrwt>
<totfact> 0.20635543E+01</totfact>
</mgrwt>
</event>
<event>
 4    1  0.1043382E-007  0.7220967E+03  0.7818608E-02  0.9915554E-01
          1   -1    0    0  501    0  0.00000000000E+00  0.00000000000E+00  0.11799161598E+04  0.11799161598E+04  0.50400000000E-02 0. -1.
         -1   -1    0    0    0  501 -0.00000000000E+00 -0.00000000000E+00 -0.53467191665E+03  0.53467191668E+03  0.50400000000E-02 0.  1.
    8880023    1    1    2    0    0  0.36341872904E+02 -0.29375613792E+03 -0.24620221627E+03  0.76291489555E+03  0.65864270000E+03 0.  1.
    8880022    1    1    2    0    0 -0.36341872904E+02  0.29375613792E+03  0.89144645938E+03  0.95167318091E+03  0.15294330000E+03 0.  0.
<mgrwt>
<rscale>  0 0.59513344E+03</rscale>
<asrwt>0</asrwt>
<pdfrwt beam="1">  1        1 0.18152557E+00 0.72209667E+03</pdfrwt>
<pdfrwt beam="2">  1       -1 0.82257217E-01 0.72209667E+03</pdfrwt>
<totfact> 0.16825327E+01</totfact>
</mgrwt>
</event>
<event>
 4    1  0.1043382E-007  0.7504442E+03  0.7818608E-02  0.9830506E-01
         -1   -1    0    0    0  501 -0.00000000000E+00  0.00000000000E+00  0.52448979938E+03  0.52448979941E+03  0.50400000000E-02 0.  1.
          1   -1    0    0  501    0  0.00000000000E+00 -0.00000000000E+00 -0.10246478865E+04  0.10246478865E+04  0.50400000000E-02 0. -1.
    8880023    1    1    2    0    0  0.12133141027E+03 -0.33857785943E+03  0.17357029727E+03  0.77025523846E+03  0.65864270000E+03 0.  1.
    8880022    1    1    2    0    0 -0.12133141027E+03  0.33857785943E+03 -0.67372838435E+03  0.77888244742E+03  0.15294330000E+03 0.  0.
<mgrwt>
<rscale>  0 0.63750811E+03</rscale>
<asrwt>0</asrwt>
<pdfrwt beam="1">  1        1 0.15763814E+00 0.75044419E+03</pdfrwt>
<pdfrwt beam="2">  1       -1 0.80690738E-01 0.75044419E+03</pdfrwt>
<totfact> 0.22806374E+01</totfact>
</mgrwt>
</event>
<event>
 4    1  0.1043382E-007  0.9907645E+03  0.7818608E-02  0.9393742E-01
         -1   -1    0    0    0  501 -0.00000000000E+00  0.00000000000E+00  0.87322338735E+03  0.87322338737E+03  0.50400000000E-02 0.  1.
          1   -1    0    0  501    0  0.00000000000E+00 -0.00000000000E+00 -0.15973144839E+04  0.15973144839E+04  0.50400000000E-02 0. -1.
    8880023    1    1    2    0    0  0.72460241299E+02 -0.73658231996E+03  0.43883560938E+03  0.10836008947E+04  0.65864270000E+03 0.  1.
    8880022    1    1    2    0    0 -0.72460241299E+02  0.73658231996E+03 -0.11629267059E+04  0.13869369766E+04  0.15294330000E+03 0.  0.
<mgrwt>
<rscale>  0 0.92592524E+03</rscale>
<asrwt>0</asrwt>
<pdfrwt beam="1">  1        1 0.24574069E+00 0.99076446E+03</pdfrwt>
<pdfrwt beam="2">  1       -1 0.13434206E+00 0.99076446E+03</pdfrwt>
<totfact> 0.26337595E+00</totfact>
</mgrwt>
</event>
<event>
 4    1  0.1043382E-007  0.7207768E+03  0.7818608E-02  0.9919966E-01
         -1   -1    0    0    0  501 -0.00000000000E+00  0.00000000000E+00  0.52289152717E+03  0.52289152719E+03  0.50400000000E-02 0.  1.
          1   -1    0    0  501    0  0.00000000000E+00 -0.00000000000E+00 -0.67556598235E+03  0.67556598237E+03  0.50400000000E-02 0. -1.
    8880023    1    1    2    0    0  0.22654340253E+03  0.18543761627E+03  0.16582743476E+03  0.73960663000E+03  0.65864270000E+03 0.  1.
    8880022    1    1    2    0    0 -0.22654340253E+03 -0.18543761627E+03 -0.31850188994E+03  0.45885087956E+03  0.15294330000E+03 0.  0.
<mgrwt>
<rscale>  0 0.59303324E+03</rscale>
<asrwt>0</asrwt>
<pdfrwt beam="1">  1        1 0.10393323E+00 0.72077682E+03</pdfrwt>
<pdfrwt beam="2">  1       -1 0.80444851E-01 0.72077682E+03</pdfrwt>
<totfact> 0.45449002E+01</totfact>
</mgrwt>
</event>
<event>
 4    1  0.1043382E-007  0.9553524E+03  0.7818608E-02  0.9442455E-01
         -1   -1    0    0    0  501 -0.00000000000E+00  0.00000000000E+00  0.71320703978E+03  0.71320703979E+03  0.50400000000E-02 0.  1.
          1   -1    0    0  501    0  0.00000000000E+00 -0.00000000000E+00 -0.21443091563E+04  0.21443091563E+04  0.50400000000E-02 0. -1.
    8880023    1    1    2    0    0  0.26727585467E+03  0.63831942943E+03  0.28819562947E+03  0.99787524450E+03  0.65864270000E+03 0.  1.
    8880022    1    1    2    0    0 -0.26727585467E+03 -0.63831942943E+03 -0.17192977460E+04  0.18596409516E+04  0.15294330000E+03 0.  0.
<mgrwt>
<rscale>  0 0.88662693E+03</rscale>
<asrwt>0</asrwt>
<pdfrwt beam="1">  1        1 0.32989371E+00 0.95535244E+03</pdfrwt>
<pdfrwt beam="2">  1       -1 0.10972416E+00 0.95535244E+03</pdfrwt>
<totfact> 0.18616310E+00</totfact>
</mgrwt>
</event>
<event>
 4    1  0.1043382E-007  0.6754077E+03  0.7818608E-02  0.1012051E+00
         -1   -1    0    0    0  501 -0.00000000000E+00  0.00000000000E+00  0.12584236116E+03  0.12584236127E+03  0.50400000000E-02 0.  1.
          1   -1    0    0  501    0  0.00000000000E+00 -0.00000000000E+00 -0.19292552003E+04  0.19292552003E+04  0.50400000000E-02 0. -1.
    8880023    1    1    2    0    0 -0.38563053533E+02 -0.14449300768E+03 -0.89164498331E+03  0.11185733418E+04  0.65864270000E+03 0.  1.
    8880022    1    1    2    0    0  0.38563053533E+02  0.14449300768E+03 -0.91176785581E+03  0.93652421980E+03  0.15294330000E+03 0.  0.
<mgrwt>
<rscale>  0 0.50667757E+03</rscale>
<asrwt>0</asrwt>
<pdfrwt beam="1">  1        1 0.29680847E+00 0.67540769E+03</pdfrwt>
<pdfrwt beam="2">  1       -1 0.19360365E-01 0.67540769E+03</pdfrwt>
<totfact> 0.74650915E+01</totfact>
</mgrwt>
</event>
<event>
 4    1  0.1043382E-007  0.9310719E+03  0.7818608E-02  0.9477887E-01
          1   -1    0    0  501    0  0.00000000000E+00  0.00000000000E+00  0.20179672009E+04  0.20179672009E+04  0.50400000000E-02 0. -1.
         -1   -1    0    0    0  501 -0.00000000000E+00 -0.00000000000E+00 -0.54660294813E+03  0.54660294815E+03  0.50400000000E-02 0.  1.
    8880023    1    1    2    0    0  0.65797007715E+03 -0.12649567021E+02 -0.15715787790E+02  0.93120450290E+03  0.65864270000E+03 0. -1.
    8880022    1    1    2    0    0 -0.65797007715E+03  0.12649567021E+02  0.14870800406E+04  0.16333656462E+04  0.15294330000E+03 0.  0.
<mgrwt>
<rscale>  0 0.85933932E+03</rscale>
<asrwt>0</asrwt>
<pdfrwt beam="1">  1        1 0.31045650E+00 0.93107188E+03</pdfrwt>
<pdfrwt beam="2">  1       -1 0.84092760E-01 0.93107188E+03</pdfrwt>
<totfact> 0.41462090E+00</totfact>
</mgrwt>
</event>
<event>
 4    1  0.1043382E-007  0.7939244E+03  0.7818608E-02  0.9724090E-01
          1   -1    0    0  501    0  0.00000000000E+00  0.00000000000E+00  0.15983658891E+04  0.15983658891E+04  0.50400000000E-02 0. -1.
         -1   -1    0    0    0  501 -0.00000000000E+00 -0.00000000000E+00 -0.41438640983E+03  0.41438640986E+03  0.50400000000E-02 0.  1.
    8880023    1    1    2    0    0 -0.24909837557E+01 -0.44328270414E+03  0.61552658682E+02  0.79630691121E+03  0.65864270000E+03 0.  1.
    8880022    1    1    2    0    0  0.24909837557E+01  0.44328270414E+03  0.11224268206E+04  0.12164453877E+04  0.15294330000E+03 0.  0.
<mgrwt>
<rscale>  0 0.69600423E+03</rscale>
<asrwt>0</asrwt>
<pdfrwt beam="1">  1        1 0.24590244E+00 0.79392441E+03</pdfrwt>
<pdfrwt beam="2">  1       -1 0.63751756E-01 0.79392441E+03</pdfrwt>
<totfact> 0.14400625E+01</totfact>
</mgrwt>
</event>
<event>
 4    1  0.1043382E-007  0.1046011E+04  0.7818608E-02  0.9323692E-01
          1   -1    0    0  501    0  0.00000000000E+00  0.00000000000E+00  0.27861453760E+04  0.27861453760E+04  0.50400000000E-02 0. -1.
         -1   -1    0    0    0  501 -0.00000000000E+00 -0.00000000000E+00 -0.89469915060E+03  0.89469915062E+03  0.50400000000E-02 0.  1.
    8880023    1    1    2    0    0 -0.70684470391E+03  0.40087392952E+03 -0.49353062907E+03  0.11565950159E+04  0.65864270000E+03 0.  0.
    8880022    1    1    2    0    0  0.70684470391E+03 -0.40087392952E+03  0.23849768545E+04  0.25242495107E+04  0.15294330000E+03 0.  0.
<mgrwt>
<rscale>  0 0.98630704E+03</rscale>
<asrwt>0</asrwt>
<pdfrwt beam="1">  1        1 0.42863774E+00 0.10460113E+04</pdfrwt>
<pdfrwt beam="2">  1       -1 0.13764603E+00 0.10460113E+04</pdfrwt>
<totfact> 0.37919458E-01</totfact>
</mgrwt>
</event>
<event>
 4    1  0.1043382E-007  0.7131028E+03  0.7818608E-02  0.9946655E-01
          1   -1    0    0  501    0  0.00000000000E+00  0.00000000000E+00  0.78647511500E+03  0.78647511502E+03  0.50400000000E-02 0. -1.
         -1   -1    0    0    0  501 -0.00000000000E+00 -0.00000000000E+00 -0.10963599246E+04  0.10963599246E+04  0.50400000000E-02 0.  1.
    8880023    1    1    2    0    0  0.20976225235E+03 -0.17522881680E+03 -0.93958169022E+03  0.11795462261E+04  0.65864270000E+03 0.  0.
    8880022    1    1    2    0    0 -0.20976225235E+03  0.17522881680E+03  0.62969688060E+03  0.70328881350E+03  0.15294330000E+03 0.  0.
<mgrwt>
<rscale>  0 0.58052516E+03</rscale>
<asrwt>0</asrwt>
<pdfrwt beam="1">  1        1 0.12099617E+00 0.71310276E+03</pdfrwt>
<pdfrwt beam="2">  1       -1 0.16867076E+00 0.71310276E+03</pdfrwt>
<totfact> 0.59488544E+00</totfact>
</mgrwt>
</event>
<event>
 4    1  0.1043382E-007  0.8862550E+03  0.7818608E-02  0.9548467E-01
         -1   -1    0    0    0  501 -0.00000000000E+00  0.00000000000E+00  0.67258648649E+03  0.67258648651E+03  0.50400000000E-02 0.  1.
          1   -1    0    0  501    0  0.00000000000E+00 -0.00000000000E+00 -0.15435185122E+04  0.15435185122E+04  0.50400000000E-02 0. -1.
    8880023    1    1    2    0    0  0.28462187222E+03 -0.52021926341E+03  0.26550265542E+03  0.92517001598E+03  0.65864270000E+03 0.  1.
    8880022    1    1    2    0    0 -0.28462187222E+03  0.52021926341E+03 -0.11364346811E+04  0.12909349827E+04  0.15294330000E+03 0.  0.
<mgrwt>
<rscale>  0 0.80802942E+03</rscale>
<asrwt>0</asrwt>
<pdfrwt beam="1">  1        1 0.23746439E+00 0.88625498E+03</pdfrwt>
<pdfrwt beam="2">  1       -1 0.10347484E+00 0.88625498E+03</pdfrwt>
<totfact> 0.54880722E+00</totfact>
</mgrwt>
</event>
<event>
 4    1  0.1239036E-007  0.9001433E+03  0.7818608E-02  0.9525802E-01
          1   -1    0    0  501    0  0.00000000000E+00  0.00000000000E+00  0.19138768090E+04  0.19138768090E+04  0.50400000000E-02 0. -1.
         -1   -1    0    0    0  501 -0.00000000000E+00 -0.00000000000E+00 -0.13750357173E+04  0.13750357173E+04  0.50400000000E-02 0.  1.
    8880023    1    1    2    0    0 -0.53225303244E+03 -0.30521205207E+03 -0.11645853200E+04  0.14719092571E+04  0.65864270000E+03 0.  1.
    8880022    1    1    2    0    0  0.53225303244E+03  0.30521205207E+03  0.17034264117E+04  0.18170032693E+04  0.15294330000E+03 0.  0.
<mgrwt>
<rscale>  0 0.82408008E+03</rscale>
<asrwt>0</asrwt>
<pdfrwt beam="1">  1        1 0.29444258E+00 0.90014326E+03</pdfrwt>
<pdfrwt beam="2">  1       -1 0.21154396E+00 0.90014326E+03</pdfrwt>
<totfact> 0.44109261E-01</totfact>
</mgrwt>
</event>
<event>
 4    1  0.1043382E-007  0.1263442E+04  0.7818608E-02  0.9097791E-01
         -1   -1    0    0    0  501 -0.00000000000E+00  0.00000000000E+00  0.19740751830E+04  0.19740751830E+04  0.50400000000E-02 0.  1.
          1   -1    0    0  501    0  0.00000000000E+00 -0.00000000000E+00 -0.17496673722E+04  0.17496673722E+04  0.50400000000E-02 0. -1.
    8880023    1    1    2    0    0 -0.10148296710E+04  0.36413811099E+03 -0.13244200697E+04  0.18304028389E+04  0.65864270000E+03 0.  0.
    8880022    1    1    2    0    0  0.10148296710E+04 -0.36413811099E+03  0.15488278805E+04  0.18933397164E+04  0.15294330000E+03 0.  0.
<mgrwt>
<rscale>  0 0.12173656E+04</rscale>
<asrwt>0</asrwt>
<pdfrwt beam="1">  1        1 0.26917959E+00 0.12634421E+04</pdfrwt>
<pdfrwt beam="2">  1       -1 0.30370388E+00 0.12634421E+04</pdfrwt>
<totfact> 0.13433646E-01</totfact>
</mgrwt>
</event>
<event>
 4    1  0.1043382E-007  0.7219184E+03  0.7818608E-02  0.9916147E-01
         -1   -1    0    0    0  501 -0.00000000000E+00  0.00000000000E+00  0.55890570772E+03  0.55890570774E+03  0.50400000000E-02 0.  1.
          1   -1    0    0  501    0  0.00000000000E+00 -0.00000000000E+00 -0.51584056344E+03  0.51584056346E+03  0.50400000000E-02 0. -1.
    8880023    1    1    2    0    0  0.29107991001E+03  0.51268542382E+02  0.12342585027E+03  0.73239342175E+03  0.65864270000E+03 0.  0.
    8880022    1    1    2    0    0 -0.29107991001E+03 -0.51268542382E+02 -0.80360705987E+02  0.34235284946E+03  0.15294330000E+03 0.  0.
<mgrwt>
<rscale>  0 0.59485058E+03</rscale>
<asrwt>0</asrwt>
<pdfrwt beam="1">  1        1 0.79360086E-01 0.72191841E+03</pdfrwt>
<pdfrwt beam="2">  1       -1 0.85985494E-01 0.72191841E+03</pdfrwt>
<totfact> 0.57977087E+01</totfact>
</mgrwt>
</event>
<event>
 4    1  0.1043382E-007  0.6779342E+03  0.7818608E-02  0.1010517E+00
          1   -1    0    0  501    0  0.00000000000E+00  0.00000000000E+00  0.33605676717E+04  0.33605676717E+04  0.50400000000E-02 0. -1.
         -1   -1    0    0    0  501 -0.00000000000E+00 -0.00000000000E+00 -0.30878250891E+03  0.30878250895E+03  0.50400000000E-02 0.  1.
    8880023    1    1    2    0    0  0.10672307136E+03 -0.11997797762E+03  0.72473525186E+02  0.68179699852E+03  0.65864270000E+03 0.  1.
    8880022    1    1    2    0    0 -0.10672307136E+03  0.11997797762E+03  0.29793116376E+04  0.29875531821E+04  0.15294330000E+03 0.  0.
<mgrwt>
<rscale>  0 0.51269608E+03</rscale>
<asrwt>0</asrwt>
<pdfrwt beam="1">  1        1 0.51701039E+00 0.67793417E+03</pdfrwt>
<pdfrwt beam="2">  1       -1 0.47505003E-01 0.67793417E+03</pdfrwt>
<totfact> 0.15655575E+00</totfact>
</mgrwt>
</event>
<event>
 4    1  0.1043382E-007  0.7463848E+03  0.7818608E-02  0.9841724E-01
          1   -1    0    0  501    0  0.00000000000E+00  0.00000000000E+00  0.86160625684E+03  0.86160625685E+03  0.50400000000E-02 0. -1.
         -1   -1    0    0    0  501 -0.00000000000E+00 -0.00000000000E+00 -0.47506763791E+03  0.47506763794E+03  0.50400000000E-02 0.  1.
    8880023    1    1    2    0    0  0.15279122439E+03 -0.31612481192E+03  0.54296200703E+03  0.92298320803E+03  0.65864270000E+03 0.  0.
    8880022    1    1    2    0    0 -0.15279122439E+03  0.31612481192E+03 -0.15642338810E+03  0.41369068677E+03  0.15294330000E+03 0.  0.
<mgrwt>
<rscale>  0 0.63170655E+03</rscale>
<asrwt>0</asrwt>
<pdfrwt beam="1">  1        1 0.13255481E+00 0.74638479E+03</pdfrwt>
<pdfrwt beam="2">  1       -1 0.73087330E-01 0.74638479E+03</pdfrwt>
<totfact> 0.37879595E+01</totfact>
</mgrwt>
</event>
<event>
 4    1  0.1043382E-007  0.7537230E+03  0.7818608E-02  0.9821638E-01
         -1   -1    0    0    0  501 -0.00000000000E+00  0.00000000000E+00  0.37986959180E+03  0.37986959183E+03  0.50400000000E-02 0.  1.
          1   -1    0    0  501    0  0.00000000000E+00 -0.00000000000E+00 -0.17605824841E+04  0.17605824841E+04  0.50400000000E-02 0. -1.
    8880023    1    1    2    0    0  0.18125125543E+03 -0.31849042307E+03 -0.54074851979E+02  0.75566028284E+03  0.65864270000E+03 0.  0.
    8880022    1    1    2    0    0 -0.18125125543E+03  0.31849042307E+03 -0.13266380403E+04  0.13847917931E+04  0.15294330000E+03 0.  0.
<mgrwt>
<rscale>  0 0.64214166E+03</rscale>
<asrwt>0</asrwt>
<pdfrwt beam="1">  1        1 0.27085884E+00 0.75372301E+03</pdfrwt>
<pdfrwt beam="2">  1       -1 0.58441477E-01 0.75372301E+03</pdfrwt>
<totfact> 0.13370969E+01</totfact>
</mgrwt>
</event>
<event>
 4    1  0.1043382E-007  0.6650859E+03  0.7818608E-02  0.1019462E+00
         -1   -1    0    0    0  501 -0.00000000000E+00  0.00000000000E+00  0.26236867330E+03  0.26236867335E+03  0.50400000000E-02 0.  1.
          1   -1    0    0  501    0  0.00000000000E+00 -0.00000000000E+00 -0.91864485197E+03  0.91864485199E+03  0.50400000000E-02 0. -1.
    8880023    1    1    2    0    0 -0.54983618467E+02  0.74201052066E+02 -0.20548147800E+03  0.69610476115E+03  0.65864270000E+03 0.  1.
    8880022    1    1    2    0    0  0.54983618467E+02 -0.74201052066E+02 -0.45079470066E+03  0.48490876419E+03  0.15294330000E+03 0. -1.
<mgrwt>
<rscale>  0 0.47881445E+03</rscale>
<asrwt>0</asrwt>
<pdfrwt beam="1">  1        1 0.14132998E+00 0.66508586E+03</pdfrwt>
<pdfrwt beam="2">  1       -1 0.40364412E-01 0.66508586E+03</pdfrwt>
<totfact> 0.10791918E+02</totfact>
</mgrwt>
</event>
<event>
 4    1  0.1043382E-007  0.1159180E+04  0.7818608E-02  0.9197861E-01
          1   -1    0    0  501    0  0.00000000000E+00  0.00000000000E+00  0.20618812228E+04  0.20618812228E+04  0.50400000000E-02 0. -1.
         -1   -1    0    0    0  501 -0.00000000000E+00 -0.00000000000E+00 -0.63162682352E+03  0.63162682354E+03  0.50400000000E-02 0.  1.
    8880023    1    1    2    0    0 -0.95326020361E+03 -0.34392531520E+02  0.28213196641E+03  0.11930199138E+04  0.65864270000E+03 0. -1.
    8880022    1    1    2    0    0  0.95326020361E+03  0.34392531520E+02  0.11481224329E+04  0.15004881326E+04  0.15294330000E+03 0.  0.
<mgrwt>
<rscale>  0 0.11075532E+04</rscale>
<asrwt>0</asrwt>
<pdfrwt beam="1">  1        1 0.31721250E+00 0.11591799E+04</pdfrwt>
<pdfrwt beam="2">  1       -1 0.97173357E-01 0.11591799E+04</pdfrwt>
<totfact> 0.27290775E+00</totfact>
</mgrwt>
</event>
<event>
 4    1  0.1043382E-007  0.9953042E+03  0.7818608E-02  0.9387727E-01
          1   -1    0    0  501    0  0.00000000000E+00  0.00000000000E+00  0.34513607141E+04  0.34513607141E+04  0.50400000000E-02 0. -1.
         -1   -1    0    0    0  501 -0.00000000000E+00 -0.00000000000E+00 -0.54900451865E+03  0.54900451867E+03  0.50400000000E-02 0.  1.
    8880023    1    1    2    0    0 -0.30648305028E+03 -0.68035902863E+03 -0.45523425904E+01  0.99531462264E+03  0.65864270000E+03 0.  0.
    8880022    1    1    2    0    0  0.30648305028E+03  0.68035902863E+03  0.29069085381E+04  0.30050506101E+04  0.15294330000E+03 0.  0.
<mgrwt>
<rscale>  0 0.93092611E+03</rscale>
<asrwt>0</asrwt>
<pdfrwt beam="1">  1        1 0.53097857E+00 0.99530421E+03</pdfrwt>
<pdfrwt beam="2">  1       -1 0.84462233E-01 0.99530421E+03</pdfrwt>
<totfact> 0.39373262E-01</totfact>
</mgrwt>
</event>
<event>
 4    1  0.1043382E-007  0.1092505E+04  0.7818608E-02  0.9269447E-01
          1   -1    0    0  501    0  0.00000000000E+00  0.00000000000E+00  0.21309002271E+04  0.21309002271E+04  0.50400000000E-02 0. -1.
         -1   -1    0    0    0  501 -0.00000000000E+00 -0.00000000000E+00 -0.88295076912E+03  0.88295076914E+03  0.50400000000E-02 0.  1.
    8880023    1    1    2    0    0  0.85273603688E+03 -0.18054953553E+03 -0.38348384200E+03  0.11578544583E+04  0.65864270000E+03 0.  1.
    8880022    1    1    2    0    0 -0.85273603688E+03  0.18054953553E+03  0.16314333000E+04  0.18559965379E+04  0.15294330000E+03 0.  0.
<mgrwt>
<rscale>  0 0.10364493E+04</rscale>
<asrwt>0</asrwt>
<pdfrwt beam="1">  1        1 0.32783080E+00 0.10925050E+04</pdfrwt>
<pdfrwt beam="2">  1       -1 0.13583858E+00 0.10925050E+04</pdfrwt>
<totfact> 0.10995201E+00</totfact>
</mgrwt>
</event>
<event>
 4    1  0.1043382E-007  0.1000973E+04  0.7818608E-02  0.9380286E-01
         -1   -1    0    0    0  501 -0.00000000000E+00  0.00000000000E+00  0.55866430030E+03  0.55866430033E+03  0.50400000000E-02 0.  1.
          1   -1    0    0  501    0  0.00000000000E+00 -0.00000000000E+00 -0.18066178733E+04  0.18066178733E+04  0.50400000000E-02 0. -1.
    8880023    1    1    2    0    0 -0.75177398884E+03  0.54522924276E+02 -0.13152767710E+03  0.10095774441E+04  0.65864270000E+03 0.  0.
    8880022    1    1    2    0    0  0.75177398884E+03 -0.54522924276E+02 -0.11164258959E+04  0.13557047295E+04  0.15294330000E+03 0.  0.
<mgrwt>
<rscale>  0 0.93716003E+03</rscale>
<asrwt>0</asrwt>
<pdfrwt beam="1">  1        1 0.27794121E+00 0.10009731E+04</pdfrwt>
<pdfrwt beam="2">  1       -1 0.85948355E-01 0.10009731E+04</pdfrwt>
<totfact> 0.54359634E+00</totfact>
</mgrwt>
</event>
<event>
 4    1  0.1043382E-007  0.7045246E+03  0.7818608E-02  0.9978925E-01
          1   -1    0    0  501    0  0.00000000000E+00  0.00000000000E+00  0.11728538069E+04  0.11728538069E+04  0.50400000000E-02 0. -1.
         -1   -1    0    0    0  501 -0.00000000000E+00 -0.00000000000E+00 -0.28812715861E+03  0.28812715866E+03  0.50400000000E-02 0.  1.
    8880023    1    1    2    0    0 -0.39747976617E+02  0.24691041026E+03  0.22586174992E+03  0.73984348931E+03  0.65864270000E+03 0.  1.
    8880022    1    1    2    0    0  0.39747976617E+02 -0.24691041026E+03  0.65886489835E+03  0.72113747623E+03  0.15294330000E+03 0.  0.
<mgrwt>
<rscale>  0 0.56584071E+03</rscale>
<asrwt>0</asrwt>
<pdfrwt beam="1">  1        1 0.18043904E+00 0.70452456E+03</pdfrwt>
<pdfrwt beam="2">  1       -1 0.44327256E-01 0.70452456E+03</pdfrwt>
<totfact> 0.57990699E+01</totfact>
</mgrwt>
</event>
<event>
 4    1  0.1043382E-007  0.7282628E+03  0.7818608E-02  0.9895559E-01
          1   -1    0    0  501    0  0.00000000000E+00  0.00000000000E+00  0.17580574533E+04  0.17580574533E+04  0.50400000000E-02 0. -1.
         -1   -1    0    0    0  501 -0.00000000000E+00 -0.00000000000E+00 -0.17217871752E+03  0.17217871759E+03  0.50400000000E-02 0.  1.
    8880023    1    1    2    0    0 -0.29067152872E+02 -0.30937292938E+03  0.12564396233E+04  0.14522421431E+04  0.65864270000E+03 0. -1.
    8880022    1    1    2    0    0  0.29067152872E+02  0.30937292938E+03  0.32943911247E+03  0.47799402784E+03  0.15294330000E+03 0. -1.
<mgrwt>
<rscale>  0 0.60477008E+03</rscale>
<asrwt>0</asrwt>
<pdfrwt beam="1">  1        1 0.27047038E+00 0.72826281E+03</pdfrwt>
<pdfrwt beam="2">  1       -1 0.26489033E-01 0.72826281E+03</pdfrwt>
<totfact> 0.56916676E+01</totfact>
</mgrwt>
</event>
<event>
 4    1  0.1043382E-007  0.1017688E+04  0.7818608E-02  0.9358774E-01
         -1   -1    0    0    0  501 -0.00000000000E+00  0.00000000000E+00  0.33260325921E+04  0.33260325921E+04  0.50400000000E-02 0.  1.
          1   -1    0    0  501    0  0.00000000000E+00 -0.00000000000E+00 -0.27894849701E+03  0.27894849706E+03  0.50400000000E-02 0. -1.
    8880023    1    1    2    0    0 -0.54352325067E+03 -0.55358896838E+03  0.23088841024E+04  0.25232190302E+04  0.65864270000E+03 0.  1.
    8880022    1    1    2    0    0  0.54352325067E+03  0.55358896838E+03  0.73819999269E+03  0.10817620589E+04  0.15294330000E+03 0. -1.
<mgrwt>
<rscale>  0 0.95547509E+03</rscale>
<asrwt>0</asrwt>
<pdfrwt beam="1">  1        1 0.42915153E-01 0.10176878E+04</pdfrwt>
<pdfrwt beam="2">  1       -1 0.51169732E+00 0.10176878E+04</pdfrwt>
<totfact> 0.12264845E-01</totfact>
</mgrwt>
</event>
<event>
 4    1  0.1043382E-007  0.9672616E+03  0.7818608E-02  0.9425702E-01
         -1   -1    0    0    0  501 -0.00000000000E+00  0.00000000000E+00  0.48396665021E+03  0.48396665024E+03  0.50400000000E-02 0.  1.
          1   -1    0    0  501    0  0.00000000000E+00 -0.00000000000E+00 -0.22190009331E+04  0.22190009331E+04  0.50400000000E-02 0. -1.
    8880023    1    1    2    0    0 -0.52279600091E+03 -0.47798452134E+03 -0.17518921019E+03  0.98299864030E+03  0.65864270000E+03 0. -1.
    8880022    1    1    2    0    0  0.52279600091E+03  0.47798452134E+03 -0.15598450727E+04  0.17199689431E+04  0.15294330000E+03 0.  0.
<mgrwt>
<rscale>  0 0.89990390E+03</rscale>
<asrwt>0</asrwt>
<pdfrwt beam="1">  1        1 0.34138475E+00 0.96726163E+03</pdfrwt>
<pdfrwt beam="2">  1       -1 0.74456409E-01 0.96726163E+03</pdfrwt>
<totfact> 0.39114663E+00</totfact>
</mgrwt>
</event>
<event>
 4    1  0.1043382E-007  0.8546705E+03  0.7818608E-02  0.9603115E-01
          1   -1    0    0  501    0  0.00000000000E+00  0.00000000000E+00  0.10869050972E+04  0.10869050972E+04  0.50400000000E-02 0. -1.
         -1   -1    0    0    0  501 -0.00000000000E+00 -0.00000000000E+00 -0.21346068425E+04  0.21346068425E+04  0.50400000000E-02 0.  1.
    8880023    1    1    2    0    0  0.34702598117E+03 -0.41979091486E+03 -0.19655487789E+04  0.21433253725E+04  0.65864270000E+03 0.  0.
    8880022    1    1    2    0    0 -0.34702598117E+03  0.41979091486E+03  0.91784703358E+03  0.10781865673E+04  0.15294330000E+03 0. -1.
<mgrwt>
<rscale>  0 0.77090363E+03</rscale>
<asrwt>0</asrwt>
<pdfrwt beam="1">  1        1 0.16721617E+00 0.85467049E+03</pdfrwt>
<pdfrwt beam="2">  1       -1 0.32840105E+00 0.85467049E+03</pdfrwt>
<totfact> 0.29261384E-01</totfact>
</mgrwt>
</event>
<event>
 4    1  0.1043382E-007  0.8926212E+03  0.7818608E-02  0.9537982E-01
          1   -1    0    0  501    0  0.00000000000E+00  0.00000000000E+00  0.77893702018E+03  0.77893702020E+03  0.50400000000E-02 0. -1.
         -1   -1    0    0    0  501 -0.00000000000E+00 -0.00000000000E+00 -0.86058151526E+03  0.86058151527E+03  0.50400000000E-02 0.  1.
    8880023    1    1    2    0    0 -0.16458222622E+03 -0.57954724253E+03 -0.35482948392E+03  0.96056050535E+03  0.65864270000E+03 0.  0.
    8880022    1    1    2    0    0  0.16458222622E+03  0.57954724253E+03  0.27318498884E+03  0.67895803012E+03  0.15294330000E+03 0.  0.
<mgrwt>
<rscale>  0 0.81540534E+03</rscale>
<asrwt>0</asrwt>
<pdfrwt beam="1">  1        1 0.11983646E+00 0.89262115E+03</pdfrwt>
<pdfrwt beam="2">  1       -1 0.13239716E+00 0.89262115E+03</pdfrwt>
<totfact> 0.11318099E+01</totfact>
</mgrwt>
</event>
<event>
 4    1  0.1043382E-007  0.8056059E+03  0.7818608E-02  0.9698804E-01
          1   -1    0    0  501    0  0.00000000000E+00  0.00000000000E+00  0.85636940904E+03  0.85636940906E+03  0.50400000000E-02 0. -1.
         -1   -1    0    0    0  501 -0.00000000000E+00 -0.00000000000E+00 -0.11428388084E+04  0.11428388084E+04  0.50400000000E-02 0.  1.
    8880023    1    1    2    0    0  0.57636998602E+01  0.46385062086E+03 -0.90463992111E+03  0.12113522245E+04  0.65864270000E+03 0.  1.
    8880022    1    1    2    0    0 -0.57636998602E+01 -0.46385062086E+03  0.61817052173E+03  0.78785599297E+03  0.15294330000E+03 0.  0.
<mgrwt>
<rscale>  0 0.71088073E+03</rscale>
<asrwt>0</asrwt>
<pdfrwt beam="1">  1        1 0.13174914E+00 0.80560587E+03</pdfrwt>
<pdfrwt beam="2">  1       -1 0.17582136E+00 0.80560587E+03</pdfrwt>
<totfact> 0.45373615E+00</totfact>
</mgrwt>
</event>
<event>
 4    1  0.1043382E-007  0.7074882E+03  0.7818608E-02  0.9967449E-01
         -1   -1    0    0    0  501 -0.00000000000E+00  0.00000000000E+00  0.11934820261E+04  0.11934820261E+04  0.50400000000E-02 0.  1.
          1   -1    0    0  501    0  0.00000000000E+00 -0.00000000000E+00 -0.12639852588E+04  0.12639852588E+04  0.50400000000E-02 0. -1.
    8880023    1    1    2    0    0 -0.26757299151E+02  0.25693064097E+03  0.10674286908E+04  0.12806027970E+04  0.65864270000E+03 0.  1.
    8880022    1    1    2    0    0  0.26757299151E+02 -0.25693064097E+03 -0.11379319235E+04  0.11768644879E+04  0.15294330000E+03 0.  0.
<mgrwt>
<rscale>  0 0.57100855E+03</rscale>
<asrwt>0</asrwt>
<pdfrwt beam="1">  1        1 0.19445927E+00 0.70748817E+03</pdfrwt>
<pdfrwt beam="2">  1       -1 0.18361262E+00 0.70748817E+03</pdfrwt>
<totfact> 0.19838578E+00</totfact>
</mgrwt>
</event>
<event>
 4    1  0.1043382E-007  0.9765767E+03  0.7818608E-02  0.9412865E-01
         -1   -1    0    0    0  501 -0.00000000000E+00  0.00000000000E+00  0.90169188299E+03  0.90169188300E+03  0.50400000000E-02 0.  1.
          1   -1    0    0  501    0  0.00000000000E+00 -0.00000000000E+00 -0.94922962839E+03  0.94922962841E+03  0.50400000000E-02 0. -1.
    8880023    1    1    2    0    0 -0.70736080618E+03 -0.13975878321E+03  0.31950155315E+03  0.10275131514E+04  0.65864270000E+03 0.  0.
    8880022    1    1    2    0    0  0.70736080618E+03  0.13975878321E+03 -0.36703929856E+03  0.82340835999E+03  0.15294330000E+03 0.  0.
<mgrwt>
<rscale>  0 0.91024453E+03</rscale>
<asrwt>0</asrwt>
<pdfrwt beam="1">  1        1 0.14603533E+00 0.97657669E+03</pdfrwt>
<pdfrwt beam="2">  1       -1 0.13872183E+00 0.97657669E+03</pdfrwt>
<totfact> 0.71612936E+00</totfact>
</mgrwt>
</event>
<event>
 4    1  0.1043382E-007  0.8318963E+03  0.7818608E-02  0.9645654E-01
         -1   -1    0    0    0  501 -0.00000000000E+00  0.00000000000E+00  0.98383550041E+03  0.98383550042E+03  0.50400000000E-02 0.  1.
          1   -1    0    0  501    0  0.00000000000E+00 -0.00000000000E+00 -0.57420699293E+03  0.57420699295E+03  0.50400000000E-02 0. -1.
    8880023    1    1    2    0    0  0.17919311820E+03 -0.47553249864E+03  0.56434959645E+03  0.10052571831E+04  0.65864270000E+03 0.  0.
    8880022    1    1    2    0    0 -0.17919311820E+03  0.47553249864E+03 -0.15472108897E+03  0.55278531028E+03  0.15294330000E+03 0.  0.
<mgrwt>
<rscale>  0 0.74346813E+03</rscale>
<asrwt>0</asrwt>
<pdfrwt beam="1">  1        1 0.88339539E-01 0.83189635E+03</pdfrwt>
<pdfrwt beam="2">  1       -1 0.15135930E+00 0.83189635E+03</pdfrwt>
<totfact> 0.12663052E+01</totfact>
</mgrwt>
</event>
<event>
 4    1  0.1043382E-007  0.7593522E+03  0.7818608E-02  0.9806787E-01
         -1   -1    0    0    0  501 -0.00000000000E+00  0.00000000000E+00  0.68191196082E+03  0.68191196083E+03  0.50400000000E-02 0.  1.
          1   -1    0    0  501    0  0.00000000000E+00 -0.00000000000E+00 -0.96870398925E+03  0.96870398926E+03  0.50400000000E-02 0. -1.
    8880023    1    1    2    0    0 -0.20439459525E+03 -0.31784975126E+03  0.39522181587E+03  0.85604678899E+03  0.65864270000E+03 0.  1.
    8880022    1    1    2    0    0  0.20439459525E+03  0.31784975126E+03 -0.68201384430E+03  0.79456916110E+03  0.15294330000E+03 0.  0.
<mgrwt>
<rscale>  0 0.64999564E+03</rscale>
<asrwt>0</asrwt>
<pdfrwt beam="1">  1        1 0.14903138E+00 0.75935224E+03</pdfrwt>
<pdfrwt beam="2">  1       -1 0.10490953E+00 0.75935224E+03</pdfrwt>
<totfact> 0.14063667E+01</totfact>
</mgrwt>
</event>
<event>
 4    1  0.1043382E-007  0.9036864E+03  0.7818608E-02  0.9520139E-01
         -1   -1    0    0    0  501 -0.00000000000E+00  0.00000000000E+00  0.57903676352E+03  0.57903676354E+03  0.50400000000E-02 0.  1.
          1   -1    0    0  501    0  0.00000000000E+00 -0.00000000000E+00 -0.21079684126E+04  0.21079684126E+04  0.50400000000E-02 0. -1.
    8880023    1    1    2    0    0 -0.51426126018E+03  0.34405555177E+03  0.12707661201E+03  0.91257741480E+03  0.65864270000E+03 0.  0.
    8880022    1    1    2    0    0  0.51426126018E+03 -0.34405555177E+03 -0.16560082611E+04  0.17744277614E+04  0.15294330000E+03 0.  0.
<mgrwt>
<rscale>  0 0.82815165E+03</rscale>
<asrwt>0</asrwt>
<pdfrwt beam="1">  1        1 0.32430283E+00 0.90368638E+03</pdfrwt>
<pdfrwt beam="2">  1       -1 0.89082580E-01 0.90368638E+03</pdfrwt>
<totfact> 0.31935883E+00</totfact>
</mgrwt>
</event>
<event>
 4    1  0.1043382E-007  0.1117605E+04  0.7818608E-02  0.9241703E-01
          1   -1    0    0  501    0  0.00000000000E+00  0.00000000000E+00  0.13835682589E+04  0.13835682589E+04  0.50400000000E-02 0. -1.
         -1   -1    0    0    0  501 -0.00000000000E+00 -0.00000000000E+00 -0.96351102666E+03  0.96351102667E+03  0.50400000000E-02 0.  1.
    8880023    1    1    2    0    0  0.65359996701E+03 -0.62292737197E+03  0.78025263358E+03  0.13630245068E+04  0.65864270000E+03 0. -1.
    8880022    1    1    2    0    0 -0.65359996701E+03  0.62292737197E+03 -0.36019540130E+03  0.98405477883E+03  0.15294330000E+03 0. -1.
<mgrwt>
<rscale>  0 0.10633156E+04</rscale>
<asrwt>0</asrwt>
<pdfrwt beam="1">  1        1 0.21285666E+00 0.11176053E+04</pdfrwt>
<pdfrwt beam="2">  1       -1 0.14823247E+00 0.11176053E+04</pdfrwt>
<totfact> 0.28142702E+00</totfact>
</mgrwt>
</event>
<event>
 4    1  0.1043382E-007  0.7304441E+03  0.7818608E-02  0.9888711E-01
         -1   -1    0    0    0  501 -0.00000000000E+00  0.00000000000E+00  0.30070933446E+03  0.30070933451E+03  0.50400000000E-02 0.  1.
          1   -1    0    0  501    0  0.00000000000E+00 -0.00000000000E+00 -0.11533801189E+04  0.11533801189E+04  0.50400000000E-02 0. -1.
    8880023    1    1    2    0    0 -0.90679000950E+02  0.30251570680E+03 -0.27961280596E+03  0.78213295647E+03  0.65864270000E+03 0.  1.
    8880022    1    1    2    0    0  0.90679000950E+02 -0.30251570680E+03 -0.57305797843E+03  0.67195649690E+03  0.15294330000E+03 0.  0.
<mgrwt>
<rscale>  0 0.60811509E+03</rscale>
<asrwt>0</asrwt>
<pdfrwt beam="1">  1        1 0.17744309E+00 0.73044414E+03</pdfrwt>
<pdfrwt beam="2">  1       -1 0.46262975E-01 0.73044414E+03</pdfrwt>
<totfact> 0.55199928E+01</totfact>
</mgrwt>
</event>
<event>
 4    1  0.1043382E-007  0.8477141E+03  0.7818608E-02  0.9615803E-01
          1   -1    0    0  501    0  0.00000000000E+00  0.00000000000E+00  0.24013386509E+04  0.24013386509E+04  0.50400000000E-02 0. -1.
         -1   -1    0    0    0  501 -0.00000000000E+00 -0.00000000000E+00 -0.59025022048E+03  0.59025022050E+03  0.50400000000E-02 0.  1.
    8880023    1    1    2    0    0  0.53367219734E+03  0.17054151158E+01 -0.22835770206E+03  0.87793300941E+03  0.65864270000E+03 0.  0.
    8880022    1    1    2    0    0 -0.53367219734E+03 -0.17054151158E+01  0.20394461325E+04  0.21136558620E+04  0.15294330000E+03 0.  0.
<mgrwt>
<rscale>  0 0.76259020E+03</rscale>
<asrwt>0</asrwt>
<pdfrwt beam="1">  1        1 0.36943672E+00 0.84771406E+03</pdfrwt>
<pdfrwt beam="2">  1       -1 0.90807725E-01 0.84771406E+03</pdfrwt>
<totfact> 0.19573748E+00</totfact>
</mgrwt>
</event>
<event>
 4    1  0.1043382E-007  0.7748826E+03  0.7818608E-02  0.9767998E-01
          1   -1    0    0  501    0  0.00000000000E+00  0.00000000000E+00  0.21722390416E+04  0.21722390416E+04  0.50400000000E-02 0. -1.
         -1   -1    0    0    0  501 -0.00000000000E+00 -0.00000000000E+00 -0.60369796265E+03  0.60369796267E+03  0.50400000000E-02 0.  1.
    8880023    1    1    2    0    0 -0.11239280649E+03  0.39242925610E+03 -0.31954384545E+03  0.83818335668E+03  0.65864270000E+03 0.  0.
    8880022    1    1    2    0    0  0.11239280649E+03 -0.39242925610E+03  0.18880849244E+04  0.19377536476E+04  0.15294330000E+03 0.  0.
<mgrwt>
<rscale>  0 0.67108595E+03</rscale>
<asrwt>0</asrwt>
<pdfrwt beam="1">  1        1 0.33419062E+00 0.77488262E+03</pdfrwt>
<pdfrwt beam="2">  1       -1 0.92876609E-01 0.77488262E+03</pdfrwt>
<totfact> 0.26944481E+00</totfact>
</mgrwt>
</event>
<event>
 4    1  0.1043382E-007  0.7310784E+03  0.7818608E-02  0.9886741E-01
          1   -1    0    0  501    0  0.00000000000E+00  0.00000000000E+00  0.36609438474E+03  0.36609438478E+03  0.50400000000E-02 0. -1.
         -1   -1    0    0    0  501 -0.00000000000E+00 -0.00000000000E+00 -0.26080073777E+04  0.26080073777E+04  0.50400000000E-02 0.  1.
    8880023    1    1    2    0    0  0.29476878270E+03  0.11737439194E+03 -0.24556096298E+04  0.25621268983E+04  0.65864270000E+03 0.  1.
    8880022    1    1    2    0    0 -0.29476878270E+03 -0.11737439194E+03  0.21369663677E+03  0.41197486418E+03  0.15294330000E+03 0.  0.
<mgrwt>
<rscale>  0 0.60908181E+03</rscale>
<asrwt>0</asrwt>
<pdfrwt beam="1">  1        1 0.56322215E-01 0.73107837E+03</pdfrwt>
<pdfrwt beam="2">  1       -1 0.40123189E+00 0.73107837E+03</pdfrwt>
<totfact> 0.50889369E-01</totfact>
</mgrwt>
</event>
<event>
 4    1  0.1043382E-007  0.7738733E+03  0.7818608E-02  0.9770431E-01
          1   -1    0    0  501    0  0.00000000000E+00  0.00000000000E+00  0.16433113794E+04  0.16433113794E+04  0.50400000000E-02 0. -1.
         -1   -1    0    0    0  501 -0.00000000000E+00 -0.00000000000E+00 -0.87341136062E+03  0.87341136064E+03  0.50400000000E-02 0.  1.
    8880023    1    1    2    0    0  0.12324999408E+03  0.38714217742E+03 -0.66328672171E+03  0.10192296640E+04  0.65864270000E+03 0.  0.
    8880022    1    1    2    0    0 -0.12324999408E+03 -0.38714217742E+03  0.14331867405E+04  0.14974930760E+04  0.15294330000E+03 0.  0.
<mgrwt>
<rscale>  0 0.66973832E+03</rscale>
<asrwt>0</asrwt>
<pdfrwt beam="1">  1        1 0.25281713E+00 0.77387327E+03</pdfrwt>
<pdfrwt beam="2">  1       -1 0.13437098E+00 0.77387327E+03</pdfrwt>
<totfact> 0.25339028E+00</totfact>
</mgrwt>
</event>
<event>
 4    1  0.1043382E-007  0.8082206E+03  0.7818608E-02  0.9693295E-01
          1   -1    0    0  501    0  0.00000000000E+00  0.00000000000E+00  0.47790891766E+03  0.47790891769E+03  0.50400000000E-02 0. -1.
         -1   -1    0    0    0  501 -0.00000000000E+00 -0.00000000000E+00 -0.40493239862E+04  0.40493239862E+04  0.50400000000E-02 0.  1.
    8880023    1    1    2    0    0 -0.10257118166E+03 -0.45704434627E+03 -0.38683843234E+04  0.39519131901E+04  0.65864270000E+03 0.  1.
    8880022    1    1    2    0    0  0.10257118166E+03  0.45704434627E+03  0.29696925488E+03  0.57531971383E+03  0.15294330000E+03 0.  0.
<mgrwt>
<rscale>  0 0.71417392E+03</rscale>
<asrwt>0</asrwt>
<pdfrwt beam="1">  1        1 0.73524452E-01 0.80822063E+03</pdfrwt>
<pdfrwt beam="2">  1       -1 0.62297290E+00 0.80822063E+03</pdfrwt>
<totfact> 0.17362319E-02</totfact>
</mgrwt>
</event>
<event>
 4    1  0.1043382E-007  0.1034403E+04  0.7818608E-02  0.9337871E-01
         -1   -1    0    0    0  501 -0.00000000000E+00  0.00000000000E+00  0.27280792714E+04  0.27280792714E+04  0.50400000000E-02 0.  1.
          1   -1    0    0  501    0  0.00000000000E+00 -0.00000000000E+00 -0.95887599330E+03  0.95887599331E+03  0.50400000000E-02 0. -1.
    8880023    1    1    2    0    0  0.39953632058E+03  0.69032582187E+03  0.24293211153E+04  0.26403769237E+04  0.65864270000E+03 0.  0.
    8880022    1    1    2    0    0 -0.39953632058E+03 -0.69032582187E+03 -0.66011783721E+03  0.10465783410E+04  0.15294330000E+03 0.  0.
<mgrwt>
<rscale>  0 0.97369949E+03</rscale>
<asrwt>0</asrwt>
<pdfrwt beam="1">  1        1 0.14751938E+00 0.10344028E+04</pdfrwt>
<pdfrwt beam="2">  1       -1 0.41970450E+00 0.10344028E+04</pdfrwt>
<totfact> 0.87143310E-02</totfact>
</mgrwt>
</event>
<event>
 4    1  0.1043382E-007  0.7401687E+03  0.7818608E-02  0.9859456E-01
          1   -1    0    0  501    0  0.00000000000E+00  0.00000000000E+00  0.11363648204E+04  0.11363648204E+04  0.50400000000E-02 0. -1.
         -1   -1    0    0    0  501 -0.00000000000E+00 -0.00000000000E+00 -0.40242640059E+03  0.40242640062E+03  0.50400000000E-02 0.  1.
    8880023    1    1    2    0    0  0.24497876245E+03 -0.23243253805E+03  0.27133669676E+02  0.74066586332E+03  0.65864270000E+03 0.  1.
    8880022    1    1    2    0    0 -0.24497876245E+03  0.23243253805E+03  0.70680475014E+03  0.79812535771E+03  0.15294330000E+03 0.  0.
<mgrwt>
<rscale>  0 0.62267105E+03</rscale>
<asrwt>0</asrwt>
<pdfrwt beam="1">  1        1 0.17482536E+00 0.74016869E+03</pdfrwt>
<pdfrwt beam="2">  1       -1 0.61911754E-01 0.74016869E+03</pdfrwt>
<totfact> 0.32419963E+01</totfact>
</mgrwt>
</event>
<event>
 4    1  0.1043382E-007  0.6867729E+03  0.7818608E-02  0.1005726E+00
         -1   -1    0    0    0  501 -0.00000000000E+00  0.00000000000E+00  0.98410569220E+03  0.98410569222E+03  0.50400000000E-02 0.  1.
          1   -1    0    0  501    0  0.00000000000E+00 -0.00000000000E+00 -0.11675528240E+04  0.11675528240E+04  0.50400000000E-02 0. -1.
    8880023    1    1    2    0    0 -0.85277186907E+02 -0.17485612758E+03  0.84784051476E+03  0.10910960584E+04  0.65864270000E+03 0.  1.
    8880022    1    1    2    0    0  0.85277186907E+02  0.17485612758E+03 -0.10312876466E+04  0.10605624578E+04  0.15294330000E+03 0.  0.
<mgrwt>
<rscale>  0 0.53209351E+03</rscale>
<asrwt>0</asrwt>
<pdfrwt beam="1">  1        1 0.17962351E+00 0.68677294E+03</pdfrwt>
<pdfrwt beam="2">  1       -1 0.15140088E+00 0.68677294E+03</pdfrwt>
<totfact> 0.40360250E+00</totfact>
</mgrwt>
</event>
<event>
 4    1  0.1043382E-007  0.9180688E+03  0.7818608E-02  0.9497627E-01
          1   -1    0    0  501    0  0.00000000000E+00  0.00000000000E+00  0.23748199971E+04  0.23748199971E+04  0.50400000000E-02 0. -1.
         -1   -1    0    0    0  501 -0.00000000000E+00 -0.00000000000E+00 -0.57400119507E+03  0.57400119509E+03  0.50400000000E-02 0.  1.
    8880023    1    1    2    0    0  0.25027231698E+03  0.58856082737E+03 -0.11316901216E+03  0.92501757374E+03  0.65864270000E+03 0.  0.
    8880022    1    1    2    0    0 -0.25027231698E+03 -0.58856082737E+03  0.19139878142E+04  0.20238036185E+04  0.15294330000E+03 0.  0.
<mgrwt>
<rscale>  0 0.84459034E+03</rscale>
<asrwt>0</asrwt>
<pdfrwt beam="1">  1        1 0.36535692E+00 0.91806878E+03</pdfrwt>
<pdfrwt beam="2">  1       -1 0.88307877E-01 0.91806878E+03</pdfrwt>
<totfact> 0.21442313E+00</totfact>
</mgrwt>
</event>
<event>
 4    1  0.1043382E-007  0.1101879E+04  0.7818608E-02  0.9258967E-01
         -1   -1    0    0    0  501 -0.00000000000E+00  0.00000000000E+00  0.66113494122E+03  0.66113494124E+03  0.50400000000E-02 0.  1.
          1   -1    0    0  501    0  0.00000000000E+00 -0.00000000000E+00 -0.21435835450E+04  0.21435835450E+04  0.50400000000E-02 0. -1.
    8880023    1    1    2    0    0 -0.84374742828E+03  0.26156795380E+03 -0.15543978581E+04  0.19053321036E+04  0.65864270000E+03 0. -1.
    8880022    1    1    2    0    0  0.84374742828E+03 -0.26156795380E+03  0.71949254342E+02  0.89938638271E+03  0.15294330000E+03 0.  0.
<mgrwt>
<rscale>  0 0.10464983E+04</rscale>
<asrwt>0</asrwt>
<pdfrwt beam="1">  1        1 0.32978208E+00 0.11018792E+04</pdfrwt>
<pdfrwt beam="2">  1       -1 0.10171307E+00 0.11018792E+04</pdfrwt>
<totfact> 0.21796670E+00</totfact>
</mgrwt>
</event>
<event>
 4    1  0.1043382E-007  0.7164782E+03  0.7818608E-02  0.9934688E-01
         -1   -1    0    0    0  501 -0.00000000000E+00  0.00000000000E+00  0.59601307349E+03  0.59601307351E+03  0.50400000000E-02 0.  1.
          1   -1    0    0  501    0  0.00000000000E+00 -0.00000000000E+00 -0.87452399925E+03  0.87452399927E+03  0.50400000000E-02 0. -1.
    8880023    1    1    2    0    0  0.27720111548E+03 -0.51869041786E+02  0.32523983678E+03  0.78684306797E+03  0.65864270000E+03 0.  1.
    8880022    1    1    2    0    0 -0.27720111548E+03  0.51869041786E+02 -0.60375076254E+03  0.68369400481E+03  0.15294330000E+03 0.  0.
<mgrwt>
<rscale>  0 0.58609234E+03</rscale>
<asrwt>0</asrwt>
<pdfrwt beam="1">  1        1 0.13454215E+00 0.71647824E+03</pdfrwt>
<pdfrwt beam="2">  1       -1 0.91694320E-01 0.71647824E+03</pdfrwt>
<totfact> 0.22835071E+01</totfact>
</mgrwt>
</event>
<event>
 4    1  0.1043382E-007  0.1278794E+04  0.7818608E-02  0.9084092E-01
          1   -1    0    0  501    0  0.00000000000E+00  0.00000000000E+00  0.11737261924E+04  0.11737261924E+04  0.50400000000E-02 0. -1.
         -1   -1    0    0    0  501 -0.00000000000E+00 -0.00000000000E+00 -0.12609368324E+04  0.12609368324E+04  0.50400000000E-02 0.  1.
    8880023    1    1    2    0    0 -0.10013974799E+04  0.44576626367E+03 -0.28553371779E+03  0.13102840092E+04  0.65864270000E+03 0.  0.
    8880022    1    1    2    0    0  0.10013974799E+04 -0.44576626367E+03  0.19832307780E+03  0.11243790156E+04  0.15294330000E+03 0.  0.
<mgrwt>
<rscale>  0 0.12334255E+04</rscale>
<asrwt>0</asrwt>
<pdfrwt beam="1">  1        1 0.18057326E+00 0.12787942E+04</pdfrwt>
<pdfrwt beam="2">  1       -1 0.19399028E+00 0.12787942E+04</pdfrwt>
<totfact> 0.17989493E+00</totfact>
</mgrwt>
</event>
<event>
 4    1  0.1043382E-007  0.6850842E+03  0.7818608E-02  0.1006583E+00
          1   -1    0    0  501    0  0.00000000000E+00  0.00000000000E+00  0.93238460635E+03  0.93238460637E+03  0.50400000000E-02 0. -1.
         -1   -1    0    0    0  501 -0.00000000000E+00 -0.00000000000E+00 -0.31764683142E+03  0.31764683146E+03  0.50400000000E-02 0.  1.
    8880023    1    1    2    0    0  0.42805448369E+02  0.18356962865E+03  0.11528513738E+03  0.69471647752E+03  0.65864270000E+03 0.  1.
    8880022    1    1    2    0    0 -0.42805448369E+02 -0.18356962865E+03  0.49945263755E+03  0.55531496031E+03  0.15294330000E+03 0.  0.
<mgrwt>
<rscale>  0 0.52855772E+03</rscale>
<asrwt>0</asrwt>
<pdfrwt beam="1">  1        1 0.14344378E+00 0.68508417E+03</pdfrwt>
<pdfrwt beam="2">  1       -1 0.48868744E-01 0.68508417E+03</pdfrwt>
<totfact> 0.73746703E+01</totfact>
</mgrwt>
</event>
<event>
 4    1  0.1043382E-007  0.6796642E+03  0.7818608E-02  0.1009514E+00
         -1   -1    0    0    0  501 -0.00000000000E+00  0.00000000000E+00  0.22210296672E+03  0.22210296678E+03  0.50400000000E-02 0.  1.
          1   -1    0    0  501    0  0.00000000000E+00 -0.00000000000E+00 -0.17680083603E+04  0.17680083603E+04  0.50400000000E-02 0. -1.
    8880023    1    1    2    0    0  0.15908893234E+03  0.53140485534E+02 -0.33430653537E+03  0.75743268048E+03  0.65864270000E+03 0.  0.
    8880022    1    1    2    0    0 -0.15908893234E+03 -0.53140485534E+02 -0.12115988582E+04  0.12326786466E+04  0.15294330000E+03 0. -1.
<mgrwt>
<rscale>  0 0.51668147E+03</rscale>
<asrwt>0</asrwt>
<pdfrwt beam="1">  1        1 0.27200128E+00 0.67966419E+03</pdfrwt>
<pdfrwt beam="2">  1       -1 0.34169688E-01 0.67966419E+03</pdfrwt>
<totfact> 0.36182417E+01</totfact>
</mgrwt>
</event>
<event>
 4    1  0.1043382E-007  0.7330747E+03  0.7818608E-02  0.9880599E-01
         -1   -1    0    0    0  501 -0.00000000000E+00  0.00000000000E+00  0.64713612603E+03  0.64713612605E+03  0.50400000000E-02 0.  1.
          1   -1    0    0  501    0  0.00000000000E+00 -0.00000000000E+00 -0.95013441635E+03  0.95013441636E+03  0.50400000000E-02 0. -1.
    8880023    1    1    2    0    0  0.31309232142E+03  0.74575722933E+02  0.38088450989E+03  0.82611836702E+03  0.65864270000E+03 0.  0.
    8880022    1    1    2    0    0 -0.31309232142E+03 -0.74575722933E+02 -0.68388280021E+03  0.77115217539E+03  0.15294330000E+03 0.  0.
<mgrwt>
<rscale>  0 0.61210806E+03</rscale>
<asrwt>0</asrwt>
<pdfrwt beam="1">  1        1 0.14617453E+00 0.73307472E+03</pdfrwt>
<pdfrwt beam="2">  1       -1 0.99559404E-01 0.73307472E+03</pdfrwt>
<totfact> 0.16462386E+01</totfact>
</mgrwt>
</event>
<event>
 4    1  0.1043382E-007  0.6877505E+03  0.7818608E-02  0.1005241E+00
         -1   -1    0    0    0  501 -0.00000000000E+00  0.00000000000E+00  0.70889193132E+03  0.70889193134E+03  0.50400000000E-02 0.  1.
          1   -1    0    0  501    0  0.00000000000E+00 -0.00000000000E+00 -0.66461273286E+03  0.66461273288E+03  0.50400000000E-02 0. -1.
    8880023    1    1    2    0    0  0.17316284447E+02  0.19720732612E+03  0.50227911105E+03  0.85163671529E+03  0.65864270000E+03 0.  1.
    8880022    1    1    2    0    0 -0.17316284447E+02 -0.19720732612E+03 -0.45799991258E+03  0.52186794893E+03  0.15294330000E+03 0.  0.
<mgrwt>
<rscale>  0 0.53410862E+03</rscale>
<asrwt>0</asrwt>
<pdfrwt beam="1">  1        1 0.10224811E+00 0.68775053E+03</pdfrwt>
<pdfrwt beam="2">  1       -1 0.10906030E+00 0.68775053E+03</pdfrwt>
<totfact> 0.23706955E+01</totfact>
</mgrwt>
</event>
<event>
 4    1  0.1043382E-007  0.6600212E+03  0.7818608E-02  0.1024135E+00
         -1   -1    0    0    0  501 -0.00000000000E+00  0.00000000000E+00  0.14084645774E+04  0.14084645774E+04  0.50400000000E-02 0.  1.
          1   -1    0    0  501    0  0.00000000000E+00 -0.00000000000E+00 -0.49886866779E+03  0.49886866782E+03  0.50400000000E-02 0. -1.
    8880023    1    1    2    0    0 -0.35663337007E+01 -0.42486709925E+02  0.13153299480E+04  0.14716388544E+04  0.65864270000E+03 0.  1.
    8880022    1    1    2    0    0  0.35663337007E+01  0.42486709925E+02 -0.40573403843E+03  0.43569439084E+03  0.15294330000E+03 0.  0.
<mgrwt>
<rscale>  0 0.46223619E+03</rscale>
<asrwt>0</asrwt>
<pdfrwt beam="1">  1        1 0.76749026E-01 0.66002125E+03</pdfrwt>
<pdfrwt beam="2">  1       -1 0.21668686E+00 0.66002125E+03</pdfrwt>
<totfact> 0.54119761E+00</totfact>
</mgrwt>
</event>
<event>
 4    1  0.1043382E-007  0.8038470E+03  0.7818608E-02  0.9702539E-01
          1   -1    0    0  501    0  0.00000000000E+00  0.00000000000E+00  0.73823700044E+03  0.73823700046E+03  0.50400000000E-02 0. -1.
         -1   -1    0    0    0  501 -0.00000000000E+00 -0.00000000000E+00 -0.92002904188E+03  0.92002904189E+03  0.50400000000E-02 0.  1.
    8880023    1    1    2    0    0  0.40552081558E+03 -0.21888950009E+03 -0.61140702464E+03  0.10099448010E+04  0.65864270000E+03 0.  1.
    8880022    1    1    2    0    0 -0.40552081558E+03  0.21888950009E+03  0.42961498320E+03  0.64832124130E+03  0.15294330000E+03 0.  0.
<mgrwt>
<rscale>  0 0.70865820E+03</rscale>
<asrwt>0</asrwt>
<pdfrwt beam="1">  1        1 0.11357492E+00 0.80384697E+03</pdfrwt>
<pdfrwt beam="2">  1       -1 0.14154293E+00 0.80384697E+03</pdfrwt>
<totfact> 0.10465802E+01</totfact>
</mgrwt>
</event>
<event>
 4    1  0.1043382E-007  0.6718715E+03  0.7818608E-02  0.1014355E+00
          1   -1    0    0  501    0  0.00000000000E+00  0.00000000000E+00  0.22985446710E+03  0.22985446716E+03  0.50400000000E-02 0. -1.
         -1   -1    0    0    0  501 -0.00000000000E+00 -0.00000000000E+00 -0.10350626108E+04  0.10350626108E+04  0.50400000000E-02 0.  1.
    8880023    1    1    2    0    0 -0.45036517684E+02 -0.12479087207E+03 -0.82212594917E+03  0.10617449469E+04  0.65864270000E+03 0.  1.
    8880022    1    1    2    0    0  0.45036517684E+02  0.12479087207E+03  0.16917805507E+02  0.20317213105E+03  0.15294330000E+03 0.  0.
<mgrwt>
<rscale>  0 0.49779779E+03</rscale>
<asrwt>0</asrwt>
<pdfrwt beam="1">  1        1 0.35362226E-01 0.67187146E+03</pdfrwt>
<pdfrwt beam="2">  1       -1 0.15924040E+00 0.67187146E+03</pdfrwt>
<totfact> 0.37787138E+01</totfact>
</mgrwt>
</event>
<event>
 4    1  0.1043382E-007  0.8846302E+03  0.7818608E-02  0.9551170E-01
          1   -1    0    0  501    0  0.00000000000E+00  0.00000000000E+00  0.27693670644E+04  0.27693670645E+04  0.50400000000E-02 0. -1.
         -1   -1    0    0    0  501 -0.00000000000E+00 -0.00000000000E+00 -0.28271784173E+03  0.28271784177E+03  0.50400000000E-02 0.  1.
    8880023    1    1    2    0    0 -0.55963130553E+03 -0.18860863530E+03  0.59910788695E+03  0.10684104464E+04  0.65864270000E+03 0.  0.
    8880022    1    1    2    0    0  0.55963130553E+03  0.18860863530E+03  0.18875413358E+04  0.19836744599E+04  0.15294330000E+03 0.  0.
<mgrwt>
<rscale>  0 0.80614169E+03</rscale>
<asrwt>0</asrwt>
<pdfrwt beam="1">  1        1 0.42605647E+00 0.88463022E+03</pdfrwt>
<pdfrwt beam="2">  1       -1 0.43495053E-01 0.88463022E+03</pdfrwt>
<totfact> 0.47553598E+00</totfact>
</mgrwt>
</event>
<event>
 4    1  0.1043382E-007  0.8119310E+03  0.7818608E-02  0.9685569E-01
          1   -1    0    0  501    0  0.00000000000E+00  0.00000000000E+00  0.31396231744E+04  0.31396231744E+04  0.50400000000E-02 0. -1.
         -1   -1    0    0    0  501 -0.00000000000E+00 -0.00000000000E+00 -0.38562016946E+03  0.38562016949E+03  0.50400000000E-02 0.  1.
    8880023    1    1    2    0    0 -0.47273544135E+03 -0.44078632309E+02  0.92249778599E+02  0.81715479026E+03  0.65864270000E+03 0.  1.
    8880022    1    1    2    0    0  0.47273544135E+03  0.44078632309E+02  0.26617532263E+04  0.27080885536E+04  0.15294330000E+03 0.  0.
<mgrwt>
<rscale>  0 0.71882563E+03</rscale>
<asrwt>0</asrwt>
<pdfrwt beam="1">  1        1 0.48301894E+00 0.81193099E+03</pdfrwt>
<pdfrwt beam="2">  1       -1 0.59326181E-01 0.81193099E+03</pdfrwt>
<totfact> 0.14482054E+00</totfact>
</mgrwt>
</event>
<event>
 4    1  0.1043382E-007  0.7156043E+03  0.7818608E-02  0.9937750E-01
          1   -1    0    0  501    0  0.00000000000E+00  0.00000000000E+00  0.13868972225E+04  0.13868972225E+04  0.50400000000E-02 0. -1.
         -1   -1    0    0    0  501 -0.00000000000E+00 -0.00000000000E+00 -0.38307861878E+03  0.38307861881E+03  0.50400000000E-02 0.  1.
    8880023    1    1    2    0    0  0.13397469843E+03 -0.24562185942E+03 -0.11820447658E+01  0.71560528306E+03  0.65864270000E+03 0.  1.
    8880022    1    1    2    0    0 -0.13397469843E+03  0.24562185942E+03  0.10050006485E+04  0.10543705582E+04  0.15294330000E+03 0.  0.
<mgrwt>
<rscale>  0 0.58466128E+03</rscale>
<asrwt>0</asrwt>
<pdfrwt beam="1">  1        1 0.21336880E+00 0.71560431E+03</pdfrwt>
<pdfrwt beam="2">  1       -1 0.58935172E-01 0.71560431E+03</pdfrwt>
<totfact> 0.23742970E+01</totfact>
</mgrwt>
</event>
<event>
 4    1  0.1043382E-007  0.8089626E+03  0.7818608E-02  0.9691742E-01
          1   -1    0    0  501    0  0.00000000000E+00  0.00000000000E+00  0.13356971758E+04  0.13356971759E+04  0.50400000000E-02 0. -1.
         -1   -1    0    0    0  501 -0.00000000000E+00 -0.00000000000E+00 -0.58264712524E+03  0.58264712527E+03  0.50400000000E-02 0.  1.
    8880023    1    1    2    0    0  0.40138316785E+03  0.24393003232E+03 -0.21019755594E+03  0.83582505758E+03  0.65864270000E+03 0.  1.
    8880022    1    1    2    0    0 -0.40138316785E+03 -0.24393003232E+03  0.96324760655E+03  0.10825192435E+04  0.15294330000E+03 0.  0.
<mgrwt>
<rscale>  0 0.71510614E+03</rscale>
<asrwt>0</asrwt>
<pdfrwt beam="1">  1        1 0.20549187E+00 0.80896262E+03</pdfrwt>
<pdfrwt beam="2">  1       -1 0.89638021E-01 0.80896262E+03</pdfrwt>
<totfact> 0.10682463E+01</totfact>
</mgrwt>
</event>
<event>
 4    1  0.1043382E-007  0.7117205E+03  0.7818608E-02  0.9951667E-01
         -1   -1    0    0    0  501 -0.00000000000E+00  0.00000000000E+00  0.39531751036E+03  0.39531751039E+03  0.50400000000E-02 0.  1.
          1   -1    0    0  501    0  0.00000000000E+00 -0.00000000000E+00 -0.14175905485E+04  0.14175905485E+04  0.50400000000E-02 0. -1.
    8880023    1    1    2    0    0  0.21781452986E+02  0.26881482392E+03  0.33542926318E+02  0.71251047390E+03  0.65864270000E+03 0.  1.
    8880022    1    1    2    0    0 -0.21781452986E+02 -0.26881482392E+03 -0.10558159645E+04  0.11003975850E+04  0.15294330000E+03 0.  0.
<mgrwt>
<rscale>  0 0.57821327E+03</rscale>
<asrwt>0</asrwt>
<pdfrwt beam="1">  1        1 0.21809085E+00 0.71172048E+03</pdfrwt>
<pdfrwt beam="2">  1       -1 0.60818079E-01 0.71172048E+03</pdfrwt>
<totfact> 0.21262114E+01</totfact>
</mgrwt>
</event>
<event>
 4    1  0.1043382E-007  0.7864379E+03  0.7818608E-02  0.9740926E-01
         -1   -1    0    0    0  501 -0.00000000000E+00  0.00000000000E+00  0.36160938620E+03  0.36160938624E+03  0.50400000000E-02 0.  1.
          1   -1    0    0  501    0  0.00000000000E+00 -0.00000000000E+00 -0.17737363619E+04  0.17737363619E+04  0.50400000000E-02 0. -1.
    8880023    1    1    2    0    0 -0.18974188820E+02 -0.42931839399E+03 -0.15976695503E+03  0.80250232987E+03  0.65864270000E+03 0.  0.
    8880022    1    1    2    0    0  0.18974188820E+02  0.42931839399E+03 -0.12523600207E+04  0.13328434183E+04  0.15294330000E+03 0.  0.
<mgrwt>
<rscale>  0 0.68631492E+03</rscale>
<asrwt>0</asrwt>
<pdfrwt beam="1">  1        1 0.27288251E+00 0.78643786E+03</pdfrwt>
<pdfrwt beam="2">  1       -1 0.55632214E-01 0.78643786E+03</pdfrwt>
<totfact> 0.14355300E+01</totfact>
</mgrwt>
</event>
<event>
 4    1  0.1043382E-007  0.6998840E+03  0.7818608E-02  0.9997683E-01
          1   -1    0    0  501    0  0.00000000000E+00  0.00000000000E+00  0.71104434364E+03  0.71104434365E+03  0.50400000000E-02 0. -1.
         -1   -1    0    0    0  501 -0.00000000000E+00 -0.00000000000E+00 -0.10074935262E+04  0.10074935262E+04  0.50400000000E-02 0.  1.
    8880023    1    1    2    0    0  0.18113974313E+03 -0.15236747058E+03 -0.84778479961E+03  0.10993528666E+04  0.65864270000E+03 0.  1.
    8880022    1    1    2    0    0 -0.18113974313E+03  0.15236747058E+03  0.55133561704E+03  0.61918500326E+03  0.15294330000E+03 0.  0.
<mgrwt>
<rscale>  0 0.55751966E+03</rscale>
<asrwt>0</asrwt>
<pdfrwt beam="1">  1        1 0.10939144E+00 0.69988403E+03</pdfrwt>
<pdfrwt beam="2">  1       -1 0.15499900E+00 0.69988403E+03</pdfrwt>
<totfact> 0.88184920E+00</totfact>
</mgrwt>
</event>
<event>
 4    1  0.1043382E-007  0.9029145E+03  0.7818608E-02  0.9521369E-01
          1   -1    0    0  501    0  0.00000000000E+00  0.00000000000E+00  0.17214689303E+04  0.17214689303E+04  0.50400000000E-02 0. -1.
         -1   -1    0    0    0  501 -0.00000000000E+00 -0.00000000000E+00 -0.82015187944E+03  0.82015187946E+03  0.50400000000E-02 0.  1.
    8880023    1    1    2    0    0  0.58144253300E+03  0.20825225429E+03 -0.47871835890E+03  0.10219715720E+04  0.65864270000E+03 0.  0.
    8880022    1    1    2    0    0 -0.58144253300E+03 -0.20825225429E+03  0.13800354098E+04  0.15196492378E+04  0.15294330000E+03 0.  0.
<mgrwt>
<rscale>  0 0.82726543E+03</rscale>
<asrwt>0</asrwt>
<pdfrwt beam="1">  1        1 0.26484137E+00 0.90291452E+03</pdfrwt>
<pdfrwt beam="2">  1       -1 0.12617721E+00 0.90291452E+03</pdfrwt>
<totfact> 0.25740893E+00</totfact>
</mgrwt>
</event>
<event>
 4    1  0.1043382E-007  0.8556162E+03  0.7818608E-02  0.9601410E-01
         -1   -1    0    0    0  501 -0.00000000000E+00  0.00000000000E+00  0.95074382715E+03  0.95074382716E+03  0.50400000000E-02 0.  1.
          1   -1    0    0  501    0  0.00000000000E+00 -0.00000000000E+00 -0.10767676185E+04  0.10767676185E+04  0.50400000000E-02 0. -1.
    8880023    1    1    2    0    0 -0.19754963239E+03  0.50915906835E+03  0.64419283345E+03  0.10710104701E+04  0.65864270000E+03 0.  0.
    8880022    1    1    2    0    0  0.19754963239E+03 -0.50915906835E+03 -0.77021662475E+03  0.95650097553E+03  0.15294330000E+03 0.  0.
<mgrwt>
<rscale>  0 0.77202959E+03</rscale>
<asrwt>0</asrwt>
<pdfrwt beam="1">  1        1 0.16565656E+00 0.85561616E+03</pdfrwt>
<pdfrwt beam="2">  1       -1 0.14626828E+00 0.85561616E+03</pdfrwt>
<totfact> 0.50328915E+00</totfact>
</mgrwt>
</event>
<event>
 4    1  0.1043382E-007  0.9788528E+03  0.7818608E-02  0.9409763E-01
         -1   -1    0    0    0  501 -0.00000000000E+00  0.00000000000E+00  0.54223755722E+03  0.54223755724E+03  0.50400000000E-02 0.  1.
          1   -1    0    0  501    0  0.00000000000E+00 -0.00000000000E+00 -0.30094894493E+04  0.30094894493E+04  0.50400000000E-02 0. -1.
    8880023    1    1    2    0    0 -0.21878902845E+03 -0.69027093635E+03 -0.31249188202E+01  0.97885779147E+03  0.65864270000E+03 0.  0.
    8880022    1    1    2    0    0  0.21878902845E+03  0.69027093635E+03 -0.24641269733E+04  0.25728692151E+04  0.15294330000E+03 0.  0.
<mgrwt>
<rscale>  0 0.91276563E+03</rscale>
<asrwt>0</asrwt>
<pdfrwt beam="1">  1        1 0.46299837E+00 0.97885280E+03</pdfrwt>
<pdfrwt beam="2">  1       -1 0.83421164E-01 0.97885280E+03</pdfrwt>
<totfact> 0.86568136E-01</totfact>
</mgrwt>
</event>
<event>
 4    1  0.1043382E-007  0.8738442E+03  0.7818608E-02  0.9569396E-01
          1   -1    0    0  501    0  0.00000000000E+00  0.00000000000E+00  0.48656259745E+03  0.48656259748E+03  0.50400000000E-02 0. -1.
         -1   -1    0    0    0  501 -0.00000000000E+00 -0.00000000000E+00 -0.15898564261E+04  0.15898564261E+04  0.50400000000E-02 0.  1.
    8880023    1    1    2    0    0  0.47725580338E+03  0.31940634445E+03 -0.11894224374E+04  0.14759164798E+04  0.65864270000E+03 0.  0.
    8880022    1    1    2    0    0 -0.47725580338E+03 -0.31940634445E+03  0.86128608747E+02  0.60050254370E+03  0.15294330000E+03 0.  0.
<mgrwt>
<rscale>  0 0.79355279E+03</rscale>
<asrwt>0</asrwt>
<pdfrwt beam="1">  1        1 0.74855785E-01 0.87384422E+03</pdfrwt>
<pdfrwt beam="2">  1       -1 0.24459330E+00 0.87384422E+03</pdfrwt>
<totfact> 0.35623466E+00</totfact>
</mgrwt>
</event>
<event>
 4    1  0.1043382E-007  0.7923788E+03  0.7818608E-02  0.9727523E-01
          1   -1    0    0  501    0  0.00000000000E+00  0.00000000000E+00  0.96368413881E+03  0.96368413882E+03  0.50400000000E-02 0. -1.
         -1   -1    0    0    0  501 -0.00000000000E+00 -0.00000000000E+00 -0.71520655375E+03  0.71520655377E+03  0.50400000000E-02 0.  1.
    8880023    1    1    2    0    0  0.19877606043E+03  0.39311836982E+03 -0.39407596883E+03  0.88496330453E+03  0.65864270000E+03 0.  1.
    8880022    1    1    2    0    0 -0.19877606043E+03 -0.39311836982E+03  0.64255355389E+03  0.79392738807E+03  0.15294330000E+03 0.  0.
<mgrwt>
<rscale>  0 0.69401439E+03</rscale>
<asrwt>0</asrwt>
<pdfrwt beam="1">  1        1 0.14825910E+00 0.79237881E+03</pdfrwt>
<pdfrwt beam="2">  1       -1 0.11003178E+00 0.79237881E+03</pdfrwt>
<totfact> 0.12641766E+01</totfact>
</mgrwt>
</event>
<event>
 4    1  0.1043382E-007  0.8668834E+03  0.7818608E-02  0.9581435E-01
          1   -1    0    0  501    0  0.00000000000E+00  0.00000000000E+00  0.87548811355E+03  0.87548811356E+03  0.50400000000E-02 0. -1.
         -1   -1    0    0    0  501 -0.00000000000E+00 -0.00000000000E+00 -0.85890443278E+03  0.85890443280E+03  0.50400000000E-02 0.  1.
    8880023    1    1    2    0    0  0.31407102078E+03 -0.46801281146E+03 -0.45930217424E+03  0.98104296099E+03  0.65864270000E+03 0.  1.
    8880022    1    1    2    0    0 -0.31407102078E+03  0.46801281146E+03  0.47588585500E+03  0.75334958537E+03  0.15294330000E+03 0.  0.
<mgrwt>
<rscale>  0 0.78537247E+03</rscale>
<asrwt>0</asrwt>
<pdfrwt beam="1">  1        1 0.13469048E+00 0.86688339E+03</pdfrwt>
<pdfrwt beam="2">  1       -1 0.13213914E+00 0.86688339E+03</pdfrwt>
<totfact> 0.94324009E+00</totfact>
</mgrwt>
</event>
<event>
 4    1  0.1043382E-007  0.7977497E+03  0.7818608E-02  0.9715683E-01
         -1   -1    0    0    0  501 -0.00000000000E+00  0.00000000000E+00  0.33222755125E+03  0.33222755129E+03  0.50400000000E-02 0.  1.
          1   -1    0    0  501    0  0.00000000000E+00 -0.00000000000E+00 -0.17174494611E+04  0.17174494611E+04  0.50400000000E-02 0. -1.
    8880023    1    1    2    0    0 -0.40216031999E+03  0.20214201850E+03 -0.27814061210E+03  0.84484716072E+03  0.65864270000E+03 0.  0.
    8880022    1    1    2    0    0  0.40216031999E+03 -0.20214201850E+03 -0.11070812977E+04  0.12048298516E+04  0.15294330000E+03 0.  0.
<mgrwt>
<rscale>  0 0.70090661E+03</rscale>
<asrwt>0</asrwt>
<pdfrwt beam="1">  1        1 0.26422299E+00 0.79774966E+03</pdfrwt>
<pdfrwt beam="2">  1       -1 0.51111932E-01 0.79774966E+03</pdfrwt>
<totfact> 0.18404024E+01</totfact>
</mgrwt>
</event>
<event>
 4    1  0.1043382E-007  0.7453057E+03  0.7818608E-02  0.9844753E-01
         -1   -1    0    0    0  501 -0.00000000000E+00  0.00000000000E+00  0.65223665499E+03  0.65223665501E+03  0.50400000000E-02 0.  1.
          1   -1    0    0  501    0  0.00000000000E+00 -0.00000000000E+00 -0.84275558958E+03  0.84275558960E+03  0.50400000000E-02 0. -1.
    8880023    1    1    2    0    0 -0.18564898379E+03  0.29530464735E+03  0.35830330598E+03  0.82695939759E+03  0.65864270000E+03 0.  1.
    8880022    1    1    2    0    0  0.18564898379E+03 -0.29530464735E+03 -0.54882224057E+03  0.66803284701E+03  0.15294330000E+03 0.  0.
<mgrwt>
<rscale>  0 0.63015161E+03</rscale>
<asrwt>0</asrwt>
<pdfrwt beam="1">  1        1 0.12965471E+00 0.74530570E+03</pdfrwt>
<pdfrwt beam="2">  1       -1 0.10034410E+00 0.74530570E+03</pdfrwt>
<totfact> 0.19755282E+01</totfact>
</mgrwt>
</event>
<event>
 4    1  0.1043382E-007  0.6646099E+03  0.7818608E-02  0.1019863E+00
         -1   -1    0    0    0  501 -0.00000000000E+00  0.00000000000E+00  0.10735523449E+04  0.10735523449E+04  0.50400000000E-02 0.  1.
          1   -1    0    0  501    0  0.00000000000E+00 -0.00000000000E+00 -0.27579320589E+03  0.27579320593E+03  0.50400000000E-02 0. -1.
    8880023    1    1    2    0    0  0.64440785369E+02  0.61183686442E+02  0.91955380296E+03  0.11345860307E+04  0.65864270000E+03 0.  1.
    8880022    1    1    2    0    0 -0.64440785369E+02 -0.61183686442E+02 -0.12179466394E+03  0.21475952013E+03  0.15294330000E+03 0.  0.
<mgrwt>
<rscale>  0 0.47736086E+03</rscale>
<asrwt>0</asrwt>
<pdfrwt beam="1">  1        1 0.42429724E-01 0.66460986E+03</pdfrwt>
<pdfrwt beam="2">  1       -1 0.16516190E+00 0.66460986E+03</pdfrwt>
<totfact> 0.26996958E+01</totfact>
</mgrwt>
</event>
<event>
 4    1  0.1043382E-007  0.9623661E+03  0.7818608E-02  0.9432541E-01
          1   -1    0    0  501    0  0.00000000000E+00  0.00000000000E+00  0.27187508268E+04  0.27187508268E+04  0.50400000000E-02 0. -1.
         -1   -1    0    0    0  501 -0.00000000000E+00 -0.00000000000E+00 -0.27517060146E+03  0.27517060150E+03  0.50400000000E-02 0.  1.
    8880023    1    1    2    0    0 -0.68837153987E+03 -0.13595171028E+03  0.10378351092E+04  0.14153622026E+04  0.65864270000E+03 0.  0.
    8880022    1    1    2    0    0  0.68837153987E+03  0.13595171028E+03  0.14057451161E+04  0.15785592257E+04  0.15294330000E+03 0.  1.
<mgrwt>
<rscale>  0 0.89445401E+03</rscale>
<asrwt>0</asrwt>
<pdfrwt beam="1">  1        1 0.41826936E+00 0.96236607E+03</pdfrwt>
<pdfrwt beam="2">  1       -1 0.42333939E-01 0.96236607E+03</pdfrwt>
<totfact> 0.53636503E+00</totfact>
</mgrwt>
</event>
<event>
 4    1  0.1043382E-007  0.8168053E+03  0.7818608E-02  0.9675572E-01
          1   -1    0    0  501    0  0.00000000000E+00  0.00000000000E+00  0.12741528935E+04  0.12741528935E+04  0.50400000000E-02 0. -1.
         -1   -1    0    0    0  501 -0.00000000000E+00 -0.00000000000E+00 -0.38902503343E+03  0.38902503347E+03  0.50400000000E-02 0.  1.
    8880023    1    1    2    0    0 -0.39324112139E+03  0.28057453594E+03  0.25728105829E+03  0.85636697682E+03  0.65864270000E+03 0.  1.
    8880022    1    1    2    0    0  0.39324112139E+03 -0.28057453594E+03  0.62784680175E+03  0.80681095013E+03  0.15294330000E+03 0.  0.
<mgrwt>
<rscale>  0 0.72490016E+03</rscale>
<asrwt>0</asrwt>
<pdfrwt beam="1">  1        1 0.19602352E+00 0.81680527E+03</pdfrwt>
<pdfrwt beam="2">  1       -1 0.59850005E-01 0.81680527E+03</pdfrwt>
<totfact> 0.27316882E+01</totfact>
</mgrwt>
</event>
<event>
 4    1  0.1043382E-007  0.6912957E+03  0.7818608E-02  0.1003543E+00
          1   -1    0    0  501    0  0.00000000000E+00  0.00000000000E+00  0.10372674979E+04  0.10372674979E+04  0.50400000000E-02 0. -1.
         -1   -1    0    0    0  501 -0.00000000000E+00 -0.00000000000E+00 -0.30313857289E+03  0.30313857293E+03  0.50400000000E-02 0.  1.
    8880023    1    1    2    0    0  0.19768574618E+03  0.70710323887E+02  0.15900794462E+03  0.70934712015E+03  0.65864270000E+03 0.  1.
    8880022    1    1    2    0    0 -0.19768574618E+03 -0.70710323887E+02  0.57512098035E+03  0.63105895065E+03  0.15294330000E+03 0.  0.
<mgrwt>
<rscale>  0 0.54123736E+03</rscale>
<asrwt>0</asrwt>
<pdfrwt beam="1">  1        1 0.15957962E+00 0.69129575E+03</pdfrwt>
<pdfrwt beam="2">  1       -1 0.46636703E-01 0.69129575E+03</pdfrwt>
<totfact> 0.66654901E+01</totfact>
</mgrwt>
</event>
<event>
 4    1  0.1043382E-007  0.1078978E+04  0.7818608E-02  0.9284830E-01
          1   -1    0    0  501    0  0.00000000000E+00  0.00000000000E+00  0.11286075684E+04  0.11286075684E+04  0.50400000000E-02 0. -1.
         -1   -1    0    0    0  501 -0.00000000000E+00 -0.00000000000E+00 -0.89402914231E+03  0.89402914232E+03  0.50400000000E-02 0.  1.
    8880023    1    1    2    0    0 -0.48943531238E+03 -0.70059706445E+03  0.37676811714E+03  0.11428681429E+04  0.65864270000E+03 0.  0.
    8880022    1    1    2    0    0  0.48943531238E+03  0.70059706445E+03 -0.14218969102E+03  0.87976856785E+03  0.15294330000E+03 0.  0.
<mgrwt>
<rscale>  0 0.10219147E+04</rscale>
<asrwt>0</asrwt>
<pdfrwt beam="1">  1        1 0.17363193E+00 0.10789779E+04</pdfrwt>
<pdfrwt beam="2">  1       -1 0.13754295E+00 0.10789779E+04</pdfrwt>
<totfact> 0.52665580E+00</totfact>
</mgrwt>
</event>
<event>
 4    1  0.1043382E-007  0.8082160E+03  0.7818608E-02  0.9693305E-01
         -1   -1    0    0    0  501 -0.00000000000E+00  0.00000000000E+00  0.90691731361E+03  0.90691731363E+03  0.50400000000E-02 0.  1.
          1   -1    0    0  501    0  0.00000000000E+00 -0.00000000000E+00 -0.81855926825E+03  0.81855926827E+03  0.50400000000E-02 0. -1.
    8880023    1    1    2    0    0  0.46835586753E+03  0.67559928165E+01  0.60648141028E+03  0.10104616615E+04  0.65864270000E+03 0.  1.
    8880022    1    1    2    0    0 -0.46835586753E+03 -0.67559928165E+01 -0.51812336492E+03  0.71501492039E+03  0.15294330000E+03 0.  0.
<mgrwt>
<rscale>  0 0.71416808E+03</rscale>
<asrwt>0</asrwt>
<pdfrwt beam="1">  1        1 0.12593220E+00 0.80821598E+03</pdfrwt>
<pdfrwt beam="2">  1       -1 0.13952574E+00 0.80821598E+03</pdfrwt>
<totfact> 0.92251859E+00</totfact>
</mgrwt>
</event>
<event>
 4    1  0.1043382E-007  0.7135984E+03  0.7818608E-02  0.9944874E-01
          1   -1    0    0  501    0  0.00000000000E+00  0.00000000000E+00  0.20929891916E+04  0.20929891916E+04  0.50400000000E-02 0. -1.
         -1   -1    0    0    0  501 -0.00000000000E+00 -0.00000000000E+00 -0.18061221380E+03  0.18061221387E+03  0.50400000000E-02 0.  1.
    8880023    1    1    2    0    0  0.54682333287E+01 -0.27455882251E+03  0.62563148620E+03  0.94901918388E+03  0.65864270000E+03 0.  0.
    8880022    1    1    2    0    0 -0.54682333287E+01  0.27455882251E+03  0.12867454916E+04  0.13245822216E+04  0.15294330000E+03 0.  0.
<mgrwt>
<rscale>  0 0.58134945E+03</rscale>
<asrwt>0</asrwt>
<pdfrwt beam="1">  1        1 0.32199836E+00 0.71359838E+03</pdfrwt>
<pdfrwt beam="2">  1       -1 0.27786493E-01 0.71359838E+03</pdfrwt>
<totfact> 0.31366135E+01</totfact>
</mgrwt>
</event>
<event>
 4    1  0.1043382E-007  0.9632079E+03  0.7818608E-02  0.9431360E-01
          1   -1    0    0  501    0  0.00000000000E+00  0.00000000000E+00  0.26062679815E+04  0.26062679815E+04  0.50400000000E-02 0. -1.
         -1   -1    0    0    0  501 -0.00000000000E+00 -0.00000000000E+00 -0.29760379106E+03  0.29760379110E+03  0.50400000000E-02 0.  1.
    8880023    1    1    2    0    0  0.62203344241E+03 -0.32715996130E+03  0.88142186488E+03  0.13056316302E+04  0.65864270000E+03 0.  0.
    8880022    1    1    2    0    0 -0.62203344241E+03  0.32715996130E+03  0.14272423255E+04  0.15982401423E+04  0.15294330000E+03 0.  0.
<mgrwt>
<rscale>  0 0.89539193E+03</rscale>
<asrwt>0</asrwt>
<pdfrwt beam="1">  1        1 0.40096431E+00 0.96320790E+03</pdfrwt>
<pdfrwt beam="2">  1       -1 0.45785198E-01 0.96320790E+03</pdfrwt>
<totfact> 0.55514468E+00</totfact>
</mgrwt>
</event>
<event>
 4    1  0.1043382E-007  0.6587335E+03  0.7818608E-02  0.1025493E+00
         -1   -1    0    0    0  501 -0.00000000000E+00  0.00000000000E+00  0.27345692662E+03  0.27345692667E+03  0.50400000000E-02 0.  1.
          1   -1    0    0  501    0  0.00000000000E+00 -0.00000000000E+00 -0.11455665863E+04  0.11455665863E+04  0.50400000000E-02 0. -1.
    8880023    1    1    2    0    0  0.33612704610E+01  0.10405959850E+02 -0.14314511759E+03  0.67410704869E+03  0.65864270000E+03 0.  1.
    8880022    1    1    2    0    0 -0.33612704610E+01 -0.10405959850E+02 -0.72896454210E+03  0.74491646431E+03  0.15294330000E+03 0.  0.
<mgrwt>
<rscale>  0 0.45755334E+03</rscale>
<asrwt>0</asrwt>
<pdfrwt beam="1">  1        1 0.17624101E+00 0.65873347E+03</pdfrwt>
<pdfrwt beam="2">  1       -1 0.42070297E-01 0.65873347E+03</pdfrwt>
<totfact> 0.67169201E+01</totfact>
</mgrwt>
</event>
<event>
 4    1  0.1043382E-007  0.6640451E+03  0.7818608E-02  0.1020348E+00
         -1   -1    0    0    0  501 -0.00000000000E+00  0.00000000000E+00  0.13479888204E+03  0.13479888213E+03  0.50400000000E-02 0.  1.
          1   -1    0    0  501    0  0.00000000000E+00 -0.00000000000E+00 -0.16982961143E+04  0.16982961144E+04  0.50400000000E-02 0. -1.
    8880023    1    1    2    0    0  0.78196898847E+02 -0.32107383942E+02 -0.75300609160E+03  0.10039790931E+04  0.65864270000E+03 0.  1.
    8880022    1    1    2    0    0 -0.78196898847E+02  0.32107383942E+02 -0.81049114071E+03  0.82911590340E+03  0.15294330000E+03 0.  0.
<mgrwt>
<rscale>  0 0.47561110E+03</rscale>
<asrwt>0</asrwt>
<pdfrwt beam="1">  1        1 0.26127631E+00 0.66404506E+03</pdfrwt>
<pdfrwt beam="2">  1       -1 0.20738291E-01 0.66404506E+03</pdfrwt>
<totfact> 0.95108885E+01</totfact>
</mgrwt>
</event>
<event>
 4    1  0.1043382E-007  0.7240553E+03  0.7818608E-02  0.9909096E-01
          1   -1    0    0  501    0  0.00000000000E+00  0.00000000000E+00  0.11963216854E+04  0.11963216854E+04  0.50400000000E-02 0. -1.
         -1   -1    0    0    0  501 -0.00000000000E+00 -0.00000000000E+00 -0.12555612842E+04  0.12555612842E+04  0.50400000000E-02 0.  1.
    8880023    1    1    2    0    0 -0.21145657461E+03  0.21385028603E+03 -0.11228407948E+04  0.13360492074E+04  0.65864270000E+03 0.  1.
    8880022    1    1    2    0    0  0.21145657461E+03 -0.21385028603E+03  0.10636011960E+04  0.11158337623E+04  0.15294330000E+03 0.  0.
<mgrwt>
<rscale>  0 0.59822485E+03</rscale>
<asrwt>0</asrwt>
<pdfrwt beam="1">  1        1 0.18404949E+00 0.72405527E+03</pdfrwt>
<pdfrwt beam="2">  1       -1 0.19316328E+00 0.72405527E+03</pdfrwt>
<totfact> 0.18963046E+00</totfact>
</mgrwt>
</event>
<event>
 4    1  0.1043382E-007  0.1058877E+04  0.7818608E-02  0.9308286E-01
          1   -1    0    0  501    0  0.00000000000E+00  0.00000000000E+00  0.14409912084E+04  0.14409912084E+04  0.50400000000E-02 0. -1.
         -1   -1    0    0    0  501 -0.00000000000E+00 -0.00000000000E+00 -0.82104402288E+03  0.82104402290E+03  0.50400000000E-02 0.  1.
    8880023    1    1    2    0    0 -0.36065298424E+02 -0.82831684286E+03 -0.20942264489E+03  0.10793875802E+04  0.65864270000E+03 0.  0.
    8880022    1    1    2    0    0  0.36065298424E+02  0.82831684286E+03  0.82936983037E+03  0.11826476510E+04  0.15294330000E+03 0.  0.
<mgrwt>
<rscale>  0 0.10002361E+04</rscale>
<asrwt>0</asrwt>
<pdfrwt beam="1">  1        1 0.22169095E+00 0.10588766E+04</pdfrwt>
<pdfrwt beam="2">  1       -1 0.12631447E+00 0.10588766E+04</pdfrwt>
<totfact> 0.39115352E+00</totfact>
</mgrwt>
</event>
<event>
 4    1  0.1043382E-007  0.8918050E+03  0.7818608E-02  0.9539317E-01
         -1   -1    0    0    0  501 -0.00000000000E+00  0.00000000000E+00  0.54994181497E+03  0.54994181499E+03  0.50400000000E-02 0.  1.
          1   -1    0    0  501    0  0.00000000000E+00 -0.00000000000E+00 -0.15265766468E+04  0.15265766468E+04  0.50400000000E-02 0. -1.
    8880023    1    1    2    0    0 -0.34621444264E+03 -0.49157037348E+03  0.31973732553E+02  0.89237794584E+03  0.65864270000E+03 0.  0.
    8880022    1    1    2    0    0  0.34621444264E+03  0.49157037348E+03 -0.10086085644E+04  0.11841405160E+04  0.15294330000E+03 0.  0.
<mgrwt>
<rscale>  0 0.81446148E+03</rscale>
<asrwt>0</asrwt>
<pdfrwt beam="1">  1        1 0.23485794E+00 0.89180496E+03</pdfrwt>
<pdfrwt beam="2">  1       -1 0.84606434E-01 0.89180496E+03</pdfrwt>
<totfact> 0.88366989E+00</totfact>
</mgrwt>
</event>
<event>
 4    1  0.1043382E-007  0.1702933E+04  0.7818608E-02  0.8778220E-01
         -1   -1    0    0    0  501 -0.00000000000E+00  0.00000000000E+00  0.14296421218E+04  0.14296421219E+04  0.50400000000E-02 0.  1.
          1   -1    0    0  501    0  0.00000000000E+00 -0.00000000000E+00 -0.25558483356E+04  0.25558483356E+04  0.50400000000E-02 0. -1.
    8880023    1    1    2    0    0 -0.45599535108E+03  0.15027442542E+04  0.44360252080E+03  0.17597628978E+04  0.65864270000E+03 0.  0.
    8880022    1    1    2    0    0  0.45599535108E+03 -0.15027442542E+04 -0.15698087345E+04  0.22257275596E+04  0.15294330000E+03 0.  0.
<mgrwt>
<rscale>  0 0.16707584E+04</rscale>
<asrwt>0</asrwt>
<pdfrwt beam="1">  1        1 0.39320744E+00 0.17029334E+04</pdfrwt>
<pdfrwt beam="2">  1       -1 0.21994494E+00 0.17029334E+04</pdfrwt>
<totfact> 0.12580498E-01</totfact>
</mgrwt>
</event>
<event>
 4    1  0.1043382E-007  0.1075925E+04  0.7818608E-02  0.9288346E-01
         -1   -1    0    0    0  501 -0.00000000000E+00  0.00000000000E+00  0.21257499114E+04  0.21257499114E+04  0.50400000000E-02 0.  1.
          1   -1    0    0  501    0  0.00000000000E+00 -0.00000000000E+00 -0.70280183472E+03  0.70280183474E+03  0.50400000000E-02 0. -1.
    8880023    1    1    2    0    0 -0.22189358622E+03 -0.82132036761E+03  0.16173721202E+04  0.19425515929E+04  0.65864270000E+03 0.  1.
    8880022    1    1    2    0    0  0.22189358622E+03  0.82132036761E+03 -0.19442404346E+03  0.88600015325E+03  0.15294330000E+03 0.  0.
<mgrwt>
<rscale>  0 0.10186282E+04</rscale>
<asrwt>0</asrwt>
<pdfrwt beam="1">  1        1 0.10812336E+00 0.10759248E+04</pdfrwt>
<pdfrwt beam="2">  1       -1 0.32703845E+00 0.10759248E+04</pdfrwt>
<totfact> 0.59987126E-01</totfact>
</mgrwt>
</event>
<event>
 4    1  0.1043382E-007  0.7718581E+03  0.7818608E-02  0.9775322E-01
         -1   -1    0    0    0  501 -0.00000000000E+00  0.00000000000E+00  0.16436627109E+04  0.16436627109E+04  0.50400000000E-02 0.  1.
          1   -1    0    0  501    0  0.00000000000E+00 -0.00000000000E+00 -0.52079441069E+03  0.52079441072E+03  0.50400000000E-02 0. -1.
    8880023    1    1    2    0    0 -0.32101246935E+03  0.24270507021E+03  0.14372321569E+04  0.16313801628E+04  0.65864270000E+03 0.  0.
    8880022    1    1    2    0    0  0.32101246935E+03 -0.24270507021E+03 -0.31436385669E+03  0.53307695879E+03  0.15294330000E+03 0.  0.
<mgrwt>
<rscale>  0 0.66703885E+03</rscale>
<asrwt>0</asrwt>
<pdfrwt beam="1">  1        1 0.80122218E-01 0.77185812E+03</pdfrwt>
<pdfrwt beam="2">  1       -1 0.25287118E+00 0.77185812E+03</pdfrwt>
<totfact> 0.29086621E+00</totfact>
</mgrwt>
</event>
<event>
 4    1  0.1043382E-007  0.6800111E+03  0.7818608E-02  0.1009317E+00
          1   -1    0    0  501    0  0.00000000000E+00  0.00000000000E+00  0.10791965241E+04  0.10791965241E+04  0.50400000000E-02 0. -1.
         -1   -1    0    0    0  501 -0.00000000000E+00 -0.00000000000E+00 -0.11022367082E+04  0.11022367082E+04  0.50400000000E-02 0.  1.
    8880023    1    1    2    0    0 -0.10601330092E+03  0.13178059849E+03 -0.98270935496E+03  0.11950451158E+04  0.65864270000E+03 0.  1.
    8880022    1    1    2    0    0  0.10601330092E+03 -0.13178059849E+03  0.95966917084E+03  0.98638811661E+03  0.15294330000E+03 0.  0.
<mgrwt>
<rscale>  0 0.51746846E+03</rscale>
<asrwt>0</asrwt>
<pdfrwt beam="1">  1        1 0.16603023E+00 0.68001114E+03</pdfrwt>
<pdfrwt beam="2">  1       -1 0.16957488E+00 0.68001114E+03</pdfrwt>
<totfact> 0.34302618E+00</totfact>
</mgrwt>
</event>
<event>
 4    1  0.1043382E-007  0.6761948E+03  0.7818608E-02  0.1011564E+00
          1   -1    0    0  501    0  0.00000000000E+00  0.00000000000E+00  0.21408103099E+04  0.21408103099E+04  0.50400000000E-02 0. -1.
         -1   -1    0    0    0  501 -0.00000000000E+00 -0.00000000000E+00 -0.46027034792E+03  0.46027034795E+03  0.50400000000E-02 0.  1.
    8880023    1    1    2    0    0 -0.14815131082E+03 -0.38475254046E+02 -0.20233134005E+03  0.70581678466E+03  0.65864270000E+03 0.  1.
    8880022    1    1    2    0    0  0.14815131082E+03  0.38475254046E+02  0.18828713020E+04  0.18952638732E+04  0.15294330000E+03 0.  0.
<mgrwt>
<rscale>  0 0.50857935E+03</rscale>
<asrwt>0</asrwt>
<pdfrwt beam="1">  1        1 0.32935542E+00 0.67619477E+03</pdfrwt>
<pdfrwt beam="2">  1       -1 0.70810826E-01 0.67619477E+03</pdfrwt>
<totfact> 0.51386469E+00</totfact>
</mgrwt>
</event>
<event>
 4    1  0.1043382E-007  0.9188645E+03  0.7818608E-02  0.9496402E-01
          1   -1    0    0  501    0  0.00000000000E+00  0.00000000000E+00  0.11104784980E+04  0.11104784980E+04  0.50400000000E-02 0. -1.
         -1   -1    0    0    0  501 -0.00000000000E+00 -0.00000000000E+00 -0.82491193663E+03  0.82491193664E+03  0.50400000000E-02 0.  1.
    8880023    1    1    2    0    0 -0.60471356411E+03 -0.21171509695E+03 -0.38423038644E+03  0.99596434325E+03  0.65864270000E+03 0.  0.
    8880022    1    1    2    0    0  0.60471356411E+03  0.21171509695E+03  0.66979694781E+03  0.93942609141E+03  0.15294330000E+03 0.  0.
<mgrwt>
<rscale>  0 0.84549587E+03</rscale>
<asrwt>0</asrwt>
<pdfrwt beam="1">  1        1 0.17084285E+00 0.91886451E+03</pdfrwt>
<pdfrwt beam="2">  1       -1 0.12690953E+00 0.91886451E+03</pdfrwt>
<totfact> 0.67912813E+00</totfact>
</mgrwt>
</event>
<event>
 4    1  0.1043382E-007  0.1286642E+04  0.7818608E-02  0.9077182E-01
         -1   -1    0    0    0  501 -0.00000000000E+00  0.00000000000E+00  0.11568335079E+04  0.11568335079E+04  0.50400000000E-02 0.  1.
          1   -1    0    0  501    0  0.00000000000E+00 -0.00000000000E+00 -0.21200644660E+04  0.21200644660E+04  0.50400000000E-02 0. -1.
    8880023    1    1    2    0    0  0.11020778664E+04 -0.84037119994E+02  0.54791051763E+03  0.13984469967E+04  0.65864270000E+03 0.  0.
    8880022    1    1    2    0    0 -0.11020778664E+04  0.84037119994E+02 -0.15111414757E+04  0.18784509772E+04  0.15294330000E+03 0.  0.
<mgrwt>
<rscale>  0 0.12416260E+04</rscale>
<asrwt>0</asrwt>
<pdfrwt beam="1">  1        1 0.32616376E+00 0.12866422E+04</pdfrwt>
<pdfrwt beam="2">  1       -1 0.17797439E+00 0.12866422E+04</pdfrwt>
<totfact> 0.51625571E-01</totfact>
</mgrwt>
</event>
<event>
 4    1  0.1043382E-007  0.9726323E+03  0.7818608E-02  0.9418273E-01
         -1   -1    0    0    0  501 -0.00000000000E+00  0.00000000000E+00  0.16416284747E+04  0.16416284748E+04  0.50400000000E-02 0.  1.
          1   -1    0    0  501    0  0.00000000000E+00 -0.00000000000E+00 -0.13166366365E+04  0.13166366365E+04  0.50400000000E-02 0. -1.
    8880023    1    1    2    0    0 -0.62276717353E+03  0.35265337355E+03  0.13714212276E+04  0.16813119116E+04  0.65864270000E+03 0.  0.
    8880022    1    1    2    0    0  0.62276717353E+03 -0.35265337355E+03 -0.10464293893E+04  0.12769531997E+04  0.15294330000E+03 0.  0.
<mgrwt>
<rscale>  0 0.90587041E+03</rscale>
<asrwt>0</asrwt>
<pdfrwt beam="1">  1        1 0.20255948E+00 0.97263228E+03</pdfrwt>
<pdfrwt beam="2">  1       -1 0.25255822E+00 0.97263228E+03</pdfrwt>
<totfact> 0.59906060E-01</totfact>
</mgrwt>
</event>
<event>
 4    1  0.1043382E-007  0.7460629E+03  0.7818608E-02  0.9842626E-01
          1   -1    0    0  501    0  0.00000000000E+00  0.00000000000E+00  0.79508875969E+03  0.79508875970E+03  0.50400000000E-02 0. -1.
         -1   -1    0    0    0  501 -0.00000000000E+00 -0.00000000000E+00 -0.10547360084E+04  0.10547360084E+04  0.50400000000E-02 0.  1.
    8880023    1    1    2    0    0  0.18891171505E+03 -0.29514748829E+03 -0.85971469901E+03  0.11382966423E+04  0.65864270000E+03 0.  1.
    8880022    1    1    2    0    0 -0.18891171505E+03  0.29514748829E+03  0.60006745029E+03  0.71152812582E+03  0.15294330000E+03 0.  0.
<mgrwt>
<rscale>  0 0.63124332E+03</rscale>
<asrwt>0</asrwt>
<pdfrwt beam="1">  1        1 0.12232135E+00 0.74606292E+03</pdfrwt>
<pdfrwt beam="2">  1       -1 0.16226708E+00 0.74606292E+03</pdfrwt>
<totfact> 0.64894193E+00</totfact>
</mgrwt>
</event>
<event>
 4    1  0.1043382E-007  0.7113218E+03  0.7818608E-02  0.9953125E-01
         -1   -1    0    0    0  501 -0.00000000000E+00  0.00000000000E+00  0.33667920094E+03  0.33667920098E+03  0.50400000000E-02 0.  1.
          1   -1    0    0  501    0  0.00000000000E+00 -0.00000000000E+00 -0.95363357007E+03  0.95363357008E+03  0.50400000000E-02 0. -1.
    8880023    1    1    2    0    0 -0.21153268752E+03  0.16559728501E+03 -0.14471631578E+03  0.72589362651E+03  0.65864270000E+03 0.  0.
    8880022    1    1    2    0    0  0.21153268752E+03 -0.16559728501E+03 -0.47223805334E+03  0.56441914455E+03  0.15294330000E+03 0.  0.
<mgrwt>
<rscale>  0 0.57754287E+03</rscale>
<asrwt>0</asrwt>
<pdfrwt beam="1">  1        1 0.14671286E+00 0.71132183E+03</pdfrwt>
<pdfrwt beam="2">  1       -1 0.51796800E-01 0.71132183E+03</pdfrwt>
<totfact> 0.63373209E+01</totfact>
</mgrwt>
</event>
<event>
 4    1  0.1043382E-007  0.7561704E+03  0.7818608E-02  0.9815125E-01
         -1   -1    0    0    0  501 -0.00000000000E+00  0.00000000000E+00  0.87928816064E+03  0.87928816065E+03  0.50400000000E-02 0.  1.
          1   -1    0    0  501    0  0.00000000000E+00 -0.00000000000E+00 -0.66585696504E+03  0.66585696506E+03  0.50400000000E-02 0. -1.
    8880023    1    1    2    0    0 -0.11144752362E+03 -0.35434849810E+03  0.61682824846E+03  0.97584358531E+03  0.65864270000E+03 0.  1.
    8880022    1    1    2    0    0  0.11144752362E+03  0.35434849810E+03 -0.40339705286E+03  0.56930154040E+03  0.15294330000E+03 0.  0.
<mgrwt>
<rscale>  0 0.64557141E+03</rscale>
<asrwt>0</asrwt>
<pdfrwt beam="1">  1        1 0.10243953E+00 0.75617036E+03</pdfrwt>
<pdfrwt beam="2">  1       -1 0.13527510E+00 0.75617036E+03</pdfrwt>
<totfact> 0.13839514E+01</totfact>
</mgrwt>
</event>
<event>
 4    1  0.1043382E-007  0.7241655E+03  0.7818608E-02  0.9908735E-01
          1   -1    0    0  501    0  0.00000000000E+00  0.00000000000E+00  0.32691269453E+03  0.32691269456E+03  0.50400000000E-02 0. -1.
         -1   -1    0    0    0  501 -0.00000000000E+00 -0.00000000000E+00 -0.10198422104E+04  0.10198422104E+04  0.50400000000E-02 0.  1.
    8880023    1    1    2    0    0 -0.28009090050E+03  0.11024801067E+03 -0.70258746263E+03  0.10089821036E+04  0.65864270000E+03 0.  1.
    8880022    1    1    2    0    0  0.28009090050E+03 -0.11024801067E+03  0.96579467934E+01  0.33777280138E+03  0.15294330000E+03 0.  0.
<mgrwt>
<rscale>  0 0.59839804E+03</rscale>
<asrwt>0</asrwt>
<pdfrwt beam="1">  1        1 0.50294261E-01 0.72416555E+03</pdfrwt>
<pdfrwt beam="2">  1       -1 0.15689880E+00 0.72416555E+03</pdfrwt>
<totfact> 0.24826593E+01</totfact>
</mgrwt>
</event>
<event>
 4    1  0.1043382E-007  0.7158676E+03  0.7818608E-02  0.9936825E-01
         -1   -1    0    0    0  501 -0.00000000000E+00  0.00000000000E+00  0.29697904078E+03  0.29697904083E+03  0.50400000000E-02 0.  1.
          1   -1    0    0  501    0  0.00000000000E+00 -0.00000000000E+00 -0.15408926654E+04  0.15408926654E+04  0.50400000000E-02 0. -1.
    8880023    1    1    2    0    0 -0.24282167105E+03  0.14033469139E+03 -0.19580636606E+03  0.74216341111E+03  0.65864270000E+03 0.  1.
    8880022    1    1    2    0    0  0.24282167105E+03 -0.14033469139E+03 -0.10481072585E+04  0.10957082951E+04  0.15294330000E+03 0.  0.
<mgrwt>
<rscale>  0 0.58509313E+03</rscale>
<asrwt>0</asrwt>
<pdfrwt beam="1">  1        1 0.23706041E+00 0.71586758E+03</pdfrwt>
<pdfrwt beam="2">  1       -1 0.45689084E-01 0.71586758E+03</pdfrwt>
<totfact> 0.30243537E+01</totfact>
</mgrwt>
</event>
<event>
 4    1  0.1043382E-007  0.7265557E+03  0.7818608E-02  0.9900997E-01
          1   -1    0    0  501    0  0.00000000000E+00  0.00000000000E+00  0.17838629317E+04  0.17838629317E+04  0.50400000000E-02 0. -1.
         -1   -1    0    0    0  501 -0.00000000000E+00 -0.00000000000E+00 -0.16716921752E+03  0.16716921760E+03  0.50400000000E-02 0.  1.
    8880023    1    1    2    0    0  0.24836792969E+03 -0.17996197550E+03  0.90051631066E+03  0.11570707728E+04  0.65864270000E+03 0.  0.
    8880022    1    1    2    0    0 -0.24836792969E+03  0.17996197550E+03  0.71617740348E+03  0.79396137651E+03  0.15294330000E+03 0.  0.
<mgrwt>
<rscale>  0 0.60212970E+03</rscale>
<asrwt>0</asrwt>
<pdfrwt beam="1">  1        1 0.27444044E+00 0.72655567E+03</pdfrwt>
<pdfrwt beam="2">  1       -1 0.25718342E-01 0.72655567E+03</pdfrwt>
<totfact> 0.57542294E+01</totfact>
</mgrwt>
</event>
<event>
 4    1  0.1043382E-007  0.6951311E+03  0.7818608E-02  0.1001803E+00
          1   -1    0    0  501    0  0.00000000000E+00  0.00000000000E+00  0.21230764571E+04  0.21230764571E+04  0.50400000000E-02 0. -1.
         -1   -1    0    0    0  501 -0.00000000000E+00 -0.00000000000E+00 -0.12468649680E+03  0.12468649691E+03  0.50400000000E-02 0.  1.
    8880023    1    1    2    0    0 -0.20409910120E+03  0.87980653138E+02  0.17420079566E+04  0.18755796346E+04  0.65864270000E+03 0.  0.
    8880022    1    1    2    0    0  0.20409910120E+03 -0.87980653138E+02  0.25638200363E+03  0.37218331940E+03  0.15294330000E+03 0.  0.
<mgrwt>
<rscale>  0 0.54866597E+03</rscale>
<asrwt>0</asrwt>
<pdfrwt beam="1">  1        1 0.32662713E+00 0.69513110E+03</pdfrwt>
<pdfrwt beam="2">  1       -1 0.19182539E-01 0.69513110E+03</pdfrwt>
<totfact> 0.56145601E+01</totfact>
</mgrwt>
</event>
<event>
 4    1  0.1043382E-007  0.6951905E+03  0.7818608E-02  0.1001777E+00
          1   -1    0    0  501    0  0.00000000000E+00  0.00000000000E+00  0.12042222741E+04  0.12042222742E+04  0.50400000000E-02 0. -1.
         -1   -1    0    0    0  501 -0.00000000000E+00 -0.00000000000E+00 -0.26327888752E+03  0.26327888757E+03  0.50400000000E-02 0.  1.
    8880023    1    1    2    0    0  0.61259268244E+02  0.21383842211E+03  0.27264696458E+03  0.74674369249E+03  0.65864270000E+03 0.  1.
    8880022    1    1    2    0    0 -0.61259268244E+02 -0.21383842211E+03  0.66829642205E+03  0.72075746923E+03  0.15294330000E+03 0.  0.
<mgrwt>
<rscale>  0 0.54877884E+03</rscale>
<asrwt>0</asrwt>
<pdfrwt beam="1">  1        1 0.18526496E+00 0.69519046E+03</pdfrwt>
<pdfrwt beam="2">  1       -1 0.40504445E-01 0.69519046E+03</pdfrwt>
<totfact> 0.65001877E+01</totfact>
</mgrwt>
</event>
<event>
 4    1  0.1043382E-007  0.1049822E+04  0.7818608E-02  0.9319095E-01
         -1   -1    0    0    0  501 -0.00000000000E+00  0.00000000000E+00  0.67230907938E+03  0.67230907940E+03  0.50400000000E-02 0.  1.
          1   -1    0    0  501    0  0.00000000000E+00 -0.00000000000E+00 -0.14255976158E+04  0.14255976158E+04  0.50400000000E-02 0. -1.
    8880023    1    1    2    0    0  0.77027650322E+03  0.27384491964E+03 -0.12845075946E+03  0.10576515188E+04  0.65864270000E+03 0.  1.
    8880022    1    1    2    0    0 -0.77027650322E+03 -0.27384491964E+03 -0.62483777694E+03  0.10402551764E+04  0.15294330000E+03 0.  0.
<mgrwt>
<rscale>  0 0.99043797E+03</rscale>
<asrwt>0</asrwt>
<pdfrwt beam="1">  1        1 0.21932271E+00 0.10498224E+04</pdfrwt>
<pdfrwt beam="2">  1       -1 0.10343217E+00 0.10498224E+04</pdfrwt>
<totfact> 0.64947723E+00</totfact>
</mgrwt>
</event>
<event>
 4    1  0.1043382E-007  0.7220989E+03  0.7818608E-02  0.9915547E-01
          1   -1    0    0  501    0  0.00000000000E+00  0.00000000000E+00  0.18332335626E+04  0.18332335626E+04  0.50400000000E-02 0. -1.
         -1   -1    0    0    0  501 -0.00000000000E+00 -0.00000000000E+00 -0.16335563106E+03  0.16335563113E+03  0.50400000000E-02 0.  1.
    8880023    1    1    2    0    0 -0.66564774633E+02  0.28841943275E+03  0.87351422968E+03  0.11333375288E+04  0.65864270000E+03 0.  1.
    8880022    1    1    2    0    0  0.66564774633E+02 -0.28841943275E+03  0.79636370186E+03  0.86325166496E+03  0.15294330000E+03 0.  0.
<mgrwt>
<rscale>  0 0.59513699E+03</rscale>
<asrwt>0</asrwt>
<pdfrwt beam="1">  1        1 0.28203593E+00 0.72209892E+03</pdfrwt>
<pdfrwt beam="2">  1       -1 0.25131636E-01 0.72209892E+03</pdfrwt>
<totfact> 0.55497617E+01</totfact>
</mgrwt>
</event>
<event>
 4    1  0.1043382E-007  0.7075247E+03  0.7818608E-02  0.9967310E-01
         -1   -1    0    0    0  501 -0.00000000000E+00  0.00000000000E+00  0.25655939797E+03  0.25655939802E+03  0.50400000000E-02 0.  1.
          1   -1    0    0  501    0  0.00000000000E+00 -0.00000000000E+00 -0.10661503513E+04  0.10661503513E+04  0.50400000000E-02 0. -1.
    8880023    1    1    2    0    0 -0.14224398396E+03 -0.21574917953E+03 -0.39353288696E+03  0.80960447060E+03  0.65864270000E+03 0.  0.
    8880022    1    1    2    0    0  0.14224398396E+03  0.21574917953E+03 -0.41605806635E+03  0.51310527870E+03  0.15294330000E+03 0.  0.
<mgrwt>
<rscale>  0 0.57107167E+03</rscale>
<asrwt>0</asrwt>
<pdfrwt beam="1">  1        1 0.16402313E+00 0.70752475E+03</pdfrwt>
<pdfrwt beam="2">  1       -1 0.39470677E-01 0.70752475E+03</pdfrwt>
<totfact> 0.86007716E+01</totfact>
</mgrwt>
</event>
<event>
 4    1  0.1043382E-007  0.8599209E+03  0.7818608E-02  0.9593704E-01
          1   -1    0    0  501    0  0.00000000000E+00  0.00000000000E+00  0.10033489146E+04  0.10033489146E+04  0.50400000000E-02 0. -1.
         -1   -1    0    0    0  501 -0.00000000000E+00 -0.00000000000E+00 -0.12045826199E+04  0.12045826199E+04  0.50400000000E-02 0.  1.
    8880023    1    1    2    0    0  0.38221448950E+03 -0.39945702102E+03 -0.93909483914E+03  0.12733275897E+04  0.65864270000E+03 0.  1.
    8880022    1    1    2    0    0 -0.38221448950E+03  0.39945702102E+03  0.73786113390E+03  0.93460394476E+03  0.15294330000E+03 0.  0.
<mgrwt>
<rscale>  0 0.77714291E+03</rscale>
<asrwt>0</asrwt>
<pdfrwt beam="1">  1        1 0.15436137E+00 0.85992095E+03</pdfrwt>
<pdfrwt beam="2">  1       -1 0.18532040E+00 0.85992095E+03</pdfrwt>
<totfact> 0.29327082E+00</totfact>
</mgrwt>
</event>
<event>
 4    1  0.1043382E-007  0.7452219E+03  0.7818608E-02  0.9844989E-01
          1   -1    0    0  501    0  0.00000000000E+00  0.00000000000E+00  0.13601168058E+04  0.13601168058E+04  0.50400000000E-02 0. -1.
         -1   -1    0    0    0  501 -0.00000000000E+00 -0.00000000000E+00 -0.36833232322E+03  0.36833232325E+03  0.50400000000E-02 0.  1.
    8880023    1    1    2    0    0 -0.23414887576E+03  0.25830170286E+03  0.91299693683E+02  0.75079378397E+03  0.65864270000E+03 0.  1.
    8880022    1    1    2    0    0  0.23414887576E+03 -0.25830170286E+03  0.90048478886E+03  0.97765534505E+03  0.15294330000E+03 0.  0.
<mgrwt>
<rscale>  0 0.63003062E+03</rscale>
<asrwt>0</asrwt>
<pdfrwt beam="1">  1        1 0.20924874E+00 0.74522189E+03</pdfrwt>
<pdfrwt beam="2">  1       -1 0.56666510E-01 0.74522189E+03</pdfrwt>
<totfact> 0.26660263E+01</totfact>
</mgrwt>
</event>
<event>
 4    1  0.1043382E-007  0.6600883E+03  0.7818608E-02  0.1024066E+00
          1   -1    0    0  501    0  0.00000000000E+00  0.00000000000E+00  0.57992346990E+03  0.57992346992E+03  0.50400000000E-02 0. -1.
         -1   -1    0    0    0  501 -0.00000000000E+00 -0.00000000000E+00 -0.10267003340E+04  0.10267003340E+04  0.50400000000E-02 0.  1.
    8880023    1    1    2    0    0  0.14851770245E+01  0.43636614652E+02 -0.90581501267E+03  0.11208110471E+04  0.65864270000E+03 0.  1.
    8880022    1    1    2    0    0 -0.14851770245E+01 -0.43636614652E+02  0.45903814854E+03  0.48581275685E+03  0.15294330000E+03 0.  0.
<mgrwt>
<rscale>  0 0.46247401E+03</rscale>
<asrwt>0</asrwt>
<pdfrwt beam="1">  1        1 0.89218995E-01 0.66008830E+03</pdfrwt>
<pdfrwt beam="2">  1       -1 0.15795390E+00 0.66008830E+03</pdfrwt>
<totfact> 0.11354414E+01</totfact>
</mgrwt>
</event>
<event>
 4    1  0.1043382E-007  0.9285296E+03  0.7818608E-02  0.9481703E-01
         -1   -1    0    0    0  501 -0.00000000000E+00  0.00000000000E+00  0.13430836100E+04  0.13430836100E+04  0.50400000000E-02 0.  1.
          1   -1    0    0  501    0  0.00000000000E+00 -0.00000000000E+00 -0.12900085977E+04  0.12900085978E+04  0.50400000000E-02 0. -1.
    8880023    1    1    2    0    0  0.65371054692E+03 -0.31929798412E+02  0.10683722312E+04  0.14154809861E+04  0.65864270000E+03 0.  0.
    8880022    1    1    2    0    0 -0.65371054692E+03  0.31929798412E+02 -0.10152972190E+04  0.12176112217E+04  0.15294330000E+03 0.  0.
<mgrwt>
<rscale>  0 0.85646362E+03</rscale>
<asrwt>0</asrwt>
<pdfrwt beam="1">  1        1 0.19846286E+00 0.92852959E+03</pdfrwt>
<pdfrwt beam="2">  1       -1 0.20662825E+00 0.92852959E+03</pdfrwt>
<totfact> 0.12674826E+00</totfact>
</mgrwt>
</event>
<event>
 4    1  0.1043382E-007  0.7217904E+03  0.7818608E-02  0.9916574E-01
         -1   -1    0    0    0  501 -0.00000000000E+00  0.00000000000E+00  0.44904765932E+03  0.44904765935E+03  0.50400000000E-02 0.  1.
          1   -1    0    0  501    0  0.00000000000E+00 -0.00000000000E+00 -0.88722768402E+03  0.88722768404E+03  0.50400000000E-02 0. -1.
    8880023    1    1    2    0    0  0.92397946786E+01  0.29510313025E+03  0.74056595775E+02  0.72557964203E+03  0.65864270000E+03 0.  0.
    8880022    1    1    2    0    0 -0.92397946786E+01 -0.29510313025E+03 -0.51223662047E+03  0.61069570136E+03  0.15294330000E+03 0.  0.
<mgrwt>
<rscale>  0 0.59464739E+03</rscale>
<asrwt>0</asrwt>
<pdfrwt beam="1">  1        1 0.13649657E+00 0.72179044E+03</pdfrwt>
<pdfrwt beam="2">  1       -1 0.69084256E-01 0.72179044E+03</pdfrwt>
<totfact> 0.40606733E+01</totfact>
</mgrwt>
</event>
<event>
 4    1  0.1043382E-007  0.9944608E+03  0.7818608E-02  0.9388841E-01
         -1   -1    0    0    0  501 -0.00000000000E+00  0.00000000000E+00  0.70381595289E+03  0.70381595290E+03  0.50400000000E-02 0.  1.
          1   -1    0    0  501    0  0.00000000000E+00 -0.00000000000E+00 -0.31421833280E+04  0.31421833280E+04  0.50400000000E-02 0. -1.
    8880023    1    1    2    0    0 -0.55259845095E+02 -0.74302657516E+03  0.27195122398E+03  0.10309751774E+04  0.65864270000E+03 0.  1.
    8880022    1    1    2    0    0  0.55259845095E+02  0.74302657516E+03 -0.27103185991E+04  0.28150241035E+04  0.15294330000E+03 0.  0.
<mgrwt>
<rscale>  0 0.92999766E+03</rscale>
<asrwt>0</asrwt>
<pdfrwt beam="1">  1        1 0.48341281E+00 0.99446083E+03</pdfrwt>
<pdfrwt beam="2">  1       -1 0.10827938E+00 0.99446083E+03</pdfrwt>
<totfact> 0.38386398E-01</totfact>
</mgrwt>
</event>
<event>
 4    1  0.1043382E-007  0.7241042E+03  0.7818608E-02  0.9908936E-01
         -1   -1    0    0    0  501 -0.00000000000E+00  0.00000000000E+00  0.19397526022E+04  0.19397526022E+04  0.50400000000E-02 0.  1.
          1   -1    0    0  501    0  0.00000000000E+00 -0.00000000000E+00 -0.44374727221E+03  0.44374727224E+03  0.50400000000E-02 0. -1.
    8880023    1    1    2    0    0  0.25622339724E+03 -0.15769047974E+03  0.17931472664E+04  0.19338314409E+04  0.65864270000E+03 0.  1.
    8880022    1    1    2    0    0 -0.25622339724E+03  0.15769047974E+03 -0.29714193642E+03  0.44966843351E+03  0.15294330000E+03 0.  0.
<mgrwt>
<rscale>  0 0.59830174E+03</rscale>
<asrwt>0</asrwt>
<pdfrwt beam="1">  1        1 0.68268812E-01 0.72410422E+03</pdfrwt>
<pdfrwt beam="2">  1       -1 0.29842347E+00 0.72410422E+03</pdfrwt>
<totfact> 0.18641471E+00</totfact>
</mgrwt>
</event>
<event>
 4    1  0.1043382E-007  0.1349243E+04  0.7818608E-02  0.9024161E-01
         -1   -1    0    0    0  501 -0.00000000000E+00  0.00000000000E+00  0.54863798550E+03  0.54863798553E+03  0.50400000000E-02 0.  1.
          1   -1    0    0  501    0  0.00000000000E+00 -0.00000000000E+00 -0.39003494153E+04  0.39003494153E+04  0.50400000000E-02 0. -1.
    8880023    1    1    2    0    0 -0.57529548369E+03 -0.10274638800E+04 -0.64961088246E+03  0.14974816937E+04  0.65864270000E+03 0.  0.
    8880022    1    1    2    0    0  0.57529548369E+03  0.10274638800E+04 -0.27021005473E+04  0.29515057071E+04  0.15294330000E+03 0.  0.
<mgrwt>
<rscale>  0 0.13068374E+04</rscale>
<asrwt>0</asrwt>
<pdfrwt beam="1">  1        1 0.60005374E+00 0.13492432E+04</pdfrwt>
<pdfrwt beam="2">  1       -1 0.84405847E-01 0.13492432E+04</pdfrwt>
<totfact> 0.16138070E-01</totfact>
</mgrwt>
</event>
<event>
 4    1  0.1043382E-007  0.6726343E+03  0.7818608E-02  0.1013841E+00
         -1   -1    0    0    0  501 -0.00000000000E+00  0.00000000000E+00  0.32600754800E+03  0.32600754803E+03  0.50400000000E-02 0.  1.
          1   -1    0    0  501    0  0.00000000000E+00 -0.00000000000E+00 -0.60457266462E+03  0.60457266464E+03  0.50400000000E-02 0. -1.
    8880023    1    1    2    0    0  0.11150430646E+03 -0.78698728539E+02 -0.15174924227E+03  0.68953951230E+03  0.65864270000E+03 0.  0.
    8880022    1    1    2    0    0 -0.11150430646E+03  0.78698728539E+02 -0.12681587435E+03  0.24104070037E+03  0.15294330000E+03 0. -1.
<mgrwt>
<rscale>  0 0.49976304E+03</rscale>
<asrwt>0</asrwt>
<pdfrwt beam="1">  1        1 0.93011179E-01 0.67263430E+03</pdfrwt>
<pdfrwt beam="2">  1       -1 0.50155008E-01 0.67263430E+03</pdfrwt>
<totfact> 0.13802534E+02</totfact>
</mgrwt>
</event>
<event>
 4    1  0.1043382E-007  0.6824005E+03  0.7818608E-02  0.1007997E+00
         -1   -1    0    0    0  501 -0.00000000000E+00  0.00000000000E+00  0.66241635411E+02  0.66241635603E+02  0.50400000000E-02 0.  1.
          1   -1    0    0  501    0  0.00000000000E+00 -0.00000000000E+00 -0.43170315604E+04  0.43170315604E+04  0.50400000000E-02 0. -1.
    8880023    1    1    2    0    0  0.16760973798E+03  0.61377379611E+02 -0.18648653740E+04  0.19857978941E+04  0.65864270000E+03 0.  0.
    8880022    1    1    2    0    0 -0.16760973798E+03 -0.61377379611E+02 -0.23859245510E+04  0.23974753018E+04  0.15294330000E+03 0.  0.
<mgrwt>
<rscale>  0 0.52278468E+03</rscale>
<asrwt>0</asrwt>
<pdfrwt beam="1">  1        1 0.66415848E+00 0.68240048E+03</pdfrwt>
<pdfrwt beam="2">  1       -1 0.10191024E-01 0.68240048E+03</pdfrwt>
<totfact> 0.33856545E+00</totfact>
</mgrwt>
</event>
<event>
 4    1  0.1043382E-007  0.9922858E+03  0.7818608E-02  0.9391721E-01
         -1   -1    0    0    0  501 -0.00000000000E+00  0.00000000000E+00  0.86766793751E+03  0.86766793753E+03  0.50400000000E-02 0.  1.
          1   -1    0    0  501    0  0.00000000000E+00 -0.00000000000E+00 -0.12764558453E+04  0.12764558453E+04  0.50400000000E-02 0. -1.
    8880023    1    1    2    0    0 -0.39510457362E+03  0.62826203535E+03 -0.81524061102E+03  0.12842306137E+04  0.65864270000E+03 0. -1.
    8880022    1    1    2    0    0  0.39510457362E+03 -0.62826203535E+03  0.40645270328E+03  0.85989316905E+03  0.15294330000E+03 0.  0.
<mgrwt>
<rscale>  0 0.92760193E+03</rscale>
<asrwt>0</asrwt>
<pdfrwt beam="1">  1        1 0.19637782E+00 0.99228575E+03</pdfrwt>
<pdfrwt beam="2">  1       -1 0.13348737E+00 0.99228575E+03</pdfrwt>
<totfact> 0.44797942E+00</totfact>
</mgrwt>
</event>
<event>
 4    1  0.1043382E-007  0.6719233E+03  0.7818608E-02  0.1014320E+00
         -1   -1    0    0    0  501 -0.00000000000E+00  0.00000000000E+00  0.87838301146E+03  0.87838301147E+03  0.50400000000E-02 0.  1.
          1   -1    0    0  501    0  0.00000000000E+00 -0.00000000000E+00 -0.29822621746E+03  0.29822621750E+03  0.50400000000E-02 0. -1.
    8880023    1    1    2    0    0  0.12915743304E+03  0.31449396944E+02  0.67539931126E+03  0.95270412143E+03  0.65864270000E+03 0.  0.
    8880022    1    1    2    0    0 -0.12915743304E+03 -0.31449396944E+02 -0.95242517258E+02  0.22390510755E+03  0.15294330000E+03 0.  0.
<mgrwt>
<rscale>  0 0.49793226E+03</rscale>
<asrwt>0</asrwt>
<pdfrwt beam="1">  1        1 0.45880957E-01 0.67192329E+03</pdfrwt>
<pdfrwt beam="2">  1       -1 0.13513585E+00 0.67192329E+03</pdfrwt>
<totfact> 0.41732731E+01</totfact>
</mgrwt>
</event>
<event>
 4    1  0.1043382E-007  0.7944385E+03  0.7818608E-02  0.9722953E-01
          1   -1    0    0  501    0  0.00000000000E+00  0.00000000000E+00  0.19094556185E+03  0.19094556192E+03  0.50400000000E-02 0. -1.
         -1   -1    0    0    0  501 -0.00000000000E+00 -0.00000000000E+00 -0.28010602802E+04  0.28010602802E+04  0.50400000000E-02 0.  1.
    8880023    1    1    2    0    0  0.21459705501E+03  0.38893490175E+03 -0.22890087525E+04  0.24229514088E+04  0.65864270000E+03 0.  1.
    8880022    1    1    2    0    0 -0.21459705501E+03 -0.38893490175E+03 -0.32110596583E+03  0.56905443336E+03  0.15294330000E+03 0.  0.
<mgrwt>
<rscale>  0 0.69666486E+03</rscale>
<asrwt>0</asrwt>
<pdfrwt beam="1">  1        1 0.29376242E-01 0.79443846E+03</pdfrwt>
<pdfrwt beam="2">  1       -1 0.43093232E+00 0.79443846E+03</pdfrwt>
<totfact> 0.73371062E-01</totfact>
</mgrwt>
</event>
<event>
 4    1  0.1236817E-007  0.7420421E+03  0.7818608E-02  0.9854038E-01
         -1   -1    0    0    0  501 -0.00000000000E+00  0.00000000000E+00  0.84310023522E+03  0.84310023524E+03  0.50400000000E-02 0.  1.
          1   -1    0    0  501    0  0.00000000000E+00 -0.00000000000E+00 -0.25220345747E+04  0.25220345747E+04  0.50400000000E-02 0. -1.
    8880023    1    1    2    0    0  0.28824303849E+03 -0.18366350367E+03  0.66201385114E+03  0.99442892013E+03  0.65864270000E+03 0.  1.
    8880022    1    1    2    0    0 -0.28824303849E+03  0.18366350367E+03 -0.23409481906E+04  0.23707058898E+04  0.15294330000E+03 0.  0.
<mgrwt>
<rscale>  0 0.62541461E+03</rscale>
<asrwt>0</asrwt>
<pdfrwt beam="1">  1        1 0.38800532E+00 0.74204214E+03</pdfrwt>
<pdfrwt beam="2">  1       -1 0.12970773E+00 0.74204214E+03</pdfrwt>
<totfact> 0.71496270E-01</totfact>
</mgrwt>
</event>
<event>
 4    1  0.1043382E-007  0.7352586E+03  0.7818608E-02  0.9873980E-01
          1   -1    0    0  501    0  0.00000000000E+00  0.00000000000E+00  0.10999260577E+04  0.10999260577E+04  0.50400000000E-02 0. -1.
         -1   -1    0    0    0  501 -0.00000000000E+00 -0.00000000000E+00 -0.83183619854E+03  0.83183619856E+03  0.50400000000E-02 0.  1.
    8880023    1    1    2    0    0 -0.22059165239E+03 -0.24111049511E+03 -0.62724526880E+03  0.96645837026E+03  0.65864270000E+03 0.  1.
    8880022    1    1    2    0    0  0.22059165239E+03  0.24111049511E+03  0.89533512793E+03  0.96530388598E+03  0.15294330000E+03 0.  0.
<mgrwt>
<rscale>  0 0.61539059E+03</rscale>
<asrwt>0</asrwt>
<pdfrwt beam="1">  1        1 0.16921939E+00 0.73525856E+03</pdfrwt>
<pdfrwt beam="2">  1       -1 0.12797480E+00 0.73525856E+03</pdfrwt>
<totfact> 0.69431602E+00</totfact>
</mgrwt>
</event>
<event>
 4    1  0.1043382E-007  0.6597319E+03  0.7818608E-02  0.1024433E+00
          1   -1    0    0  501    0  0.00000000000E+00  0.00000000000E+00  0.91217227968E+02  0.91217228107E+02  0.50400000000E-02 0. -1.
         -1   -1    0    0    0  501 -0.00000000000E+00 -0.00000000000E+00 -0.18316119686E+04  0.18316119686E+04  0.50400000000E-02 0.  1.
    8880023    1    1    2    0    0 -0.37886466233E+02  0.75224385797E+00 -0.14211960460E+04  0.15668581166E+04  0.65864270000E+03 0.  0.
    8880022    1    1    2    0    0  0.37886466233E+02 -0.75224385797E+00 -0.31919869468E+03  0.35597108014E+03  0.15294330000E+03 0. -1.
<mgrwt>
<rscale>  0 0.46120335E+03</rscale>
<asrwt>0</asrwt>
<pdfrwt beam="1">  1        1 0.14033421E-01 0.65973188E+03</pdfrwt>
<pdfrwt beam="2">  1       -1 0.28178643E+00 0.65973188E+03</pdfrwt>
<totfact> 0.19167361E+01</totfact>
</mgrwt>
</event>
<event>
 4    1  0.1043382E-007  0.7042113E+03  0.7818608E-02  0.9980160E-01
          1   -1    0    0  501    0  0.00000000000E+00  0.00000000000E+00  0.41182303154E+03  0.41182303157E+03  0.50400000000E-02 0. -1.
         -1   -1    0    0    0  501 -0.00000000000E+00 -0.00000000000E+00 -0.81703762033E+03  0.81703762035E+03  0.50400000000E-02 0.  1.
    8880023    1    1    2    0    0  0.20618015612E+03 -0.13997538583E+03 -0.55843115936E+03  0.89875409953E+03  0.65864270000E+03 0.  0.
    8880022    1    1    2    0    0 -0.20618015612E+03  0.13997538583E+03  0.15321657057E+03  0.33010655238E+03  0.15294330000E+03 0.  0.
<mgrwt>
<rscale>  0 0.56528811E+03</rscale>
<asrwt>0</asrwt>
<pdfrwt beam="1">  1        1 0.63357389E-01 0.70421131E+03</pdfrwt>
<pdfrwt beam="2">  1       -1 0.12569810E+00 0.70421131E+03</pdfrwt>
<totfact> 0.32722802E+01</totfact>
</mgrwt>
</event>
<event>
 4    1  0.1043382E-007  0.8787654E+03  0.7818608E-02  0.9561018E-01
          1   -1    0    0  501    0  0.00000000000E+00  0.00000000000E+00  0.62645997613E+03  0.62645997615E+03  0.50400000000E-02 0. -1.
         -1   -1    0    0    0  501 -0.00000000000E+00 -0.00000000000E+00 -0.96001847506E+03  0.96001847508E+03  0.50400000000E-02 0.  1.
    8880023    1    1    2    0    0  0.26734700605E+02  0.58112270723E+03  0.37789008445E+02  0.87957748976E+03  0.65864270000E+03 0.  0.
    8880022    1    1    2    0    0 -0.26734700605E+02 -0.58112270723E+03 -0.37134750738E+03  0.70690096147E+03  0.15294330000E+03 0. -1.
<mgrwt>
<rscale>  0 0.79930912E+03</rscale>
<asrwt>0</asrwt>
<pdfrwt beam="1">  1        1 0.96378458E-01 0.87876536E+03</pdfrwt>
<pdfrwt beam="2">  1       -1 0.14769515E+00 0.87876536E+03</pdfrwt>
<totfact> 0.11867206E+01</totfact>
</mgrwt>
</event>
<event>
 4    1  0.1043382E-007  0.6818777E+03  0.7818608E-02  0.1008281E+00
         -1   -1    0    0    0  501 -0.00000000000E+00  0.00000000000E+00  0.15315778375E+03  0.15315778384E+03  0.50400000000E-02 0.  1.
          1   -1    0    0  501    0  0.00000000000E+00 -0.00000000000E+00 -0.17417342751E+04  0.17417342751E+04  0.50400000000E-02 0. -1.
    8880023    1    1    2    0    0 -0.17310863843E+03  0.34356303267E+02 -0.70432628727E+03  0.98032274353E+03  0.65864270000E+03 0.  1.
    8880022    1    1    2    0    0  0.17310863843E+03 -0.34356303267E+02 -0.88425020405E+03  0.91456931539E+03  0.15294330000E+03 0.  0.
<mgrwt>
<rscale>  0 0.52163637E+03</rscale>
<asrwt>0</asrwt>
<pdfrwt beam="1">  1        1 0.26795911E+00 0.68187767E+03</pdfrwt>
<pdfrwt beam="2">  1       -1 0.23562737E-01 0.68187767E+03</pdfrwt>
<totfact> 0.71627921E+01</totfact>
</mgrwt>
</event>
<event>
 4    1  0.1043382E-007  0.9099815E+03  0.7818608E-02  0.9510194E-01
         -1   -1    0    0    0  501 -0.00000000000E+00  0.00000000000E+00  0.19304078984E+04  0.19304078984E+04  0.50400000000E-02 0.  1.
          1   -1    0    0  501    0  0.00000000000E+00 -0.00000000000E+00 -0.84014736329E+03  0.84014736331E+03  0.50400000000E-02 0. -1.
    8880023    1    1    2    0    0 -0.15096867187E+03  0.60947896518E+03  0.16703477585E+04  0.19021377420E+04  0.65864270000E+03 0.  1.
    8880022    1    1    2    0    0  0.15096867187E+03 -0.60947896518E+03 -0.58008722338E+03  0.86841751976E+03  0.15294330000E+03 0.  0.
<mgrwt>
<rscale>  0 0.83536390E+03</rscale>
<asrwt>0</asrwt>
<pdfrwt beam="1">  1        1 0.12925344E+00 0.90998151E+03</pdfrwt>
<pdfrwt beam="2">  1       -1 0.29698583E+00 0.90998151E+03</pdfrwt>
<totfact> 0.72500356E-01</totfact>
</mgrwt>
</event>
<event>
 4    1  0.1043382E-007  0.6937953E+03  0.7818608E-02  0.1002398E+00
          1   -1    0    0  501    0  0.00000000000E+00  0.00000000000E+00  0.23629021225E+03  0.23629021231E+03  0.50400000000E-02 0. -1.
         -1   -1    0    0    0  501 -0.00000000000E+00 -0.00000000000E+00 -0.13873173269E+04  0.13873173269E+04  0.50400000000E-02 0.  1.
    8880023    1    1    2    0    0  0.16989235369E+03 -0.13666833605E+03 -0.11660582548E+04  0.13568506571E+04  0.65864270000E+03 0.  1.
    8880022    1    1    2    0    0 -0.16989235369E+03  0.13666833605E+03  0.15031140203E+02  0.26675688203E+03  0.15294330000E+03 0.  1.
<mgrwt>
<rscale>  0 0.54610954E+03</rscale>
<asrwt>0</asrwt>
<pdfrwt beam="1">  1        1 0.36352341E-01 0.69379525E+03</pdfrwt>
<pdfrwt beam="2">  1       -1 0.21343343E+00 0.69379525E+03</pdfrwt>
<totfact> 0.15102665E+01</totfact>
</mgrwt>
</event>
<event>
 4    1  0.1043382E-007  0.7509597E+03  0.7818608E-02  0.9829100E-01
          1   -1    0    0  501    0  0.00000000000E+00  0.00000000000E+00  0.11395565904E+04  0.11395565905E+04  0.50400000000E-02 0. -1.
         -1   -1    0    0    0  501 -0.00000000000E+00 -0.00000000000E+00 -0.52158498398E+03  0.52158498401E+03  0.50400000000E-02 0.  1.
    8880023    1    1    2    0    0  0.32292568048E+03  0.16077721338E+03 -0.17994110021E+03  0.77221714126E+03  0.65864270000E+03 0.  1.
    8880022    1    1    2    0    0 -0.32292568048E+03 -0.16077721338E+03  0.79791270667E+03  0.88892443320E+03  0.15294330000E+03 0.  0.
<mgrwt>
<rscale>  0 0.63823968E+03</rscale>
<asrwt>0</asrwt>
<pdfrwt beam="1">  1        1 0.17531640E+00 0.75095973E+03</pdfrwt>
<pdfrwt beam="2">  1       -1 0.80243845E-01 0.75095973E+03</pdfrwt>
<totfact> 0.18915783E+01</totfact>
</mgrwt>
</event>
<event>
 4    1  0.1043382E-007  0.7261786E+03  0.7818608E-02  0.9902209E-01
          1   -1    0    0  501    0  0.00000000000E+00  0.00000000000E+00  0.47326340547E+03  0.47326340549E+03  0.50400000000E-02 0. -1.
         -1   -1    0    0    0  501 -0.00000000000E+00 -0.00000000000E+00 -0.11486293536E+04  0.11486293536E+04  0.50400000000E-02 0.  1.
    8880023    1    1    2    0    0 -0.26259792137E+03  0.15673996013E+03 -0.94120333641E+03  0.11887804718E+04  0.65864270000E+03 0.  1.
    8880022    1    1    2    0    0  0.26259792137E+03 -0.15673996013E+03  0.26583738826E+03  0.43311228731E+03  0.15294330000E+03 0.  0.
<mgrwt>
<rscale>  0 0.60154365E+03</rscale>
<asrwt>0</asrwt>
<pdfrwt beam="1">  1        1 0.72809755E-01 0.72617855E+03</pdfrwt>
<pdfrwt beam="2">  1       -1 0.17671221E+00 0.72617855E+03</pdfrwt>
<totfact> 0.10856248E+01</totfact>
</mgrwt>
</event>
<event>
 4    1  0.1043382E-007  0.6786385E+03  0.7818608E-02  0.1010105E+00
         -1   -1    0    0    0  501 -0.00000000000E+00  0.00000000000E+00  0.10735551530E+04  0.10735551530E+04  0.50400000000E-02 0.  1.
          1   -1    0    0  501    0  0.00000000000E+00 -0.00000000000E+00 -0.43290963336E+03  0.43290963339E+03  0.50400000000E-02 0. -1.
    8880023    1    1    2    0    0  0.55599640711E+02  0.15378116850E+03  0.92329886714E+03  0.11458756356E+04  0.65864270000E+03 0.  1.
    8880022    1    1    2    0    0 -0.55599640711E+02 -0.15378116850E+03 -0.28265334751E+03  0.36058915084E+03  0.15294330000E+03 0.  0.
<mgrwt>
<rscale>  0 0.51433115E+03</rscale>
<asrwt>0</asrwt>
<pdfrwt beam="1">  1        1 0.66601483E-01 0.67863847E+03</pdfrwt>
<pdfrwt beam="2">  1       -1 0.16516233E+00 0.67863847E+03</pdfrwt>
<totfact> 0.14947993E+01</totfact>
</mgrwt>
</event>
<event>
 4    1  0.1043382E-007  0.1090527E+04  0.7818608E-02  0.9271677E-01
          1   -1    0    0  501    0  0.00000000000E+00  0.00000000000E+00  0.21231323109E+04  0.21231323109E+04  0.50400000000E-02 0. -1.
         -1   -1    0    0    0  501 -0.00000000000E+00 -0.00000000000E+00 -0.10024156182E+04  0.10024156182E+04  0.50400000000E-02 0.  1.
    8880023    1    1    2    0    0 -0.76180513866E+03 -0.41844075620E+03  0.17357262128E+04  0.20498769299E+04  0.65864270000E+03 0. -1.
    8880022    1    1    2    0    0  0.76180513866E+03  0.41844075620E+03 -0.61500952011E+03  0.10756709992E+04  0.15294330000E+03 0.  0.
<mgrwt>
<rscale>  0 0.10343270E+04</rscale>
<asrwt>0</asrwt>
<pdfrwt beam="1">  1        1 0.32663573E+00 0.10905274E+04</pdfrwt>
<pdfrwt beam="2">  1       -1 0.15421779E+00 0.10905274E+04</pdfrwt>
<totfact> 0.79423603E-01</totfact>
</mgrwt>
</event>
<event>
 4    1  0.1043382E-007  0.6595558E+03  0.7818608E-02  0.1024616E+00
         -1   -1    0    0    0  501 -0.00000000000E+00  0.00000000000E+00  0.13541820938E+04  0.13541820939E+04  0.50400000000E-02 0.  1.
          1   -1    0    0  501    0  0.00000000000E+00 -0.00000000000E+00 -0.12318941977E+03  0.12318941988E+03  0.50400000000E-02 0. -1.
    8880023    1    1    2    0    0  0.32120874181E+02 -0.13111368688E+02  0.97390817557E+03  0.11762274437E+04  0.65864270000E+03 0. -1.
    8880022    1    1    2    0    0 -0.32120874181E+02  0.13111368688E+02  0.25708449850E+03  0.30114407006E+03  0.15294330000E+03 0. -1.
<mgrwt>
<rscale>  0 0.46056953E+03</rscale>
<asrwt>0</asrwt>
<pdfrwt beam="1">  1        1 0.18952219E-01 0.65955581E+03</pdfrwt>
<pdfrwt beam="2">  1       -1 0.20833570E+00 0.65955581E+03</pdfrwt>
<totfact> 0.38388465E+01</totfact>
</mgrwt>
</event>
<event>
 4    1  0.1043382E-007  0.7305596E+03  0.7818608E-02  0.9888352E-01
         -1   -1    0    0    0  501 -0.00000000000E+00  0.00000000000E+00  0.23418548357E+03  0.23418548362E+03  0.50400000000E-02 0.  1.
          1   -1    0    0  501    0  0.00000000000E+00 -0.00000000000E+00 -0.28442306167E+04  0.28442306167E+04  0.50400000000E-02 0. -1.
    8880023    1    1    2    0    0 -0.31238509855E+03 -0.48193622619E+02 -0.38493025832E+03  0.82576545404E+03  0.65864270000E+03 0.  1.
    8880022    1    1    2    0    0  0.31238509855E+03  0.48193622619E+02 -0.22251148748E+04  0.22526506463E+04  0.15294330000E+03 0.  0.
<mgrwt>
<rscale>  0 0.60829122E+03</rscale>
<asrwt>0</asrwt>
<pdfrwt beam="1">  1        1 0.43757392E+00 0.73055957E+03</pdfrwt>
<pdfrwt beam="2">  1       -1 0.36028538E-01 0.73055957E+03</pdfrwt>
<totfact> 0.60896312E+00</totfact>
</mgrwt>
</event>
<event>
 4    1  0.1043382E-007  0.8271425E+03  0.7818608E-02  0.9654918E-01
         -1   -1    0    0    0  501 -0.00000000000E+00  0.00000000000E+00  0.42626980068E+03  0.42626980071E+03  0.50400000000E-02 0.  1.
          1   -1    0    0  501    0  0.00000000000E+00 -0.00000000000E+00 -0.13080619043E+04  0.13080619043E+04  0.50400000000E-02 0. -1.
    8880023    1    1    2    0    0 -0.48052841050E+03 -0.13945255940E+03 -0.15938733844E+03  0.84235924613E+03  0.65864270000E+03 0.  1.
    8880022    1    1    2    0    0  0.48052841050E+03  0.13945255940E+03 -0.72240476516E+03  0.89197245886E+03  0.15294330000E+03 0.  0.
<mgrwt>
<rscale>  0 0.73765584E+03</rscale>
<asrwt>0</asrwt>
<pdfrwt beam="1">  1        1 0.20124029E+00 0.82714254E+03</pdfrwt>
<pdfrwt beam="2">  1       -1 0.65579970E-01 0.82714254E+03</pdfrwt>
<totfact> 0.21510137E+01</totfact>
</mgrwt>
</event>
<event>
 4    1  0.1043382E-007  0.7262869E+03  0.7818608E-02  0.9901860E-01
          1   -1    0    0  501    0  0.00000000000E+00  0.00000000000E+00  0.31249473090E+03  0.31249473094E+03  0.50400000000E-02 0. -1.
         -1   -1    0    0    0  501 -0.00000000000E+00 -0.00000000000E+00 -0.96616289965E+03  0.96616289966E+03  0.50400000000E-02 0.  1.
    8880023    1    1    2    0    0 -0.22346839612E+03 -0.20915154577E+03 -0.57804429525E+03  0.92823914305E+03  0.65864270000E+03 0. -1.
    8880022    1    1    2    0    0  0.22346839612E+03  0.20915154577E+03 -0.75623873503E+02  0.35041848756E+03  0.15294330000E+03 0.  0.
<mgrwt>
<rscale>  0 0.60171217E+03</rscale>
<asrwt>0</asrwt>
<pdfrwt beam="1">  1        1 0.48076113E-01 0.72628693E+03</pdfrwt>
<pdfrwt beam="2">  1       -1 0.14864044E+00 0.72628693E+03</pdfrwt>
<totfact> 0.30468300E+01</totfact>
</mgrwt>
</event>
<event>
 4    1  0.1043382E-007  0.9105783E+03  0.7818608E-02  0.9509259E-01
          1   -1    0    0  501    0  0.00000000000E+00  0.00000000000E+00  0.11523492390E+04  0.11523492390E+04  0.50400000000E-02 0. -1.
         -1   -1    0    0    0  501 -0.00000000000E+00 -0.00000000000E+00 -0.73074555077E+03  0.73074555079E+03  0.50400000000E-02 0.  1.
    8880023    1    1    2    0    0 -0.60929941921E+03 -0.15523180346E+03 -0.25626329980E+03  0.94595125675E+03  0.65864270000E+03 0.  0.
    8880022    1    1    2    0    0  0.60929941921E+03  0.15523180346E+03  0.67786698804E+03  0.93714353305E+03  0.15294330000E+03 0.  0.
<mgrwt>
<rscale>  0 0.83604626E+03</rscale>
<asrwt>0</asrwt>
<pdfrwt beam="1">  1        1 0.17728450E+00 0.91057833E+03</pdfrwt>
<pdfrwt beam="2">  1       -1 0.11242239E+00 0.91057833E+03</pdfrwt>
<totfact> 0.85076050E+00</totfact>
</mgrwt>
</event>
<event>
 4    1  0.1043382E-007  0.9966161E+03  0.7818608E-02  0.9385998E-01
         -1   -1    0    0    0  501 -0.00000000000E+00  0.00000000000E+00  0.90642301395E+03  0.90642301396E+03  0.50400000000E-02 0.  1.
          1   -1    0    0  501    0  0.00000000000E+00 -0.00000000000E+00 -0.10476118177E+04  0.10476118177E+04  0.50400000000E-02 0. -1.
    8880023    1    1    2    0    0  0.70982284470E+03 -0.23576463345E+03 -0.49480101692E+03  0.11126866971E+04  0.65864270000E+03 0.  0.
    8880022    1    1    2    0    0 -0.70982284470E+03  0.23576463345E+03  0.35361221318E+03  0.84134813459E+03  0.15294330000E+03 0.  0.
<mgrwt>
<rscale>  0 0.93236981E+03</rscale>
<asrwt>0</asrwt>
<pdfrwt beam="1">  1        1 0.16117105E+00 0.99661609E+03</pdfrwt>
<pdfrwt beam="2">  1       -1 0.13944969E+00 0.99661609E+03</pdfrwt>
<totfact> 0.59035977E+00</totfact>
</mgrwt>
</event>
<event>
 4    1  0.1043382E-007  0.1005758E+04  0.7818608E-02  0.9374062E-01
         -1   -1    0    0    0  501 -0.00000000000E+00  0.00000000000E+00  0.69626850707E+03  0.69626850708E+03  0.50400000000E-02 0.  1.
          1   -1    0    0  501    0  0.00000000000E+00 -0.00000000000E+00 -0.16277815424E+04  0.16277815424E+04  0.50400000000E-02 0. -1.
    8880023    1    1    2    0    0  0.60604487042E+03  0.45874769256E+03  0.12508187305E+03  0.10135065425E+04  0.65864270000E+03 0.  1.
    8880022    1    1    2    0    0 -0.60604487042E+03 -0.45874769256E+03 -0.10565949084E+04  0.13105435071E+04  0.15294330000E+03 0.  0.
<mgrwt>
<rscale>  0 0.94241339E+03</rscale>
<asrwt>0</asrwt>
<pdfrwt beam="1">  1        1 0.25042793E+00 0.10057584E+04</pdfrwt>
<pdfrwt beam="2">  1       -1 0.10711823E+00 0.10057584E+04</pdfrwt>
<totfact> 0.43650815E+00</totfact>
</mgrwt>
</event>
<event>
 4    1  0.1043382E-007  0.7050462E+03  0.7818608E-02  0.9976878E-01
         -1   -1    0    0    0  501 -0.00000000000E+00  0.00000000000E+00  0.26554969603E+03  0.26554969608E+03  0.50400000000E-02 0.  1.
          1   -1    0    0  501    0  0.00000000000E+00 -0.00000000000E+00 -0.10530243766E+04  0.10530243766E+04  0.50400000000E-02 0. -1.
    8880023    1    1    2    0    0 -0.20977593776E+03  0.13883083486E+03 -0.33951798152E+03  0.78253601247E+03  0.65864270000E+03 0.  0.
    8880022    1    1    2    0    0  0.20977593776E+03 -0.13883083486E+03 -0.44795669909E+03  0.53603806025E+03  0.15294330000E+03 0.  0.
<mgrwt>
<rscale>  0 0.56675816E+03</rscale>
<asrwt>0</asrwt>
<pdfrwt beam="1">  1        1 0.16200375E+00 0.70504620E+03</pdfrwt>
<pdfrwt beam="2">  1       -1 0.40853800E-01 0.70504620E+03</pdfrwt>
<totfact> 0.82670544E+01</totfact>
</mgrwt>
</event>
<event>
 4    1  0.1043382E-007  0.7884188E+03  0.7818608E-02  0.9736420E-01
         -1   -1    0    0    0  501 -0.00000000000E+00  0.00000000000E+00  0.80380225863E+03  0.80380225864E+03  0.50400000000E-02 0.  1.
          1   -1    0    0  501    0  0.00000000000E+00 -0.00000000000E+00 -0.10451036635E+04  0.10451036635E+04  0.50400000000E-02 0. -1.
    8880023    1    1    2    0    0  0.38821958869E+03  0.19256065629E+03  0.53076032906E+03  0.95042663502E+03  0.65864270000E+03 0.  1.
    8880022    1    1    2    0    0 -0.38821958869E+03 -0.19256065629E+03 -0.77206173388E+03  0.89847928709E+03  0.15294330000E+03 0.  0.
<mgrwt>
<rscale>  0 0.68889147E+03</rscale>
<asrwt>0</asrwt>
<pdfrwt beam="1">  1        1 0.16078518E+00 0.78841884E+03</pdfrwt>
<pdfrwt beam="2">  1       -1 0.12366189E+00 0.78841884E+03</pdfrwt>
<totfact> 0.82524303E+00</totfact>
</mgrwt>
</event>
<event>
 4    1  0.1043382E-007  0.6773147E+03  0.7818608E-02  0.1010885E+00
         -1   -1    0    0    0  501 -0.00000000000E+00  0.00000000000E+00  0.43673391659E+03  0.43673391662E+03  0.50400000000E-02 0.  1.
          1   -1    0    0  501    0  0.00000000000E+00 -0.00000000000E+00 -0.58543219670E+03  0.58543219672E+03  0.50400000000E-02 0. -1.
    8880023    1    1    2    0    0 -0.67346746323E+02 -0.14286155772E+03  0.10615713646E+03  0.68558336677E+03  0.65864270000E+03 0.  1.
    8880022    1    1    2    0    0  0.67346746323E+02  0.14286155772E+03 -0.25485541657E+03  0.33658274656E+03  0.15294330000E+03 0.  0.
<mgrwt>
<rscale>  0 0.51124310E+03</rscale>
<asrwt>0</asrwt>
<pdfrwt beam="1">  1        1 0.90066491E-01 0.67731471E+03</pdfrwt>
<pdfrwt beam="2">  1       -1 0.67189834E-01 0.67731471E+03</pdfrwt>
<totfact> 0.81612382E+01</totfact>
</mgrwt>
</event>
<event>
 4    1  0.1043382E-007  0.6772866E+03  0.7818608E-02  0.1010902E+00
          1   -1    0    0  501    0  0.00000000000E+00  0.00000000000E+00  0.77053008180E+03  0.77053008182E+03  0.50400000000E-02 0. -1.
         -1   -1    0    0    0  501 -0.00000000000E+00 -0.00000000000E+00 -0.47758580685E+03  0.47758580688E+03  0.50400000000E-02 0.  1.
    8880023    1    1    2    0    0  0.10662539901E+03 -0.11635286495E+03 -0.20183754258E+03  0.70672170248E+03  0.65864270000E+03 0.  1.
    8880022    1    1    2    0    0 -0.10662539901E+03  0.11635286495E+03  0.49478181753E+03  0.54139418622E+03  0.15294330000E+03 0.  0.
<mgrwt>
<rscale>  0 0.51117689E+03</rscale>
<asrwt>0</asrwt>
<pdfrwt beam="1">  1        1 0.11854309E+00 0.67728662E+03</pdfrwt>
<pdfrwt beam="2">  1       -1 0.73474740E-01 0.67728662E+03</pdfrwt>
<totfact> 0.45156379E+01</totfact>
</mgrwt>
</event>
<event>
 4    1  0.1043382E-007  0.7631346E+03  0.7818608E-02  0.9797059E-01
          1   -1    0    0  501    0  0.00000000000E+00  0.00000000000E+00  0.73134176651E+03  0.73134176653E+03  0.50400000000E-02 0. -1.
         -1   -1    0    0    0  501 -0.00000000000E+00 -0.00000000000E+00 -0.67084852242E+03  0.67084852244E+03  0.50400000000E-02 0.  1.
    8880023    1    1    2    0    0 -0.38543461651E+03  0.20878917629E+01 -0.33107435571E+03  0.83185614031E+03  0.65864270000E+03 0.  0.
    8880022    1    1    2    0    0  0.38543461651E+03 -0.20878917629E+01  0.39156759981E+03  0.57033414866E+03  0.15294330000E+03 0.  0.
<mgrwt>
<rscale>  0 0.65520617E+03</rscale>
<asrwt>0</asrwt>
<pdfrwt beam="1">  1        1 0.11251412E+00 0.76313459E+03</pdfrwt>
<pdfrwt beam="2">  1       -1 0.10320747E+00 0.76313459E+03</pdfrwt>
<totfact> 0.23134177E+01</totfact>
</mgrwt>
</event>
<event>
 4    1  0.1043382E-007  0.7077305E+03  0.7818608E-02  0.9966527E-01
         -1   -1    0    0    0  501 -0.00000000000E+00  0.00000000000E+00  0.40441765069E+03  0.40441765072E+03  0.50400000000E-02 0.  1.
          1   -1    0    0  501    0  0.00000000000E+00 -0.00000000000E+00 -0.10022896541E+04  0.10022896541E+04  0.50400000000E-02 0. -1.
    8880023    1    1    2    0    0  0.25123408874E+03  0.62878013967E+02  0.32268797450E+02  0.70846573208E+03  0.65864270000E+03 0.  1.
    8880022    1    1    2    0    0 -0.25123408874E+03 -0.62878013967E+02 -0.63014080088E+03  0.69824157276E+03  0.15294330000E+03 0.  0.
<mgrwt>
<rscale>  0 0.57142642E+03</rscale>
<asrwt>0</asrwt>
<pdfrwt beam="1">  1        1 0.15419841E+00 0.70773047E+03</pdfrwt>
<pdfrwt beam="2">  1       -1 0.62218100E-01 0.70773047E+03</pdfrwt>
<totfact> 0.40666656E+01</totfact>
</mgrwt>
</event>
<event>
 4    1  0.1043382E-007  0.6694321E+03  0.7818608E-02  0.1016073E+00
          1   -1    0    0  501    0  0.00000000000E+00  0.00000000000E+00  0.23158553699E+04  0.23158553699E+04  0.50400000000E-02 0. -1.
         -1   -1    0    0    0  501 -0.00000000000E+00 -0.00000000000E+00 -0.37878339005E+03  0.37878339009E+03  0.50400000000E-02 0.  1.
    8880023    1    1    2    0    0 -0.21025458849E+01 -0.11968561591E+03 -0.74633635078E+02  0.67357958186E+03  0.65864270000E+03 0.  1.
    8880022    1    1    2    0    0  0.21025458849E+01  0.11968561591E+03  0.20117056149E+04  0.20210591781E+04  0.15294330000E+03 0.  0.
<mgrwt>
<rscale>  0 0.49130635E+03</rscale>
<asrwt>0</asrwt>
<pdfrwt beam="1">  1        1 0.35628545E+00 0.66943205E+03</pdfrwt>
<pdfrwt beam="2">  1       -1 0.58274367E-01 0.66943205E+03</pdfrwt>
<totfact> 0.57981569E+00</totfact>
</mgrwt>
</event>
<event>
 4    1  0.1043382E-007  0.7595457E+03  0.7818608E-02  0.9806285E-01
         -1   -1    0    0    0  501 -0.00000000000E+00  0.00000000000E+00  0.27473860959E+03  0.27473860964E+03  0.50400000000E-02 0.  1.
          1   -1    0    0  501    0  0.00000000000E+00 -0.00000000000E+00 -0.12863700539E+04  0.12863700539E+04  0.50400000000E-02 0. -1.
    8880023    1    1    2    0    0  0.35519242984E+03  0.13014534211E+03 -0.51184146268E+03  0.91591012740E+03  0.65864270000E+03 0.  0.
    8880022    1    1    2    0    0 -0.35519242984E+03 -0.13014534211E+03 -0.49978998158E+03  0.64519853611E+03  0.15294330000E+03 0.  0.
<mgrwt>
<rscale>  0 0.65026341E+03</rscale>
<asrwt>0</asrwt>
<pdfrwt beam="1">  1        1 0.19790308E+00 0.75954571E+03</pdfrwt>
<pdfrwt beam="2">  1       -1 0.42267479E-01 0.75954571E+03</pdfrwt>
<totfact> 0.52172729E+01</totfact>
</mgrwt>
</event>
<event>
 4    1  0.1043382E-007  0.7207419E+03  0.7818608E-02  0.9920083E-01
          1   -1    0    0  501    0  0.00000000000E+00  0.00000000000E+00  0.11131583259E+04  0.11131583259E+04  0.50400000000E-02 0. -1.
         -1   -1    0    0    0  501 -0.00000000000E+00 -0.00000000000E+00 -0.27942743060E+03  0.27942743065E+03  0.50400000000E-02 0.  1.
    8880023    1    1    2    0    0 -0.83583971881E+01 -0.29255575430E+03  0.77288878235E+03  0.10567998904E+04  0.65864270000E+03 0. -1.
    8880022    1    1    2    0    0  0.83583971881E+01  0.29255575430E+03  0.60842112915E+02  0.33578586614E+03  0.15294330000E+03 0.  1.
<mgrwt>
<rscale>  0 0.59297754E+03</rscale>
<asrwt>0</asrwt>
<pdfrwt beam="1">  1        1 0.17125513E+00 0.72074194E+03</pdfrwt>
<pdfrwt beam="2">  1       -1 0.42988835E-01 0.72074194E+03</pdfrwt>
<totfact> 0.67778031E+01</totfact>
</mgrwt>
</event>
<event>
 4    1  0.1043382E-007  0.6770758E+03  0.7818608E-02  0.1011029E+00
         -1   -1    0    0    0  501 -0.00000000000E+00  0.00000000000E+00  0.90435213834E+02  0.90435213974E+02  0.50400000000E-02 0.  1.
          1   -1    0    0  501    0  0.00000000000E+00 -0.00000000000E+00 -0.23295227385E+04  0.23295227385E+04  0.50400000000E-02 0. -1.
    8880023    1    1    2    0    0  0.17759559751E+02  0.15590380871E+03 -0.14377110113E+04  0.15891647359E+04  0.65864270000E+03 0.  0.
    8880022    1    1    2    0    0 -0.17759559751E+02 -0.15590380871E+03 -0.80137651336E+03  0.83079321658E+03  0.15294330000E+03 0.  0.
<mgrwt>
<rscale>  0 0.51067885E+03</rscale>
<asrwt>0</asrwt>
<pdfrwt beam="1">  1        1 0.35838807E+00 0.67707578E+03</pdfrwt>
<pdfrwt beam="2">  1       -1 0.13913112E-01 0.67707578E+03</pdfrwt>
<totfact> 0.69171631E+01</totfact>
</mgrwt>
</event>
<event>
 4    1  0.1043382E-007  0.6599864E+03  0.7818608E-02  0.1024170E+00
         -1   -1    0    0    0  501 -0.00000000000E+00  0.00000000000E+00  0.23626105108E+03  0.23626105113E+03  0.50400000000E-02 0.  1.
          1   -1    0    0  501    0  0.00000000000E+00 -0.00000000000E+00 -0.12836084194E+04  0.12836084194E+04  0.50400000000E-02 0. -1.
    8880023    1    1    2    0    0 -0.42033433115E+02  0.22364161420E+01 -0.24817358478E+03  0.70510435079E+03  0.65864270000E+03 0.  1.
    8880022    1    1    2    0    0  0.42033433115E+02 -0.22364161420E+01 -0.79917378356E+03  0.81476511977E+03  0.15294330000E+03 0.  0.
<mgrwt>
<rscale>  0 0.46211230E+03</rscale>
<asrwt>0</asrwt>
<pdfrwt beam="1">  1        1 0.19747821E+00 0.65998638E+03</pdfrwt>
<pdfrwt beam="2">  1       -1 0.36347855E-01 0.65998638E+03</pdfrwt>
<totfact> 0.69609683E+01</totfact>
</mgrwt>
</event>
<event>
 4    1  0.1043382E-007  0.6852665E+03  0.7818608E-02  0.1006489E+00
          1   -1    0    0  501    0  0.00000000000E+00  0.00000000000E+00  0.13015651468E+04  0.13015651468E+04  0.50400000000E-02 0. -1.
         -1   -1    0    0    0  501 -0.00000000000E+00 -0.00000000000E+00 -0.39223623429E+03  0.39223623432E+03  0.50400000000E-02 0.  1.
    8880023    1    1    2    0    0  0.26143899735E+02 -0.18734045520E+03 -0.66148566562E+02  0.68845173307E+03  0.65864270000E+03 0.  1.
    8880022    1    1    2    0    0 -0.26143899735E+02  0.18734045520E+03  0.97547747903E+03  0.10053496480E+04  0.15294330000E+03 0.  0.
<mgrwt>
<rscale>  0 0.52894289E+03</rscale>
<asrwt>0</asrwt>
<pdfrwt beam="1">  1        1 0.20024079E+00 0.68526649E+03</pdfrwt>
<pdfrwt beam="2">  1       -1 0.60344037E-01 0.68526649E+03</pdfrwt>
<totfact> 0.26111901E+01</totfact>
</mgrwt>
</event>
<event>
 4    1  0.1043382E-007  0.7015252E+03  0.7818608E-02  0.9990932E-01
          1   -1    0    0  501    0  0.00000000000E+00  0.00000000000E+00  0.13375817167E+04  0.13375817167E+04  0.50400000000E-02 0. -1.
         -1   -1    0    0    0  501 -0.00000000000E+00 -0.00000000000E+00 -0.28469983957E+03  0.28469983961E+03  0.50400000000E-02 0.  1.
    8880023    1    1    2    0    0  0.23879580386E+03 -0.36110751349E+02  0.21006005522E+03  0.73229970324E+03  0.65864270000E+03 0.  1.
    8880022    1    1    2    0    0 -0.23879580386E+03  0.36110751349E+02  0.84282182191E+03  0.88998185307E+03  0.15294330000E+03 0. -1.
<mgrwt>
<rscale>  0 0.56049649E+03</rscale>
<asrwt>0</asrwt>
<pdfrwt beam="1">  1        1 0.20578181E+00 0.70152522E+03</pdfrwt>
<pdfrwt beam="2">  1       -1 0.43799974E-01 0.70152522E+03</pdfrwt>
<totfact> 0.45247897E+01</totfact>
</mgrwt>
</event>
<event>
 4    1  0.1043382E-007  0.8865570E+03  0.7818608E-02  0.9547966E-01
         -1   -1    0    0    0  501 -0.00000000000E+00  0.00000000000E+00  0.44254084913E+03  0.44254084916E+03  0.50400000000E-02 0.  1.
          1   -1    0    0  501    0  0.00000000000E+00 -0.00000000000E+00 -0.26047157963E+04  0.26047157963E+04  0.50400000000E-02 0. -1.
    8880023    1    1    2    0    0 -0.34630645986E+03 -0.48191792138E+03 -0.95561070757E+02  0.89169230769E+03  0.65864270000E+03 0.  0.
    8880022    1    1    2    0    0  0.34630645986E+03  0.48191792138E+03 -0.20666138764E+04  0.21555643378E+04  0.15294330000E+03 0. -1.
<mgrwt>
<rscale>  0 0.80838004E+03</rscale>
<asrwt>0</asrwt>
<pdfrwt beam="1">  1        1 0.40072550E+00 0.88655697E+03</pdfrwt>
<pdfrwt beam="2">  1       -1 0.68083209E-01 0.88655697E+03</pdfrwt>
<totfact> 0.25977802E+00</totfact>
</mgrwt>
</event>
<event>
 4    1  0.1043382E-007  0.7508003E+03  0.7818608E-02  0.9829534E-01
          1   -1    0    0  501    0  0.00000000000E+00  0.00000000000E+00  0.35632843567E+03  0.35632843570E+03  0.50400000000E-02 0. -1.
         -1   -1    0    0    0  501 -0.00000000000E+00 -0.00000000000E+00 -0.17012122823E+04  0.17012122823E+04  0.50400000000E-02 0.  1.
    8880023    1    1    2    0    0 -0.16222883488E+03 -0.32182718724E+03 -0.14665448073E+04  0.16475602603E+04  0.65864270000E+03 0.  1.
    8880022    1    1    2    0    0  0.16222883488E+03  0.32182718724E+03  0.12166096067E+03  0.40998045768E+03  0.15294330000E+03 0.  0.
<mgrwt>
<rscale>  0 0.63801361E+03</rscale>
<asrwt>0</asrwt>
<pdfrwt beam="1">  1        1 0.54819760E-01 0.75080033E+03</pdfrwt>
<pdfrwt beam="2">  1       -1 0.26172496E+00 0.75080033E+03</pdfrwt>
<totfact> 0.42606367E+00</totfact>
</mgrwt>
</event>
<event>
 4    1  0.1043382E-007  0.6762276E+03  0.7818608E-02  0.1011543E+00
          1   -1    0    0  501    0  0.00000000000E+00  0.00000000000E+00  0.18095813776E+04  0.18095813776E+04  0.50400000000E-02 0. -1.
         -1   -1    0    0    0  501 -0.00000000000E+00 -0.00000000000E+00 -0.33992852836E+03  0.33992852839E+03  0.50400000000E-02 0.  1.
    8880023    1    1    2    0    0 -0.29541815342E+02  0.15033593373E+03  0.12478819350E+02  0.67634276740E+03  0.65864270000E+03 0.  1.
    8880022    1    1    2    0    0  0.29541815342E+02 -0.15033593373E+03  0.14571740299E+04  0.14731671386E+04  0.15294330000E+03 0.  0.
<mgrwt>
<rscale>  0 0.50865823E+03</rscale>
<asrwt>0</asrwt>
<pdfrwt beam="1">  1        1 0.27839713E+00 0.67622764E+03</pdfrwt>
<pdfrwt beam="2">  1       -1 0.52296697E-01 0.67622764E+03</pdfrwt>
<totfact> 0.15550391E+01</totfact>
</mgrwt>
</event>
<event>
 4    1  0.1043382E-007  0.7181683E+03  0.7818608E-02  0.9928833E-01
          1   -1    0    0  501    0  0.00000000000E+00  0.00000000000E+00  0.11419242919E+04  0.11419242919E+04  0.50400000000E-02 0. -1.
         -1   -1    0    0    0  501 -0.00000000000E+00 -0.00000000000E+00 -0.60244430834E+03  0.60244430837E+03  0.50400000000E-02 0.  1.
    8880023    1    1    2    0    0 -0.18041901885E+03 -0.22227102586E+03 -0.34898687670E+03  0.79847196424E+03  0.65864270000E+03 0.  1.
    8880022    1    1    2    0    0  0.18041901885E+03  0.22227102586E+03  0.88846686029E+03  0.94589663608E+03  0.15294330000E+03 0.  0.
<mgrwt>
<rscale>  0 0.58884022E+03</rscale>
<asrwt>0</asrwt>
<pdfrwt beam="1">  1        1 0.17568066E+00 0.71816825E+03</pdfrwt>
<pdfrwt beam="2">  1       -1 0.92683741E-01 0.71816825E+03</pdfrwt>
<totfact> 0.13838875E+01</totfact>
</mgrwt>
</event>
<event>
 4    1  0.1043382E-007  0.6872722E+03  0.7818608E-02  0.1005477E+00
         -1   -1    0    0    0  501 -0.00000000000E+00  0.00000000000E+00  0.30345525272E+03  0.30345525276E+03  0.50400000000E-02 0.  1.
          1   -1    0    0  501    0  0.00000000000E+00 -0.00000000000E+00 -0.95586984981E+03  0.95586984982E+03  0.50400000000E-02 0. -1.
    8880023    1    1    2    0    0  0.15967149029E+01 -0.19629156088E+03 -0.15707803203E+03  0.70499407145E+03  0.65864270000E+03 0.  1.
    8880022    1    1    2    0    0 -0.15967149029E+01  0.19629156088E+03 -0.49533656507E+03  0.55433103113E+03  0.15294330000E+03 0.  0.
<mgrwt>
<rscale>  0 0.53312554E+03</rscale>
<asrwt>0</asrwt>
<pdfrwt beam="1">  1        1 0.14705690E+00 0.68727224E+03</pdfrwt>
<pdfrwt beam="2">  1       -1 0.46685424E-01 0.68727224E+03</pdfrwt>
<totfact> 0.76952893E+01</totfact>
</mgrwt>
</event>
<event>
 4    1  0.1043382E-007  0.7047995E+03  0.7818608E-02  0.9977845E-01
         -1   -1    0    0    0  501 -0.00000000000E+00  0.00000000000E+00  0.84572218599E+03  0.84572218600E+03  0.50400000000E-02 0.  1.
          1   -1    0    0  501    0  0.00000000000E+00 -0.00000000000E+00 -0.78826843167E+03  0.78826843169E+03  0.50400000000E-02 0. -1.
    8880023    1    1    2    0    0  0.14522072451E+03  0.20455588013E+03  0.65876688671E+03  0.96473632885E+03  0.65864270000E+03 0.  1.
    8880022    1    1    2    0    0 -0.14522072451E+03 -0.20455588013E+03 -0.60131313239E+03  0.66925428884E+03  0.15294330000E+03 0.  0.
<mgrwt>
<rscale>  0 0.56632474E+03</rscale>
<asrwt>0</asrwt>
<pdfrwt beam="1">  1        1 0.12127207E+00 0.70479953E+03</pdfrwt>
<pdfrwt beam="2">  1       -1 0.13011111E+00 0.70479953E+03</pdfrwt>
<totfact> 0.11873117E+01</totfact>
</mgrwt>
</event>
<event>
 4    1  0.1043382E-007  0.6941082E+03  0.7818608E-02  0.1002258E+00
         -1   -1    0    0    0  501 -0.00000000000E+00  0.00000000000E+00  0.73696203303E+03  0.73696203305E+03  0.50400000000E-02 0.  1.
          1   -1    0    0  501    0  0.00000000000E+00 -0.00000000000E+00 -0.56864006740E+03  0.56864006742E+03  0.50400000000E-02 0. -1.
    8880023    1    1    2    0    0  0.20913261351E+03  0.65112042863E+02  0.51761568137E+03  0.86585924262E+03  0.65864270000E+03 0.  1.
    8880022    1    1    2    0    0 -0.20913261351E+03 -0.65112042863E+02 -0.34929371574E+03  0.43974285785E+03  0.15294330000E+03 0.  0.
<mgrwt>
<rscale>  0 0.54671135E+03</rscale>
<asrwt>0</asrwt>
<pdfrwt beam="1">  1        1 0.87483087E-01 0.69410823E+03</pdfrwt>
<pdfrwt beam="2">  1       -1 0.11337877E+00 0.69410823E+03</pdfrwt>
<totfact> 0.27082649E+01</totfact>
</mgrwt>
</event>
<event>
 4    1  0.1043382E-007  0.6604349E+03  0.7818608E-02  0.1023715E+00
         -1   -1    0    0    0  501 -0.00000000000E+00  0.00000000000E+00  0.25582363440E+03  0.25582363445E+03  0.50400000000E-02 0.  1.
          1   -1    0    0  501    0  0.00000000000E+00 -0.00000000000E+00 -0.13168505686E+04  0.13168505686E+04  0.50400000000E-02 0. -1.
    8880023    1    1    2    0    0 -0.48605281494E+02 -0.12382376065E+01 -0.19033405637E+03  0.68731453200E+03  0.65864270000E+03 0.  1.
    8880022    1    1    2    0    0  0.48605281494E+02  0.12382376065E+01 -0.87069287780E+03  0.88535967103E+03  0.15294330000E+03 0.  0.
<mgrwt>
<rscale>  0 0.46369411E+03</rscale>
<asrwt>0</asrwt>
<pdfrwt beam="1">  1        1 0.20259239E+00 0.66043487E+03</pdfrwt>
<pdfrwt beam="2">  1       -1 0.39357483E-01 0.66043487E+03</pdfrwt>
<totfact> 0.57163016E+01</totfact>
</mgrwt>
</event>
<event>
 4    1  0.1043382E-007  0.7306691E+03  0.7818608E-02  0.9888012E-01
          1   -1    0    0  501    0  0.00000000000E+00  0.00000000000E+00  0.59954757910E+03  0.59954757912E+03  0.50400000000E-02 0. -1.
         -1   -1    0    0    0  501 -0.00000000000E+00 -0.00000000000E+00 -0.96891630047E+03  0.96891630049E+03  0.50400000000E-02 0.  1.
    8880023    1    1    2    0    0  0.72472640819E+02 -0.30792022846E+03 -0.75231925986E+03  0.10487428788E+04  0.65864270000E+03 0.  1.
    8880022    1    1    2    0    0 -0.72472640819E+02  0.30792022846E+03  0.38295053849E+03  0.51972100083E+03  0.15294330000E+03 0.  0.
<mgrwt>
<rscale>  0 0.60845830E+03</rscale>
<asrwt>0</asrwt>
<pdfrwt beam="1">  1        1 0.92238089E-01 0.73066912E+03</pdfrwt>
<pdfrwt beam="2">  1       -1 0.14906405E+00 0.73066912E+03</pdfrwt>
<totfact> 0.12549539E+01</totfact>
</mgrwt>
</event>
<event>
 4    1  0.1043382E-007  0.7495689E+03  0.7818608E-02  0.9832902E-01
         -1   -1    0    0    0  501 -0.00000000000E+00  0.00000000000E+00  0.59460556436E+03  0.59460556438E+03  0.50400000000E-02 0.  1.
          1   -1    0    0  501    0  0.00000000000E+00 -0.00000000000E+00 -0.16902856440E+04  0.16902856440E+04  0.50400000000E-02 0. -1.
    8880023    1    1    2    0    0 -0.12168624604E+03 -0.33650518720E+03  0.32123949397E+03  0.81550493698E+03  0.65864270000E+03 0.  1.
    8880022    1    1    2    0    0  0.12168624604E+03  0.33650518720E+03 -0.14169195736E+04  0.14693862714E+04  0.15294330000E+03 0.  0.
<mgrwt>
<rscale>  0 0.63626336E+03</rscale>
<asrwt>0</asrwt>
<pdfrwt beam="1">  1        1 0.26004394E+00 0.74956887E+03</pdfrwt>
<pdfrwt beam="2">  1       -1 0.91477780E-01 0.74956887E+03</pdfrwt>
<totfact> 0.58866148E+00</totfact>
</mgrwt>
</event>
<event>
 4    1  0.1043382E-007  0.7056183E+03  0.7818608E-02  0.9974647E-01
         -1   -1    0    0    0  501 -0.00000000000E+00  0.00000000000E+00  0.25859734372E+03  0.25859734377E+03  0.50400000000E-02 0.  1.
          1   -1    0    0  501    0  0.00000000000E+00 -0.00000000000E+00 -0.17420537709E+04  0.17420537709E+04  0.50400000000E-02 0. -1.
    8880023    1    1    2    0    0 -0.47991837198E+02 -0.24856353214E+03 -0.27629372062E+03  0.75778326206E+03  0.65864270000E+03 0.  1.
    8880022    1    1    2    0    0  0.47991837198E+02  0.24856353214E+03 -0.12071627066E+04  0.12428678526E+04  0.15294330000E+03 0.  0.
<mgrwt>
<rscale>  0 0.56776052E+03</rscale>
<asrwt>0</asrwt>
<pdfrwt beam="1">  1        1 0.26800826E+00 0.70561835E+03</pdfrwt>
<pdfrwt beam="2">  1       -1 0.39784208E-01 0.70561835E+03</pdfrwt>
<totfact> 0.28569455E+01</totfact>
</mgrwt>
</event>
<event>
 4    1  0.1043382E-007  0.6999457E+03  0.7818608E-02  0.9997426E-01
          1   -1    0    0  501    0  0.00000000000E+00  0.00000000000E+00  0.37250634067E+03  0.37250634071E+03  0.50400000000E-02 0. -1.
         -1   -1    0    0    0  501 -0.00000000000E+00 -0.00000000000E+00 -0.10091297510E+04  0.10091297510E+04  0.50400000000E-02 0.  1.
    8880023    1    1    2    0    0 -0.38970521027E+02  0.23365601183E+03 -0.79420388571E+03  0.10586235647E+04  0.65864270000E+03 0.  1.
    8880022    1    1    2    0    0  0.38970521027E+02 -0.23365601183E+03  0.15758047539E+03  0.32301252702E+03  0.15294330000E+03 0.  0.
<mgrwt>
<rscale>  0 0.55763230E+03</rscale>
<asrwt>0</asrwt>
<pdfrwt beam="1">  1        1 0.57308668E-01 0.69994574E+03</pdfrwt>
<pdfrwt beam="2">  1       -1 0.15525073E+00 0.69994574E+03</pdfrwt>
<totfact> 0.21598673E+01</totfact>
</mgrwt>
</event>
<event>
 4    1  0.1043382E-007  0.7121574E+03  0.7818608E-02  0.9950075E-01
         -1   -1    0    0    0  501 -0.00000000000E+00  0.00000000000E+00  0.59034295731E+03  0.59034295733E+03  0.50400000000E-02 0.  1.
          1   -1    0    0  501    0  0.00000000000E+00 -0.00000000000E+00 -0.50862963397E+03  0.50862963399E+03  0.50400000000E-02 0. -1.
    8880023    1    1    2    0    0 -0.26660940584E+03  0.47721404869E+02  0.23799508825E+03  0.75087267633E+03  0.65864270000E+03 0.  1.
    8880022    1    1    2    0    0  0.26660940584E+03 -0.47721404869E+02 -0.15628176491E+03  0.34809991500E+03  0.15294330000E+03 0. -1.
<mgrwt>
<rscale>  0 0.57894606E+03</rscale>
<asrwt>0</asrwt>
<pdfrwt beam="1">  1        1 0.78250713E-01 0.71215737E+03</pdfrwt>
<pdfrwt beam="2">  1       -1 0.90821993E-01 0.71215737E+03</pdfrwt>
<totfact> 0.52495026E+01</totfact>
</mgrwt>
</event>
<event>
 4    1  0.1043382E-007  0.9508925E+03  0.7818608E-02  0.9448831E-01
          1   -1    0    0  501    0  0.00000000000E+00  0.00000000000E+00  0.17700896604E+04  0.17700896604E+04  0.50400000000E-02 0. -1.
         -1   -1    0    0    0  501 -0.00000000000E+00 -0.00000000000E+00 -0.46540232926E+03  0.46540232929E+03  0.50400000000E-02 0.  1.
    8880023    1    1    2    0    0  0.99178018572E+02 -0.67863832493E+03  0.27678443157E+03  0.99035654350E+03  0.65864270000E+03 0.  0.
    8880022    1    1    2    0    0 -0.99178018572E+02  0.67863832493E+03  0.10279028996E+04  0.12451354462E+04  0.15294330000E+03 0.  0.
<mgrwt>
<rscale>  0 0.88163741E+03</rscale>
<asrwt>0</asrwt>
<pdfrwt beam="1">  1        1 0.27232149E+00 0.95089246E+03</pdfrwt>
<pdfrwt beam="2">  1       -1 0.71600358E-01 0.95089246E+03</pdfrwt>
<totfact> 0.85296135E+00</totfact>
</mgrwt>
</event>
<event>
 4    1  0.1043382E-007  0.7022646E+03  0.7818608E-02  0.9987933E-01
          1   -1    0    0  501    0  0.00000000000E+00  0.00000000000E+00  0.17087641122E+04  0.17087641122E+04  0.50400000000E-02 0. -1.
         -1   -1    0    0    0  501 -0.00000000000E+00 -0.00000000000E+00 -0.36818289879E+03  0.36818289882E+03  0.50400000000E-02 0.  1.
    8880023    1    1    2    0    0 -0.20963326455E+03 -0.12417457727E+03 -0.36540247849E+01  0.70227415545E+03  0.65864270000E+03 0.  0.
    8880022    1    1    2    0    0  0.20963326455E+03  0.12417457727E+03  0.13442352382E+04  0.13746728555E+04  0.15294330000E+03 0.  0.
<mgrwt>
<rscale>  0 0.56182525E+03</rscale>
<asrwt>0</asrwt>
<pdfrwt beam="1">  1        1 0.26288678E+00 0.70226465E+03</pdfrwt>
<pdfrwt beam="2">  1       -1 0.56643523E-01 0.70226465E+03</pdfrwt>
<totfact> 0.15514761E+01</totfact>
</mgrwt>
</event>
<event>
 4    1  0.1043382E-007  0.9243881E+03  0.7818608E-02  0.9487963E-01
         -1   -1    0    0    0  501 -0.00000000000E+00  0.00000000000E+00  0.98850050985E+03  0.98850050986E+03  0.50400000000E-02 0.  1.
          1   -1    0    0  501    0  0.00000000000E+00 -0.00000000000E+00 -0.22201175361E+04  0.22201175362E+04  0.50400000000E-02 0. -1.
    8880023    1    1    2    0    0 -0.28734697113E+03 -0.58147651730E+03 -0.19929151091E+04  0.21968623216E+04  0.65864270000E+03 0. -1.
    8880022    1    1    2    0    0  0.28734697113E+03  0.58147651730E+03  0.76129808277E+03  0.10117557244E+04  0.15294330000E+03 0.  0.
<mgrwt>
<rscale>  0 0.85177090E+03</rscale>
<asrwt>0</asrwt>
<pdfrwt beam="1">  1        1 0.34155654E+00 0.92438814E+03</pdfrwt>
<pdfrwt beam="2">  1       -1 0.15207700E+00 0.92438814E+03</pdfrwt>
<totfact> 0.72899900E-01</totfact>
</mgrwt>
</event>
<event>
 4    1  0.1043382E-007  0.7669545E+03  0.7818608E-02  0.9787425E-01
         -1   -1    0    0    0  501 -0.00000000000E+00  0.00000000000E+00  0.54022962434E+03  0.54022962437E+03  0.50400000000E-02 0.  1.
          1   -1    0    0  501    0  0.00000000000E+00 -0.00000000000E+00 -0.65560900523E+03  0.65560900524E+03  0.50400000000E-02 0. -1.
    8880023    1    1    2    0    0  0.28903586348E+03 -0.26620917638E+03 -0.10443640741E+03  0.77403244468E+03  0.65864270000E+03 0.  1.
    8880022    1    1    2    0    0 -0.28903586348E+03  0.26620917638E+03 -0.10942973466E+02  0.42180618493E+03  0.15294330000E+03 0. -1.
<mgrwt>
<rscale>  0 0.66041800E+03</rscale>
<asrwt>0</asrwt>
<pdfrwt beam="1">  1        1 0.10086292E+00 0.76695454E+03</pdfrwt>
<pdfrwt beam="2">  1       -1 0.83112250E-01 0.76695454E+03</pdfrwt>
<totfact> 0.44133892E+01</totfact>
</mgrwt>
</event>
<event>
 4    1  0.1043382E-007  0.8362238E+03  0.7818608E-02  0.9637342E-01
          1   -1    0    0  501    0  0.00000000000E+00  0.00000000000E+00  0.23815631321E+04  0.23815631321E+04  0.50400000000E-02 0. -1.
         -1   -1    0    0    0  501 -0.00000000000E+00 -0.00000000000E+00 -0.43779598043E+03  0.43779598046E+03  0.50400000000E-02 0.  1.
    8880023    1    1    2    0    0 -0.39291477628E+03 -0.33328362697E+03  0.35636030133E+02  0.83698275390E+03  0.65864270000E+03 0.  1.
    8880022    1    1    2    0    0  0.39291477628E+03  0.33328362697E+03  0.19081311216E+04  0.19823763587E+04  0.15294330000E+03 0.  0.
<mgrwt>
<rscale>  0 0.74873173E+03</rscale>
<asrwt>0</asrwt>
<pdfrwt beam="1">  1        1 0.36639433E+00 0.83622378E+03</pdfrwt>
<pdfrwt beam="2">  1       -1 0.67353227E-01 0.83622378E+03</pdfrwt>
<totfact> 0.38066604E+00</totfact>
</mgrwt>
</event>
<event>
 4    1  0.1043382E-007  0.6888778E+03  0.7818608E-02  0.1004691E+00
          1   -1    0    0  501    0  0.00000000000E+00  0.00000000000E+00  0.53920052621E+03  0.53920052623E+03  0.50400000000E-02 0. -1.
         -1   -1    0    0    0  501 -0.00000000000E+00 -0.00000000000E+00 -0.88007853356E+03  0.88007853358E+03  0.50400000000E-02 0.  1.
    8880023    1    1    2    0    0 -0.16292957764E+02  0.20118875759E+03 -0.69851425888E+03  0.98105797626E+03  0.65864270000E+03 0.  1.
    8880022    1    1    2    0    0  0.16292957764E+02 -0.20118875759E+03  0.35763625153E+03  0.43822108356E+03  0.15294330000E+03 0.  0.
<mgrwt>
<rscale>  0 0.53640485E+03</rscale>
<asrwt>0</asrwt>
<pdfrwt beam="1">  1        1 0.82953927E-01 0.68887777E+03</pdfrwt>
<pdfrwt beam="2">  1       -1 0.13539670E+00 0.68887777E+03</pdfrwt>
<totfact> 0.18853110E+01</totfact>
</mgrwt>
</event>
<event>
 4    1  0.1043382E-007  0.8410060E+03  0.7818608E-02  0.9628286E-01
         -1   -1    0    0    0  501 -0.00000000000E+00  0.00000000000E+00  0.12785840404E+04  0.12785840405E+04  0.50400000000E-02 0.  1.
          1   -1    0    0  501    0  0.00000000000E+00 -0.00000000000E+00 -0.45057331986E+03  0.45057331989E+03  0.50400000000E-02 0. -1.
    8880023    1    1    2    0    0  0.52258202280E+03  0.19722197581E+02  0.83378431054E+03  0.11842666163E+04  0.65864270000E+03 0.  1.
    8880022    1    1    2    0    0 -0.52258202280E+03 -0.19722197581E+02 -0.57735899490E+01  0.54489074408E+03  0.15294330000E+03 0.  0.
<mgrwt>
<rscale>  0 0.75451972E+03</rscale>
<asrwt>0</asrwt>
<pdfrwt beam="1">  1        1 0.69318973E-01 0.84100603E+03</pdfrwt>
<pdfrwt beam="2">  1       -1 0.19670524E+00 0.84100603E+03</pdfrwt>
<totfact> 0.82801366E+00</totfact>
</mgrwt>
</event>
<event>
 4    1  0.1043382E-007  0.7669321E+03  0.7818608E-02  0.9787481E-01
         -1   -1    0    0    0  501 -0.00000000000E+00  0.00000000000E+00  0.98531616430E+03  0.98531616432E+03  0.50400000000E-02 0.  1.
          1   -1    0    0  501    0  0.00000000000E+00 -0.00000000000E+00 -0.37752941309E+03  0.37752941312E+03  0.50400000000E-02 0. -1.
    8880023    1    1    2    0    0  0.36952385375E+03  0.13351678261E+03  0.53471801577E+03  0.93493752325E+03  0.65864270000E+03 0.  0.
    8880022    1    1    2    0    0 -0.36952385375E+03 -0.13351678261E+03  0.73068735445E+02  0.42790805419E+03  0.15294330000E+03 0.  0.
<mgrwt>
<rscale>  0 0.66038750E+03</rscale>
<asrwt>0</asrwt>
<pdfrwt beam="1">  1        1 0.58081449E-01 0.76693208E+03</pdfrwt>
<pdfrwt beam="2">  1       -1 0.15158710E+00 0.76693208E+03</pdfrwt>
<totfact> 0.22484400E+01</totfact>
</mgrwt>
</event>
<event>
 4    1  0.1043382E-007  0.9438617E+03  0.7818608E-02  0.9459001E-01
          1   -1    0    0  501    0  0.00000000000E+00  0.00000000000E+00  0.29137530385E+04  0.29137530385E+04  0.50400000000E-02 0. -1.
         -1   -1    0    0    0  501 -0.00000000000E+00 -0.00000000000E+00 -0.25909870659E+03  0.25909870664E+03  0.50400000000E-02 0.  1.
    8880023    1    1    2    0    0 -0.63212989716E+03 -0.23974248687E+03  0.20344653168E+04  0.22427492055E+04  0.65864270000E+03 0.  0.
    8880022    1    1    2    0    0  0.63212989716E+03  0.23974248687E+03  0.62018901503E+03  0.93010253965E+03  0.15294330000E+03 0.  0.
<mgrwt>
<rscale>  0 0.87375164E+03</rscale>
<asrwt>0</asrwt>
<pdfrwt beam="1">  1        1 0.44826965E+00 0.94386168E+03</pdfrwt>
<pdfrwt beam="2">  1       -1 0.39861343E-01 0.94386168E+03</pdfrwt>
<totfact> 0.43743369E+00</totfact>
</mgrwt>
</event>
<event>
 4    1  0.1043382E-007  0.9038615E+03  0.7818608E-02  0.9519861E-01
         -1   -1    0    0    0  501 -0.00000000000E+00  0.00000000000E+00  0.23758865206E+03  0.23758865211E+03  0.50400000000E-02 0.  1.
          1   -1    0    0  501    0  0.00000000000E+00 -0.00000000000E+00 -0.29106026438E+04  0.29106026438E+04  0.50400000000E-02 0. -1.
    8880023    1    1    2    0    0  0.24895337140E+03 -0.56672529846E+03 -0.95139948525E+03  0.13122981871E+04  0.65864270000E+03 0.  0.
    8880022    1    1    2    0    0 -0.24895337140E+03  0.56672529846E+03 -0.17216145065E+04  0.18358931089E+04  0.15294330000E+03 0.  0.
<mgrwt>
<rscale>  0 0.82835262E+03</rscale>
<asrwt>0</asrwt>
<pdfrwt beam="1">  1        1 0.44778500E+00 0.90386147E+03</pdfrwt>
<pdfrwt beam="2">  1       -1 0.36552102E-01 0.90386147E+03</pdfrwt>
<totfact> 0.51750101E+00</totfact>
</mgrwt>
</event>
<event>
 4    1  0.1043382E-007  0.8758418E+03  0.7818608E-02  0.9565982E-01
         -1   -1    0    0    0  501 -0.00000000000E+00  0.00000000000E+00  0.11509277662E+04  0.11509277662E+04  0.50400000000E-02 0.  1.
          1   -1    0    0  501    0  0.00000000000E+00 -0.00000000000E+00 -0.12880103331E+04  0.12880103331E+04  0.50400000000E-02 0. -1.
    8880023    1    1    2    0    0  0.55690801145E+03  0.15212557938E+03  0.89136934111E+03  0.12496552459E+04  0.65864270000E+03 0.  0.
    8880022    1    1    2    0    0 -0.55690801145E+03 -0.15212557938E+03 -0.10284519081E+04  0.11892828534E+04  0.15294330000E+03 0. -1.
<mgrwt>
<rscale>  0 0.79589205E+03</rscale>
<asrwt>0</asrwt>
<pdfrwt beam="1">  1        1 0.19815544E+00 0.87584184E+03</pdfrwt>
<pdfrwt beam="2">  1       -1 0.17706581E+00 0.87584184E+03</pdfrwt>
<totfact> 0.20620585E+00</totfact>
</mgrwt>
</event>
<event>
 4    1  0.1043382E-007  0.8249152E+03  0.7818608E-02  0.9659308E-01
         -1   -1    0    0    0  501 -0.00000000000E+00  0.00000000000E+00  0.80399130338E+03  0.80399130340E+03  0.50400000000E-02 0.  1.
          1   -1    0    0  501    0  0.00000000000E+00 -0.00000000000E+00 -0.12032681168E+04  0.12032681168E+04  0.50400000000E-02 0. -1.
    8880023    1    1    2    0    0  0.49410016534E+03  0.50397219326E+02  0.50289159783E+03  0.96611853234E+03  0.65864270000E+03 0.  0.
    8880022    1    1    2    0    0 -0.49410016534E+03 -0.50397219326E+02 -0.90216841124E+03  0.10411408879E+04  0.15294330000E+03 0.  0.
<mgrwt>
<rscale>  0 0.73492126E+03</rscale>
<asrwt>0</asrwt>
<pdfrwt beam="1">  1        1 0.18511817E+00 0.82491518E+03</pdfrwt>
<pdfrwt beam="2">  1       -1 0.12369097E+00 0.82491518E+03</pdfrwt>
<totfact> 0.62616905E+00</totfact>
</mgrwt>
</event>
<event>
 4    1  0.1043382E-007  0.9447296E+03  0.7818608E-02  0.9457738E-01
          1   -1    0    0  501    0  0.00000000000E+00  0.00000000000E+00  0.10787132056E+04  0.10787132056E+04  0.50400000000E-02 0. -1.
         -1   -1    0    0    0  501 -0.00000000000E+00 -0.00000000000E+00 -0.20237705390E+04  0.20237705390E+04  0.50400000000E-02 0.  1.
    8880023    1    1    2    0    0  0.48731184687E+03  0.47035189002E+03  0.79136701435E+03  0.12323861790E+04  0.65864270000E+03 0. -1.
    8880022    1    1    2    0    0 -0.48731184687E+03 -0.47035189002E+03 -0.17364243477E+04  0.18700975656E+04  0.15294330000E+03 0.  0.
<mgrwt>
<rscale>  0 0.87472643E+03</rscale>
<asrwt>0</asrwt>
<pdfrwt beam="1">  1        1 0.16595588E+00 0.94472956E+03</pdfrwt>
<pdfrwt beam="2">  1       -1 0.31134931E+00 0.94472956E+03</pdfrwt>
<totfact> 0.37605134E-01</totfact>
</mgrwt>
</event>
<event>
 4    1  0.1043382E-007  0.6713541E+03  0.7818608E-02  0.1014710E+00
          1   -1    0    0  501    0  0.00000000000E+00  0.00000000000E+00  0.81788507320E+03  0.81788507321E+03  0.50400000000E-02 0. -1.
         -1   -1    0    0    0  501 -0.00000000000E+00 -0.00000000000E+00 -0.25540477663E+03  0.25540477668E+03  0.50400000000E-02 0.  1.
    8880023    1    1    2    0    0 -0.49798403510E+02  0.12010914741E+03  0.28153565682E+03  0.72799630535E+03  0.65864270000E+03 0.  1.
    8880022    1    1    2    0    0  0.49798403510E+02 -0.12010914741E+03  0.28094463975E+03  0.34529354454E+03  0.15294330000E+03 0. -1.
<mgrwt>
<rscale>  0 0.49644805E+03</rscale>
<asrwt>0</asrwt>
<pdfrwt beam="1">  1        1 0.12582847E+00 0.67135408E+03</pdfrwt>
<pdfrwt beam="2">  1       -1 0.39293043E-01 0.67135408E+03</pdfrwt>
<totfact> 0.13720328E+02</totfact>
</mgrwt>
</event>
<event>
 4    1  0.1043382E-007  0.8608148E+03  0.7818608E-02  0.9592116E-01
          1   -1    0    0  501    0  0.00000000000E+00  0.00000000000E+00  0.10007035582E+04  0.10007035582E+04  0.50400000000E-02 0. -1.
         -1   -1    0    0    0  501 -0.00000000000E+00 -0.00000000000E+00 -0.12406817310E+04  0.12406817310E+04  0.50400000000E-02 0.  1.
    8880023    1    1    2    0    0  0.14121891988E+03 -0.53595620128E+03 -0.97991925696E+03  0.13043173653E+04  0.65864270000E+03 0.  0.
    8880022    1    1    2    0    0 -0.14121891988E+03  0.53595620128E+03  0.73994108419E+03  0.93706792395E+03  0.15294330000E+03 0.  0.
<mgrwt>
<rscale>  0 0.77820214E+03</rscale>
<asrwt>0</asrwt>
<pdfrwt beam="1">  1        1 0.15395439E+00 0.86081475E+03</pdfrwt>
<pdfrwt beam="2">  1       -1 0.19087411E+00 0.86081475E+03</pdfrwt>
<totfact> 0.26934082E+00</totfact>
</mgrwt>
</event>
<event>
 4    1  0.1043382E-007  0.7299370E+03  0.7818608E-02  0.9890294E-01
         -1   -1    0    0    0  501 -0.00000000000E+00  0.00000000000E+00  0.88612480689E+02  0.88612480833E+02  0.50400000000E-02 0.  1.
          1   -1    0    0  501    0  0.00000000000E+00 -0.00000000000E+00 -0.34716507805E+04  0.34716507805E+04  0.50400000000E-02 0. -1.
    8880023    1    1    2    0    0  0.25164733695E+02 -0.31363115292E+03 -0.18725015455E+04  0.20097437668E+04  0.65864270000E+03 0. -1.
    8880022    1    1    2    0    0 -0.25164733695E+02  0.31363115292E+03 -0.15105367543E+04  0.15505194946E+04  0.15294330000E+03 0.  1.
<mgrwt>
<rscale>  0 0.60734016E+03</rscale>
<asrwt>0</asrwt>
<pdfrwt beam="1">  1        1 0.53410001E+00 0.72993696E+03</pdfrwt>
<pdfrwt beam="2">  1       -1 0.13632692E-01 0.72993696E+03</pdfrwt>
<totfact> 0.10896822E+01</totfact>
</mgrwt>
</event>
<event>
 4    1  0.1043382E-007  0.7893754E+03  0.7818608E-02  0.9734258E-01
          1   -1    0    0  501    0  0.00000000000E+00  0.00000000000E+00  0.11414296683E+04  0.11414296683E+04  0.50400000000E-02 0. -1.
         -1   -1    0    0    0  501 -0.00000000000E+00 -0.00000000000E+00 -0.36138250781E+03  0.36138250784E+03  0.50400000000E-02 0.  1.
    8880023    1    1    2    0    0  0.39011424079E+03  0.19265041816E+03  0.65295191036E+03  0.10244314072E+04  0.65864270000E+03 0.  1.
    8880022    1    1    2    0    0 -0.39011424079E+03 -0.19265041816E+03  0.12709525010E+03  0.47838076895E+03  0.15294330000E+03 0.  0.
<mgrwt>
<rscale>  0 0.69013227E+03</rscale>
<asrwt>0</asrwt>
<pdfrwt beam="1">  1        1 0.17560456E+00 0.78937539E+03</pdfrwt>
<pdfrwt beam="2">  1       -1 0.55597310E-01 0.78937539E+03</pdfrwt>
<totfact> 0.39484235E+01</totfact>
</mgrwt>
</event>
<event>
 4    1  0.1043382E-007  0.9512763E+03  0.7818608E-02  0.9448280E-01
         -1   -1    0    0    0  501 -0.00000000000E+00  0.00000000000E+00  0.19338916991E+04  0.19338916991E+04  0.50400000000E-02 0.  1.
          1   -1    0    0  501    0  0.00000000000E+00 -0.00000000000E+00 -0.62562624778E+03  0.62562624780E+03  0.50400000000E-02 0. -1.
    8880023    1    1    2    0    0 -0.20214039059E+03  0.65593881042E+03  0.15476891784E+04  0.18166641021E+04  0.65864270000E+03 0.  1.
    8880022    1    1    2    0    0  0.20214039059E+03 -0.65593881042E+03 -0.23942372717E+03  0.74285384476E+03  0.15294330000E+03 0.  0.
<mgrwt>
<rscale>  0 0.88206725E+03</rscale>
<asrwt>0</asrwt>
<pdfrwt beam="1">  1        1 0.96250191E-01 0.95127634E+03</pdfrwt>
<pdfrwt beam="2">  1       -1 0.29752180E+00 0.95127634E+03</pdfrwt>
<totfact> 0.11272074E+00</totfact>
</mgrwt>
</event>
<event>
 4    1  0.1245185E-007  0.8144473E+03  0.7818608E-02  0.9680387E-01
         -1   -1    0    0    0  501 -0.00000000000E+00  0.00000000000E+00  0.98039946242E+03  0.98039946243E+03  0.50400000000E-02 0.  1.
          1   -1    0    0  501    0  0.00000000000E+00 -0.00000000000E+00 -0.28894251773E+04  0.28894251773E+04  0.50400000000E-02 0. -1.
    8880023    1    1    2    0    0 -0.78859605817E+02 -0.47254141300E+03  0.78386139035E+03  0.11303818426E+04  0.65864270000E+03 0.  1.
    8880022    1    1    2    0    0  0.78859605817E+02  0.47254141300E+03 -0.26928871052E+04  0.27394427972E+04  0.15294330000E+03 0.  0.
<mgrwt>
<rscale>  0 0.72196661E+03</rscale>
<asrwt>0</asrwt>
<pdfrwt beam="1">  1        1 0.44452695E+00 0.81444732E+03</pdfrwt>
<pdfrwt beam="2">  1       -1 0.15083069E+00 0.81444732E+03</pdfrwt>
<totfact> 0.26357244E-01</totfact>
</mgrwt>
</event>
<event>
 4    1  0.1043382E-007  0.7941585E+03  0.7818608E-02  0.9723572E-01
          1   -1    0    0  501    0  0.00000000000E+00  0.00000000000E+00  0.11243858820E+04  0.11243858820E+04  0.50400000000E-02 0. -1.
         -1   -1    0    0    0  501 -0.00000000000E+00 -0.00000000000E+00 -0.62033910032E+03  0.62033910034E+03  0.50400000000E-02 0.  1.
    8880023    1    1    2    0    0  0.42890343609E+03 -0.11366314537E+03 -0.27060031165E+03  0.83899475745E+03  0.65864270000E+03 0.  1.
    8880022    1    1    2    0    0 -0.42890343609E+03  0.11366314537E+03  0.77464709335E+03  0.90573022493E+03  0.15294330000E+03 0.  0.
<mgrwt>
<rscale>  0 0.69630511E+03</rscale>
<asrwt>0</asrwt>
<pdfrwt beam="1">  1        1 0.17298244E+00 0.79415847E+03</pdfrwt>
<pdfrwt beam="2">  1       -1 0.95436786E-01 0.79415847E+03</pdfrwt>
<totfact> 0.13222776E+01</totfact>
</mgrwt>
</event>
<event>
 4    1  0.1043382E-007  0.9549811E+03  0.7818608E-02  0.9442983E-01
         -1   -1    0    0    0  501 -0.00000000000E+00  0.00000000000E+00  0.60464369602E+03  0.60464369604E+03  0.50400000000E-02 0.  1.
          1   -1    0    0  501    0  0.00000000000E+00 -0.00000000000E+00 -0.13340618287E+04  0.13340618287E+04  0.50400000000E-02 0. -1.
    8880023    1    1    2    0    0  0.33961631546E+03 -0.60236163452E+03 -0.48441577784E+02  0.95620895895E+03  0.65864270000E+03 0.  0.
    8880022    1    1    2    0    0 -0.33961631546E+03  0.60236163452E+03 -0.68097655490E+03  0.98249656580E+03  0.15294330000E+03 0.  0.
<mgrwt>
<rscale>  0 0.88621192E+03</rscale>
<asrwt>0</asrwt>
<pdfrwt beam="1">  1        1 0.20524028E+00 0.95498114E+03</pdfrwt>
<pdfrwt beam="2">  1       -1 0.93022107E-01 0.95498114E+03</pdfrwt>
<totfact> 0.96914379E+00</totfact>
</mgrwt>
</event>
<event>
 4    1  0.1043382E-007  0.7349722E+03  0.7818608E-02  0.9874842E-01
         -1   -1    0    0    0  501 -0.00000000000E+00  0.00000000000E+00  0.22404443066E+03  0.22404443071E+03  0.50400000000E-02 0.  1.
          1   -1    0    0  501    0  0.00000000000E+00 -0.00000000000E+00 -0.23375485034E+04  0.23375485034E+04  0.50400000000E-02 0. -1.
    8880023    1    1    2    0    0 -0.23349334656E+03  0.22771661587E+03 -0.45498722516E+03  0.86440591238E+03  0.65864270000E+03 0.  1.
    8880022    1    1    2    0    0  0.23349334656E+03 -0.22771661587E+03 -0.16585168476E+04  0.16971870217E+04  0.15294330000E+03 0.  0.
<mgrwt>
<rscale>  0 0.61496185E+03</rscale>
<asrwt>0</asrwt>
<pdfrwt beam="1">  1        1 0.35962283E+00 0.73497225E+03</pdfrwt>
<pdfrwt beam="2">  1       -1 0.34468376E-01 0.73497225E+03</pdfrwt>
<totfact> 0.14693068E+01</totfact>
</mgrwt>
</event>
<event>
 4    1  0.1043382E-007  0.6935379E+03  0.7818608E-02  0.1002514E+00
         -1   -1    0    0    0  501 -0.00000000000E+00  0.00000000000E+00  0.79597677678E+03  0.79597677679E+03  0.50400000000E-02 0.  1.
          1   -1    0    0  501    0  0.00000000000E+00 -0.00000000000E+00 -0.98752926597E+03  0.98752926599E+03  0.50400000000E-02 0. -1.
    8880023    1    1    2    0    0  0.20658894661E+03 -0.67123817756E+02  0.61957423513E+03  0.92998227879E+03  0.65864270000E+03 0.  1.
    8880022    1    1    2    0    0 -0.20658894661E+03  0.67123817756E+02 -0.81112672432E+03  0.85352376399E+03  0.15294330000E+03 0.  0.
<mgrwt>
<rscale>  0 0.54561333E+03</rscale>
<asrwt>0</asrwt>
<pdfrwt beam="1">  1        1 0.15192758E+00 0.69353789E+03</pdfrwt>
<pdfrwt beam="2">  1       -1 0.12245797E+00 0.69353789E+03</pdfrwt>
<totfact> 0.94903288E+00</totfact>
</mgrwt>
</event>
<event>
 4    1  0.1043382E-007  0.1074238E+04  0.7818608E-02  0.9290296E-01
         -1   -1    0    0    0  501 -0.00000000000E+00  0.00000000000E+00  0.11956850289E+04  0.11956850289E+04  0.50400000000E-02 0.  1.
          1   -1    0    0  501    0  0.00000000000E+00 -0.00000000000E+00 -0.93362085840E+03  0.93362085841E+03  0.50400000000E-02 0. -1.
    8880023    1    1    2    0    0  0.52681096578E+03  0.66531685501E+03  0.56697649441E+03  0.12146805599E+04  0.65864270000E+03 0.  0.
    8880022    1    1    2    0    0 -0.52681096578E+03 -0.66531685501E+03 -0.30491232390E+03  0.91462532739E+03  0.15294330000E+03 0.  0.
<mgrwt>
<rscale>  0 0.10168113E+04</rscale>
<asrwt>0</asrwt>
<pdfrwt beam="1">  1        1 0.14363398E+00 0.10742376E+04</pdfrwt>
<pdfrwt beam="2">  1       -1 0.18395154E+00 0.10742376E+04</pdfrwt>
<totfact> 0.33139117E+00</totfact>
</mgrwt>
</event>
<event>
 4    1  0.1043382E-007  0.6725375E+03  0.7818608E-02  0.1013906E+00
         -1   -1    0    0    0  501 -0.00000000000E+00  0.00000000000E+00  0.19392090772E+04  0.19392090772E+04  0.50400000000E-02 0.  1.
          1   -1    0    0  501    0  0.00000000000E+00 -0.00000000000E+00 -0.56235306694E+03  0.56235306696E+03  0.50400000000E-02 0. -1.
    8880023    1    1    2    0    0 -0.44844089707E+02  0.12839557910E+03  0.18594639173E+04  0.19773499142E+04  0.65864270000E+03 0.  1.
    8880022    1    1    2    0    0  0.44844089707E+02 -0.12839557910E+03 -0.48260790704E+03  0.52421222998E+03  0.15294330000E+03 0.  0.
<mgrwt>
<rscale>  0 0.49951513E+03</rscale>
<asrwt>0</asrwt>
<pdfrwt beam="1">  1        1 0.86515856E-01 0.67253745E+03</pdfrwt>
<pdfrwt beam="2">  1       -1 0.29833986E+00 0.67253745E+03</pdfrwt>
<totfact> 0.13614252E+00</totfact>
</mgrwt>
</event>
<event>
 4    1  0.1043382E-007  0.8215759E+03  0.7818608E-02  0.9665951E-01
          1   -1    0    0  501    0  0.00000000000E+00  0.00000000000E+00  0.60163128521E+03  0.60163128524E+03  0.50400000000E-02 0. -1.
         -1   -1    0    0    0  501 -0.00000000000E+00 -0.00000000000E+00 -0.10989368288E+04  0.10989368288E+04  0.50400000000E-02 0.  1.
    8880023    1    1    2    0    0 -0.39510350908E+03 -0.29166766171E+03 -0.76335677920E+03  0.11214725081E+04  0.65864270000E+03 0.  1.
    8880022    1    1    2    0    0  0.39510350908E+03  0.29166766171E+03  0.26605123567E+03  0.57909560591E+03  0.15294330000E+03 0.  0.
<mgrwt>
<rscale>  0 0.73080758E+03</rscale>
<asrwt>0</asrwt>
<pdfrwt beam="1">  1        1 0.92558660E-01 0.82157593E+03</pdfrwt>
<pdfrwt beam="2">  1       -1 0.16906720E+00 0.82157593E+03</pdfrwt>
<totfact> 0.87187208E+00</totfact>
</mgrwt>
</event>
<event>
 4    1  0.1043382E-007  0.7044866E+03  0.7818608E-02  0.9979075E-01
          1   -1    0    0  501    0  0.00000000000E+00  0.00000000000E+00  0.75572787570E+03  0.75572787572E+03  0.50400000000E-02 0. -1.
         -1   -1    0    0    0  501 -0.00000000000E+00 -0.00000000000E+00 -0.35085928600E+03  0.35085928603E+03  0.50400000000E-02 0.  1.
    8880023    1    1    2    0    0 -0.32778594935E+02  0.24782388674E+03  0.15469814395E+03  0.72127168053E+03  0.65864270000E+03 0.  1.
    8880022    1    1    2    0    0  0.32778594935E+02 -0.24782388674E+03  0.25017044575E+03  0.38531548122E+03  0.15294330000E+03 0.  0.
<mgrwt>
<rscale>  0 0.56577375E+03</rscale>
<asrwt>0</asrwt>
<pdfrwt beam="1">  1        1 0.11626583E+00 0.70448657E+03</pdfrwt>
<pdfrwt beam="2">  1       -1 0.53978352E-01 0.70448657E+03</pdfrwt>
<totfact> 0.85802704E+01</totfact>
</mgrwt>
</event>
<event>
 4    1  0.1043382E-007  0.9581865E+03  0.7818608E-02  0.9438432E-01
         -1   -1    0    0    0  501 -0.00000000000E+00  0.00000000000E+00  0.71064693295E+03  0.71064693297E+03  0.50400000000E-02 0.  1.
          1   -1    0    0  501    0  0.00000000000E+00 -0.00000000000E+00 -0.15497365340E+04  0.15497365340E+04  0.50400000000E-02 0. -1.
    8880023    1    1    2    0    0 -0.50452765694E+03  0.47933594960E+03  0.22075539242E+03  0.98328747513E+03  0.65864270000E+03 0.  0.
    8880022    1    1    2    0    0  0.50452765694E+03 -0.47933594960E+03 -0.10598449935E+04  0.12770959919E+04  0.15294330000E+03 0.  0.
<mgrwt>
<rscale>  0 0.88979245E+03</rscale>
<asrwt>0</asrwt>
<pdfrwt beam="1">  1        1 0.23842100E+00 0.95818647E+03</pdfrwt>
<pdfrwt beam="2">  1       -1 0.10933030E+00 0.95818647E+03</pdfrwt>
<totfact> 0.47322374E+00</totfact>
</mgrwt>
</event>
<event>
 4    1  0.1043382E-007  0.7919981E+03  0.7818608E-02  0.9728373E-01
         -1   -1    0    0    0  501 -0.00000000000E+00  0.00000000000E+00  0.87448200440E+03  0.87448200442E+03  0.50400000000E-02 0.  1.
          1   -1    0    0  501    0  0.00000000000E+00 -0.00000000000E+00 -0.17750243229E+04  0.17750243229E+04  0.50400000000E-02 0. -1.
    8880023    1    1    2    0    0  0.25375044928E+03 -0.35925119376E+03  0.65374703375E+03  0.10269596395E+04  0.65864270000E+03 0.  1.
    8880022    1    1    2    0    0 -0.25375044928E+03  0.35925119376E+03 -0.15542893522E+04  0.16225466878E+04  0.15294330000E+03 0.  0.
<mgrwt>
<rscale>  0 0.69352337E+03</rscale>
<asrwt>0</asrwt>
<pdfrwt beam="1">  1        1 0.27308066E+00 0.79199805E+03</pdfrwt>
<pdfrwt beam="2">  1       -1 0.13453569E+00 0.79199805E+03</pdfrwt>
<totfact> 0.20525038E+00</totfact>
</mgrwt>
</event>
<event>
 4    1  0.1043382E-007  0.1159573E+04  0.7818608E-02  0.9197458E-01
         -1   -1    0    0    0  501 -0.00000000000E+00  0.00000000000E+00  0.19956952248E+04  0.19956952248E+04  0.50400000000E-02 0.  1.
          1   -1    0    0  501    0  0.00000000000E+00 -0.00000000000E+00 -0.82038236638E+03  0.82038236639E+03  0.50400000000E-02 0. -1.
    8880023    1    1    2    0    0 -0.55986720360E+03  0.77288332020E+03  0.14059102928E+04  0.18224142970E+04  0.65864270000E+03 0.  0.
    8880022    1    1    2    0    0  0.55986720360E+03 -0.77288332020E+03 -0.23059743443E+03  0.99366329413E+03  0.15294330000E+03 0.  0.
<mgrwt>
<rscale>  0 0.11079703E+04</rscale>
<asrwt>0</asrwt>
<pdfrwt beam="1">  1        1 0.12621267E+00 0.11595732E+04</pdfrwt>
<pdfrwt beam="2">  1       -1 0.30703003E+00 0.11595732E+04</pdfrwt>
<totfact> 0.62627478E-01</totfact>
</mgrwt>
</event>
<event>
 4    1  0.1043382E-007  0.6750083E+03  0.7818608E-02  0.1012301E+00
         -1   -1    0    0    0  501 -0.00000000000E+00  0.00000000000E+00  0.59039157876E+03  0.59039157879E+03  0.50400000000E-02 0.  1.
          1   -1    0    0  501    0  0.00000000000E+00 -0.00000000000E+00 -0.60214548542E+03  0.60214548544E+03  0.50400000000E-02 0. -1.
    8880023    1    1    2    0    0 -0.69649461875E+02  0.13028809945E+03  0.35944377135E+03  0.76474575345E+03  0.65864270000E+03 0.  1.
    8880022    1    1    2    0    0  0.69649461875E+02 -0.13028809945E+03 -0.37119767801E+03  0.42779131077E+03  0.15294330000E+03 0.  0.
<mgrwt>
<rscale>  0 0.50570284E+03</rscale>
<asrwt>0</asrwt>
<pdfrwt beam="1">  1        1 0.92637767E-01 0.67500833E+03</pdfrwt>
<pdfrwt beam="2">  1       -1 0.90829474E-01 0.67500833E+03</pdfrwt>
<totfact> 0.41549248E+01</totfact>
</mgrwt>
</event>
<event>
 4    1  0.1043382E-007  0.7179940E+03  0.7818608E-02  0.9929433E-01
          1   -1    0    0  501    0  0.00000000000E+00  0.00000000000E+00  0.71357853942E+03  0.71357853944E+03  0.50400000000E-02 0. -1.
         -1   -1    0    0    0  501 -0.00000000000E+00 -0.00000000000E+00 -0.54501498849E+03  0.54501498851E+03  0.50400000000E-02 0.  1.
    8880023    1    1    2    0    0  0.22519703863E+03  0.17604380265E+03 -0.22151424799E+03  0.75138797900E+03  0.65864270000E+03 0.  1.
    8880022    1    1    2    0    0 -0.22519703863E+03 -0.17604380265E+03  0.39007779893E+03  0.50720554895E+03  0.15294330000E+03 0.  0.
<mgrwt>
<rscale>  0 0.58855801E+03</rscale>
<asrwt>0</asrwt>
<pdfrwt beam="1">  1        1 0.10978131E+00 0.71799396E+03</pdfrwt>
<pdfrwt beam="2">  1       -1 0.83848460E-01 0.71799396E+03</pdfrwt>
<totfact> 0.38315154E+01</totfact>
</mgrwt>
</event>
<event>
 4    1  0.1043382E-007  0.6616390E+03  0.7818608E-02  0.1022537E+00
          1   -1    0    0  501    0  0.00000000000E+00  0.00000000000E+00  0.60297331134E+03  0.60297331137E+03  0.50400000000E-02 0. -1.
         -1   -1    0    0    0  501 -0.00000000000E+00 -0.00000000000E+00 -0.53596760520E+03  0.53596760522E+03  0.50400000000E-02 0.  1.
    8880023    1    1    2    0    0  0.40213530200E+02 -0.48361706630E+02 -0.30745822986E+03  0.72958669948E+03  0.65864270000E+03 0.  1.
    8880022    1    1    2    0    0 -0.40213530200E+02  0.48361706630E+02  0.37446393601E+03  0.40935421711E+03  0.15294330000E+03 0.  0.
<mgrwt>
<rscale>  0 0.46782218E+03</rscale>
<asrwt>0</asrwt>
<pdfrwt beam="1">  1        1 0.92765125E-01 0.66163902E+03</pdfrwt>
<pdfrwt beam="2">  1       -1 0.82456555E-01 0.66163902E+03</pdfrwt>
<totfact> 0.51212527E+01</totfact>
</mgrwt>
</event>
<event>
 4    1  0.1043382E-007  0.8597431E+03  0.7818608E-02  0.9594021E-01
          1   -1    0    0  501    0  0.00000000000E+00  0.00000000000E+00  0.16741634977E+04  0.16741634978E+04  0.50400000000E-02 0. -1.
         -1   -1    0    0    0  501 -0.00000000000E+00 -0.00000000000E+00 -0.12547401292E+04  0.12547401292E+04  0.50400000000E-02 0.  1.
    8880023    1    1    2    0    0 -0.29917251253E+03  0.46458985169E+03 -0.10467763287E+04  0.13545843684E+04  0.65864270000E+03 0.  1.
    8880022    1    1    2    0    0  0.29917251253E+03 -0.46458985169E+03  0.14661996973E+04  0.15743192585E+04  0.15294330000E+03 0.  0.
<mgrwt>
<rscale>  0 0.77693200E+03</rscale>
<asrwt>0</asrwt>
<pdfrwt beam="1">  1        1 0.25756361E+00 0.85974306E+03</pdfrwt>
<pdfrwt beam="2">  1       -1 0.19303694E+00 0.85974306E+03</pdfrwt>
<totfact> 0.86255154E-01</totfact>
</mgrwt>
</event>
<event>
 4    1  0.1043382E-007  0.1240806E+04  0.7818608E-02  0.9118442E-01
         -1   -1    0    0    0  501 -0.00000000000E+00  0.00000000000E+00  0.20552488941E+04  0.20552488941E+04  0.50400000000E-02 0.  1.
          1   -1    0    0  501    0  0.00000000000E+00 -0.00000000000E+00 -0.97762204546E+03  0.97762204548E+03  0.50400000000E-02 0. -1.
    8880023    1    1    2    0    0  0.97629632208E+03  0.39068477893E+03  0.14485844042E+04  0.19073531627E+04  0.65864270000E+03 0.  0.
    8880022    1    1    2    0    0 -0.97629632208E+03 -0.39068477893E+03 -0.37095755556E+03  0.11255177769E+04  0.15294330000E+03 0.  0.
<mgrwt>
<rscale>  0 0.11936399E+04</rscale>
<asrwt>0</asrwt>
<pdfrwt beam="1">  1        1 0.15040339E+00 0.12408059E+04</pdfrwt>
<pdfrwt beam="2">  1       -1 0.31619214E+00 0.12408059E+04</pdfrwt>
<totfact> 0.40073576E-01</totfact>
</mgrwt>
</event>
<event>
 4    1  0.1043382E-007  0.7376244E+03  0.7818608E-02  0.9866922E-01
         -1   -1    0    0    0  501 -0.00000000000E+00  0.00000000000E+00  0.35548554796E+03  0.35548554799E+03  0.50400000000E-02 0.  1.
          1   -1    0    0  501    0  0.00000000000E+00 -0.00000000000E+00 -0.22005949871E+04  0.22005949871E+04  0.50400000000E-02 0. -1.
    8880023    1    1    2    0    0 -0.32013039440E+03 -0.88295211046E+02 -0.66874934525E+02  0.74064969914E+03  0.65864270000E+03 0.  0.
    8880022    1    1    2    0    0  0.32013039440E+03  0.88295211046E+02 -0.17782345046E+04  0.18154308360E+04  0.15294330000E+03 0.  0.
<mgrwt>
<rscale>  0 0.61891522E+03</rscale>
<asrwt>0</asrwt>
<pdfrwt beam="1">  1        1 0.33855307E+00 0.73762438E+03</pdfrwt>
<pdfrwt beam="2">  1       -1 0.54690086E-01 0.73762438E+03</pdfrwt>
<totfact> 0.77409548E+00</totfact>
</mgrwt>
</event>
<event>
 4    1  0.1043382E-007  0.1179449E+04  0.7818608E-02  0.9177363E-01
         -1   -1    0    0    0  501 -0.00000000000E+00  0.00000000000E+00  0.72227075173E+03  0.72227075174E+03  0.50400000000E-02 0.  1.
          1   -1    0    0  501    0  0.00000000000E+00 -0.00000000000E+00 -0.20496512455E+04  0.20496512455E+04  0.50400000000E-02 0. -1.
    8880023    1    1    2    0    0  0.20532966782E+03 -0.95662383752E+03 -0.84093518711E+02  0.11824429649E+04  0.65864270000E+03 0.  1.
    8880022    1    1    2    0    0 -0.20532966782E+03  0.95662383752E+03 -0.12432869750E+04  0.15894790324E+04  0.15294330000E+03 0.  0.
<mgrwt>
<rscale>  0 0.11290166E+04</rscale>
<asrwt>0</asrwt>
<pdfrwt beam="1">  1        1 0.31533096E+00 0.11794489E+04</pdfrwt>
<pdfrwt beam="2">  1       -1 0.11111858E+00 0.11794489E+04</pdfrwt>
<totfact> 0.20299449E+00</totfact>
</mgrwt>
</event>
<event>
 4    1  0.1043382E-007  0.6951806E+03  0.7818608E-02  0.1001781E+00
          1   -1    0    0  501    0  0.00000000000E+00  0.00000000000E+00  0.62679036512E+03  0.62679036514E+03  0.50400000000E-02 0. -1.
         -1   -1    0    0    0  501 -0.00000000000E+00 -0.00000000000E+00 -0.89898179187E+03  0.89898179188E+03  0.50400000000E-02 0.  1.
    8880023    1    1    2    0    0  0.43254638892E+02 -0.21816245306E+03 -0.72131139505E+03  0.10017814904E+04  0.65864270000E+03 0.  1.
    8880022    1    1    2    0    0 -0.43254638892E+02  0.21816245306E+03  0.44911996830E+03  0.52399066657E+03  0.15294330000E+03 0.  0.
<mgrwt>
<rscale>  0 0.54876004E+03</rscale>
<asrwt>0</asrwt>
<pdfrwt beam="1">  1        1 0.96429287E-01 0.69518057E+03</pdfrwt>
<pdfrwt beam="2">  1       -1 0.13830489E+00 0.69518057E+03</pdfrwt>
<totfact> 0.14396947E+01</totfact>
</mgrwt>
</event>
<event>
 4    1  0.1043382E-007  0.7110523E+03  0.7818608E-02  0.9954114E-01
         -1   -1    0    0    0  501 -0.00000000000E+00  0.00000000000E+00  0.77919998250E+03  0.77919998252E+03  0.50400000000E-02 0.  1.
          1   -1    0    0  501    0  0.00000000000E+00 -0.00000000000E+00 -0.18398695855E+04  0.18398695855E+04  0.50400000000E-02 0. -1.
    8880023    1    1    2    0    0 -0.26761120069E+03  0.13015898508E+02  0.59976234110E+03  0.93022053322E+03  0.65864270000E+03 0.  0.
    8880022    1    1    2    0    0  0.26761120069E+03 -0.13015898508E+02 -0.16604319441E+04  0.16888490348E+04  0.15294330000E+03 0.  0.
<mgrwt>
<rscale>  0 0.57708868E+03</rscale>
<asrwt>0</asrwt>
<pdfrwt beam="1">  1        1 0.28305686E+00 0.71105230E+03</pdfrwt>
<pdfrwt beam="2">  1       -1 0.11987692E+00 0.71105230E+03</pdfrwt>
<totfact> 0.25149028E+00</totfact>
</mgrwt>
</event>
<event>
 4    1  0.1043382E-007  0.1386330E+04  0.7818608E-02  0.8994378E-01
          1   -1    0    0  501    0  0.00000000000E+00  0.00000000000E+00  0.26005159233E+04  0.26005159233E+04  0.50400000000E-02 0. -1.
         -1   -1    0    0    0  501 -0.00000000000E+00 -0.00000000000E+00 -0.69482022650E+03  0.69482022652E+03  0.50400000000E-02 0.  1.
    8880023    1    1    2    0    0  0.79329470603E+02  0.12172956545E+04  0.13867708816E+04  0.19608787723E+04  0.65864270000E+03 0. -1.
    8880022    1    1    2    0    0 -0.79329470603E+02 -0.12172956545E+04  0.51892481517E+03  0.13344573775E+04  0.15294330000E+03 0.  0.
<mgrwt>
<rscale>  0 0.13453208E+04</rscale>
<asrwt>0</asrwt>
<pdfrwt beam="1">  1        1 0.40007937E+00 0.13863304E+04</pdfrwt>
<pdfrwt beam="2">  1       -1 0.10689542E+00 0.13863304E+04</pdfrwt>
<totfact> 0.91129554E-01</totfact>
</mgrwt>
</event>
<event>
 4    1  0.1043382E-007  0.7439328E+03  0.7818608E-02  0.9848636E-01
         -1   -1    0    0    0  501 -0.00000000000E+00  0.00000000000E+00  0.17285173870E+03  0.17285173878E+03  0.50400000000E-02 0.  1.
          1   -1    0    0  501    0  0.00000000000E+00 -0.00000000000E+00 -0.23742635518E+04  0.23742635518E+04  0.50400000000E-02 0. -1.
    8880023    1    1    2    0    0  0.17199871178E+03 -0.30007030114E+03 -0.78675887178E+03  0.10827859766E+04  0.65864270000E+03 0.  1.
    8880022    1    1    2    0    0 -0.17199871178E+03  0.30007030114E+03 -0.14146529413E+04  0.14643293140E+04  0.15294330000E+03 0.  0.
<mgrwt>
<rscale>  0 0.62816520E+03</rscale>
<asrwt>0</asrwt>
<pdfrwt beam="1">  1        1 0.36527129E+00 0.74393276E+03</pdfrwt>
<pdfrwt beam="2">  1       -1 0.26592577E-01 0.74393276E+03</pdfrwt>
<totfact> 0.21797528E+01</totfact>
</mgrwt>
</event>
<event>
 4    1  0.1043382E-007  0.7191942E+03  0.7818608E-02  0.9925322E-01
         -1   -1    0    0    0  501 -0.00000000000E+00  0.00000000000E+00  0.38991189762E+03  0.38991189765E+03  0.50400000000E-02 0.  1.
          1   -1    0    0  501    0  0.00000000000E+00 -0.00000000000E+00 -0.21580738931E+04  0.21580738931E+04  0.50400000000E-02 0. -1.
    8880023    1    1    2    0    0  0.11084898146E+03 -0.26672568209E+03  0.30528779507E+02  0.71984185681E+03  0.65864270000E+03 0.  1.
    8880022    1    1    2    0    0 -0.11084898146E+03  0.26672568209E+03 -0.17986907750E+04  0.18281439340E+04  0.15294330000E+03 0.  0.
<mgrwt>
<rscale>  0 0.59049617E+03</rscale>
<asrwt>0</asrwt>
<pdfrwt beam="1">  1        1 0.33201136E+00 0.71919420E+03</pdfrwt>
<pdfrwt beam="2">  1       -1 0.59986447E-01 0.71919420E+03</pdfrwt>
<totfact> 0.69253578E+00</totfact>
</mgrwt>
</event>
<event>
 4    1  0.1043382E-007  0.9667409E+03  0.7818608E-02  0.9426426E-01
         -1   -1    0    0    0  501 -0.00000000000E+00  0.00000000000E+00  0.54759414561E+03  0.54759414563E+03  0.50400000000E-02 0.  1.
          1   -1    0    0  501    0  0.00000000000E+00 -0.00000000000E+00 -0.17142076835E+04  0.17142076835E+04  0.50400000000E-02 0. -1.
    8880023    1    1    2    0    0  0.68494938508E+03 -0.17782620930E+03 -0.98922659127E+02  0.97178892748E+03  0.65864270000E+03 0.  1.
    8880022    1    1    2    0    0 -0.68494938508E+03  0.17782620930E+03 -0.10676908788E+04  0.12900129017E+04  0.15294330000E+03 0. -1.
<mgrwt>
<rscale>  0 0.89932475E+03</rscale>
<asrwt>0</asrwt>
<pdfrwt beam="1">  1        1 0.26372426E+00 0.96674093E+03</pdfrwt>
<pdfrwt beam="2">  1       -1 0.84245254E-01 0.96674093E+03</pdfrwt>
<totfact> 0.65838130E+00</totfact>
</mgrwt>
</event>
<event>
 4    1  0.1043382E-007  0.9923327E+03  0.7818608E-02  0.9391658E-01
         -1   -1    0    0    0  501 -0.00000000000E+00  0.00000000000E+00  0.17050622843E+04  0.17050622843E+04  0.50400000000E-02 0.  1.
          1   -1    0    0  501    0  0.00000000000E+00 -0.00000000000E+00 -0.68521936708E+03  0.68521936710E+03  0.50400000000E-02 0. -1.
    8880023    1    1    2    0    0  0.19659180298E+03 -0.71572732709E+03 -0.14270510697E+03  0.10025412199E+04  0.65864270000E+03 0.  0.
    8880022    1    1    2    0    0 -0.19659180298E+03  0.71572732709E+03  0.11625480242E+04  0.13877404316E+04  0.15294330000E+03 0.  0.
<mgrwt>
<rscale>  0 0.92765364E+03</rscale>
<asrwt>0</asrwt>
<pdfrwt beam="1">  1        1 0.10541837E+00 0.99233268E+03</pdfrwt>
<pdfrwt beam="2">  1       -1 0.26231727E+00 0.99233268E+03</pdfrwt>
<totfact> 0.16479443E+00</totfact>
</mgrwt>
</event>
<event>
 4    1  0.1043382E-007  0.8420897E+03  0.7818608E-02  0.9626252E-01
          1   -1    0    0  501    0  0.00000000000E+00  0.00000000000E+00  0.13641625252E+04  0.13641625252E+04  0.50400000000E-02 0. -1.
         -1   -1    0    0    0  501 -0.00000000000E+00 -0.00000000000E+00 -0.64160670493E+03  0.64160670495E+03  0.50400000000E-02 0.  1.
    8880023    1    1    2    0    0  0.43470757239E+03  0.29382671005E+03 -0.26010892241E+03  0.88134650780E+03  0.65864270000E+03 0.  0.
    8880022    1    1    2    0    0 -0.43470757239E+03 -0.29382671005E+03  0.98266474270E+03  0.11244227224E+04  0.15294330000E+03 0.  0.
<mgrwt>
<rscale>  0 0.75582720E+03</rscale>
<asrwt>0</asrwt>
<pdfrwt beam="1">  1        1 0.20987116E+00 0.84208967E+03</pdfrwt>
<pdfrwt beam="2">  1       -1 0.98708725E-01 0.84208967E+03</pdfrwt>
<totfact> 0.81877488E+00</totfact>
</mgrwt>
</event>
<event>
 4    1  0.1043382E-007  0.7803700E+03  0.7818608E-02  0.9754969E-01
          1   -1    0    0  501    0  0.00000000000E+00  0.00000000000E+00  0.92850820114E+03  0.92850820115E+03  0.50400000000E-02 0. -1.
         -1   -1    0    0    0  501 -0.00000000000E+00 -0.00000000000E+00 -0.50830796107E+03  0.50830796109E+03  0.50400000000E-02 0.  1.
    8880023    1    1    2    0    0  0.37078037747E+03 -0.19413672516E+03  0.57037161734E+03  0.96659254317E+03  0.65864270000E+03 0.  0.
    8880022    1    1    2    0    0 -0.37078037747E+03  0.19413672516E+03 -0.15017137726E+03  0.47022361908E+03  0.15294330000E+03 0.  0.
<mgrwt>
<rscale>  0 0.67836210E+03</rscale>
<asrwt>0</asrwt>
<pdfrwt beam="1">  1        1 0.14284742E+00 0.78037002E+03</pdfrwt>
<pdfrwt beam="2">  1       -1 0.78201224E-01 0.78037002E+03</pdfrwt>
<totfact> 0.28896907E+01</totfact>
</mgrwt>
</event>
<event>
 4    1  0.1043382E-007  0.8171044E+03  0.7818608E-02  0.9674964E-01
         -1   -1    0    0    0  501 -0.00000000000E+00  0.00000000000E+00  0.78021875121E+03  0.78021875123E+03  0.50400000000E-02 0.  1.
          1   -1    0    0  501    0  0.00000000000E+00 -0.00000000000E+00 -0.21603668515E+04  0.21603668515E+04  0.50400000000E-02 0. -1.
    8880023    1    1    2    0    0  0.33350285834E+03  0.35017879722E+03  0.52357447303E+03  0.97045854193E+03  0.65864270000E+03 0.  1.
    8880022    1    1    2    0    0 -0.33350285834E+03 -0.35017879722E+03 -0.19037225733E+04  0.19701270608E+04  0.15294330000E+03 0.  0.
<mgrwt>
<rscale>  0 0.72527160E+03</rscale>
<asrwt>0</asrwt>
<pdfrwt beam="1">  1        1 0.33236413E+00 0.81710437E+03</pdfrwt>
<pdfrwt beam="2">  1       -1 0.12003365E+00 0.81710437E+03</pdfrwt>
<totfact> 0.14987612E+00</totfact>
</mgrwt>
</event>
<event>
 4    1  0.1043382E-007  0.7881740E+03  0.7818608E-02  0.9736975E-01
          1   -1    0    0  501    0  0.00000000000E+00  0.00000000000E+00  0.82869490974E+03  0.82869490975E+03  0.50400000000E-02 0. -1.
         -1   -1    0    0    0  501 -0.00000000000E+00 -0.00000000000E+00 -0.60179824433E+03  0.60179824435E+03  0.50400000000E-02 0.  1.
    8880023    1    1    2    0    0  0.15066625270E+03 -0.40584196777E+03 -0.18953451653E+03  0.81064268437E+03  0.65864270000E+03 0.  0.
    8880022    1    1    2    0    0 -0.15066625270E+03  0.40584196777E+03  0.41643118194E+03  0.61985046972E+03  0.15294330000E+03 0.  0.
<mgrwt>
<rscale>  0 0.68857351E+03</rscale>
<asrwt>0</asrwt>
<pdfrwt beam="1">  1        1 0.12749153E+00 0.78817398E+03</pdfrwt>
<pdfrwt beam="2">  1       -1 0.92584345E-01 0.78817398E+03</pdfrwt>
<totfact> 0.24220627E+01</totfact>
</mgrwt>
</event>
<event>
 4    1  0.1043382E-007  0.1147214E+04  0.7818608E-02  0.9210224E-01
          1   -1    0    0  501    0  0.00000000000E+00  0.00000000000E+00  0.98776632748E+03  0.98776632749E+03  0.50400000000E-02 0. -1.
         -1   -1    0    0    0  501 -0.00000000000E+00 -0.00000000000E+00 -0.15468003595E+04  0.15468003595E+04  0.50400000000E-02 0.  1.
    8880023    1    1    2    0    0 -0.17888848950E+03  0.92211134362E+03 -0.96578464106E+03  0.14996134838E+04  0.65864270000E+03 0.  1.
    8880022    1    1    2    0    0  0.17888848950E+03 -0.92211134362E+03  0.40675060907E+03  0.10349532031E+04  0.15294330000E+03 0.  0.
<mgrwt>
<rscale>  0 0.10948519E+04</rscale>
<asrwt>0</asrwt>
<pdfrwt beam="1">  1        1 0.15196405E+00 0.11472143E+04</pdfrwt>
<pdfrwt beam="2">  1       -1 0.23796929E+00 0.11472143E+04</pdfrwt>
<totfact> 0.12778288E+00</totfact>
</mgrwt>
</event>
<event>
 4    1  0.1043382E-007  0.7022810E+03  0.7818608E-02  0.9987867E-01
         -1   -1    0    0    0  501 -0.00000000000E+00  0.00000000000E+00  0.37177662082E+03  0.37177662086E+03  0.50400000000E-02 0.  1.
          1   -1    0    0  501    0  0.00000000000E+00 -0.00000000000E+00 -0.89071812556E+03  0.89071812557E+03  0.50400000000E-02 0. -1.
    8880023    1    1    2    0    0 -0.20642960284E+03  0.12951890496E+03 -0.39552507589E+02  0.70339386889E+03  0.65864270000E+03 0.  1.
    8880022    1    1    2    0    0  0.20642960284E+03 -0.12951890496E+03 -0.47938899715E+03  0.55910087754E+03  0.15294330000E+03 0.  0.
<mgrwt>
<rscale>  0 0.56185446E+03</rscale>
<asrwt>0</asrwt>
<pdfrwt beam="1">  1        1 0.13703356E+00 0.70228095E+03</pdfrwt>
<pdfrwt beam="2">  1       -1 0.57196404E-01 0.70228095E+03</pdfrwt>
<totfact> 0.58872696E+01</totfact>
</mgrwt>
</event>
<event>
 4    1  0.1043382E-007  0.7346782E+03  0.7818608E-02  0.9875729E-01
         -1   -1    0    0    0  501 -0.00000000000E+00  0.00000000000E+00  0.95442913654E+03  0.95442913656E+03  0.50400000000E-02 0.  1.
          1   -1    0    0  501    0  0.00000000000E+00 -0.00000000000E+00 -0.10200497647E+04  0.10200497647E+04  0.50400000000E-02 0. -1.
    8880023    1    1    2    0    0 -0.25977908129E+03  0.19610372768E+03  0.77030141400E+03  0.10644793646E+04  0.65864270000E+03 0.  0.
    8880022    1    1    2    0    0  0.25977908129E+03 -0.19610372768E+03 -0.83592204218E+03  0.90999953664E+03  0.15294330000E+03 0.  0.
<mgrwt>
<rscale>  0 0.61452102E+03</rscale>
<asrwt>0</asrwt>
<pdfrwt beam="1">  1        1 0.15693073E+00 0.73467819E+03</pdfrwt>
<pdfrwt beam="2">  1       -1 0.14683525E+00 0.73467819E+03</pdfrwt>
<totfact> 0.56003948E+00</totfact>
</mgrwt>
</event>
<event>
 4    1  0.1043382E-007  0.7248837E+03  0.7818608E-02  0.9906395E-01
         -1   -1    0    0    0  501 -0.00000000000E+00  0.00000000000E+00  0.72066781414E+03  0.72066781416E+03  0.50400000000E-02 0.  1.
          1   -1    0    0  501    0  0.00000000000E+00 -0.00000000000E+00 -0.66430153555E+03  0.66430153557E+03  0.50400000000E-02 0. -1.
    8880023    1    1    2    0    0 -0.24879327055E+03  0.17247612599E+03  0.45940991578E+03  0.85820381174E+03  0.65864270000E+03 0.  1.
    8880022    1    1    2    0    0  0.24879327055E+03 -0.17247612599E+03 -0.40304363720E+03  0.52676553799E+03  0.15294330000E+03 0.  0.
<mgrwt>
<rscale>  0 0.59952360E+03</rscale>
<asrwt>0</asrwt>
<pdfrwt beam="1">  1        1 0.10220024E+00 0.72488365E+03</pdfrwt>
<pdfrwt beam="2">  1       -1 0.11087197E+00 0.72488365E+03</pdfrwt>
<totfact> 0.22723497E+01</totfact>
</mgrwt>
</event>
<event>
 4    1  0.1043382E-007  0.6950897E+03  0.7818608E-02  0.1001821E+00
         -1   -1    0    0    0  501 -0.00000000000E+00  0.00000000000E+00  0.12382954642E+03  0.12382954652E+03  0.50400000000E-02 0.  1.
          1   -1    0    0  501    0  0.00000000000E+00 -0.00000000000E+00 -0.18854410743E+04  0.18854410743E+04  0.50400000000E-02 0. -1.
    8880023    1    1    2    0    0 -0.11489621451E+03  0.19010077532E+03 -0.12159291612E+04  0.14005832272E+04  0.65864270000E+03 0.  1.
    8880022    1    1    2    0    0  0.11489621451E+03 -0.19010077532E+03 -0.54568236662E+03  0.60868739361E+03  0.15294330000E+03 0. -1.
<mgrwt>
<rscale>  0 0.54858717E+03</rscale>
<asrwt>0</asrwt>
<pdfrwt beam="1">  1        1 0.29006784E+00 0.69508967E+03</pdfrwt>
<pdfrwt beam="2">  1       -1 0.19050701E-01 0.69508967E+03</pdfrwt>
<totfact> 0.81823503E+01</totfact>
</mgrwt>
</event>
<event>
 4    1  0.1043382E-007  0.7324342E+03  0.7818608E-02  0.9882560E-01
          1   -1    0    0  501    0  0.00000000000E+00  0.00000000000E+00  0.14714939203E+04  0.14714939203E+04  0.50400000000E-02 0. -1.
         -1   -1    0    0    0  501 -0.00000000000E+00 -0.00000000000E+00 -0.43226920333E+03  0.43226920336E+03  0.50400000000E-02 0.  1.
    8880023    1    1    2    0    0  0.31741824641E+03  0.43535276368E+02 -0.73178396682E+02  0.73608080226E+03  0.65864270000E+03 0.  1.
    8880022    1    1    2    0    0 -0.31741824641E+03 -0.43535276368E+02  0.11124031136E+04  0.11676823214E+04  0.15294330000E+03 0.  0.
<mgrwt>
<rscale>  0 0.61113982E+03</rscale>
<asrwt>0</asrwt>
<pdfrwt beam="1">  1        1 0.22638368E+00 0.73243421E+03</pdfrwt>
<pdfrwt beam="2">  1       -1 0.66502954E-01 0.73243421E+03</pdfrwt>
<totfact> 0.16282807E+01</totfact>
</mgrwt>
</event>
<event>
 4    1  0.1043382E-007  0.1912989E+04  0.7818608E-02  0.8662482E-01
          1   -1    0    0  501    0  0.00000000000E+00  0.00000000000E+00  0.15359845692E+04  0.15359845692E+04  0.50400000000E-02 0. -1.
         -1   -1    0    0    0  501 -0.00000000000E+00 -0.00000000000E+00 -0.24913365633E+04  0.24913365633E+04  0.50400000000E-02 0.  1.
    8880023    1    1    2    0    0 -0.99169154765E+02 -0.17932880624E+04 -0.11209233347E+04  0.22172045292E+04  0.65864270000E+03 0.  0.
    8880022    1    1    2    0    0  0.99169154765E+02  0.17932880624E+04  0.16557134051E+03  0.18101166033E+04  0.15294330000E+03 0.  0.
<mgrwt>
<rscale>  0 0.18847549E+04</rscale>
<asrwt>0</asrwt>
<pdfrwt beam="1">  1        1 0.23630532E+00 0.19129890E+04</pdfrwt>
<pdfrwt beam="2">  1       -1 0.38328255E+00 0.19129890E+04</pdfrwt>
<totfact> 0.51813637E-02</totfact>
</mgrwt>
</event>
<event>
 4    1  0.1043382E-007  0.9421412E+03  0.7818608E-02  0.9461513E-01
          1   -1    0    0  501    0  0.00000000000E+00  0.00000000000E+00  0.20852790679E+04  0.20852790679E+04  0.50400000000E-02 0. -1.
         -1   -1    0    0    0  501 -0.00000000000E+00 -0.00000000000E+00 -0.38114108516E+03  0.38114108519E+03  0.50400000000E-02 0.  1.
    8880023    1    1    2    0    0 -0.46147631012E+03  0.49077426899E+03  0.47180974741E+03  0.10536766164E+04  0.65864270000E+03 0.  0.
    8880022    1    1    2    0    0  0.46147631012E+03 -0.49077426899E+03  0.12323282354E+04  0.14127435367E+04  0.15294330000E+03 0.  0.
<mgrwt>
<rscale>  0 0.87181801E+03</rscale>
<asrwt>0</asrwt>
<pdfrwt beam="1">  1        1 0.32081216E+00 0.94214116E+03</pdfrwt>
<pdfrwt beam="2">  1       -1 0.58637091E-01 0.94214116E+03</pdfrwt>
<totfact> 0.78386519E+00</totfact>
</mgrwt>
</event>
<event>
 4    1  0.1043382E-007  0.1013956E+04  0.7818608E-02  0.9363523E-01
          1   -1    0    0  501    0  0.00000000000E+00  0.00000000000E+00  0.31456606656E+04  0.31456606657E+04  0.50400000000E-02 0. -1.
         -1   -1    0    0    0  501 -0.00000000000E+00 -0.00000000000E+00 -0.44945239557E+03  0.44945239559E+03  0.50400000000E-02 0.  1.
    8880023    1    1    2    0    0 -0.48497146732E+03  0.59924851755E+03  0.27651767862E+03  0.10509844636E+04  0.65864270000E+03 0.  0.
    8880022    1    1    2    0    0  0.48497146732E+03 -0.59924851755E+03  0.24196905915E+04  0.25441285976E+04  0.15294330000E+03 0.  0.
<mgrwt>
<rscale>  0 0.95139395E+03</rscale>
<asrwt>0</asrwt>
<pdfrwt beam="1">  1        1 0.48394780E+00 0.10139558E+04</pdfrwt>
<pdfrwt beam="2">  1       -1 0.69146522E-01 0.10139558E+04</pdfrwt>
<totfact> 0.10162728E+00</totfact>
</mgrwt>
</event>
<event>
 4    1  0.1043382E-007  0.1321646E+04  0.7818608E-02  0.9047089E-01
          1   -1    0    0  501    0  0.00000000000E+00  0.00000000000E+00  0.30718591810E+04  0.30718591810E+04  0.50400000000E-02 0. -1.
         -1   -1    0    0    0  501 -0.00000000000E+00 -0.00000000000E+00 -0.10394216336E+04  0.10394216337E+04  0.50400000000E-02 0.  1.
    8880023    1    1    2    0    0  0.21392122658E+03 -0.11256892254E+04 -0.43095652599E+03  0.13901338989E+04  0.65864270000E+03 0.  0.
    8880022    1    1    2    0    0 -0.21392122658E+03  0.11256892254E+04  0.24633940733E+04  0.27211469157E+04  0.15294330000E+03 0.  0.
<mgrwt>
<rscale>  0 0.12781318E+04</rscale>
<asrwt>0</asrwt>
<pdfrwt beam="1">  1        1 0.47259372E+00 0.13216462E+04</pdfrwt>
<pdfrwt beam="2">  1       -1 0.15991102E+00 0.13216462E+04</pdfrwt>
<totfact> 0.15106715E-01</totfact>
</mgrwt>
</event>
<event>
 4    1  0.1043382E-007  0.6877477E+03  0.7818608E-02  0.1005242E+00
          1   -1    0    0  501    0  0.00000000000E+00  0.00000000000E+00  0.42892413188E+03  0.42892413191E+03  0.50400000000E-02 0. -1.
         -1   -1    0    0    0  501 -0.00000000000E+00 -0.00000000000E+00 -0.13773627685E+04  0.13773627685E+04  0.50400000000E-02 0.  1.
    8880023    1    1    2    0    0 -0.11950756120E+03 -0.15781209412E+03 -0.12425454705E+04  0.14201817372E+04  0.65864270000E+03 0.  0.
    8880022    1    1    2    0    0  0.11950756120E+03  0.15781209412E+03  0.29410683392E+03  0.38610516315E+03  0.15294330000E+03 0. -1.
<mgrwt>
<rscale>  0 0.53410285E+03</rscale>
<asrwt>0</asrwt>
<pdfrwt beam="1">  1        1 0.65988328E-01 0.68774772E+03</pdfrwt>
<pdfrwt beam="2">  1       -1 0.21190196E+00 0.68774772E+03</pdfrwt>
<totfact> 0.71136121E+00</totfact>
</mgrwt>
</event>
<event>
 4    1  0.1043382E-007  0.9967078E+03  0.7818608E-02  0.9385878E-01
         -1   -1    0    0    0  501 -0.00000000000E+00  0.00000000000E+00  0.96484370314E+03  0.96484370315E+03  0.50400000000E-02 0.  1.
          1   -1    0    0  501    0  0.00000000000E+00 -0.00000000000E+00 -0.18901661727E+04  0.18901661727E+04  0.50400000000E-02 0. -1.
    8880023    1    1    2    0    0 -0.12610115714E+03 -0.73737018851E+03  0.58995969890E+03  0.11582223229E+04  0.65864270000E+03 0.  1.
    8880022    1    1    2    0    0  0.12610115714E+03  0.73737018851E+03 -0.15152821684E+04  0.16967875529E+04  0.15294330000E+03 0.  0.
<mgrwt>
<rscale>  0 0.93247074E+03</rscale>
<asrwt>0</asrwt>
<pdfrwt beam="1">  1        1 0.29079479E+00 0.99670783E+03</pdfrwt>
<pdfrwt beam="2">  1       -1 0.14843749E+00 0.99670783E+03</pdfrwt>
<totfact> 0.12826505E+00</totfact>
</mgrwt>
</event>
<event>
 4    1  0.1043382E-007  0.7178182E+03  0.7818608E-02  0.9930039E-01
          1   -1    0    0  501    0  0.00000000000E+00  0.00000000000E+00  0.73408172373E+03  0.73408172375E+03  0.50400000000E-02 0. -1.
         -1   -1    0    0    0  501 -0.00000000000E+00 -0.00000000000E+00 -0.49079896958E+03  0.49079896960E+03  0.50400000000E-02 0.  1.
    8880023    1    1    2    0    0 -0.13568434933E+03  0.25108280317E+03 -0.13132118196E+03  0.72973164643E+03  0.65864270000E+03 0.  1.
    8880022    1    1    2    0    0  0.13568434933E+03 -0.25108280317E+03  0.37460393611E+03  0.49514904692E+03  0.15294330000E+03 0.  0.
<mgrwt>
<rscale>  0 0.58827319E+03</rscale>
<asrwt>0</asrwt>
<pdfrwt beam="1">  1        1 0.11293565E+00 0.71781824E+03</pdfrwt>
<pdfrwt beam="2">  1       -1 0.75507534E-01 0.71781824E+03</pdfrwt>
<totfact> 0.45807803E+01</totfact>
</mgrwt>
</event>
<event>
 4    1  0.1043382E-007  0.8275877E+03  0.7818608E-02  0.9654044E-01
          1   -1    0    0  501    0  0.00000000000E+00  0.00000000000E+00  0.65391703525E+03  0.65391703527E+03  0.50400000000E-02 0. -1.
         -1   -1    0    0    0  501 -0.00000000000E+00 -0.00000000000E+00 -0.88526745287E+03  0.88526745289E+03  0.50400000000E-02 0.  1.
    8880023    1    1    2    0    0 -0.12828345553E+03  0.48439088148E+03  0.21037465595E+03  0.85390800040E+03  0.65864270000E+03 0.  0.
    8880022    1    1    2    0    0  0.12828345553E+03 -0.48439088148E+03 -0.44172507357E+03  0.68527648775E+03  0.15294330000E+03 0.  0.
<mgrwt>
<rscale>  0 0.73820148E+03</rscale>
<asrwt>0</asrwt>
<pdfrwt beam="1">  1        1 0.10060262E+00 0.82758769E+03</pdfrwt>
<pdfrwt beam="2">  1       -1 0.13619499E+00 0.82758769E+03</pdfrwt>
<totfact> 0.13858207E+01</totfact>
</mgrwt>
</event>
<event>
 4    1  0.1043382E-007  0.6702712E+03  0.7818608E-02  0.1015469E+00
         -1   -1    0    0    0  501 -0.00000000000E+00  0.00000000000E+00  0.32322847127E+03  0.32322847131E+03  0.50400000000E-02 0.  1.
          1   -1    0    0  501    0  0.00000000000E+00 -0.00000000000E+00 -0.20127943108E+04  0.20127943108E+04  0.50400000000E-02 0. -1.
    8880023    1    1    2    0    0  0.99342864006E+02 -0.74727796181E+02 -0.36516200856E+02  0.67126513937E+03  0.65864270000E+03 0.  0.
    8880022    1    1    2    0    0 -0.99342864006E+02  0.74727796181E+02 -0.16530496386E+04  0.16647576427E+04  0.15294330000E+03 0.  0.
<mgrwt>
<rscale>  0 0.49357671E+03</rscale>
<asrwt>0</asrwt>
<pdfrwt beam="1">  1        1 0.30966066E+00 0.67027118E+03</pdfrwt>
<pdfrwt beam="2">  1       -1 0.49727458E-01 0.67027118E+03</pdfrwt>
<totfact> 0.12536776E+01</totfact>
</mgrwt>
</event>
<event>
 4    1  0.1043382E-007  0.6781929E+03  0.7818608E-02  0.1010365E+00
          1   -1    0    0  501    0  0.00000000000E+00  0.00000000000E+00  0.52777977819E+03  0.52777977822E+03  0.50400000000E-02 0. -1.
         -1   -1    0    0    0  501 -0.00000000000E+00 -0.00000000000E+00 -0.43723072132E+03  0.43723072135E+03  0.50400000000E-02 0.  1.
    8880023    1    1    2    0    0  0.15553391265E+03  0.44098155429E+02 -0.82375232422E+02  0.68317737849E+03  0.65864270000E+03 0.  1.
    8880022    1    1    2    0    0 -0.15553391265E+03 -0.44098155429E+02  0.17292428929E+03  0.28183312108E+03  0.15294330000E+03 0.  0.
<mgrwt>
<rscale>  0 0.51329887E+03</rscale>
<asrwt>0</asrwt>
<pdfrwt beam="1">  1        1 0.81196889E-01 0.67819293E+03</pdfrwt>
<pdfrwt beam="2">  1       -1 0.67266265E-01 0.67819293E+03</pdfrwt>
<totfact> 0.94191229E+01</totfact>
</mgrwt>
</event>
<event>
 4    1  0.1043382E-007  0.6723881E+03  0.7818608E-02  0.1014006E+00
         -1   -1    0    0    0  501 -0.00000000000E+00  0.00000000000E+00  0.29491146915E+04  0.29491146916E+04  0.50400000000E-02 0.  1.
          1   -1    0    0  501    0  0.00000000000E+00 -0.00000000000E+00 -0.11721450147E+03  0.11721450158E+03  0.50400000000E-02 0. -1.
    8880023    1    1    2    0    0 -0.62550599546E+02  0.11992918094E+03  0.27736804102E+04  0.28540162596E+04  0.65864270000E+03 0.  1.
    8880022    1    1    2    0    0  0.62550599546E+02 -0.11992918094E+03  0.58219779847E+02  0.21231293348E+03  0.15294330000E+03 0.  0.
<mgrwt>
<rscale>  0 0.49913200E+03</rscale>
<asrwt>0</asrwt>
<pdfrwt beam="1">  1        1 0.18033004E-01 0.67238813E+03</pdfrwt>
<pdfrwt beam="2">  1       -1 0.45370987E+00 0.67238813E+03</pdfrwt>
<totfact> 0.99190002E-01</totfact>
</mgrwt>
</event>
<event>
 4    1  0.1043382E-007  0.6773709E+03  0.7818608E-02  0.1010852E+00
          1   -1    0    0  501    0  0.00000000000E+00  0.00000000000E+00  0.13391295424E+04  0.13391295425E+04  0.50400000000E-02 0. -1.
         -1   -1    0    0    0  501 -0.00000000000E+00 -0.00000000000E+00 -0.26600237125E+03  0.26600237130E+03  0.50400000000E-02 0.  1.
    8880023    1    1    2    0    0 -0.13153286266E+02 -0.15763305527E+03  0.20229559201E+03  0.70693344939E+03  0.65864270000E+03 0.  1.
    8880022    1    1    2    0    0  0.13153286266E+02  0.15763305527E+03  0.87083157919E+03  0.89819846436E+03  0.15294330000E+03 0.  0.
<mgrwt>
<rscale>  0 0.51137559E+03</rscale>
<asrwt>0</asrwt>
<pdfrwt beam="1">  1        1 0.20601993E+00 0.67737094E+03</pdfrwt>
<pdfrwt beam="2">  1       -1 0.40923441E-01 0.67737094E+03</pdfrwt>
<totfact> 0.51269354E+01</totfact>
</mgrwt>
</event>
<event>
 4    1  0.1043382E-007  0.1055636E+04  0.7818608E-02  0.9312137E-01
         -1   -1    0    0    0  501 -0.00000000000E+00  0.00000000000E+00  0.31754603427E+03  0.31754603431E+03  0.50400000000E-02 0.  1.
          1   -1    0    0  501    0  0.00000000000E+00 -0.00000000000E+00 -0.31236925138E+04  0.31236925139E+04  0.50400000000E-02 0. -1.
    8880023    1    1    2    0    0  0.32530808107E+03 -0.75811067048E+03 -0.10203045789E+04  0.14681242374E+04  0.65864270000E+03 0.  0.
    8880022    1    1    2    0    0 -0.32530808107E+03  0.75811067048E+03 -0.17858419007E+04  0.19731143108E+04  0.15294330000E+03 0.  0.
<mgrwt>
<rscale>  0 0.99673171E+03</rscale>
<asrwt>0</asrwt>
<pdfrwt beam="1">  1        1 0.48056806E+00 0.10556360E+04</pdfrwt>
<pdfrwt beam="2">  1       -1 0.48853238E-01 0.10556360E+04</pdfrwt>
<totfact> 0.20777149E+00</totfact>
</mgrwt>
</event>
<event>
 4    1  0.1043382E-007  0.1716447E+04  0.7818608E-02  0.8770219E-01
          1   -1    0    0  501    0  0.00000000000E+00  0.00000000000E+00  0.17366085780E+04  0.17366085780E+04  0.50400000000E-02 0. -1.
         -1   -1    0    0    0  501 -0.00000000000E+00 -0.00000000000E+00 -0.19260671792E+04  0.19260671792E+04  0.50400000000E-02 0.  1.
    8880023    1    1    2    0    0 -0.14769102141E+04 -0.57542854345E+03 -0.87777490510E+03  0.19278694923E+04  0.65864270000E+03 0.  1.
    8880022    1    1    2    0    0  0.14769102141E+04  0.57542854345E+03  0.68831630388E+03  0.17348062648E+04  0.15294330000E+03 0.  0.
<mgrwt>
<rscale>  0 0.16845608E+04</rscale>
<asrwt>0</asrwt>
<pdfrwt beam="1">  1        1 0.26717055E+00 0.17164475E+04</pdfrwt>
<pdfrwt beam="2">  1       -1 0.29631803E+00 0.17164475E+04</pdfrwt>
<totfact> 0.14461282E-01</totfact>
</mgrwt>
</event>
<event>
 4    1  0.1043382E-007  0.7667770E+03  0.7818608E-02  0.9787868E-01
         -1   -1    0    0    0  501 -0.00000000000E+00  0.00000000000E+00  0.15372153573E+04  0.15372153573E+04  0.50400000000E-02 0.  1.
          1   -1    0    0  501    0  0.00000000000E+00 -0.00000000000E+00 -0.37707708272E+03  0.37707708275E+03  0.50400000000E-02 0. -1.
    8880023    1    1    2    0    0  0.38879548421E+03  0.54541900498E+02  0.12657757075E+04  0.14799105025E+04  0.65864270000E+03 0.  1.
    8880022    1    1    2    0    0 -0.38879548421E+03 -0.54541900498E+02 -0.10563743290E+03  0.43438193758E+03  0.15294330000E+03 0.  0.
<mgrwt>
<rscale>  0 0.66017684E+03</rscale>
<asrwt>0</asrwt>
<pdfrwt beam="1">  1        1 0.58011860E-01 0.76677699E+03</pdfrwt>
<pdfrwt beam="2">  1       -1 0.23649467E+00 0.76677699E+03</pdfrwt>
<totfact> 0.57437067E+00</totfact>
</mgrwt>
</event>
<event>
 4    1  0.1765982E-007  0.8742039E+03  0.7818608E-02  0.9568780E-01
         -1   -1    0    0    0  501 -0.00000000000E+00  0.00000000000E+00  0.16613051628E+04  0.16613051628E+04  0.50400000000E-02 0.  1.
          1   -1    0    0  501    0  0.00000000000E+00 -0.00000000000E+00 -0.16152068059E+04  0.16152068059E+04  0.50400000000E-02 0. -1.
    8880023    1    1    2    0    0 -0.16418043208E+03 -0.55087846541E+03  0.14829277405E+04  0.17214259170E+04  0.65864270000E+03 0.  0.
    8880022    1    1    2    0    0  0.16418043208E+03  0.55087846541E+03 -0.14368293836E+04  0.15550860518E+04  0.15294330000E+03 0.  0.
<mgrwt>
<rscale>  0 0.79397428E+03</rscale>
<asrwt>0</asrwt>
<pdfrwt beam="1">  1        1 0.24849335E+00 0.87420393E+03</pdfrwt>
<pdfrwt beam="2">  1       -1 0.25558541E+00 0.87420393E+03</pdfrwt>
<totfact> 0.36208709E-01</totfact>
</mgrwt>
</event>
<event>
 4    1  0.1043382E-007  0.6715175E+03  0.7818608E-02  0.1014598E+00
         -1   -1    0    0    0  501 -0.00000000000E+00  0.00000000000E+00  0.16575659456E+03  0.16575659464E+03  0.50400000000E-02 0.  1.
          1   -1    0    0  501    0  0.00000000000E+00 -0.00000000000E+00 -0.16492879865E+04  0.16492879865E+04  0.50400000000E-02 0. -1.
    8880023    1    1    2    0    0 -0.12064589265E+03  0.50696266245E+02 -0.57370430270E+03  0.88321706054E+03  0.65864270000E+03 0.  1.
    8880022    1    1    2    0    0  0.12064589265E+03 -0.50696266245E+02 -0.90982708921E+03  0.93182752058E+03  0.15294330000E+03 0.  0.
<mgrwt>
<rscale>  0 0.49687589E+03</rscale>
<asrwt>0</asrwt>
<pdfrwt beam="1">  1        1 0.25373660E+00 0.67151750E+03</pdfrwt>
<pdfrwt beam="2">  1       -1 0.25501016E-01 0.67151750E+03</pdfrwt>
<totfact> 0.72338613E+01</totfact>
</mgrwt>
</event>
<event>
 4    1  0.1043382E-007  0.7369085E+03  0.7818608E-02  0.9869046E-01
          1   -1    0    0  501    0  0.00000000000E+00  0.00000000000E+00  0.34150589955E+03  0.34150589959E+03  0.50400000000E-02 0. -1.
         -1   -1    0    0    0  501 -0.00000000000E+00 -0.00000000000E+00 -0.96724834053E+03  0.96724834054E+03  0.50400000000E-02 0.  1.
    8880023    1    1    2    0    0  0.23788845380E+03  0.22941893745E+03 -0.58778670405E+03  0.94261730360E+03  0.65864270000E+03 0.  0.
    8880022    1    1    2    0    0 -0.23788845380E+03 -0.22941893745E+03 -0.37955736922E+02  0.36613693653E+03  0.15294330000E+03 0.  0.
<mgrwt>
<rscale>  0 0.61785209E+03</rscale>
<asrwt>0</asrwt>
<pdfrwt beam="1">  1        1 0.52539369E-01 0.73690852E+03</pdfrwt>
<pdfrwt beam="2">  1       -1 0.14880744E+00 0.73690852E+03</pdfrwt>
<totfact> 0.27032508E+01</totfact>
</mgrwt>
</event>
<event>
 4    1  0.1043382E-007  0.6809679E+03  0.7818608E-02  0.1008781E+00
         -1   -1    0    0    0  501 -0.00000000000E+00  0.00000000000E+00  0.16209669543E+03  0.16209669551E+03  0.50400000000E-02 0.  1.
          1   -1    0    0  501    0  0.00000000000E+00 -0.00000000000E+00 -0.19299923152E+04  0.19299923152E+04  0.50400000000E-02 0. -1.
    8880023    1    1    2    0    0 -0.96127780939E+02 -0.14375844803E+03 -0.61910583258E+03  0.92033107078E+03  0.65864270000E+03 0.  1.
    8880022    1    1    2    0    0  0.96127780939E+02  0.14375844803E+03 -0.11487897872E+04  0.11717579399E+04  0.15294330000E+03 0.  0.
<mgrwt>
<rscale>  0 0.51961842E+03</rscale>
<asrwt>0</asrwt>
<pdfrwt beam="1">  1        1 0.29692188E+00 0.68096788E+03</pdfrwt>
<pdfrwt beam="2">  1       -1 0.24937955E-01 0.68096788E+03</pdfrwt>
<totfact> 0.48709015E+01</totfact>
</mgrwt>
</event>
<event>
 4    1  0.1090339E-007  0.7498122E+03  0.7818608E-02  0.9832235E-01
          1   -1    0    0  501    0  0.00000000000E+00  0.00000000000E+00  0.18772465168E+04  0.18772465168E+04  0.50400000000E-02 0. -1.
         -1   -1    0    0    0  501 -0.00000000000E+00 -0.00000000000E+00 -0.94258926324E+03  0.94258926325E+03  0.50400000000E-02 0.  1.
    8880023    1    1    2    0    0  0.32615476098E+03 -0.14842912782E+03 -0.76790392303E+03  0.10732636094E+04  0.65864270000E+03 0.  0.
    8880022    1    1    2    0    0 -0.32615476098E+03  0.14842912782E+03  0.17025611766E+04  0.17465721706E+04  0.15294330000E+03 0.  0.
<mgrwt>
<rscale>  0 0.63660973E+03</rscale>
<asrwt>0</asrwt>
<pdfrwt beam="1">  1        1 0.28880716E+00 0.74981220E+03</pdfrwt>
<pdfrwt beam="2">  1       -1 0.14501373E+00 0.74981220E+03</pdfrwt>
<totfact> 0.14541005E+00</totfact>
</mgrwt>
</event>
<event>
 4    1  0.1043382E-007  0.6908040E+03  0.7818608E-02  0.1003773E+00
          1   -1    0    0  501    0  0.00000000000E+00  0.00000000000E+00  0.25694397762E+04  0.25694397762E+04  0.50400000000E-02 0. -1.
         -1   -1    0    0    0  501 -0.00000000000E+00 -0.00000000000E+00 -0.12127218794E+03  0.12127218804E+03  0.50400000000E-02 0.  1.
    8880023    1    1    2    0    0  0.20542950705E+03  0.34620972008E+02  0.97425343440E+03  0.11943114564E+04  0.65864270000E+03 0.  1.
    8880022    1    1    2    0    0 -0.20542950705E+03 -0.34620972008E+02  0.14739141539E+04  0.14964005079E+04  0.15294330000E+03 0.  0.
<mgrwt>
<rscale>  0 0.54026433E+03</rscale>
<asrwt>0</asrwt>
<pdfrwt beam="1">  1        1 0.39529844E+00 0.69080395E+03</pdfrwt>
<pdfrwt beam="2">  1       -1 0.18657259E-01 0.69080395E+03</pdfrwt>
<totfact> 0.29382459E+01</totfact>
</mgrwt>
</event>
<event>
 4    1  0.1043382E-007  0.8858187E+03  0.7818608E-02  0.9549192E-01
          1   -1    0    0  501    0  0.00000000000E+00  0.00000000000E+00  0.11356512936E+04  0.11356512936E+04  0.50400000000E-02 0. -1.
         -1   -1    0    0    0  501 -0.00000000000E+00 -0.00000000000E+00 -0.56572200692E+03  0.56572200694E+03  0.50400000000E-02 0.  1.
    8880023    1    1    2    0    0  0.50172793946E+03  0.31485497757E+03  0.31446993465E+02  0.88637672679E+03  0.65864270000E+03 0.  0.
    8880022    1    1    2    0    0 -0.50172793946E+03 -0.31485497757E+03  0.53848229323E+03  0.81499657378E+03  0.15294330000E+03 0.  0.
<mgrwt>
<rscale>  0 0.80752275E+03</rscale>
<asrwt>0</asrwt>
<pdfrwt beam="1">  1        1 0.17471558E+00 0.88581871E+03</pdfrwt>
<pdfrwt beam="2">  1       -1 0.87034156E-01 0.88581871E+03</pdfrwt>
<totfact> 0.15735929E+01</totfact>
</mgrwt>
</event>
<event>
 4    1  0.1043382E-007  0.7159778E+03  0.7818608E-02  0.9936438E-01
         -1   -1    0    0    0  501 -0.00000000000E+00  0.00000000000E+00  0.81316441313E+03  0.81316441315E+03  0.50400000000E-02 0.  1.
          1   -1    0    0  501    0  0.00000000000E+00 -0.00000000000E+00 -0.12825023423E+04  0.12825023423E+04  0.50400000000E-02 0. -1.
    8880023    1    1    2    0    0  0.41170332000E+02  0.27770299877E+03  0.62820846395E+03  0.95250723473E+03  0.65864270000E+03 0.  1.
    8880022    1    1    2    0    0 -0.41170332000E+02 -0.27770299877E+03 -0.10975463931E+04  0.11431595207E+04  0.15294330000E+03 0.  0.
<mgrwt>
<rscale>  0 0.58527367E+03</rscale>
<asrwt>0</asrwt>
<pdfrwt beam="1">  1        1 0.19730805E+00 0.71597776E+03</pdfrwt>
<pdfrwt beam="2">  1       -1 0.12510222E+00 0.71597776E+03</pdfrwt>
<totfact> 0.54314135E+00</totfact>
</mgrwt>
</event>
<event>
 4    1  0.1043382E-007  0.9212475E+03  0.7818608E-02  0.9492749E-01
         -1   -1    0    0    0  501 -0.00000000000E+00  0.00000000000E+00  0.60122258201E+03  0.60122258203E+03  0.50400000000E-02 0.  1.
          1   -1    0    0  501    0  0.00000000000E+00 -0.00000000000E+00 -0.12833079665E+04  0.12833079665E+04  0.50400000000E-02 0. -1.
    8880023    1    1    2    0    0  0.10888427190E+03 -0.63484714920E+03  0.17427611681E+02  0.92141229394E+03  0.65864270000E+03 0.  0.
    8880022    1    1    2    0    0 -0.10888427190E+03  0.63484714920E+03 -0.69951299618E+03  0.96311825461E+03  0.15294330000E+03 0.  0.
<mgrwt>
<rscale>  0 0.84820530E+03</rscale>
<asrwt>0</asrwt>
<pdfrwt beam="1">  1        1 0.19743199E+00 0.92124747E+03</pdfrwt>
<pdfrwt beam="2">  1       -1 0.92495782E-01 0.92124747E+03</pdfrwt>
<totfact> 0.10705445E+01</totfact>
</mgrwt>
</event>
<event>
 4    1  0.1043382E-007  0.8903316E+03  0.7818608E-02  0.9541734E-01
          1   -1    0    0  501    0  0.00000000000E+00  0.00000000000E+00  0.11125838097E+04  0.11125838097E+04  0.50400000000E-02 0. -1.
         -1   -1    0    0    0  501 -0.00000000000E+00 -0.00000000000E+00 -0.65078529702E+03  0.65078529704E+03  0.50400000000E-02 0.  1.
    8880023    1    1    2    0    0  0.44962902017E+03  0.39587113238E+03 -0.13916921380E+03  0.90114287744E+03  0.65864270000E+03 0.  1.
    8880022    1    1    2    0    0 -0.44962902017E+03 -0.39587113238E+03  0.60096772645E+03  0.86222622929E+03  0.15294330000E+03 0. -1.
<mgrwt>
<rscale>  0 0.81275639E+03</rscale>
<asrwt>0</asrwt>
<pdfrwt beam="1">  1        1 0.17116674E+00 0.89033163E+03</pdfrwt>
<pdfrwt beam="2">  1       -1 0.10012082E+00 0.89033163E+03</pdfrwt>
<totfact> 0.11966450E+01</totfact>
</mgrwt>
</event>
<event>
 4    1  0.1043382E-007  0.7221970E+03  0.7818608E-02  0.9915221E-01
         -1   -1    0    0    0  501 -0.00000000000E+00  0.00000000000E+00  0.32502400942E+03  0.32502400946E+03  0.50400000000E-02 0.  1.
          1   -1    0    0  501    0  0.00000000000E+00 -0.00000000000E+00 -0.24330025653E+04  0.24330025653E+04  0.50400000000E-02 0. -1.
    8880023    1    1    2    0    0 -0.62255702189E+02 -0.28962477566E+03 -0.10773416736E+03  0.73018842788E+03  0.65864270000E+03 0.  1.
    8880022    1    1    2    0    0  0.62255702189E+02  0.28962477566E+03 -0.20002443885E+04  0.20278381469E+04  0.15294330000E+03 0.  0.
<mgrwt>
<rscale>  0 0.59529249E+03</rscale>
<asrwt>0</asrwt>
<pdfrwt beam="1">  1        1 0.37430807E+00 0.72219699E+03</pdfrwt>
<pdfrwt beam="2">  1       -1 0.50003695E-01 0.72219699E+03</pdfrwt>
<totfact> 0.64193572E+00</totfact>
</mgrwt>
</event>
<event>
 4    1  0.1043382E-007  0.1078347E+04  0.7818608E-02  0.9285556E-01
          1   -1    0    0  501    0  0.00000000000E+00  0.00000000000E+00  0.27985403582E+04  0.27985403582E+04  0.50400000000E-02 0. -1.
         -1   -1    0    0    0  501 -0.00000000000E+00 -0.00000000000E+00 -0.70360777103E+03  0.70360777105E+03  0.50400000000E-02 0.  1.
    8880023    1    1    2    0    0  0.76311171595E+03  0.38299198040E+03 -0.15627128621E+03  0.10896115222E+04  0.65864270000E+03 0.  0.
    8880022    1    1    2    0    0 -0.76311171595E+03 -0.38299198040E+03  0.22512038734E+04  0.24125366071E+04  0.15294330000E+03 0.  0.
<mgrwt>
<rscale>  0 0.10212358E+04</rscale>
<asrwt>0</asrwt>
<pdfrwt beam="1">  1        1 0.43054467E+00 0.10783471E+04</pdfrwt>
<pdfrwt beam="2">  1       -1 0.10824735E+00 0.10783471E+04</pdfrwt>
<totfact> 0.66938504E-01</totfact>
</mgrwt>
</event>
<event>
 4    1  0.1043382E-007  0.7557849E+03  0.7818608E-02  0.9816145E-01
         -1   -1    0    0    0  501 -0.00000000000E+00  0.00000000000E+00  0.12769253051E+04  0.12769253051E+04  0.50400000000E-02 0.  1.
          1   -1    0    0  501    0  0.00000000000E+00 -0.00000000000E+00 -0.82164520375E+03  0.82164520377E+03  0.50400000000E-02 0. -1.
    8880023    1    1    2    0    0 -0.30977284440E+03  0.20357154968E+03  0.11028093345E+04  0.13369365076E+04  0.65864270000E+03 0.  0.
    8880022    1    1    2    0    0  0.30977284440E+03 -0.20357154968E+03 -0.64752923317E+03  0.76163400120E+03  0.15294330000E+03 0.  0.
<mgrwt>
<rscale>  0 0.64503279E+03</rscale>
<asrwt>0</asrwt>
<pdfrwt beam="1">  1        1 0.12640695E+00 0.75578489E+03</pdfrwt>
<pdfrwt beam="2">  1       -1 0.19645005E+00 0.75578489E+03</pdfrwt>
<totfact> 0.35005672E+00</totfact>
</mgrwt>
</event>
<event>
 4    1  0.1043382E-007  0.7068343E+03  0.7818608E-02  0.9969950E-01
          1   -1    0    0  501    0  0.00000000000E+00  0.00000000000E+00  0.11327645380E+04  0.11327645380E+04  0.50400000000E-02 0. -1.
         -1   -1    0    0    0  501 -0.00000000000E+00 -0.00000000000E+00 -0.15581943956E+04  0.15581943956E+04  0.50400000000E-02 0.  1.
    8880023    1    1    2    0    0  0.25359994496E+03 -0.38620536572E+02 -0.14557222545E+04  0.16182527511E+04  0.65864270000E+03 0.  1.
    8880022    1    1    2    0    0 -0.25359994496E+03  0.38620536572E+02  0.10302923969E+04  0.10727061826E+04  0.15294330000E+03 0.  0.
<mgrwt>
<rscale>  0 0.56987742E+03</rscale>
<asrwt>0</asrwt>
<pdfrwt beam="1">  1        1 0.17427147E+00 0.70683427E+03</pdfrwt>
<pdfrwt beam="2">  1       -1 0.23972222E+00 0.70683427E+03</pdfrwt>
<totfact> 0.10352724E+00</totfact>
</mgrwt>
</event>
<event>
 4    1  0.1043382E-007  0.8867688E+03  0.7818608E-02  0.9547615E-01
          1   -1    0    0  501    0  0.00000000000E+00  0.00000000000E+00  0.23183034694E+04  0.23183034694E+04  0.50400000000E-02 0. -1.
         -1   -1    0    0    0  501 -0.00000000000E+00 -0.00000000000E+00 -0.26259570545E+03  0.26259570550E+03  0.50400000000E-02 0.  1.
    8880023    1    1    2    0    0  0.47248806409E+03 -0.35958836998E+03  0.15516265377E+04  0.17871496538E+04  0.65864270000E+03 0. -1.
    8880022    1    1    2    0    0 -0.47248806409E+03  0.35958836998E+03  0.50408122633E+03  0.79374952113E+03  0.15294330000E+03 0.  1.
<mgrwt>
<rscale>  0 0.80862599E+03</rscale>
<asrwt>0</asrwt>
<pdfrwt beam="1">  1        1 0.35666208E+00 0.88676884E+03</pdfrwt>
<pdfrwt beam="2">  1       -1 0.40399339E-01 0.88676884E+03</pdfrwt>
<totfact> 0.11129444E+01</totfact>
</mgrwt>
</event>
<event>
 4    1  0.1043382E-007  0.7455863E+03  0.7818608E-02  0.9843963E-01
          1   -1    0    0  501    0  0.00000000000E+00  0.00000000000E+00  0.87512967671E+03  0.87512967673E+03  0.50400000000E-02 0. -1.
         -1   -1    0    0    0  501 -0.00000000000E+00 -0.00000000000E+00 -0.37278874029E+03  0.37278874033E+03  0.50400000000E-02 0.  1.
    8880023    1    1    2    0    0 -0.23411788542E+03 -0.25937921243E+03  0.42676141816E+03  0.85908339200E+03  0.65864270000E+03 0. -1.
    8880022    1    1    2    0    0  0.23411788542E+03  0.25937921243E+03  0.75579518265E+02  0.38883502506E+03  0.15294330000E+03 0.  1.
<mgrwt>
<rscale>  0 0.63055651E+03</rscale>
<asrwt>0</asrwt>
<pdfrwt beam="1">  1        1 0.13463533E+00 0.74558632E+03</pdfrwt>
<pdfrwt beam="2">  1       -1 0.57352115E-01 0.74558632E+03</pdfrwt>
<totfact> 0.60067963E+01</totfact>
</mgrwt>
</event>
<event>
 4    1  0.1043382E-007  0.7890511E+03  0.7818608E-02  0.9734990E-01
          1   -1    0    0  501    0  0.00000000000E+00  0.00000000000E+00  0.46333394430E+03  0.46333394433E+03  0.50400000000E-02 0. -1.
         -1   -1    0    0    0  501 -0.00000000000E+00 -0.00000000000E+00 -0.10390930732E+04  0.10390930732E+04  0.50400000000E-02 0.  1.
    8880023    1    1    2    0    0 -0.11925567908E+03 -0.41781519174E+03 -0.66658279444E+03  0.10329251084E+04  0.65864270000E+03 0. -1.
    8880022    1    1    2    0    0  0.11925567908E+03  0.41781519174E+03  0.90823665549E+02  0.46950190914E+03  0.15294330000E+03 0.  0.
<mgrwt>
<rscale>  0 0.68971187E+03</rscale>
<asrwt>0</asrwt>
<pdfrwt beam="1">  1        1 0.71282145E-01 0.78905111E+03</pdfrwt>
<pdfrwt beam="2">  1       -1 0.15986047E+00 0.78905111E+03</pdfrwt>
<totfact> 0.14754352E+01</totfact>
</mgrwt>
</event>
<event>
 4    1  0.1043382E-007  0.7978029E+03  0.7818608E-02  0.9715567E-01
         -1   -1    0    0    0  501 -0.00000000000E+00  0.00000000000E+00  0.51733060795E+03  0.51733060798E+03  0.50400000000E-02 0.  1.
          1   -1    0    0  501    0  0.00000000000E+00 -0.00000000000E+00 -0.16644126701E+04  0.16644126701E+04  0.50400000000E-02 0. -1.
    8880023    1    1    2    0    0 -0.35539488814E+03 -0.27635795280E+03  0.13968707626E+03  0.80993946078E+03  0.65864270000E+03 0.  1.
    8880022    1    1    2    0    0  0.35539488814E+03  0.27635795280E+03 -0.12867691384E+04  0.13718038173E+04  0.15294330000E+03 0.  0.
<mgrwt>
<rscale>  0 0.70097461E+03</rscale>
<asrwt>0</asrwt>
<pdfrwt beam="1">  1        1 0.25606349E+00 0.79780289E+03</pdfrwt>
<pdfrwt beam="2">  1       -1 0.79589325E-01 0.79780289E+03</pdfrwt>
<totfact> 0.82220452E+00</totfact>
</mgrwt>
</event>
<event>
 4    1  0.1043382E-007  0.9127683E+03  0.7818608E-02  0.9505838E-01
          1   -1    0    0  501    0  0.00000000000E+00  0.00000000000E+00  0.10536336701E+04  0.10536336701E+04  0.50400000000E-02 0. -1.
         -1   -1    0    0    0  501 -0.00000000000E+00 -0.00000000000E+00 -0.11279427351E+04  0.11279427351E+04  0.50400000000E-02 0.  1.
    8880023    1    1    2    0    0  0.35467273847E+03  0.52301340269E+03 -0.79536000162E+03  0.12106789456E+04  0.65864270000E+03 0.  0.
    8880022    1    1    2    0    0 -0.35467273847E+03 -0.52301340269E+03  0.72105093670E+03  0.97089745964E+03  0.15294330000E+03 0.  0.
<mgrwt>
<rscale>  0 0.83854807E+03</rscale>
<asrwt>0</asrwt>
<pdfrwt beam="1">  1        1 0.16209749E+00 0.91276830E+03</pdfrwt>
<pdfrwt beam="2">  1       -1 0.17352965E+00 0.91276830E+03</pdfrwt>
<totfact> 0.32348320E+00</totfact>
</mgrwt>
</event>
<event>
 4    1  0.1043382E-007  0.1115235E+04  0.7818608E-02  0.9244281E-01
          1   -1    0    0  501    0  0.00000000000E+00  0.00000000000E+00  0.11837102092E+04  0.11837102092E+04  0.50400000000E-02 0. -1.
         -1   -1    0    0    0  501 -0.00000000000E+00 -0.00000000000E+00 -0.19637627479E+04  0.19637627479E+04  0.50400000000E-02 0.  1.
    8880023    1    1    2    0    0 -0.88628555826E+03 -0.15631949303E+03 -0.15798329765E+04  0.19338097928E+04  0.65864270000E+03 0.  0.
    8880022    1    1    2    0    0  0.88628555826E+03  0.15631949303E+03  0.79978043786E+03  0.12136631643E+04  0.15294330000E+03 0.  0.
<mgrwt>
<rscale>  0 0.10607835E+04</rscale>
<asrwt>0</asrwt>
<pdfrwt beam="1">  1        1 0.18210926E+00 0.11152345E+04</pdfrwt>
<pdfrwt beam="2">  1       -1 0.30211734E+00 0.11152345E+04</pdfrwt>
<totfact> 0.35029289E-01</totfact>
</mgrwt>
</event>
<event>
 4    1  0.1043382E-007  0.7385564E+03  0.7818608E-02  0.9864172E-01
          1   -1    0    0  501    0  0.00000000000E+00  0.00000000000E+00  0.30956216804E+04  0.30956216804E+04  0.50400000000E-02 0. -1.
         -1   -1    0    0    0  501 -0.00000000000E+00 -0.00000000000E+00 -0.23475150073E+03  0.23475150079E+03  0.50400000000E-02 0.  1.
    8880023    1    1    2    0    0  0.26849655705E+03  0.19890936163E+03  0.39554170163E+03  0.83780593176E+03  0.65864270000E+03 0.  1.
    8880022    1    1    2    0    0 -0.26849655705E+03 -0.19890936163E+03  0.24653284780E+04  0.24925672494E+04  0.15294330000E+03 0.  0.
<mgrwt>
<rscale>  0 0.62029511E+03</rscale>
<asrwt>0</asrwt>
<pdfrwt beam="1">  1        1 0.47624952E+00 0.73855639E+03</pdfrwt>
<pdfrwt beam="2">  1       -1 0.36115613E-01 0.73855639E+03</pdfrwt>
<totfact> 0.40038077E+00</totfact>
</mgrwt>
</event>
<event>
 4    1  0.1043382E-007  0.7073421E+03  0.7818608E-02  0.9968006E-01
          1   -1    0    0  501    0  0.00000000000E+00  0.00000000000E+00  0.32208393684E+04  0.32208393684E+04  0.50400000000E-02 0. -1.
         -1   -1    0    0    0  501 -0.00000000000E+00 -0.00000000000E+00 -0.18934938986E+03  0.18934938992E+03  0.50400000000E-02 0.  1.
    8880023    1    1    2    0    0 -0.31705519588E+01  0.25790042668E+03  0.51269260234E+03  0.87360551351E+03  0.65864270000E+03 0.  1.
    8880022    1    1    2    0    0  0.31705519588E+01 -0.25790042668E+03  0.25187973762E+04  0.25365832448E+04  0.15294330000E+03 0.  0.
<mgrwt>
<rscale>  0 0.57075636E+03</rscale>
<asrwt>0</asrwt>
<pdfrwt beam="1">  1        1 0.49551373E+00 0.70734213E+03</pdfrwt>
<pdfrwt beam="2">  1       -1 0.29130676E-01 0.70734213E+03</pdfrwt>
<totfact> 0.47632418E+00</totfact>
</mgrwt>
</event>
<event>
 4    1  0.1043382E-007  0.9845027E+03  0.7818608E-02  0.9402120E-01
          1   -1    0    0  501    0  0.00000000000E+00  0.00000000000E+00  0.13665144746E+04  0.13665144746E+04  0.50400000000E-02 0. -1.
         -1   -1    0    0    0  501 -0.00000000000E+00 -0.00000000000E+00 -0.95223426339E+03  0.95223426341E+03  0.50400000000E-02 0.  1.
    8880023    1    1    2    0    0 -0.73042245124E+03 -0.43798613282E+02 -0.52704428123E+03  0.11167010148E+04  0.65864270000E+03 0.  1.
    8880022    1    1    2    0    0  0.73042245124E+03  0.43798613282E+02  0.94132449242E+03  0.12020477232E+04  0.15294330000E+03 0.  0.
<mgrwt>
<rscale>  0 0.91901444E+03</rscale>
<asrwt>0</asrwt>
<pdfrwt beam="1">  1        1 0.21023300E+00 0.98450266E+03</pdfrwt>
<pdfrwt beam="2">  1       -1 0.14649758E+00 0.98450266E+03</pdfrwt>
<totfact> 0.30352452E+00</totfact>
</mgrwt>
</event>
<event>
 4    1  0.1043382E-007  0.7205443E+03  0.7818608E-02  0.9920748E-01
          1   -1    0    0  501    0  0.00000000000E+00  0.00000000000E+00  0.98890895176E+03  0.98890895177E+03  0.50400000000E-02 0. -1.
         -1   -1    0    0    0  501 -0.00000000000E+00 -0.00000000000E+00 -0.42210862048E+03  0.42210862051E+03  0.50400000000E-02 0.  1.
    8880023    1    1    2    0    0  0.28033009053E+01  0.29217470344E+03 -0.38640859207E+02  0.72157968243E+03  0.65864270000E+03 0.  1.
    8880022    1    1    2    0    0 -0.28033009053E+01 -0.29217470344E+03  0.60544119048E+03  0.68943788986E+03  0.15294330000E+03 0.  0.
<mgrwt>
<rscale>  0 0.59266183E+03</rscale>
<asrwt>0</asrwt>
<pdfrwt beam="1">  1        1 0.15213984E+00 0.72054432E+03</pdfrwt>
<pdfrwt beam="2">  1       -1 0.64939789E-01 0.72054432E+03</pdfrwt>
<totfact> 0.38184765E+01</totfact>
</mgrwt>
</event>
<event>
 4    1  0.1043382E-007  0.7332104E+03  0.7818608E-02  0.9880185E-01
         -1   -1    0    0    0  501 -0.00000000000E+00  0.00000000000E+00  0.28008731821E+04  0.28008731821E+04  0.50400000000E-02 0.  1.
          1   -1    0    0  501    0  0.00000000000E+00 -0.00000000000E+00 -0.23344874878E+03  0.23344874883E+03  0.50400000000E-02 0. -1.
    8880023    1    1    2    0    0  0.31862998336E+03  0.47562548336E+02  0.25752708143E+04  0.26776140939E+04  0.65864270000E+03 0.  0.
    8880022    1    1    2    0    0 -0.31862998336E+03 -0.47562548336E+02 -0.78463810181E+01  0.35670783705E+03  0.15294330000E+03 0.  0.
<mgrwt>
<rscale>  0 0.61231281E+03</rscale>
<asrwt>0</asrwt>
<pdfrwt beam="1">  1        1 0.35915193E-01 0.73321038E+03</pdfrwt>
<pdfrwt beam="2">  1       -1 0.43090356E+00 0.73321038E+03</pdfrwt>
<totfact> 0.57173172E-01</totfact>
</mgrwt>
</event>
<event>
 4    1  0.1043382E-007  0.7860782E+03  0.7818608E-02  0.9741748E-01
         -1   -1    0    0    0  501 -0.00000000000E+00  0.00000000000E+00  0.57751112261E+03  0.57751112263E+03  0.50400000000E-02 0.  1.
          1   -1    0    0  501    0  0.00000000000E+00 -0.00000000000E+00 -0.11104991562E+04  0.11104991562E+04  0.50400000000E-02 0. -1.
    8880023    1    1    2    0    0 -0.28122822370E+03  0.32406708447E+03  0.21256508105E+03  0.81431130963E+03  0.65864270000E+03 0.  0.
    8880022    1    1    2    0    0  0.28122822370E+03 -0.32406708447E+03 -0.74555311462E+03  0.87369896920E+03  0.15294330000E+03 0.  0.
<mgrwt>
<rscale>  0 0.68584615E+03</rscale>
<asrwt>0</asrwt>
<pdfrwt beam="1">  1        1 0.17084602E+00 0.78607824E+03</pdfrwt>
<pdfrwt beam="2">  1       -1 0.88847865E-01 0.78607824E+03</pdfrwt>
<totfact> 0.15885328E+01</totfact>
</mgrwt>
</event>
<event>
 4    1  0.1043382E-007  0.9124043E+03  0.7818608E-02  0.9506405E-01
         -1   -1    0    0    0  501 -0.00000000000E+00  0.00000000000E+00  0.28003019305E+03  0.28003019309E+03  0.50400000000E-02 0.  1.
          1   -1    0    0  501    0  0.00000000000E+00 -0.00000000000E+00 -0.27110068201E+04  0.27110068201E+04  0.50400000000E-02 0. -1.
    8880023    1    1    2    0    0 -0.41430510246E+03 -0.47646898485E+03 -0.72446518031E+03  0.11650456709E+04  0.65864270000E+03 0.  1.
    8880022    1    1    2    0    0  0.41430510246E+03  0.47646898485E+03 -0.17065114468E+04  0.18259913424E+04  0.15294330000E+03 0.  0.
<mgrwt>
<rscale>  0 0.83813246E+03</rscale>
<asrwt>0</asrwt>
<pdfrwt beam="1">  1        1 0.41707795E+00 0.91240431E+03</pdfrwt>
<pdfrwt beam="2">  1       -1 0.43081570E-01 0.91240431E+03</pdfrwt>
<totfact> 0.52953927E+00</totfact>
</mgrwt>
</event>
<event>
 4    1  0.1043382E-007  0.6772523E+03  0.7818608E-02  0.1010923E+00
          1   -1    0    0  501    0  0.00000000000E+00  0.00000000000E+00  0.70447478361E+03  0.70447478362E+03  0.50400000000E-02 0. -1.
         -1   -1    0    0    0  501 -0.00000000000E+00 -0.00000000000E+00 -0.28589558533E+03  0.28589558537E+03  0.50400000000E-02 0.  1.
    8880023    1    1    2    0    0 -0.14793608324E+03  0.54546807135E+02  0.29969773923E+03  0.74060068867E+03  0.65864270000E+03 0. -1.
    8880022    1    1    2    0    0  0.14793608324E+03 -0.54546807135E+02  0.11888145905E+03  0.24976968033E+03  0.15294330000E+03 0.  1.
<mgrwt>
<rscale>  0 0.51109587E+03</rscale>
<asrwt>0</asrwt>
<pdfrwt beam="1">  1        1 0.10838074E+00 0.67725228E+03</pdfrwt>
<pdfrwt beam="2">  1       -1 0.43983936E-01 0.67725228E+03</pdfrwt>
<totfact> 0.14077949E+02</totfact>
</mgrwt>
</event>
<event>
 4    1  0.1043382E-007  0.7105499E+03  0.7818608E-02  0.9955965E-01
          1   -1    0    0  501    0  0.00000000000E+00  0.00000000000E+00  0.12431694556E+04  0.12431694556E+04  0.50400000000E-02 0. -1.
         -1   -1    0    0    0  501 -0.00000000000E+00 -0.00000000000E+00 -0.25426199983E+03  0.25426199988E+03  0.50400000000E-02 0.  1.
    8880023    1    1    2    0    0 -0.20834287379E+03  0.16632543443E+03  0.35799584172E+03  0.79563944859E+03  0.65864270000E+03 0.  1.
    8880022    1    1    2    0    0  0.20834287379E+03 -0.16632543443E+03  0.63091161406E+03  0.70179200691E+03  0.15294330000E+03 0.  0.
<mgrwt>
<rscale>  0 0.57623997E+03</rscale>
<asrwt>0</asrwt>
<pdfrwt beam="1">  1        1 0.19125684E+00 0.71054986E+03</pdfrwt>
<pdfrwt beam="2">  1       -1 0.39117231E-01 0.71054986E+03</pdfrwt>
<totfact> 0.64824079E+01</totfact>
</mgrwt>
</event>
<event>
 4    1  0.1043382E-007  0.7028025E+03  0.7818608E-02  0.9985768E-01
         -1   -1    0    0    0  501 -0.00000000000E+00  0.00000000000E+00  0.27269917203E+03  0.27269917207E+03  0.50400000000E-02 0.  1.
          1   -1    0    0  501    0  0.00000000000E+00 -0.00000000000E+00 -0.25914162793E+04  0.25914162793E+04  0.50400000000E-02 0. -1.
    8880023    1    1    2    0    0  0.96170552398E+02  0.22554915727E+03 -0.20691049920E+03  0.73262770794E+03  0.65864270000E+03 0.  1.
    8880022    1    1    2    0    0 -0.96170552398E+02 -0.22554915727E+03 -0.21118066081E+04  0.21314877434E+04  0.15294330000E+03 0.  0.
<mgrwt>
<rscale>  0 0.56278712E+03</rscale>
<asrwt>0</asrwt>
<pdfrwt beam="1">  1        1 0.39867941E+00 0.70280254E+03</pdfrwt>
<pdfrwt beam="2">  1       -1 0.41953721E-01 0.70280254E+03</pdfrwt>
<totfact> 0.69637838E+00</totfact>
</mgrwt>
</event>
<event>
 4    1  0.1043382E-007  0.7236325E+03  0.7818608E-02  0.9910481E-01
         -1   -1    0    0    0  501 -0.00000000000E+00  0.00000000000E+00  0.18567371859E+03  0.18567371866E+03  0.50400000000E-02 0.  1.
          1   -1    0    0  501    0  0.00000000000E+00 -0.00000000000E+00 -0.20603726714E+04  0.20603726714E+04  0.50400000000E-02 0. -1.
    8880023    1    1    2    0    0 -0.16812091984E+03  0.24813139022E+03 -0.63910258634E+03  0.96545126890E+03  0.65864270000E+03 0.  1.
    8880022    1    1    2    0    0  0.16812091984E+03 -0.24813139022E+03 -0.12355963664E+04  0.12805951211E+04  0.15294330000E+03 0.  0.
<mgrwt>
<rscale>  0 0.59756009E+03</rscale>
<asrwt>0</asrwt>
<pdfrwt beam="1">  1        1 0.31698039E+00 0.72363253E+03</pdfrwt>
<pdfrwt beam="2">  1       -1 0.28565189E-01 0.72363253E+03</pdfrwt>
<totfact> 0.31399112E+01</totfact>
</mgrwt>
</event>
<event>
 4    1  0.1043382E-007  0.8054327E+03  0.7818608E-02  0.9699170E-01
         -1   -1    0    0    0  501 -0.00000000000E+00  0.00000000000E+00  0.74084317279E+03  0.74084317281E+03  0.50400000000E-02 0.  1.
          1   -1    0    0  501    0  0.00000000000E+00 -0.00000000000E+00 -0.10277882882E+04  0.10277882882E+04  0.50400000000E-02 0. -1.
    8880023    1    1    2    0    0  0.54999845895E+02 -0.46031149266E+03  0.42089946200E+03  0.90877842002E+03  0.65864270000E+03 0.  1.
    8880022    1    1    2    0    0 -0.54999845895E+02  0.46031149266E+03 -0.70784457738E+03  0.85985304097E+03  0.15294330000E+03 0.  0.
<mgrwt>
<rscale>  0 0.71066219E+03</rscale>
<asrwt>0</asrwt>
<pdfrwt beam="1">  1        1 0.15812128E+00 0.80543272E+03</pdfrwt>
<pdfrwt beam="2">  1       -1 0.11397587E+00 0.80543272E+03</pdfrwt>
<totfact> 0.10349010E+01</totfact>
</mgrwt>
</event>
<event>
 4    1  0.1043382E-007  0.7164031E+03  0.7818608E-02  0.9934950E-01
         -1   -1    0    0    0  501 -0.00000000000E+00  0.00000000000E+00  0.38240971323E+03  0.38240971326E+03  0.50400000000E-02 0.  1.
          1   -1    0    0  501    0  0.00000000000E+00 -0.00000000000E+00 -0.13775505620E+04  0.13775505620E+04  0.50400000000E-02 0. -1.
    8880023    1    1    2    0    0 -0.25896760530E+03  0.11117088890E+03 -0.20695971508E+01  0.71640608361E+03  0.65864270000E+03 0.  1.
    8880022    1    1    2    0    0  0.25896760530E+03 -0.11117088890E+03 -0.99307125160E+03  0.10435541917E+04  0.15294330000E+03 0.  0.
<mgrwt>
<rscale>  0 0.58596957E+03</rscale>
<asrwt>0</asrwt>
<pdfrwt beam="1">  1        1 0.21193085E+00 0.71640309E+03</pdfrwt>
<pdfrwt beam="2">  1       -1 0.58832264E-01 0.71640309E+03</pdfrwt>
<totfact> 0.24181174E+01</totfact>
</mgrwt>
</event>
<event>
 4    1  0.1043382E-007  0.9466786E+03  0.7818608E-02  0.9454909E-01
          1   -1    0    0  501    0  0.00000000000E+00  0.00000000000E+00  0.12998300225E+04  0.12998300225E+04  0.50400000000E-02 0. -1.
         -1   -1    0    0    0  501 -0.00000000000E+00 -0.00000000000E+00 -0.71142786688E+03  0.71142786690E+03  0.50400000000E-02 0.  1.
    8880023    1    1    2    0    0  0.11801330555E+03  0.66967375171E+03 -0.19091299108E+03  0.96573705036E+03  0.65864270000E+03 0.  0.
    8880022    1    1    2    0    0 -0.11801330555E+03 -0.66967375171E+03  0.77931514673E+03  0.10455208391E+04  0.15294330000E+03 0.  0.
<mgrwt>
<rscale>  0 0.87691409E+03</rscale>
<asrwt>0</asrwt>
<pdfrwt beam="1">  1        1 0.19997385E+00 0.94667855E+03</pdfrwt>
<pdfrwt beam="2">  1       -1 0.10945044E+00 0.94667855E+03</pdfrwt>
<totfact> 0.70594407E+00</totfact>
</mgrwt>
</event>
<event>
 4    1  0.1043382E-007  0.8364431E+03  0.7818608E-02  0.9636924E-01
         -1   -1    0    0    0  501 -0.00000000000E+00  0.00000000000E+00  0.17541683500E+03  0.17541683508E+03  0.50400000000E-02 0.  1.
          1   -1    0    0  501    0  0.00000000000E+00 -0.00000000000E+00 -0.31808888529E+04  0.31808888529E+04  0.50400000000E-02 0. -1.
    8880023    1    1    2    0    0  0.25811945992E+03 -0.44631968466E+03 -0.11340952364E+04  0.14091873999E+04  0.65864270000E+03 0.  0.
    8880022    1    1    2    0    0 -0.25811945992E+03  0.44631968466E+03 -0.18713767815E+04  0.19471182881E+04  0.15294330000E+03 0.  0.
<mgrwt>
<rscale>  0 0.74899788E+03</rscale>
<asrwt>0</asrwt>
<pdfrwt beam="1">  1        1 0.48936747E+00 0.83644314E+03</pdfrwt>
<pdfrwt beam="2">  1       -1 0.26987208E-01 0.83644314E+03</pdfrwt>
<totfact> 0.56847332E+00</totfact>
</mgrwt>
</event>
<event>
 4    1  0.1043382E-007  0.6824596E+03  0.7818608E-02  0.1007965E+00
          1   -1    0    0  501    0  0.00000000000E+00  0.00000000000E+00  0.13305855816E+04  0.13305855816E+04  0.50400000000E-02 0. -1.
         -1   -1    0    0    0  501 -0.00000000000E+00 -0.00000000000E+00 -0.15987659291E+03  0.15987659299E+03  0.50400000000E-02 0.  1.
    8880023    1    1    2    0    0 -0.13520859506E+03 -0.11687426732E+03  0.93383938888E+03  0.11566361438E+04  0.65864270000E+03 0.  0.
    8880022    1    1    2    0    0  0.13520859506E+03  0.11687426732E+03  0.23686959979E+03  0.33382603083E+03  0.15294330000E+03 0.  1.
<mgrwt>
<rscale>  0 0.52291413E+03</rscale>
<asrwt>0</asrwt>
<pdfrwt beam="1">  1        1 0.20470548E+00 0.68245964E+03</pdfrwt>
<pdfrwt beam="2">  1       -1 0.24596399E-01 0.68245964E+03</pdfrwt>
<totfact> 0.12700450E+02</totfact>
</mgrwt>
</event>
<event>
 4    1  0.1043382E-007  0.8570562E+03  0.7818608E-02  0.9598822E-01
         -1   -1    0    0    0  501 -0.00000000000E+00  0.00000000000E+00  0.11079652699E+04  0.11079652699E+04  0.50400000000E-02 0.  1.
          1   -1    0    0  501    0  0.00000000000E+00 -0.00000000000E+00 -0.92354351330E+03  0.92354351331E+03  0.50400000000E-02 0. -1.
    8880023    1    1    2    0    0  0.45799246254E+02 -0.54647737461E+03  0.81447630119E+03  0.11823353769E+04  0.65864270000E+03 0.  0.
    8880022    1    1    2    0    0 -0.45799246254E+02  0.54647737461E+03 -0.63005454458E+03  0.84917340637E+03  0.15294330000E+03 0.  0.
<mgrwt>
<rscale>  0 0.77374228E+03</rscale>
<asrwt>0</asrwt>
<pdfrwt beam="1">  1        1 0.14208362E+00 0.85705618E+03</pdfrwt>
<pdfrwt beam="2">  1       -1 0.17045620E+00 0.85705618E+03</pdfrwt>
<totfact> 0.43399566E+00</totfact>
</mgrwt>
</event>
<event>
 4    1  0.1043382E-007  0.6939227E+03  0.7818608E-02  0.1002341E+00
         -1   -1    0    0    0  501 -0.00000000000E+00  0.00000000000E+00  0.38852683577E+03  0.38852683580E+03  0.50400000000E-02 0.  1.
          1   -1    0    0  501    0  0.00000000000E+00 -0.00000000000E+00 -0.61065080898E+03  0.61065080900E+03  0.50400000000E-02 0. -1.
    8880023    1    1    2    0    0  0.14298308564E+02 -0.21797732326E+03 -0.23381761730E+03  0.73225640284E+03  0.65864270000E+03 0.  0.
    8880022    1    1    2    0    0 -0.14298308564E+02  0.21797732326E+03  0.11693644086E+02  0.26692124196E+03  0.15294330000E+03 0. -1.
<mgrwt>
<rscale>  0 0.54635489E+03</rscale>
<asrwt>0</asrwt>
<pdfrwt beam="1">  1        1 0.93946278E-01 0.69392273E+03</pdfrwt>
<pdfrwt beam="2">  1       -1 0.59773360E-01 0.69392273E+03</pdfrwt>
<totfact> 0.96868496E+01</totfact>
</mgrwt>
</event>
<event>
 4    1  0.1043382E-007  0.6784918E+03  0.7818608E-02  0.1010190E+00
         -1   -1    0    0    0  501 -0.00000000000E+00  0.00000000000E+00  0.48700591151E+03  0.48700591153E+03  0.50400000000E-02 0.  1.
          1   -1    0    0  501    0  0.00000000000E+00 -0.00000000000E+00 -0.15914473804E+04  0.15914473804E+04  0.50400000000E-02 0. -1.
    8880023    1    1    2    0    0 -0.10817262160E+03 -0.12181809093E+03  0.23687405475E+03  0.71865185411E+03  0.65864270000E+03 0.  1.
    8880022    1    1    2    0    0  0.10817262160E+03  0.12181809093E+03 -0.13413155237E+04  0.13598014379E+04  0.15294330000E+03 0.  0.
<mgrwt>
<rscale>  0 0.51399218E+03</rscale>
<asrwt>0</asrwt>
<pdfrwt beam="1">  1        1 0.24483806E+00 0.67849183E+03</pdfrwt>
<pdfrwt beam="2">  1       -1 0.74923987E-01 0.67849183E+03</pdfrwt>
<totfact> 0.10653746E+01</totfact>
</mgrwt>
</event>
<event>
 4    1  0.1043382E-007  0.7442875E+03  0.7818608E-02  0.9847629E-01
         -1   -1    0    0    0  501 -0.00000000000E+00  0.00000000000E+00  0.39906789577E+03  0.39906789581E+03  0.50400000000E-02 0.  1.
          1   -1    0    0  501    0  0.00000000000E+00 -0.00000000000E+00 -0.17320557881E+04  0.17320557881E+04  0.50400000000E-02 0. -1.
    8880023    1    1    2    0    0 -0.73922172766E+02 -0.33865786704E+03  0.10912511744E+01  0.74428827454E+03  0.65864270000E+03 0.  1.
    8880022    1    1    2    0    0  0.73922172766E+02  0.33865786704E+03 -0.13340791435E+04  0.13868354093E+04  0.15294330000E+03 0.  0.
<mgrwt>
<rscale>  0 0.62867929E+03</rscale>
<asrwt>0</asrwt>
<pdfrwt beam="1">  1        1 0.26647012E+00 0.74428747E+03</pdfrwt>
<pdfrwt beam="2">  1       -1 0.61395062E-01 0.74428747E+03</pdfrwt>
<totfact> 0.12697787E+01</totfact>
</mgrwt>
</event>
<event>
 4    1  0.1043382E-007  0.1241895E+04  0.7818608E-02  0.9117435E-01
          1   -1    0    0  501    0  0.00000000000E+00  0.00000000000E+00  0.10392929519E+04  0.10392929519E+04  0.50400000000E-02 0. -1.
         -1   -1    0    0    0  501 -0.00000000000E+00 -0.00000000000E+00 -0.22717833091E+04  0.22717833091E+04  0.50400000000E-02 0.  1.
    8880023    1    1    2    0    0 -0.91164689464E+03  0.52668189897E+03 -0.17356486825E+04  0.21341931587E+04  0.65864270000E+03 0.  1.
    8880022    1    1    2    0    0  0.91164689464E+03 -0.52668189897E+03  0.50315832531E+03  0.11768831023E+04  0.15294330000E+03 0.  0.
<mgrwt>
<rscale>  0 0.11947831E+04</rscale>
<asrwt>0</asrwt>
<pdfrwt beam="1">  1        1 0.15989122E+00 0.12418954E+04</pdfrwt>
<pdfrwt beam="2">  1       -1 0.34950512E+00 0.12418954E+04</pdfrwt>
<totfact> 0.21705107E-01</totfact>
</mgrwt>
</event>
<event>
 4    1  0.1043382E-007  0.8593100E+03  0.7818608E-02  0.9594792E-01
          1   -1    0    0  501    0  0.00000000000E+00  0.00000000000E+00  0.69355707787E+03  0.69355707789E+03  0.50400000000E-02 0. -1.
         -1   -1    0    0    0  501 -0.00000000000E+00 -0.00000000000E+00 -0.86212554368E+03  0.86212554370E+03  0.50400000000E-02 0.  1.
    8880023    1    1    2    0    0 -0.25999112782E+03  0.48683478312E+03 -0.38738875481E+03  0.94259415775E+03  0.65864270000E+03 0.  1.
    8880022    1    1    2    0    0  0.25999112782E+03 -0.48683478312E+03  0.21882028900E+03  0.61308846384E+03  0.15294330000E+03 0.  0.
<mgrwt>
<rscale>  0 0.77641842E+03</rscale>
<asrwt>0</asrwt>
<pdfrwt beam="1">  1        1 0.10670109E+00 0.85931001E+03</pdfrwt>
<pdfrwt beam="2">  1       -1 0.13263470E+00 0.85931001E+03</pdfrwt>
<totfact> 0.13531534E+01</totfact>
</mgrwt>
</event>
<event>
 4    1  0.1043382E-007  0.6633850E+03  0.7818608E-02  0.1020929E+00
          1   -1    0    0  501    0  0.00000000000E+00  0.00000000000E+00  0.17364154105E+04  0.17364154105E+04  0.50400000000E-02 0. -1.
         -1   -1    0    0    0  501 -0.00000000000E+00 -0.00000000000E+00 -0.25551124074E+03  0.25551124079E+03  0.50400000000E-02 0.  1.
    8880023    1    1    2    0    0  0.65366331300E+02  0.44684366738E+02  0.19066123159E+03  0.69024007519E+03  0.65864270000E+03 0.  1.
    8880022    1    1    2    0    0 -0.65366331300E+02 -0.44684366738E+02  0.12902429381E+04  0.13016865761E+04  0.15294330000E+03 0.  0.
<mgrwt>
<rscale>  0 0.47353016E+03</rscale>
<asrwt>0</asrwt>
<pdfrwt beam="1">  1        1 0.26714082E+00 0.66338500E+03</pdfrwt>
<pdfrwt beam="2">  1       -1 0.39309423E-01 0.66338500E+03</pdfrwt>
<totfact> 0.29628398E+01</totfact>
</mgrwt>
</event>
<event>
 4    1  0.1043382E-007  0.9848335E+03  0.7818608E-02  0.9401675E-01
         -1   -1    0    0    0  501 -0.00000000000E+00  0.00000000000E+00  0.67576670999E+03  0.67576671001E+03  0.50400000000E-02 0.  1.
          1   -1    0    0  501    0  0.00000000000E+00 -0.00000000000E+00 -0.20102987679E+04  0.20102987679E+04  0.50400000000E-02 0. -1.
    8880023    1    1    2    0    0 -0.63058493846E+03 -0.37208803733E+03  0.17604416310E+03  0.10004442142E+04  0.65864270000E+03 0.  1.
    8880022    1    1    2    0    0  0.63058493846E+03  0.37208803733E+03 -0.15105762210E+04  0.16856212637E+04  0.15294330000E+03 0.  0.
<mgrwt>
<rscale>  0 0.91937999E+03</rscale>
<asrwt>0</asrwt>
<pdfrwt beam="1">  1        1 0.30927673E+00 0.98483353E+03</pdfrwt>
<pdfrwt beam="2">  1       -1 0.10396411E+00 0.98483353E+03</pdfrwt>
<totfact> 0.25891680E+00</totfact>
</mgrwt>
</event>
<event>
 4    1  0.1043382E-007  0.6614947E+03  0.7818608E-02  0.1022675E+00
          1   -1    0    0  501    0  0.00000000000E+00  0.00000000000E+00  0.22195545913E+04  0.22195545913E+04  0.50400000000E-02 0. -1.
         -1   -1    0    0    0  501 -0.00000000000E+00 -0.00000000000E+00 -0.11718987158E+03  0.11718987169E+03  0.50400000000E-02 0.  1.
    8880023    1    1    2    0    0 -0.60447429711E+02  0.10540104109E+02  0.86749481245E+03  0.10909273310E+04  0.65864270000E+03 0.  1.
    8880022    1    1    2    0    0  0.60447429711E+02 -0.10540104109E+02  0.12348699073E+04  0.12458171321E+04  0.15294330000E+03 0.  0.
<mgrwt>
<rscale>  0 0.46733603E+03</rscale>
<asrwt>0</asrwt>
<pdfrwt beam="1">  1        1 0.34146991E+00 0.66149466E+03</pdfrwt>
<pdfrwt beam="2">  1       -1 0.18029213E-01 0.66149466E+03</pdfrwt>
<totfact> 0.53848606E+01</totfact>
</mgrwt>
</event>
<event>
 4    1  0.1043382E-007  0.7828894E+03  0.7818608E-02  0.9749093E-01
         -1   -1    0    0    0  501 -0.00000000000E+00  0.00000000000E+00  0.21230091814E+03  0.21230091820E+03  0.50400000000E-02 0.  1.
          1   -1    0    0  501    0  0.00000000000E+00 -0.00000000000E+00 -0.23359749124E+04  0.23359749124E+04  0.50400000000E-02 0. -1.
    8880023    1    1    2    0    0 -0.11798173421E+03 -0.40643063696E+03 -0.68295135458E+03  0.10389120806E+04  0.65864270000E+03 0.  1.
    8880022    1    1    2    0    0  0.11798173421E+03  0.40643063696E+03 -0.14407226397E+04  0.15093637500E+04  0.15294330000E+03 0.  0.
<mgrwt>
<rscale>  0 0.68167548E+03</rscale>
<asrwt>0</asrwt>
<pdfrwt beam="1">  1        1 0.35938074E+00 0.78288937E+03</pdfrwt>
<pdfrwt beam="2">  1       -1 0.32661681E-01 0.78288937E+03</pdfrwt>
<totfact> 0.16087932E+01</totfact>
</mgrwt>
</event>
<event>
 4    1  0.1043382E-007  0.8569736E+03  0.7818608E-02  0.9598970E-01
         -1   -1    0    0    0  501 -0.00000000000E+00  0.00000000000E+00  0.25185115869E+03  0.25185115874E+03  0.50400000000E-02 0.  1.
          1   -1    0    0  501    0  0.00000000000E+00 -0.00000000000E+00 -0.26269907422E+04  0.26269907422E+04  0.50400000000E-02 0. -1.
    8880023    1    1    2    0    0 -0.57882754868E+02 -0.54520005422E+03 -0.69019007590E+03  0.11003481538E+04  0.65864270000E+03 0.  1.
    8880022    1    1    2    0    0  0.57882754868E+02  0.54520005422E+03 -0.16849495076E+04  0.17784937471E+04  0.15294330000E+03 0.  0.
<mgrwt>
<rscale>  0 0.77364410E+03</rscale>
<asrwt>0</asrwt>
<pdfrwt beam="1">  1        1 0.40415240E+00 0.85697358E+03</pdfrwt>
<pdfrwt beam="2">  1       -1 0.38746334E-01 0.85697358E+03</pdfrwt>
<totfact> 0.74160017E+00</totfact>
</mgrwt>
</event>
<event>
 4    1  0.1043382E-007  0.7305412E+03  0.7818608E-02  0.9888409E-01
          1   -1    0    0  501    0  0.00000000000E+00  0.00000000000E+00  0.29978939748E+03  0.29978939752E+03  0.50400000000E-02 0. -1.
         -1   -1    0    0    0  501 -0.00000000000E+00 -0.00000000000E+00 -0.15441520730E+04  0.15441520730E+04  0.50400000000E-02 0.  1.
    8880023    1    1    2    0    0 -0.12221493119E+03 -0.29145109109E+03 -0.12973205604E+04  0.14888690576E+04  0.65864270000E+03 0.  1.
    8880022    1    1    2    0    0  0.12221493119E+03  0.29145109109E+03  0.52957884823E+02  0.35507241301E+03  0.15294330000E+03 0.  0.
<mgrwt>
<rscale>  0 0.60826319E+03</rscale>
<asrwt>0</asrwt>
<pdfrwt beam="1">  1        1 0.46121447E-01 0.73054119E+03</pdfrwt>
<pdfrwt beam="2">  1       -1 0.23756185E+00 0.73054119E+03</pdfrwt>
<totfact> 0.76636843E+00</totfact>
</mgrwt>
</event>
<event>
 4    1  0.1119471E-007  0.6614346E+03  0.7818608E-02  0.1022733E+00
         -1   -1    0    0    0  501 -0.00000000000E+00  0.00000000000E+00  0.82255216224E+03  0.82255216226E+03  0.50400000000E-02 0.  1.
          1   -1    0    0  501    0  0.00000000000E+00 -0.00000000000E+00 -0.13537279756E+04  0.13537279756E+04  0.50400000000E-02 0. -1.
    8880023    1    1    2    0    0 -0.55945507774E+02 -0.23570680333E+02  0.68313078388E+03  0.95087504487E+03  0.65864270000E+03 0.  1.
    8880022    1    1    2    0    0  0.55945507774E+02  0.23570680333E+02 -0.12143065973E+04  0.12254050930E+04  0.15294330000E+03 0.  0.
<mgrwt>
<rscale>  0 0.46713294E+03</rscale>
<asrwt>0</asrwt>
<pdfrwt beam="1">  1        1 0.20826584E+00 0.66143456E+03</pdfrwt>
<pdfrwt beam="2">  1       -1 0.12654649E+00 0.66143456E+03</pdfrwt>
<totfact> 0.47503208E+00</totfact>
</mgrwt>
</event>
<event>
 4    1  0.1043382E-007  0.1061669E+04  0.7818608E-02  0.9304984E-01
          1   -1    0    0  501    0  0.00000000000E+00  0.00000000000E+00  0.21415396737E+04  0.21415396738E+04  0.50400000000E-02 0. -1.
         -1   -1    0    0    0  501 -0.00000000000E+00 -0.00000000000E+00 -0.43037998893E+03  0.43037998896E+03  0.50400000000E-02 0.  1.
    8880023    1    1    2    0    0  0.46763773201E+03 -0.68894478104E+03  0.80927565015E+03  0.13349409140E+04  0.65864270000E+03 0.  0.
    8880022    1    1    2    0    0 -0.46763773201E+03  0.68894478104E+03  0.90188403466E+03  0.12369787487E+04  0.15294330000E+03 0.  0.
<mgrwt>
<rscale>  0 0.10032532E+04</rscale>
<asrwt>0</asrwt>
<pdfrwt beam="1">  1        1 0.32946765E+00 0.10616686E+04</pdfrwt>
<pdfrwt beam="2">  1       -1 0.66212305E-01 0.10616686E+04</pdfrwt>
<totfact> 0.55506464E+00</totfact>
</mgrwt>
</event>
<event>
 4    1  0.1043382E-007  0.8343080E+03  0.7818608E-02  0.9641008E-01
          1   -1    0    0  501    0  0.00000000000E+00  0.00000000000E+00  0.25625564118E+04  0.25625564118E+04  0.50400000000E-02 0. -1.
         -1   -1    0    0    0  501 -0.00000000000E+00 -0.00000000000E+00 -0.20336919153E+03  0.20336919159E+03  0.50400000000E-02 0.  1.
    8880023    1    1    2    0    0 -0.23616401828E+03  0.45440744575E+03  0.98139313228E+03  0.12881002510E+04  0.65864270000E+03 0.  1.
    8880022    1    1    2    0    0  0.23616401828E+03 -0.45440744575E+03  0.13777940880E+04  0.14778253524E+04  0.15294330000E+03 0.  0.
<mgrwt>
<rscale>  0 0.74640459E+03</rscale>
<asrwt>0</asrwt>
<pdfrwt beam="1">  1        1 0.39423944E+00 0.83430796E+03</pdfrwt>
<pdfrwt beam="2">  1       -1 0.31287568E-01 0.83430796E+03</pdfrwt>
<totfact> 0.12070837E+01</totfact>
</mgrwt>
</event>
<event>
 4    1  0.1043382E-007  0.6607738E+03  0.7818608E-02  0.1023377E+00
         -1   -1    0    0    0  501 -0.00000000000E+00  0.00000000000E+00  0.16269507864E+03  0.16269507871E+03  0.50400000000E-02 0.  1.
          1   -1    0    0  501    0  0.00000000000E+00 -0.00000000000E+00 -0.19009617641E+04  0.19009617641E+04  0.50400000000E-02 0. -1.
    8880023    1    1    2    0    0  0.31185518711E+02 -0.42885990770E+02 -0.53680953415E+03  0.85134389467E+03  0.65864270000E+03 0.  1.
    8880022    1    1    2    0    0 -0.31185518711E+02  0.42885990770E+02 -0.12014571513E+04  0.12123129482E+04  0.15294330000E+03 0.  0.
<mgrwt>
<rscale>  0 0.46487296E+03</rscale>
<asrwt>0</asrwt>
<pdfrwt beam="1">  1        1 0.29245564E+00 0.66077375E+03</pdfrwt>
<pdfrwt beam="2">  1       -1 0.25030013E-01 0.66077375E+03</pdfrwt>
<totfact> 0.50743957E+01</totfact>
</mgrwt>
</event>
<event>
 4    1  0.1043382E-007  0.7528287E+03  0.7818608E-02  0.9824040E-01
          1   -1    0    0  501    0  0.00000000000E+00  0.00000000000E+00  0.60105452660E+03  0.60105452662E+03  0.50400000000E-02 0. -1.
         -1   -1    0    0    0  501 -0.00000000000E+00 -0.00000000000E+00 -0.90506873507E+03  0.90506873509E+03  0.50400000000E-02 0.  1.
    8880023    1    1    2    0    0 -0.29188748530E+03  0.21850069085E+03 -0.63934759329E+03  0.98768234129E+03  0.65864270000E+03 0.  0.
    8880022    1    1    2    0    0  0.29188748530E+03 -0.21850069085E+03  0.33533338482E+03  0.51844092042E+03  0.15294330000E+03 0.  0.
<mgrwt>
<rscale>  0 0.64088232E+03</rscale>
<asrwt>0</asrwt>
<pdfrwt beam="1">  1        1 0.92469927E-01 0.75282871E+03</pdfrwt>
<pdfrwt beam="2">  1       -1 0.13924134E+00 0.75282871E+03</pdfrwt>
<totfact> 0.14926123E+01</totfact>
</mgrwt>
</event>
<event>
 4    1  0.1043382E-007  0.6965150E+03  0.7818608E-02  0.1001198E+00
         -1   -1    0    0    0  501 -0.00000000000E+00  0.00000000000E+00  0.30647994942E+03  0.30647994947E+03  0.50400000000E-02 0.  1.
          1   -1    0    0  501    0  0.00000000000E+00 -0.00000000000E+00 -0.15819067583E+04  0.15819067583E+04  0.50400000000E-02 0. -1.
    8880023    1    1    2    0    0 -0.16618848664E+03 -0.15396220026E+03 -0.12715106526E+03  0.70802582712E+03  0.65864270000E+03 0.  1.
    8880022    1    1    2    0    0  0.16618848664E+03  0.15396220026E+03 -0.11482757436E+04  0.11803608806E+04  0.15294330000E+03 0.  0.
<mgrwt>
<rscale>  0 0.55128169E+03</rscale>
<asrwt>0</asrwt>
<pdfrwt beam="1">  1        1 0.24337027E+00 0.69651502E+03</pdfrwt>
<pdfrwt beam="2">  1       -1 0.47150762E-01 0.69651502E+03</pdfrwt>
<totfact> 0.26815593E+01</totfact>
</mgrwt>
</event>
<event>
 4    1  0.1043382E-007  0.7033037E+03  0.7818608E-02  0.9983763E-01
          1   -1    0    0  501    0  0.00000000000E+00  0.00000000000E+00  0.19219268054E+04  0.19219268054E+04  0.50400000000E-02 0. -1.
         -1   -1    0    0    0  501 -0.00000000000E+00 -0.00000000000E+00 -0.69265455733E+03  0.69265455735E+03  0.50400000000E-02 0.  1.
    8880023    1    1    2    0    0 -0.32774113207E+02  0.24444168667E+03 -0.49885293128E+03  0.86225885556E+03  0.65864270000E+03 0.  1.
    8880022    1    1    2    0    0  0.32774113207E+02 -0.24444168667E+03  0.17281251794E+04  0.17523225072E+04  0.15294330000E+03 0.  0.
<mgrwt>
<rscale>  0 0.56367982E+03</rscale>
<asrwt>0</asrwt>
<pdfrwt beam="1">  1        1 0.29568105E+00 0.70330369E+03</pdfrwt>
<pdfrwt beam="2">  1       -1 0.10656224E+00 0.70330369E+03</pdfrwt>
<totfact> 0.29374027E+00</totfact>
</mgrwt>
</event>
<event>
 4    1  0.1043382E-007  0.7727032E+03  0.7818608E-02  0.9773265E-01
         -1   -1    0    0    0  501 -0.00000000000E+00  0.00000000000E+00  0.93263281943E+03  0.93263281945E+03  0.50400000000E-02 0.  1.
          1   -1    0    0  501    0  0.00000000000E+00 -0.00000000000E+00 -0.80291896969E+03  0.80291896970E+03  0.50400000000E-02 0. -1.
    8880023    1    1    2    0    0 -0.37980622615E+03  0.13786685771E+03  0.68457151471E+03  0.10323315383E+04  0.65864270000E+03 0.  0.
    8880022    1    1    2    0    0  0.37980622615E+03 -0.13786685771E+03 -0.55485766496E+03  0.70322025089E+03  0.15294330000E+03 0.  0.
<mgrwt>
<rscale>  0 0.66817239E+03</rscale>
<asrwt>0</asrwt>
<pdfrwt beam="1">  1        1 0.12352600E+00 0.77270321E+03</pdfrwt>
<pdfrwt beam="2">  1       -1 0.14348197E+00 0.77270321E+03</pdfrwt>
<totfact> 0.88842912E+00</totfact>
</mgrwt>
</event>
<event>
 4    1  0.1043382E-007  0.6768974E+03  0.7818608E-02  0.1011136E+00
         -1   -1    0    0    0  501 -0.00000000000E+00  0.00000000000E+00  0.25011943795E+03  0.25011943800E+03  0.50400000000E-02 0.  1.
          1   -1    0    0  501    0  0.00000000000E+00 -0.00000000000E+00 -0.12207506298E+04  0.12207506298E+04  0.50400000000E-02 0. -1.
    8880023    1    1    2    0    0 -0.11306711093E+03  0.10768351443E+03 -0.25621117720E+03  0.72376397012E+03  0.65864270000E+03 0.  0.
    8880022    1    1    2    0    0  0.11306711093E+03 -0.10768351443E+03 -0.71442001469E+03  0.74710609772E+03  0.15294330000E+03 0.  0.
<mgrwt>
<rscale>  0 0.51025624E+03</rscale>
<asrwt>0</asrwt>
<pdfrwt beam="1">  1        1 0.18780779E+00 0.67689742E+03</pdfrwt>
<pdfrwt beam="2">  1       -1 0.38479914E-01 0.67689742E+03</pdfrwt>
<totfact> 0.69537168E+01</totfact>
</mgrwt>
</event>
<event>
 4    1  0.1043382E-007  0.9048948E+03  0.7818608E-02  0.9518219E-01
         -1   -1    0    0    0  501 -0.00000000000E+00  0.00000000000E+00  0.35762213227E+04  0.35762213227E+04  0.50400000000E-02 0.  1.
          1   -1    0    0  501    0  0.00000000000E+00 -0.00000000000E+00 -0.17949801444E+03  0.17949801451E+03  0.50400000000E-02 0. -1.
    8880023    1    1    2    0    0  0.21950486075E+03 -0.58038098856E+03  0.14742936284E+04  0.17298486595E+04  0.65864270000E+03 0.  0.
    8880022    1    1    2    0    0 -0.21950486075E+03  0.58038098856E+03  0.19224296799E+04  0.20258706777E+04  0.15294330000E+03 0.  0.
<mgrwt>
<rscale>  0 0.82953831E+03</rscale>
<asrwt>0</asrwt>
<pdfrwt beam="1">  1        1 0.27615080E-01 0.90489485E+03</pdfrwt>
<pdfrwt beam="2">  1       -1 0.55018788E+00 0.90489485E+03</pdfrwt>
<totfact> 0.13023002E-01</totfact>
</mgrwt>
</event>
<event>
 4    1  0.1043382E-007  0.8396933E+03  0.7818608E-02  0.9630759E-01
          1   -1    0    0  501    0  0.00000000000E+00  0.00000000000E+00  0.94576852879E+03  0.94576852880E+03  0.50400000000E-02 0. -1.
         -1   -1    0    0    0  501 -0.00000000000E+00 -0.00000000000E+00 -0.90202627508E+03  0.90202627510E+03  0.50400000000E-02 0.  1.
    8880023    1    1    2    0    0 -0.24884361044E+03  0.45754943834E+03  0.62929735445E+03  0.10493331204E+04  0.65864270000E+03 0. -1.
    8880022    1    1    2    0    0  0.24884361044E+03 -0.45754943834E+03 -0.58555510075E+03  0.79846168350E+03  0.15294330000E+03 0.  0.
<mgrwt>
<rscale>  0 0.75293385E+03</rscale>
<asrwt>0</asrwt>
<pdfrwt beam="1">  1        1 0.14550285E+00 0.83969330E+03</pdfrwt>
<pdfrwt beam="2">  1       -1 0.13877327E+00 0.83969330E+03</pdfrwt>
<totfact> 0.73173607E+00</totfact>
</mgrwt>
</event>
<event>
 4    1  0.1043382E-007  0.8564846E+03  0.7818608E-02  0.9599848E-01
         -1   -1    0    0    0  501 -0.00000000000E+00  0.00000000000E+00  0.23255608805E+04  0.23255608805E+04  0.50400000000E-02 0.  1.
          1   -1    0    0  501    0  0.00000000000E+00 -0.00000000000E+00 -0.61839261156E+03  0.61839261159E+03  0.50400000000E-02 0. -1.
    8880023    1    1    2    0    0  0.51795791579E+03 -0.17741261165E+03  0.20899425126E+04  0.22586335581E+04  0.65864270000E+03 0.  1.
    8880022    1    1    2    0    0 -0.51795791579E+03  0.17741261165E+03 -0.38277424370E+03  0.68531993401E+03  0.15294330000E+03 0.  0.
<mgrwt>
<rscale>  0 0.77306272E+03</rscale>
<asrwt>0</asrwt>
<pdfrwt beam="1">  1        1 0.95137326E-01 0.85648458E+03</pdfrwt>
<pdfrwt beam="2">  1       -1 0.35777859E+00 0.85648458E+03</pdfrwt>
<totfact> 0.47302264E-01</totfact>
</mgrwt>
</event>
<event>
 4    1  0.1043382E-007  0.8334141E+03  0.7818608E-02  0.9642726E-01
         -1   -1    0    0    0  501 -0.00000000000E+00  0.00000000000E+00  0.51498372810E+03  0.51498372812E+03  0.50400000000E-02 0.  1.
          1   -1    0    0  501    0  0.00000000000E+00 -0.00000000000E+00 -0.11878781047E+04  0.11878781047E+04  0.50400000000E-02 0. -1.
    8880023    1    1    2    0    0 -0.42668013771E+03  0.28055817529E+03  0.13822172484E+02  0.83352869678E+03  0.65864270000E+03 0.  1.
    8880022    1    1    2    0    0  0.42668013771E+03 -0.28055817529E+03 -0.68671654911E+03  0.86933313607E+03  0.15294330000E+03 0.  0.
<mgrwt>
<rscale>  0 0.74531710E+03</rscale>
<asrwt>0</asrwt>
<pdfrwt beam="1">  1        1 0.18275048E+00 0.83341408E+03</pdfrwt>
<pdfrwt beam="2">  1       -1 0.79228266E-01 0.83341408E+03</pdfrwt>
<totfact> 0.17736662E+01</totfact>
</mgrwt>
</event>
<event>
 4    1  0.1043382E-007  0.6807909E+03  0.7818608E-02  0.1008880E+00
         -1   -1    0    0    0  501 -0.00000000000E+00  0.00000000000E+00  0.22207270269E+03  0.22207270275E+03  0.50400000000E-02 0.  1.
          1   -1    0    0  501    0  0.00000000000E+00 -0.00000000000E+00 -0.11964516057E+04  0.11964516057E+04  0.50400000000E-02 0. -1.
    8880023    1    1    2    0    0 -0.99208081617E+02 -0.14079712184E+03 -0.37684739941E+03  0.77813253478E+03  0.65864270000E+03 0.  1.
    8880022    1    1    2    0    0  0.99208081617E+02  0.14079712184E+03 -0.59753150358E+03  0.64039177365E+03  0.15294330000E+03 0.  0.
<mgrwt>
<rscale>  0 0.51922297E+03</rscale>
<asrwt>0</asrwt>
<pdfrwt beam="1">  1        1 0.18406947E+00 0.68079092E+03</pdfrwt>
<pdfrwt beam="2">  1       -1 0.34165032E-01 0.68079092E+03</pdfrwt>
<totfact> 0.89508560E+01</totfact>
</mgrwt>
</event>
<event>
 4    1  0.1043382E-007  0.1132248E+04  0.7818608E-02  0.9225974E-01
         -1   -1    0    0    0  501 -0.00000000000E+00  0.00000000000E+00  0.19256630361E+04  0.19256630361E+04  0.50400000000E-02 0.  1.
          1   -1    0    0  501    0  0.00000000000E+00 -0.00000000000E+00 -0.96285914562E+03  0.96285914563E+03  0.50400000000E-02 0. -1.
    8880023    1    1    2    0    0  0.84633392196E+03  0.36317185269E+03  0.14466133151E+04  0.18370289034E+04  0.65864270000E+03 0.  0.
    8880022    1    1    2    0    0 -0.84633392196E+03 -0.36317185269E+03 -0.48380942466E+03  0.10514932784E+04  0.15294330000E+03 0.  0.
<mgrwt>
<rscale>  0 0.10789310E+04</rscale>
<asrwt>0</asrwt>
<pdfrwt beam="1">  1        1 0.14813218E+00 0.11322478E+04</pdfrwt>
<pdfrwt beam="2">  1       -1 0.29625585E+00 0.11322478E+04</pdfrwt>
<totfact> 0.56203397E-01</totfact>
</mgrwt>
</event>
<event>
 4    1  0.1043382E-007  0.9501924E+03  0.7818608E-02  0.9449837E-01
          1   -1    0    0  501    0  0.00000000000E+00  0.00000000000E+00  0.55929809342E+03  0.55929809345E+03  0.50400000000E-02 0. -1.
         -1   -1    0    0    0  501 -0.00000000000E+00 -0.00000000000E+00 -0.17969965582E+04  0.17969965582E+04  0.50400000000E-02 0.  1.
    8880023    1    1    2    0    0  0.60602161946E+02 -0.68218971855E+03 -0.13445978077E+04  0.16464534323E+04  0.65864270000E+03 0.  0.
    8880022    1    1    2    0    0 -0.60602161946E+02  0.68218971855E+03  0.10689934291E+03  0.70984121932E+03  0.15294330000E+03 0.  1.
<mgrwt>
<rscale>  0 0.88085337E+03</rscale>
<asrwt>0</asrwt>
<pdfrwt beam="1">  1        1 0.86045861E-01 0.95019242E+03</pdfrwt>
<pdfrwt beam="2">  1       -1 0.27646101E+00 0.95019242E+03</pdfrwt>
<totfact> 0.18090521E+00</totfact>
</mgrwt>
</event>
<event>
 4    1  0.1043382E-007  0.7030707E+03  0.7818608E-02  0.9984694E-01
          1   -1    0    0  501    0  0.00000000000E+00  0.00000000000E+00  0.16973769843E+04  0.16973769844E+04  0.50400000000E-02 0. -1.
         -1   -1    0    0    0  501 -0.00000000000E+00 -0.00000000000E+00 -0.44309555633E+03  0.44309555636E+03  0.50400000000E-02 0.  1.
    8880023    1    1    2    0    0  0.24294631124E+03 -0.38408650905E+02 -0.13961785538E+03  0.71679947434E+03  0.65864270000E+03 0.  1.
    8880022    1    1    2    0    0 -0.24294631124E+03  0.38408650905E+02  0.13938992834E+04  0.14236730664E+04  0.15294330000E+03 0.  0.
<mgrwt>
<rscale>  0 0.56326513E+03</rscale>
<asrwt>0</asrwt>
<pdfrwt beam="1">  1        1 0.26113492E+00 0.70307065E+03</pdfrwt>
<pdfrwt beam="2">  1       -1 0.68168547E-01 0.70307065E+03</pdfrwt>
<totfact> 0.10930861E+01</totfact>
</mgrwt>
</event>
<event>
 4    1  0.1043382E-007  0.6752555E+03  0.7818608E-02  0.1012146E+00
         -1   -1    0    0    0  501 -0.00000000000E+00  0.00000000000E+00  0.12231162478E+04  0.12231162478E+04  0.50400000000E-02 0.  1.
          1   -1    0    0  501    0  0.00000000000E+00 -0.00000000000E+00 -0.54841701624E+03  0.54841701626E+03  0.50400000000E-02 0. -1.
    8880023    1    1    2    0    0 -0.13372862603E+03  0.65394028951E+02  0.11028392192E+04  0.12931451095E+04  0.65864270000E+03 0.  1.
    8880022    1    1    2    0    0  0.13372862603E+03 -0.65394028951E+02 -0.42813998764E+03  0.47838815462E+03  0.15294330000E+03 0.  0.
<mgrwt>
<rscale>  0 0.50630681E+03</rscale>
<asrwt>0</asrwt>
<pdfrwt beam="1">  1        1 0.84371849E-01 0.67525546E+03</pdfrwt>
<pdfrwt beam="2">  1       -1 0.18817173E+00 0.67525546E+03</pdfrwt>
<totfact> 0.74019821E+00</totfact>
</mgrwt>
</event>
<event>
 4    1  0.1043382E-007  0.8735649E+03  0.7818608E-02  0.9569875E-01
         -1   -1    0    0    0  501 -0.00000000000E+00  0.00000000000E+00  0.11610031479E+04  0.11610031479E+04  0.50400000000E-02 0.  1.
          1   -1    0    0  501    0  0.00000000000E+00 -0.00000000000E+00 -0.75327161044E+03  0.75327161046E+03  0.50400000000E-02 0. -1.
    8880023    1    1    2    0    0 -0.52500476966E+03  0.23167948210E+03  0.81455654747E+03  0.11944111377E+04  0.65864270000E+03 0.  1.
    8880022    1    1    2    0    0  0.52500476966E+03 -0.23167948210E+03 -0.40682501000E+03  0.71986362067E+03  0.15294330000E+03 0.  0.
<mgrwt>
<rscale>  0 0.79322538E+03</rscale>
<asrwt>0</asrwt>
<pdfrwt beam="1">  1        1 0.11588794E+00 0.87356488E+03</pdfrwt>
<pdfrwt beam="2">  1       -1 0.17861587E+00 0.87356488E+03</pdfrwt>
<totfact> 0.52732220E+00</totfact>
</mgrwt>
</event>
<event>
 4    1  0.1043382E-007  0.7511224E+03  0.7818608E-02  0.9828658E-01
          1   -1    0    0  501    0  0.00000000000E+00  0.00000000000E+00  0.18556422472E+04  0.18556422472E+04  0.50400000000E-02 0. -1.
         -1   -1    0    0    0  501 -0.00000000000E+00 -0.00000000000E+00 -0.21818536691E+03  0.21818536697E+03  0.50400000000E-02 0.  1.
    8880023    1    1    2    0    0  0.29932564137E+03 -0.20193754933E+03  0.58924538166E+03  0.95467006839E+03  0.65864270000E+03 0.  0.
    8880022    1    1    2    0    0 -0.29932564137E+03  0.20193754933E+03  0.10482114986E+04  0.11191575457E+04  0.15294330000E+03 0.  0.
<mgrwt>
<rscale>  0 0.63847024E+03</rscale>
<asrwt>0</asrwt>
<pdfrwt beam="1">  1        1 0.28548342E+00 0.75112237E+03</pdfrwt>
<pdfrwt beam="2">  1       -1 0.33566980E-01 0.75112237E+03</pdfrwt>
<totfact> 0.32322911E+01</totfact>
</mgrwt>
</event>
<event>
 4    1  0.1043382E-007  0.7265061E+03  0.7818608E-02  0.9901156E-01
         -1   -1    0    0    0  501 -0.00000000000E+00  0.00000000000E+00  0.12334715972E+04  0.12334715972E+04  0.50400000000E-02 0.  1.
          1   -1    0    0  501    0  0.00000000000E+00 -0.00000000000E+00 -0.54474611562E+03  0.54474611564E+03  0.50400000000E-02 0. -1.
    8880023    1    1    2    0    0  0.28249276893E+03 -0.11915846561E+03  0.10522422639E+04  0.12786809190E+04  0.65864270000E+03 0.  1.
    8880022    1    1    2    0    0 -0.28249276893E+03  0.11915846561E+03 -0.36351678228E+03  0.49953679388E+03  0.15294330000E+03 0.  0.
<mgrwt>
<rscale>  0 0.60205271E+03</rscale>
<asrwt>0</asrwt>
<pdfrwt beam="1">  1        1 0.83807095E-01 0.72650610E+03</pdfrwt>
<pdfrwt beam="2">  1       -1 0.18976486E+00 0.72650610E+03</pdfrwt>
<totfact> 0.72293649E+00</totfact>
</mgrwt>
</event>
<event>
 4    1  0.1043382E-007  0.7115214E+03  0.7818608E-02  0.9952394E-01
          1   -1    0    0  501    0  0.00000000000E+00  0.00000000000E+00  0.12565269480E+04  0.12565269480E+04  0.50400000000E-02 0. -1.
         -1   -1    0    0    0  501 -0.00000000000E+00 -0.00000000000E+00 -0.35552533691E+03  0.35552533695E+03  0.50400000000E-02 0.  1.
    8880023    1    1    2    0    0  0.24534805865E+03 -0.11071034165E+03  0.57860347699E+02  0.71387006922E+03  0.65864270000E+03 0.  0.
    8880022    1    1    2    0    0 -0.24534805865E+03  0.11071034165E+03  0.84314126340E+03  0.89818221576E+03  0.15294330000E+03 0.  0.
<mgrwt>
<rscale>  0 0.57787863E+03</rscale>
<asrwt>0</asrwt>
<pdfrwt beam="1">  1        1 0.19331184E+00 0.71152137E+03</pdfrwt>
<pdfrwt beam="2">  1       -1 0.54696206E-01 0.71152137E+03</pdfrwt>
<totfact> 0.33921072E+01</totfact>
</mgrwt>
</event>
<event>
 4    1  0.1043382E-007  0.8547526E+03  0.7818608E-02  0.9602967E-01
          1   -1    0    0  501    0  0.00000000000E+00  0.00000000000E+00  0.66896761436E+03  0.66896761438E+03  0.50400000000E-02 0. -1.
         -1   -1    0    0    0  501 -0.00000000000E+00 -0.00000000000E+00 -0.84676641246E+03  0.84676641247E+03  0.50400000000E-02 0.  1.
    8880023    1    1    2    0    0 -0.39728202420E+03 -0.37277167931E+03  0.14093292792E+03  0.86629326910E+03  0.65864270000E+03 0. -1.
    8880022    1    1    2    0    0  0.39728202420E+03  0.37277167931E+03 -0.31873172601E+03  0.64944075775E+03  0.15294330000E+03 0.  0.
<mgrwt>
<rscale>  0 0.77100138E+03</rscale>
<asrwt>0</asrwt>
<pdfrwt beam="1">  1        1 0.10291809E+00 0.85475256E+03</pdfrwt>
<pdfrwt beam="2">  1       -1 0.13027176E+00 0.85475256E+03</pdfrwt>
<totfact> 0.14959138E+01</totfact>
</mgrwt>
</event>
<event>
 4    1  0.1043382E-007  0.6742180E+03  0.7818608E-02  0.1012804E+00
         -1   -1    0    0    0  501 -0.00000000000E+00  0.00000000000E+00  0.34698199794E+03  0.34698199798E+03  0.50400000000E-02 0.  1.
          1   -1    0    0  501    0  0.00000000000E+00 -0.00000000000E+00 -0.92577531088E+03  0.92577531089E+03  0.50400000000E-02 0. -1.
    8880023    1    1    2    0    0  0.10342970077E+03  0.10030972617E+03 -0.18623615547E+02  0.67447519560E+03  0.65864270000E+03 0.  1.
    8880022    1    1    2    0    0 -0.10342970077E+03 -0.10030972617E+03 -0.56016969739E+03  0.59828211326E+03  0.15294330000E+03 0.  0.
<mgrwt>
<rscale>  0 0.50375379E+03</rscale>
<asrwt>0</asrwt>
<pdfrwt beam="1">  1        1 0.14242697E+00 0.67421803E+03</pdfrwt>
<pdfrwt beam="2">  1       -1 0.53381846E-01 0.67421803E+03</pdfrwt>
<totfact> 0.63189262E+01</totfact>
</mgrwt>
</event>
<event>
 4    1  0.1043382E-007  0.7087480E+03  0.7818608E-02  0.9962680E-01
          1   -1    0    0  501    0  0.00000000000E+00  0.00000000000E+00  0.98222343465E+03  0.98222343466E+03  0.50400000000E-02 0. -1.
         -1   -1    0    0    0  501 -0.00000000000E+00 -0.00000000000E+00 -0.36543528925E+03  0.36543528929E+03  0.50400000000E-02 0.  1.
    8880023    1    1    2    0    0  0.24368001151E+03 -0.95569364047E+02  0.56980143537E+02  0.71103473500E+03  0.65864270000E+03 0.  0.
    8880022    1    1    2    0    0 -0.24368001151E+03  0.95569364047E+02  0.55980800186E+03  0.63662398895E+03  0.15294330000E+03 0.  0.
<mgrwt>
<rscale>  0 0.57317378E+03</rscale>
<asrwt>0</asrwt>
<pdfrwt beam="1">  1        1 0.15111130E+00 0.70874795E+03</pdfrwt>
<pdfrwt beam="2">  1       -1 0.56220814E-01 0.70874795E+03</pdfrwt>
<totfact> 0.51422735E+01</totfact>
</mgrwt>
</event>
<event>
 4    1  0.1043382E-007  0.9583426E+03  0.7818608E-02  0.9438211E-01
         -1   -1    0    0    0  501 -0.00000000000E+00  0.00000000000E+00  0.11830622085E+04  0.11830622085E+04  0.50400000000E-02 0.  1.
          1   -1    0    0  501    0  0.00000000000E+00 -0.00000000000E+00 -0.10506794774E+04  0.10506794774E+04  0.50400000000E-02 0. -1.
    8880023    1    1    2    0    0  0.19259014124E+03 -0.66896890392E+03  0.80662085421E+03  0.12526203597E+04  0.65864270000E+03 0.  1.
    8880022    1    1    2    0    0 -0.19259014124E+03  0.66896890392E+03 -0.67423812318E+03  0.98112132618E+03  0.15294330000E+03 0. -1.
<mgrwt>
<rscale>  0 0.88996674E+03</rscale>
<asrwt>0</asrwt>
<pdfrwt beam="1">  1        1 0.16164300E+00 0.95834261E+03</pdfrwt>
<pdfrwt beam="2">  1       -1 0.18200957E+00 0.95834261E+03</pdfrwt>
<totfact> 0.28077891E+00</totfact>
</mgrwt>
</event>
<event>
 4    1  0.1043382E-007  0.7689032E+03  0.7818608E-02  0.9782580E-01
         -1   -1    0    0    0  501 -0.00000000000E+00  0.00000000000E+00  0.14610352709E+04  0.14610352709E+04  0.50400000000E-02 0.  1.
          1   -1    0    0  501    0  0.00000000000E+00 -0.00000000000E+00 -0.59482723174E+03  0.59482723176E+03  0.50400000000E-02 0. -1.
    8880023    1    1    2    0    0  0.14794789435E+03  0.36812130192E+03  0.12601587381E+04  0.14762154734E+04  0.65864270000E+03 0.  0.
    8880022    1    1    2    0    0 -0.14794789435E+03 -0.36812130192E+03 -0.39395069893E+03  0.57964702930E+03  0.15294330000E+03 0.  0.
<mgrwt>
<rscale>  0 0.66305812E+03</rscale>
<asrwt>0</asrwt>
<pdfrwt beam="1">  1        1 0.91511881E-01 0.76890317E+03</pdfrwt>
<pdfrwt beam="2">  1       -1 0.22477466E+00 0.76890317E+03</pdfrwt>
<totfact> 0.36763326E+00</totfact>
</mgrwt>
</event>
<event>
 4    1  0.1043382E-007  0.7529662E+03  0.7818608E-02  0.9823670E-01
         -1   -1    0    0    0  501 -0.00000000000E+00  0.00000000000E+00  0.13607340688E+04  0.13607340688E+04  0.50400000000E-02 0.  1.
          1   -1    0    0  501    0  0.00000000000E+00 -0.00000000000E+00 -0.42425885074E+03  0.42425885077E+03  0.50400000000E-02 0. -1.
    8880023    1    1    2    0    0 -0.23949742704E+03  0.27529784934E+03  0.11194181616E+04  0.13490941962E+04  0.65864270000E+03 0.  1.
    8880022    1    1    2    0    0  0.23949742704E+03 -0.27529784934E+03 -0.18294294357E+03  0.43589872335E+03  0.15294330000E+03 0.  0.
<mgrwt>
<rscale>  0 0.64107618E+03</rscale>
<asrwt>0</asrwt>
<pdfrwt beam="1">  1        1 0.65270593E-01 0.75296622E+03</pdfrwt>
<pdfrwt beam="2">  1       -1 0.20934370E+00 0.75296622E+03</pdfrwt>
<totfact> 0.74426884E+00</totfact>
</mgrwt>
</event>
<event>
 4    1  0.1043382E-007  0.7972848E+03  0.7818608E-02  0.9716698E-01
         -1   -1    0    0    0  501 -0.00000000000E+00  0.00000000000E+00  0.47457720131E+03  0.47457720133E+03  0.50400000000E-02 0.  1.
          1   -1    0    0  501    0  0.00000000000E+00 -0.00000000000E+00 -0.21221486604E+04  0.21221486604E+04  0.50400000000E-02 0. -1.
    8880023    1    1    2    0    0 -0.43113299690E+03 -0.12640061815E+03  0.83620238317E+02  0.80165786206E+03  0.65864270000E+03 0.  0.
    8880022    1    1    2    0    0  0.43113299690E+03  0.12640061815E+03 -0.17311916974E+04  0.17950679997E+04  0.15294330000E+03 0. -1.
<mgrwt>
<rscale>  0 0.70031246E+03</rscale>
<asrwt>0</asrwt>
<pdfrwt beam="1">  1        1 0.32648440E+00 0.79728476E+03</pdfrwt>
<pdfrwt beam="2">  1       -1 0.73011878E-01 0.79728476E+03</pdfrwt>
<totfact> 0.48581060E+00</totfact>
</mgrwt>
</event>
<event>
 4    1  0.1043382E-007  0.7041966E+03  0.7818608E-02  0.9980218E-01
         -1   -1    0    0    0  501 -0.00000000000E+00  0.00000000000E+00  0.49139026479E+03  0.49139026481E+03  0.50400000000E-02 0.  1.
          1   -1    0    0  501    0  0.00000000000E+00 -0.00000000000E+00 -0.56282794121E+03  0.56282794123E+03  0.50400000000E-02 0. -1.
    8880023    1    1    2    0    0 -0.14914078838E+03 -0.19959886173E+03  0.10614444109E+03  0.71215133855E+03  0.65864270000E+03 0.  1.
    8880022    1    1    2    0    0  0.14914078838E+03  0.19959886173E+03 -0.17758211751E+03  0.34206686749E+03  0.15294330000E+03 0.  0.
<mgrwt>
<rscale>  0 0.56526217E+03</rscale>
<asrwt>0</asrwt>
<pdfrwt beam="1">  1        1 0.86588915E-01 0.70419662E+03</pdfrwt>
<pdfrwt beam="2">  1       -1 0.75598502E-01 0.70419662E+03</pdfrwt>
<totfact> 0.67590860E+01</totfact>
</mgrwt>
</event>
<event>
 4    1  0.1043382E-007  0.8558830E+03  0.7818608E-02  0.9600929E-01
          1   -1    0    0  501    0  0.00000000000E+00  0.00000000000E+00  0.86823365578E+03  0.86823365579E+03  0.50400000000E-02 0. -1.
         -1   -1    0    0    0  501 -0.00000000000E+00 -0.00000000000E+00 -0.84977989023E+03  0.84977989025E+03  0.50400000000E-02 0.  1.
    8880023    1    1    2    0    0 -0.52580465562E+03  0.14918105651E+03 -0.46359532603E+03  0.97337369806E+03  0.65864270000E+03 0.  0.
    8880022    1    1    2    0    0  0.52580465562E+03 -0.14918105651E+03  0.48204909157E+03  0.74463984798E+03  0.15294330000E+03 0.  0.
<mgrwt>
<rscale>  0 0.77234714E+03</rscale>
<asrwt>0</asrwt>
<pdfrwt beam="1">  1        1 0.13357441E+00 0.85588301E+03</pdfrwt>
<pdfrwt beam="2">  1       -1 0.13073537E+00 0.85588301E+03</pdfrwt>
<totfact> 0.98392197E+00</totfact>
</mgrwt>
</event>
<event>
 4    1  0.1043382E-007  0.1084874E+04  0.7818608E-02  0.9278087E-01
         -1   -1    0    0    0  501 -0.00000000000E+00  0.00000000000E+00  0.49797347598E+03  0.49797347601E+03  0.50400000000E-02 0.  1.
          1   -1    0    0  501    0  0.00000000000E+00 -0.00000000000E+00 -0.25304573370E+04  0.25304573370E+04  0.50400000000E-02 0. -1.
    8880023    1    1    2    0    0  0.10743958817E+03  0.85533513467E+03 -0.36421706237E+03  0.11443800647E+04  0.65864270000E+03 0.  0.
    8880022    1    1    2    0    0 -0.10743958817E+03 -0.85533513467E+03 -0.16682667987E+04  0.18840507483E+04  0.15294330000E+03 0.  0.
<mgrwt>
<rscale>  0 0.10282550E+04</rscale>
<asrwt>0</asrwt>
<pdfrwt beam="1">  1        1 0.38930112E+00 0.10848740E+04</pdfrwt>
<pdfrwt beam="2">  1       -1 0.76611306E-01 0.10848740E+04</pdfrwt>
<totfact> 0.22221662E+00</totfact>
</mgrwt>
</event>
<event>
 4    1  0.1043382E-007  0.7759660E+03  0.7818608E-02  0.9765400E-01
          1   -1    0    0  501    0  0.00000000000E+00  0.00000000000E+00  0.78207367505E+03  0.78207367507E+03  0.50400000000E-02 0. -1.
         -1   -1    0    0    0  501 -0.00000000000E+00 -0.00000000000E+00 -0.64731335618E+03  0.64731335620E+03  0.50400000000E-02 0.  1.
    8880023    1    1    2    0    0 -0.30299686130E+03  0.27659712364E+03 -0.28131044025E+03  0.82538405414E+03  0.65864270000E+03 0.  0.
    8880022    1    1    2    0    0  0.30299686130E+03 -0.27659712364E+03  0.41607075912E+03  0.60400297713E+03  0.15294330000E+03 0.  0.
<mgrwt>
<rscale>  0 0.67252918E+03</rscale>
<asrwt>0</asrwt>
<pdfrwt beam="1">  1        1 0.12031903E+00 0.77596603E+03</pdfrwt>
<pdfrwt beam="2">  1       -1 0.99586670E-01 0.77596603E+03</pdfrwt>
<totfact> 0.22586452E+01</totfact>
</mgrwt>
</event>
<event>
 4    1  0.1043382E-007  0.7736931E+03  0.7818608E-02  0.9770866E-01
         -1   -1    0    0    0  501 -0.00000000000E+00  0.00000000000E+00  0.10591475950E+04  0.10591475950E+04  0.50400000000E-02 0.  1.
          1   -1    0    0  501    0  0.00000000000E+00 -0.00000000000E+00 -0.51749233014E+03  0.51749233016E+03  0.50400000000E-02 0. -1.
    8880023    1    1    2    0    0 -0.13854778488E+03  0.38156947010E+03  0.76558799325E+03  0.10884511615E+04  0.65864270000E+03 0.  0.
    8880022    1    1    2    0    0  0.13854778488E+03 -0.38156947010E+03 -0.22393272836E+03  0.48818876375E+03  0.15294330000E+03 0.  0.
<mgrwt>
<rscale>  0 0.66949741E+03</rscale>
<asrwt>0</asrwt>
<pdfrwt beam="1">  1        1 0.79614206E-01 0.77369306E+03</pdfrwt>
<pdfrwt beam="2">  1       -1 0.16294578E+00 0.77369306E+03</pdfrwt>
<totfact> 0.12042005E+01</totfact>
</mgrwt>
</event>
<event>
 4    1  0.1043382E-007  0.7197107E+03  0.7818608E-02  0.9923566E-01
         -1   -1    0    0    0  501 -0.00000000000E+00  0.00000000000E+00  0.60310210186E+03  0.60310210188E+03  0.50400000000E-02 0.  1.
          1   -1    0    0  501    0  0.00000000000E+00 -0.00000000000E+00 -0.85480770974E+03  0.85480770975E+03  0.50400000000E-02 0. -1.
    8880023    1    1    2    0    0 -0.22251758230E+03  0.18616998495E+03  0.32872403052E+03  0.79122881155E+03  0.65864270000E+03 0.  0.
    8880022    1    1    2    0    0  0.22251758230E+03 -0.18616998495E+03 -0.58042963840E+03  0.66668100008E+03  0.15294330000E+03 0.  0.
<mgrwt>
<rscale>  0 0.59132652E+03</rscale>
<asrwt>0</asrwt>
<pdfrwt beam="1">  1        1 0.13150888E+00 0.71971074E+03</pdfrwt>
<pdfrwt beam="2">  1       -1 0.92784938E-01 0.71971074E+03</pdfrwt>
<totfact> 0.23089344E+01</totfact>
</mgrwt>
</event>
<event>
 4    1  0.1043382E-007  0.6695496E+03  0.7818608E-02  0.1015988E+00
         -1   -1    0    0    0  501 -0.00000000000E+00  0.00000000000E+00  0.44216802700E+03  0.44216802703E+03  0.50400000000E-02 0.  1.
          1   -1    0    0  501    0  0.00000000000E+00 -0.00000000000E+00 -0.79460086354E+03  0.79460086356E+03  0.50400000000E-02 0. -1.
    8880023    1    1    2    0    0 -0.11771519877E+03 -0.25091121033E+02  0.16018849194E+03  0.68844534394E+03  0.65864270000E+03 0.  1.
    8880022    1    1    2    0    0  0.11771519877E+03  0.25091121033E+02 -0.51262132848E+03  0.54832354665E+03  0.15294330000E+03 0.  0.
<mgrwt>
<rscale>  0 0.49162681E+03</rscale>
<asrwt>0</asrwt>
<pdfrwt beam="1">  1        1 0.12224629E+00 0.66954958E+03</pdfrwt>
<pdfrwt beam="2">  1       -1 0.68025850E-01 0.66954958E+03</pdfrwt>
<totfact> 0.50413218E+01</totfact>
</mgrwt>
</event>
<event>
 4    1  0.1043382E-007  0.8494095E+03  0.7818608E-02  0.9612687E-01
         -1   -1    0    0    0  501 -0.00000000000E+00  0.00000000000E+00  0.69011395862E+03  0.69011395864E+03  0.50400000000E-02 0.  1.
          1   -1    0    0  501    0  0.00000000000E+00 -0.00000000000E+00 -0.14328321106E+04  0.14328321106E+04  0.50400000000E-02 0. -1.
    8880023    1    1    2    0    0 -0.14569269619E+03 -0.51619754394E+03  0.33210708095E+03  0.91202608821E+03  0.65864270000E+03 0.  0.
    8880022    1    1    2    0    0  0.14569269619E+03  0.51619754394E+03 -0.10748252329E+04  0.12109199810E+04  0.15294330000E+03 0.  0.
<mgrwt>
<rscale>  0 0.76462145E+03</rscale>
<asrwt>0</asrwt>
<pdfrwt beam="1">  1        1 0.22043571E+00 0.84940948E+03</pdfrwt>
<pdfrwt beam="2">  1       -1 0.10617138E+00 0.84940948E+03</pdfrwt>
<totfact> 0.61926431E+00</totfact>
</mgrwt>
</event>
<event>
 4    1  0.1264871E-007  0.6852601E+03  0.7818608E-02  0.1006492E+00
         -1   -1    0    0    0  501 -0.00000000000E+00  0.00000000000E+00  0.62826036742E+03  0.62826036744E+03  0.50400000000E-02 0.  1.
          1   -1    0    0  501    0  0.00000000000E+00 -0.00000000000E+00 -0.17304239734E+04  0.17304239734E+04  0.50400000000E-02 0. -1.
    8880023    1    1    2    0    0  0.17762391093E+03  0.64968438484E+02  0.42890278131E+03  0.80841756154E+03  0.65864270000E+03 0.  1.
    8880022    1    1    2    0    0 -0.17762391093E+03 -0.64968438484E+02 -0.15310663873E+04  0.15502667793E+04  0.15294330000E+03 0.  0.
<mgrwt>
<rscale>  0 0.52892934E+03</rscale>
<asrwt>0</asrwt>
<pdfrwt beam="1">  1        1 0.26621907E+00 0.68526007E+03</pdfrwt>
<pdfrwt beam="2">  1       -1 0.96655442E-01 0.68526007E+03</pdfrwt>
<totfact> 0.49492075E+00</totfact>
</mgrwt>
</event>
<event>
 4    1  0.1043382E-007  0.9595481E+03  0.7818608E-02  0.9436508E-01
          1   -1    0    0  501    0  0.00000000000E+00  0.00000000000E+00  0.20459856755E+04  0.20459856755E+04  0.50400000000E-02 0. -1.
         -1   -1    0    0    0  501 -0.00000000000E+00 -0.00000000000E+00 -0.59957006795E+03  0.59957006797E+03  0.50400000000E-02 0.  1.
    8880023    1    1    2    0    0  0.43400888565E+02  0.69644719121E+03 -0.77338016043E+02  0.96265970221E+03  0.65864270000E+03 0.  0.
    8880022    1    1    2    0    0 -0.43400888565E+02 -0.69644719121E+03  0.15237536236E+04  0.16828960412E+04  0.15294330000E+03 0.  0.
<mgrwt>
<rscale>  0 0.89131198E+03</rscale>
<asrwt>0</asrwt>
<pdfrwt beam="1">  1        1 0.31476703E+00 0.95954809E+03</pdfrwt>
<pdfrwt beam="2">  1       -1 0.92241548E-01 0.95954809E+03</pdfrwt>
<totfact> 0.32277741E+00</totfact>
</mgrwt>
</event>
<event>
 4    1  0.1043382E-007  0.6982341E+03  0.7818608E-02  0.1000461E+00
          1   -1    0    0  501    0  0.00000000000E+00  0.00000000000E+00  0.18947207437E+04  0.18947207437E+04  0.50400000000E-02 0. -1.
         -1   -1    0    0    0  501 -0.00000000000E+00 -0.00000000000E+00 -0.26936627233E+03  0.26936627237E+03  0.50400000000E-02 0.  1.
    8880023    1    1    2    0    0  0.12554512320E+03 -0.19483084421E+03  0.22075424674E+03  0.73229999285E+03  0.65864270000E+03 0.  1.
    8880022    1    1    2    0    0 -0.12554512320E+03  0.19483084421E+03  0.14046002246E+04  0.14317870232E+04  0.15294330000E+03 0.  0.
<mgrwt>
<rscale>  0 0.55448683E+03</rscale>
<asrwt>0</asrwt>
<pdfrwt beam="1">  1        1 0.29149551E+00 0.69823409E+03</pdfrwt>
<pdfrwt beam="2">  1       -1 0.41440964E-01 0.69823409E+03</pdfrwt>
<totfact> 0.20989239E+01</totfact>
</mgrwt>
</event>
<event>
 4    1  0.1043382E-007  0.8106310E+03  0.7818608E-02  0.9688264E-01
          1   -1    0    0  501    0  0.00000000000E+00  0.00000000000E+00  0.89760601746E+03  0.89760601747E+03  0.50400000000E-02 0. -1.
         -1   -1    0    0    0  501 -0.00000000000E+00 -0.00000000000E+00 -0.56689190273E+03  0.56689190275E+03  0.50400000000E-02 0.  1.
    8880023    1    1    2    0    0 -0.41714679435E+03  0.22203805331E+03 -0.87294309781E+02  0.81531763622E+03  0.65864270000E+03 0.  1.
    8880022    1    1    2    0    0  0.41714679435E+03 -0.22203805331E+03  0.41800842451E+03  0.64918028400E+03  0.15294330000E+03 0. -1.
<mgrwt>
<rscale>  0 0.71719857E+03</rscale>
<asrwt>0</asrwt>
<pdfrwt beam="1">  1        1 0.13809323E+00 0.81063096E+03</pdfrwt>
<pdfrwt beam="2">  1       -1 0.87214139E-01 0.81063096E+03</pdfrwt>
<totfact> 0.24147724E+01</totfact>
</mgrwt>
</event>
<event>
 4    1  0.1043382E-007  0.1230140E+04  0.7818608E-02  0.9128366E-01
         -1   -1    0    0    0  501 -0.00000000000E+00  0.00000000000E+00  0.18272371091E+04  0.18272371091E+04  0.50400000000E-02 0.  1.
          1   -1    0    0  501    0  0.00000000000E+00 -0.00000000000E+00 -0.90698400388E+03  0.90698400389E+03  0.50400000000E-02 0. -1.
    8880023    1    1    2    0    0 -0.39739854920E+03  0.95995279077E+03 -0.14464611766E+03  0.12386152240E+04  0.65864270000E+03 0.  0.
    8880022    1    1    2    0    0  0.39739854920E+03 -0.95995279077E+03  0.10648992229E+04  0.14956058891E+04  0.15294330000E+03 0.  0.
<mgrwt>
<rscale>  0 0.11824408E+04</rscale>
<asrwt>0</asrwt>
<pdfrwt beam="1">  1        1 0.13953600E+00 0.12301403E+04</pdfrwt>
<pdfrwt beam="2">  1       -1 0.28111340E+00 0.12301403E+04</pdfrwt>
<totfact> 0.77120355E-01</totfact>
</mgrwt>
</event>
<event>
 4    1  0.1043382E-007  0.8577669E+03  0.7818608E-02  0.9597548E-01
          1   -1    0    0  501    0  0.00000000000E+00  0.00000000000E+00  0.81027846658E+03  0.81027846660E+03  0.50400000000E-02 0. -1.
         -1   -1    0    0    0  501 -0.00000000000E+00 -0.00000000000E+00 -0.12111578799E+04  0.12111578799E+04  0.50400000000E-02 0.  1.
    8880023    1    1    2    0    0  0.22865188351E+03  0.49967203682E+03 -0.91453601910E+03  0.12538501365E+04  0.65864270000E+03 0.  1.
    8880022    1    1    2    0    0 -0.22865188351E+03 -0.49967203682E+03  0.51365660577E+03  0.76758621006E+03  0.15294330000E+03 0.  0.
<mgrwt>
<rscale>  0 0.77458674E+03</rscale>
<asrwt>0</asrwt>
<pdfrwt beam="1">  1        1 0.12465823E+00 0.85776689E+03</pdfrwt>
<pdfrwt beam="2">  1       -1 0.18633198E+00 0.85776689E+03</pdfrwt>
<totfact> 0.41481701E+00</totfact>
</mgrwt>
</event>
<event>
 4    1  0.1043382E-007  0.9736100E+03  0.7818608E-02  0.9416929E-01
          1   -1    0    0  501    0  0.00000000000E+00  0.00000000000E+00  0.17713296436E+04  0.17713296436E+04  0.50400000000E-02 0. -1.
         -1   -1    0    0    0  501 -0.00000000000E+00 -0.00000000000E+00 -0.61848660036E+03  0.61848660038E+03  0.50400000000E-02 0.  1.
    8880023    1    1    2    0    0 -0.30013943888E+03 -0.65117006148E+03 -0.56885148450E+02  0.97527035129E+03  0.65864270000E+03 0.  0.
    8880022    1    1    2    0    0  0.30013943888E+03  0.65117006148E+03  0.12097281917E+04  0.14145458927E+04  0.15294330000E+03 0.  0.
<mgrwt>
<rscale>  0 0.90695521E+03</rscale>
<asrwt>0</asrwt>
<pdfrwt beam="1">  1        1 0.27251225E+00 0.97360995E+03</pdfrwt>
<pdfrwt beam="2">  1       -1 0.95151784E-01 0.97360995E+03</pdfrwt>
<totfact> 0.46002615E+00</totfact>
</mgrwt>
</event>
<event>
 4    1  0.1043382E-007  0.7484874E+03  0.7818608E-02  0.9835880E-01
          1   -1    0    0  501    0  0.00000000000E+00  0.00000000000E+00  0.22181191156E+03  0.22181191162E+03  0.50400000000E-02 0. -1.
         -1   -1    0    0    0  501 -0.00000000000E+00 -0.00000000000E+00 -0.14876678280E+04  0.14876678280E+04  0.50400000000E-02 0.  1.
    8880023    1    1    2    0    0  0.34059234900E+03  0.10207826633E+03 -0.95299026819E+03  0.12117853680E+04  0.65864270000E+03 0.  0.
    8880022    1    1    2    0    0 -0.34059234900E+03 -0.10207826633E+03 -0.31286564827E+03  0.49769437162E+03  0.15294330000E+03 0.  1.
<mgrwt>
<rscale>  0 0.63472073E+03</rscale>
<asrwt>0</asrwt>
<pdfrwt beam="1">  1        1 0.34124910E-01 0.74848736E+03</pdfrwt>
<pdfrwt beam="2">  1       -1 0.22887197E+00 0.74848736E+03</pdfrwt>
<totfact> 0.12872574E+01</totfact>
</mgrwt>
</event>
<event>
 4    1  0.1043382E-007  0.6705630E+03  0.7818608E-02  0.1015262E+00
          1   -1    0    0  501    0  0.00000000000E+00  0.00000000000E+00  0.28925712378E+04  0.28925712378E+04  0.50400000000E-02 0. -1.
         -1   -1    0    0    0  501 -0.00000000000E+00 -0.00000000000E+00 -0.91788976955E+02  0.91788977093E+02  0.50400000000E-02 0.  1.
    8880023    1    1    2    0    0 -0.10383379901E+03 -0.71155190632E+02  0.12280253000E+04  0.13991786386E+04  0.65864270000E+03 0.  1.
    8880022    1    1    2    0    0  0.10383379901E+03  0.71155190632E+02  0.15727569608E+04  0.15851815763E+04  0.15294330000E+03 0.  0.
<mgrwt>
<rscale>  0 0.49435680E+03</rscale>
<asrwt>0</asrwt>
<pdfrwt beam="1">  1        1 0.44501094E+00 0.67056299E+03</pdfrwt>
<pdfrwt beam="2">  1       -1 0.14121382E-01 0.67056299E+03</pdfrwt>
<totfact> 0.27704736E+01</totfact>
</mgrwt>
</event>
<event>
 4    1  0.1043382E-007  0.7568162E+03  0.7818608E-02  0.9813421E-01
          1   -1    0    0  501    0  0.00000000000E+00  0.00000000000E+00  0.83213168083E+03  0.83213168084E+03  0.50400000000E-02 0. -1.
         -1   -1    0    0    0  501 -0.00000000000E+00 -0.00000000000E+00 -0.17696541140E+04  0.17696541140E+04  0.50400000000E-02 0.  1.
    8880023    1    1    2    0    0 -0.17594160695E+03 -0.32864121471E+03 -0.16319669155E+04  0.17989126484E+04  0.65864270000E+03 0.  1.
    8880022    1    1    2    0    0  0.17594160695E+03  0.32864121471E+03  0.69444448238E+03  0.80287314638E+03  0.15294330000E+03 0.  0.
<mgrwt>
<rscale>  0 0.64647250E+03</rscale>
<asrwt>0</asrwt>
<pdfrwt beam="1">  1        1 0.12802026E+00 0.75681616E+03</pdfrwt>
<pdfrwt beam="2">  1       -1 0.27225448E+00 0.75681616E+03</pdfrwt>
<totfact> 0.10896487E+00</totfact>
</mgrwt>
</event>
<event>
 4    1  0.1043382E-007  0.6655543E+03  0.7818608E-02  0.1019073E+00
          1   -1    0    0  501    0  0.00000000000E+00  0.00000000000E+00  0.29186987827E+04  0.29186987827E+04  0.50400000000E-02 0. -1.
         -1   -1    0    0    0  501 -0.00000000000E+00 -0.00000000000E+00 -0.99001754757E+02  0.99001754886E+02  0.50400000000E-02 0.  1.
    8880023    1    1    2    0    0  0.63431354044E+02  0.71615694209E+02  0.10795213947E+04  0.12681991138E+04  0.65864270000E+03 0.  1.
    8880022    1    1    2    0    0 -0.63431354044E+02 -0.71615694209E+02  0.17401756333E+04  0.17495014238E+04  0.15294330000E+03 0.  0.
<mgrwt>
<rscale>  0 0.48022691E+03</rscale>
<asrwt>0</asrwt>
<pdfrwt beam="1">  1        1 0.44903054E+00 0.66555432E+03</pdfrwt>
<pdfrwt beam="2">  1       -1 0.15231041E-01 0.66555432E+03</pdfrwt>
<totfact> 0.23506470E+01</totfact>
</mgrwt>
</event>
<event>
 4    1  0.1043382E-007  0.8613241E+03  0.7818608E-02  0.9591213E-01
         -1   -1    0    0    0  501 -0.00000000000E+00  0.00000000000E+00  0.49777460100E+03  0.49777460102E+03  0.50400000000E-02 0.  1.
          1   -1    0    0  501    0  0.00000000000E+00 -0.00000000000E+00 -0.21777873143E+04  0.21777873143E+04  0.50400000000E-02 0. -1.
    8880023    1    1    2    0    0  0.30902986881E+03  0.46105256297E+03  0.39497389864E+02  0.86222918978E+03  0.65864270000E+03 0.  1.
    8880022    1    1    2    0    0 -0.30902986881E+03 -0.46105256297E+03 -0.17195101032E+04  0.18133327256E+04  0.15294330000E+03 0.  0.
<mgrwt>
<rscale>  0 0.77880534E+03</rscale>
<asrwt>0</asrwt>
<pdfrwt beam="1">  1        1 0.33504420E+00 0.86132406E+03</pdfrwt>
<pdfrwt beam="2">  1       -1 0.76580709E-01 0.86132406E+03</pdfrwt>
<totfact> 0.39931163E+00</totfact>
</mgrwt>
</event>
<event>
 4    1  0.1043382E-007  0.6751979E+03  0.7818608E-02  0.1012182E+00
          1   -1    0    0  501    0  0.00000000000E+00  0.00000000000E+00  0.19745473079E+04  0.19745473079E+04  0.50400000000E-02 0. -1.
         -1   -1    0    0    0  501 -0.00000000000E+00 -0.00000000000E+00 -0.26083314175E+03  0.26083314180E+03  0.50400000000E-02 0.  1.
    8880023    1    1    2    0    0 -0.55329228592E+02  0.13791568454E+03  0.19643881230E+03  0.70319305516E+03  0.65864270000E+03 0.  1.
    8880022    1    1    2    0    0  0.55329228592E+02 -0.13791568454E+03  0.15172753538E+04  0.15321873945E+04  0.15294330000E+03 0.  0.
<mgrwt>
<rscale>  0 0.50616649E+03</rscale>
<asrwt>0</asrwt>
<pdfrwt beam="1">  1        1 0.30377652E+00 0.67519795E+03</pdfrwt>
<pdfrwt beam="2">  1       -1 0.40128174E-01 0.67519795E+03</pdfrwt>
<totfact> 0.19759531E+01</totfact>
</mgrwt>
</event>
<event>
 4    1  0.1043382E-007  0.8279630E+03  0.7818608E-02  0.9653309E-01
         -1   -1    0    0    0  501 -0.00000000000E+00  0.00000000000E+00  0.13292683315E+04  0.13292683315E+04  0.50400000000E-02 0.  1.
          1   -1    0    0  501    0  0.00000000000E+00 -0.00000000000E+00 -0.67821839591E+03  0.67821839593E+03  0.50400000000E-02 0. -1.
    8880023    1    1    2    0    0  0.44669729228E+03 -0.22841658060E+03  0.10581171468E+04  0.13435530164E+04  0.65864270000E+03 0.  1.
    8880022    1    1    2    0    0 -0.44669729228E+03  0.22841658060E+03 -0.40706721120E+03  0.66393371106E+03  0.15294330000E+03 0.  0.
<mgrwt>
<rscale>  0 0.73866136E+03</rscale>
<asrwt>0</asrwt>
<pdfrwt beam="1">  1        1 0.10434129E+00 0.82796305E+03</pdfrwt>
<pdfrwt beam="2">  1       -1 0.20450282E+00 0.82796305E+03</pdfrwt>
<totfact> 0.41100500E+00</totfact>
</mgrwt>
</event>
<event>
 4    1  0.1043382E-007  0.8083509E+03  0.7818608E-02  0.9693022E-01
          1   -1    0    0  501    0  0.00000000000E+00  0.00000000000E+00  0.22264454738E+03  0.22264454744E+03  0.50400000000E-02 0. -1.
         -1   -1    0    0    0  501 -0.00000000000E+00 -0.00000000000E+00 -0.21721276680E+04  0.21721276680E+04  0.50400000000E-02 0.  1.
    8880023    1    1    2    0    0 -0.31149681052E+03  0.35012967354E+03 -0.15931964386E+04  0.17865346763E+04  0.65864270000E+03 0.  0.
    8880022    1    1    2    0    0  0.31149681052E+03 -0.35012967354E+03 -0.35628668198E+03  0.60823753915E+03  0.15294330000E+03 0.  1.
<mgrwt>
<rscale>  0 0.71433773E+03</rscale>
<asrwt>0</asrwt>
<pdfrwt beam="1">  1        1 0.34253009E-01 0.80835095E+03</pdfrwt>
<pdfrwt beam="2">  1       -1 0.33417347E+00 0.80835095E+03</pdfrwt>
<totfact> 0.26693061E+00</totfact>
</mgrwt>
</event>
<event>
 4    1  0.1043382E-007  0.7300050E+03  0.7818608E-02  0.9890081E-01
         -1   -1    0    0    0  501 -0.00000000000E+00  0.00000000000E+00  0.71794757014E+03  0.71794757015E+03  0.50400000000E-02 0.  1.
          1   -1    0    0  501    0  0.00000000000E+00 -0.00000000000E+00 -0.75859893593E+03  0.75859893594E+03  0.50400000000E-02 0. -1.
    8880023    1    1    2    0    0  0.19177427448E+02 -0.31421225189E+03  0.46210155355E+03  0.86397058111E+03  0.65864270000E+03 0.  1.
    8880022    1    1    2    0    0 -0.19177427448E+02  0.31421225189E+03 -0.50275291934E+03  0.61257592499E+03  0.15294330000E+03 0.  0.
<mgrwt>
<rscale>  0 0.60744423E+03</rscale>
<asrwt>0</asrwt>
<pdfrwt beam="1">  1        1 0.11670753E+00 0.73000501E+03</pdfrwt>
<pdfrwt beam="2">  1       -1 0.11045347E+00 0.73000501E+03</pdfrwt>
<totfact> 0.18728932E+01</totfact>
</mgrwt>
</event>
<event>
 4    1  0.1043382E-007  0.7030372E+03  0.7818608E-02  0.9984827E-01
          1   -1    0    0  501    0  0.00000000000E+00  0.00000000000E+00  0.14621625270E+04  0.14621625270E+04  0.50400000000E-02 0. -1.
         -1   -1    0    0    0  501 -0.00000000000E+00 -0.00000000000E+00 -0.29007026484E+03  0.29007026488E+03  0.50400000000E-02 0.  1.
    8880023    1    1    2    0    0 -0.53072529730E+02  0.24007170253E+03  0.18987824122E+03  0.72822734673E+03  0.65864270000E+03 0.  1.
    8880022    1    1    2    0    0  0.53072529730E+02 -0.24007170253E+03  0.98221402096E+03  0.10240054452E+04  0.15294330000E+03 0.  0.
<mgrwt>
<rscale>  0 0.56320556E+03</rscale>
<asrwt>0</asrwt>
<pdfrwt beam="1">  1        1 0.22494808E+00 0.70303721E+03</pdfrwt>
<pdfrwt beam="2">  1       -1 0.44626194E-01 0.70303721E+03</pdfrwt>
<totfact> 0.35821642E+01</totfact>
</mgrwt>
</event>
<event>
 4    1  0.1043382E-007  0.1014249E+04  0.7818608E-02  0.9363149E-01
         -1   -1    0    0    0  501 -0.00000000000E+00  0.00000000000E+00  0.11194210976E+04  0.11194210976E+04  0.50400000000E-02 0.  1.
          1   -1    0    0  501    0  0.00000000000E+00 -0.00000000000E+00 -0.15594244715E+04  0.15594244715E+04  0.50400000000E-02 0. -1.
    8880023    1    1    2    0    0 -0.31809107978E+03  0.70264373569E+03  0.74375952848E+03  0.12577275527E+04  0.65864270000E+03 0.  1.
    8880022    1    1    2    0    0  0.31809107978E+03 -0.70264373569E+03 -0.11837629024E+04  0.14211180163E+04  0.15294330000E+03 0.  1.
<mgrwt>
<rscale>  0 0.95171441E+03</rscale>
<asrwt>0</asrwt>
<pdfrwt beam="1">  1        1 0.23991146E+00 0.10142487E+04</pdfrwt>
<pdfrwt beam="2">  1       -1 0.17221863E+00 0.10142487E+04</pdfrwt>
<totfact> 0.14167290E+00</totfact>
</mgrwt>
</event>
<event>
 4    1  0.1043382E-007  0.7190190E+03  0.7818608E-02  0.9925919E-01
         -1   -1    0    0    0  501 -0.00000000000E+00  0.00000000000E+00  0.61091141356E+03  0.61091141358E+03  0.50400000000E-02 0.  1.
          1   -1    0    0  501    0  0.00000000000E+00 -0.00000000000E+00 -0.13452216158E+04  0.13452216158E+04  0.50400000000E-02 0. -1.
    8880023    1    1    2    0    0 -0.18756648121E+03  0.21908197254E+03  0.36713644309E+03  0.80732736215E+03  0.65864270000E+03 0.  1.
    8880022    1    1    2    0    0  0.18756648121E+03 -0.21908197254E+03 -0.11014466454E+04  0.11488056673E+04  0.15294330000E+03 0.  0.
<mgrwt>
<rscale>  0 0.59021401E+03</rscale>
<asrwt>0</asrwt>
<pdfrwt beam="1">  1        1 0.20695717E+00 0.71901899E+03</pdfrwt>
<pdfrwt beam="2">  1       -1 0.93986372E-01 0.71901899E+03</pdfrwt>
<totfact> 0.95938204E+00</totfact>
</mgrwt>
</event>
<event>
 4    1  0.1043382E-007  0.1022814E+04  0.7818608E-02  0.9352300E-01
         -1   -1    0    0    0  501 -0.00000000000E+00  0.00000000000E+00  0.15170499677E+04  0.15170499677E+04  0.50400000000E-02 0.  1.
          1   -1    0    0  501    0  0.00000000000E+00 -0.00000000000E+00 -0.70464980383E+03  0.70464980385E+03  0.50400000000E-02 0. -1.
    8880023    1    1    2    0    0 -0.74627470794E+03 -0.23539750722E+03  0.96922843454E+03  0.14090961254E+04  0.65864270000E+03 0.  0.
    8880022    1    1    2    0    0  0.74627470794E+03  0.23539750722E+03 -0.15682827071E+03  0.81260364608E+03  0.15294330000E+03 0.  0.
<mgrwt>
<rscale>  0 0.96107327E+03</rscale>
<asrwt>0</asrwt>
<pdfrwt beam="1">  1        1 0.10840766E+00 0.10228138E+04</pdfrwt>
<pdfrwt beam="2">  1       -1 0.23339230E+00 0.10228138E+04</pdfrwt>
<totfact> 0.24263056E+00</totfact>
</mgrwt>
</event>
<event>
 4    1  0.1043382E-007  0.9221226E+03  0.7818608E-02  0.9491412E-01
          1   -1    0    0  501    0  0.00000000000E+00  0.00000000000E+00  0.89455061759E+03  0.89455061761E+03  0.50400000000E-02 0. -1.
         -1   -1    0    0    0  501 -0.00000000000E+00 -0.00000000000E+00 -0.84180723226E+03  0.84180723228E+03  0.50400000000E-02 0.  1.
    8880023    1    1    2    0    0 -0.62819610747E+03  0.14788342591E+03  0.37929471209E+03  0.99708301660E+03  0.65864270000E+03 0. -1.
    8880022    1    1    2    0    0  0.62819610747E+03 -0.14788342591E+03 -0.32655132676E+03  0.73927483329E+03  0.15294330000E+03 0.  1.
<mgrwt>
<rscale>  0 0.84919943E+03</rscale>
<asrwt>0</asrwt>
<pdfrwt beam="1">  1        1 0.13762317E+00 0.92212259E+03</pdfrwt>
<pdfrwt beam="2">  1       -1 0.12950881E+00 0.92212259E+03</pdfrwt>
<totfact> 0.95126159E+00</totfact>
</mgrwt>
</event>
<event>
 4    1  0.1043382E-007  0.6614896E+03  0.7818608E-02  0.1022680E+00
         -1   -1    0    0    0  501 -0.00000000000E+00  0.00000000000E+00  0.28038983712E+03  0.28038983717E+03  0.50400000000E-02 0.  1.
          1   -1    0    0  501    0  0.00000000000E+00 -0.00000000000E+00 -0.83927415722E+03  0.83927415724E+03  0.50400000000E-02 0. -1.
    8880023    1    1    2    0    0 -0.29842650819E+02  0.53550954020E+02 -0.14922979880E+03  0.67811358016E+03  0.65864270000E+03 0.  1.
    8880022    1    1    2    0    0  0.29842650819E+02 -0.53550954020E+02 -0.40965452130E+03  0.44155041425E+03  0.15294330000E+03 0.  0.
<mgrwt>
<rscale>  0 0.46731894E+03</rscale>
<asrwt>0</asrwt>
<pdfrwt beam="1">  1        1 0.12911910E+00 0.66148960E+03</pdfrwt>
<pdfrwt beam="2">  1       -1 0.43136898E-01 0.66148960E+03</pdfrwt>
<totfact> 0.11108281E+02</totfact>
</mgrwt>
</event>
<event>
 4    1  0.1043382E-007  0.9585818E+03  0.7818608E-02  0.9437873E-01
         -1   -1    0    0    0  501 -0.00000000000E+00  0.00000000000E+00  0.68972523724E+03  0.68972523726E+03  0.50400000000E-02 0.  1.
          1   -1    0    0  501    0  0.00000000000E+00 -0.00000000000E+00 -0.16180901562E+04  0.16180901562E+04  0.50400000000E-02 0. -1.
    8880023    1    1    2    0    0 -0.30158793450E+03  0.62778463685E+03  0.19407332133E+03  0.97803041507E+03  0.65864270000E+03 0.  0.
    8880022    1    1    2    0    0  0.30158793450E+03 -0.62778463685E+03 -0.11224382403E+04  0.13297849784E+04  0.15294330000E+03 0.  0.
<mgrwt>
<rscale>  0 0.89023370E+03</rscale>
<asrwt>0</asrwt>
<pdfrwt beam="1">  1        1 0.24893694E+00 0.95858179E+03</pdfrwt>
<pdfrwt beam="2">  1       -1 0.10611158E+00 0.95858179E+03</pdfrwt>
<totfact> 0.45587632E+00</totfact>
</mgrwt>
</event>
<event>
 4    1  0.1043382E-007  0.1391097E+04  0.7818608E-02  0.8990632E-01
          1   -1    0    0  501    0  0.00000000000E+00  0.00000000000E+00  0.15692388444E+04  0.15692388444E+04  0.50400000000E-02 0. -1.
         -1   -1    0    0    0  501 -0.00000000000E+00 -0.00000000000E+00 -0.20598439892E+04  0.20598439892E+04  0.50400000000E-02 0.  1.
    8880023    1    1    2    0    0  0.54344540398E+03  0.10981832282E+04 -0.14915291746E+04  0.20395609318E+04  0.65864270000E+03 0.  0.
    8880022    1    1    2    0    0 -0.54344540398E+03 -0.10981832282E+04  0.10009240298E+04  0.15895219018E+04  0.15294330000E+03 0.  0.
<mgrwt>
<rscale>  0 0.13502591E+04</rscale>
<asrwt>0</asrwt>
<pdfrwt beam="1">  1        1 0.24142136E+00 0.13910965E+04</pdfrwt>
<pdfrwt beam="2">  1       -1 0.31689908E+00 0.13910965E+04</pdfrwt>
<totfact> 0.14403518E-01</totfact>
</mgrwt>
</event>
<event>
 4    1  0.1043382E-007  0.1053091E+04  0.7818608E-02  0.9315175E-01
         -1   -1    0    0    0  501 -0.00000000000E+00  0.00000000000E+00  0.92653390696E+03  0.92653390697E+03  0.50400000000E-02 0.  1.
          1   -1    0    0  501    0  0.00000000000E+00 -0.00000000000E+00 -0.12632446436E+04  0.12632446436E+04  0.50400000000E-02 0. -1.
    8880023    1    1    2    0    0  0.37040034224E+03 -0.73348082103E+03  0.34822133048E+03  0.11091703339E+04  0.65864270000E+03 0.  0.
    8880022    1    1    2    0    0 -0.37040034224E+03  0.73348082103E+03 -0.68493206711E+03  0.10806082167E+04  0.15294330000E+03 0.  0.
<mgrwt>
<rscale>  0 0.99397766E+03</rscale>
<asrwt>0</asrwt>
<pdfrwt beam="1">  1        1 0.19434533E+00 0.10530910E+04</pdfrwt>
<pdfrwt beam="2">  1       -1 0.14254368E+00 0.10530910E+04</pdfrwt>
<totfact> 0.38325249E+00</totfact>
</mgrwt>
</event>
<event>
 4    1  0.1043382E-007  0.7653995E+03  0.7818608E-02  0.9791324E-01
          1   -1    0    0  501    0  0.00000000000E+00  0.00000000000E+00  0.81506273453E+03  0.81506273455E+03  0.50400000000E-02 0. -1.
         -1   -1    0    0    0  501 -0.00000000000E+00 -0.00000000000E+00 -0.63974120190E+03  0.63974120192E+03  0.50400000000E-02 0.  1.
    8880023    1    1    2    0    0  0.37900736837E+03  0.91539794233E+02 -0.29927389454E+03  0.82182795610E+03  0.65864270000E+03 0.  1.
    8880022    1    1    2    0    0 -0.37900736837E+03 -0.91539794233E+02  0.47459542717E+03  0.63297598036E+03  0.15294330000E+03 0.  0.
<mgrwt>
<rscale>  0 0.65830221E+03</rscale>
<asrwt>0</asrwt>
<pdfrwt beam="1">  1        1 0.12539427E+00 0.76539945E+03</pdfrwt>
<pdfrwt beam="2">  1       -1 0.98421723E-01 0.76539945E+03</pdfrwt>
<totfact> 0.21743159E+01</totfact>
</mgrwt>
</event>
<event>
 4    1  0.1043382E-007  0.6820102E+03  0.7818608E-02  0.1008209E+00
         -1   -1    0    0    0  501 -0.00000000000E+00  0.00000000000E+00  0.45043637954E+03  0.45043637957E+03  0.50400000000E-02 0.  1.
          1   -1    0    0  501    0  0.00000000000E+00 -0.00000000000E+00 -0.19270574654E+04  0.19270574654E+04  0.50400000000E-02 0. -1.
    8880023    1    1    2    0    0  0.17430332585E+03  0.30758292879E+02  0.17925713445E+03  0.70517448089E+03  0.65864270000E+03 0.  1.
    8880022    1    1    2    0    0 -0.17430332585E+03 -0.30758292879E+02 -0.16558782203E+04  0.16723193641E+04  0.15294330000E+03 0.  0.
<mgrwt>
<rscale>  0 0.52192824E+03</rscale>
<asrwt>0</asrwt>
<pdfrwt beam="1">  1        1 0.29647038E+00 0.68201021E+03</pdfrwt>
<pdfrwt beam="2">  1       -1 0.69297905E-01 0.68201021E+03</pdfrwt>
<totfact> 0.74495497E+00</totfact>
</mgrwt>
</event>
<event>
 4    1  0.1043382E-007  0.9617024E+03  0.7818608E-02  0.9433473E-01
          1   -1    0    0  501    0  0.00000000000E+00  0.00000000000E+00  0.91402665503E+03  0.91402665504E+03  0.50400000000E-02 0. -1.
         -1   -1    0    0    0  501 -0.00000000000E+00 -0.00000000000E+00 -0.10483304548E+04  0.10483304548E+04  0.50400000000E-02 0.  1.
    8880023    1    1    2    0    0 -0.69741135430E+03  0.68400574200E+02 -0.57504311207E+03  0.11205115005E+04  0.65864270000E+03 0.  1.
    8880022    1    1    2    0    0  0.69741135430E+03 -0.68400574200E+02  0.44073931230E+03  0.84184560940E+03  0.15294330000E+03 0.  0.
<mgrwt>
<rscale>  0 0.89371432E+03</rscale>
<asrwt>0</asrwt>
<pdfrwt beam="1">  1        1 0.14061949E+00 0.96170237E+03</pdfrwt>
<pdfrwt beam="2">  1       -1 0.16128161E+00 0.96170237E+03</pdfrwt>
<totfact> 0.51003701E+00</totfact>
</mgrwt>
</event>
<event>
 4    1  0.1043382E-007  0.8315998E+03  0.7818608E-02  0.9646228E-01
          1   -1    0    0  501    0  0.00000000000E+00  0.00000000000E+00  0.47244099157E+03  0.47244099159E+03  0.50400000000E-02 0. -1.
         -1   -1    0    0    0  501 -0.00000000000E+00 -0.00000000000E+00 -0.14384927530E+04  0.14384927530E+04  0.50400000000E-02 0.  1.
    8880023    1    1    2    0    0 -0.30445564613E+03 -0.40626937555E+03 -0.10854884461E+04  0.13674221802E+04  0.65864270000E+03 0.  1.
    8880022    1    1    2    0    0  0.30445564613E+03  0.40626937555E+03  0.11943668469E+03  0.54351156440E+03  0.15294330000E+03 0.  0.
<mgrwt>
<rscale>  0 0.74310650E+03</rscale>
<asrwt>0</asrwt>
<pdfrwt beam="1">  1        1 0.72683230E-01 0.83159981E+03</pdfrwt>
<pdfrwt beam="2">  1       -1 0.22130658E+00 0.83159981E+03</pdfrwt>
<totfact> 0.53007279E+00</totfact>
</mgrwt>
</event>
<event>
 4    1  0.1043382E-007  0.1349804E+04  0.7818608E-02  0.9023701E-01
          1   -1    0    0  501    0  0.00000000000E+00  0.00000000000E+00  0.16622727154E+04  0.16622727154E+04  0.50400000000E-02 0. -1.
         -1   -1    0    0    0  501 -0.00000000000E+00 -0.00000000000E+00 -0.11641923500E+04  0.11641923500E+04  0.50400000000E-02 0.  1.
    8880023    1    1    2    0    0 -0.63105699960E+03  0.99495125011E+03 -0.31591095522E+03  0.13862795045E+04  0.65864270000E+03 0.  0.
    8880022    1    1    2    0    0  0.63105699960E+03 -0.99495125011E+03  0.81399132060E+03  0.14401855609E+04  0.15294330000E+03 0.  0.
<mgrwt>
<rscale>  0 0.13074202E+04</rscale>
<asrwt>0</asrwt>
<pdfrwt beam="1">  1        1 0.25573426E+00 0.13498041E+04</pdfrwt>
<pdfrwt beam="2">  1       -1 0.17910652E+00 0.13498041E+04</pdfrwt>
<totfact> 0.10290145E+00</totfact>
</mgrwt>
</event>
<event>
 4    1  0.1043382E-007  0.9115255E+03  0.7818608E-02  0.9507777E-01
         -1   -1    0    0    0  501 -0.00000000000E+00  0.00000000000E+00  0.87488550587E+03  0.87488550589E+03  0.50400000000E-02 0.  1.
          1   -1    0    0  501    0  0.00000000000E+00 -0.00000000000E+00 -0.86617847134E+03  0.86617847136E+03  0.50400000000E-02 0. -1.
    8880023    1    1    2    0    0 -0.61994743619E+03 -0.11284361677E+03  0.38708632815E+03  0.99031032368E+03  0.65864270000E+03 0.  1.
    8880022    1    1    2    0    0  0.61994743619E+03  0.11284361677E+03 -0.37837929362E+03  0.75075365356E+03  0.15294330000E+03 0. -1.
<mgrwt>
<rscale>  0 0.83712867E+03</rscale>
<asrwt>0</asrwt>
<pdfrwt beam="1">  1        1 0.13325823E+00 0.91152549E+03</pdfrwt>
<pdfrwt beam="2">  1       -1 0.13459777E+00 0.91152549E+03</pdfrwt>
<totfact> 0.91149996E+00</totfact>
</mgrwt>
</event>
<event>
 4    1  0.1043382E-007  0.6813005E+03  0.7818608E-02  0.1008597E+00
         -1   -1    0    0    0  501 -0.00000000000E+00  0.00000000000E+00  0.29449634673E+03  0.29449634677E+03  0.50400000000E-02 0.  1.
          1   -1    0    0  501    0  0.00000000000E+00 -0.00000000000E+00 -0.76006745193E+03  0.76006745195E+03  0.50400000000E-02 0. -1.
    8880023    1    1    2    0    0  0.17387163884E+03  0.11350005738E+02 -0.21786988536E+03  0.71528851705E+03  0.65864270000E+03 0.  1.
    8880022    1    1    2    0    0 -0.17387163884E+03 -0.11350005738E+02 -0.24770121985E+03  0.33927528167E+03  0.15294330000E+03 0.  0.
<mgrwt>
<rscale>  0 0.52035913E+03</rscale>
<asrwt>0</asrwt>
<pdfrwt beam="1">  1        1 0.11693345E+00 0.68130050E+03</pdfrwt>
<pdfrwt beam="2">  1       -1 0.45307130E-01 0.68130050E+03</pdfrwt>
<totfact> 0.11858173E+02</totfact>
</mgrwt>
</event>
<event>
 4    1  0.1043382E-007  0.6854456E+03  0.7818608E-02  0.1006397E+00
         -1   -1    0    0    0  501 -0.00000000000E+00  0.00000000000E+00  0.55327163572E+03  0.55327163574E+03  0.50400000000E-02 0.  1.
          1   -1    0    0  501    0  0.00000000000E+00 -0.00000000000E+00 -0.16432881594E+04  0.16432881594E+04  0.50400000000E-02 0. -1.
    8880023    1    1    2    0    0  0.17938180687E+03  0.62029110871E+02  0.32649169186E+03  0.75923150247E+03  0.65864270000E+03 0.  1.
    8880022    1    1    2    0    0 -0.17938180687E+03 -0.62029110871E+02 -0.14165082156E+04  0.14373282927E+04  0.15294330000E+03 0.  0.
<mgrwt>
<rscale>  0 0.52932044E+03</rscale>
<asrwt>0</asrwt>
<pdfrwt beam="1">  1        1 0.25281356E+00 0.68544558E+03</pdfrwt>
<pdfrwt beam="2">  1       -1 0.85118714E-01 0.68544558E+03</pdfrwt>
<totfact> 0.74925873E+00</totfact>
</mgrwt>
</event>
<event>
 4    1  0.1043382E-007  0.9751172E+03  0.7818608E-02  0.9414861E-01
          1   -1    0    0  501    0  0.00000000000E+00  0.00000000000E+00  0.59523380429E+03  0.59523380431E+03  0.50400000000E-02 0. -1.
         -1   -1    0    0    0  501 -0.00000000000E+00 -0.00000000000E+00 -0.25986916576E+04  0.25986916576E+04  0.50400000000E-02 0.  1.
    8880023    1    1    2    0    0 -0.71847758965E+03 -0.28866425177E+02 -0.22223646011E+04  0.24268823507E+04  0.65864270000E+03 0.  0.
    8880022    1    1    2    0    0  0.71847758965E+03  0.28866425177E+02  0.21890674779E+03  0.76704311129E+03  0.15294330000E+03 0.  0.
<mgrwt>
<rscale>  0 0.90862679E+03</rscale>
<asrwt>0</asrwt>
<pdfrwt beam="1">  1        1 0.91574433E-01 0.97511718E+03</pdfrwt>
<pdfrwt beam="2">  1       -1 0.39979871E+00 0.97511718E+03</pdfrwt>
<totfact> 0.25608660E-01</totfact>
</mgrwt>
</event>
<event>
 4    1  0.1043382E-007  0.6707598E+03  0.7818608E-02  0.1015124E+00
          1   -1    0    0  501    0  0.00000000000E+00  0.00000000000E+00  0.14520062632E+04  0.14520062632E+04  0.50400000000E-02 0. -1.
         -1   -1    0    0    0  501 -0.00000000000E+00 -0.00000000000E+00 -0.29062559348E+03  0.29062559353E+03  0.50400000000E-02 0.  1.
    8880023    1    1    2    0    0  0.11521904805E+03 -0.53226180857E+02  0.11870373542E+03  0.68118223584E+03  0.65864270000E+03 0.  1.
    8880022    1    1    2    0    0 -0.11521904805E+03  0.53226180857E+02  0.10426769343E+04  0.10614496209E+04  0.15294330000E+03 0.  0.
<mgrwt>
<rscale>  0 0.49488015E+03</rscale>
<asrwt>0</asrwt>
<pdfrwt beam="1">  1        1 0.22338557E+00 0.67075976E+03</pdfrwt>
<pdfrwt beam="2">  1       -1 0.44711631E-01 0.67075976E+03</pdfrwt>
<totfact> 0.36423352E+01</totfact>
</mgrwt>
</event>
<event>
 4    1  0.1043382E-007  0.7038017E+03  0.7818608E-02  0.9981781E-01
          1   -1    0    0  501    0  0.00000000000E+00  0.00000000000E+00  0.22580356692E+04  0.22580356692E+04  0.50400000000E-02 0. -1.
         -1   -1    0    0    0  501 -0.00000000000E+00 -0.00000000000E+00 -0.14366525442E+03  0.14366525451E+03  0.50400000000E-02 0.  1.
    8880023    1    1    2    0    0  0.20561452202E+03 -0.13874170457E+03  0.84693749964E+03  0.11011993129E+04  0.65864270000E+03 0.  1.
    8880022    1    1    2    0    0 -0.20561452202E+03  0.13874170457E+03  0.12674329152E+04  0.13005016108E+04  0.15294330000E+03 0.  0.
<mgrwt>
<rscale>  0 0.56456357E+03</rscale>
<asrwt>0</asrwt>
<pdfrwt beam="1">  1        1 0.34739013E+00 0.70380168E+03</pdfrwt>
<pdfrwt beam="2">  1       -1 0.22102345E-01 0.70380168E+03</pdfrwt>
<totfact> 0.35946899E+01</totfact>
</mgrwt>
</event>
<event>
 4    1  0.1043382E-007  0.7966714E+03  0.7818608E-02  0.9718040E-01
          1   -1    0    0  501    0  0.00000000000E+00  0.00000000000E+00  0.77168378866E+03  0.77168378868E+03  0.50400000000E-02 0. -1.
         -1   -1    0    0    0  501 -0.00000000000E+00 -0.00000000000E+00 -0.59672282019E+03  0.59672282021E+03  0.50400000000E-02 0.  1.
    8880023    1    1    2    0    0  0.29209284557E+03  0.33993655786E+03 -0.12704192744E+03  0.80673722574E+03  0.65864270000E+03 0.  1.
    8880022    1    1    2    0    0 -0.29209284557E+03 -0.33993655786E+03  0.30200289591E+03  0.56166938314E+03  0.15294330000E+03 0.  0.
<mgrwt>
<rscale>  0 0.69952788E+03</rscale>
<asrwt>0</asrwt>
<pdfrwt beam="1">  1        1 0.11872058E+00 0.79667139E+03</pdfrwt>
<pdfrwt beam="2">  1       -1 0.91803511E-01 0.79667139E+03</pdfrwt>
<totfact> 0.27634014E+01</totfact>
</mgrwt>
</event>
<event>
 4    1  0.1043382E-007  0.6906977E+03  0.7818608E-02  0.1003823E+00
         -1   -1    0    0    0  501 -0.00000000000E+00  0.00000000000E+00  0.22821084412E+03  0.22821084417E+03  0.50400000000E-02 0.  1.
          1   -1    0    0  501    0  0.00000000000E+00 -0.00000000000E+00 -0.16361719894E+04  0.16361719894E+04  0.50400000000E-02 0. -1.
    8880023    1    1    2    0    0  0.20775363526E+03  0.95680785722E+01 -0.34795321244E+03  0.77339172830E+03  0.65864270000E+03 0.  0.
    8880022    1    1    2    0    0 -0.20775363526E+03 -0.95680785722E+01 -0.10600079328E+04  0.10909911052E+04  0.15294330000E+03 0.  0.
<mgrwt>
<rscale>  0 0.54005349E+03</rscale>
<asrwt>0</asrwt>
<pdfrwt beam="1">  1        1 0.25171876E+00 0.69069771E+03</pdfrwt>
<pdfrwt beam="2">  1       -1 0.35109362E-01 0.69069771E+03</pdfrwt>
<totfact> 0.42215684E+01</totfact>
</mgrwt>
</event>
<event>
 4    1  0.1043382E-007  0.7157501E+03  0.7818608E-02  0.9937238E-01
          1   -1    0    0  501    0  0.00000000000E+00  0.00000000000E+00  0.28976530548E+04  0.28976530548E+04  0.50400000000E-02 0. -1.
         -1   -1    0    0    0  501 -0.00000000000E+00 -0.00000000000E+00 -0.42074182919E+03  0.42074182922E+03  0.50400000000E-02 0.  1.
    8880023    1    1    2    0    0  0.26401254891E+03  0.93730195868E+02 -0.99194081811E+02  0.72259092696E+03  0.65864270000E+03 0.  1.
    8880022    1    1    2    0    0 -0.26401254891E+03 -0.93730195868E+02  0.25761053074E+04  0.25958039570E+04  0.15294330000E+03 0.  0.
<mgrwt>
<rscale>  0 0.58490048E+03</rscale>
<asrwt>0</asrwt>
<pdfrwt beam="1">  1        1 0.44579278E+00 0.71575008E+03</pdfrwt>
<pdfrwt beam="2">  1       -1 0.64729512E-01 0.71575008E+03</pdfrwt>
<totfact> 0.18549965E+00</totfact>
</mgrwt>
</event>
<event>
 4    1  0.1043382E-007  0.8180088E+03  0.7818608E-02  0.9673130E-01
         -1   -1    0    0    0  501 -0.00000000000E+00  0.00000000000E+00  0.50892144472E+03  0.50892144475E+03  0.50400000000E-02 0.  1.
          1   -1    0    0  501    0  0.00000000000E+00 -0.00000000000E+00 -0.87239958391E+03  0.87239958392E+03  0.50400000000E-02 0. -1.
    8880023    1    1    2    0    0 -0.30513877358E+03  0.37711873619E+03 -0.28734591298E+03  0.86700985709E+03  0.65864270000E+03 0.  0.
    8880022    1    1    2    0    0  0.30513877358E+03 -0.37711873619E+03 -0.76132226204E+02  0.51431117158E+03  0.15294330000E+03 0.  1.
<mgrwt>
<rscale>  0 0.72639393E+03</rscale>
<asrwt>0</asrwt>
<pdfrwt beam="1">  1        1 0.13421532E+00 0.81800881E+03</pdfrwt>
<pdfrwt beam="2">  1       -1 0.78295607E-01 0.81800881E+03</pdfrwt>
<totfact> 0.31904536E+01</totfact>
</mgrwt>
</event>
<event>
 4    1  0.1043382E-007  0.9896043E+03  0.7818608E-02  0.9395287E-01
         -1   -1    0    0    0  501 -0.00000000000E+00  0.00000000000E+00  0.69704375969E+03  0.69704375971E+03  0.50400000000E-02 0.  1.
          1   -1    0    0  501    0  0.00000000000E+00 -0.00000000000E+00 -0.14419411491E+04  0.14419411491E+04  0.50400000000E-02 0. -1.
    8880023    1    1    2    0    0 -0.43303322032E+03  0.59832153953E+03  0.11373282763E+03  0.99611836491E+03  0.65864270000E+03 0.  1.
    8880022    1    1    2    0    0  0.43303322032E+03 -0.59832153953E+03 -0.85863021701E+03  0.11428665439E+04  0.15294330000E+03 0.  0.
<mgrwt>
<rscale>  0 0.92464598E+03</rscale>
<asrwt>0</asrwt>
<pdfrwt beam="1">  1        1 0.22183710E+00 0.98960428E+03</pdfrwt>
<pdfrwt beam="2">  1       -1 0.10723750E+00 0.98960428E+03</pdfrwt>
<totfact> 0.58551233E+00</totfact>
</mgrwt>
</event>
<event>
 4    1  0.1043382E-007  0.1178707E+04  0.7818608E-02  0.9178103E-01
         -1   -1    0    0    0  501 -0.00000000000E+00  0.00000000000E+00  0.58355112251E+03  0.58355112254E+03  0.50400000000E-02 0.  1.
          1   -1    0    0  501    0  0.00000000000E+00 -0.00000000000E+00 -0.25526434137E+04  0.25526434137E+04  0.50400000000E-02 0. -1.
    8880023    1    1    2    0    0 -0.96607696849E+03  0.14911746695E+03 -0.33410523527E+03  0.12251437640E+04  0.65864270000E+03 0.  0.
    8880022    1    1    2    0    0  0.96607696849E+03 -0.14911746695E+03 -0.16349870559E+04  0.19110507722E+04  0.15294330000E+03 0.  0.
<mgrwt>
<rscale>  0 0.11282324E+04</rscale>
<asrwt>0</asrwt>
<pdfrwt beam="1">  1        1 0.39271436E+00 0.11787073E+04</pdfrwt>
<pdfrwt beam="2">  1       -1 0.89777097E-01 0.11787073E+04</pdfrwt>
<totfact> 0.15038070E+00</totfact>
</mgrwt>
</event>
<event>
 4    1  0.1043382E-007  0.1254253E+04  0.7818608E-02  0.9106107E-01
         -1   -1    0    0    0  501 -0.00000000000E+00  0.00000000000E+00  0.15247086739E+04  0.15247086739E+04  0.50400000000E-02 0.  1.
          1   -1    0    0  501    0  0.00000000000E+00 -0.00000000000E+00 -0.19733450930E+04  0.19733450930E+04  0.50400000000E-02 0. -1.
    8880023    1    1    2    0    0  0.78572865803E+03 -0.72247619634E+03  0.10610258888E+04  0.16428412952E+04  0.65864270000E+03 0.  1.
    8880022    1    1    2    0    0 -0.78572865803E+03  0.72247619634E+03 -0.15096623079E+04  0.18552124717E+04  0.15294330000E+03 0.  0.
<mgrwt>
<rscale>  0 0.12077414E+04</rscale>
<asrwt>0</asrwt>
<pdfrwt beam="1">  1        1 0.30359155E+00 0.12542534E+04</pdfrwt>
<pdfrwt beam="2">  1       -1 0.23457056E+00 0.12542534E+04</pdfrwt>
<totfact> 0.26647991E-01</totfact>
</mgrwt>
</event>
<event>
 4    1  0.1043382E-007  0.8508266E+03  0.7818608E-02  0.9610094E-01
         -1   -1    0    0    0  501 -0.00000000000E+00  0.00000000000E+00  0.76631729198E+03  0.76631729200E+03  0.50400000000E-02 0.  1.
          1   -1    0    0  501    0  0.00000000000E+00 -0.00000000000E+00 -0.81080293180E+03  0.81080293182E+03  0.50400000000E-02 0. -1.
    8880023    1    1    2    0    0 -0.52991789386E+03  0.96346662319E+02  0.32002440685E+03  0.90902226640E+03  0.65864270000E+03 0.  1.
    8880022    1    1    2    0    0  0.52991789386E+03 -0.96346662319E+02 -0.36451004666E+03  0.66809795742E+03  0.15294330000E+03 0. -1.
<mgrwt>
<rscale>  0 0.76631668E+03</rscale>
<asrwt>0</asrwt>
<pdfrwt beam="1">  1        1 0.12473891E+00 0.85082657E+03</pdfrwt>
<pdfrwt beam="2">  1       -1 0.11789497E+00 0.85082657E+03</pdfrwt>
<totfact> 0.14227780E+01</totfact>
</mgrwt>
</event>
<event>
 4    1  0.1043382E-007  0.8553754E+03  0.7818608E-02  0.9601843E-01
         -1   -1    0    0    0  501 -0.00000000000E+00  0.00000000000E+00  0.34617304596E+03  0.34617304599E+03  0.50400000000E-02 0.  1.
          1   -1    0    0  501    0  0.00000000000E+00 -0.00000000000E+00 -0.19859609302E+04  0.19859609302E+04  0.50400000000E-02 0. -1.
    8880023    1    1    2    0    0 -0.31398359462E+03 -0.44639794227E+03 -0.35169305454E+03  0.92485405953E+03  0.65864270000E+03 0.  0.
    8880022    1    1    2    0    0  0.31398359462E+03  0.44639794227E+03 -0.12880948297E+04  0.14072799167E+04  0.15294330000E+03 0.  0.
<mgrwt>
<rscale>  0 0.77174298E+03</rscale>
<asrwt>0</asrwt>
<pdfrwt beam="1">  1        1 0.30553244E+00 0.85537537E+03</pdfrwt>
<pdfrwt beam="2">  1       -1 0.53257393E-01 0.85537537E+03</pdfrwt>
<totfact> 0.11147628E+01</totfact>
</mgrwt>
</event>
<event>
 4    1  0.1043382E-007  0.8608357E+03  0.7818608E-02  0.9592079E-01
          1   -1    0    0  501    0  0.00000000000E+00  0.00000000000E+00  0.46000197550E+04  0.46000197550E+04  0.50400000000E-02 0. -1.
         -1   -1    0    0    0  501 -0.00000000000E+00 -0.00000000000E+00 -0.12131351674E+03  0.12131351685E+03  0.50400000000E-02 0.  1.
    8880023    1    1    2    0    0  0.20267966885E+03 -0.51589616451E+03  0.20105877218E+04  0.21871216460E+04  0.65864270000E+03 0. -1.
    8880022    1    1    2    0    0 -0.20267966885E+03  0.51589616451E+03  0.24681185164E+04  0.25342116258E+04  0.15294330000E+03 0.  1.
<mgrwt>
<rscale>  0 0.77822696E+03</rscale>
<asrwt>0</asrwt>
<pdfrwt beam="1">  1        1 0.70769527E+00 0.86083570E+03</pdfrwt>
<pdfrwt beam="2">  1       -1 0.18663620E-01 0.86083570E+03</pdfrwt>
<totfact> 0.64105313E-01</totfact>
</mgrwt>
</event>
<event>
 4    1  0.1043382E-007  0.1154391E+04  0.7818608E-02  0.9202785E-01
          1   -1    0    0  501    0  0.00000000000E+00  0.00000000000E+00  0.92058285986E+03  0.92058285987E+03  0.50400000000E-02 0. -1.
         -1   -1    0    0    0  501 -0.00000000000E+00 -0.00000000000E+00 -0.16811230249E+04  0.16811230249E+04  0.50400000000E-02 0.  1.
    8880023    1    1    2    0    0  0.30782538347E+03  0.89668963478E+03 -0.10887854465E+04  0.15868436352E+04  0.65864270000E+03 0.  1.
    8880022    1    1    2    0    0 -0.30782538347E+03 -0.89668963478E+03  0.32824528144E+03  0.10148622496E+04  0.15294330000E+03 0.  0.
<mgrwt>
<rscale>  0 0.11024729E+04</rscale>
<asrwt>0</asrwt>
<pdfrwt beam="1">  1        1 0.14162813E+00 0.11543912E+04</pdfrwt>
<pdfrwt beam="2">  1       -1 0.25863431E+00 0.11543912E+04</pdfrwt>
<totfact> 0.10598739E+00</totfact>
</mgrwt>
</event>
<event>
 4    1  0.1043382E-007  0.9797064E+03  0.7818608E-02  0.9408603E-01
          1   -1    0    0  501    0  0.00000000000E+00  0.00000000000E+00  0.32366803549E+04  0.32366803549E+04  0.50400000000E-02 0. -1.
         -1   -1    0    0    0  501 -0.00000000000E+00 -0.00000000000E+00 -0.33613261075E+03  0.33613261079E+03  0.50400000000E-02 0.  1.
    8880023    1    1    2    0    0  0.72435535904E+03  0.36381999950E+02  0.58397771768E+03  0.11405500941E+04  0.65864270000E+03 0.  0.
    8880022    1    1    2    0    0 -0.72435535904E+03 -0.36381999950E+02  0.23165700265E+04  0.24322628716E+04  0.15294330000E+03 0.  0.
<mgrwt>
<rscale>  0 0.91371050E+03</rscale>
<asrwt>0</asrwt>
<pdfrwt beam="1">  1        1 0.49795084E+00 0.97970636E+03</pdfrwt>
<pdfrwt beam="2">  1       -1 0.51712708E-01 0.97970636E+03</pdfrwt>
<totfact> 0.15559215E+00</totfact>
</mgrwt>
</event>
<event>
 4    1  0.1043382E-007  0.1059638E+04  0.7818608E-02  0.9307385E-01
          1   -1    0    0  501    0  0.00000000000E+00  0.00000000000E+00  0.23763008477E+04  0.23763008477E+04  0.50400000000E-02 0. -1.
         -1   -1    0    0    0  501 -0.00000000000E+00 -0.00000000000E+00 -0.77994802569E+03  0.77994802571E+03  0.50400000000E-02 0.  1.
    8880023    1    1    2    0    0 -0.19450465095E+03  0.80696306653E+03  0.19671141139E+04  0.22343611152E+04  0.65864270000E+03 0.  0.
    8880022    1    1    2    0    0  0.19450465095E+03 -0.80696306653E+03 -0.37076129191E+03  0.92188775813E+03  0.15294330000E+03 0.  0.
<mgrwt>
<rscale>  0 0.10010586E+04</rscale>
<asrwt>0</asrwt>
<pdfrwt beam="1">  1        1 0.36558474E+00 0.10596375E+04</pdfrwt>
<pdfrwt beam="2">  1       -1 0.11999200E+00 0.10596375E+04</pdfrwt>
<totfact> 0.10285513E+00</totfact>
</mgrwt>
</event>
<event>
 4    1  0.1043382E-007  0.6759286E+03  0.7818608E-02  0.1011727E+00
         -1   -1    0    0    0  501 -0.00000000000E+00  0.00000000000E+00  0.29141590911E+03  0.29141590915E+03  0.50400000000E-02 0.  1.
          1   -1    0    0  501    0  0.00000000000E+00 -0.00000000000E+00 -0.11298438016E+04  0.11298438016E+04  0.50400000000E-02 0. -1.
    8880023    1    1    2    0    0 -0.17228624123E+02  0.15090540363E+03 -0.13993065194E+03  0.69026086370E+03  0.65864270000E+03 0.  1.
    8880022    1    1    2    0    0  0.17228624123E+02 -0.15090540363E+03 -0.69849724058E+03  0.73099884709E+03  0.15294330000E+03 0.  0.
<mgrwt>
<rscale>  0 0.50793904E+03</rscale>
<asrwt>0</asrwt>
<pdfrwt beam="1">  1        1 0.17382212E+00 0.67592860E+03</pdfrwt>
<pdfrwt beam="2">  1       -1 0.44833217E-01 0.67592860E+03</pdfrwt>
<totfact> 0.61242716E+01</totfact>
</mgrwt>
</event>
<event>
 4    1  0.1043382E-007  0.8657363E+03  0.7818608E-02  0.9583440E-01
          1   -1    0    0  501    0  0.00000000000E+00  0.00000000000E+00  0.38357733387E+03  0.38357733390E+03  0.50400000000E-02 0. -1.
         -1   -1    0    0    0  501 -0.00000000000E+00 -0.00000000000E+00 -0.16622273075E+04  0.16622273075E+04  0.50400000000E-02 0.  1.
    8880023    1    1    2    0    0  0.14736672930E+03  0.54219198889E+03 -0.11667223900E+04  0.14528387547E+04  0.65864270000E+03 0.  0.
    8880022    1    1    2    0    0 -0.14736672930E+03 -0.54219198889E+03 -0.11192758362E+03  0.59296588664E+03  0.15294330000E+03 0.  0.
<mgrwt>
<rscale>  0 0.78401994E+03</rscale>
<asrwt>0</asrwt>
<pdfrwt beam="1">  1        1 0.59011899E-01 0.86573628E+03</pdfrwt>
<pdfrwt beam="2">  1       -1 0.25572727E+00 0.86573628E+03</pdfrwt>
<totfact> 0.41604744E+00</totfact>
</mgrwt>
</event>
<event>
 4    1  0.1043382E-007  0.7989569E+03  0.7818608E-02  0.9713056E-01
         -1   -1    0    0    0  501 -0.00000000000E+00  0.00000000000E+00  0.59583755007E+03  0.59583755009E+03  0.50400000000E-02 0.  1.
          1   -1    0    0  501    0  0.00000000000E+00 -0.00000000000E+00 -0.91068021091E+03  0.91068021092E+03  0.50400000000E-02 0. -1.
    8880023    1    1    2    0    0 -0.27413913787E+03 -0.35967986484E+03  0.17993974822E+03  0.81896910280E+03  0.65864270000E+03 0.  1.
    8880022    1    1    2    0    0  0.27413913787E+03  0.35967986484E+03 -0.49478240905E+03  0.68754865821E+03  0.15294330000E+03 0.  0.
<mgrwt>
<rscale>  0 0.70244733E+03</rscale>
<asrwt>0</asrwt>
<pdfrwt beam="1">  1        1 0.14010465E+00 0.79895687E+03</pdfrwt>
<pdfrwt beam="2">  1       -1 0.91667315E-01 0.79895687E+03</pdfrwt>
<totfact> 0.21146329E+01</totfact>
</mgrwt>
</event>
<event>
 4    1  0.1043382E-007  0.7736845E+03  0.7818608E-02  0.9770887E-01
         -1   -1    0    0    0  501 -0.00000000000E+00  0.00000000000E+00  0.13000228968E+04  0.13000228968E+04  0.50400000000E-02 0.  1.
          1   -1    0    0  501    0  0.00000000000E+00 -0.00000000000E+00 -0.54186296790E+03  0.54186296792E+03  0.50400000000E-02 0. -1.
    8880023    1    1    2    0    0 -0.39014628341E+03  0.11208662036E+03  0.10607959907E+04  0.13129645361E+04  0.65864270000E+03 0.  1.
    8880022    1    1    2    0    0  0.39014628341E+03 -0.11208662036E+03 -0.30263606183E+03  0.52892132861E+03  0.15294330000E+03 0.  0.
<mgrwt>
<rscale>  0 0.66948599E+03</rscale>
<asrwt>0</asrwt>
<pdfrwt beam="1">  1        1 0.83363535E-01 0.77368452E+03</pdfrwt>
<pdfrwt beam="2">  1       -1 0.20000352E+00 0.77368452E+03</pdfrwt>
<totfact> 0.61491861E+00</totfact>
</mgrwt>
</event>
<event>
 4    1  0.1043382E-007  0.6970593E+03  0.7818608E-02  0.1000963E+00
         -1   -1    0    0    0  501 -0.00000000000E+00  0.00000000000E+00  0.13674558145E+04  0.13674558145E+04  0.50400000000E-02 0.  1.
          1   -1    0    0  501    0  0.00000000000E+00 -0.00000000000E+00 -0.44071830235E+03  0.44071830238E+03  0.50400000000E-02 0. -1.
    8880023    1    1    2    0    0 -0.21645414011E+03  0.72311845829E+02  0.12207747832E+04  0.14057676463E+04  0.65864270000E+03 0.  1.
    8880022    1    1    2    0    0  0.21645414011E+03 -0.72311845829E+02 -0.29403727103E+03  0.40240647061E+03  0.15294330000E+03 0.  0.
<mgrwt>
<rscale>  0 0.55230155E+03</rscale>
<asrwt>0</asrwt>
<pdfrwt beam="1">  1        1 0.67802815E-01 0.69705925E+03</pdfrwt>
<pdfrwt beam="2">  1       -1 0.21037782E+00 0.69705925E+03</pdfrwt>
<totfact> 0.70139816E+00</totfact>
</mgrwt>
</event>
<event>
 4    1  0.1043382E-007  0.8580492E+03  0.7818608E-02  0.9597043E-01
         -1   -1    0    0    0  501 -0.00000000000E+00  0.00000000000E+00  0.73945068622E+03  0.73945068623E+03  0.50400000000E-02 0.  1.
          1   -1    0    0  501    0  0.00000000000E+00 -0.00000000000E+00 -0.14340001152E+04  0.14340001152E+04  0.50400000000E-02 0. -1.
    8880023    1    1    2    0    0 -0.48601936891E+03 -0.25733891239E+03  0.39410177646E+03  0.94422696385E+03  0.65864270000E+03 0.  0.
    8880022    1    1    2    0    0  0.48601936891E+03  0.25733891239E+03 -0.10886512055E+04  0.12292238376E+04  0.15294330000E+03 0.  0.
<mgrwt>
<rscale>  0 0.77492197E+03</rscale>
<asrwt>0</asrwt>
<pdfrwt beam="1">  1        1 0.22061540E+00 0.85804915E+03</pdfrwt>
<pdfrwt beam="2">  1       -1 0.11376164E+00 0.85804915E+03</pdfrwt>
<totfact> 0.52445404E+00</totfact>
</mgrwt>
</event>
<event>
 4    1  0.1043382E-007  0.6983158E+03  0.7818608E-02  0.1000426E+00
          1   -1    0    0  501    0  0.00000000000E+00  0.00000000000E+00  0.54756424432E+03  0.54756424435E+03  0.50400000000E-02 0. -1.
         -1   -1    0    0    0  501 -0.00000000000E+00 -0.00000000000E+00 -0.68521731573E+03  0.68521731575E+03  0.50400000000E-02 0.  1.
    8880023    1    1    2    0    0 -0.23059521816E+03  0.25701764523E+02 -0.43743275740E+03  0.82400992643E+03  0.65864270000E+03 0.  1.
    8880022    1    1    2    0    0  0.23059521816E+03 -0.25701764523E+02  0.29977968600E+03  0.40877163367E+03  0.15294330000E+03 0.  0.
<mgrwt>
<rscale>  0 0.55463799E+03</rscale>
<asrwt>0</asrwt>
<pdfrwt beam="1">  1        1 0.84240653E-01 0.69831579E+03</pdfrwt>
<pdfrwt beam="2">  1       -1 0.10541805E+00 0.69831579E+03</pdfrwt>
<totfact> 0.33872809E+01</totfact>
</mgrwt>
</event>
<event>
 4    1  0.1043382E-007  0.1020416E+04  0.7818608E-02  0.9355321E-01
         -1   -1    0    0    0  501 -0.00000000000E+00  0.00000000000E+00  0.13790160780E+04  0.13790160780E+04  0.50400000000E-02 0.  1.
          1   -1    0    0  501    0  0.00000000000E+00 -0.00000000000E+00 -0.60107154116E+03  0.60107154118E+03  0.50400000000E-02 0. -1.
    8880023    1    1    2    0    0 -0.18928340678E+03 -0.75604976430E+03  0.51811934927E+03  0.11444200805E+04  0.65864270000E+03 0.  0.
    8880022    1    1    2    0    0  0.18928340678E+03  0.75604976430E+03  0.25982518756E+03  0.83566753873E+03  0.15294330000E+03 0.  0.
<mgrwt>
<rscale>  0 0.95845608E+03</rscale>
<asrwt>0</asrwt>
<pdfrwt beam="1">  1        1 0.92472545E-01 0.10204164E+04</pdfrwt>
<pdfrwt beam="2">  1       -1 0.21215632E+00 0.10204164E+04</pdfrwt>
<totfact> 0.42579153E+00</totfact>
</mgrwt>
</event>
<event>
 4    1  0.1043382E-007  0.6596494E+03  0.7818608E-02  0.1024519E+00
          1   -1    0    0  501    0  0.00000000000E+00  0.00000000000E+00  0.19102400252E+04  0.19102400252E+04  0.50400000000E-02 0. -1.
         -1   -1    0    0    0  501 -0.00000000000E+00 -0.00000000000E+00 -0.38487807430E+03  0.38487807434E+03  0.50400000000E-02 0.  1.
    8880023    1    1    2    0    0 -0.29472964944E+02  0.21410676898E+02 -0.95607453604E+02  0.66654186980E+03  0.65864270000E+03 0.  1.
    8880022    1    1    2    0    0  0.29472964944E+02 -0.21410676898E+02  0.16209694045E+04  0.16285762298E+04  0.15294330000E+03 0.  0.
<mgrwt>
<rscale>  0 0.46090680E+03</rscale>
<asrwt>0</asrwt>
<pdfrwt beam="1">  1        1 0.29388308E+00 0.65964936E+03</pdfrwt>
<pdfrwt beam="2">  1       -1 0.59212012E-01 0.65964936E+03</pdfrwt>
<totfact> 0.10509169E+01</totfact>
</mgrwt>
</event>
<event>
 4    1  0.1043382E-007  0.1122298E+04  0.7818608E-02  0.9236627E-01
         -1   -1    0    0    0  501 -0.00000000000E+00  0.00000000000E+00  0.11444503258E+04  0.11444503258E+04  0.50400000000E-02 0.  1.
          1   -1    0    0  501    0  0.00000000000E+00 -0.00000000000E+00 -0.21692227941E+04  0.21692227941E+04  0.50400000000E-02 0. -1.
    8880023    1    1    2    0    0  0.90834153634E+03  0.25662867101E+02 -0.17921148623E+04  0.21145280361E+04  0.65864270000E+03 0. -1.
    8880022    1    1    2    0    0 -0.90834153634E+03 -0.25662867101E+02  0.76734239406E+03  0.11991450839E+04  0.15294330000E+03 0.  0.
<mgrwt>
<rscale>  0 0.10683247E+04</rscale>
<asrwt>0</asrwt>
<pdfrwt beam="1">  1        1 0.33372658E+00 0.11222981E+04</pdfrwt>
<pdfrwt beam="2">  1       -1 0.17606928E+00 0.11222981E+04</pdfrwt>
<totfact> 0.50508645E-01</totfact>
</mgrwt>
</event>
<event>
 4    1  0.1043382E-007  0.6655285E+03  0.7818608E-02  0.1019094E+00
         -1   -1    0    0    0  501 -0.00000000000E+00  0.00000000000E+00  0.21593120632E+03  0.21593120638E+03  0.50400000000E-02 0.  1.
          1   -1    0    0  501    0  0.00000000000E+00 -0.00000000000E+00 -0.13094278567E+04  0.13094278567E+04  0.50400000000E-02 0. -1.
    8880023    1    1    2    0    0  0.29347630343E+02 -0.90866169878E+02 -0.33377741105E+03  0.74453711165E+03  0.65864270000E+03 0.  1.
    8880022    1    1    2    0    0 -0.29347630343E+02  0.90866169878E+02 -0.75971923936E+03  0.78082195147E+03  0.15294330000E+03 0.  0.
<mgrwt>
<rscale>  0 0.48014944E+03</rscale>
<asrwt>0</asrwt>
<pdfrwt beam="1">  1        1 0.20145043E+00 0.66552847E+03</pdfrwt>
<pdfrwt beam="2">  1       -1 0.33220186E-01 0.66552847E+03</pdfrwt>
<totfact> 0.78265470E+01</totfact>
</mgrwt>
</event>
<event>
 4    1  0.1043382E-007  0.7821571E+03  0.7818608E-02  0.9750794E-01
          1   -1    0    0  501    0  0.00000000000E+00  0.00000000000E+00  0.87803955563E+03  0.87803955564E+03  0.50400000000E-02 0. -1.
         -1   -1    0    0    0  501 -0.00000000000E+00 -0.00000000000E+00 -0.54547861866E+03  0.54547861869E+03  0.50400000000E-02 0.  1.
    8880023    1    1    2    0    0 -0.10465643675E+03 -0.40866440852E+03 -0.11404071870E+03  0.79042713790E+03  0.65864270000E+03 0.  1.
    8880022    1    1    2    0    0  0.10465643675E+03  0.40866440852E+03  0.44660165566E+03  0.63309103643E+03  0.15294330000E+03 0.  0.
<mgrwt>
<rscale>  0 0.68071417E+03</rscale>
<asrwt>0</asrwt>
<pdfrwt beam="1">  1        1 0.13508301E+00 0.78215713E+03</pdfrwt>
<pdfrwt beam="2">  1       -1 0.83919789E-01 0.78215713E+03</pdfrwt>
<totfact> 0.27320496E+01</totfact>
</mgrwt>
</event>
<event>
 4    1  0.1043382E-007  0.7208251E+03  0.7818608E-02  0.9919804E-01
          1   -1    0    0  501    0  0.00000000000E+00  0.00000000000E+00  0.22581713371E+04  0.22581713371E+04  0.50400000000E-02 0. -1.
         -1   -1    0    0    0  501 -0.00000000000E+00 -0.00000000000E+00 -0.17487039925E+03  0.17487039932E+03  0.50400000000E-02 0.  1.
    8880023    1    1    2    0    0 -0.95852507243E+02  0.27675056710E+03  0.67855931508E+03  0.98996541853E+03  0.65864270000E+03 0.  1.
    8880022    1    1    2    0    0  0.95852507243E+02 -0.27675056710E+03  0.14047416227E+04  0.14430763179E+04  0.15294330000E+03 0.  0.
<mgrwt>
<rscale>  0 0.59311027E+03</rscale>
<asrwt>0</asrwt>
<pdfrwt beam="1">  1        1 0.34741097E+00 0.72082507E+03</pdfrwt>
<pdfrwt beam="2">  1       -1 0.26903139E-01 0.72082507E+03</pdfrwt>
<totfact> 0.25672959E+01</totfact>
</mgrwt>
</event>
<event>
 4    1  0.1043382E-007  0.7494752E+03  0.7818608E-02  0.9833159E-01
          1   -1    0    0  501    0  0.00000000000E+00  0.00000000000E+00  0.74549299110E+03  0.74549299112E+03  0.50400000000E-02 0. -1.
         -1   -1    0    0    0  501 -0.00000000000E+00 -0.00000000000E+00 -0.52575697231E+03  0.52575697234E+03  0.50400000000E-02 0.  1.
    8880023    1    1    2    0    0  0.35729122460E+03 -0.15679825518E+02 -0.11479339091E+03  0.75821540802E+03  0.65864270000E+03 0.  1.
    8880022    1    1    2    0    0 -0.35729122460E+03  0.15679825518E+02  0.33452940969E+03  0.51303455543E+03  0.15294330000E+03 0. -1.
<mgrwt>
<rscale>  0 0.63612997E+03</rscale>
<asrwt>0</asrwt>
<pdfrwt beam="1">  1        1 0.11469123E+00 0.74947520E+03</pdfrwt>
<pdfrwt beam="2">  1       -1 0.80885688E-01 0.74947520E+03</pdfrwt>
<totfact> 0.38573813E+01</totfact>
</mgrwt>
</event>
<event>
 4    1  0.1043382E-007  0.7523972E+03  0.7818608E-02  0.9825204E-01
         -1   -1    0    0    0  501 -0.00000000000E+00  0.00000000000E+00  0.11933488171E+04  0.11933488171E+04  0.50400000000E-02 0.  1.
          1   -1    0    0  501    0  0.00000000000E+00 -0.00000000000E+00 -0.61405039650E+03  0.61405039652E+03  0.50400000000E-02 0. -1.
    8880023    1    1    2    0    0 -0.30041294513E+02 -0.36247592597E+03  0.98631116149E+03  0.12405285929E+04  0.65864270000E+03 0.  1.
    8880022    1    1    2    0    0  0.30041294513E+02  0.36247592597E+03 -0.40701274093E+03  0.56687062067E+03  0.15294330000E+03 0.  0.
<mgrwt>
<rscale>  0 0.64027344E+03</rscale>
<asrwt>0</asrwt>
<pdfrwt beam="1">  1        1 0.94469291E-01 0.75239716E+03</pdfrwt>
<pdfrwt beam="2">  1       -1 0.18359213E+00 0.75239716E+03</pdfrwt>
<totfact> 0.67115629E+00</totfact>
</mgrwt>
</event>
<event>
 4    1  0.1043382E-007  0.8320632E+03  0.7818608E-02  0.9645331E-01
          1   -1    0    0  501    0  0.00000000000E+00  0.00000000000E+00  0.11662528565E+04  0.11662528565E+04  0.50400000000E-02 0. -1.
         -1   -1    0    0    0  501 -0.00000000000E+00 -0.00000000000E+00 -0.40109552106E+03  0.40109552109E+03  0.50400000000E-02 0.  1.
    8880023    1    1    2    0    0  0.48520883041E+03 -0.15195865695E+03  0.53095254838E+03  0.98703589470E+03  0.65864270000E+03 0. -1.
    8880022    1    1    2    0    0 -0.48520883041E+03  0.15195865695E+03  0.23420478707E+03  0.58031248292E+03  0.15294330000E+03 0.  1.
<mgrwt>
<rscale>  0 0.74367160E+03</rscale>
<asrwt>0</asrwt>
<pdfrwt beam="1">  1        1 0.17942351E+00 0.83206325E+03</pdfrwt>
<pdfrwt beam="2">  1       -1 0.61707005E-01 0.83206325E+03</pdfrwt>
<totfact> 0.30718731E+01</totfact>
</mgrwt>
</event>
<event>
 4    1  0.1043382E-007  0.6933720E+03  0.7818608E-02  0.1002589E+00
         -1   -1    0    0    0  501 -0.00000000000E+00  0.00000000000E+00  0.28822391507E+03  0.28822391511E+03  0.50400000000E-02 0.  1.
          1   -1    0    0  501    0  0.00000000000E+00 -0.00000000000E+00 -0.10356688526E+04  0.10356688526E+04  0.50400000000E-02 0. -1.
    8880023    1    1    2    0    0  0.16745497838E+03  0.13752605917E+03 -0.20985195282E+03  0.72443262979E+03  0.65864270000E+03 0.  1.
    8880022    1    1    2    0    0 -0.16745497838E+03 -0.13752605917E+03 -0.53759298469E+03  0.59946013791E+03  0.15294330000E+03 0.  0.
<mgrwt>
<rscale>  0 0.54529292E+03</rscale>
<asrwt>0</asrwt>
<pdfrwt beam="1">  1        1 0.15933367E+00 0.69337205E+03</pdfrwt>
<pdfrwt beam="2">  1       -1 0.44342141E-01 0.69337205E+03</pdfrwt>
<totfact> 0.73395382E+01</totfact>
</mgrwt>
</event>
<event>
 4    1  0.1043382E-007  0.1095238E+04  0.7818608E-02  0.9266376E-01
         -1   -1    0    0    0  501 -0.00000000000E+00  0.00000000000E+00  0.30274994999E+03  0.30274995003E+03  0.50400000000E-02 0.  1.
          1   -1    0    0  501    0  0.00000000000E+00 -0.00000000000E+00 -0.33940736534E+04  0.33940736534E+04  0.50400000000E-02 0. -1.
    8880023    1    1    2    0    0  0.79783678039E+03 -0.35943411723E+03 -0.13198472381E+04  0.17150928112E+04  0.65864270000E+03 0.  0.
    8880022    1    1    2    0    0 -0.79783678039E+03  0.35943411723E+03 -0.17714764653E+04  0.19817307922E+04  0.15294330000E+03 0.  0.
<mgrwt>
<rscale>  0 0.10393812E+04</rscale>
<asrwt>0</asrwt>
<pdfrwt beam="1">  1        1 0.52216515E+00 0.10952382E+04</pdfrwt>
<pdfrwt beam="2">  1       -1 0.46576918E-01 0.10952382E+04</pdfrwt>
<totfact> 0.14183241E+00</totfact>
</mgrwt>
</event>
<event>
 4    1  0.1043382E-007  0.8178469E+03  0.7818608E-02  0.9673458E-01
          1   -1    0    0  501    0  0.00000000000E+00  0.00000000000E+00  0.17756805848E+04  0.17756805848E+04  0.50400000000E-02 0. -1.
         -1   -1    0    0    0  501 -0.00000000000E+00 -0.00000000000E+00 -0.59787412580E+03  0.59787412582E+03  0.50400000000E-02 0.  1.
    8880023    1    1    2    0    0  0.45950848959E+03  0.15464571427E+03 -0.25221480376E+03  0.85585387914E+03  0.65864270000E+03 0.  0.
    8880022    1    1    2    0    0 -0.45950848959E+03 -0.15464571427E+03  0.14300212627E+04  0.15177008314E+04  0.15294330000E+03 0. -1.
<mgrwt>
<rscale>  0 0.72619312E+03</rscale>
<asrwt>0</asrwt>
<pdfrwt beam="1">  1        1 0.27318162E+00 0.81784690E+03</pdfrwt>
<pdfrwt beam="2">  1       -1 0.91980638E-01 0.81784690E+03</pdfrwt>
<totfact> 0.50394610E+00</totfact>
</mgrwt>
</event>
<event>
 4    1  0.1043382E-007  0.6842696E+03  0.7818608E-02  0.1007005E+00
          1   -1    0    0  501    0  0.00000000000E+00  0.00000000000E+00  0.65008479997E+03  0.65008479999E+03  0.50400000000E-02 0. -1.
         -1   -1    0    0    0  501 -0.00000000000E+00 -0.00000000000E+00 -0.74298614312E+03  0.74298614314E+03  0.50400000000E-02 0.  1.
    8880023    1    1    2    0    0  0.17830110095E+03 -0.51219629998E+02 -0.54913130078E+03  0.87736544544E+03  0.65864270000E+03 0.  1.
    8880022    1    1    2    0    0 -0.17830110095E+03  0.51219629998E+02  0.45622995763E+03  0.51570549769E+03  0.15294330000E+03 0.  0.
<mgrwt>
<rscale>  0 0.52682628E+03</rscale>
<asrwt>0</asrwt>
<pdfrwt beam="1">  1        1 0.10001305E+00 0.68426964E+03</pdfrwt>
<pdfrwt beam="2">  1       -1 0.11430556E+00 0.68426964E+03</pdfrwt>
<totfact> 0.21927769E+01</totfact>
</mgrwt>
</event>
<event>
 4    1  0.1043382E-007  0.6604046E+03  0.7818608E-02  0.1023746E+00
          1   -1    0    0  501    0  0.00000000000E+00  0.00000000000E+00  0.84347149033E+03  0.84347149034E+03  0.50400000000E-02 0. -1.
         -1   -1    0    0    0  501 -0.00000000000E+00 -0.00000000000E+00 -0.70401034289E+03  0.70401034291E+03  0.50400000000E-02 0.  1.
    8880023    1    1    2    0    0 -0.21761109555E+02  0.43017763030E+02 -0.53768280624E+03  0.85160852521E+03  0.65864270000E+03 0.  0.
    8880022    1    1    2    0    0  0.21761109555E+02 -0.43017763030E+02  0.67714395368E+03  0.69587330804E+03  0.15294330000E+03 0. -1.
<mgrwt>
<rscale>  0 0.46358827E+03</rscale>
<asrwt>0</asrwt>
<pdfrwt beam="1">  1        1 0.12976484E+00 0.66040463E+03</pdfrwt>
<pdfrwt beam="2">  1       -1 0.10830928E+00 0.66040463E+03</pdfrwt>
<totfact> 0.16713301E+01</totfact>
</mgrwt>
</event>
<event>
 4    1  0.1043382E-007  0.6872555E+03  0.7818608E-02  0.1005485E+00
          1   -1    0    0  501    0  0.00000000000E+00  0.00000000000E+00  0.24849880937E+04  0.24849880938E+04  0.50400000000E-02 0. -1.
         -1   -1    0    0    0  501 -0.00000000000E+00 -0.00000000000E+00 -0.22864526585E+03  0.22864526590E+03  0.50400000000E-02 0.  1.
    8880023    1    1    2    0    0 -0.18953463827E+03  0.50858666640E+02  0.31429398361E+03  0.75571217899E+03  0.65864270000E+03 0.  1.
    8880022    1    1    2    0    0  0.18953463827E+03 -0.50858666640E+02  0.19420488443E+04  0.19579211807E+04  0.15294330000E+03 0.  0.
<mgrwt>
<rscale>  0 0.53309113E+03</rscale>
<asrwt>0</asrwt>
<pdfrwt beam="1">  1        1 0.38230585E+00 0.68725555E+03</pdfrwt>
<pdfrwt beam="2">  1       -1 0.35176195E-01 0.68725555E+03</pdfrwt>
<totfact> 0.11348131E+01</totfact>
</mgrwt>
</event>
<event>
 4    1  0.1043382E-007  0.8274315E+03  0.7818608E-02  0.9654351E-01
         -1   -1    0    0    0  501 -0.00000000000E+00  0.00000000000E+00  0.21943809931E+03  0.21943809937E+03  0.50400000000E-02 0.  1.
          1   -1    0    0  501    0  0.00000000000E+00 -0.00000000000E+00 -0.26014003273E+04  0.26014003273E+04  0.50400000000E-02 0. -1.
    8880023    1    1    2    0    0  0.36661535046E+03  0.34121230899E+03 -0.78632321070E+03  0.11414670617E+04  0.65864270000E+03 0.  0.
    8880022    1    1    2    0    0 -0.36661535046E+03 -0.34121230899E+03 -0.15956390173E+04  0.16793713650E+04  0.15294330000E+03 0.  0.
<mgrwt>
<rscale>  0 0.73801005E+03</rscale>
<asrwt>0</asrwt>
<pdfrwt beam="1">  1        1 0.40021541E+00 0.82743148E+03</pdfrwt>
<pdfrwt beam="2">  1       -1 0.33759709E-01 0.82743148E+03</pdfrwt>
<totfact> 0.99334978E+00</totfact>
</mgrwt>
</event>
<event>
 4    1  0.1043382E-007  0.8336095E+03  0.7818608E-02  0.9642350E-01
         -1   -1    0    0    0  501 -0.00000000000E+00  0.00000000000E+00  0.75711305364E+03  0.75711305366E+03  0.50400000000E-02 0.  1.
          1   -1    0    0  501    0  0.00000000000E+00 -0.00000000000E+00 -0.87009876598E+03  0.87009876599E+03  0.50400000000E-02 0. -1.
    8880023    1    1    2    0    0  0.25875259100E+03  0.44061506740E+03  0.36592179571E+03  0.91038646069E+03  0.65864270000E+03 0.  0.
    8880022    1    1    2    0    0 -0.25875259100E+03 -0.44061506740E+03 -0.47890750804E+03  0.71682535896E+03  0.15294330000E+03 0.  0.
<mgrwt>
<rscale>  0 0.74555490E+03</rscale>
<asrwt>0</asrwt>
<pdfrwt beam="1">  1        1 0.13386135E+00 0.83360947E+03</pdfrwt>
<pdfrwt beam="2">  1       -1 0.11647893E+00 0.83360947E+03</pdfrwt>
<totfact> 0.13075646E+01</totfact>
</mgrwt>
</event>
<event>
 4    1  0.1043382E-007  0.6586729E+03  0.7818608E-02  0.1025559E+00
         -1   -1    0    0    0  501 -0.00000000000E+00  0.00000000000E+00  0.68976945807E+03  0.68976945809E+03  0.50400000000E-02 0.  1.
          1   -1    0    0  501    0  0.00000000000E+00 -0.00000000000E+00 -0.68811764921E+03  0.68811764922E+03  0.50400000000E-02 0. -1.
    8880023    1    1    2    0    0  0.53261991918E+00 -0.62812606422E+01  0.51886789088E+03  0.83849498053E+03  0.65864270000E+03 0.  1.
    8880022    1    1    2    0    0 -0.53261991918E+00  0.62812606422E+01 -0.51721608202E+03  0.53939212678E+03  0.15294330000E+03 0.  0.
<mgrwt>
<rscale>  0 0.45732726E+03</rscale>
<asrwt>0</asrwt>
<pdfrwt beam="1">  1        1 0.10586425E+00 0.65867287E+03</pdfrwt>
<pdfrwt beam="2">  1       -1 0.10611838E+00 0.65867287E+03</pdfrwt>
<totfact> 0.24079434E+01</totfact>
</mgrwt>
</event>
<event>
 4    1  0.1043382E-007  0.6766991E+03  0.7818608E-02  0.1011256E+00
          1   -1    0    0  501    0  0.00000000000E+00  0.00000000000E+00  0.28875495130E+03  0.28875495134E+03  0.50400000000E-02 0. -1.
         -1   -1    0    0    0  501 -0.00000000000E+00 -0.00000000000E+00 -0.16444469901E+04  0.16444469901E+04  0.50400000000E-02 0.  1.
    8880023    1    1    2    0    0 -0.27096902749E+02  0.15289632551E+03 -0.15176379725E+04  0.16616698680E+04  0.65864270000E+03 0.  1.
    8880022    1    1    2    0    0  0.27096902749E+02 -0.15289632551E+03  0.16194593363E+03  0.27153207348E+03  0.15294330000E+03 0.  0.
<mgrwt>
<rscale>  0 0.50978501E+03</rscale>
<asrwt>0</asrwt>
<pdfrwt beam="1">  1        1 0.44423840E-01 0.67669915E+03</pdfrwt>
<pdfrwt beam="2">  1       -1 0.25299184E+00 0.67669915E+03</pdfrwt>
<totfact> 0.64423718E+00</totfact>
</mgrwt>
</event>
<event>
 4    1  0.1043382E-007  0.7481227E+03  0.7818608E-02  0.9836888E-01
          1   -1    0    0  501    0  0.00000000000E+00  0.00000000000E+00  0.11504464831E+04  0.11504464831E+04  0.50400000000E-02 0. -1.
         -1   -1    0    0    0  501 -0.00000000000E+00 -0.00000000000E+00 -0.58467593486E+03  0.58467593488E+03  0.50400000000E-02 0.  1.
    8880023    1    1    2    0    0 -0.11729242575E+03 -0.33484308458E+03 -0.28513024144E+03  0.80061655321E+03  0.65864270000E+03 0.  1.
    8880022    1    1    2    0    0  0.11729242575E+03  0.33484308458E+03  0.85090078966E+03  0.93450586477E+03  0.15294330000E+03 0.  0.
<mgrwt>
<rscale>  0 0.63419945E+03</rscale>
<asrwt>0</asrwt>
<pdfrwt beam="1">  1        1 0.17699176E+00 0.74812272E+03</pdfrwt>
<pdfrwt beam="2">  1       -1 0.89950146E-01 0.74812272E+03</pdfrwt>
<totfact> 0.14514434E+01</totfact>
</mgrwt>
</event>
<event>
 4    1  0.1043382E-007  0.6731103E+03  0.7818608E-02  0.1013525E+00
         -1   -1    0    0    0  501 -0.00000000000E+00  0.00000000000E+00  0.53663205164E+03  0.53663205167E+03  0.50400000000E-02 0.  1.
          1   -1    0    0  501    0  0.00000000000E+00 -0.00000000000E+00 -0.78686840584E+03  0.78686840586E+03  0.50400000000E-02 0. -1.
    8880023    1    1    2    0    0  0.57143063737E+02 -0.12649885229E+03  0.29913532212E+03  0.73658634020E+03  0.65864270000E+03 0.  0.
    8880022    1    1    2    0    0 -0.57143063737E+02  0.12649885229E+03 -0.54937167631E+03  0.58691411733E+03  0.15294330000E+03 0.  0.
<mgrwt>
<rscale>  0 0.50097487E+03</rscale>
<asrwt>0</asrwt>
<pdfrwt beam="1">  1        1 0.12105668E+00 0.67311031E+03</pdfrwt>
<pdfrwt beam="2">  1       -1 0.82558778E-01 0.67311031E+03</pdfrwt>
<totfact> 0.34209543E+01</totfact>
</mgrwt>
</event>
<event>
 4    1  0.1043382E-007  0.1228128E+04  0.7818608E-02  0.9130253E-01
         -1   -1    0    0    0  501 -0.00000000000E+00  0.00000000000E+00  0.10105154330E+04  0.10105154330E+04  0.50400000000E-02 0.  1.
          1   -1    0    0  501    0  0.00000000000E+00 -0.00000000000E+00 -0.13844934444E+04  0.13844934444E+04  0.50400000000E-02 0. -1.
    8880023    1    1    2    0    0  0.47026932971E+03 -0.92376104449E+03  0.12498843063E+03  0.12344715565E+04  0.65864270000E+03 0.  0.
    8880022    1    1    2    0    0 -0.47026932971E+03  0.92376104449E+03 -0.49896644201E+03  0.11605373208E+04  0.15294330000E+03 0.  0.
<mgrwt>
<rscale>  0 0.11803261E+04</rscale>
<asrwt>0</asrwt>
<pdfrwt beam="1">  1        1 0.21299899E+00 0.12281278E+04</pdfrwt>
<pdfrwt beam="2">  1       -1 0.15546391E+00 0.12281278E+04</pdfrwt>
<totfact> 0.24382073E+00</totfact>
</mgrwt>
</event>
<event>
 4    1  0.1043382E-007  0.6892946E+03  0.7818608E-02  0.1004490E+00
          1   -1    0    0  501    0  0.00000000000E+00  0.00000000000E+00  0.31899331313E+04  0.31899331313E+04  0.50400000000E-02 0. -1.
         -1   -1    0    0    0  501 -0.00000000000E+00 -0.00000000000E+00 -0.13962528148E+03  0.13962528157E+03  0.50400000000E-02 0.  1.
    8880023    1    1    2    0    0 -0.20326494459E+03  0.47667636458E+00  0.76339772376E+03  0.10285441925E+04  0.65864270000E+03 0.  0.
    8880022    1    1    2    0    0  0.20326494459E+03 -0.47667636458E+00  0.22869101260E+04  0.23010142204E+04  0.15294330000E+03 0.  0.
<mgrwt>
<rscale>  0 0.53724681E+03</rscale>
<asrwt>0</asrwt>
<pdfrwt beam="1">  1        1 0.49075893E+00 0.68929462E+03</pdfrwt>
<pdfrwt beam="2">  1       -1 0.21480813E-01 0.68929462E+03</pdfrwt>
<totfact> 0.84648387E+00</totfact>
</mgrwt>
</event>
<event>
 4    1  0.1043382E-007  0.1089766E+04  0.7818608E-02  0.9272536E-01
          1   -1    0    0  501    0  0.00000000000E+00  0.00000000000E+00  0.20338284473E+04  0.20338284473E+04  0.50400000000E-02 0. -1.
         -1   -1    0    0    0  501 -0.00000000000E+00 -0.00000000000E+00 -0.61635196924E+03  0.61635196926E+03  0.50400000000E-02 0.  1.
    8880023    1    1    2    0    0 -0.82329407321E+03 -0.27562145844E+03  0.14097141249E+03  0.10988464245E+04  0.65864270000E+03 0.  0.
    8880022    1    1    2    0    0  0.82329407321E+03  0.27562145844E+03  0.12765050656E+04  0.15513339920E+04  0.15294330000E+03 0.  0.
<mgrwt>
<rscale>  0 0.10335100E+04</rscale>
<asrwt>0</asrwt>
<pdfrwt beam="1">  1        1 0.31289669E+00 0.10897663E+04</pdfrwt>
<pdfrwt beam="2">  1       -1 0.94823379E-01 0.10897663E+04</pdfrwt>
<totfact> 0.30386682E+00</totfact>
</mgrwt>
</event>
<event>
 4    1  0.1043382E-007  0.6958636E+03  0.7818608E-02  0.1001481E+00
         -1   -1    0    0    0  501 -0.00000000000E+00  0.00000000000E+00  0.15287785446E+04  0.15287785446E+04  0.50400000000E-02 0.  1.
          1   -1    0    0  501    0  0.00000000000E+00 -0.00000000000E+00 -0.35673168823E+03  0.35673168827E+03  0.50400000000E-02 0. -1.
    8880023    1    1    2    0    0 -0.10454395670E+03 -0.19871202600E+03  0.13785749666E+04  0.15442457877E+04  0.65864270000E+03 0.  1.
    8880022    1    1    2    0    0  0.10454395670E+03  0.19871202600E+03 -0.20652811025E+03  0.34126444511E+03  0.15294330000E+03 0.  0.
<mgrwt>
<rscale>  0 0.55005445E+03</rscale>
<asrwt>0</asrwt>
<pdfrwt beam="1">  1        1 0.54881799E-01 0.69586357E+03</pdfrwt>
<pdfrwt beam="2">  1       -1 0.23519669E+00 0.69586357E+03</pdfrwt>
<totfact> 0.63617295E+00</totfact>
</mgrwt>
</event>
<event>
 4    1  0.1043382E-007  0.7730810E+03  0.7818608E-02  0.9772348E-01
          1   -1    0    0  501    0  0.00000000000E+00  0.00000000000E+00  0.51017966461E+03  0.51017966464E+03  0.50400000000E-02 0. -1.
         -1   -1    0    0    0  501 -0.00000000000E+00 -0.00000000000E+00 -0.75405323832E+03  0.75405323833E+03  0.50400000000E-02 0.  1.
    8880023    1    1    2    0    0 -0.31604787178E+03  0.25289864662E+03 -0.29722428186E+03  0.82824903424E+03  0.65864270000E+03 0.  0.
    8880022    1    1    2    0    0  0.31604787178E+03 -0.25289864662E+03  0.53350708155E+02  0.43598386874E+03  0.15294330000E+03 0.  0.
<mgrwt>
<rscale>  0 0.66867841E+03</rscale>
<asrwt>0</asrwt>
<pdfrwt beam="1">  1        1 0.78489180E-01 0.77308097E+03</pdfrwt>
<pdfrwt beam="2">  1       -1 0.11600819E+00 0.77308097E+03</pdfrwt>
<totfact> 0.29598516E+01</totfact>
</mgrwt>
</event>
<event>
 4    1  0.1043382E-007  0.7067645E+03  0.7818608E-02  0.9970218E-01
         -1   -1    0    0    0  501 -0.00000000000E+00  0.00000000000E+00  0.14392108824E+04  0.14392108824E+04  0.50400000000E-02 0.  1.
          1   -1    0    0  501    0  0.00000000000E+00 -0.00000000000E+00 -0.61802805171E+03  0.61802805173E+03  0.50400000000E-02 0. -1.
    8880023    1    1    2    0    0 -0.34346913992E+02  0.25401988536E+03  0.13076898301E+04  0.14864618093E+04  0.65864270000E+03 0.  1.
    8880022    1    1    2    0    0  0.34346913992E+02 -0.25401988536E+03 -0.48650699942E+03  0.57077712477E+03  0.15294330000E+03 0.  0.
<mgrwt>
<rscale>  0 0.56975639E+03</rscale>
<asrwt>0</asrwt>
<pdfrwt beam="1">  1        1 0.95081240E-01 0.70676447E+03</pdfrwt>
<pdfrwt beam="2">  1       -1 0.22141706E+00 0.70676447E+03</pdfrwt>
<totfact> 0.36969618E+00</totfact>
</mgrwt>
</event>
<event>
 4    1  0.1043382E-007  0.7194964E+03  0.7818608E-02  0.9924294E-01
          1   -1    0    0  501    0  0.00000000000E+00  0.00000000000E+00  0.82090827412E+03  0.82090827414E+03  0.50400000000E-02 0. -1.
         -1   -1    0    0    0  501 -0.00000000000E+00 -0.00000000000E+00 -0.63888459003E+03  0.63888459005E+03  0.50400000000E-02 0.  1.
    8880023    1    1    2    0    0 -0.31939585333E+02  0.28782750305E+03 -0.37671187943E+03  0.81214952748E+03  0.65864270000E+03 0.  0.
    8880022    1    1    2    0    0  0.31939585333E+02 -0.28782750305E+03  0.55873556352E+03  0.64764333671E+03  0.15294330000E+03 0.  0.
<mgrwt>
<rscale>  0 0.59098218E+03</rscale>
<asrwt>0</asrwt>
<pdfrwt beam="1">  1        1 0.12629358E+00 0.71949636E+03</pdfrwt>
<pdfrwt beam="2">  1       -1 0.98289937E-01 0.71949636E+03</pdfrwt>
<totfact> 0.21673272E+01</totfact>
</mgrwt>
</event>
<event>
 4    1  0.1043382E-007  0.1120232E+04  0.7818608E-02  0.9238858E-01
         -1   -1    0    0    0  501 -0.00000000000E+00  0.00000000000E+00  0.19278834448E+04  0.19278834448E+04  0.50400000000E-02 0.  1.
          1   -1    0    0  501    0  0.00000000000E+00 -0.00000000000E+00 -0.80065222402E+03  0.80065222404E+03  0.50400000000E-02 0. -1.
    8880023    1    1    2    0    0  0.88836617578E+03  0.17864477270E+03 -0.17590926765E+03  0.11339588589E+04  0.65864270000E+03 0.  0.
    8880022    1    1    2    0    0 -0.88836617578E+03 -0.17864477270E+03  0.13031404884E+04  0.15945768099E+04  0.15294330000E+03 0.  0.
<mgrwt>
<rscale>  0 0.10661193E+04</rscale>
<asrwt>0</asrwt>
<pdfrwt beam="1">  1        1 0.12317727E+00 0.11202315E+04</pdfrwt>
<pdfrwt beam="2">  1       -1 0.29659745E+00 0.11202315E+04</pdfrwt>
<totfact> 0.76463783E-01</totfact>
</mgrwt>
</event>
<event>
 4    1  0.1043382E-007  0.9287349E+03  0.7818608E-02  0.9481394E-01
          1   -1    0    0  501    0  0.00000000000E+00  0.00000000000E+00  0.96971399441E+03  0.96971399443E+03  0.50400000000E-02 0. -1.
         -1   -1    0    0    0  501 -0.00000000000E+00 -0.00000000000E+00 -0.19177630182E+04  0.19177630183E+04  0.50400000000E-02 0.  1.
    8880023    1    1    2    0    0  0.56337473253E+03 -0.33368732526E+03 -0.16637769215E+04  0.19054401515E+04  0.65864270000E+03 0.  1.
    8880022    1    1    2    0    0 -0.56337473253E+03  0.33368732526E+03  0.71572789762E+03  0.98203686119E+03  0.15294330000E+03 0.  0.
<mgrwt>
<rscale>  0 0.85669600E+03</rscale>
<asrwt>0</asrwt>
<pdfrwt beam="1">  1        1 0.14918677E+00 0.92873491E+03</pdfrwt>
<pdfrwt beam="2">  1       -1 0.29504046E+00 0.92873491E+03</pdfrwt>
<totfact> 0.58283305E-01</totfact>
</mgrwt>
</event>
<event>
 4    1  0.1043382E-007  0.1003986E+04  0.7818608E-02  0.9376362E-01
         -1   -1    0    0    0  501 -0.00000000000E+00  0.00000000000E+00  0.74852246845E+03  0.74852246847E+03  0.50400000000E-02 0.  1.
          1   -1    0    0  501    0  0.00000000000E+00 -0.00000000000E+00 -0.23127580167E+04  0.23127580167E+04  0.50400000000E-02 0. -1.
    8880023    1    1    2    0    0  0.81259461110E+02  0.75337499242E+03  0.29609190970E+03  0.10467366452E+04  0.65864270000E+03 0.  0.
    8880022    1    1    2    0    0 -0.81259461110E+02 -0.75337499242E+03 -0.18603274579E+04  0.20145438399E+04  0.15294330000E+03 0.  0.
<mgrwt>
<rscale>  0 0.94046817E+03</rscale>
<asrwt>0</asrwt>
<pdfrwt beam="1">  1        1 0.35580892E+00 0.10039857E+04</pdfrwt>
<pdfrwt beam="2">  1       -1 0.11515730E+00 0.10039857E+04</pdfrwt>
<totfact> 0.12664312E+00</totfact>
</mgrwt>
</event>
<event>
 4    1  0.1043382E-007  0.6850519E+03  0.7818608E-02  0.1006599E+00
         -1   -1    0    0    0  501 -0.00000000000E+00  0.00000000000E+00  0.33170658549E+03  0.33170658552E+03  0.50400000000E-02 0.  1.
          1   -1    0    0  501    0  0.00000000000E+00 -0.00000000000E+00 -0.20526037770E+04  0.20526037770E+04  0.50400000000E-02 0. -1.
    8880023    1    1    2    0    0  0.17646998782E+03  0.65910413278E+02 -0.40245787595E+02  0.68623302811E+03  0.65864270000E+03 0.  0.
    8880022    1    1    2    0    0 -0.17646998782E+03 -0.65910413278E+02 -0.16806514039E+04  0.16980773344E+04  0.15294330000E+03 0.  0.
<mgrwt>
<rscale>  0 0.52848936E+03</rscale>
<asrwt>0</asrwt>
<pdfrwt beam="1">  1        1 0.31578519E+00 0.68505186E+03</pdfrwt>
<pdfrwt beam="2">  1       -1 0.51031784E-01 0.68505186E+03</pdfrwt>
<totfact> 0.11200605E+01</totfact>
</mgrwt>
</event>
<event>
 4    1  0.1043382E-007  0.7417940E+03  0.7818608E-02  0.9854752E-01
          1   -1    0    0  501    0  0.00000000000E+00  0.00000000000E+00  0.14517303976E+04  0.14517303976E+04  0.50400000000E-02 0. -1.
         -1   -1    0    0    0  501 -0.00000000000E+00 -0.00000000000E+00 -0.48014131213E+03  0.48014131216E+03  0.50400000000E-02 0.  1.
    8880023    1    1    2    0    0  0.77824988128E+02  0.33225205510E+03 -0.14367829098E+03  0.75558044870E+03  0.65864270000E+03 0.  1.
    8880022    1    1    2    0    0 -0.77824988128E+02 -0.33225205510E+03  0.11152673764E+04  0.11762912610E+04  0.15294330000E+03 0.  0.
<mgrwt>
<rscale>  0 0.62505229E+03</rscale>
<asrwt>0</asrwt>
<pdfrwt beam="1">  1        1 0.22334313E+00 0.74179402E+03</pdfrwt>
<pdfrwt beam="2">  1       -1 0.73867896E-01 0.74179402E+03</pdfrwt>
<totfact> 0.13532889E+01</totfact>
</mgrwt>
</event>
<event>
 4    1  0.1043382E-007  0.1554498E+04  0.7818608E-02  0.8872082E-01
         -1   -1    0    0    0  501 -0.00000000000E+00  0.00000000000E+00  0.22557512337E+04  0.22557512337E+04  0.50400000000E-02 0.  1.
          1   -1    0    0  501    0  0.00000000000E+00 -0.00000000000E+00 -0.18433462183E+04  0.18433462183E+04  0.50400000000E-02 0. -1.
    8880023    1    1    2    0    0 -0.78953472913E+03  0.11658850485E+04  0.16146232590E+04  0.22413102216E+04  0.65864270000E+03 0.  0.
    8880022    1    1    2    0    0  0.78953472913E+03 -0.11658850485E+04 -0.12022182436E+04  0.18577872303E+04  0.15294330000E+03 0.  0.
<mgrwt>
<rscale>  0 0.15187460E+04</rscale>
<asrwt>0</asrwt>
<pdfrwt beam="1">  1        1 0.28359173E+00 0.15544977E+04</pdfrwt>
<pdfrwt beam="2">  1       -1 0.34703865E+00 0.15544977E+04</pdfrwt>
<totfact> 0.58030659E-02</totfact>
</mgrwt>
</event>
<event>
 4    1  0.1043382E-007  0.6613849E+03  0.7818608E-02  0.1022780E+00
         -1   -1    0    0    0  501 -0.00000000000E+00  0.00000000000E+00  0.11948714285E+03  0.11948714295E+03  0.50400000000E-02 0.  1.
          1   -1    0    0  501    0  0.00000000000E+00 -0.00000000000E+00 -0.31058578100E+04  0.31058578100E+04  0.50400000000E-02 0. -1.
    8880023    1    1    2    0    0  0.17856101682E+02  0.57453380147E+02 -0.82337265050E+03  0.10561119539E+04  0.65864270000E+03 0.  1.
    8880022    1    1    2    0    0 -0.17856101682E+02 -0.57453380147E+02 -0.21629980167E+04  0.21692329991E+04  0.15294330000E+03 0.  0.
<mgrwt>
<rscale>  0 0.46696469E+03</rscale>
<asrwt>0</asrwt>
<pdfrwt beam="1">  1        1 0.47782422E+00 0.66138486E+03</pdfrwt>
<pdfrwt beam="2">  1       -1 0.18382640E-01 0.66138486E+03</pdfrwt>
<totfact> 0.12697289E+01</totfact>
</mgrwt>
</event>
<event>
 4    1  0.1043382E-007  0.9715306E+03  0.7818608E-02  0.9419790E-01
          1   -1    0    0  501    0  0.00000000000E+00  0.00000000000E+00  0.60938345524E+03  0.60938345526E+03  0.50400000000E-02 0. -1.
         -1   -1    0    0    0  501 -0.00000000000E+00 -0.00000000000E+00 -0.16850540196E+04  0.16850540196E+04  0.50400000000E-02 0.  1.
    8880023    1    1    2    0    0 -0.16058403836E+03  0.69589817680E+03  0.26892359006E+02  0.97190272717E+03  0.65864270000E+03 0. -1.
    8880022    1    1    2    0    0  0.16058403836E+03 -0.69589817680E+03 -0.11025629233E+04  0.13225347477E+04  0.15294330000E+03 0.  0.
<mgrwt>
<rscale>  0 0.90464753E+03</rscale>
<asrwt>0</asrwt>
<pdfrwt beam="1">  1        1 0.93751302E-01 0.97153060E+03</pdfrwt>
<pdfrwt beam="2">  1       -1 0.25923908E+00 0.97153060E+03</pdfrwt>
<totfact> 0.20583717E+00</totfact>
</mgrwt>
</event>
<event>
 4    1  0.1043382E-007  0.9355437E+03  0.7818608E-02  0.9471226E-01
          1   -1    0    0  501    0  0.00000000000E+00  0.00000000000E+00  0.20513345776E+04  0.20513345776E+04  0.50400000000E-02 0. -1.
         -1   -1    0    0    0  501 -0.00000000000E+00 -0.00000000000E+00 -0.34098103863E+03  0.34098103867E+03  0.50400000000E-02 0.  1.
    8880023    1    1    2    0    0  0.65417446543E+03  0.11613571982E+03  0.12822771656E+04  0.15872859454E+04  0.65864270000E+03 0.  1.
    8880022    1    1    2    0    0 -0.65417446543E+03 -0.11613571982E+03  0.42807637339E+03  0.80502967094E+03  0.15294330000E+03 0.  0.
<mgrwt>
<rscale>  0 0.86438862E+03</rscale>
<asrwt>0</asrwt>
<pdfrwt beam="1">  1        1 0.31558994E+00 0.93554366E+03</pdfrwt>
<pdfrwt beam="2">  1       -1 0.52458621E-01 0.93554366E+03</pdfrwt>
<totfact> 0.10266568E+01</totfact>
</mgrwt>
</event>
<event>
 4    1  0.1043382E-007  0.9244772E+03  0.7818608E-02  0.9487828E-01
         -1   -1    0    0    0  501 -0.00000000000E+00  0.00000000000E+00  0.26449601613E+03  0.26449601618E+03  0.50400000000E-02 0.  1.
          1   -1    0    0  501    0  0.00000000000E+00 -0.00000000000E+00 -0.24168187407E+04  0.24168187407E+04  0.50400000000E-02 0. -1.
    8880023    1    1    2    0    0  0.13771374519E+03 -0.63394222321E+03 -0.11162337535E+04  0.14493570356E+04  0.65864270000E+03 0.  0.
    8880022    1    1    2    0    0 -0.13771374519E+03  0.63394222321E+03 -0.10360889711E+04  0.12319577213E+04  0.15294330000E+03 0.  0.
<mgrwt>
<rscale>  0 0.85187188E+03</rscale>
<asrwt>0</asrwt>
<pdfrwt beam="1">  1        1 0.37181825E+00 0.92447716E+03</pdfrwt>
<pdfrwt beam="2">  1       -1 0.40691696E-01 0.92447716E+03</pdfrwt>
<totfact> 0.93676138E+00</totfact>
</mgrwt>
</event>
<event>
 4    1  0.1043382E-007  0.6905048E+03  0.7818608E-02  0.1003914E+00
          1   -1    0    0  501    0  0.00000000000E+00  0.00000000000E+00  0.12674208505E+04  0.12674208505E+04  0.50400000000E-02 0. -1.
         -1   -1    0    0    0  501 -0.00000000000E+00 -0.00000000000E+00 -0.17814345562E+03  0.17814345569E+03  0.50400000000E-02 0.  1.
    8880023    1    1    2    0    0  0.20306417262E+03  0.41852600580E+02  0.74851375100E+03  0.10183662112E+04  0.65864270000E+03 0.  1.
    8880022    1    1    2    0    0 -0.20306417262E+03 -0.41852600580E+02  0.34076364388E+03  0.42719809502E+03  0.15294330000E+03 0. -1.
<mgrwt>
<rscale>  0 0.53967008E+03</rscale>
<asrwt>0</asrwt>
<pdfrwt beam="1">  1        1 0.19498782E+00 0.69050482E+03</pdfrwt>
<pdfrwt beam="2">  1       -1 0.27406686E-01 0.69050482E+03</pdfrwt>
<totfact> 0.11687937E+02</totfact>
</mgrwt>
</event>
<event>
 4    1  0.1043382E-007  0.7380528E+03  0.7818608E-02  0.9865656E-01
          1   -1    0    0  501    0  0.00000000000E+00  0.00000000000E+00  0.32067391931E+03  0.32067391935E+03  0.50400000000E-02 0. -1.
         -1   -1    0    0    0  501 -0.00000000000E+00 -0.00000000000E+00 -0.18324073258E+04  0.18324073258E+04  0.50400000000E-02 0.  1.
    8880023    1    1    2    0    0 -0.20362104034E+02 -0.33241096093E+03 -0.16121810383E+04  0.17730904006E+04  0.65864270000E+03 0.  0.
    8880022    1    1    2    0    0  0.20362104034E+02  0.33241096093E+03  0.10044763176E+03  0.37999084459E+03  0.15294330000E+03 0.  0.
<mgrwt>
<rscale>  0 0.61955005E+03</rscale>
<asrwt>0</asrwt>
<pdfrwt beam="1">  1        1 0.49334450E-01 0.73805275E+03</pdfrwt>
<pdfrwt beam="2">  1       -1 0.28190881E+00 0.73805275E+03</pdfrwt>
<totfact> 0.36391486E+00</totfact>
</mgrwt>
</event>
<event>
 4    1  0.1043382E-007  0.1075004E+04  0.7818608E-02  0.9289410E-01
         -1   -1    0    0    0  501 -0.00000000000E+00  0.00000000000E+00  0.52653199591E+03  0.52653199594E+03  0.50400000000E-02 0.  1.
          1   -1    0    0  501    0  0.00000000000E+00 -0.00000000000E+00 -0.18527491689E+04  0.18527491689E+04  0.50400000000E-02 0. -1.
    8880023    1    1    2    0    0  0.23181063016E+03 -0.81736574844E+03 -0.50464032902E+03  0.11875584208E+04  0.65864270000E+03 0.  1.
    8880022    1    1    2    0    0 -0.23181063016E+03  0.81736574844E+03 -0.82157684393E+03  0.11917227440E+04  0.15294330000E+03 0. -1.
<mgrwt>
<rscale>  0 0.10176365E+04</rscale>
<asrwt>0</asrwt>
<pdfrwt beam="1">  1        1 0.28503833E+00 0.10750038E+04</pdfrwt>
<pdfrwt beam="2">  1       -1 0.81004923E-01 0.10750038E+04</pdfrwt>
<totfact> 0.57003837E+00</totfact>
</mgrwt>
</event>
<event>
 4    1  0.1043382E-007  0.9765650E+03  0.7818608E-02  0.9412881E-01
          1   -1    0    0  501    0  0.00000000000E+00  0.00000000000E+00  0.19657179534E+04  0.19657179534E+04  0.50400000000E-02 0. -1.
         -1   -1    0    0    0  501 -0.00000000000E+00 -0.00000000000E+00 -0.53108754638E+03  0.53108754640E+03  0.50400000000E-02 0.  1.
    8880023    1    1    2    0    0  0.72066211029E+03 -0.22696396582E+02  0.11239291977E+03  0.98301138259E+03  0.65864270000E+03 0. -1.
    8880022    1    1    2    0    0 -0.72066211029E+03  0.22696396582E+02  0.13222374873E+04  0.15137941172E+04  0.15294330000E+03 0.  0.
<mgrwt>
<rscale>  0 0.91023158E+03</rscale>
<asrwt>0</asrwt>
<pdfrwt beam="1">  1        1 0.30241814E+00 0.97656501E+03</pdfrwt>
<pdfrwt beam="2">  1       -1 0.81705777E-01 0.97656501E+03</pdfrwt>
<totfact> 0.47535921E+00</totfact>
</mgrwt>
</event>
<event>
 4    1  0.1073812E-007  0.6691691E+03  0.7818608E-02  0.1016266E+00
         -1   -1    0    0    0  501 -0.00000000000E+00  0.00000000000E+00  0.13099565541E+04  0.13099565541E+04  0.50400000000E-02 0.  1.
          1   -1    0    0  501    0  0.00000000000E+00 -0.00000000000E+00 -0.73569384989E+03  0.73569384991E+03  0.50400000000E-02 0. -1.
    8880023    1    1    2    0    0  0.10252547256E+03  0.58869796968E+02  0.12091606274E+04  0.13819756708E+04  0.65864270000E+03 0.  1.
    8880022    1    1    2    0    0 -0.10252547256E+03 -0.58869796968E+02 -0.63489792324E+03  0.66367473319E+03  0.15294330000E+03 0.  0.
<mgrwt>
<rscale>  0 0.49058644E+03</rscale>
<asrwt>0</asrwt>
<pdfrwt beam="1">  1        1 0.11318367E+00 0.66916914E+03</pdfrwt>
<pdfrwt beam="2">  1       -1 0.20153178E+00 0.66916914E+03</pdfrwt>
<totfact> 0.39009589E+00</totfact>
</mgrwt>
</event>
<event>
 4    1  0.1043382E-007  0.8217559E+03  0.7818608E-02  0.9665591E-01
          1   -1    0    0  501    0  0.00000000000E+00  0.00000000000E+00  0.20542313741E+04  0.20542313741E+04  0.50400000000E-02 0. -1.
         -1   -1    0    0    0  501 -0.00000000000E+00 -0.00000000000E+00 -0.34399008240E+03  0.34399008244E+03  0.50400000000E-02 0.  1.
    8880023    1    1    2    0    0  0.35329340738E+03  0.34154982197E+03  0.26397243593E+03  0.86311306663E+03  0.65864270000E+03 0.  1.
    8880022    1    1    2    0    0 -0.35329340738E+03 -0.34154982197E+03  0.14462688557E+04  0.15351083899E+04  0.15294330000E+03 0.  0.
<mgrwt>
<rscale>  0 0.73102969E+03</rscale>
<asrwt>0</asrwt>
<pdfrwt beam="1">  1        1 0.31603560E+00 0.82175588E+03</pdfrwt>
<pdfrwt beam="2">  1       -1 0.52921551E-01 0.82175588E+03</pdfrwt>
<totfact> 0.10203057E+01</totfact>
</mgrwt>
</event>
<event>
 4    1  0.1043382E-007  0.9160528E+03  0.7818608E-02  0.9500738E-01
          1   -1    0    0  501    0  0.00000000000E+00  0.00000000000E+00  0.80526791756E+03  0.80526791758E+03  0.50400000000E-02 0. -1.
         -1   -1    0    0    0  501 -0.00000000000E+00 -0.00000000000E+00 -0.11284149741E+04  0.11284149741E+04  0.50400000000E-02 0.  1.
    8880023    1    1    2    0    0  0.30052813971E+03 -0.56127120676E+03 -0.72253743222E+03  0.11667103657E+04  0.65864270000E+03 0.  1.
    8880022    1    1    2    0    0 -0.30052813971E+03  0.56127120676E+03  0.39939037571E+03  0.76697252593E+03  0.15294330000E+03 0.  0.
<mgrwt>
<rscale>  0 0.84229436E+03</rscale>
<asrwt>0</asrwt>
<pdfrwt beam="1">  1        1 0.12388737E+00 0.91605280E+03</pdfrwt>
<pdfrwt beam="2">  1       -1 0.17360230E+00 0.91605280E+03</pdfrwt>
<totfact> 0.51298933E+00</totfact>
</mgrwt>
</event>
<event>
 4    1  0.1043382E-007  0.7961893E+03  0.7818608E-02  0.9719097E-01
          1   -1    0    0  501    0  0.00000000000E+00  0.00000000000E+00  0.12380547578E+04  0.12380547578E+04  0.50400000000E-02 0. -1.
         -1   -1    0    0    0  501 -0.00000000000E+00 -0.00000000000E+00 -0.62337835770E+03  0.62337835772E+03  0.50400000000E-02 0.  1.
    8880023    1    1    2    0    0 -0.21955156470E+03 -0.38974911740E+03 -0.28454755350E+03  0.84550859283E+03  0.65864270000E+03 0.  1.
    8880022    1    1    2    0    0  0.21955156470E+03  0.38974911740E+03  0.89922395362E+03  0.10159245227E+04  0.15294330000E+03 0.  0.
<mgrwt>
<rscale>  0 0.69891071E+03</rscale>
<asrwt>0</asrwt>
<pdfrwt beam="1">  1        1 0.19046996E+00 0.79618934E+03</pdfrwt>
<pdfrwt beam="2">  1       -1 0.95904362E-01 0.79618934E+03</pdfrwt>
<totfact> 0.10802887E+01</totfact>
</mgrwt>
</event>
<event>
 4    1  0.1132433E-007  0.7727884E+03  0.7818608E-02  0.9773058E-01
         -1   -1    0    0    0  501 -0.00000000000E+00  0.00000000000E+00  0.10400577792E+04  0.10400577792E+04  0.50400000000E-02 0.  1.
          1   -1    0    0  501    0  0.00000000000E+00 -0.00000000000E+00 -0.12951691679E+04  0.12951691679E+04  0.50400000000E-02 0. -1.
    8880023    1    1    2    0    0  0.40421633941E+03 -0.88885730758E+00  0.84989795891E+03  0.11487072673E+04  0.65864270000E+03 0.  1.
    8880022    1    1    2    0    0 -0.40421633941E+03  0.88885730758E+00 -0.11050093477E+04  0.11865196798E+04  0.15294330000E+03 0. -1.
<mgrwt>
<rscale>  0 0.66828649E+03</rscale>
<asrwt>0</asrwt>
<pdfrwt beam="1">  1        1 0.19925680E+00 0.77278836E+03</pdfrwt>
<pdfrwt beam="2">  1       -1 0.16000889E+00 0.77278836E+03</pdfrwt>
<totfact> 0.27675663E+00</totfact>
</mgrwt>
</event>
<event>
 4    1  0.1043382E-007  0.7853062E+03  0.7818608E-02  0.9743517E-01
         -1   -1    0    0    0  501 -0.00000000000E+00  0.00000000000E+00  0.10968814824E+04  0.10968814824E+04  0.50400000000E-02 0.  1.
          1   -1    0    0  501    0  0.00000000000E+00 -0.00000000000E+00 -0.66377925646E+03  0.66377925648E+03  0.50400000000E-02 0. -1.
    8880023    1    1    2    0    0  0.40906099187E+03 -0.12475868861E+03  0.84067772273E+03  0.11504107376E+04  0.65864270000E+03 0.  1.
    8880022    1    1    2    0    0 -0.40906099187E+03  0.12475868861E+03 -0.40757549680E+03  0.61025000128E+03  0.15294330000E+03 0.  0.
<mgrwt>
<rscale>  0 0.68483875E+03</rscale>
<asrwt>0</asrwt>
<pdfrwt beam="1">  1        1 0.10211989E+00 0.78530620E+03</pdfrwt>
<pdfrwt beam="2">  1       -1 0.16875100E+00 0.78530620E+03</pdfrwt>
<totfact> 0.76247056E+00</totfact>
</mgrwt>
</event>
<event>
 4    1  0.1043382E-007  0.7180226E+03  0.7818608E-02  0.9929335E-01
          1   -1    0    0  501    0  0.00000000000E+00  0.00000000000E+00  0.67965442270E+03  0.67965442272E+03  0.50400000000E-02 0. -1.
         -1   -1    0    0    0  501 -0.00000000000E+00 -0.00000000000E+00 -0.92030819193E+03  0.92030819195E+03  0.50400000000E-02 0.  1.
    8880023    1    1    2    0    0  0.28118873350E+03  0.51759822388E+02 -0.72286861819E+03  0.10188696818E+04  0.65864270000E+03 0.  1.
    8880022    1    1    2    0    0 -0.28118873350E+03 -0.51759822388E+02  0.48221484896E+03  0.58109293287E+03  0.15294330000E+03 0.  0.
<mgrwt>
<rscale>  0 0.58860432E+03</rscale>
<asrwt>0</asrwt>
<pdfrwt beam="1">  1        1 0.10456222E+00 0.71802255E+03</pdfrwt>
<pdfrwt beam="2">  1       -1 0.14158588E+00 0.71802255E+03</pdfrwt>
<totfact> 0.11985498E+01</totfact>
</mgrwt>
</event>
<event>
 4    1  0.1043382E-007  0.6647651E+03  0.7818608E-02  0.1019731E+00
          1   -1    0    0  501    0  0.00000000000E+00  0.00000000000E+00  0.10989145160E+04  0.10989145160E+04  0.50400000000E-02 0. -1.
         -1   -1    0    0    0  501 -0.00000000000E+00 -0.00000000000E+00 -0.39989880550E+03  0.39989880553E+03  0.50400000000E-02 0.  1.
    8880023    1    1    2    0    0  0.44194994813E+02 -0.78416773567E+02 -0.10715025440E+03  0.67334520955E+03  0.65864270000E+03 0.  1.
    8880022    1    1    2    0    0 -0.44194994813E+02  0.78416773567E+02  0.80616596490E+03  0.82546811199E+03  0.15294330000E+03 0.  0.
<mgrwt>
<rscale>  0 0.47783691E+03</rscale>
<asrwt>0</asrwt>
<pdfrwt beam="1">  1        1 0.16906377E+00 0.66476507E+03</pdfrwt>
<pdfrwt beam="2">  1       -1 0.61522894E-01 0.66476507E+03</pdfrwt>
<totfact> 0.35306304E+01</totfact>
</mgrwt>
</event>
<event>
 4    1  0.1043382E-007  0.6618507E+03  0.7818608E-02  0.1022336E+00
          1   -1    0    0  501    0  0.00000000000E+00  0.00000000000E+00  0.18623828706E+04  0.18623828706E+04  0.50400000000E-02 0. -1.
         -1   -1    0    0    0  501 -0.00000000000E+00 -0.00000000000E+00 -0.19121951373E+03  0.19121951380E+03  0.50400000000E-02 0.  1.
    8880023    1    1    2    0    0 -0.61310502711E+02 -0.21844152542E+02  0.40363243499E+03  0.77521964216E+03  0.65864270000E+03 0.  1.
    8880022    1    1    2    0    0  0.61310502711E+02  0.21844152542E+02  0.12675309219E+04  0.12783827423E+04  0.15294330000E+03 0.  0.
<mgrwt>
<rscale>  0 0.46853098E+03</rscale>
<asrwt>0</asrwt>
<pdfrwt beam="1">  1        1 0.28652044E+00 0.66185070E+03</pdfrwt>
<pdfrwt beam="2">  1       -1 0.29418387E-01 0.66185070E+03</pdfrwt>
<totfact> 0.40786473E+01</totfact>
</mgrwt>
</event>
<event>
 4    1  0.1043382E-007  0.6665703E+03  0.7818608E-02  0.1018251E+00
          1   -1    0    0  501    0  0.00000000000E+00  0.00000000000E+00  0.17870264424E+04  0.17870264424E+04  0.50400000000E-02 0. -1.
         -1   -1    0    0    0  501 -0.00000000000E+00 -0.00000000000E+00 -0.20488700799E+03  0.20488700805E+03  0.50400000000E-02 0.  1.
    8880023    1    1    2    0    0  0.10237646633E+03 -0.49880439251E+01  0.36310279981E+03  0.75905182362E+03  0.65864270000E+03 0.  0.
    8880022    1    1    2    0    0 -0.10237646633E+03  0.49880439251E+01  0.12190366346E+04  0.12328616268E+04  0.15294330000E+03 0. -1.
<mgrwt>
<rscale>  0 0.48323169E+03</rscale>
<asrwt>0</asrwt>
<pdfrwt beam="1">  1        1 0.27492713E+00 0.66657035E+03</pdfrwt>
<pdfrwt beam="2">  1       -1 0.31521080E-01 0.66657035E+03</pdfrwt>
<totfact> 0.40575868E+01</totfact>
</mgrwt>
</event>
<event>
 4    1  0.1043382E-007  0.1087275E+04  0.7818608E-02  0.9275358E-01
          1   -1    0    0  501    0  0.00000000000E+00  0.00000000000E+00  0.13685995905E+04  0.13685995905E+04  0.50400000000E-02 0. -1.
         -1   -1    0    0    0  501 -0.00000000000E+00 -0.00000000000E+00 -0.83099516186E+03  0.83099516187E+03  0.50400000000E-02 0.  1.
    8880023    1    1    2    0    0 -0.69994399504E+03 -0.50836467189E+03 -0.13165185223E+03  0.10952162582E+04  0.65864270000E+03 0.  0.
    8880022    1    1    2    0    0  0.69994399504E+03  0.50836467189E+03  0.66925628084E+03  0.11043784941E+04  0.15294330000E+03 0.  0.
<mgrwt>
<rscale>  0 0.10308344E+04</rscale>
<asrwt>0</asrwt>
<pdfrwt beam="1">  1        1 0.21055378E+00 0.10872748E+04</pdfrwt>
<pdfrwt beam="2">  1       -1 0.12784541E+00 0.10872748E+04</pdfrwt>
<totfact> 0.42513826E+00</totfact>
</mgrwt>
</event>
<event>
 4    1  0.1043382E-007  0.7502266E+03  0.7818608E-02  0.9831100E-01
          1   -1    0    0  501    0  0.00000000000E+00  0.00000000000E+00  0.28046950375E+03  0.28046950379E+03  0.50400000000E-02 0. -1.
         -1   -1    0    0    0  501 -0.00000000000E+00 -0.00000000000E+00 -0.13560830318E+04  0.13560830318E+04  0.50400000000E-02 0.  1.
    8880023    1    1    2    0    0  0.14814161836E+03  0.32723671286E+03 -0.98073040315E+03  0.12347761478E+04  0.65864270000E+03 0.  0.
    8880022    1    1    2    0    0 -0.14814161836E+03 -0.32723671286E+03 -0.94883124855E+02  0.40177638772E+03  0.15294330000E+03 0.  0.
<mgrwt>
<rscale>  0 0.63719906E+03</rscale>
<asrwt>0</asrwt>
<pdfrwt beam="1">  1        1 0.43149155E-01 0.75022664E+03</pdfrwt>
<pdfrwt beam="2">  1       -1 0.20862815E+00 0.75022664E+03</pdfrwt>
<totfact> 0.12949225E+01</totfact>
</mgrwt>
</event>
<event>
 4    1  0.1043382E-007  0.8086130E+03  0.7818608E-02  0.9692473E-01
          1   -1    0    0  501    0  0.00000000000E+00  0.00000000000E+00  0.93213852238E+03  0.93213852239E+03  0.50400000000E-02 0. -1.
         -1   -1    0    0    0  501 -0.00000000000E+00 -0.00000000000E+00 -0.57791861005E+03  0.57791861007E+03  0.50400000000E-02 0.  1.
    8880023    1    1    2    0    0  0.98681705654E+02  0.45859207066E+03 -0.12971338857E+03  0.81895087505E+03  0.65864270000E+03 0.  1.
    8880022    1    1    2    0    0 -0.98681705654E+02 -0.45859207066E+03  0.48393330090E+03  0.69110625741E+03  0.15294330000E+03 0.  0.
<mgrwt>
<rscale>  0 0.71466700E+03</rscale>
<asrwt>0</asrwt>
<pdfrwt beam="1">  1        1 0.14340593E+00 0.80861299E+03</pdfrwt>
<pdfrwt beam="2">  1       -1 0.88910556E-01 0.80861299E+03</pdfrwt>
<totfact> 0.21712545E+01</totfact>
</mgrwt>
</event>
<event>
 4    1  0.1065903E-007  0.6749486E+03  0.7818608E-02  0.1012339E+00
          1   -1    0    0  501    0  0.00000000000E+00  0.00000000000E+00  0.18019730439E+04  0.18019730439E+04  0.50400000000E-02 0. -1.
         -1   -1    0    0    0  501 -0.00000000000E+00 -0.00000000000E+00 -0.84398766219E+03  0.84398766220E+03  0.50400000000E-02 0.  1.
    8880023    1    1    2    0    0 -0.69753859513E+02 -0.12992243597E+03 -0.70118095331E+03  0.97324733539E+03  0.65864270000E+03 0.  1.
    8880022    1    1    2    0    0  0.69753859513E+02  0.12992243597E+03  0.16591663350E+04  0.16727133707E+04  0.15294330000E+03 0.  0.
<mgrwt>
<rscale>  0 0.50555654E+03</rscale>
<asrwt>0</asrwt>
<pdfrwt beam="1">  1        1 0.27722662E+00 0.67494863E+03</pdfrwt>
<pdfrwt beam="2">  1       -1 0.12984426E+00 0.67494863E+03</pdfrwt>
<totfact> 0.22045548E+00</totfact>
</mgrwt>
</event>
<event>
 4    1  0.1043382E-007  0.6635574E+03  0.7818608E-02  0.1020776E+00
         -1   -1    0    0    0  501 -0.00000000000E+00  0.00000000000E+00  0.24115145186E+03  0.24115145192E+03  0.50400000000E-02 0.  1.
          1   -1    0    0  501    0  0.00000000000E+00 -0.00000000000E+00 -0.12666540829E+04  0.12666540829E+04  0.50400000000E-02 0. -1.
    8880023    1    1    2    0    0  0.14544525452E+02  0.79288903293E+02 -0.24334913293E+03  0.70677243874E+03  0.65864270000E+03 0.  0.
    8880022    1    1    2    0    0 -0.14544525452E+02 -0.79288903293E+02 -0.78215349808E+03  0.80103309606E+03  0.15294330000E+03 0.  0.
<mgrwt>
<rscale>  0 0.47407767E+03</rscale>
<asrwt>0</asrwt>
<pdfrwt beam="1">  1        1 0.19486985E+00 0.66355744E+03</pdfrwt>
<pdfrwt beam="2">  1       -1 0.37100224E-01 0.66355744E+03</pdfrwt>
<totfact> 0.68958127E+01</totfact>
</mgrwt>
</event>
<event>
 4    1  0.1043382E-007  0.8024998E+03  0.7818608E-02  0.9705417E-01
          1   -1    0    0  501    0  0.00000000000E+00  0.00000000000E+00  0.41032811387E+04  0.41032811387E+04  0.50400000000E-02 0. -1.
         -1   -1    0    0    0  501 -0.00000000000E+00 -0.00000000000E+00 -0.12743167206E+03  0.12743167216E+03  0.50400000000E-02 0.  1.
    8880023    1    1    2    0    0  0.19215675216E+03 -0.41625894263E+03  0.14335883946E+04  0.16429186274E+04  0.65864270000E+03 0.  1.
    8880022    1    1    2    0    0 -0.19215675216E+03  0.41625894263E+03  0.25422610720E+04  0.25877941834E+04  0.15294330000E+03 0.  0.
<mgrwt>
<rscale>  0 0.70695191E+03</rscale>
<asrwt>0</asrwt>
<pdfrwt beam="1">  1        1 0.63127401E+00 0.80249980E+03</pdfrwt>
<pdfrwt beam="2">  1       -1 0.19604873E-01 0.80249980E+03</pdfrwt>
<totfact> 0.17918020E+00</totfact>
</mgrwt>
</event>
<event>
 4    1  0.1043382E-007  0.7240140E+03  0.7818608E-02  0.9909231E-01
          1   -1    0    0  501    0  0.00000000000E+00  0.00000000000E+00  0.96067256712E+03  0.96067256714E+03  0.50400000000E-02 0. -1.
         -1   -1    0    0    0  501 -0.00000000000E+00 -0.00000000000E+00 -0.40922117839E+03  0.40922117842E+03  0.50400000000E-02 0.  1.
    8880023    1    1    2    0    0 -0.27322166804E+03 -0.12544318870E+03  0.64966761646E+00  0.72401429669E+03  0.65864270000E+03 0. -1.
    8880022    1    1    2    0    0  0.27322166804E+03  0.12544318870E+03  0.55080172111E+03  0.64587944887E+03  0.15294330000E+03 0.  0.
<mgrwt>
<rscale>  0 0.59816002E+03</rscale>
<asrwt>0</asrwt>
<pdfrwt beam="1">  1        1 0.14779578E+00 0.72401401E+03</pdfrwt>
<pdfrwt beam="2">  1       -1 0.62957105E-01 0.72401401E+03</pdfrwt>
<totfact> 0.42733610E+01</totfact>
</mgrwt>
</event>
<event>
 4    1  0.1043382E-007  0.7051526E+03  0.7818608E-02  0.9976462E-01
         -1   -1    0    0    0  501 -0.00000000000E+00  0.00000000000E+00  0.66077777444E+03  0.66077777446E+03  0.50400000000E-02 0.  1.
          1   -1    0    0  501    0  0.00000000000E+00 -0.00000000000E+00 -0.25142046008E+04  0.25142046008E+04  0.50400000000E-02 0. -1.
    8880023    1    1    2    0    0 -0.24967336294E+03 -0.33063174017E+02  0.46061084907E+03  0.84226036484E+03  0.65864270000E+03 0.  1.
    8880022    1    1    2    0    0  0.24967336294E+03  0.33063174017E+02 -0.23140376754E+04  0.23327220104E+04  0.15294330000E+03 0.  0.
<mgrwt>
<rscale>  0 0.56694484E+03</rscale>
<asrwt>0</asrwt>
<pdfrwt beam="1">  1        1 0.38680070E+00 0.70515258E+03</pdfrwt>
<pdfrwt beam="2">  1       -1 0.10165812E+00 0.70515258E+03</pdfrwt>
<totfact> 0.13091650E+00</totfact>
</mgrwt>
</event>
<event>
 4    1  0.1043382E-007  0.1110098E+04  0.7818608E-02  0.9249896E-01
         -1   -1    0    0    0  501 -0.00000000000E+00  0.00000000000E+00  0.76801846124E+03  0.76801846126E+03  0.50400000000E-02 0.  1.
          1   -1    0    0  501    0  0.00000000000E+00 -0.00000000000E+00 -0.17462096334E+04  0.17462096334E+04  0.50400000000E-02 0. -1.
    8880023    1    1    2    0    0 -0.81224482885E+02  0.88989339863E+03 -0.11423659718E+04  0.15928960724E+04  0.65864270000E+03 0.  0.
    8880022    1    1    2    0    0  0.81224482885E+02 -0.88989339863E+03  0.16417479962E+03  0.92133202234E+03  0.15294330000E+03 0.  0.
<mgrwt>
<rscale>  0 0.10552937E+04</rscale>
<asrwt>0</asrwt>
<pdfrwt beam="1">  1        1 0.26864763E+00 0.11100981E+04</pdfrwt>
<pdfrwt beam="2">  1       -1 0.11815669E+00 0.11100981E+04</pdfrwt>
<totfact> 0.28322759E+00</totfact>
</mgrwt>
</event>
<event>
 4    1  0.1043382E-007  0.6996643E+03  0.7818608E-02  0.9998597E-01
         -1   -1    0    0    0  501 -0.00000000000E+00  0.00000000000E+00  0.14833160577E+03  0.14833160586E+03  0.50400000000E-02 0.  1.
          1   -1    0    0  501    0  0.00000000000E+00 -0.00000000000E+00 -0.19765354224E+04  0.19765354224E+04  0.50400000000E-02 0. -1.
    8880023    1    1    2    0    0 -0.22512880336E+03 -0.70971644132E+02 -0.81883765663E+03  0.10770446911E+04  0.65864270000E+03 0.  1.
    8880022    1    1    2    0    0  0.22512880336E+03  0.70971644132E+02 -0.10093661600E+04  0.10478223372E+04  0.15294330000E+03 0.  0.
<mgrwt>
<rscale>  0 0.55711817E+03</rscale>
<asrwt>0</asrwt>
<pdfrwt beam="1">  1        1 0.30408235E+00 0.69966432E+03</pdfrwt>
<pdfrwt beam="2">  1       -1 0.22820249E-01 0.69966432E+03</pdfrwt>
<totfact> 0.52579246E+01</totfact>
</mgrwt>
</event>
<event>
 4    1  0.1043382E-007  0.6665746E+03  0.7818608E-02  0.1018247E+00
          1   -1    0    0  501    0  0.00000000000E+00  0.00000000000E+00  0.93279814703E+03  0.93279814704E+03  0.50400000000E-02 0. -1.
         -1   -1    0    0    0  501 -0.00000000000E+00 -0.00000000000E+00 -0.29372289898E+03  0.29372289902E+03  0.50400000000E-02 0.  1.
    8880023    1    1    2    0    0 -0.19880565619E+02 -0.10057978794E+03  0.12200897113E+03  0.67764882198E+03  0.65864270000E+03 0.  1.
    8880022    1    1    2    0    0  0.19880565619E+02  0.10057978794E+03  0.51706627692E+03  0.54887222409E+03  0.15294330000E+03 0.  0.
<mgrwt>
<rscale>  0 0.48324419E+03</rscale>
<asrwt>0</asrwt>
<pdfrwt beam="1">  1        1 0.14350741E+00 0.66657463E+03</pdfrwt>
<pdfrwt beam="2">  1       -1 0.45188138E-01 0.66657463E+03</pdfrwt>
<totfact> 0.85448496E+01</totfact>
</mgrwt>
</event>
<event>
 4    1  0.1043382E-007  0.6666605E+03  0.7818608E-02  0.1018179E+00
         -1   -1    0    0    0  501 -0.00000000000E+00  0.00000000000E+00  0.54135862799E+03  0.54135862801E+03  0.50400000000E-02 0.  1.
          1   -1    0    0  501    0  0.00000000000E+00 -0.00000000000E+00 -0.54918971791E+03  0.54918971793E+03  0.50400000000E-02 0. -1.
    8880023    1    1    2    0    0  0.71115795366E+02 -0.74623007738E+02  0.30050510125E+03  0.73125889517E+03  0.65864270000E+03 0.  1.
    8880022    1    1    2    0    0 -0.71115795366E+02  0.74623007738E+02 -0.30833619116E+03  0.35928945076E+03  0.15294330000E+03 0.  0.
<mgrwt>
<rscale>  0 0.48349466E+03</rscale>
<asrwt>0</asrwt>
<pdfrwt beam="1">  1        1 0.84490726E-01 0.66666053E+03</pdfrwt>
<pdfrwt beam="2">  1       -1 0.83285942E-01 0.66666053E+03</pdfrwt>
<totfact> 0.57198134E+01</totfact>
</mgrwt>
</event>
<event>
 4    1  0.1043382E-007  0.6806029E+03  0.7818608E-02  0.1008985E+00
          1   -1    0    0  501    0  0.00000000000E+00  0.00000000000E+00  0.57585470541E+03  0.57585470544E+03  0.50400000000E-02 0. -1.
         -1   -1    0    0    0  501 -0.00000000000E+00 -0.00000000000E+00 -0.11505019059E+04  0.11505019059E+04  0.50400000000E-02 0.  1.
    8880023    1    1    2    0    0  0.74418716393E+02 -0.15450564318E+03 -0.10194158145E+04  0.12257360842E+04  0.65864270000E+03 0.  1.
    8880022    1    1    2    0    0 -0.74418716393E+02  0.15450564318E+03  0.44476861401E+03  0.50062052709E+03  0.15294330000E+03 0.  0.
<mgrwt>
<rscale>  0 0.51880176E+03</rscale>
<asrwt>0</asrwt>
<pdfrwt beam="1">  1        1 0.88593032E-01 0.68060293E+03</pdfrwt>
<pdfrwt beam="2">  1       -1 0.17700029E+00 0.68060293E+03</pdfrwt>
<totfact> 0.82825226E+00</totfact>
</mgrwt>
</event>
<event>
 4    1  0.1043382E-007  0.6656085E+03  0.7818608E-02  0.1019028E+00
          1   -1    0    0  501    0  0.00000000000E+00  0.00000000000E+00  0.42056548920E+03  0.42056548923E+03  0.50400000000E-02 0. -1.
         -1   -1    0    0    0  501 -0.00000000000E+00 -0.00000000000E+00 -0.68528388267E+03  0.68528388269E+03  0.50400000000E-02 0.  1.
    8880023    1    1    2    0    0  0.93957457973E+02  0.19910476684E+02 -0.48311284627E+03  0.82245526291E+03  0.65864270000E+03 0.  1.
    8880022    1    1    2    0    0 -0.93957457973E+02 -0.19910476684E+02  0.21839445280E+03  0.28339410900E+03  0.15294330000E+03 0.  0.
<mgrwt>
<rscale>  0 0.48038906E+03</rscale>
<asrwt>0</asrwt>
<pdfrwt beam="1">  1        1 0.64702383E-01 0.66560847E+03</pdfrwt>
<pdfrwt beam="2">  1       -1 0.10542829E+00 0.66560847E+03</pdfrwt>
<totfact> 0.48666517E+01</totfact>
</mgrwt>
</event>
<event>
 4    1  0.1043382E-007  0.6802741E+03  0.7818608E-02  0.1009169E+00
         -1   -1    0    0    0  501 -0.00000000000E+00  0.00000000000E+00  0.22624750369E+03  0.22624750374E+03  0.50400000000E-02 0.  1.
          1   -1    0    0  501    0  0.00000000000E+00 -0.00000000000E+00 -0.12582091339E+04  0.12582091340E+04  0.50400000000E-02 0. -1.
    8880023    1    1    2    0    0  0.65439586478E+02  0.15709952191E+03 -0.34979180683E+03  0.76493601932E+03  0.65864270000E+03 0.  1.
    8880022    1    1    2    0    0 -0.65439586478E+02 -0.15709952191E+03 -0.68216982343E+03  0.71952061838E+03  0.15294330000E+03 0.  0.
<mgrwt>
<rscale>  0 0.51806223E+03</rscale>
<asrwt>0</asrwt>
<pdfrwt beam="1">  1        1 0.19357063E+00 0.68027407E+03</pdfrwt>
<pdfrwt beam="2">  1       -1 0.34807309E-01 0.68027407E+03</pdfrwt>
<totfact> 0.78208923E+01</totfact>
</mgrwt>
</event>
<event>
 4    1  0.1043382E-007  0.7578099E+03  0.7818608E-02  0.9810811E-01
         -1   -1    0    0    0  501 -0.00000000000E+00  0.00000000000E+00  0.56392386549E+03  0.56392386552E+03  0.50400000000E-02 0.  1.
          1   -1    0    0  501    0  0.00000000000E+00 -0.00000000000E+00 -0.19125064843E+04  0.19125064843E+04  0.50400000000E-02 0. -1.
    8880023    1    1    2    0    0 -0.35186557238E+00  0.37478725822E+03  0.27269680738E+03  0.80538150448E+03  0.65864270000E+03 0.  1.
    8880022    1    1    2    0    0  0.35186557238E+00 -0.37478725822E+03 -0.16212794262E+04  0.16710488453E+04  0.15294330000E+03 0.  0.
<mgrwt>
<rscale>  0 0.64785589E+03</rscale>
<asrwt>0</asrwt>
<pdfrwt beam="1">  1        1 0.29423176E+00 0.75780988E+03</pdfrwt>
<pdfrwt beam="2">  1       -1 0.86757519E-01 0.75780988E+03</pdfrwt>
<totfact> 0.46852987E+00</totfact>
</mgrwt>
</event>
<event>
 4    1  0.1043382E-007  0.7662984E+03  0.7818608E-02  0.9789066E-01
          1   -1    0    0  501    0  0.00000000000E+00  0.00000000000E+00  0.27199680068E+04  0.27199680068E+04  0.50400000000E-02 0. -1.
         -1   -1    0    0    0  501 -0.00000000000E+00 -0.00000000000E+00 -0.27259651355E+03  0.27259651360E+03  0.50400000000E-02 0.  1.
    8880023    1    1    2    0    0 -0.24518970240E+03  0.30542600863E+03  0.33083082521E+03  0.83466297275E+03  0.65864270000E+03 0.  0.
    8880022    1    1    2    0    0  0.24518970240E+03 -0.30542600863E+03  0.21165406680E+04  0.21579015477E+04  0.15294330000E+03 0.  0.
<mgrwt>
<rscale>  0 0.65952626E+03</rscale>
<asrwt>0</asrwt>
<pdfrwt beam="1">  1        1 0.41845661E+00 0.76629840E+03</pdfrwt>
<pdfrwt beam="2">  1       -1 0.41937926E-01 0.76629840E+03</pdfrwt>
<totfact> 0.56149856E+00</totfact>
</mgrwt>
</event>
<event>
 4    1  0.1043382E-007  0.7483911E+03  0.7818608E-02  0.9836146E-01
          1   -1    0    0  501    0  0.00000000000E+00  0.00000000000E+00  0.91905769168E+03  0.91905769169E+03  0.50400000000E-02 0. -1.
         -1   -1    0    0    0  501 -0.00000000000E+00 -0.00000000000E+00 -0.53605935152E+03  0.53605935154E+03  0.50400000000E-02 0.  1.
    8880023    1    1    2    0    0 -0.89067147861E+02  0.34401455669E+03 -0.18214652316E+03  0.77023797245E+03  0.65864270000E+03 0.  1.
    8880022    1    1    2    0    0  0.89067147861E+02 -0.34401455669E+03  0.56514486332E+03  0.68487907078E+03  0.15294330000E+03 0.  0.
<mgrwt>
<rscale>  0 0.63458312E+03</rscale>
<asrwt>0</asrwt>
<pdfrwt beam="1">  1        1 0.14139349E+00 0.74839106E+03</pdfrwt>
<pdfrwt beam="2">  1       -1 0.82470670E-01 0.74839106E+03</pdfrwt>
<totfact> 0.26356285E+01</totfact>
</mgrwt>
</event>
<event>
 4    1  0.1043382E-007  0.1226265E+04  0.7818608E-02  0.9132005E-01
          1   -1    0    0  501    0  0.00000000000E+00  0.00000000000E+00  0.21879959208E+04  0.21879959208E+04  0.50400000000E-02 0. -1.
         -1   -1    0    0    0  501 -0.00000000000E+00 -0.00000000000E+00 -0.88635468377E+03  0.88635468378E+03  0.50400000000E-02 0.  1.
    8880023    1    1    2    0    0 -0.75739990039E+03  0.70445726032E+03 -0.20210220574E+03  0.12428073658E+04  0.65864270000E+03 0.  0.
    8880022    1    1    2    0    0  0.75739990039E+03 -0.70445726032E+03  0.15037434428E+04  0.18315432388E+04  0.15294330000E+03 0.  0.
<mgrwt>
<rscale>  0 0.11783678E+04</rscale>
<asrwt>0</asrwt>
<pdfrwt beam="1">  1        1 0.33661475E+00 0.12262646E+04</pdfrwt>
<pdfrwt beam="2">  1       -1 0.13636226E+00 0.12262646E+04</pdfrwt>
<totfact> 0.97810211E-01</totfact>
</mgrwt>
</event>
<event>
 4    1  0.1043382E-007  0.6969373E+03  0.7818608E-02  0.1001015E+00
         -1   -1    0    0    0  501 -0.00000000000E+00  0.00000000000E+00  0.83955755911E+03  0.83955755913E+03  0.50400000000E-02 0.  1.
          1   -1    0    0  501    0  0.00000000000E+00 -0.00000000000E+00 -0.44936262652E+03  0.44936262655E+03  0.50400000000E-02 0. -1.
    8880023    1    1    2    0    0 -0.20925412542E+03 -0.90134059687E+02  0.61861139411E+03  0.93188073320E+03  0.65864270000E+03 0. -1.
    8880022    1    1    2    0    0  0.20925412542E+03  0.90134059687E+02 -0.22841646152E+03  0.35703945248E+03  0.15294330000E+03 0.  0.
<mgrwt>
<rscale>  0 0.55207349E+03</rscale>
<asrwt>0</asrwt>
<pdfrwt beam="1">  1        1 0.69132712E-01 0.69693733E+03</pdfrwt>
<pdfrwt beam="2">  1       -1 0.12916270E+00 0.69693733E+03</pdfrwt>
<totfact> 0.27231947E+01</totfact>
</mgrwt>
</event>
<event>
 4    1  0.1043382E-007  0.6896371E+03  0.7818608E-02  0.1004326E+00
          1   -1    0    0  501    0  0.00000000000E+00  0.00000000000E+00  0.25381919554E+04  0.25381919554E+04  0.50400000000E-02 0. -1.
         -1   -1    0    0    0  501 -0.00000000000E+00 -0.00000000000E+00 -0.15562357505E+03  0.15562357513E+03  0.50400000000E-02 0.  1.
    8880023    1    1    2    0    0 -0.17330437137E+03 -0.10841933465E+03  0.66722640086E+03  0.95957825816E+03  0.65864270000E+03 0.  1.
    8880022    1    1    2    0    0  0.17330437137E+03  0.10841933465E+03  0.17153419795E+04  0.17342372724E+04  0.15294330000E+03 0.  0.
<mgrwt>
<rscale>  0 0.53793579E+03</rscale>
<asrwt>0</asrwt>
<pdfrwt beam="1">  1        1 0.39049107E+00 0.68963712E+03</pdfrwt>
<pdfrwt beam="2">  1       -1 0.23942088E-01 0.68963712E+03</pdfrwt>
<totfact> 0.20337266E+01</totfact>
</mgrwt>
</event>
<event>
 4    1  0.1043382E-007  0.7819747E+03  0.7818608E-02  0.9751219E-01
          1   -1    0    0  501    0  0.00000000000E+00  0.00000000000E+00  0.18213814997E+04  0.18213814997E+04  0.50400000000E-02 0. -1.
         -1   -1    0    0    0  501 -0.00000000000E+00 -0.00000000000E+00 -0.43728907733E+03  0.43728907736E+03  0.50400000000E-02 0.  1.
    8880023    1    1    2    0    0  0.30755948040E+03  0.28823853697E+03 -0.22536816088E+02  0.78229943277E+03  0.65864270000E+03 0.  1.
    8880022    1    1    2    0    0 -0.30755948040E+03 -0.28823853697E+03  0.14066292384E+04  0.14763711443E+04  0.15294330000E+03 0.  0.
<mgrwt>
<rscale>  0 0.68047450E+03</rscale>
<asrwt>0</asrwt>
<pdfrwt beam="1">  1        1 0.28021255E+00 0.78197474E+03</pdfrwt>
<pdfrwt beam="2">  1       -1 0.67275241E-01 0.78197474E+03</pdfrwt>
<totfact> 0.91570386E+00</totfact>
</mgrwt>
</event>
<event>
 4    1  0.1043382E-007  0.7629071E+03  0.7818608E-02  0.9797639E-01
          1   -1    0    0  501    0  0.00000000000E+00  0.00000000000E+00  0.60916751920E+03  0.60916751922E+03  0.50400000000E-02 0. -1.
         -1   -1    0    0    0  501 -0.00000000000E+00 -0.00000000000E+00 -0.11185545021E+04  0.11185545021E+04  0.50400000000E-02 0.  1.
    8880023    1    1    2    0    0  0.37338134699E+03  0.93826849399E+02 -0.88506402638E+03  0.11684886157E+04  0.65864270000E+03 0.  1.
    8880022    1    1    2    0    0 -0.37338134699E+03 -0.93826849399E+02  0.37567704349E+03  0.55923340563E+03  0.15294330000E+03 0.  0.
<mgrwt>
<rscale>  0 0.65489428E+03</rscale>
<asrwt>0</asrwt>
<pdfrwt beam="1">  1        1 0.93718080E-01 0.76290715E+03</pdfrwt>
<pdfrwt beam="2">  1       -1 0.17208531E+00 0.76290715E+03</pdfrwt>
<totfact> 0.81992386E+00</totfact>
</mgrwt>
</event>
<event>
 4    1  0.1043382E-007  0.9577639E+03  0.7818608E-02  0.9439030E-01
         -1   -1    0    0    0  501 -0.00000000000E+00  0.00000000000E+00  0.65555383386E+03  0.65555383388E+03  0.50400000000E-02 0.  1.
          1   -1    0    0  501    0  0.00000000000E+00 -0.00000000000E+00 -0.14153289070E+04  0.14153289070E+04  0.50400000000E-02 0. -1.
    8880023    1    1    2    0    0 -0.12033317156E+03  0.68485131924E+03  0.90339424462E+02  0.96201497885E+03  0.65864270000E+03 0. -1.
    8880022    1    1    2    0    0  0.12033317156E+03 -0.68485131924E+03 -0.85011449764E+03  0.11088677621E+04  0.15294330000E+03 0.  1.
<mgrwt>
<rscale>  0 0.88932065E+03</rscale>
<asrwt>0</asrwt>
<pdfrwt beam="1">  1        1 0.21774291E+00 0.95776386E+03</pdfrwt>
<pdfrwt beam="2">  1       -1 0.10085444E+00 0.95776386E+03</pdfrwt>
<totfact> 0.70745811E+00</totfact>
</mgrwt>
</event>
<event>
 4    1  0.1043382E-007  0.8714739E+03  0.7818608E-02  0.9573471E-01
          1   -1    0    0  501    0  0.00000000000E+00  0.00000000000E+00  0.16961021543E+04  0.16961021543E+04  0.50400000000E-02 0. -1.
         -1   -1    0    0    0  501 -0.00000000000E+00 -0.00000000000E+00 -0.39821280723E+03  0.39821280726E+03  0.50400000000E-02 0.  1.
    8880023    1    1    2    0    0  0.51007801376E+03  0.25588457565E+03  0.12186961579E+04  0.14982279626E+04  0.65864270000E+03 0. -1.
    8880022    1    1    2    0    0 -0.51007801376E+03 -0.25588457565E+03  0.79193189144E+02  0.59608699902E+03  0.15294330000E+03 0.  0.
<mgrwt>
<rscale>  0 0.79077229E+03</rscale>
<asrwt>0</asrwt>
<pdfrwt beam="1">  1        1 0.26093879E+00 0.87147387E+03</pdfrwt>
<pdfrwt beam="2">  1       -1 0.61263509E-01 0.87147387E+03</pdfrwt>
<totfact> 0.13252475E+01</totfact>
</mgrwt>
</event>
<event>
 4    1  0.1043382E-007  0.9487339E+03  0.7818608E-02  0.9451938E-01
         -1   -1    0    0    0  501 -0.00000000000E+00  0.00000000000E+00  0.16343591516E+04  0.16343591516E+04  0.50400000000E-02 0.  1.
          1   -1    0    0  501    0  0.00000000000E+00 -0.00000000000E+00 -0.78144213707E+03  0.78144213709E+03  0.50400000000E-02 0. -1.
    8880023    1    1    2    0    0  0.53792814536E+02 -0.68072917045E+03  0.12820612615E+04  0.15949223037E+04  0.65864270000E+03 0.  0.
    8880022    1    1    2    0    0 -0.53792814536E+02  0.68072917045E+03 -0.42914424691E+03  0.82087898503E+03  0.15294330000E+03 0.  0.
<mgrwt>
<rscale>  0 0.87921907E+03</rscale>
<asrwt>0</asrwt>
<pdfrwt beam="1">  1        1 0.12022187E+00 0.94873393E+03</pdfrwt>
<pdfrwt beam="2">  1       -1 0.25143987E+00 0.94873393E+03</pdfrwt>
<totfact> 0.15900550E+00</totfact>
</mgrwt>
</event>
<event>
 4    1  0.1043382E-007  0.7889031E+03  0.7818608E-02  0.9735324E-01
         -1   -1    0    0    0  501 -0.00000000000E+00  0.00000000000E+00  0.15050456773E+03  0.15050456782E+03  0.50400000000E-02 0.  1.
          1   -1    0    0  501    0  0.00000000000E+00 -0.00000000000E+00 -0.30764332348E+04  0.30764332348E+04  0.50400000000E-02 0. -1.
    8880023    1    1    2    0    0  0.80237307695E+02 -0.42675498920E+03 -0.24081841030E+04  0.25341110328E+04  0.65864270000E+03 0. -1.
    8880022    1    1    2    0    0 -0.80237307695E+02  0.42675498920E+03 -0.51774456408E+03  0.69282676984E+03  0.15294330000E+03 0.  1.
<mgrwt>
<rscale>  0 0.68951987E+03</rscale>
<asrwt>0</asrwt>
<pdfrwt beam="1">  1        1 0.47329737E+00 0.78890307E+03</pdfrwt>
<pdfrwt beam="2">  1       -1 0.23154551E-01 0.78890307E+03</pdfrwt>
<totfact> 0.88714726E+00</totfact>
</mgrwt>
</event>
<event>
 4    1  0.1043382E-007  0.8144523E+03  0.7818608E-02  0.9680376E-01
         -1   -1    0    0    0  501 -0.00000000000E+00  0.00000000000E+00  0.30564862606E+03  0.30564862611E+03  0.50400000000E-02 0.  1.
          1   -1    0    0  501    0  0.00000000000E+00 -0.00000000000E+00 -0.17906414037E+04  0.17906414037E+04  0.50400000000E-02 0. -1.
    8880023    1    1    2    0    0  0.41746399267E+03  0.23504509206E+03 -0.41518557809E+03  0.91417265929E+03  0.65864270000E+03 0.  0.
    8880022    1    1    2    0    0 -0.41746399267E+03 -0.23504509206E+03 -0.10698071995E+04  0.11821173705E+04  0.15294330000E+03 0.  0.
<mgrwt>
<rscale>  0 0.72197285E+03</rscale>
<asrwt>0</asrwt>
<pdfrwt beam="1">  1        1 0.27548329E+00 0.81445232E+03</pdfrwt>
<pdfrwt beam="2">  1       -1 0.47022867E-01 0.81445232E+03</pdfrwt>
<totfact> 0.19195049E+01</totfact>
</mgrwt>
</event>
<event>
 4    1  0.1043382E-007  0.7894392E+03  0.7818608E-02  0.9734114E-01
         -1   -1    0    0    0  501 -0.00000000000E+00  0.00000000000E+00  0.24330798642E+03  0.24330798648E+03  0.50400000000E-02 0.  1.
          1   -1    0    0  501    0  0.00000000000E+00 -0.00000000000E+00 -0.25513566323E+04  0.25513566323E+04  0.50400000000E-02 0. -1.
    8880023    1    1    2    0    0 -0.31539807065E+03 -0.29988008223E+03 -0.51344556067E+03  0.94172212288E+03  0.65864270000E+03 0. -1.
    8880022    1    1    2    0    0  0.31539807065E+03  0.29988008223E+03 -0.17946030852E+04  0.18529424959E+04  0.15294330000E+03 0.  1.
<mgrwt>
<rscale>  0 0.69021493E+03</rscale>
<asrwt>0</asrwt>
<pdfrwt beam="1">  1        1 0.39251639E+00 0.78943918E+03</pdfrwt>
<pdfrwt beam="2">  1       -1 0.37432000E-01 0.78943918E+03</pdfrwt>
<totfact> 0.89925111E+00</totfact>
</mgrwt>
</event>
<event>
 4    1  0.1043382E-007  0.7022856E+03  0.7818608E-02  0.9987849E-01
          1   -1    0    0  501    0  0.00000000000E+00  0.00000000000E+00  0.68219804056E+03  0.68219804058E+03  0.50400000000E-02 0. -1.
         -1   -1    0    0    0  501 -0.00000000000E+00 -0.00000000000E+00 -0.53677039190E+03  0.53677039192E+03  0.50400000000E-02 0.  1.
    8880023    1    1    2    0    0  0.20199516198E+03 -0.13635549335E+03 -0.23627750734E+03  0.74096702543E+03  0.65864270000E+03 0.  1.
    8880022    1    1    2    0    0 -0.20199516198E+03  0.13635549335E+03  0.38170515601E+03  0.47800140708E+03  0.15294330000E+03 0.  0.
<mgrwt>
<rscale>  0 0.56186280E+03</rscale>
<asrwt>0</asrwt>
<pdfrwt beam="1">  1        1 0.10495354E+00 0.70228561E+03</pdfrwt>
<pdfrwt beam="2">  1       -1 0.82580061E-01 0.70228561E+03</pdfrwt>
<totfact> 0.42434430E+01</totfact>
</mgrwt>
</event>
<event>
 4    1  0.1043382E-007  0.7683111E+03  0.7818608E-02  0.9784047E-01
         -1   -1    0    0    0  501 -0.00000000000E+00  0.00000000000E+00  0.10865550131E+04  0.10865550131E+04  0.50400000000E-02 0.  1.
          1   -1    0    0  501    0  0.00000000000E+00 -0.00000000000E+00 -0.69092966252E+03  0.69092966254E+03  0.50400000000E-02 0. -1.
    8880023    1    1    2    0    0 -0.36942075560E+03  0.14149215890E+03  0.85687085576E+03  0.11508820945E+04  0.65864270000E+03 0.  0.
    8880022    1    1    2    0    0  0.36942075560E+03 -0.14149215890E+03 -0.46124550517E+03  0.62660258118E+03  0.15294330000E+03 0.  0.
<mgrwt>
<rscale>  0 0.66225723E+03</rscale>
<asrwt>0</asrwt>
<pdfrwt beam="1">  1        1 0.10629687E+00 0.76831109E+03</pdfrwt>
<pdfrwt beam="2">  1       -1 0.16716231E+00 0.76831109E+03</pdfrwt>
<totfact> 0.73930941E+00</totfact>
</mgrwt>
</event>
<event>
 4    1  0.1043382E-007  0.6838633E+03  0.7818608E-02  0.1007218E+00
          1   -1    0    0  501    0  0.00000000000E+00  0.00000000000E+00  0.74920023061E+03  0.74920023063E+03  0.50400000000E-02 0. -1.
         -1   -1    0    0    0  501 -0.00000000000E+00 -0.00000000000E+00 -0.36394212885E+03  0.36394212888E+03  0.50400000000E-02 0.  1.
    8880023    1    1    2    0    0 -0.94610284390E+02  0.15782179311E+03  0.29617774879E+02  0.68450437774E+03  0.65864270000E+03 0.  0.
    8880022    1    1    2    0    0  0.94610284390E+02 -0.15782179311E+03  0.35564032689E+03  0.42863798177E+03  0.15294330000E+03 0.  0.
<mgrwt>
<rscale>  0 0.52595594E+03</rscale>
<asrwt>0</asrwt>
<pdfrwt beam="1">  1        1 0.11526157E+00 0.68386331E+03</pdfrwt>
<pdfrwt beam="2">  1       -1 0.55991097E-01 0.68386331E+03</pdfrwt>
<totfact> 0.81178496E+01</totfact>
</mgrwt>
</event>
<event>
 4    1  0.1043382E-007  0.6990851E+03  0.7818608E-02  0.1000102E+00
         -1   -1    0    0    0  501 -0.00000000000E+00  0.00000000000E+00  0.17783733949E+03  0.17783733956E+03  0.50400000000E-02 0.  1.
          1   -1    0    0  501    0  0.00000000000E+00 -0.00000000000E+00 -0.22182056971E+04  0.22182056971E+04  0.50400000000E-02 0. -1.
    8880023    1    1    2    0    0 -0.11050439653E+03  0.20663619419E+03 -0.57783239823E+03  0.90697862440E+03  0.65864270000E+03 0.  1.
    8880022    1    1    2    0    0  0.11050439653E+03 -0.20663619419E+03 -0.14625359594E+04  0.14890644123E+04  0.15294330000E+03 0.  0.
<mgrwt>
<rscale>  0 0.55605623E+03</rscale>
<asrwt>0</asrwt>
<pdfrwt beam="1">  1        1 0.34126240E+00 0.69908508E+03</pdfrwt>
<pdfrwt beam="2">  1       -1 0.27359592E-01 0.69908508E+03</pdfrwt>
<totfact> 0.26615132E+01</totfact>
</mgrwt>
</event>
<event>
 4    1  0.1043382E-007  0.6716815E+03  0.7818608E-02  0.1014485E+00
         -1   -1    0    0    0  501 -0.00000000000E+00  0.00000000000E+00  0.85946250378E+03  0.85946250379E+03  0.50400000000E-02 0.  1.
          1   -1    0    0  501    0  0.00000000000E+00 -0.00000000000E+00 -0.22273210547E+03  0.22273210552E+03  0.50400000000E-02 0. -1.
    8880023    1    1    2    0    0  0.44570725833E+01  0.13162813486E+03  0.51605199613E+03  0.84703347062E+03  0.65864270000E+03 0.  0.
    8880022    1    1    2    0    0 -0.44570725833E+01 -0.13162813486E+03  0.12067840218E+03  0.23516113869E+03  0.15294330000E+03 0.  1.
<mgrwt>
<rscale>  0 0.49730384E+03</rscale>
<asrwt>0</asrwt>
<pdfrwt beam="1">  1        1 0.34266477E-01 0.67168150E+03</pdfrwt>
<pdfrwt beam="2">  1       -1 0.13222500E+00 0.67168150E+03</pdfrwt>
<totfact> 0.64298982E+01</totfact>
</mgrwt>
</event>
<event>
 4    1  0.1043382E-007  0.7304959E+03  0.7818608E-02  0.9888550E-01
          1   -1    0    0  501    0  0.00000000000E+00  0.00000000000E+00  0.98473796148E+03  0.98473796149E+03  0.50400000000E-02 0. -1.
         -1   -1    0    0    0  501 -0.00000000000E+00 -0.00000000000E+00 -0.13473214971E+04  0.13473214971E+04  0.50400000000E-02 0.  1.
    8880023    1    1    2    0    0  0.17159719611E+03  0.26527046660E+03 -0.12107952195E+04  0.14140895615E+04  0.65864270000E+03 0.  1.
    8880022    1    1    2    0    0 -0.17159719611E+03 -0.26527046660E+03  0.84821168390E+03  0.91796989705E+03  0.15294330000E+03 0.  0.
<mgrwt>
<rscale>  0 0.60819405E+03</rscale>
<asrwt>0</asrwt>
<pdfrwt beam="1">  1        1 0.15149815E+00 0.73049588E+03</pdfrwt>
<pdfrwt beam="2">  1       -1 0.20728023E+00 0.73049588E+03</pdfrwt>
<totfact> 0.21849441E+00</totfact>
</mgrwt>
</event>
<event>
 4    1  0.1043382E-007  0.6751039E+03  0.7818608E-02  0.1012241E+00
          1   -1    0    0  501    0  0.00000000000E+00  0.00000000000E+00  0.36286574126E+03  0.36286574129E+03  0.50400000000E-02 0. -1.
         -1   -1    0    0    0  501 -0.00000000000E+00 -0.00000000000E+00 -0.59130890715E+03  0.59130890718E+03  0.50400000000E-02 0.  1.
    8880023    1    1    2    0    0  0.84105010266E+02 -0.12198951285E+03 -0.28661267524E+03  0.73342492858E+03  0.65864270000E+03 0.  1.
    8880022    1    1    2    0    0 -0.84105010266E+02  0.12198951285E+03  0.58169509339E+02  0.22074971989E+03  0.15294330000E+03 0. -1.
<mgrwt>
<rscale>  0 0.50593676E+03</rscale>
<asrwt>0</asrwt>
<pdfrwt beam="1">  1        1 0.55825499E-01 0.67510392E+03</pdfrwt>
<pdfrwt beam="2">  1       -1 0.90970601E-01 0.67510392E+03</pdfrwt>
<totfact> 0.82444274E+01</totfact>
</mgrwt>
</event>
<event>
 4    1  0.1043382E-007  0.8121046E+03  0.7818608E-02  0.9685210E-01
          1   -1    0    0  501    0  0.00000000000E+00  0.00000000000E+00  0.12842639035E+04  0.12842639035E+04  0.50400000000E-02 0. -1.
         -1   -1    0    0    0  501 -0.00000000000E+00 -0.00000000000E+00 -0.48936596171E+03  0.48936596174E+03  0.50400000000E-02 0.  1.
    8880023    1    1    2    0    0  0.27723636059E+03 -0.38580263182E+03 -0.26447160392E+02  0.81253512472E+03  0.65864270000E+03 0.  0.
    8880022    1    1    2    0    0 -0.27723636059E+03  0.38580263182E+03  0.82134510214E+03  0.96109474048E+03  0.15294330000E+03 0.  1.
<mgrwt>
<rscale>  0 0.71904269E+03</rscale>
<asrwt>0</asrwt>
<pdfrwt beam="1">  1        1 0.19757906E+00 0.81210460E+03</pdfrwt>
<pdfrwt beam="2">  1       -1 0.75287073E-01 0.81210460E+03</pdfrwt>
<totfact> 0.16875693E+01</totfact>
</mgrwt>
</event>
<event>
 4    1  0.1043382E-007  0.8037485E+03  0.7818608E-02  0.9702749E-01
          1   -1    0    0  501    0  0.00000000000E+00  0.00000000000E+00  0.14337101125E+04  0.14337101125E+04  0.50400000000E-02 0. -1.
         -1   -1    0    0    0  501 -0.00000000000E+00 -0.00000000000E+00 -0.36015523974E+03  0.36015523977E+03  0.50400000000E-02 0.  1.
    8880023    1    1    2    0    0 -0.89873090831E+02  0.45180107675E+03  0.10300680338E+04  0.13065419036E+04  0.65864270000E+03 0.  0.
    8880022    1    1    2    0    0  0.89873090831E+02 -0.45180107675E+03  0.43486838923E+02  0.48732344863E+03  0.15294330000E+03 0.  0.
<mgrwt>
<rscale>  0 0.70853356E+03</rscale>
<asrwt>0</asrwt>
<pdfrwt beam="1">  1        1 0.22057079E+00 0.80374846E+03</pdfrwt>
<pdfrwt beam="2">  1       -1 0.55408498E-01 0.80374846E+03</pdfrwt>
<totfact> 0.24579773E+01</totfact>
</mgrwt>
</event>
<event>
 4    1  0.1043382E-007  0.1290942E+04  0.7818608E-02  0.9073421E-01
         -1   -1    0    0    0  501 -0.00000000000E+00  0.00000000000E+00  0.10970852078E+04  0.10970852078E+04  0.50400000000E-02 0.  1.
          1   -1    0    0  501    0  0.00000000000E+00 -0.00000000000E+00 -0.17434744025E+04  0.17434744025E+04  0.50400000000E-02 0. -1.
    8880023    1    1    2    0    0  0.56043709599E+03  0.95845322315E+03  0.35363920402E+03  0.13385040950E+04  0.65864270000E+03 0.  0.
    8880022    1    1    2    0    0 -0.56043709599E+03 -0.95845322315E+03 -0.10000283988E+04  0.15020555152E+04  0.15294330000E+03 0.  0.
<mgrwt>
<rscale>  0 0.12461170E+04</rscale>
<asrwt>0</asrwt>
<pdfrwt beam="1">  1        1 0.26822683E+00 0.12909425E+04</pdfrwt>
<pdfrwt beam="2">  1       -1 0.16878234E+00 0.12909425E+04</pdfrwt>
<totfact> 0.10848724E+00</totfact>
</mgrwt>
</event>
<event>
 4    1  0.1043382E-007  0.7972696E+03  0.7818608E-02  0.9716731E-01
         -1   -1    0    0    0  501 -0.00000000000E+00  0.00000000000E+00  0.56789776032E+03  0.56789776034E+03  0.50400000000E-02 0.  1.
          1   -1    0    0  501    0  0.00000000000E+00 -0.00000000000E+00 -0.84476801819E+03  0.84476801820E+03  0.50400000000E-02 0. -1.
    8880023    1    1    2    0    0  0.73383770032E+01 -0.44919338293E+03  0.10417655189E+03  0.80404695589E+03  0.65864270000E+03 0.  0.
    8880022    1    1    2    0    0 -0.73383770032E+01  0.44919338293E+03 -0.38104680976E+03  0.60861882265E+03  0.15294330000E+03 0.  0.
<mgrwt>
<rscale>  0 0.70029303E+03</rscale>
<asrwt>0</asrwt>
<pdfrwt beam="1">  1        1 0.12996431E+00 0.79726956E+03</pdfrwt>
<pdfrwt beam="2">  1       -1 0.87368886E-01 0.79726956E+03</pdfrwt>
<totfact> 0.26644589E+01</totfact>
</mgrwt>
</event>
<event>
 4    1  0.1043382E-007  0.8490629E+03  0.7818608E-02  0.9613322E-01
         -1   -1    0    0    0  501 -0.00000000000E+00  0.00000000000E+00  0.40225689938E+03  0.40225689942E+03  0.50400000000E-02 0.  1.
          1   -1    0    0  501    0  0.00000000000E+00 -0.00000000000E+00 -0.24202396703E+04  0.24202396703E+04  0.50400000000E-02 0. -1.
    8880023    1    1    2    0    0  0.53265695539E+02 -0.53316079034E+03 -0.13616167052E+03  0.85991154746E+03  0.65864270000E+03 0.  0.
    8880022    1    1    2    0    0 -0.53265695539E+02  0.53316079034E+03 -0.18818211004E+04  0.19625850223E+04  0.15294330000E+03 0.  0.
<mgrwt>
<rscale>  0 0.76420653E+03</rscale>
<asrwt>0</asrwt>
<pdfrwt beam="1">  1        1 0.37234456E+00 0.84906294E+03</pdfrwt>
<pdfrwt beam="2">  1       -1 0.61885678E-01 0.84906294E+03</pdfrwt>
<totfact> 0.42386352E+00</totfact>
</mgrwt>
</event>
<event>
 4    1  0.1043382E-007  0.7375518E+03  0.7818608E-02  0.9867137E-01
         -1   -1    0    0    0  501 -0.00000000000E+00  0.00000000000E+00  0.14709242633E+04  0.14709242633E+04  0.50400000000E-02 0.  1.
          1   -1    0    0  501    0  0.00000000000E+00 -0.00000000000E+00 -0.65646073322E+03  0.65646073324E+03  0.50400000000E-02 0. -1.
    8880023    1    1    2    0    0  0.16018355275E+03 -0.29071241734E+03  0.13149465475E+04  0.15076694296E+04  0.65864270000E+03 0.  1.
    8880022    1    1    2    0    0 -0.16018355275E+03  0.29071241734E+03 -0.50048301737E+03  0.61971556691E+03  0.15294330000E+03 0.  0.
<mgrwt>
<rscale>  0 0.61880759E+03</rscale>
<asrwt>0</asrwt>
<pdfrwt beam="1">  1        1 0.10099396E+00 0.73755182E+03</pdfrwt>
<pdfrwt beam="2">  1       -1 0.22629604E+00 0.73755182E+03</pdfrwt>
<totfact> 0.31271579E+00</totfact>
</mgrwt>
</event>
<event>
 4    1  0.1043382E-007  0.6623950E+03  0.7818608E-02  0.1021827E+00
         -1   -1    0    0    0  501 -0.00000000000E+00  0.00000000000E+00  0.88862465170E+03  0.88862465171E+03  0.50400000000E-02 0.  1.
          1   -1    0    0  501    0  0.00000000000E+00 -0.00000000000E+00 -0.32888618105E+03  0.32888618109E+03  0.50400000000E-02 0. -1.
    8880023    1    1    2    0    0  0.30134510004E+02 -0.63630170220E+02  0.72468896824E+03  0.98180506935E+03  0.65864270000E+03 0.  1.
    8880022    1    1    2    0    0 -0.30134510004E+02  0.63630170220E+02 -0.16495049759E+03  0.23570576345E+03  0.15294330000E+03 0.  0.
<mgrwt>
<rscale>  0 0.47033154E+03</rscale>
<asrwt>0</asrwt>
<pdfrwt beam="1">  1        1 0.50597875E-01 0.66239497E+03</pdfrwt>
<pdfrwt beam="2">  1       -1 0.13671148E+00 0.66239497E+03</pdfrwt>
<totfact> 0.35719021E+01</totfact>
</mgrwt>
</event>
<event>
 4    1  0.1043382E-007  0.8706398E+03  0.7818608E-02  0.9574910E-01
         -1   -1    0    0    0  501 -0.00000000000E+00  0.00000000000E+00  0.41135219871E+03  0.41135219875E+03  0.50400000000E-02 0.  1.
          1   -1    0    0  501    0  0.00000000000E+00 -0.00000000000E+00 -0.13635451554E+04  0.13635451554E+04  0.50400000000E-02 0. -1.
    8880023    1    1    2    0    0  0.54630763261E+03 -0.16047260772E+03 -0.36897787159E+03  0.94559947296E+03  0.65864270000E+03 0.  0.
    8880022    1    1    2    0    0 -0.54630763261E+03  0.16047260772E+03 -0.58321508513E+03  0.82929788123E+03  0.15294330000E+03 0.  0.
<mgrwt>
<rscale>  0 0.78979268E+03</rscale>
<asrwt>0</asrwt>
<pdfrwt beam="1">  1        1 0.20977618E+00 0.87063982E+03</pdfrwt>
<pdfrwt beam="2">  1       -1 0.63284954E-01 0.87063982E+03</pdfrwt>
<totfact> 0.21014065E+01</totfact>
</mgrwt>
</event>
<event>
 4    1  0.1043382E-007  0.9639036E+03  0.7818608E-02  0.9430386E-01
          1   -1    0    0  501    0  0.00000000000E+00  0.00000000000E+00  0.11322616046E+04  0.11322616046E+04  0.50400000000E-02 0. -1.
         -1   -1    0    0    0  501 -0.00000000000E+00 -0.00000000000E+00 -0.11894270664E+04  0.11894270664E+04  0.50400000000E-02 0.  1.
    8880023    1    1    2    0    0  0.58040568029E+03 -0.39803172527E+03 -0.82514151618E+03  0.12688454342E+04  0.65864270000E+03 0.  0.
    8880022    1    1    2    0    0 -0.58040568029E+03  0.39803172527E+03  0.76797605440E+03  0.10528432368E+04  0.15294330000E+03 0.  0.
<mgrwt>
<rscale>  0 0.89616684E+03</rscale>
<asrwt>0</asrwt>
<pdfrwt beam="1">  1        1 0.17419409E+00 0.96390363E+03</pdfrwt>
<pdfrwt beam="2">  1       -1 0.18298878E+00 0.96390363E+03</pdfrwt>
<totfact> 0.23963822E+00</totfact>
</mgrwt>
</event>
<event>
 4    1  0.1043382E-007  0.1069279E+04  0.7818608E-02  0.9296056E-01
         -1   -1    0    0    0  501 -0.00000000000E+00  0.00000000000E+00  0.82614252917E+03  0.82614252919E+03  0.50400000000E-02 0.  1.
          1   -1    0    0  501    0  0.00000000000E+00 -0.00000000000E+00 -0.20315590574E+04  0.20315590574E+04  0.50400000000E-02 0. -1.
    8880023    1    1    2    0    0 -0.41180471176E+03  0.73482313584E+03  0.31336044755E+03  0.11142500339E+04  0.65864270000E+03 0.  1.
    8880022    1    1    2    0    0  0.41180471176E+03 -0.73482313584E+03 -0.15187769758E+04  0.17434515528E+04  0.15294330000E+03 0.  0.
<mgrwt>
<rscale>  0 0.10114675E+04</rscale>
<asrwt>0</asrwt>
<pdfrwt beam="1">  1        1 0.31254755E+00 0.10692794E+04</pdfrwt>
<pdfrwt beam="2">  1       -1 0.12709885E+00 0.10692794E+04</pdfrwt>
<totfact> 0.15246128E+00</totfact>
</mgrwt>
</event>
<event>
 4    1  0.1043382E-007  0.7982218E+03  0.7818608E-02  0.9714654E-01
          1   -1    0    0  501    0  0.00000000000E+00  0.00000000000E+00  0.27879359856E+03  0.27879359860E+03  0.50400000000E-02 0. -1.
         -1   -1    0    0    0  501 -0.00000000000E+00 -0.00000000000E+00 -0.22140556097E+04  0.22140556097E+04  0.50400000000E-02 0.  1.
    8880023    1    1    2    0    0 -0.10221689883E+03 -0.43920337773E+03 -0.41479340771E+03  0.89956193714E+03  0.65864270000E+03 0. -1.
    8880022    1    1    2    0    0  0.10221689883E+03  0.43920337773E+03 -0.15204686034E+04  0.15932872712E+04  0.15294330000E+03 0.  0.
<mgrwt>
<rscale>  0 0.70150960E+03</rscale>
<asrwt>0</asrwt>
<pdfrwt beam="1">  1        1 0.42891324E-01 0.79822184E+03</pdfrwt>
<pdfrwt beam="2">  1       -1 0.34062393E+00 0.79822184E+03</pdfrwt>
<totfact> 0.18134144E+00</totfact>
</mgrwt>
</event>
<event>
 4    1  0.1043382E-007  0.8141425E+03  0.7818608E-02  0.9681012E-01
         -1   -1    0    0    0  501 -0.00000000000E+00  0.00000000000E+00  0.62442376420E+03  0.62442376422E+03  0.50400000000E-02 0.  1.
          1   -1    0    0  501    0  0.00000000000E+00 -0.00000000000E+00 -0.94406255910E+03  0.94406255912E+03  0.50400000000E-02 0. -1.
    8880023    1    1    2    0    0  0.80148475289E+01 -0.47849092235E+03  0.20761390920E+03  0.84019732332E+03  0.65864270000E+03 0.  0.
    8880022    1    1    2    0    0 -0.80148475289E+01  0.47849092235E+03 -0.52725270410E+03  0.72828900002E+03  0.15294330000E+03 0.  0.
<mgrwt>
<rscale>  0 0.72158670E+03</rscale>
<asrwt>0</asrwt>
<pdfrwt beam="1">  1        1 0.14524039E+00 0.81414250E+03</pdfrwt>
<pdfrwt beam="2">  1       -1 0.96065195E-01 0.81414250E+03</pdfrwt>
<totfact> 0.17874013E+01</totfact>
</mgrwt>
</event>
<event>
 4    1  0.1043382E-007  0.7009065E+03  0.7818608E-02  0.9993461E-01
          1   -1    0    0  501    0  0.00000000000E+00  0.00000000000E+00  0.82585824007E+03  0.82585824008E+03  0.50400000000E-02 0. -1.
         -1   -1    0    0    0  501 -0.00000000000E+00 -0.00000000000E+00 -0.43105278513E+03  0.43105278516E+03  0.50400000000E-02 0.  1.
    8880023    1    1    2    0    0  0.21855929880E+03 -0.98445393334E+02 -0.77955138244E+02  0.70522824135E+03  0.65864270000E+03 0.  0.
    8880022    1    1    2    0    0 -0.21855929880E+03  0.98445393334E+02  0.47276059318E+03  0.55168278389E+03  0.15294330000E+03 0. -1.
<mgrwt>
<rscale>  0 0.55937871E+03</rscale>
<asrwt>0</asrwt>
<pdfrwt beam="1">  1        1 0.12705511E+00 0.70090646E+03</pdfrwt>
<pdfrwt beam="2">  1       -1 0.66315814E-01 0.70090646E+03</pdfrwt>
<totfact> 0.49737979E+01</totfact>
</mgrwt>
</event>
<event>
 4    1  0.1123196E-007  0.6731054E+03  0.7818608E-02  0.1013528E+00
          1   -1    0    0  501    0  0.00000000000E+00  0.00000000000E+00  0.17993675494E+04  0.17993675494E+04  0.50400000000E-02 0. -1.
         -1   -1    0    0    0  501 -0.00000000000E+00 -0.00000000000E+00 -0.71330665364E+03  0.71330665366E+03  0.50400000000E-02 0.  1.
    8880023    1    1    2    0    0  0.23367013260E+01 -0.13876295262E+03 -0.54654730155E+03  0.86705523255E+03  0.65864270000E+03 0.  1.
    8880022    1    1    2    0    0 -0.23367013260E+01  0.13876295262E+03  0.16326081973E+04  0.16456189705E+04  0.15294330000E+03 0.  0.
<mgrwt>
<rscale>  0 0.50096231E+03</rscale>
<asrwt>0</asrwt>
<pdfrwt beam="1">  1        1 0.27682577E+00 0.67310536E+03</pdfrwt>
<pdfrwt beam="2">  1       -1 0.10973949E+00 0.67310536E+03</pdfrwt>
<totfact> 0.33311831E+00</totfact>
</mgrwt>
</event>
<event>
 4    1  0.1043382E-007  0.8982830E+03  0.7818608E-02  0.9528794E-01
         -1   -1    0    0    0  501 -0.00000000000E+00  0.00000000000E+00  0.15187308249E+04  0.15187308249E+04  0.50400000000E-02 0.  1.
          1   -1    0    0  501    0  0.00000000000E+00 -0.00000000000E+00 -0.10437429788E+04  0.10437429788E+04  0.50400000000E-02 0. -1.
    8880023    1    1    2    0    0 -0.44711672898E+03  0.41615961200E+03  0.12654536151E+04  0.15518650877E+04  0.65864270000E+03 0.  0.
    8880022    1    1    2    0    0  0.44711672898E+03 -0.41615961200E+03 -0.79046576905E+03  0.10106087161E+04  0.15294330000E+03 0.  0.
<mgrwt>
<rscale>  0 0.82193874E+03</rscale>
<asrwt>0</asrwt>
<pdfrwt beam="1">  1        1 0.16057584E+00 0.89828303E+03</pdfrwt>
<pdfrwt beam="2">  1       -1 0.23365089E+00 0.89828303E+03</pdfrwt>
<totfact> 0.12771420E+00</totfact>
</mgrwt>
</event>
<event>
 4    1  0.1043382E-007  0.8137294E+03  0.7818608E-02  0.9681860E-01
         -1   -1    0    0    0  501 -0.00000000000E+00  0.00000000000E+00  0.58306245817E+03  0.58306245819E+03  0.50400000000E-02 0.  1.
          1   -1    0    0  501    0  0.00000000000E+00 -0.00000000000E+00 -0.10012071843E+04  0.10012071843E+04  0.50400000000E-02 0. -1.
    8880023    1    1    2    0    0  0.36287855185E+03  0.31090910732E+03  0.14876954692E+03  0.82721696112E+03  0.65864270000E+03 0.  0.
    8880022    1    1    2    0    0 -0.36287855185E+03 -0.31090910732E+03 -0.56691427308E+03  0.75705268142E+03  0.15294330000E+03 0.  0.
<mgrwt>
<rscale>  0 0.72107158E+03</rscale>
<asrwt>0</asrwt>
<pdfrwt beam="1">  1        1 0.15403187E+00 0.81372939E+03</pdfrwt>
<pdfrwt beam="2">  1       -1 0.89701917E-01 0.81372939E+03</pdfrwt>
<totfact> 0.18772084E+01</totfact>
</mgrwt>
</event>
<event>
 4    1  0.1043382E-007  0.7093954E+03  0.7818608E-02  0.9960253E-01
         -1   -1    0    0    0  501 -0.00000000000E+00  0.00000000000E+00  0.69863403745E+03  0.69863403746E+03  0.50400000000E-02 0.  1.
          1   -1    0    0  501    0  0.00000000000E+00 -0.00000000000E+00 -0.72731197688E+03  0.72731197690E+03  0.50400000000E-02 0. -1.
    8880023    1    1    2    0    0  0.25936034078E+03  0.46516918003E+02  0.46329083061E+03  0.84727811846E+03  0.65864270000E+03 0.  1.
    8880022    1    1    2    0    0 -0.25936034078E+03 -0.46516918003E+02 -0.49196877004E+03  0.57866789590E+03  0.15294330000E+03 0.  0.
<mgrwt>
<rscale>  0 0.57427958E+03</rscale>
<asrwt>0</asrwt>
<pdfrwt beam="1">  1        1 0.11189415E+00 0.70939539E+03</pdfrwt>
<pdfrwt beam="2">  1       -1 0.10748216E+00 0.70939539E+03</pdfrwt>
<totfact> 0.21361224E+01</totfact>
</mgrwt>
</event>
<event>
 4    1  0.1043382E-007  0.7534269E+03  0.7818608E-02  0.9822432E-01
          1   -1    0    0  501    0  0.00000000000E+00  0.00000000000E+00  0.10088883028E+04  0.10088883028E+04  0.50400000000E-02 0. -1.
         -1   -1    0    0    0  501 -0.00000000000E+00 -0.00000000000E+00 -0.69778242733E+03  0.69778242735E+03  0.50400000000E-02 0.  1.
    8880023    1    1    2    0    0  0.36071965004E+03  0.61018293555E+02 -0.42902280299E+03  0.86701365031E+03  0.65864270000E+03 0.  1.
    8880022    1    1    2    0    0 -0.36071965004E+03 -0.61018293555E+02  0.74012867848E+03  0.83965707988E+03  0.15294330000E+03 0.  0.
<mgrwt>
<rscale>  0 0.64172506E+03</rscale>
<asrwt>0</asrwt>
<pdfrwt beam="1">  1        1 0.15521358E+00 0.75342691E+03</pdfrwt>
<pdfrwt beam="2">  1       -1 0.10735114E+00 0.75342691E+03</pdfrwt>
<totfact> 0.12411776E+01</totfact>
</mgrwt>
</event>
<event>
 4    1  0.1043382E-007  0.7262903E+03  0.7818608E-02  0.9901849E-01
          1   -1    0    0  501    0  0.00000000000E+00  0.00000000000E+00  0.97792831912E+03  0.97792831913E+03  0.50400000000E-02 0. -1.
         -1   -1    0    0    0  501 -0.00000000000E+00 -0.00000000000E+00 -0.48498813804E+03  0.48498813807E+03  0.50400000000E-02 0.  1.
    8880023    1    1    2    0    0 -0.30197593652E+03 -0.49979700089E+02 -0.14349655087E+03  0.74033026619E+03  0.65864270000E+03 0.  0.
    8880022    1    1    2    0    0  0.30197593652E+03  0.49979700089E+02  0.63643673195E+03  0.72258619102E+03  0.15294330000E+03 0.  0.
<mgrwt>
<rscale>  0 0.60171746E+03</rscale>
<asrwt>0</asrwt>
<pdfrwt beam="1">  1        1 0.15045051E+00 0.72629033E+03</pdfrwt>
<pdfrwt beam="2">  1       -1 0.74613560E-01 0.72629033E+03</pdfrwt>
<totfact> 0.29308674E+01</totfact>
</mgrwt>
</event>
<event>
 4    1  0.1354177E-007  0.1565362E+04  0.7818608E-02  0.8864809E-01
         -1   -1    0    0    0  501 -0.00000000000E+00  0.00000000000E+00  0.20432517812E+04  0.20432517812E+04  0.50400000000E-02 0.  1.
          1   -1    0    0  501    0  0.00000000000E+00 -0.00000000000E+00 -0.23335019533E+04  0.23335019533E+04  0.50400000000E-02 0. -1.
    8880023    1    1    2    0    0 -0.11176413674E+04  0.87602783160E+03  0.14442799533E+04  0.21298595676E+04  0.65864270000E+03 0.  1.
    8880022    1    1    2    0    0  0.11176413674E+04 -0.87602783160E+03 -0.17345301255E+04  0.22468941669E+04  0.15294330000E+03 0.  0.
<mgrwt>
<rscale>  0 0.15299004E+04</rscale>
<asrwt>0</asrwt>
<pdfrwt beam="1">  1        1 0.35900030E+00 0.15653617E+04</pdfrwt>
<pdfrwt beam="2">  1       -1 0.31434643E+00 0.15653617E+04</pdfrwt>
<totfact> 0.43969382E-02</totfact>
</mgrwt>
</event>
<event>
 4    1  0.1043382E-007  0.6645393E+03  0.7818608E-02  0.1019923E+00
          1   -1    0    0  501    0  0.00000000000E+00  0.00000000000E+00  0.46281678795E+03  0.46281678798E+03  0.50400000000E-02 0. -1.
         -1   -1    0    0    0  501 -0.00000000000E+00 -0.00000000000E+00 -0.43742249931E+03  0.43742249934E+03  0.50400000000E-02 0.  1.
    8880023    1    1    2    0    0 -0.15237688885E+02  0.87005908374E+02 -0.11525569135E+03  0.67446000319E+03  0.65864270000E+03 0.  0.
    8880022    1    1    2    0    0  0.15237688885E+02 -0.87005908374E+02  0.14064997999E+03  0.22577928413E+03  0.15294330000E+03 0.  0.
<mgrwt>
<rscale>  0 0.47714363E+03</rscale>
<asrwt>0</asrwt>
<pdfrwt beam="1">  1        1 0.71202583E-01 0.66453926E+03</pdfrwt>
<pdfrwt beam="2">  1       -1 0.67295769E-01 0.66453926E+03</pdfrwt>
<totfact> 0.11274290E+02</totfact>
</mgrwt>
</event>
<event>
 4    1  0.1043382E-007  0.6682380E+03  0.7818608E-02  0.1016959E+00
          1   -1    0    0  501    0  0.00000000000E+00  0.00000000000E+00  0.60792895031E+03  0.60792895033E+03  0.50400000000E-02 0. -1.
         -1   -1    0    0    0  501 -0.00000000000E+00 -0.00000000000E+00 -0.48963109286E+03  0.48963109288E+03  0.50400000000E-02 0.  1.
    8880023    1    1    2    0    0  0.10501175407E+03 -0.41283187203E+02 -0.22505069238E+03  0.70511686297E+03  0.65864270000E+03 0.  1.
    8880022    1    1    2    0    0 -0.10501175407E+03  0.41283187203E+02  0.34334854983E+03  0.39244318024E+03  0.15294330000E+03 0.  0.
<mgrwt>
<rscale>  0 0.48800241E+03</rscale>
<asrwt>0</asrwt>
<pdfrwt beam="1">  1        1 0.93527530E-01 0.66823796E+03</pdfrwt>
<pdfrwt beam="2">  1       -1 0.75327861E-01 0.66823796E+03</pdfrwt>
<totfact> 0.61207640E+01</totfact>
</mgrwt>
</event>
<event>
 4    1  0.1043382E-007  0.7042300E+03  0.7818608E-02  0.9980086E-01
          1   -1    0    0  501    0  0.00000000000E+00  0.00000000000E+00  0.66953012632E+03  0.66953012634E+03  0.50400000000E-02 0. -1.
         -1   -1    0    0    0  501 -0.00000000000E+00 -0.00000000000E+00 -0.37272989864E+03  0.37272989867E+03  0.50400000000E-02 0.  1.
    8880023    1    1    2    0    0 -0.67881808235E+02  0.23983702049E+03  0.24255769683E+03  0.74483164463E+03  0.65864270000E+03 0.  0.
    8880022    1    1    2    0    0  0.67881808235E+02 -0.23983702049E+03  0.54242530858E+02  0.29742838038E+03  0.15294330000E+03 0.  1.
<mgrwt>
<rscale>  0 0.56532117E+03</rscale>
<asrwt>0</asrwt>
<pdfrwt beam="1">  1        1 0.10300464E+00 0.70423004E+03</pdfrwt>
<pdfrwt beam="2">  1       -1 0.57343061E-01 0.70423004E+03</pdfrwt>
<totfact> 0.91749101E+01</totfact>
</mgrwt>
</event>
<event>
 4    1  0.1043382E-007  0.7269667E+03  0.7818608E-02  0.9899682E-01
          1   -1    0    0  501    0  0.00000000000E+00  0.00000000000E+00  0.12837629720E+04  0.12837629720E+04  0.50400000000E-02 0. -1.
         -1   -1    0    0    0  501 -0.00000000000E+00 -0.00000000000E+00 -0.24137883044E+03  0.24137883049E+03  0.50400000000E-02 0.  1.
    8880023    1    1    2    0    0  0.11907739096E+03  0.28370915811E+03  0.89027204809E+03  0.11493758468E+04  0.65864270000E+03 0. -1.
    8880022    1    1    2    0    0 -0.11907739096E+03 -0.28370915811E+03  0.15211209347E+03  0.37576595565E+03  0.15294330000E+03 0.  0.
<mgrwt>
<rscale>  0 0.60276721E+03</rscale>
<asrwt>0</asrwt>
<pdfrwt beam="1">  1        1 0.19750199E+00 0.72696666E+03</pdfrwt>
<pdfrwt beam="2">  1       -1 0.37135206E-01 0.72696666E+03</pdfrwt>
<totfact> 0.66500288E+01</totfact>
</mgrwt>
</event>
<event>
 4    1  0.1043382E-007  0.7405419E+03  0.7818608E-02  0.9858371E-01
         -1   -1    0    0    0  501 -0.00000000000E+00  0.00000000000E+00  0.37776477420E+03  0.37776477424E+03  0.50400000000E-02 0.  1.
          1   -1    0    0  501    0  0.00000000000E+00 -0.00000000000E+00 -0.11096334504E+04  0.11096334504E+04  0.50400000000E-02 0. -1.
    8880023    1    1    2    0    0  0.24756978742E+03  0.23087065967E+03 -0.90266350415E+02  0.74602297647E+03  0.65864270000E+03 0.  1.
    8880022    1    1    2    0    0 -0.24756978742E+03 -0.23087065967E+03 -0.64160232576E+03  0.74137524816E+03  0.15294330000E+03 0.  0.
<mgrwt>
<rscale>  0 0.62321901E+03</rscale>
<asrwt>0</asrwt>
<pdfrwt beam="1">  1        1 0.17071284E+00 0.74054187E+03</pdfrwt>
<pdfrwt beam="2">  1       -1 0.58117658E-01 0.74054187E+03</pdfrwt>
<totfact> 0.38433029E+01</totfact>
</mgrwt>
</event>
<event>
 4    1  0.1043382E-007  0.6982001E+03  0.7818608E-02  0.1000475E+00
          1   -1    0    0  501    0  0.00000000000E+00  0.00000000000E+00  0.81541927429E+03  0.81541927430E+03  0.50400000000E-02 0. -1.
         -1   -1    0    0    0  501 -0.00000000000E+00 -0.00000000000E+00 -0.52833496174E+03  0.52833496176E+03  0.50400000000E-02 0.  1.
    8880023    1    1    2    0    0 -0.14540265513E+02 -0.23121793524E+03 -0.24800598452E+03  0.74093881496E+03  0.65864270000E+03 0.  1.
    8880022    1    1    2    0    0  0.14540265513E+02  0.23121793524E+03  0.53509029707E+03  0.60281542111E+03  0.15294330000E+03 0.  0.
<mgrwt>
<rscale>  0 0.55442389E+03</rscale>
<asrwt>0</asrwt>
<pdfrwt beam="1">  1        1 0.12544912E+00 0.69820009E+03</pdfrwt>
<pdfrwt beam="2">  1       -1 0.81282302E-01 0.69820009E+03</pdfrwt>
<totfact> 0.33319974E+01</totfact>
</mgrwt>
</event>
<event>
 4    1  0.1043382E-007  0.7879515E+03  0.7818608E-02  0.9737480E-01
          1   -1    0    0  501    0  0.00000000000E+00  0.00000000000E+00  0.98365785633E+03  0.98365785634E+03  0.50400000000E-02 0. -1.
         -1   -1    0    0    0  501 -0.00000000000E+00 -0.00000000000E+00 -0.69572139773E+03  0.69572139775E+03  0.50400000000E-02 0.  1.
    8880023    1    1    2    0    0  0.71144202034E+01  0.43244277208E+03 -0.37544647335E+03  0.87282737509E+03  0.65864270000E+03 0.  0.
    8880022    1    1    2    0    0 -0.71144202034E+01 -0.43244277208E+03  0.66338293195E+03  0.80655187899E+03  0.15294330000E+03 0.  0.
<mgrwt>
<rscale>  0 0.68828448E+03</rscale>
<asrwt>0</asrwt>
<pdfrwt beam="1">  1        1 0.15133198E+00 0.78795150E+03</pdfrwt>
<pdfrwt beam="2">  1       -1 0.10703406E+00 0.78795150E+03</pdfrwt>
<totfact> 0.13017535E+01</totfact>
</mgrwt>
</event>
<event>
 4    1  0.1043382E-007  0.7948806E+03  0.7818608E-02  0.9721976E-01
         -1   -1    0    0    0  501 -0.00000000000E+00  0.00000000000E+00  0.53351113995E+03  0.53351113997E+03  0.50400000000E-02 0.  1.
          1   -1    0    0  501    0  0.00000000000E+00 -0.00000000000E+00 -0.76166857493E+03  0.76166857495E+03  0.50400000000E-02 0. -1.
    8880023    1    1    2    0    0  0.38806690903E+03 -0.21778211827E+03 -0.21917771355E+03  0.82454475518E+03  0.65864270000E+03 0.  1.
    8880022    1    1    2    0    0 -0.38806690903E+03  0.21778211827E+03 -0.89797214307E+01  0.47063495974E+03  0.15294330000E+03 0. -1.
<mgrwt>
<rscale>  0 0.69723263E+03</rscale>
<asrwt>0</asrwt>
<pdfrwt beam="1">  1        1 0.11717978E+00 0.79488061E+03</pdfrwt>
<pdfrwt beam="2">  1       -1 0.82078637E-01 0.79488061E+03</pdfrwt>
<totfact> 0.36002040E+01</totfact>
</mgrwt>
</event>
<event>
 4    1  0.1043382E-007  0.7828949E+03  0.7818608E-02  0.9749080E-01
         -1   -1    0    0    0  501 -0.00000000000E+00  0.00000000000E+00  0.16575824292E+03  0.16575824300E+03  0.50400000000E-02 0.  1.
          1   -1    0    0  501    0  0.00000000000E+00 -0.00000000000E+00 -0.26975016170E+04  0.26975016170E+04  0.50400000000E-02 0. -1.
    8880023    1    1    2    0    0 -0.33031907196E+03 -0.26458177793E+03 -0.10191309237E+04  0.12851273293E+04  0.65864270000E+03 0.  1.
    8880022    1    1    2    0    0  0.33031907196E+03  0.26458177793E+03 -0.15126124504E+04  0.15781325308E+04  0.15294330000E+03 0.  0.
<mgrwt>
<rscale>  0 0.68168273E+03</rscale>
<asrwt>0</asrwt>
<pdfrwt beam="1">  1        1 0.41500022E+00 0.78289489E+03</pdfrwt>
<pdfrwt beam="2">  1       -1 0.25501270E-01 0.78289489E+03</pdfrwt>
<totfact> 0.13985217E+01</totfact>
</mgrwt>
</event>
<event>
 4    1  0.1043382E-007  0.8007619E+03  0.7818608E-02  0.9709151E-01
          1   -1    0    0  501    0  0.00000000000E+00  0.00000000000E+00  0.32866614214E+03  0.32866614218E+03  0.50400000000E-02 0. -1.
         -1   -1    0    0    0  501 -0.00000000000E+00 -0.00000000000E+00 -0.18232038456E+04  0.18232038456E+04  0.50400000000E-02 0.  1.
    8880023    1    1    2    0    0  0.29335338822E+03  0.34835784527E+03 -0.14662001349E+04  0.16706173830E+04  0.65864270000E+03 0.  0.
    8880022    1    1    2    0    0 -0.29335338822E+03 -0.34835784527E+03 -0.28337568547E+02  0.48125260471E+03  0.15294330000E+03 0.  0.
<mgrwt>
<rscale>  0 0.70474543E+03</rscale>
<asrwt>0</asrwt>
<pdfrwt beam="1">  1        1 0.50564023E-01 0.80076189E+03</pdfrwt>
<pdfrwt beam="2">  1       -1 0.28049289E+00 0.80076189E+03</pdfrwt>
<totfact> 0.35659084E+00</totfact>
</mgrwt>
</event>
<event>
 4    1  0.1043382E-007  0.9970167E+03  0.7818608E-02  0.9385471E-01
          1   -1    0    0  501    0  0.00000000000E+00  0.00000000000E+00  0.11248087082E+04  0.11248087082E+04  0.50400000000E-02 0. -1.
         -1   -1    0    0    0  501 -0.00000000000E+00 -0.00000000000E+00 -0.74600978674E+03  0.74600978675E+03  0.50400000000E-02 0.  1.
    8880023    1    1    2    0    0  0.58720767685E+03  0.46413276207E+03  0.46852245341E+03  0.11016149836E+04  0.65864270000E+03 0. -1.
    8880022    1    1    2    0    0 -0.58720767685E+03 -0.46413276207E+03 -0.89723531972E+02  0.76920351129E+03  0.15294330000E+03 0.  0.
<mgrwt>
<rscale>  0 0.93281053E+03</rscale>
<asrwt>0</asrwt>
<pdfrwt beam="1">  1        1 0.17304749E+00 0.99701669E+03</pdfrwt>
<pdfrwt beam="2">  1       -1 0.11477074E+00 0.99701669E+03</pdfrwt>
<totfact> 0.84050861E+00</totfact>
</mgrwt>
</event>
<event>
 4    1  0.1043382E-007  0.6642363E+03  0.7818608E-02  0.1020183E+00
         -1   -1    0    0    0  501 -0.00000000000E+00  0.00000000000E+00  0.10556837454E+03  0.10556837466E+03  0.50400000000E-02 0.  1.
          1   -1    0    0  501    0  0.00000000000E+00 -0.00000000000E+00 -0.23730449087E+04  0.23730449087E+04  0.50400000000E-02 0. -1.
    8880023    1    1    2    0    0  0.60052439304E+02  0.61590620477E+02 -0.10093164016E+04  0.12082754259E+04  0.65864270000E+03 0.  0.
    8880022    1    1    2    0    0 -0.60052439304E+02 -0.61590620477E+02 -0.12581601326E+04  0.12703378575E+04  0.15294330000E+03 0. -1.
<mgrwt>
<rscale>  0 0.47620677E+03</rscale>
<asrwt>0</asrwt>
<pdfrwt beam="1">  1        1 0.36508379E+00 0.66423633E+03</pdfrwt>
<pdfrwt beam="2">  1       -1 0.16241290E-01 0.66423633E+03</pdfrwt>
<totfact> 0.50374222E+01</totfact>
</mgrwt>
</event>
<event>
 4    1  0.1043382E-007  0.1107686E+04  0.7818608E-02  0.9252546E-01
         -1   -1    0    0    0  501 -0.00000000000E+00  0.00000000000E+00  0.18178931086E+04  0.18178931086E+04  0.50400000000E-02 0.  1.
          1   -1    0    0  501    0  0.00000000000E+00 -0.00000000000E+00 -0.79045757171E+03  0.79045757173E+03  0.50400000000E-02 0. -1.
    8880023    1    1    2    0    0 -0.55379098188E+03  0.69747718613E+03  0.12576007920E+04  0.16758665922E+04  0.65864270000E+03 0.  0.
    8880022    1    1    2    0    0  0.55379098188E+03 -0.69747718613E+03 -0.23016525512E+03  0.93248408805E+03  0.15294330000E+03 0.  0.
<mgrwt>
<rscale>  0 0.10527142E+04</rscale>
<asrwt>0</asrwt>
<pdfrwt beam="1">  1        1 0.12160886E+00 0.11076864E+04</pdfrwt>
<pdfrwt beam="2">  1       -1 0.27967586E+00 0.11076864E+04</pdfrwt>
<totfact> 0.10047649E+00</totfact>
</mgrwt>
</event>
<event>
 4    1  0.1043382E-007  0.6675197E+03  0.7818608E-02  0.1017507E+00
          1   -1    0    0  501    0  0.00000000000E+00  0.00000000000E+00  0.84737922597E+03  0.84737922598E+03  0.50400000000E-02 0. -1.
         -1   -1    0    0    0  501 -0.00000000000E+00 -0.00000000000E+00 -0.12669153811E+04  0.12669153811E+04  0.50400000000E-02 0.  1.
    8880023    1    1    2    0    0  0.88650144213E+02  0.62558047957E+02 -0.11665892438E+04  0.13440658568E+04  0.65864270000E+03 0.  1.
    8880022    1    1    2    0    0 -0.88650144213E+02 -0.62558047957E+02  0.74705308867E+03  0.77022875027E+03  0.15294330000E+03 0.  0.
<mgrwt>
<rscale>  0 0.48597102E+03</rscale>
<asrwt>0</asrwt>
<pdfrwt beam="1">  1        1 0.13036603E+00 0.66751971E+03</pdfrwt>
<pdfrwt beam="2">  1       -1 0.19491006E+00 0.66751971E+03</pdfrwt>
<totfact> 0.34638119E+00</totfact>
</mgrwt>
</event>
<event>
 4    1  0.1043382E-007  0.7850429E+03  0.7818608E-02  0.9744122E-01
          1   -1    0    0  501    0  0.00000000000E+00  0.00000000000E+00  0.10475476410E+04  0.10475476410E+04  0.50400000000E-02 0. -1.
         -1   -1    0    0    0  501 -0.00000000000E+00 -0.00000000000E+00 -0.91125457810E+03  0.91125457811E+03  0.50400000000E-02 0.  1.
    8880023    1    1    2    0    0  0.40233129684E+03 -0.14356781750E+03 -0.67100422265E+03  0.10327337816E+04  0.65864270000E+03 0.  1.
    8880022    1    1    2    0    0 -0.40233129684E+03  0.14356781750E+03  0.80729728553E+03  0.92606843747E+03  0.15294330000E+03 0.  0.
<mgrwt>
<rscale>  0 0.68449487E+03</rscale>
<asrwt>0</asrwt>
<pdfrwt beam="1">  1        1 0.16116117E+00 0.78504293E+03</pdfrwt>
<pdfrwt beam="2">  1       -1 0.14019301E+00 0.78504293E+03</pdfrwt>
<totfact> 0.59817833E+00</totfact>
</mgrwt>
</event>
<event>
 4    1  0.1043382E-007  0.7105870E+03  0.7818608E-02  0.9955828E-01
         -1   -1    0    0    0  501 -0.00000000000E+00  0.00000000000E+00  0.95667189035E+03  0.95667189036E+03  0.50400000000E-02 0.  1.
          1   -1    0    0  501    0  0.00000000000E+00 -0.00000000000E+00 -0.63874395216E+03  0.63874395218E+03  0.50400000000E-02 0. -1.
    8880023    1    1    2    0    0 -0.17510277431E+03 -0.20115351823E+03  0.77059971636E+03  0.10482165084E+04  0.65864270000E+03 0.  0.
    8880022    1    1    2    0    0  0.17510277431E+03  0.20115351823E+03 -0.45267177816E+03  0.54719933409E+03  0.15294330000E+03 0. -1.
<mgrwt>
<rscale>  0 0.57630284E+03</rscale>
<asrwt>0</asrwt>
<pdfrwt beam="1">  1        1 0.98268300E-01 0.71058703E+03</pdfrwt>
<pdfrwt beam="2">  1       -1 0.14718029E+00 0.71058703E+03</pdfrwt>
<totfact> 0.11873875E+01</totfact>
</mgrwt>
</event>
<event>
 4    1  0.1043382E-007  0.7198639E+03  0.7818608E-02  0.9923047E-01
         -1   -1    0    0    0  501 -0.00000000000E+00  0.00000000000E+00  0.18853796864E+03  0.18853796871E+03  0.50400000000E-02 0.  1.
          1   -1    0    0  501    0  0.00000000000E+00 -0.00000000000E+00 -0.18707271763E+04  0.18707271763E+04  0.50400000000E-02 0. -1.
    8880023    1    1    2    0    0 -0.27903666827E+03  0.80823470501E+02 -0.62853310450E+03  0.95564531357E+03  0.65864270000E+03 0.  1.
    8880022    1    1    2    0    0  0.27903666827E+03 -0.80823470501E+02 -0.10536561031E+04  0.11036198314E+04  0.15294330000E+03 0.  0.
<mgrwt>
<rscale>  0 0.59157237E+03</rscale>
<asrwt>0</asrwt>
<pdfrwt beam="1">  1        1 0.28780417E+00 0.71986395E+03</pdfrwt>
<pdfrwt beam="2">  1       -1 0.29005843E-01 0.71986395E+03</pdfrwt>
<totfact> 0.40950569E+01</totfact>
</mgrwt>
</event>
<event>
 4    1  0.1043382E-007  0.8118871E+03  0.7818608E-02  0.9685660E-01
          1   -1    0    0  501    0  0.00000000000E+00  0.00000000000E+00  0.82410165546E+03  0.82410165547E+03  0.50400000000E-02 0. -1.
         -1   -1    0    0    0  501 -0.00000000000E+00 -0.00000000000E+00 -0.75291606971E+03  0.75291606973E+03  0.50400000000E-02 0.  1.
    8880023    1    1    2    0    0  0.25185705612E+03 -0.40239089508E+03 -0.38732181809E+03  0.89954366552E+03  0.65864270000E+03 0.  0.
    8880022    1    1    2    0    0 -0.25185705612E+03  0.40239089508E+03  0.45850740383E+03  0.67747405968E+03  0.15294330000E+03 0.  0.
<mgrwt>
<rscale>  0 0.71877071E+03</rscale>
<asrwt>0</asrwt>
<pdfrwt beam="1">  1        1 0.12678487E+00 0.81188707E+03</pdfrwt>
<pdfrwt beam="2">  1       -1 0.11583324E+00 0.81188707E+03</pdfrwt>
<totfact> 0.14523538E+01</totfact>
</mgrwt>
</event>
<event>
 4    1  0.1043382E-007  0.7830462E+03  0.7818608E-02  0.9748729E-01
          1   -1    0    0  501    0  0.00000000000E+00  0.00000000000E+00  0.26526053572E+04  0.26526053572E+04  0.50400000000E-02 0. -1.
         -1   -1    0    0    0  501 -0.00000000000E+00 -0.00000000000E+00 -0.18940377982E+03  0.18940377989E+03  0.50400000000E-02 0.  1.
    8880023    1    1    2    0    0  0.40177941178E+03  0.13388243740E+03  0.80204415871E+03  0.11209086678E+04  0.65864270000E+03 0.  0.
    8880022    1    1    2    0    0 -0.40177941178E+03 -0.13388243740E+03  0.16611574186E+04  0.17211004693E+04  0.15294330000E+03 0.  0.
<mgrwt>
<rscale>  0 0.68188125E+03</rscale>
<asrwt>0</asrwt>
<pdfrwt beam="1">  1        1 0.40809315E+00 0.78304624E+03</pdfrwt>
<pdfrwt beam="2">  1       -1 0.29139042E-01 0.78304624E+03</pdfrwt>
<totfact> 0.11937846E+01</totfact>
</mgrwt>
</event>
<event>
 4    1  0.1043382E-007  0.7843783E+03  0.7818608E-02  0.9745651E-01
          1   -1    0    0  501    0  0.00000000000E+00  0.00000000000E+00  0.12033780329E+04  0.12033780329E+04  0.50400000000E-02 0. -1.
         -1   -1    0    0    0  501 -0.00000000000E+00 -0.00000000000E+00 -0.40080342634E+03  0.40080342637E+03  0.50400000000E-02 0.  1.
    8880023    1    1    2    0    0 -0.14245577882E+03 -0.40142928975E+03  0.13236007717E+03  0.79546748512E+03  0.65864270000E+03 0.  1.
    8880022    1    1    2    0    0  0.14245577882E+03  0.40142928975E+03  0.67021452940E+03  0.80871397418E+03  0.15294330000E+03 0.  0.
<mgrwt>
<rscale>  0 0.68362602E+03</rscale>
<asrwt>0</asrwt>
<pdfrwt beam="1">  1        1 0.18513508E+00 0.78437831E+03</pdfrwt>
<pdfrwt beam="2">  1       -1 0.61662065E-01 0.78437831E+03</pdfrwt>
<totfact> 0.29052910E+01</totfact>
</mgrwt>
</event>
<event>
 4    1  0.1043382E-007  0.6830753E+03  0.7818608E-02  0.1007635E+00
         -1   -1    0    0    0  501 -0.00000000000E+00  0.00000000000E+00  0.15058163461E+03  0.15058163469E+03  0.50400000000E-02 0.  1.
          1   -1    0    0  501    0  0.00000000000E+00 -0.00000000000E+00 -0.15813929377E+04  0.15813929377E+04  0.50400000000E-02 0. -1.
    8880023    1    1    2    0    0 -0.28703919870E+02 -0.17876730849E+03 -0.76675947632E+03  0.10268943307E+04  0.65864270000E+03 0.  1.
    8880022    1    1    2    0    0  0.28703919870E+02  0.17876730849E+03 -0.66405182679E+03  0.70508024173E+03  0.15294330000E+03 0.  0.
<mgrwt>
<rscale>  0 0.52425514E+03</rscale>
<asrwt>0</asrwt>
<pdfrwt beam="1">  1        1 0.24329121E+00 0.68307530E+03</pdfrwt>
<pdfrwt beam="2">  1       -1 0.23166406E-01 0.68307530E+03</pdfrwt>
<totfact> 0.94494183E+01</totfact>
</mgrwt>
</event>
<event>
 4    1  0.1043382E-007  0.6823002E+03  0.7818608E-02  0.1008051E+00
          1   -1    0    0  501    0  0.00000000000E+00  0.00000000000E+00  0.26313700361E+03  0.26313700365E+03  0.50400000000E-02 0. -1.
         -1   -1    0    0    0  501 -0.00000000000E+00 -0.00000000000E+00 -0.89216152471E+03  0.89216152473E+03  0.50400000000E-02 0.  1.
    8880023    1    1    2    0    0 -0.10296667703E+03 -0.14533140590E+03 -0.28642865371E+03  0.73998306335E+03  0.65864270000E+03 0. -1.
    8880022    1    1    2    0    0  0.10296667703E+03  0.14533140590E+03 -0.34259586740E+03  0.41531546503E+03  0.15294330000E+03 0.  0.
<mgrwt>
<rscale>  0 0.52256505E+03</rscale>
<asrwt>0</asrwt>
<pdfrwt beam="1">  1        1 0.40482616E-01 0.68230020E+03</pdfrwt>
<pdfrwt beam="2">  1       -1 0.13725562E+00 0.68230020E+03</pdfrwt>
<totfact> 0.47098212E+01</totfact>
</mgrwt>
</event>
<event>
 4    1  0.1043382E-007  0.1021737E+04  0.7818608E-02  0.9353656E-01
         -1   -1    0    0    0  501 -0.00000000000E+00  0.00000000000E+00  0.72985885246E+03  0.72985885248E+03  0.50400000000E-02 0.  1.
          1   -1    0    0  501    0  0.00000000000E+00 -0.00000000000E+00 -0.14516266839E+04  0.14516266840E+04  0.50400000000E-02 0. -1.
    8880023    1    1    2    0    0  0.77523062744E+03  0.95673820540E+02 -0.90479212797E+03  0.13647692137E+04  0.65864270000E+03 0. -1.
    8880022    1    1    2    0    0 -0.77523062744E+03 -0.95673820540E+02  0.18302429649E+03  0.81671632271E+03  0.15294330000E+03 0.  0.
<mgrwt>
<rscale>  0 0.95989779E+03</rscale>
<asrwt>0</asrwt>
<pdfrwt beam="1">  1        1 0.22332718E+00 0.10217369E+04</pdfrwt>
<pdfrwt beam="2">  1       -1 0.11228598E+00 0.10217369E+04</pdfrwt>
<totfact> 0.51503191E+00</totfact>
</mgrwt>
</event>
<event>
 4    1  0.1043382E-007  0.7994332E+03  0.7818608E-02  0.9712023E-01
          1   -1    0    0  501    0  0.00000000000E+00  0.00000000000E+00  0.60289375400E+03  0.60289375402E+03  0.50400000000E-02 0. -1.
         -1   -1    0    0    0  501 -0.00000000000E+00 -0.00000000000E+00 -0.76736618016E+03  0.76736618018E+03  0.50400000000E-02 0.  1.
    8880023    1    1    2    0    0 -0.45031778636E+03  0.49972023902E+02 -0.32908944664E+03  0.86451916233E+03  0.65864270000E+03 0.  0.
    8880022    1    1    2    0    0  0.45031778636E+03 -0.49972023902E+02  0.16461702047E+03  0.50574077187E+03  0.15294330000E+03 0.  0.
<mgrwt>
<rscale>  0 0.70305448E+03</rscale>
<asrwt>0</asrwt>
<pdfrwt beam="1">  1        1 0.92752885E-01 0.79943325E+03</pdfrwt>
<pdfrwt beam="2">  1       -1 0.11805634E+00 0.79943325E+03</pdfrwt>
<totfact> 0.22363493E+01</totfact>
</mgrwt>
</event>
<event>
 4    1  0.1043382E-007  0.8432733E+03  0.7818608E-02  0.9624039E-01
         -1   -1    0    0    0  501 -0.00000000000E+00  0.00000000000E+00  0.82121370668E+03  0.82121370669E+03  0.50400000000E-02 0.  1.
          1   -1    0    0  501    0  0.00000000000E+00 -0.00000000000E+00 -0.60006172405E+03  0.60006172407E+03  0.50400000000E-02 0. -1.
    8880023    1    1    2    0    0 -0.51802812642E+03  0.94585646233E+02  0.22550662043E+03  0.87290493546E+03  0.65864270000E+03 0. -1.
    8880022    1    1    2    0    0  0.51802812642E+03 -0.94585646233E+02 -0.43546377930E+01  0.54837049530E+03  0.15294330000E+03 0.  0.
<mgrwt>
<rscale>  0 0.75725359E+03</rscale>
<asrwt>0</asrwt>
<pdfrwt beam="1">  1        1 0.92317188E-01 0.84327326E+03</pdfrwt>
<pdfrwt beam="2">  1       -1 0.12634057E+00 0.84327326E+03</pdfrwt>
<totfact> 0.18971339E+01</totfact>
</mgrwt>
</event>
<event>
 4    1  0.1043382E-007  0.9421737E+03  0.7818608E-02  0.9461465E-01
          1   -1    0    0  501    0  0.00000000000E+00  0.00000000000E+00  0.93989115560E+03  0.93989115561E+03  0.50400000000E-02 0. -1.
         -1   -1    0    0    0  501 -0.00000000000E+00 -0.00000000000E+00 -0.86679239992E+03  0.86679239994E+03  0.50400000000E-02 0.  1.
    8880023    1    1    2    0    0  0.44913213329E+03 -0.50215668312E+03 -0.34012020586E+03  0.10016850644E+04  0.65864270000E+03 0.  1.
    8880022    1    1    2    0    0 -0.44913213329E+03  0.50215668312E+03  0.41321896153E+03  0.80499849114E+03  0.15294330000E+03 0.  0.
<mgrwt>
<rscale>  0 0.87185455E+03</rscale>
<asrwt>0</asrwt>
<pdfrwt beam="1">  1        1 0.14459864E+00 0.94217366E+03</pdfrwt>
<pdfrwt beam="2">  1       -1 0.13335268E+00 0.94217366E+03</pdfrwt>
<totfact> 0.80966716E+00</totfact>
</mgrwt>
</event>
<event>
 4    1  0.1043382E-007  0.6928829E+03  0.7818608E-02  0.1002811E+00
          1   -1    0    0  501    0  0.00000000000E+00  0.00000000000E+00  0.14644976653E+04  0.14644976653E+04  0.50400000000E-02 0. -1.
         -1   -1    0    0    0  501 -0.00000000000E+00 -0.00000000000E+00 -0.16274748608E+03  0.16274748616E+03  0.50400000000E-02 0.  1.
    8880023    1    1    2    0    0  0.15743759768E+03 -0.14659414233E+03  0.78543673661E+03  0.10473764907E+04  0.65864270000E+03 0. -1.
    8880022    1    1    2    0    0 -0.15743759768E+03  0.14659414233E+03  0.51631344260E+03  0.57986866078E+03  0.15294330000E+03 0.  0.
<mgrwt>
<rscale>  0 0.54434483E+03</rscale>
<asrwt>0</asrwt>
<pdfrwt beam="1">  1        1 0.22530732E+00 0.69288285E+03</pdfrwt>
<pdfrwt beam="2">  1       -1 0.25038076E-01 0.69288285E+03</pdfrwt>
<totfact> 0.99408396E+01</totfact>
</mgrwt>
</event>
<event>
 4    1  0.1043382E-007  0.6886298E+03  0.7818608E-02  0.1004811E+00
          1   -1    0    0  501    0  0.00000000000E+00  0.00000000000E+00  0.45432203824E+03  0.45432203827E+03  0.50400000000E-02 0. -1.
         -1   -1    0    0    0  501 -0.00000000000E+00 -0.00000000000E+00 -0.68125747831E+03  0.68125747833E+03  0.50400000000E-02 0.  1.
    8880023    1    1    2    0    0  0.19689986392E+03 -0.40389290135E+02 -0.42969126668E+03  0.81169307136E+03  0.65864270000E+03 0.  1.
    8880022    1    1    2    0    0 -0.19689986392E+03  0.40389290135E+02  0.20275582661E+03  0.32388644524E+03  0.15294330000E+03 0.  0.
<mgrwt>
<rscale>  0 0.53590226E+03</rscale>
<asrwt>0</asrwt>
<pdfrwt beam="1">  1        1 0.69895698E-01 0.68862984E+03</pdfrwt>
<pdfrwt beam="2">  1       -1 0.10480884E+00 0.68862984E+03</pdfrwt>
<totfact> 0.44396019E+01</totfact>
</mgrwt>
</event>
<event>
 4    1  0.1043382E-007  0.6897118E+03  0.7818608E-02  0.1004290E+00
         -1   -1    0    0    0  501 -0.00000000000E+00  0.00000000000E+00  0.32232744386E+03  0.32232744390E+03  0.50400000000E-02 0.  1.
          1   -1    0    0  501    0  0.00000000000E+00 -0.00000000000E+00 -0.13968375086E+04  0.13968375086E+04  0.50400000000E-02 0. -1.
    8880023    1    1    2    0    0 -0.19397642231E+03  0.65309222405E+02 -0.82323446362E+02  0.69460744527E+03  0.65864270000E+03 0.  1.
    8880022    1    1    2    0    0  0.19397642231E+03 -0.65309222405E+02 -0.99218661837E+03  0.10245575072E+04  0.15294330000E+03 0.  0.
<mgrwt>
<rscale>  0 0.53808566E+03</rscale>
<asrwt>0</asrwt>
<pdfrwt beam="1">  1        1 0.21489807E+00 0.68971179E+03</pdfrwt>
<pdfrwt beam="2">  1       -1 0.49588838E-01 0.68971179E+03</pdfrwt>
<totfact> 0.32682766E+01</totfact>
</mgrwt>
</event>
<event>
 4    1  0.1043382E-007  0.9767554E+03  0.7818608E-02  0.9412621E-01
          1   -1    0    0  501    0  0.00000000000E+00  0.00000000000E+00  0.15422822481E+04  0.15422822481E+04  0.50400000000E-02 0. -1.
         -1   -1    0    0    0  501 -0.00000000000E+00 -0.00000000000E+00 -0.68546002683E+03  0.68546002685E+03  0.50400000000E-02 0.  1.
    8880023    1    1    2    0    0  0.43274678681E+02  0.71997792396E+03 -0.14119461113E+03  0.98690781397E+03  0.65864270000E+03 0.  1.
    8880022    1    1    2    0    0 -0.43274678681E+02 -0.71997792396E+03  0.99801683239E+03  0.12408344610E+04  0.15294330000E+03 0.  0.
<mgrwt>
<rscale>  0 0.91044256E+03</rscale>
<asrwt>0</asrwt>
<pdfrwt beam="1">  1        1 0.23727419E+00 0.97675540E+03</pdfrwt>
<pdfrwt beam="2">  1       -1 0.10545539E+00 0.97675540E+03</pdfrwt>
<totfact> 0.51996079E+00</totfact>
</mgrwt>
</event>
<event>
 4    1  0.1043382E-007  0.7801542E+03  0.7818608E-02  0.9755475E-01
         -1   -1    0    0    0  501 -0.00000000000E+00  0.00000000000E+00  0.20758349376E+04  0.20758349376E+04  0.50400000000E-02 0.  1.
          1   -1    0    0  501    0  0.00000000000E+00 -0.00000000000E+00 -0.31639138304E+03  0.31639138308E+03  0.50400000000E-02 0. -1.
    8880023    1    1    2    0    0  0.25014988053E+03 -0.33504544771E+03  0.17831786746E+04  0.19463727307E+04  0.65864270000E+03 0.  0.
    8880022    1    1    2    0    0 -0.25014988053E+03  0.33504544771E+03 -0.23735120112E+02  0.44585358998E+03  0.15294330000E+03 0. -1.
<mgrwt>
<rscale>  0 0.67807753E+03</rscale>
<asrwt>0</asrwt>
<pdfrwt beam="1">  1        1 0.48675599E-01 0.78015423E+03</pdfrwt>
<pdfrwt beam="2">  1       -1 0.31935921E+00 0.78015423E+03</pdfrwt>
<totfact> 0.21185364E+00</totfact>
</mgrwt>
</event>
<event>
 4    1  0.1043382E-007  0.7986892E+03  0.7818608E-02  0.9713638E-01
          1   -1    0    0  501    0  0.00000000000E+00  0.00000000000E+00  0.16066954742E+04  0.16066954742E+04  0.50400000000E-02 0. -1.
         -1   -1    0    0    0  501 -0.00000000000E+00 -0.00000000000E+00 -0.31074496511E+03  0.31074496515E+03  0.50400000000E-02 0.  1.
    8880023    1    1    2    0    0 -0.35577826359E+03  0.27841700263E+03  0.37941120430E+03  0.88422693264E+03  0.65864270000E+03 0.  1.
    8880022    1    1    2    0    0  0.35577826359E+03 -0.27841700263E+03  0.91653930476E+03  0.10332135067E+04  0.15294330000E+03 0.  0.
<mgrwt>
<rscale>  0 0.70210594E+03</rscale>
<asrwt>0</asrwt>
<pdfrwt beam="1">  1        1 0.24718392E+00 0.79868918E+03</pdfrwt>
<pdfrwt beam="2">  1       -1 0.47806917E-01 0.79868918E+03</pdfrwt>
<totfact> 0.24811638E+01</totfact>
</mgrwt>
</event>
<event>
 4    1  0.1043382E-007  0.7086663E+03  0.7818608E-02  0.9962987E-01
         -1   -1    0    0    0  501 -0.00000000000E+00  0.00000000000E+00  0.36042073527E+03  0.36042073530E+03  0.50400000000E-02 0.  1.
          1   -1    0    0  501    0  0.00000000000E+00 -0.00000000000E+00 -0.15565232381E+04  0.15565232381E+04  0.50400000000E-02 0. -1.
    8880023    1    1    2    0    0  0.26142345242E+03  0.74458006684E+01 -0.26954225986E+02  0.70917867846E+03  0.65864270000E+03 0.  1.
    8880022    1    1    2    0    0 -0.26142345242E+03 -0.74458006684E+01 -0.11691482768E+04  0.12077652949E+04  0.15294330000E+03 0.  0.
<mgrwt>
<rscale>  0 0.57303392E+03</rscale>
<asrwt>0</asrwt>
<pdfrwt beam="1">  1        1 0.23946511E+00 0.70866626E+03</pdfrwt>
<pdfrwt beam="2">  1       -1 0.55449344E-01 0.70866626E+03</pdfrwt>
<totfact> 0.20466533E+01</totfact>
</mgrwt>
</event>
<event>
 4    1  0.1043382E-007  0.7301226E+03  0.7818608E-02  0.9889714E-01
         -1   -1    0    0    0  501 -0.00000000000E+00  0.00000000000E+00  0.39126255387E+03  0.39126255390E+03  0.50400000000E-02 0.  1.
          1   -1    0    0  501    0  0.00000000000E+00 -0.00000000000E+00 -0.10406669460E+04  0.10406669460E+04  0.50400000000E-02 0. -1.
    8880023    1    1    2    0    0 -0.11574204541E+03  0.29304032419E+03 -0.77037800818E+03  0.10613959367E+04  0.65864270000E+03 0.  0.
    8880022    1    1    2    0    0  0.11574204541E+03 -0.29304032419E+03  0.12097361605E+03  0.37053356322E+03  0.15294330000E+03 0.  0.
<mgrwt>
<rscale>  0 0.60762405E+03</rscale>
<asrwt>0</asrwt>
<pdfrwt beam="1">  1        1 0.16010261E+00 0.73012263E+03</pdfrwt>
<pdfrwt beam="2">  1       -1 0.60194239E-01 0.73012263E+03</pdfrwt>
<totfact> 0.40470895E+01</totfact>
</mgrwt>
</event>
<event>
 4    1  0.1043382E-007  0.7081649E+03  0.7818608E-02  0.9964880E-01
          1   -1    0    0  501    0  0.00000000000E+00  0.00000000000E+00  0.14198407221E+04  0.14198407221E+04  0.50400000000E-02 0. -1.
         -1   -1    0    0    0  501 -0.00000000000E+00 -0.00000000000E+00 -0.18703180109E+03  0.18703180116E+03  0.50400000000E-02 0.  1.
    8880023    1    1    2    0    0 -0.19011679705E+03 -0.17760316881E+03  0.10017477276E+04  0.12267827836E+04  0.65864270000E+03 0.  0.
    8880022    1    1    2    0    0  0.19011679705E+03  0.17760316881E+03  0.23106119338E+03  0.38008973966E+03  0.15294330000E+03 0. -1.
<mgrwt>
<rscale>  0 0.57217388E+03</rscale>
<asrwt>0</asrwt>
<pdfrwt beam="1">  1        1 0.21843703E+00 0.70816487E+03</pdfrwt>
<pdfrwt beam="2">  1       -1 0.28774124E-01 0.70816487E+03</pdfrwt>
<totfact> 0.83903654E+01</totfact>
</mgrwt>
</event>
<event>
 4    1  0.1043382E-007  0.1161113E+04  0.7818608E-02  0.9195882E-01
          1   -1    0    0  501    0  0.00000000000E+00  0.00000000000E+00  0.36793329658E+04  0.36793329658E+04  0.50400000000E-02 0. -1.
         -1   -1    0    0    0  501 -0.00000000000E+00 -0.00000000000E+00 -0.39234014521E+03  0.39234014525E+03  0.50400000000E-02 0.  1.
    8880023    1    1    2    0    0 -0.92855622503E+03  0.22838023369E+03  0.82013686079E+03  0.14215515717E+04  0.65864270000E+03 0.  1.
    8880022    1    1    2    0    0  0.92855622503E+03 -0.22838023369E+03  0.24668559598E+04  0.26501215394E+04  0.15294330000E+03 0.  0.
<mgrwt>
<rscale>  0 0.11096034E+04</rscale>
<asrwt>0</asrwt>
<pdfrwt beam="1">  1        1 0.56605122E+00 0.11611134E+04</pdfrwt>
<pdfrwt beam="2">  1       -1 0.60360023E-01 0.11611134E+04</pdfrwt>
<totfact> 0.50796901E-01</totfact>
</mgrwt>
</event>
<event>
 4    1  0.1043382E-007  0.8005171E+03  0.7818608E-02  0.9709679E-01
         -1   -1    0    0    0  501 -0.00000000000E+00  0.00000000000E+00  0.29842021286E+03  0.29842021290E+03  0.50400000000E-02 0.  1.
          1   -1    0    0  501    0  0.00000000000E+00 -0.00000000000E+00 -0.19874096395E+04  0.19874096395E+04  0.50400000000E-02 0. -1.
    8880023    1    1    2    0    0 -0.23790153960E+03  0.38784061976E+03 -0.36937828201E+03  0.88162804536E+03  0.65864270000E+03 0.  1.
    8880022    1    1    2    0    0  0.23790153960E+03 -0.38784061976E+03 -0.13196111446E+04  0.14042018070E+04  0.15294330000E+03 0.  0.
<mgrwt>
<rscale>  0 0.70443421E+03</rscale>
<asrwt>0</asrwt>
<pdfrwt beam="1">  1        1 0.30575532E+00 0.80051714E+03</pdfrwt>
<pdfrwt beam="2">  1       -1 0.45910803E-01 0.80051714E+03</pdfrwt>
<totfact> 0.14844461E+01</totfact>
</mgrwt>
</event>
<event>
 4    1  0.1043382E-007  0.6790039E+03  0.7818608E-02  0.1009893E+00
          1   -1    0    0  501    0  0.00000000000E+00  0.00000000000E+00  0.48351077649E+03  0.48351077651E+03  0.50400000000E-02 0. -1.
         -1   -1    0    0    0  501 -0.00000000000E+00 -0.00000000000E+00 -0.59075274313E+03  0.59075274316E+03  0.50400000000E-02 0.  1.
    8880023    1    1    2    0    0  0.14924208508E+03 -0.70447608070E+02 -0.33235589333E+03  0.75598062908E+03  0.65864270000E+03 0.  1.
    8880022    1    1    2    0    0 -0.14924208508E+03  0.70447608070E+02  0.22511392668E+03  0.31828289059E+03  0.15294330000E+03 0.  0.
<mgrwt>
<rscale>  0 0.51517258E+03</rscale>
<asrwt>0</asrwt>
<pdfrwt beam="1">  1        1 0.74386274E-01 0.67900388E+03</pdfrwt>
<pdfrwt beam="2">  1       -1 0.90885036E-01 0.67900388E+03</pdfrwt>
<totfact> 0.56345036E+01</totfact>
</mgrwt>
</event>
<event>
 4    1  0.1043382E-007  0.8520210E+03  0.7818608E-02  0.9607917E-01
         -1   -1    0    0    0  501 -0.00000000000E+00  0.00000000000E+00  0.11947485471E+04  0.11947485471E+04  0.50400000000E-02 0.  1.
          1   -1    0    0  501    0  0.00000000000E+00 -0.00000000000E+00 -0.82331370709E+03  0.82331370711E+03  0.50400000000E-02 0. -1.
    8880023    1    1    2    0    0  0.53935304224E+03  0.35041617230E+02  0.90525543260E+03  0.12431521321E+04  0.65864270000E+03 0.  1.
    8880022    1    1    2    0    0 -0.53935304224E+03 -0.35041617230E+02 -0.53382059263E+03  0.77491012205E+03  0.15294330000E+03 0.  0.
<mgrwt>
<rscale>  0 0.76774379E+03</rscale>
<asrwt>0</asrwt>
<pdfrwt beam="1">  1        1 0.12666365E+00 0.85202102E+03</pdfrwt>
<pdfrwt beam="2">  1       -1 0.18380747E+00 0.85202102E+03</pdfrwt>
<totfact> 0.42152839E+00</totfact>
</mgrwt>
</event>
<event>
 4    1  0.1043382E-007  0.9134927E+03  0.7818608E-02  0.9504710E-01
         -1   -1    0    0    0  501 -0.00000000000E+00  0.00000000000E+00  0.24807857732E+04  0.24807857733E+04  0.50400000000E-02 0.  1.
          1   -1    0    0  501    0  0.00000000000E+00 -0.00000000000E+00 -0.41359012559E+03  0.41359012562E+03  0.50400000000E-02 0. -1.
    8880023    1    1    2    0    0  0.59285019955E+03 -0.22178211540E+03  0.20484625993E+04  0.22429150436E+04  0.65864270000E+03 0.  0.
    8880022    1    1    2    0    0 -0.59285019955E+03  0.22178211540E+03  0.18733048347E+02  0.65146085525E+03  0.15294330000E+03 0.  0.
<mgrwt>
<rscale>  0 0.83937490E+03</rscale>
<asrwt>0</asrwt>
<pdfrwt beam="1">  1        1 0.63629251E-01 0.91349268E+03</pdfrwt>
<pdfrwt beam="2">  1       -1 0.38165934E+00 0.91349268E+03</pdfrwt>
<totfact> 0.56796770E-01</totfact>
</mgrwt>
</event>
<event>
 4    1  0.1043382E-007  0.7125315E+03  0.7818608E-02  0.9948718E-01
         -1   -1    0    0    0  501 -0.00000000000E+00  0.00000000000E+00  0.19028196267E+03  0.19028196274E+03  0.50400000000E-02 0.  1.
          1   -1    0    0  501    0  0.00000000000E+00 -0.00000000000E+00 -0.16140376079E+04  0.16140376079E+04  0.50400000000E-02 0. -1.
    8880023    1    1    2    0    0 -0.23921079090E+03 -0.12910897726E+03 -0.62859573774E+03  0.95017563548E+03  0.65864270000E+03 0.  0.
    8880022    1    1    2    0    0  0.23921079090E+03  0.12910897726E+03 -0.79515990750E+03  0.85414393518E+03  0.15294330000E+03 0.  0.
<mgrwt>
<rscale>  0 0.57957206E+03</rscale>
<asrwt>0</asrwt>
<pdfrwt beam="1">  1        1 0.24831347E+00 0.71253150E+03</pdfrwt>
<pdfrwt beam="2">  1       -1 0.29274149E-01 0.71253150E+03</pdfrwt>
<totfact> 0.59978994E+01</totfact>
</mgrwt>
</event>
<event>
 4    1  0.1043382E-007  0.8832972E+03  0.7818608E-02  0.9553395E-01
          1   -1    0    0  501    0  0.00000000000E+00  0.00000000000E+00  0.24317222602E+03  0.24317222607E+03  0.50400000000E-02 0. -1.
         -1   -1    0    0    0  501 -0.00000000000E+00 -0.00000000000E+00 -0.33605459999E+04  0.33605459999E+04  0.50400000000E-02 0.  1.
    8880023    1    1    2    0    0 -0.58757089898E+03 -0.34120537448E+02 -0.27610645042E+04  0.28989120675E+04  0.65864270000E+03 0.  1.
    8880022    1    1    2    0    0  0.58757089898E+03  0.34120537448E+02 -0.35630926973E+03  0.70480615854E+03  0.15294330000E+03 0.  0.
<mgrwt>
<rscale>  0 0.80459131E+03</rscale>
<asrwt>0</asrwt>
<pdfrwt beam="1">  1        1 0.37411114E-01 0.88329722E+03</pdfrwt>
<pdfrwt beam="2">  1       -1 0.51700704E+00 0.88329722E+03</pdfrwt>
<totfact> 0.13838774E-01</totfact>
</mgrwt>
</event>
<event>
 4    1  0.1043382E-007  0.7358027E+03  0.7818608E-02  0.9872347E-01
          1   -1    0    0  501    0  0.00000000000E+00  0.00000000000E+00  0.55158131315E+03  0.55158131317E+03  0.50400000000E-02 0. -1.
         -1   -1    0    0    0  501 -0.00000000000E+00 -0.00000000000E+00 -0.54655595372E+03  0.54655595374E+03  0.50400000000E-02 0.  1.
    8880023    1    1    2    0    0 -0.25682910772E+03  0.20404451118E+03 -0.10597258499E+02  0.73587897189E+03  0.65864270000E+03 0. -1.
    8880022    1    1    2    0    0  0.25682910772E+03 -0.20404451118E+03  0.15622617933E+02  0.36225829503E+03  0.15294330000E+03 0.  1.
<mgrwt>
<rscale>  0 0.61620404E+03</rscale>
<asrwt>0</asrwt>
<pdfrwt beam="1">  1        1 0.84858664E-01 0.73580266E+03</pdfrwt>
<pdfrwt beam="2">  1       -1 0.84085531E-01 0.73580266E+03</pdfrwt>
<totfact> 0.55355568E+01</totfact>
</mgrwt>
</event>
<event>
 4    1  0.1043382E-007  0.8074423E+03  0.7818608E-02  0.9694929E-01
          1   -1    0    0  501    0  0.00000000000E+00  0.00000000000E+00  0.33780024359E+03  0.33780024363E+03  0.50400000000E-02 0. -1.
         -1   -1    0    0    0  501 -0.00000000000E+00 -0.00000000000E+00 -0.22573617121E+04  0.22573617122E+04  0.50400000000E-02 0.  1.
    8880023    1    1    2    0    0 -0.53579745481E+01 -0.46703765782E+03 -0.19420077101E+04  0.21031778417E+04  0.65864270000E+03 0.  0.
    8880022    1    1    2    0    0  0.53579745481E+01  0.46703765782E+03  0.22446241505E+02  0.49198411406E+03  0.15294330000E+03 0.  0.
<mgrwt>
<rscale>  0 0.71319498E+03</rscale>
<asrwt>0</asrwt>
<pdfrwt beam="1">  1        1 0.51969270E-01 0.80744231E+03</pdfrwt>
<pdfrwt beam="2">  1       -1 0.34728641E+00 0.80744231E+03</pdfrwt>
<totfact> 0.12759366E+00</totfact>
</mgrwt>
</event>
<event>
 4    1  0.1043382E-007  0.1297570E+04  0.7818608E-02  0.9067661E-01
         -1   -1    0    0    0  501 -0.00000000000E+00  0.00000000000E+00  0.10942914667E+04  0.10942914667E+04  0.50400000000E-02 0.  1.
          1   -1    0    0  501    0  0.00000000000E+00 -0.00000000000E+00 -0.24263791262E+04  0.24263791262E+04  0.50400000000E-02 0. -1.
    8880023    1    1    2    0    0 -0.10845326052E+04 -0.27141838780E+03  0.48206188597E+03  0.13842228076E+04  0.65864270000E+03 0.  1.
    8880022    1    1    2    0    0  0.10845326052E+04  0.27141838780E+03 -0.18141495454E+04  0.21364477853E+04  0.15294330000E+03 0. -1.
<mgrwt>
<rscale>  0 0.12530353E+04</rscale>
<asrwt>0</asrwt>
<pdfrwt beam="1">  1        1 0.37328910E+00 0.12975705E+04</pdfrwt>
<pdfrwt beam="2">  1       -1 0.16835253E+00 0.12975705E+04</pdfrwt>
<totfact> 0.37472806E-01</totfact>
</mgrwt>
</event>
<event>
 4    1  0.1043382E-007  0.1006552E+04  0.7818608E-02  0.9373035E-01
          1   -1    0    0  501    0  0.00000000000E+00  0.00000000000E+00  0.12440026399E+04  0.12440026399E+04  0.50400000000E-02 0. -1.
         -1   -1    0    0    0  501 -0.00000000000E+00 -0.00000000000E+00 -0.15688046330E+04  0.15688046330E+04  0.50400000000E-02 0.  1.
    8880023    1    1    2    0    0 -0.35503644920E+03  0.67326498655E+03 -0.12500973686E+04  0.16049580243E+04  0.65864270000E+03 0.  1.
    8880022    1    1    2    0    0  0.35503644920E+03 -0.67326498655E+03  0.92529537555E+03  0.12078492486E+04  0.15294330000E+03 0.  0.
<mgrwt>
<rscale>  0 0.94328373E+03</rscale>
<asrwt>0</asrwt>
<pdfrwt beam="1">  1        1 0.19138502E+00 0.10065520E+04</pdfrwt>
<pdfrwt beam="2">  1       -1 0.24135456E+00 0.10065520E+04</pdfrwt>
<totfact> 0.79425836E-01</totfact>
</mgrwt>
</event>
<event>
 4    1  0.1043382E-007  0.1070804E+04  0.7818608E-02  0.9294281E-01
         -1   -1    0    0    0  501 -0.00000000000E+00  0.00000000000E+00  0.17815688284E+04  0.17815688284E+04  0.50400000000E-02 0.  1.
          1   -1    0    0  501    0  0.00000000000E+00 -0.00000000000E+00 -0.10541136089E+04  0.10541136089E+04  0.50400000000E-02 0. -1.
    8880023    1    1    2    0    0 -0.11346107798E+03  0.83662242319E+03  0.13878628002E+04  0.17529357814E+04  0.65864270000E+03 0.  1.
    8880022    1    1    2    0    0  0.11346107798E+03 -0.83662242319E+03 -0.66040758070E+03  0.10827466559E+04  0.15294330000E+03 0.  0.
<mgrwt>
<rscale>  0 0.10131110E+04</rscale>
<asrwt>0</asrwt>
<pdfrwt beam="1">  1        1 0.16217133E+00 0.10708038E+04</pdfrwt>
<pdfrwt beam="2">  1       -1 0.27408751E+00 0.10708038E+04</pdfrwt>
<totfact> 0.66815141E-01</totfact>
</mgrwt>
</event>
<event>
 4    1  0.1043382E-007  0.8497416E+03  0.7818608E-02  0.9612078E-01
         -1   -1    0    0    0  501 -0.00000000000E+00  0.00000000000E+00  0.11144979803E+04  0.11144979803E+04  0.50400000000E-02 0.  1.
          1   -1    0    0  501    0  0.00000000000E+00 -0.00000000000E+00 -0.90801578392E+03  0.90801578393E+03  0.50400000000E-02 0. -1.
    8880023    1    1    2    0    0 -0.45521493353E+03 -0.28465749377E+03  0.82845194211E+03  0.11867574947E+04  0.65864270000E+03 0.  0.
    8880022    1    1    2    0    0  0.45521493353E+03  0.28465749377E+03 -0.62196974575E+03  0.83575626957E+03  0.15294330000E+03 0.  0.
<mgrwt>
<rscale>  0 0.76501892E+03</rscale>
<asrwt>0</asrwt>
<pdfrwt beam="1">  1        1 0.13969474E+00 0.84974157E+03</pdfrwt>
<pdfrwt beam="2">  1       -1 0.17146123E+00 0.84974157E+03</pdfrwt>
<totfact> 0.43970635E+00</totfact>
</mgrwt>
</event>
<event>
 4    1  0.1043382E-007  0.7168684E+03  0.7818608E-02  0.9933328E-01
         -1   -1    0    0    0  501 -0.00000000000E+00  0.00000000000E+00  0.76071613463E+03  0.76071613465E+03  0.50400000000E-02 0.  1.
          1   -1    0    0  501    0  0.00000000000E+00 -0.00000000000E+00 -0.11011851185E+04  0.11011851185E+04  0.50400000000E-02 0. -1.
    8880023    1    1    2    0    0  0.27904379790E+03  0.47166690378E+02  0.55744697927E+03  0.90810102895E+03  0.65864270000E+03 0.  1.
    8880022    1    1    2    0    0 -0.27904379790E+03 -0.47166690378E+02 -0.89791596310E+03  0.95380022417E+03  0.15294330000E+03 0.  0.
<mgrwt>
<rscale>  0 0.58672904E+03</rscale>
<asrwt>0</asrwt>
<pdfrwt beam="1">  1        1 0.16941310E+00 0.71686843E+03</pdfrwt>
<pdfrwt beam="2">  1       -1 0.11703325E+00 0.71686843E+03</pdfrwt>
<totfact> 0.86533072E+00</totfact>
</mgrwt>
</event>
<event>
 4    1  0.1043382E-007  0.8802115E+03  0.7818608E-02  0.9558576E-01
         -1   -1    0    0    0  501 -0.00000000000E+00  0.00000000000E+00  0.98597120494E+03  0.98597120495E+03  0.50400000000E-02 0.  1.
          1   -1    0    0  501    0  0.00000000000E+00 -0.00000000000E+00 -0.10615645681E+04  0.10615645681E+04  0.50400000000E-02 0. -1.
    8880023    1    1    2    0    0  0.54679671427E+03 -0.20487897655E+03  0.65694807661E+03  0.10983410324E+04  0.65864270000E+03 0.  1.
    8880022    1    1    2    0    0 -0.54679671427E+03  0.20487897655E+03 -0.73254143980E+03  0.94919474072E+03  0.15294330000E+03 0.  0.
<mgrwt>
<rscale>  0 0.80099659E+03</rscale>
<asrwt>0</asrwt>
<pdfrwt beam="1">  1        1 0.16331763E+00 0.88021148E+03</pdfrwt>
<pdfrwt beam="2">  1       -1 0.15168788E+00 0.88021148E+03</pdfrwt>
<totfact> 0.46720106E+00</totfact>
</mgrwt>
</event>
<event>
 4    1  0.1043382E-007  0.7242589E+03  0.7818608E-02  0.9908430E-01
         -1   -1    0    0    0  501 -0.00000000000E+00  0.00000000000E+00  0.13850397195E+03  0.13850397204E+03  0.50400000000E-02 0.  1.
          1   -1    0    0  501    0  0.00000000000E+00 -0.00000000000E+00 -0.23489875005E+04  0.23489875005E+04  0.50400000000E-02 0. -1.
    8880023    1    1    2    0    0 -0.29164179426E+03  0.75404457766E+02 -0.10267283249E+04  0.12564720561E+04  0.65864270000E+03 0. -1.
    8880022    1    1    2    0    0  0.29164179426E+03 -0.75404457766E+02 -0.11837552036E+04  0.12310194164E+04  0.15294330000E+03 0.  1.
<mgrwt>
<rscale>  0 0.59854460E+03</rscale>
<asrwt>0</asrwt>
<pdfrwt beam="1">  1        1 0.36138266E+00 0.72425891E+03</pdfrwt>
<pdfrwt beam="2">  1       -1 0.21308305E-01 0.72425891E+03</pdfrwt>
<totfact> 0.33100306E+01</totfact>
</mgrwt>
</event>
<event>
 4    1  0.1043382E-007  0.7726439E+03  0.7818608E-02  0.9773409E-01
         -1   -1    0    0    0  501 -0.00000000000E+00  0.00000000000E+00  0.24184235196E+03  0.24184235201E+03  0.50400000000E-02 0.  1.
          1   -1    0    0  501    0  0.00000000000E+00 -0.00000000000E+00 -0.15903912710E+04  0.15903912710E+04  0.50400000000E-02 0. -1.
    8880023    1    1    2    0    0 -0.33622196695E+03  0.22388221586E+03 -0.64406649864E+03  0.10058828553E+04  0.65864270000E+03 0.  1.
    8880022    1    1    2    0    0  0.33622196695E+03 -0.22388221586E+03 -0.70448242036E+03  0.82635076768E+03  0.15294330000E+03 0. -1.
<mgrwt>
<rscale>  0 0.66809297E+03</rscale>
<asrwt>0</asrwt>
<pdfrwt beam="1">  1        1 0.24467557E+00 0.77264394E+03</pdfrwt>
<pdfrwt beam="2">  1       -1 0.37206517E-01 0.77264394E+03</pdfrwt>
<totfact> 0.40471722E+01</totfact>
</mgrwt>
</event>
<event>
 4    1  0.1043382E-007  0.6727612E+03  0.7818608E-02  0.1013756E+00
         -1   -1    0    0    0  501 -0.00000000000E+00  0.00000000000E+00  0.13108318618E+04  0.13108318618E+04  0.50400000000E-02 0.  1.
          1   -1    0    0  501    0  0.00000000000E+00 -0.00000000000E+00 -0.25354250493E+03  0.25354250498E+03  0.50400000000E-02 0. -1.
    8880023    1    1    2    0    0  0.36471344813E+02 -0.13216379522E+03  0.11552071806E+04  0.13368288088E+04  0.65864270000E+03 0.  1.
    8880022    1    1    2    0    0 -0.36471344813E+02  0.13216379522E+03 -0.97917823674E+02  0.22754555801E+03  0.15294330000E+03 0.  0.
<mgrwt>
<rscale>  0 0.50008717E+03</rscale>
<asrwt>0</asrwt>
<pdfrwt beam="1">  1        1 0.39006539E-01 0.67276120E+03</pdfrwt>
<pdfrwt beam="2">  1       -1 0.20166644E+00 0.67276120E+03</pdfrwt>
<totfact> 0.16592390E+01</totfact>
</mgrwt>
</event>
<event>
 4    1  0.1043382E-007  0.7122901E+03  0.7818608E-02  0.9949593E-01
          1   -1    0    0  501    0  0.00000000000E+00  0.00000000000E+00  0.14817502874E+04  0.14817502874E+04  0.50400000000E-02 0. -1.
         -1   -1    0    0    0  501 -0.00000000000E+00 -0.00000000000E+00 -0.58649863379E+03  0.58649863381E+03  0.50400000000E-02 0.  1.
    8880023    1    1    2    0    0  0.24346286580E+03  0.11946884645E+03 -0.34362711522E+03  0.79084560622E+03  0.65864270000E+03 0.  1.
    8880022    1    1    2    0    0 -0.24346286580E+03 -0.11946884645E+03  0.12388787689E+04  0.12774033150E+04  0.15294330000E+03 0.  0.
<mgrwt>
<rscale>  0 0.57916830E+03</rscale>
<asrwt>0</asrwt>
<pdfrwt beam="1">  1        1 0.22796158E+00 0.71229009E+03</pdfrwt>
<pdfrwt beam="2">  1       -1 0.90230560E-01 0.71229009E+03</pdfrwt>
<totfact> 0.84560168E+00</totfact>
</mgrwt>
</event>
<event>
 4    1  0.1043382E-007  0.1215908E+04  0.7818608E-02  0.9141811E-01
         -1   -1    0    0    0  501 -0.00000000000E+00  0.00000000000E+00  0.14541119429E+04  0.14541119429E+04  0.50400000000E-02 0.  1.
          1   -1    0    0  501    0  0.00000000000E+00 -0.00000000000E+00 -0.12979364603E+04  0.12979364603E+04  0.50400000000E-02 0. -1.
    8880023    1    1    2    0    0  0.10208554954E+04 -0.49766373928E+02 -0.70614758253E+03  0.14060857901E+04  0.65864270000E+03 0.  0.
    8880022    1    1    2    0    0 -0.10208554954E+04  0.49766373928E+02  0.86232306506E+03  0.13459626131E+04  0.15294330000E+03 0.  0.
<mgrwt>
<rscale>  0 0.11674754E+04</rscale>
<asrwt>0</asrwt>
<pdfrwt beam="1">  1        1 0.19968253E+00 0.12159082E+04</pdfrwt>
<pdfrwt beam="2">  1       -1 0.22370953E+00 0.12159082E+04</pdfrwt>
<totfact> 0.92290163E-01</totfact>
</mgrwt>
</event>
<event>
 4    1  0.1043382E-007  0.8535192E+03  0.7818608E-02  0.9605197E-01
          1   -1    0    0  501    0  0.00000000000E+00  0.00000000000E+00  0.11139721498E+04  0.11139721499E+04  0.50400000000E-02 0. -1.
         -1   -1    0    0    0  501 -0.00000000000E+00 -0.00000000000E+00 -0.61343999282E+03  0.61343999284E+03  0.50400000000E-02 0.  1.
    8880023    1    1    2    0    0  0.53597183594E+03 -0.86133658910E+02 -0.14983081772E+03  0.86657042202E+03  0.65864270000E+03 0.  0.
    8880022    1    1    2    0    0 -0.53597183594E+03  0.86133658910E+02  0.65036297475E+03  0.86084172067E+03  0.15294330000E+03 0.  0.
<mgrwt>
<rscale>  0 0.76953152E+03</rscale>
<asrwt>0</asrwt>
<pdfrwt beam="1">  1        1 0.17138033E+00 0.85351920E+03</pdfrwt>
<pdfrwt beam="2">  1       -1 0.94375384E-01 0.85351920E+03</pdfrwt>
<totfact> 0.13703308E+01</totfact>
</mgrwt>
</event>
<event>
 4    1  0.1043382E-007  0.8201029E+03  0.7818608E-02  0.9668905E-01
          1   -1    0    0  501    0  0.00000000000E+00  0.00000000000E+00  0.55537287798E+03  0.55537287800E+03  0.50400000000E-02 0. -1.
         -1   -1    0    0    0  501 -0.00000000000E+00 -0.00000000000E+00 -0.98599112113E+03  0.98599112114E+03  0.50400000000E-02 0.  1.
    8880023    1    1    2    0    0 -0.34977604399E+03  0.34119675721E+03 -0.58410137010E+03  0.10068481141E+04  0.65864270000E+03 0.  1.
    8880022    1    1    2    0    0  0.34977604399E+03 -0.34119675721E+03  0.15348312695E+03  0.53451588503E+03  0.15294330000E+03 0.  0.
<mgrwt>
<rscale>  0 0.72898739E+03</rscale>
<asrwt>0</asrwt>
<pdfrwt beam="1">  1        1 0.85441981E-01 0.82010287E+03</pdfrwt>
<pdfrwt beam="2">  1       -1 0.15169094E+00 0.82010287E+03</pdfrwt>
<totfact> 0.13215306E+01</totfact>
</mgrwt>
</event>
<event>
 4    1  0.1043382E-007  0.6980496E+03  0.7818608E-02  0.1000539E+00
          1   -1    0    0  501    0  0.00000000000E+00  0.00000000000E+00  0.16799821406E+04  0.16799821406E+04  0.50400000000E-02 0. -1.
         -1   -1    0    0    0  501 -0.00000000000E+00 -0.00000000000E+00 -0.25317768186E+03  0.25317768191E+03  0.50400000000E-02 0.  1.
    8880023    1    1    2    0    0  0.20857600603E+03  0.99795355226E+02  0.27798582958E+03  0.75136501843E+03  0.65864270000E+03 0.  1.
    8880022    1    1    2    0    0 -0.20857600603E+03 -0.99795355226E+02  0.11488186292E+04  0.11817948041E+04  0.15294330000E+03 0.  0.
<mgrwt>
<rscale>  0 0.55414515E+03</rscale>
<asrwt>0</asrwt>
<pdfrwt beam="1">  1        1 0.25845878E+00 0.69804962E+03</pdfrwt>
<pdfrwt beam="2">  1       -1 0.38950414E-01 0.69804962E+03</pdfrwt>
<totfact> 0.32711002E+01</totfact>
</mgrwt>
</event>
<event>
 4    1  0.1043382E-007  0.1014359E+04  0.7818608E-02  0.9363009E-01
         -1   -1    0    0    0  501 -0.00000000000E+00  0.00000000000E+00  0.17487723623E+04  0.17487723623E+04  0.50400000000E-02 0.  1.
          1   -1    0    0  501    0  0.00000000000E+00 -0.00000000000E+00 -0.94359598548E+03  0.94359598549E+03  0.50400000000E-02 0. -1.
    8880023    1    1    2    0    0  0.36564910959E+03 -0.67927446980E+03  0.13839674654E+04  0.17158931285E+04  0.65864270000E+03 0.  0.
    8880022    1    1    2    0    0 -0.36564910959E+03  0.67927446980E+03 -0.57879108862E+03  0.97647521932E+03  0.15294330000E+03 0.  0.
<mgrwt>
<rscale>  0 0.95183463E+03</rscale>
<asrwt>0</asrwt>
<pdfrwt beam="1">  1        1 0.14516861E+00 0.10143586E+04</pdfrwt>
<pdfrwt beam="2">  1       -1 0.26904190E+00 0.10143586E+04</pdfrwt>
<totfact> 0.88615380E-01</totfact>
</mgrwt>
</event>
<event>
 4    1  0.1043382E-007  0.8391095E+03  0.7818608E-02  0.9631862E-01
          1   -1    0    0  501    0  0.00000000000E+00  0.00000000000E+00  0.11950068808E+04  0.11950068809E+04  0.50400000000E-02 0. -1.
         -1   -1    0    0    0  501 -0.00000000000E+00 -0.00000000000E+00 -0.48346059538E+03  0.48346059541E+03  0.50400000000E-02 0.  1.
    8880023    1    1    2    0    0  0.50185634563E+03  0.13577468342E+03  0.74964300780E+02  0.84245142825E+03  0.65864270000E+03 0.  0.
    8880022    1    1    2    0    0 -0.50185634563E+03 -0.13577468342E+03  0.63658198469E+03  0.83601604802E+03  0.15294330000E+03 0.  0.
<mgrwt>
<rscale>  0 0.75222788E+03</rscale>
<asrwt>0</asrwt>
<pdfrwt beam="1">  1        1 0.18384721E+00 0.83910951E+03</pdfrwt>
<pdfrwt beam="2">  1       -1 0.74378554E-01 0.83910951E+03</pdfrwt>
<totfact> 0.20001728E+01</totfact>
</mgrwt>
</event>
<event>
 4    1  0.1043382E-007  0.7072250E+03  0.7818608E-02  0.9968454E-01
         -1   -1    0    0    0  501 -0.00000000000E+00  0.00000000000E+00  0.68783787716E+03  0.68783787718E+03  0.50400000000E-02 0.  1.
          1   -1    0    0  501    0  0.00000000000E+00 -0.00000000000E+00 -0.52556801910E+03  0.52556801912E+03  0.50400000000E-02 0. -1.
    8880023    1    1    2    0    0 -0.19757193631E+03 -0.16529445943E+03  0.41627157827E+03  0.82063948325E+03  0.65864270000E+03 0.  0.
    8880022    1    1    2    0    0  0.19757193631E+03  0.16529445943E+03 -0.25400172021E+03  0.39276641305E+03  0.15294330000E+03 0. -1.
<mgrwt>
<rscale>  0 0.57055384E+03</rscale>
<asrwt>0</asrwt>
<pdfrwt beam="1">  1        1 0.80856618E-01 0.70722495E+03</pdfrwt>
<pdfrwt beam="2">  1       -1 0.10582121E+00 0.70722495E+03</pdfrwt>
<totfact> 0.35516941E+01</totfact>
</mgrwt>
</event>
<event>
 4    1  0.1043382E-007  0.7035293E+03  0.7818608E-02  0.9982864E-01
         -1   -1    0    0    0  501 -0.00000000000E+00  0.00000000000E+00  0.20669896442E+03  0.20669896448E+03  0.50400000000E-02 0.  1.
          1   -1    0    0  501    0  0.00000000000E+00 -0.00000000000E+00 -0.15537917842E+04  0.15537917842E+04  0.50400000000E-02 0. -1.
    8880023    1    1    2    0    0 -0.11079219606E+03 -0.22106194480E+03 -0.49516433522E+03  0.86031460483E+03  0.65864270000E+03 0.  0.
    8880022    1    1    2    0    0  0.11079219606E+03  0.22106194480E+03 -0.85192848456E+03  0.90017614386E+03  0.15294330000E+03 0.  0.
<mgrwt>
<rscale>  0 0.56408063E+03</rscale>
<asrwt>0</asrwt>
<pdfrwt beam="1">  1        1 0.23904488E+00 0.70352932E+03</pdfrwt>
<pdfrwt beam="2">  1       -1 0.31799842E-01 0.70352932E+03</pdfrwt>
<totfact> 0.57086605E+01</totfact>
</mgrwt>
</event>
<event>
 4    1  0.1421793E-007  0.1216738E+04  0.7818608E-02  0.9141021E-01
         -1   -1    0    0    0  501 -0.00000000000E+00  0.00000000000E+00  0.17824077282E+04  0.17824077282E+04  0.50400000000E-02 0.  1.
          1   -1    0    0  501    0  0.00000000000E+00 -0.00000000000E+00 -0.18302017806E+04  0.18302017807E+04  0.50400000000E-02 0. -1.
    8880023    1    1    2    0    0  0.87718738647E+02  0.10192878472E+04  0.13862015056E+04  0.18444530661E+04  0.65864270000E+03 0.  0.
    8880022    1    1    2    0    0 -0.87718738647E+02 -0.10192878472E+04 -0.14339955581E+04  0.17681564428E+04  0.15294330000E+03 0.  0.
<mgrwt>
<rscale>  0 0.11683491E+04</rscale>
<asrwt>0</asrwt>
<pdfrwt beam="1">  1        1 0.28156951E+00 0.12167385E+04</pdfrwt>
<pdfrwt beam="2">  1       -1 0.27421657E+00 0.12167385E+04</pdfrwt>
<totfact> 0.18489446E-01</totfact>
</mgrwt>
</event>
<event>
 4    1  0.1043382E-007  0.6718620E+03  0.7818608E-02  0.1014362E+00
         -1   -1    0    0    0  501 -0.00000000000E+00  0.00000000000E+00  0.67115381584E+03  0.67115381586E+03  0.50400000000E-02 0.  1.
          1   -1    0    0  501    0  0.00000000000E+00 -0.00000000000E+00 -0.65148337190E+03  0.65148337192E+03  0.50400000000E-02 0. -1.
    8880023    1    1    2    0    0 -0.53828251023E+02  0.12120601512E+03  0.47601942489E+03  0.82340335064E+03  0.65864270000E+03 0.  1.
    8880022    1    1    2    0    0  0.53828251023E+02 -0.12120601512E+03 -0.45634898095E+03  0.49923383714E+03  0.15294330000E+03 0.  0.
<mgrwt>
<rscale>  0 0.49777331E+03</rscale>
<asrwt>0</asrwt>
<pdfrwt beam="1">  1        1 0.10022821E+00 0.67186203E+03</pdfrwt>
<pdfrwt beam="2">  1       -1 0.10325443E+00 0.67186203E+03</pdfrwt>
<totfact> 0.27779042E+01</totfact>
</mgrwt>
</event>
<event>
 4    1  0.1043382E-007  0.7325039E+03  0.7818608E-02  0.9882347E-01
          1   -1    0    0  501    0  0.00000000000E+00  0.00000000000E+00  0.19092693644E+04  0.19092693644E+04  0.50400000000E-02 0. -1.
         -1   -1    0    0    0  501 -0.00000000000E+00 -0.00000000000E+00 -0.28652213000E+03  0.28652213005E+03  0.50400000000E-02 0.  1.
    8880023    1    1    2    0    0  0.29292675298E+03 -0.13017535093E+03  0.24406198989E+03  0.77209336597E+03  0.65864270000E+03 0.  0.
    8880022    1    1    2    0    0 -0.29292675298E+03  0.13017535093E+03  0.13786852445E+04  0.14236981285E+04  0.15294330000E+03 0. -1.
<mgrwt>
<rscale>  0 0.61124524E+03</rscale>
<asrwt>0</asrwt>
<pdfrwt beam="1">  1        1 0.29373376E+00 0.73250386E+03</pdfrwt>
<pdfrwt beam="2">  1       -1 0.44080326E-01 0.73250386E+03</pdfrwt>
<totfact> 0.18230266E+01</totfact>
</mgrwt>
</event>
<event>
 4    1  0.1043382E-007  0.1422293E+04  0.7818608E-02  0.8966551E-01
         -1   -1    0    0    0  501 -0.00000000000E+00  0.00000000000E+00  0.20372416242E+04  0.20372416243E+04  0.50400000000E-02 0.  1.
          1   -1    0    0  501    0  0.00000000000E+00 -0.00000000000E+00 -0.10600884270E+04  0.10600884270E+04  0.50400000000E-02 0. -1.
    8880023    1    1    2    0    0  0.97678498196E+03  0.79686824864E+03  0.11323984681E+04  0.18180331139E+04  0.65864270000E+03 0.  0.
    8880022    1    1    2    0    0 -0.97678498196E+03 -0.79686824864E+03 -0.15524527079E+03  0.12792969373E+04  0.15294330000E+03 0.  0.
<mgrwt>
<rscale>  0 0.13825451E+04</rscale>
<asrwt>0</asrwt>
<pdfrwt beam="1">  1        1 0.16309053E+00 0.14222933E+04</pdfrwt>
<pdfrwt beam="2">  1       -1 0.31342179E+00 0.14222933E+04</pdfrwt>
<totfact> 0.35224443E-01</totfact>
</mgrwt>
</event>
<event>
 4    1  0.1043382E-007  0.7940302E+03  0.7818608E-02  0.9723856E-01
          1   -1    0    0  501    0  0.00000000000E+00  0.00000000000E+00  0.12608541838E+04  0.12608541838E+04  0.50400000000E-02 0. -1.
         -1   -1    0    0    0  501 -0.00000000000E+00 -0.00000000000E+00 -0.51012958110E+03  0.51012958113E+03  0.50400000000E-02 0.  1.
    8880023    1    1    2    0    0  0.32556737510E+03 -0.30113057987E+03 -0.99188856308E+02  0.80020146047E+03  0.65864270000E+03 0.  0.
    8880022    1    1    2    0    0 -0.32556737510E+03  0.30113057987E+03  0.84991345903E+03  0.97078230449E+03  0.15294330000E+03 0. -1.
<mgrwt>
<rscale>  0 0.69614023E+03</rscale>
<asrwt>0</asrwt>
<pdfrwt beam="1">  1        1 0.19397757E+00 0.79403019E+03</pdfrwt>
<pdfrwt beam="2">  1       -1 0.78481475E-01 0.79403019E+03</pdfrwt>
<totfact> 0.16106100E+01</totfact>
</mgrwt>
</event>
<event>
 4    1  0.1043382E-007  0.1165365E+04  0.7818608E-02  0.9191548E-01
          1   -1    0    0  501    0  0.00000000000E+00  0.00000000000E+00  0.18832836477E+04  0.18832836477E+04  0.50400000000E-02 0. -1.
         -1   -1    0    0    0  501 -0.00000000000E+00 -0.00000000000E+00 -0.14828221138E+04  0.14828221138E+04  0.50400000000E-02 0.  1.
    8880023    1    1    2    0    0 -0.15116912913E+03  0.94942827799E+03 -0.10835639727E+04  0.15912847796E+04  0.65864270000E+03 0.  1.
    8880022    1    1    2    0    0  0.15116912913E+03 -0.94942827799E+03  0.14840255065E+04  0.17748209819E+04  0.15294330000E+03 0.  0.
<mgrwt>
<rscale>  0 0.11141099E+04</rscale>
<asrwt>0</asrwt>
<pdfrwt beam="1">  1        1 0.28973595E+00 0.11653653E+04</pdfrwt>
<pdfrwt beam="2">  1       -1 0.22812648E+00 0.11653653E+04</pdfrwt>
<totfact> 0.34268880E-01</totfact>
</mgrwt>
</event>
<event>
 4    1  0.1043382E-007  0.7542941E+03  0.7818608E-02  0.9820110E-01
          1   -1    0    0  501    0  0.00000000000E+00  0.00000000000E+00  0.56839768505E+03  0.56839768507E+03  0.50400000000E-02 0. -1.
         -1   -1    0    0    0  501 -0.00000000000E+00 -0.00000000000E+00 -0.13686559914E+04  0.13686559914E+04  0.50400000000E-02 0.  1.
    8880023    1    1    2    0    0 -0.26838188196E+03 -0.25123790902E+03 -0.11710610234E+04  0.13929621130E+04  0.65864270000E+03 0.  1.
    8880022    1    1    2    0    0  0.26838188196E+03  0.25123790902E+03  0.37080271703E+03  0.54409156349E+03  0.15294330000E+03 0.  0.
<mgrwt>
<rscale>  0 0.64294409E+03</rscale>
<asrwt>0</asrwt>
<pdfrwt beam="1">  1        1 0.87445798E-01 0.75429406E+03</pdfrwt>
<pdfrwt beam="2">  1       -1 0.21056246E+00 0.75429406E+03</pdfrwt>
<totfact> 0.48881203E+00</totfact>
</mgrwt>
</event>
<event>
 4    1  0.1043382E-007  0.8624848E+03  0.7818608E-02  0.9589159E-01
          1   -1    0    0  501    0  0.00000000000E+00  0.00000000000E+00  0.81936625588E+03  0.81936625590E+03  0.50400000000E-02 0. -1.
         -1   -1    0    0    0  501 -0.00000000000E+00 -0.00000000000E+00 -0.89757432531E+03  0.89757432533E+03  0.50400000000E-02 0.  1.
    8880023    1    1    2    0    0  0.46061890390E+03  0.31288987810E+03 -0.50447810727E+03  0.99918877968E+03  0.65864270000E+03 0.  1.
    8880022    1    1    2    0    0 -0.46061890390E+03 -0.31288987810E+03  0.42627003784E+03  0.71775180155E+03  0.15294330000E+03 0.  0.
<mgrwt>
<rscale>  0 0.78017909E+03</rscale>
<asrwt>0</asrwt>
<pdfrwt beam="1">  1        1 0.12605635E+00 0.86248482E+03</pdfrwt>
<pdfrwt beam="2">  1       -1 0.13808836E+00 0.86248482E+03</pdfrwt>
<totfact> 0.93998499E+00</totfact>
</mgrwt>
</event>
<event>
 4    1  0.1043382E-007  0.1743553E+04  0.7818608E-02  0.8754420E-01
          1   -1    0    0  501    0  0.00000000000E+00  0.00000000000E+00  0.19960978033E+04  0.19960978034E+04  0.50400000000E-02 0. -1.
         -1   -1    0    0    0  501 -0.00000000000E+00 -0.00000000000E+00 -0.14680216287E+04  0.14680216287E+04  0.50400000000E-02 0.  1.
    8880023    1    1    2    0    0  0.98559535336E+03  0.12785813474E+04 -0.45302073694E+02  0.17441418941E+04  0.65864270000E+03 0.  0.
    8880022    1    1    2    0    0 -0.98559535336E+03 -0.12785813474E+04  0.57337824832E+03  0.17199775380E+04  0.15294330000E+03 0.  0.
<mgrwt>
<rscale>  0 0.17122290E+04</rscale>
<asrwt>0</asrwt>
<pdfrwt beam="1">  1        1 0.30709197E+00 0.17435535E+04</pdfrwt>
<pdfrwt beam="2">  1       -1 0.22584948E+00 0.17435535E+04</pdfrwt>
<totfact> 0.27740194E-01</totfact>
</mgrwt>
</event>
<event>
 4    1  0.1043382E-007  0.1039858E+04  0.7818608E-02  0.9331174E-01
         -1   -1    0    0    0  501 -0.00000000000E+00  0.00000000000E+00  0.42807659852E+03  0.42807659855E+03  0.50400000000E-02 0.  1.
          1   -1    0    0  501    0  0.00000000000E+00 -0.00000000000E+00 -0.21938924757E+04  0.21938924757E+04  0.50400000000E-02 0. -1.
    8880023    1    1    2    0    0 -0.37445414534E+03  0.71223432940E+03 -0.61070110857E+03  0.12059269038E+04  0.65864270000E+03 0.  0.
    8880022    1    1    2    0    0  0.37445414534E+03 -0.71223432940E+03 -0.11551147686E+04  0.14160421705E+04  0.15294330000E+03 0.  0.
<mgrwt>
<rscale>  0 0.97962857E+03</rscale>
<asrwt>0</asrwt>
<pdfrwt beam="1">  1        1 0.33752191E+00 0.10398576E+04</pdfrwt>
<pdfrwt beam="2">  1       -1 0.65857940E-01 0.10398576E+04</pdfrwt>
<totfact> 0.51858808E+00</totfact>
</mgrwt>
</event>
<event>
 4    1  0.1043382E-007  0.6674468E+03  0.7818608E-02  0.1017563E+00
          1   -1    0    0  501    0  0.00000000000E+00  0.00000000000E+00  0.46721573504E+03  0.46721573506E+03  0.50400000000E-02 0. -1.
         -1   -1    0    0    0  501 -0.00000000000E+00 -0.00000000000E+00 -0.54999265781E+03  0.54999265783E+03  0.50400000000E-02 0.  1.
    8880023    1    1    2    0    0  0.10397734744E+03 -0.29388934138E+02 -0.29883591155E+03  0.73129208017E+03  0.65864270000E+03 0.  1.
    8880022    1    1    2    0    0 -0.10397734744E+03  0.29388934138E+02  0.21605898878E+03  0.28591631272E+03  0.15294330000E+03 0.  0.
<mgrwt>
<rscale>  0 0.48576282E+03</rscale>
<asrwt>0</asrwt>
<pdfrwt beam="1">  1        1 0.71879343E-01 0.66744678E+03</pdfrwt>
<pdfrwt beam="2">  1       -1 0.84614256E-01 0.66744678E+03</pdfrwt>
<totfact> 0.69042289E+01</totfact>
</mgrwt>
</event>
<event>
 4    1  0.1043382E-007  0.8483701E+03  0.7818608E-02  0.9614595E-01
         -1   -1    0    0    0  501 -0.00000000000E+00  0.00000000000E+00  0.85630706333E+03  0.85630706334E+03  0.50400000000E-02 0.  1.
          1   -1    0    0  501    0  0.00000000000E+00 -0.00000000000E+00 -0.84617374012E+03  0.84617374014E+03  0.50400000000E-02 0. -1.
    8880023    1    1    2    0    0 -0.48197096956E+03  0.23157213037E+03 -0.46813487464E+03  0.96895930471E+03  0.65864270000E+03 0.  0.
    8880022    1    1    2    0    0  0.48197096956E+03 -0.23157213037E+03  0.47826819785E+03  0.73352149877E+03  0.15294330000E+03 0.  0.
<mgrwt>
<rscale>  0 0.76337662E+03</rscale>
<asrwt>0</asrwt>
<pdfrwt beam="1">  1        1 0.13018058E+00 0.84837013E+03</pdfrwt>
<pdfrwt beam="2">  1       -1 0.13173955E+00 0.84837013E+03</pdfrwt>
<totfact> 0.10078729E+01</totfact>
</mgrwt>
</event>
<event>
 4    1  0.1043382E-007  0.7678519E+03  0.7818608E-02  0.9785188E-01
         -1   -1    0    0    0  501 -0.00000000000E+00  0.00000000000E+00  0.38612239068E+03  0.38612239072E+03  0.50400000000E-02 0.  1.
          1   -1    0    0  501    0  0.00000000000E+00 -0.00000000000E+00 -0.13593823935E+04  0.13593823935E+04  0.50400000000E-02 0. -1.
    8880023    1    1    2    0    0 -0.64966634293E+01  0.39464421962E+03 -0.99060223281E+02  0.77421534525E+03  0.65864270000E+03 0.  0.
    8880022    1    1    2    0    0  0.64966634293E+01 -0.39464421962E+03 -0.87419977949E+03  0.97128943894E+03  0.15294330000E+03 0.  0.
<mgrwt>
<rscale>  0 0.66163526E+03</rscale>
<asrwt>0</asrwt>
<pdfrwt beam="1">  1        1 0.20913575E+00 0.76785186E+03</pdfrwt>
<pdfrwt beam="2">  1       -1 0.59403445E-01 0.76785186E+03</pdfrwt>
<totfact> 0.24272571E+01</totfact>
</mgrwt>
</event>
<event>
 4    1  0.1043382E-007  0.6677574E+03  0.7818608E-02  0.1017324E+00
          1   -1    0    0  501    0  0.00000000000E+00  0.00000000000E+00  0.15243378392E+04  0.15243378392E+04  0.50400000000E-02 0. -1.
         -1   -1    0    0    0  501 -0.00000000000E+00 -0.00000000000E+00 -0.29849630547E+03  0.29849630552E+03  0.50400000000E-02 0.  1.
    8880023    1    1    2    0    0  0.10990254902E+03  0.33449742678E+01  0.92721277142E+02  0.67416407545E+03  0.65864270000E+03 0.  1.
    8880022    1    1    2    0    0 -0.10990254902E+03 -0.33449742678E+01  0.11331202566E+04  0.11486700692E+04  0.15294330000E+03 0.  0.
<mgrwt>
<rscale>  0 0.48664711E+03</rscale>
<asrwt>0</asrwt>
<pdfrwt beam="1">  1        1 0.23451351E+00 0.66775742E+03</pdfrwt>
<pdfrwt beam="2">  1       -1 0.45922509E-01 0.66775742E+03</pdfrwt>
<totfact> 0.30943970E+01</totfact>
</mgrwt>
</event>
<event>
 4    1  0.1043382E-007  0.7145648E+03  0.7818608E-02  0.9941425E-01
          1   -1    0    0  501    0  0.00000000000E+00  0.00000000000E+00  0.10903018172E+04  0.10903018173E+04  0.50400000000E-02 0. -1.
         -1   -1    0    0    0  501 -0.00000000000E+00 -0.00000000000E+00 -0.27371215295E+03  0.27371215300E+03  0.50400000000E-02 0.  1.
    8880023    1    1    2    0    0 -0.17221690560E+03  0.21710347962E+03  0.33860642426E+03  0.79073200280E+03  0.65864270000E+03 0.  0.
    8880022    1    1    2    0    0  0.17221690560E+03 -0.21710347962E+03  0.47798324003E+03  0.57328196745E+03  0.15294330000E+03 0.  0.
<mgrwt>
<rscale>  0 0.58294975E+03</rscale>
<asrwt>0</asrwt>
<pdfrwt beam="1">  1        1 0.16773874E+00 0.71456476E+03</pdfrwt>
<pdfrwt beam="2">  1       -1 0.42109562E-01 0.71456476E+03</pdfrwt>
<totfact> 0.73259139E+01</totfact>
</mgrwt>
</event>
<event>
 4    1  0.1043382E-007  0.1014782E+04  0.7818608E-02  0.9362468E-01
          1   -1    0    0  501    0  0.00000000000E+00  0.00000000000E+00  0.15160248535E+04  0.15160248535E+04  0.50400000000E-02 0. -1.
         -1   -1    0    0    0  501 -0.00000000000E+00 -0.00000000000E+00 -0.12004816980E+04  0.12004816980E+04  0.50400000000E-02 0.  1.
    8880023    1    1    2    0    0  0.67522640311E+03 -0.37422247004E+03 -0.84073813325E+03  0.13178102927E+04  0.65864270000E+03 0.  0.
    8880022    1    1    2    0    0 -0.67522640311E+03  0.37422247004E+03  0.11562812888E+04  0.13986962588E+04  0.15294330000E+03 0.  0.
<mgrwt>
<rscale>  0 0.95229832E+03</rscale>
<asrwt>0</asrwt>
<pdfrwt beam="1">  1        1 0.23323459E+00 0.10147824E+04</pdfrwt>
<pdfrwt beam="2">  1       -1 0.18468949E+00 0.10147824E+04</pdfrwt>
<totfact> 0.12338444E+00</totfact>
</mgrwt>
</event>
<event>
 4    1  0.1043382E-007  0.6645136E+03  0.7818608E-02  0.1019945E+00
          1   -1    0    0  501    0  0.00000000000E+00  0.00000000000E+00  0.18430462468E+04  0.18430462468E+04  0.50400000000E-02 0. -1.
         -1   -1    0    0    0  501 -0.00000000000E+00 -0.00000000000E+00 -0.60675744050E+03  0.60675744052E+03  0.50400000000E-02 0.  1.
    8880023    1    1    2    0    0 -0.53354062656E+02  0.70153198973E+02 -0.41870354496E+03  0.78542408427E+03  0.65864270000E+03 0.  1.
    8880022    1    1    2    0    0  0.53354062656E+02 -0.70153198973E+02  0.16549923513E+04  0.16643796031E+04  0.15294330000E+03 0.  0.
<mgrwt>
<rscale>  0 0.47706462E+03</rscale>
<asrwt>0</asrwt>
<pdfrwt beam="1">  1        1 0.28354558E+00 0.66451361E+03</pdfrwt>
<pdfrwt beam="2">  1       -1 0.93347298E-01 0.66451361E+03</pdfrwt>
<totfact> 0.45163375E+00</totfact>
</mgrwt>
</event>
<event>
 4    1  0.1043382E-007  0.6648646E+03  0.7818608E-02  0.1019647E+00
          1   -1    0    0  501    0  0.00000000000E+00  0.00000000000E+00  0.16079938391E+04  0.16079938391E+04  0.50400000000E-02 0. -1.
         -1   -1    0    0    0  501 -0.00000000000E+00 -0.00000000000E+00 -0.11907598888E+03  0.11907598899E+03  0.50400000000E-02 0.  1.
    8880023    1    1    2    0    0  0.70938364403E+02  0.56589983117E+02  0.94982758927E+03  0.11594038698E+04  0.65864270000E+03 0.  1.
    8880022    1    1    2    0    0 -0.70938364403E+02 -0.56589983117E+02  0.53909026097E+03  0.56766595831E+03  0.15294330000E+03 0.  0.
<mgrwt>
<rscale>  0 0.47814100E+03</rscale>
<asrwt>0</asrwt>
<pdfrwt beam="1">  1        1 0.24738368E+00 0.66486456E+03</pdfrwt>
<pdfrwt beam="2">  1       -1 0.18319382E-01 0.66486456E+03</pdfrwt>
<totfact> 0.13437189E+02</totfact>
</mgrwt>
</event>
<event>
 4    1  0.1043382E-007  0.9955785E+03  0.7818608E-02  0.9387365E-01
          1   -1    0    0  501    0  0.00000000000E+00  0.00000000000E+00  0.26601980405E+04  0.26601980405E+04  0.50400000000E-02 0. -1.
         -1   -1    0    0    0  501 -0.00000000000E+00 -0.00000000000E+00 -0.58063651509E+03  0.58063651511E+03  0.50400000000E-02 0.  1.
    8880023    1    1    2    0    0  0.72651439268E+03 -0.17188142172E+03 -0.31866279178E+02  0.99608837555E+03  0.65864270000E+03 0.  0.
    8880022    1    1    2    0    0 -0.72651439268E+03  0.17188142172E+03  0.21114278046E+04  0.22447461801E+04  0.15294330000E+03 0.  0.
<mgrwt>
<rscale>  0 0.93122804E+03</rscale>
<asrwt>0</asrwt>
<pdfrwt beam="1">  1        1 0.40926123E+00 0.99557852E+03</pdfrwt>
<pdfrwt beam="2">  1       -1 0.89328696E-01 0.99557852E+03</pdfrwt>
<totfact> 0.13142579E+00</totfact>
</mgrwt>
</event>
<event>
 4    1  0.1043382E-007  0.6702709E+03  0.7818608E-02  0.1015469E+00
         -1   -1    0    0    0  501 -0.00000000000E+00  0.00000000000E+00  0.82879493402E+03  0.82879493403E+03  0.50400000000E-02 0.  1.
          1   -1    0    0  501    0  0.00000000000E+00 -0.00000000000E+00 -0.97582267290E+03  0.97582267292E+03  0.50400000000E-02 0. -1.
    8880023    1    1    2    0    0  0.86246323054E+01  0.12401015383E+03  0.67977399801E+03  0.95464956773E+03  0.65864270000E+03 0.  0.
    8880022    1    1    2    0    0 -0.86246323054E+01 -0.12401015383E+03 -0.82680173690E+03  0.84996803922E+03  0.15294330000E+03 0.  0.
<mgrwt>
<rscale>  0 0.49357602E+03</rscale>
<asrwt>0</asrwt>
<pdfrwt beam="1">  1        1 0.15012656E+00 0.67027092E+03</pdfrwt>
<pdfrwt beam="2">  1       -1 0.12750691E+00 0.67027092E+03</pdfrwt>
<totfact> 0.88014734E+00</totfact>
</mgrwt>
</event>
<event>
 4    1  0.1043382E-007  0.8244628E+03  0.7818608E-02  0.9660204E-01
          1   -1    0    0  501    0  0.00000000000E+00  0.00000000000E+00  0.45675797685E+04  0.45675797685E+04  0.50400000000E-02 0. -1.
         -1   -1    0    0    0  501 -0.00000000000E+00 -0.00000000000E+00 -0.20869663287E+03  0.20869663293E+03  0.50400000000E-02 0.  1.
    8880023    1    1    2    0    0 -0.28725448067E+03  0.40424443419E+03  0.70225499502E+03  0.10830055325E+04  0.65864270000E+03 0.  1.
    8880022    1    1    2    0    0  0.28725448067E+03 -0.40424443419E+03  0.36566281406E+04  0.36932708689E+04  0.15294330000E+03 0.  0.
<mgrwt>
<rscale>  0 0.73436496E+03</rscale>
<asrwt>0</asrwt>
<pdfrwt beam="1">  1        1 0.70270450E+00 0.82446280E+03</pdfrwt>
<pdfrwt beam="2">  1       -1 0.32107178E-01 0.82446280E+03</pdfrwt>
<totfact> 0.27666232E-01</totfact>
</mgrwt>
</event>
<event>
 4    1  0.1043382E-007  0.6902082E+03  0.7818608E-02  0.1004054E+00
         -1   -1    0    0    0  501 -0.00000000000E+00  0.00000000000E+00  0.53802179377E+03  0.53802179380E+03  0.50400000000E-02 0.  1.
          1   -1    0    0  501    0  0.00000000000E+00 -0.00000000000E+00 -0.11437545508E+04  0.11437545508E+04  0.50400000000E-02 0. -1.
    8880023    1    1    2    0    0 -0.62749977437E+02  0.19656959400E+03  0.29095606081E+03  0.74902790371E+03  0.65864270000E+03 0.  1.
    8880022    1    1    2    0    0  0.62749977437E+02 -0.19656959400E+03 -0.89668881786E+03  0.93274844092E+03  0.15294330000E+03 0.  0.
<mgrwt>
<rscale>  0 0.53907902E+03</rscale>
<asrwt>0</asrwt>
<pdfrwt beam="1">  1        1 0.17596224E+00 0.69020821E+03</pdfrwt>
<pdfrwt beam="2">  1       -1 0.82772584E-01 0.69020821E+03</pdfrwt>
<totfact> 0.17720950E+01</totfact>
</mgrwt>
</event>
<event>
 4    1  0.1055230E-007  0.7399927E+03  0.7818608E-02  0.9859968E-01
         -1   -1    0    0    0  501 -0.00000000000E+00  0.00000000000E+00  0.63373642760E+03  0.63373642762E+03  0.50400000000E-02 0.  1.
          1   -1    0    0  501    0  0.00000000000E+00 -0.00000000000E+00 -0.16015412642E+04  0.16015412642E+04  0.50400000000E-02 0. -1.
    8880023    1    1    2    0    0  0.29045183517E+03  0.17151290756E+03  0.38397267039E+03  0.83368109244E+03  0.65864270000E+03 0.  0.
    8880022    1    1    2    0    0 -0.29045183517E+03 -0.17151290756E+03 -0.13517775070E+04  0.14015965994E+04  0.15294330000E+03 0.  0.
<mgrwt>
<rscale>  0 0.62241234E+03</rscale>
<asrwt>0</asrwt>
<pdfrwt beam="1">  1        1 0.24639096E+00 0.73999267E+03</pdfrwt>
<pdfrwt beam="2">  1       -1 0.97497913E-01 0.73999267E+03</pdfrwt>
<totfact> 0.58701028E+00</totfact>
</mgrwt>
</event>
<event>
 4    1  0.1043382E-007  0.8629689E+03  0.7818608E-02  0.9588304E-01
          1   -1    0    0  501    0  0.00000000000E+00  0.00000000000E+00  0.33247901460E+04  0.33247901460E+04  0.50400000000E-02 0. -1.
         -1   -1    0    0    0  501 -0.00000000000E+00 -0.00000000000E+00 -0.41414420868E+03  0.41414420871E+03  0.50400000000E-02 0.  1.
    8880023    1    1    2    0    0  0.22052658073E+03 -0.51212613761E+03  0.99200661781E+02  0.86865190450E+03  0.65864270000E+03 0.  1.
    8880022    1    1    2    0    0 -0.22052658073E+03  0.51212613761E+03  0.28114452755E+04  0.28702824502E+04  0.15294330000E+03 0.  0.
<mgrwt>
<rscale>  0 0.78075162E+03</rscale>
<asrwt>0</asrwt>
<pdfrwt beam="1">  1        1 0.51150618E+00 0.86296892E+03</pdfrwt>
<pdfrwt beam="2">  1       -1 0.63714493E-01 0.86296892E+03</pdfrwt>
<totfact> 0.90663355E-01</totfact>
</mgrwt>
</event>
<event>
 4    1  0.1043382E-007  0.6615622E+03  0.7818608E-02  0.1022610E+00
          1   -1    0    0  501    0  0.00000000000E+00  0.00000000000E+00  0.21347449963E+04  0.21347449963E+04  0.50400000000E-02 0. -1.
         -1   -1    0    0    0  501 -0.00000000000E+00 -0.00000000000E+00 -0.36789959783E+03  0.36789959786E+03  0.50400000000E-02 0.  1.
    8880023    1    1    2    0    0  0.11307349030E+02 -0.61044675743E+02 -0.63746139970E+02  0.66462627484E+03  0.65864270000E+03 0.  1.
    8880022    1    1    2    0    0 -0.11307349030E+02  0.61044675743E+02  0.18305915384E+04  0.18380183193E+04  0.15294330000E+03 0.  0.
<mgrwt>
<rscale>  0 0.46756368E+03</rscale>
<asrwt>0</asrwt>
<pdfrwt beam="1">  1        1 0.32842231E+00 0.66156218E+03</pdfrwt>
<pdfrwt beam="2">  1       -1 0.56599938E-01 0.66156218E+03</pdfrwt>
<totfact> 0.81278139E+00</totfact>
</mgrwt>
</event>
<event>
 4    1  0.1043382E-007  0.7103024E+03  0.7818608E-02  0.9956880E-01
          1   -1    0    0  501    0  0.00000000000E+00  0.00000000000E+00  0.11932356883E+04  0.11932356883E+04  0.50400000000E-02 0. -1.
         -1   -1    0    0    0  501 -0.00000000000E+00 -0.00000000000E+00 -0.58380901110E+03  0.58380901113E+03  0.50400000000E-02 0.  1.
    8880023    1    1    2    0    0  0.24560559397E+03  0.10196628848E+03 -0.33406015224E+03  0.78493670022E+03  0.65864270000E+03 0.  1.
    8880022    1    1    2    0    0 -0.24560559397E+03 -0.10196628848E+03  0.94348682947E+03  0.99210799925E+03  0.15294330000E+03 0.  0.
<mgrwt>
<rscale>  0 0.57582090E+03</rscale>
<asrwt>0</asrwt>
<pdfrwt beam="1">  1        1 0.18357472E+00 0.71030236E+03</pdfrwt>
<pdfrwt beam="2">  1       -1 0.89816771E-01 0.71030236E+03</pdfrwt>
<totfact> 0.13622947E+01</totfact>
</mgrwt>
</event>
<event>
 4    1  0.1043382E-007  0.8630794E+03  0.7818608E-02  0.9588109E-01
          1   -1    0    0  501    0  0.00000000000E+00  0.00000000000E+00  0.26035044862E+04  0.26035044862E+04  0.50400000000E-02 0. -1.
         -1   -1    0    0    0  501 -0.00000000000E+00 -0.00000000000E+00 -0.29280473698E+03  0.29280473702E+03  0.50400000000E-02 0.  1.
    8880023    1    1    2    0    0 -0.10477909885E+03  0.54782958426E+03  0.50436364879E+03  0.99964434147E+03  0.65864270000E+03 0.  1.
    8880022    1    1    2    0    0  0.10477909885E+03 -0.54782958426E+03  0.18063361004E+04  0.18966648818E+04  0.15294330000E+03 0.  0.
<mgrwt>
<rscale>  0 0.78088229E+03</rscale>
<asrwt>0</asrwt>
<pdfrwt beam="1">  1        1 0.40053916E+00 0.86307944E+03</pdfrwt>
<pdfrwt beam="2">  1       -1 0.45046882E-01 0.86307944E+03</pdfrwt>
<totfact> 0.58309100E+00</totfact>
</mgrwt>
</event>
<event>
 4    1  0.1043382E-007  0.6714221E+03  0.7818608E-02  0.1014663E+00
          1   -1    0    0  501    0  0.00000000000E+00  0.00000000000E+00  0.26747869836E+04  0.26747869837E+04  0.50400000000E-02 0. -1.
         -1   -1    0    0    0  501 -0.00000000000E+00 -0.00000000000E+00 -0.29801690028E+03  0.29801690033E+03  0.50400000000E-02 0.  1.
    8880023    1    1    2    0    0  0.51414422587E+02  0.11980830315E+03  0.90240409603E+02  0.67745923135E+03  0.65864270000E+03 0.  1.
    8880022    1    1    2    0    0 -0.51414422587E+02 -0.11980830315E+03  0.22865296738E+04  0.22953446526E+04  0.15294330000E+03 0.  0.
<mgrwt>
<rscale>  0 0.49662639E+03</rscale>
<asrwt>0</asrwt>
<pdfrwt beam="1">  1        1 0.41150569E+00 0.67142213E+03</pdfrwt>
<pdfrwt beam="2">  1       -1 0.45848754E-01 0.67142213E+03</pdfrwt>
<totfact> 0.52114256E+00</totfact>
</mgrwt>
</event>
<event>
 4    1  0.1043382E-007  0.8138032E+03  0.7818608E-02  0.9681709E-01
          1   -1    0    0  501    0  0.00000000000E+00  0.00000000000E+00  0.76854081519E+03  0.76854081521E+03  0.50400000000E-02 0. -1.
         -1   -1    0    0    0  501 -0.00000000000E+00 -0.00000000000E+00 -0.76483326025E+03  0.76483326027E+03  0.50400000000E-02 0.  1.
    8880023    1    1    2    0    0 -0.18974338920E+03 -0.43870594241E+03 -0.38337451660E+03  0.89958417277E+03  0.65864270000E+03 0.  0.
    8880022    1    1    2    0    0  0.18974338920E+03  0.43870594241E+03  0.38708207154E+03  0.63378990271E+03  0.15294330000E+03 0.  0.
<mgrwt>
<rscale>  0 0.72116365E+03</rscale>
<asrwt>0</asrwt>
<pdfrwt beam="1">  1        1 0.11823705E+00 0.81380321E+03</pdfrwt>
<pdfrwt beam="2">  1       -1 0.11766666E+00 0.81380321E+03</pdfrwt>
<totfact> 0.15629403E+01</totfact>
</mgrwt>
</event>
<event>
 4    1  0.1043382E-007  0.6648999E+03  0.7818608E-02  0.1019618E+00
         -1   -1    0    0    0  501 -0.00000000000E+00  0.00000000000E+00  0.66578865608E+03  0.66578865610E+03  0.50400000000E-02 0.  1.
          1   -1    0    0  501    0  0.00000000000E+00 -0.00000000000E+00 -0.23152174178E+04  0.23152174178E+04  0.50400000000E-02 0. -1.
    8880023    1    1    2    0    0 -0.90850045149E+02  0.52907433168E+01  0.49517554394E+03  0.82903000443E+03  0.65864270000E+03 0.  0.
    8880022    1    1    2    0    0  0.90850045149E+02 -0.52907433168E+01 -0.21446043057E+04  0.21519760695E+04  0.15294330000E+03 0. -1.
<mgrwt>
<rscale>  0 0.47824894E+03</rscale>
<asrwt>0</asrwt>
<pdfrwt beam="1">  1        1 0.35618729E+00 0.66489994E+03</pdfrwt>
<pdfrwt beam="2">  1       -1 0.10242903E+00 0.66489994E+03</pdfrwt>
<totfact> 0.17714405E+00</totfact>
</mgrwt>
</event>
<event>
 4    1  0.1043382E-007  0.1621723E+04  0.7818608E-02  0.8828145E-01
         -1   -1    0    0    0  501 -0.00000000000E+00  0.00000000000E+00  0.10007189646E+04  0.10007189646E+04  0.50400000000E-02 0.  1.
          1   -1    0    0  501    0  0.00000000000E+00 -0.00000000000E+00 -0.39451260987E+04  0.39451260987E+04  0.50400000000E-02 0. -1.
    8880023    1    1    2    0    0 -0.50792457340E+03  0.13921887328E+04  0.26911012194E+02  0.16219467466E+04  0.65864270000E+03 0.  0.
    8880022    1    1    2    0    0  0.50792457340E+03 -0.13921887328E+04 -0.29713181463E+04  0.33238983167E+04  0.15294330000E+03 0.  0.
<mgrwt>
<rscale>  0 0.15876917E+04</rscale>
<asrwt>0</asrwt>
<pdfrwt beam="1">  1        1 0.60694247E+00 0.16217235E+04</pdfrwt>
<pdfrwt beam="2">  1       -1 0.15395677E+00 0.16217235E+04</pdfrwt>
<totfact> 0.32917194E-02</totfact>
</mgrwt>
</event>
<event>
 4    1  0.1043382E-007  0.7770870E+03  0.7818608E-02  0.9762725E-01
          1   -1    0    0  501    0  0.00000000000E+00  0.00000000000E+00  0.27472179006E+04  0.27472179006E+04  0.50400000000E-02 0. -1.
         -1   -1    0    0    0  501 -0.00000000000E+00 -0.00000000000E+00 -0.13765452723E+03  0.13765452732E+03  0.50400000000E-02 0.  1.
    8880023    1    1    2    0    0  0.40154036963E+03  0.93911674244E+02  0.14576920652E+04  0.16518869315E+04  0.65864270000E+03 0.  0.
    8880022    1    1    2    0    0 -0.40154036963E+03 -0.93911674244E+02  0.11518713082E+04  0.12329854965E+04  0.15294330000E+03 0.  1.
<mgrwt>
<rscale>  0 0.67401901E+03</rscale>
<asrwt>0</asrwt>
<pdfrwt beam="1">  1        1 0.42264885E+00 0.77708705E+03</pdfrwt>
<pdfrwt beam="2">  1       -1 0.21177623E-01 0.77708705E+03</pdfrwt>
<totfact> 0.17702964E+01</totfact>
</mgrwt>
</event>
<event>
 4    1  0.1043382E-007  0.6734738E+03  0.7818608E-02  0.1013286E+00
         -1   -1    0    0    0  501 -0.00000000000E+00  0.00000000000E+00  0.15418266909E+03  0.15418266917E+03  0.50400000000E-02 0.  1.
          1   -1    0    0  501    0  0.00000000000E+00 -0.00000000000E+00 -0.21685259170E+04  0.21685259170E+04  0.50400000000E-02 0. -1.
    8880023    1    1    2    0    0 -0.62423014181E+02  0.12593681053E+03 -0.62784602313E+03  0.92073750220E+03  0.65864270000E+03 0.  1.
    8880022    1    1    2    0    0  0.62423014181E+02 -0.12593681053E+03 -0.13864972248E+04  0.14019710840E+04  0.15294330000E+03 0.  0.
<mgrwt>
<rscale>  0 0.50189291E+03</rscale>
<asrwt>0</asrwt>
<pdfrwt beam="1">  1        1 0.33361935E+00 0.67347377E+03</pdfrwt>
<pdfrwt beam="2">  1       -1 0.23720412E-01 0.67347377E+03</pdfrwt>
<totfact> 0.36793749E+01</totfact>
</mgrwt>
</event>
<event>
 4    1  0.1043382E-007  0.7427433E+03  0.7818608E-02  0.9852027E-01
         -1   -1    0    0    0  501 -0.00000000000E+00  0.00000000000E+00  0.64171929442E+03  0.64171929444E+03  0.50400000000E-02 0.  1.
          1   -1    0    0  501    0  0.00000000000E+00 -0.00000000000E+00 -0.20587911033E+04  0.20587911034E+04  0.50400000000E-02 0. -1.
    8880023    1    1    2    0    0  0.21762042213E+03  0.26551613173E+03  0.40094533732E+03  0.84405262521E+03  0.65864270000E+03 0.  1.
    8880022    1    1    2    0    0 -0.21762042213E+03 -0.26551613173E+03 -0.18180171462E+04  0.18564577726E+04  0.15294330000E+03 0.  0.
<mgrwt>
<rscale>  0 0.62643684E+03</rscale>
<asrwt>0</asrwt>
<pdfrwt beam="1">  1        1 0.31673709E+00 0.74274334E+03</pdfrwt>
<pdfrwt beam="2">  1       -1 0.98726046E-01 0.74274334E+03</pdfrwt>
<totfact> 0.28153420E+00</totfact>
</mgrwt>
</event>
<event>
 4    1  0.1043382E-007  0.7029000E+03  0.7818608E-02  0.9985377E-01
         -1   -1    0    0    0  501 -0.00000000000E+00  0.00000000000E+00  0.50866196758E+03  0.50866196761E+03  0.50400000000E-02 0.  1.
          1   -1    0    0  501    0  0.00000000000E+00 -0.00000000000E+00 -0.51771089003E+03  0.51771089006E+03  0.50400000000E-02 0. -1.
    8880023    1    1    2    0    0 -0.15834530819E+03  0.18757658637E+03  0.11396028591E+03  0.71207820175E+03  0.65864270000E+03 0.  1.
    8880022    1    1    2    0    0  0.15834530819E+03 -0.18757658637E+03 -0.12300920836E+03  0.31429465592E+03  0.15294330000E+03 0. -1.
<mgrwt>
<rscale>  0 0.56296101E+03</rscale>
<asrwt>0</asrwt>
<pdfrwt beam="1">  1        1 0.79647829E-01 0.70290001E+03</pdfrwt>
<pdfrwt beam="2">  1       -1 0.78255688E-01 0.70290001E+03</pdfrwt>
<totfact> 0.70658298E+01</totfact>
</mgrwt>
</event>
<event>
 4    1  0.1043382E-007  0.8942967E+03  0.7818608E-02  0.9535250E-01
         -1   -1    0    0    0  501 -0.00000000000E+00  0.00000000000E+00  0.10619572624E+04  0.10619572624E+04  0.50400000000E-02 0.  1.
          1   -1    0    0  501    0  0.00000000000E+00 -0.00000000000E+00 -0.10745320653E+04  0.10745320654E+04  0.50400000000E-02 0. -1.
    8880023    1    1    2    0    0  0.46241089999E+03 -0.39004177991E+03  0.73866378764E+03  0.11599098361E+04  0.65864270000E+03 0.  1.
    8880022    1    1    2    0    0 -0.46241089999E+03  0.39004177991E+03 -0.75123859058E+03  0.97657949165E+03  0.15294330000E+03 0.  0.
<mgrwt>
<rscale>  0 0.81734138E+03</rscale>
<asrwt>0</asrwt>
<pdfrwt beam="1">  1        1 0.16531263E+00 0.89429673E+03</pdfrwt>
<pdfrwt beam="2">  1       -1 0.16337804E+00 0.89429673E+03</pdfrwt>
<totfact> 0.37141065E+00</totfact>
</mgrwt>
</event>
<event>
 4    1  0.1043382E-007  0.7050164E+03  0.7818608E-02  0.9976995E-01
         -1   -1    0    0    0  501 -0.00000000000E+00  0.00000000000E+00  0.42670928227E+03  0.42670928230E+03  0.50400000000E-02 0.  1.
          1   -1    0    0  501    0  0.00000000000E+00 -0.00000000000E+00 -0.19764488318E+04  0.19764488318E+04  0.50400000000E-02 0. -1.
    8880023    1    1    2    0    0  0.75310486636E+02  0.23992953228E+03  0.11348501955E+03  0.71409166483E+03  0.65864270000E+03 0.  1.
    8880022    1    1    2    0    0 -0.75310486636E+02 -0.23992953228E+03 -0.16632245691E+04  0.16890664493E+04  0.15294330000E+03 0.  0.
<mgrwt>
<rscale>  0 0.56670575E+03</rscale>
<asrwt>0</asrwt>
<pdfrwt beam="1">  1        1 0.30406905E+00 0.70501635E+03</pdfrwt>
<pdfrwt beam="2">  1       -1 0.65647583E-01 0.70501635E+03</pdfrwt>
<totfact> 0.76729716E+00</totfact>
</mgrwt>
</event>
<event>
 4    1  0.1043382E-007  0.7216013E+03  0.7818608E-02  0.9917205E-01
         -1   -1    0    0    0  501 -0.00000000000E+00  0.00000000000E+00  0.50011101247E+03  0.50011101250E+03  0.50400000000E-02 0.  1.
          1   -1    0    0  501    0  0.00000000000E+00 -0.00000000000E+00 -0.57418911575E+03  0.57418911577E+03  0.50400000000E-02 0. -1.
    8880023    1    1    2    0    0 -0.13334639021E+03  0.26290098639E+03  0.41163024749E+02  0.72277436956E+03  0.65864270000E+03 0.  0.
    8880022    1    1    2    0    0  0.13334639021E+03 -0.26290098639E+03 -0.11524112802E+03  0.35152575870E+03  0.15294330000E+03 0. -1.
<mgrwt>
<rscale>  0 0.59434677E+03</rscale>
<asrwt>0</asrwt>
<pdfrwt beam="1">  1        1 0.88336787E-01 0.72160127E+03</pdfrwt>
<pdfrwt beam="2">  1       -1 0.76940156E-01 0.72160127E+03</pdfrwt>
<totfact> 0.63239348E+01</totfact>
</mgrwt>
</event>
<event>
 4    1  0.1043382E-007  0.1110691E+04  0.7818608E-02  0.9249246E-01
          1   -1    0    0  501    0  0.00000000000E+00  0.00000000000E+00  0.15525707541E+04  0.15525707541E+04  0.50400000000E-02 0. -1.
         -1   -1    0    0    0  501 -0.00000000000E+00 -0.00000000000E+00 -0.71024603827E+03  0.71024603829E+03  0.50400000000E-02 0.  1.
    8880023    1    1    2    0    0 -0.62949087523E+03 -0.63526747731E+03  0.14839790589E+03  0.11205604287E+04  0.65864270000E+03 0.  0.
    8880022    1    1    2    0    0  0.62949087523E+03  0.63526747731E+03  0.69392680993E+03  0.11422563636E+04  0.15294330000E+03 0.  0.
<mgrwt>
<rscale>  0 0.10559273E+04</rscale>
<asrwt>0</asrwt>
<pdfrwt beam="1">  1        1 0.23885704E+00 0.11106907E+04</pdfrwt>
<pdfrwt beam="2">  1       -1 0.10926862E+00 0.11106907E+04</pdfrwt>
<totfact> 0.46320163E+00</totfact>
</mgrwt>
</event>
<event>
 4    1  0.1043382E-007  0.1055459E+04  0.7818608E-02  0.9312348E-01
          1   -1    0    0  501    0  0.00000000000E+00  0.00000000000E+00  0.10893044296E+04  0.10893044296E+04  0.50400000000E-02 0. -1.
         -1   -1    0    0    0  501 -0.00000000000E+00 -0.00000000000E+00 -0.10473165837E+04  0.10473165837E+04  0.50400000000E-02 0.  1.
    8880023    1    1    2    0    0  0.72636714423E+03 -0.39060728993E+03 -0.46842597145E+03  0.11547364981E+04  0.65864270000E+03 0.  0.
    8880022    1    1    2    0    0 -0.72636714423E+03  0.39060728993E+03  0.51041381738E+03  0.98188451518E+03  0.15294330000E+03 0.  0.
<mgrwt>
<rscale>  0 0.99654012E+03</rscale>
<asrwt>0</asrwt>
<pdfrwt beam="1">  1        1 0.16758530E+00 0.10554589E+04</pdfrwt>
<pdfrwt beam="2">  1       -1 0.16112563E+00 0.10554589E+04</pdfrwt>
<totfact> 0.36886388E+00</totfact>
</mgrwt>
</event>
<event>
 4    1  0.1043382E-007  0.8675819E+03  0.7818608E-02  0.9580216E-01
          1   -1    0    0  501    0  0.00000000000E+00  0.00000000000E+00  0.17360850905E+04  0.17360850906E+04  0.50400000000E-02 0. -1.
         -1   -1    0    0    0  501 -0.00000000000E+00 -0.00000000000E+00 -0.90352927319E+03  0.90352927320E+03  0.50400000000E-02 0.  1.
    8880023    1    1    2    0    0 -0.40689217345E+03 -0.39156976625E+03 -0.62484312012E+03  0.10691712930E+04  0.65864270000E+03 0.  1.
    8880022    1    1    2    0    0  0.40689217345E+03  0.39156976625E+03  0.14573989375E+04  0.15704430708E+04  0.15294330000E+03 0.  0.
<mgrwt>
<rscale>  0 0.78619542E+03</rscale>
<asrwt>0</asrwt>
<pdfrwt beam="1">  1        1 0.26709001E+00 0.86758189E+03</pdfrwt>
<pdfrwt beam="2">  1       -1 0.13900450E+00 0.86758189E+03</pdfrwt>
<totfact> 0.19777232E+00</totfact>
</mgrwt>
</event>
<event>
 4    1  0.1043382E-007  0.7295635E+03  0.7818608E-02  0.9891462E-01
         -1   -1    0    0    0  501 -0.00000000000E+00  0.00000000000E+00  0.40291143157E+03  0.40291143160E+03  0.50400000000E-02 0.  1.
          1   -1    0    0  501    0  0.00000000000E+00 -0.00000000000E+00 -0.10426084066E+04  0.10426084066E+04  0.50400000000E-02 0. -1.
    8880023    1    1    2    0    0 -0.10750485745E+03  0.29478032933E+03 -0.14768949547E+02  0.72971300185E+03  0.65864270000E+03 0.  0.
    8880022    1    1    2    0    0  0.10750485745E+03 -0.29478032933E+03 -0.62492802546E+03  0.71580683634E+03  0.15294330000E+03 0.  0.
<mgrwt>
<rscale>  0 0.60676850E+03</rscale>
<asrwt>0</asrwt>
<pdfrwt beam="1">  1        1 0.16040129E+00 0.72956353E+03</pdfrwt>
<pdfrwt beam="2">  1       -1 0.61986374E-01 0.72956353E+03</pdfrwt>
<totfact> 0.38061420E+01</totfact>
</mgrwt>
</event>
<event>
 4    1  0.1043382E-007  0.7193181E+03  0.7818608E-02  0.9924900E-01
          1   -1    0    0  501    0  0.00000000000E+00  0.00000000000E+00  0.42472286725E+03  0.42472286728E+03  0.50400000000E-02 0. -1.
         -1   -1    0    0    0  501 -0.00000000000E+00 -0.00000000000E+00 -0.19901499959E+04  0.19901499959E+04  0.50400000000E-02 0.  1.
    8880023    1    1    2    0    0  0.36142483232E+01  0.28912849927E+03 -0.18477195989E+04  0.19827975878E+04  0.65864270000E+03 0.  1.
    8880022    1    1    2    0    0 -0.36142483232E+01 -0.28912849927E+03  0.28229247019E+03  0.43207527541E+03  0.15294330000E+03 0.  0.
<mgrwt>
<rscale>  0 0.59069559E+03</rscale>
<asrwt>0</asrwt>
<pdfrwt beam="1">  1        1 0.65341981E-01 0.71931812E+03</pdfrwt>
<pdfrwt beam="2">  1       -1 0.30617692E+00 0.71931812E+03</pdfrwt>
<totfact> 0.17650741E+00</totfact>
</mgrwt>
</event>
<event>
 4    1  0.1043382E-007  0.7457090E+03  0.7818608E-02  0.9843619E-01
          1   -1    0    0  501    0  0.00000000000E+00  0.00000000000E+00  0.10645792422E+04  0.10645792422E+04  0.50400000000E-02 0. -1.
         -1   -1    0    0    0  501 -0.00000000000E+00 -0.00000000000E+00 -0.44229201622E+03  0.44229201625E+03  0.50400000000E-02 0.  1.
    8880023    1    1    2    0    0  0.13628879024E+03  0.32202020627E+03 -0.35309573703E+02  0.74654445270E+03  0.65864270000E+03 0.  0.
    8880022    1    1    2    0    0 -0.13628879024E+03 -0.32202020627E+03  0.65759679970E+03  0.76032680578E+03  0.15294330000E+03 0.  0.
<mgrwt>
<rscale>  0 0.63073334E+03</rscale>
<asrwt>0</asrwt>
<pdfrwt beam="1">  1        1 0.16378142E+00 0.74570896E+03</pdfrwt>
<pdfrwt beam="2">  1       -1 0.68044926E-01 0.74570896E+03</pdfrwt>
<totfact> 0.30320062E+01</totfact>
</mgrwt>
</event>
<event>
 4    1  0.1043382E-007  0.8298876E+03  0.7818608E-02  0.9649551E-01
         -1   -1    0    0    0  501 -0.00000000000E+00  0.00000000000E+00  0.38863374397E+03  0.38863374400E+03  0.50400000000E-02 0.  1.
          1   -1    0    0  501    0  0.00000000000E+00 -0.00000000000E+00 -0.14686956477E+04  0.14686956477E+04  0.50400000000E-02 0. -1.
    8880023    1    1    2    0    0  0.27670706237E+03 -0.42229893606E+03 -0.23742829426E+03  0.86318340516E+03  0.65864270000E+03 0.  0.
    8880022    1    1    2    0    0 -0.27670706237E+03  0.42229893606E+03 -0.84263360948E+03  0.99414598657E+03  0.15294330000E+03 0.  0.
<mgrwt>
<rscale>  0 0.74101601E+03</rscale>
<asrwt>0</asrwt>
<pdfrwt beam="1">  1        1 0.22595317E+00 0.82988758E+03</pdfrwt>
<pdfrwt beam="2">  1       -1 0.59789807E-01 0.82988758E+03</pdfrwt>
<totfact> 0.19973857E+01</totfact>
</mgrwt>
</event>
<event>
 4    1  0.1043382E-007  0.6828940E+03  0.7818608E-02  0.1007732E+00
          1   -1    0    0  501    0  0.00000000000E+00  0.00000000000E+00  0.16323005349E+04  0.16323005349E+04  0.50400000000E-02 0. -1.
         -1   -1    0    0    0  501 -0.00000000000E+00 -0.00000000000E+00 -0.23043789553E+03  0.23043789559E+03  0.50400000000E-02 0.  1.
    8880023    1    1    2    0    0 -0.16419686744E+03  0.74655305231E+02  0.31787093646E+03  0.75325039952E+03  0.65864270000E+03 0.  1.
    8880022    1    1    2    0    0  0.16419686744E+03 -0.74655305231E+02  0.10839917029E+04  0.11094880310E+04  0.15294330000E+03 0.  0.
<mgrwt>
<rscale>  0 0.52386138E+03</rscale>
<asrwt>0</asrwt>
<pdfrwt beam="1">  1        1 0.25112315E+00 0.68289401E+03</pdfrwt>
<pdfrwt beam="2">  1       -1 0.35451985E-01 0.68289401E+03</pdfrwt>
<totfact> 0.41783899E+01</totfact>
</mgrwt>
</event>
<event>
 4    1  0.1043382E-007  0.6803060E+03  0.7818608E-02  0.1009151E+00
          1   -1    0    0  501    0  0.00000000000E+00  0.00000000000E+00  0.14612832963E+04  0.14612832963E+04  0.50400000000E-02 0. -1.
         -1   -1    0    0    0  501 -0.00000000000E+00 -0.00000000000E+00 -0.23307849004E+03  0.23307849010E+03  0.50400000000E-02 0.  1.
    8880023    1    1    2    0    0 -0.12695464118E+03 -0.11352794846E+03  0.30919567953E+03  0.74727387918E+03  0.65864270000E+03 0.  1.
    8880022    1    1    2    0    0  0.12695464118E+03  0.11352794846E+03  0.91900912675E+03  0.94708790725E+03  0.15294330000E+03 0.  0.
<mgrwt>
<rscale>  0 0.51813424E+03</rscale>
<asrwt>0</asrwt>
<pdfrwt beam="1">  1        1 0.22481282E+00 0.68030602E+03</pdfrwt>
<pdfrwt beam="2">  1       -1 0.35858229E-01 0.68030602E+03</pdfrwt>
<totfact> 0.53526507E+01</totfact>
</mgrwt>
</event>
<event>
 4    1  0.1043382E-007  0.8422281E+03  0.7818608E-02  0.9625993E-01
         -1   -1    0    0    0  501 -0.00000000000E+00  0.00000000000E+00  0.11113923989E+04  0.11113923989E+04  0.50400000000E-02 0.  1.
          1   -1    0    0  501    0  0.00000000000E+00 -0.00000000000E+00 -0.60079644453E+03  0.60079644456E+03  0.50400000000E-02 0. -1.
    8880023    1    1    2    0    0 -0.52485855749E+03 -0.78370522565E+01  0.73821132918E+03  0.11199571856E+04  0.65864270000E+03 0.  1.
    8880022    1    1    2    0    0  0.52485855749E+03  0.78370522565E+01 -0.22761537480E+03  0.59223165790E+03  0.15294330000E+03 0.  0.
<mgrwt>
<rscale>  0 0.75599408E+03</rscale>
<asrwt>0</asrwt>
<pdfrwt beam="1">  1        1 0.92430224E-01 0.84222808E+03</pdfrwt>
<pdfrwt beam="2">  1       -1 0.17098344E+00 0.84222808E+03</pdfrwt>
<totfact> 0.84378720E+00</totfact>
</mgrwt>
</event>
<event>
 4    1  0.1043382E-007  0.7813266E+03  0.7818608E-02  0.9752730E-01
          1   -1    0    0  501    0  0.00000000000E+00  0.00000000000E+00  0.18921322136E+04  0.18921322136E+04  0.50400000000E-02 0. -1.
         -1   -1    0    0    0  501 -0.00000000000E+00 -0.00000000000E+00 -0.25343912029E+03  0.25343912034E+03  0.50400000000E-02 0.  1.
    8880023    1    1    2    0    0  0.33364513072E+03 -0.25562077004E+03  0.51408355849E+03  0.93528239730E+03  0.65864270000E+03 0.  0.
    8880022    1    1    2    0    0 -0.33364513072E+03  0.25562077004E+03  0.11246095348E+04  0.12102889366E+04  0.15294330000E+03 0.  0.
<mgrwt>
<rscale>  0 0.67962213E+03</rscale>
<asrwt>0</asrwt>
<pdfrwt beam="1">  1        1 0.29109726E+00 0.78132660E+03</pdfrwt>
<pdfrwt beam="2">  1       -1 0.38990635E-01 0.78132660E+03</pdfrwt>
<totfact> 0.23277510E+01</totfact>
</mgrwt>
</event>
<event>
 4    1  0.1144812E-007  0.7779408E+03  0.7818608E-02  0.9760696E-01
         -1   -1    0    0    0  501 -0.00000000000E+00  0.00000000000E+00  0.15665385762E+04  0.15665385762E+04  0.50400000000E-02 0.  1.
          1   -1    0    0  501    0  0.00000000000E+00 -0.00000000000E+00 -0.12287843725E+04  0.12287843725E+04  0.50400000000E-02 0. -1.
    8880023    1    1    2    0    0 -0.38812281312E+03 -0.14402232388E+03  0.14241126579E+04  0.16227411428E+04  0.65864270000E+03 0.  1.
    8880022    1    1    2    0    0  0.38812281312E+03  0.14402232388E+03 -0.10863584542E+04  0.11725818060E+04  0.15294330000E+03 0.  0.
<mgrwt>
<rscale>  0 0.67515134E+03</rscale>
<asrwt>0</asrwt>
<pdfrwt beam="1">  1        1 0.18904375E+00 0.77794084E+03</pdfrwt>
<pdfrwt beam="2">  1       -1 0.24100594E+00 0.77794084E+03</pdfrwt>
<totfact> 0.85207365E-01</totfact>
</mgrwt>
</event>
<event>
 4    1  0.1043382E-007  0.7624827E+03  0.7818608E-02  0.9798722E-01
          1   -1    0    0  501    0  0.00000000000E+00  0.00000000000E+00  0.32811179346E+04  0.32811179346E+04  0.50400000000E-02 0. -1.
         -1   -1    0    0    0  501 -0.00000000000E+00 -0.00000000000E+00 -0.34142351557E+03  0.34142351561E+03  0.50400000000E-02 0.  1.
    8880023    1    1    2    0    0  0.84758004009E+02  0.37468081454E+03  0.11901155139E+03  0.77171470613E+03  0.65864270000E+03 0.  1.
    8880022    1    1    2    0    0 -0.84758004009E+02 -0.37468081454E+03  0.28206828677E+04  0.28508267441E+04  0.15294330000E+03 0.  0.
<mgrwt>
<rscale>  0 0.65431173E+03</rscale>
<asrwt>0</asrwt>
<pdfrwt beam="1">  1        1 0.50478740E+00 0.76248268E+03</pdfrwt>
<pdfrwt beam="2">  1       -1 0.52526692E-01 0.76248268E+03</pdfrwt>
<totfact> 0.14565028E+00</totfact>
</mgrwt>
</event>
<event>
 4    1  0.1043382E-007  0.6678939E+03  0.7818608E-02  0.1017220E+00
         -1   -1    0    0    0  501 -0.00000000000E+00  0.00000000000E+00  0.69296305711E+03  0.69296305713E+03  0.50400000000E-02 0.  1.
          1   -1    0    0  501    0  0.00000000000E+00 -0.00000000000E+00 -0.91441642836E+03  0.91441642837E+03  0.50400000000E-02 0. -1.
    8880023    1    1    2    0    0 -0.11062024909E+03 -0.59330931853E+01  0.51734652799E+03  0.84482523482E+03  0.65864270000E+03 0.  1.
    8880022    1    1    2    0    0  0.11062024909E+03  0.59330931853E+01 -0.73879989924E+03  0.76255425068E+03  0.15294330000E+03 0.  0.
<mgrwt>
<rscale>  0 0.48703357E+03</rscale>
<asrwt>0</asrwt>
<pdfrwt beam="1">  1        1 0.14067945E+00 0.66789389E+03</pdfrwt>
<pdfrwt beam="2">  1       -1 0.10660970E+00 0.66789389E+03</pdfrwt>
<totfact> 0.15149191E+01</totfact>
</mgrwt>
</event>
<event>
 4    1  0.1043382E-007  0.7849822E+03  0.7818608E-02  0.9744261E-01
          1   -1    0    0  501    0  0.00000000000E+00  0.00000000000E+00  0.66332673289E+03  0.66332673291E+03  0.50400000000E-02 0. -1.
         -1   -1    0    0    0  501 -0.00000000000E+00 -0.00000000000E+00 -0.22360731975E+04  0.22360731976E+04  0.50400000000E-02 0.  1.
    8880023    1    1    2    0    0  0.42699981544E+03 -0.76147276905E+01 -0.20774414963E+04  0.22208017029E+04  0.65864270000E+03 0.  0.
    8880022    1    1    2    0    0 -0.42699981544E+03  0.76147276905E+01  0.50469503169E+03  0.67859822759E+03  0.15294330000E+03 0.  0.
<mgrwt>
<rscale>  0 0.68441551E+03</rscale>
<asrwt>0</asrwt>
<pdfrwt beam="1">  1        1 0.10205027E+00 0.78498219E+03</pdfrwt>
<pdfrwt beam="2">  1       -1 0.34401126E+00 0.78498219E+03</pdfrwt>
<totfact> 0.53249549E-01</totfact>
</mgrwt>
</event>
<event>
 4    1  0.1043382E-007  0.6613039E+03  0.7818608E-02  0.1022859E+00
          1   -1    0    0  501    0  0.00000000000E+00  0.00000000000E+00  0.17690698048E+03  0.17690698055E+03  0.50400000000E-02 0. -1.
         -1   -1    0    0    0  501 -0.00000000000E+00 -0.00000000000E+00 -0.16762512346E+04  0.16762512346E+04  0.50400000000E-02 0.  1.
    8880023    1    1    2    0    0  0.23019889219E+02 -0.54613834057E+02 -0.15469432269E+04  0.16823662323E+04  0.65864270000E+03 0.  1.
    8880022    1    1    2    0    0 -0.23019889219E+02  0.54613834057E+02  0.47598972784E+02  0.17079198282E+03  0.15294330000E+03 0.  0.
<mgrwt>
<rscale>  0 0.46668988E+03</rscale>
<asrwt>0</asrwt>
<pdfrwt beam="1">  1        1 0.27216460E-01 0.66130386E+03</pdfrwt>
<pdfrwt beam="2">  1       -1 0.25788480E+00 0.66130386E+03</pdfrwt>
<totfact> 0.11318882E+01</totfact>
</mgrwt>
</event>
<event>
 4    1  0.1372941E-007  0.1272488E+04  0.7818608E-02  0.9089690E-01
          1   -1    0    0  501    0  0.00000000000E+00  0.00000000000E+00  0.32727369560E+04  0.32727369560E+04  0.50400000000E-02 0. -1.
         -1   -1    0    0    0  501 -0.00000000000E+00 -0.00000000000E+00 -0.11916003538E+04  0.11916003538E+04  0.50400000000E-02 0.  1.
    8880023    1    1    2    0    0  0.55742149760E+02  0.10873395957E+04 -0.71514337127E+03  0.14596762762E+04  0.65864270000E+03 0.  0.
    8880022    1    1    2    0    0 -0.55742149760E+02 -0.10873395957E+04  0.27962799734E+04  0.30046610335E+04  0.15294330000E+03 0.  0.
<mgrwt>
<rscale>  0 0.12268311E+04</rscale>
<asrwt>0</asrwt>
<pdfrwt beam="1">  1        1 0.50349800E+00 0.12724876E+04</pdfrwt>
<pdfrwt beam="2">  1       -1 0.18332313E+00 0.12724876E+04</pdfrwt>
<totfact> 0.72591053E-02</totfact>
</mgrwt>
</event>
<event>
 4    1  0.1043382E-007  0.6867342E+03  0.7818608E-02  0.1005745E+00
          1   -1    0    0  501    0  0.00000000000E+00  0.00000000000E+00  0.59838810174E+03  0.59838810176E+03  0.50400000000E-02 0. -1.
         -1   -1    0    0    0  501 -0.00000000000E+00 -0.00000000000E+00 -0.94502680561E+03  0.94502680563E+03  0.50400000000E-02 0.  1.
    8880023    1    1    2    0    0  0.18551489333E+03  0.58119321129E+02 -0.78320661766E+03  0.10416412258E+04  0.65864270000E+03 0.  1.
    8880022    1    1    2    0    0 -0.18551489333E+03 -0.58119321129E+02  0.43656791379E+03  0.50177368156E+03  0.15294330000E+03 0.  0.
<mgrwt>
<rscale>  0 0.53201316E+03</rscale>
<asrwt>0</asrwt>
<pdfrwt beam="1">  1        1 0.92059709E-01 0.68673418E+03</pdfrwt>
<pdfrwt beam="2">  1       -1 0.14538874E+00 0.68673418E+03</pdfrwt>
<totfact> 0.13524106E+01</totfact>
</mgrwt>
</event>
<event>
 4    1  0.1043382E-007  0.7800722E+03  0.7818608E-02  0.9755667E-01
         -1   -1    0    0    0  501 -0.00000000000E+00  0.00000000000E+00  0.52565443406E+03  0.52565443408E+03  0.50400000000E-02 0.  1.
          1   -1    0    0  501    0  0.00000000000E+00 -0.00000000000E+00 -0.12150342479E+04  0.12150342480E+04  0.50400000000E-02 0. -1.
    8880023    1    1    2    0    0  0.19383850932E+02  0.41752455757E+03  0.14649018237E+03  0.79370779865E+03  0.65864270000E+03 0.  1.
    8880022    1    1    2    0    0 -0.19383850932E+02 -0.41752455757E+03 -0.83586999625E+03  0.94698088338E+03  0.15294330000E+03 0.  0.
<mgrwt>
<rscale>  0 0.67796937E+03</rscale>
<asrwt>0</asrwt>
<pdfrwt beam="1">  1        1 0.18692834E+00 0.78007224E+03</pdfrwt>
<pdfrwt beam="2">  1       -1 0.80869913E-01 0.78007224E+03</pdfrwt>
<totfact> 0.16331531E+01</totfact>
</mgrwt>
</event>
<event>
 4    1  0.1043382E-007  0.7084916E+03  0.7818608E-02  0.9963645E-01
         -1   -1    0    0    0  501 -0.00000000000E+00  0.00000000000E+00  0.66528277271E+03  0.66528277273E+03  0.50400000000E-02 0.  1.
          1   -1    0    0  501    0  0.00000000000E+00 -0.00000000000E+00 -0.45350630667E+03  0.45350630670E+03  0.50400000000E-02 0. -1.
    8880023    1    1    2    0    0 -0.97410740821E+02  0.24220088542E+03  0.34520453565E+03  0.78811579037E+03  0.65864270000E+03 0.  1.
    8880022    1    1    2    0    0  0.97410740821E+02 -0.24220088542E+03 -0.13342806960E+03  0.33067328906E+03  0.15294330000E+03 0. -1.
<mgrwt>
<rscale>  0 0.57273462E+03</rscale>
<asrwt>0</asrwt>
<pdfrwt beam="1">  1        1 0.69770202E-01 0.70849159E+03</pdfrwt>
<pdfrwt beam="2">  1       -1 0.10235119E+00 0.70849159E+03</pdfrwt>
<totfact> 0.46923465E+01</totfact>
</mgrwt>
</event>
<event>
 4    1  0.1111514E-007  0.6925830E+03  0.7818608E-02  0.1002948E+00
         -1   -1    0    0    0  501 -0.00000000000E+00  0.00000000000E+00  0.16895506157E+04  0.16895506157E+04  0.50400000000E-02 0.  1.
          1   -1    0    0  501    0  0.00000000000E+00 -0.00000000000E+00 -0.12461600229E+04  0.12461600229E+04  0.50400000000E-02 0. -1.
    8880023    1    1    2    0    0  0.74814869067E+02 -0.20065823612E+03  0.16032096631E+04  0.17464112982E+04  0.65864270000E+03 0.  1.
    8880022    1    1    2    0    0 -0.74814869067E+02  0.20065823612E+03 -0.11598190703E+04  0.11892993404E+04  0.15294330000E+03 0.  0.
<mgrwt>
<rscale>  0 0.54376145E+03</rscale>
<asrwt>0</asrwt>
<pdfrwt beam="1">  1        1 0.19171693E+00 0.69258299E+03</pdfrwt>
<pdfrwt beam="2">  1       -1 0.25993086E+00 0.69258299E+03</pdfrwt>
<totfact> 0.63679415E-01</totfact>
</mgrwt>
</event>
<event>
 4    1  0.1043382E-007  0.1353085E+04  0.7818608E-02  0.9021022E-01
          1   -1    0    0  501    0  0.00000000000E+00  0.00000000000E+00  0.33341851183E+04  0.33341851183E+04  0.50400000000E-02 0. -1.
         -1   -1    0    0    0  501 -0.00000000000E+00 -0.00000000000E+00 -0.52481901898E+03  0.52481901901E+03  0.50400000000E-02 0.  1.
    8880023    1    1    2    0    0  0.60063571570E+03 -0.10179714342E+04  0.20134310162E+04  0.24258490817E+04  0.65864270000E+03 0.  0.
    8880022    1    1    2    0    0 -0.60063571570E+03  0.10179714342E+04  0.79593508316E+03  0.14331550557E+04  0.15294330000E+03 0.  0.
<mgrwt>
<rscale>  0 0.13108288E+04</rscale>
<asrwt>0</asrwt>
<pdfrwt beam="1">  1        1 0.51295155E+00 0.13530851E+04</pdfrwt>
<pdfrwt beam="2">  1       -1 0.80741389E-01 0.13530851E+04</pdfrwt>
<totfact> 0.50523794E-01</totfact>
</mgrwt>
</event>
<event>
 4    1  0.1043382E-007  0.7727096E+03  0.7818608E-02  0.9773250E-01
          1   -1    0    0  501    0  0.00000000000E+00  0.00000000000E+00  0.46720092556E+03  0.46720092559E+03  0.50400000000E-02 0. -1.
         -1   -1    0    0    0  501 -0.00000000000E+00 -0.00000000000E+00 -0.79436564534E+03  0.79436564536E+03  0.50400000000E-02 0.  1.
    8880023    1    1    2    0    0 -0.16488120955E+03  0.36889569453E+03 -0.29921810234E+03  0.82862025424E+03  0.65864270000E+03 0. -1.
    8880022    1    1    2    0    0  0.16488120955E+03 -0.36889569453E+03 -0.27946617443E+02  0.43294631670E+03  0.15294330000E+03 0.  0.
<mgrwt>
<rscale>  0 0.66818090E+03</rscale>
<asrwt>0</asrwt>
<pdfrwt beam="1">  1        1 0.71877066E-01 0.77270955E+03</pdfrwt>
<pdfrwt beam="2">  1       -1 0.12221010E+00 0.77270955E+03</pdfrwt>
<totfact> 0.29419855E+01</totfact>
</mgrwt>
</event>
<event>
 4    1  0.1043382E-007  0.6744226E+03  0.7818608E-02  0.1012673E+00
          1   -1    0    0  501    0  0.00000000000E+00  0.00000000000E+00  0.15927507550E+04  0.15927507550E+04  0.50400000000E-02 0. -1.
         -1   -1    0    0    0  501 -0.00000000000E+00 -0.00000000000E+00 -0.46567503099E+03  0.46567503102E+03  0.50400000000E-02 0.  1.
    8880023    1    1    2    0    0 -0.19303292909E+02 -0.14374619140E+03 -0.20881453663E+03  0.70600942036E+03  0.65864270000E+03 0.  1.
    8880022    1    1    2    0    0  0.19303292909E+02  0.14374619140E+03  0.13358902607E+04  0.13524163657E+04  0.15294330000E+03 0.  0.
<mgrwt>
<rscale>  0 0.50426083E+03</rscale>
<asrwt>0</asrwt>
<pdfrwt beam="1">  1        1 0.24503858E+00 0.67442256E+03</pdfrwt>
<pdfrwt beam="2">  1       -1 0.71642312E-01 0.67442256E+03</pdfrwt>
<totfact> 0.11671447E+01</totfact>
</mgrwt>
</event>
<event>
 4    1  0.1043382E-007  0.7703183E+03  0.7818608E-02  0.9779091E-01
         -1   -1    0    0    0  501 -0.00000000000E+00  0.00000000000E+00  0.35580139891E+03  0.35580139894E+03  0.50400000000E-02 0.  1.
          1   -1    0    0  501    0  0.00000000000E+00 -0.00000000000E+00 -0.12358577773E+04  0.12358577773E+04  0.50400000000E-02 0. -1.
    8880023    1    1    2    0    0  0.36673416423E+03 -0.15838615693E+03 -0.21298113724E+03  0.79921917707E+03  0.65864270000E+03 0.  0.
    8880022    1    1    2    0    0 -0.36673416423E+03  0.15838615693E+03 -0.66707524111E+03  0.79243999914E+03  0.15294330000E+03 0.  0.
<mgrwt>
<rscale>  0 0.66496791E+03</rscale>
<asrwt>0</asrwt>
<pdfrwt beam="1">  1        1 0.19013196E+00 0.77031833E+03</pdfrwt>
<pdfrwt beam="2">  1       -1 0.54738677E-01 0.77031833E+03</pdfrwt>
<totfact> 0.34808920E+01</totfact>
</mgrwt>
</event>
<event>
 4    1  0.1043382E-007  0.6763497E+03  0.7818608E-02  0.1011469E+00
         -1   -1    0    0    0  501 -0.00000000000E+00  0.00000000000E+00  0.30558603744E+03  0.30558603748E+03  0.50400000000E-02 0.  1.
          1   -1    0    0  501    0  0.00000000000E+00 -0.00000000000E+00 -0.12373151236E+04  0.12373151236E+04  0.50400000000E-02 0. -1.
    8880023    1    1    2    0    0  0.55969514344E+02 -0.14319964738E+03 -0.10041176671E+03  0.68376271813E+03  0.65864270000E+03 0.  1.
    8880022    1    1    2    0    0 -0.55969514344E+02  0.14319964738E+03 -0.83131731941E+03  0.85913844293E+03  0.15294330000E+03 0.  0.
<mgrwt>
<rscale>  0 0.50895079E+03</rscale>
<asrwt>0</asrwt>
<pdfrwt beam="1">  1        1 0.19035617E+00 0.67634971E+03</pdfrwt>
<pdfrwt beam="2">  1       -1 0.47013237E-01 0.67634971E+03</pdfrwt>
<totfact> 0.46851011E+01</totfact>
</mgrwt>
</event>
<event>
 4    1  0.1045914E-007  0.6963838E+03  0.7818608E-02  0.1001255E+00
         -1   -1    0    0    0  501 -0.00000000000E+00  0.00000000000E+00  0.72299100320E+03  0.72299100322E+03  0.50400000000E-02 0.  1.
          1   -1    0    0  501    0  0.00000000000E+00 -0.00000000000E+00 -0.15678967841E+04  0.15678967841E+04  0.50400000000E-02 0. -1.
    8880023    1    1    2    0    0 -0.39766617135E+02  0.22261801366E+03  0.53881320864E+03  0.88049420436E+03  0.65864270000E+03 0.  1.
    8880022    1    1    2    0    0  0.39766617135E+02 -0.22261801366E+03 -0.13837189896E+04  0.14103935830E+04  0.15294330000E+03 0.  0.
<mgrwt>
<rscale>  0 0.55103502E+03</rscale>
<asrwt>0</asrwt>
<pdfrwt beam="1">  1        1 0.24121489E+00 0.69638378E+03</pdfrwt>
<pdfrwt beam="2">  1       -1 0.11122939E+00 0.69638378E+03</pdfrwt>
<totfact> 0.45970416E+00</totfact>
</mgrwt>
</event>
<event>
 4    1  0.1043382E-007  0.7394522E+03  0.7818608E-02  0.9861546E-01
          1   -1    0    0  501    0  0.00000000000E+00  0.00000000000E+00  0.13201519171E+04  0.13201519171E+04  0.50400000000E-02 0. -1.
         -1   -1    0    0    0  501 -0.00000000000E+00 -0.00000000000E+00 -0.48907644057E+03  0.48907644060E+03  0.50400000000E-02 0.  1.
    8880023    1    1    2    0    0  0.30962053127E+03  0.13082257372E+03 -0.15565652017E+03  0.75565771201E+03  0.65864270000E+03 0.  1.
    8880022    1    1    2    0    0 -0.30962053127E+03 -0.13082257372E+03  0.98673199673E+03  0.10535706457E+04  0.15294330000E+03 0.  0.
<mgrwt>
<rscale>  0 0.62161700E+03</rscale>
<asrwt>0</asrwt>
<pdfrwt beam="1">  1        1 0.20310029E+00 0.73945225E+03</pdfrwt>
<pdfrwt beam="2">  1       -1 0.75242530E-01 0.73945225E+03</pdfrwt>
<totfact> 0.16085671E+01</totfact>
</mgrwt>
</event>
<event>
 4    1  0.1043382E-007  0.7532295E+03  0.7818608E-02  0.9822962E-01
          1   -1    0    0  501    0  0.00000000000E+00  0.00000000000E+00  0.13298595438E+04  0.13298595438E+04  0.50400000000E-02 0. -1.
         -1   -1    0    0    0  501 -0.00000000000E+00 -0.00000000000E+00 -0.27802220447E+03  0.27802220451E+03  0.50400000000E-02 0.  1.
    8880023    1    1    2    0    0 -0.98331590623E+02 -0.35195936795E+03  0.42080091512E+03  0.86280247730E+03  0.65864270000E+03 0.  0.
    8880022    1    1    2    0    0  0.98331590623E+02  0.35195936795E+03  0.63103642423E+03  0.74507927103E+03  0.15294330000E+03 0.  0.
<mgrwt>
<rscale>  0 0.64144714E+03</rscale>
<asrwt>0</asrwt>
<pdfrwt beam="1">  1        1 0.20459378E+00 0.75322952E+03</pdfrwt>
<pdfrwt beam="2">  1       -1 0.42772647E-01 0.75322952E+03</pdfrwt>
<totfact> 0.47591430E+01</totfact>
</mgrwt>
</event>
<event>
 4    1  0.1043382E-007  0.7853033E+03  0.7818608E-02  0.9743524E-01
          1   -1    0    0  501    0  0.00000000000E+00  0.00000000000E+00  0.15843834439E+04  0.15843834439E+04  0.50400000000E-02 0. -1.
         -1   -1    0    0    0  501 -0.00000000000E+00 -0.00000000000E+00 -0.71466487000E+03  0.71466487002E+03  0.50400000000E-02 0.  1.
    8880023    1    1    2    0    0  0.29472308099E+03 -0.30988599173E+03 -0.44879685791E+03  0.90449977793E+03  0.65864270000E+03 0.  1.
    8880022    1    1    2    0    0 -0.29472308099E+03  0.30988599173E+03  0.13185154318E+04  0.13945485360E+04  0.15294330000E+03 0.  0.
<mgrwt>
<rscale>  0 0.68483492E+03</rscale>
<asrwt>0</asrwt>
<pdfrwt beam="1">  1        1 0.24375130E+00 0.78530327E+03</pdfrwt>
<pdfrwt beam="2">  1       -1 0.10994844E+00 0.78530327E+03</pdfrwt>
<totfact> 0.45342012E+00</totfact>
</mgrwt>
</event>
<event>
 4    1  0.1043382E-007  0.8714084E+03  0.7818608E-02  0.9573584E-01
          1   -1    0    0  501    0  0.00000000000E+00  0.00000000000E+00  0.36293559276E+04  0.36293559276E+04  0.50400000000E-02 0. -1.
         -1   -1    0    0    0  501 -0.00000000000E+00 -0.00000000000E+00 -0.22482920717E+03  0.22482920722E+03  0.50400000000E-02 0.  1.
    8880023    1    1    2    0    0 -0.40559234273E+03 -0.40129455226E+03  0.79809660568E+03  0.11816559840E+04  0.65864270000E+03 0.  0.
    8880022    1    1    2    0    0  0.40559234273E+03  0.40129455226E+03  0.26064301148E+04  0.26725291509E+04  0.15294330000E+03 0.  0.
<mgrwt>
<rscale>  0 0.79069547E+03</rscale>
<asrwt>0</asrwt>
<pdfrwt beam="1">  1        1 0.55836243E+00 0.87140844E+03</pdfrwt>
<pdfrwt beam="2">  1       -1 0.34589110E-01 0.87140844E+03</pdfrwt>
<totfact> 0.16618250E+00</totfact>
</mgrwt>
</event>
<event>
 4    1  0.1043382E-007  0.7409018E+03  0.7818608E-02  0.9857328E-01
          1   -1    0    0  501    0  0.00000000000E+00  0.00000000000E+00  0.36827203663E+04  0.36827203663E+04  0.50400000000E-02 0. -1.
         -1   -1    0    0    0  501 -0.00000000000E+00 -0.00000000000E+00 -0.39257479409E+03  0.39257479413E+03  0.50400000000E-02 0.  1.
    8880023    1    1    2    0    0  0.14242095812E+03  0.30796355247E+03 -0.23050997936E+02  0.74126030093E+03  0.65864270000E+03 0.  1.
    8880022    1    1    2    0    0 -0.14242095812E+03 -0.30796355247E+03  0.33131965701E+04  0.33340348595E+04  0.15294330000E+03 0.  0.
<mgrwt>
<rscale>  0 0.62374682E+03</rscale>
<asrwt>0</asrwt>
<pdfrwt beam="1">  1        1 0.56657240E+00 0.74090181E+03</pdfrwt>
<pdfrwt beam="2">  1       -1 0.60396119E-01 0.74090181E+03</pdfrwt>
<totfact> 0.54659899E-01</totfact>
</mgrwt>
</event>
<event>
 4    1  0.1043382E-007  0.6791998E+03  0.7818608E-02  0.1009780E+00
         -1   -1    0    0    0  501 -0.00000000000E+00  0.00000000000E+00  0.34720217618E+03  0.34720217622E+03  0.50400000000E-02 0.  1.
          1   -1    0    0  501    0  0.00000000000E+00 -0.00000000000E+00 -0.12034943298E+04  0.12034943298E+04  0.50400000000E-02 0. -1.
    8880023    1    1    2    0    0  0.13659073194E+03 -0.94048357578E+02 -0.14664619518E+02  0.67935806387E+03  0.65864270000E+03 0.  1.
    8880022    1    1    2    0    0 -0.13659073194E+03  0.94048357578E+02 -0.84162753409E+03  0.87133844215E+03  0.15294330000E+03 0.  0.
<mgrwt>
<rscale>  0 0.51562175E+03</rscale>
<asrwt>0</asrwt>
<pdfrwt beam="1">  1        1 0.18515297E+00 0.67919977E+03</pdfrwt>
<pdfrwt beam="2">  1       -1 0.53415720E-01 0.67919977E+03</pdfrwt>
<totfact> 0.38901384E+01</totfact>
</mgrwt>
</event>
<event>
 4    1  0.1043382E-007  0.6599037E+03  0.7818608E-02  0.1024255E+00
          1   -1    0    0  501    0  0.00000000000E+00  0.00000000000E+00  0.26313529743E+04  0.26313529743E+04  0.50400000000E-02 0. -1.
         -1   -1    0    0    0  501 -0.00000000000E+00 -0.00000000000E+00 -0.16331929147E+03  0.16331929155E+03  0.50400000000E-02 0.  1.
    8880023    1    1    2    0    0  0.96135805814E+01  0.39626986511E+02  0.51985168376E+03  0.84007065081E+03  0.65864270000E+03 0.  0.
    8880022    1    1    2    0    0 -0.96135805814E+01 -0.39626986511E+02  0.19481819991E+04  0.19546016150E+04  0.15294330000E+03 0.  0.
<mgrwt>
<rscale>  0 0.46181802E+03</rscale>
<asrwt>0</asrwt>
<pdfrwt beam="1">  1        1 0.40482352E+00 0.65990372E+03</pdfrwt>
<pdfrwt beam="2">  1       -1 0.25126046E-01 0.65990372E+03</pdfrwt>
<totfact> 0.16255581E+01</totfact>
</mgrwt>
</event>
<event>
 4    1  0.1043382E-007  0.1198810E+04  0.7818608E-02  0.9158280E-01
         -1   -1    0    0    0  501 -0.00000000000E+00  0.00000000000E+00  0.83356910965E+03  0.83356910967E+03  0.50400000000E-02 0.  1.
          1   -1    0    0  501    0  0.00000000000E+00 -0.00000000000E+00 -0.15204732982E+04  0.15204732982E+04  0.50400000000E-02 0. -1.
    8880023    1    1    2    0    0 -0.99772207743E+02 -0.99668530150E+03 -0.15247702411E+03  0.12084682589E+04  0.65864270000E+03 0.  0.
    8880022    1    1    2    0    0  0.99772207743E+02  0.99668530150E+03 -0.53442716445E+03  0.11455741490E+04  0.15294330000E+03 0.  0.
<mgrwt>
<rscale>  0 0.11494624E+04</rscale>
<asrwt>0</asrwt>
<pdfrwt beam="1">  1        1 0.23391897E+00 0.11988104E+04</pdfrwt>
<pdfrwt beam="2">  1       -1 0.12824140E+00 0.11988104E+04</pdfrwt>
<totfact> 0.32646864E+00</totfact>
</mgrwt>
</event>
<event>
 4    1  0.1043382E-007  0.1130367E+04  0.7818608E-02  0.9227977E-01
         -1   -1    0    0    0  501 -0.00000000000E+00  0.00000000000E+00  0.85466147440E+03  0.85466147441E+03  0.50400000000E-02 0.  1.
          1   -1    0    0  501    0  0.00000000000E+00 -0.00000000000E+00 -0.17713274921E+04  0.17713274921E+04  0.50400000000E-02 0. -1.
    8880023    1    1    2    0    0  0.42329664858E+03  0.81531501360E+03 -0.12039103191E+04  0.16514020972E+04  0.65864270000E+03 0.  0.
    8880022    1    1    2    0    0 -0.42329664858E+03 -0.81531501360E+03  0.28724430137E+03  0.97458686929E+03  0.15294330000E+03 0.  0.
<mgrwt>
<rscale>  0 0.10769271E+04</rscale>
<asrwt>0</asrwt>
<pdfrwt beam="1">  1        1 0.27251192E+00 0.11303667E+04</pdfrwt>
<pdfrwt beam="2">  1       -1 0.13148638E+00 0.11303667E+04</pdfrwt>
<totfact> 0.20806852E+00</totfact>
</mgrwt>
</event>
<event>
 4    1  0.1043382E-007  0.6694798E+03  0.7818608E-02  0.1016039E+00
          1   -1    0    0  501    0  0.00000000000E+00  0.00000000000E+00  0.19888030898E+04  0.19888030898E+04  0.50400000000E-02 0. -1.
         -1   -1    0    0    0  501 -0.00000000000E+00 -0.00000000000E+00 -0.28425948455E+03  0.28425948459E+03  0.50400000000E-02 0.  1.
    8880023    1    1    2    0    0  0.11554352446E+03 -0.32291208207E+02  0.12431569488E+03  0.68092409741E+03  0.65864270000E+03 0.  1.
    8880022    1    1    2    0    0 -0.11554352446E+03  0.32291208207E+02  0.15802279104E+04  0.15921384770E+04  0.15294330000E+03 0.  0.
<mgrwt>
<rscale>  0 0.49143670E+03</rscale>
<asrwt>0</asrwt>
<pdfrwt beam="1">  1        1 0.30596971E+00 0.66947982E+03</pdfrwt>
<pdfrwt beam="2">  1       -1 0.43732227E-01 0.66947982E+03</pdfrwt>
<totfact> 0.16531593E+01</totfact>
</mgrwt>
</event>
<event>
 4    1  0.1043382E-007  0.7554024E+03  0.7818608E-02  0.9817159E-01
         -1   -1    0    0    0  501 -0.00000000000E+00  0.00000000000E+00  0.31506445793E+03  0.31506445797E+03  0.50400000000E-02 0.  1.
          1   -1    0    0  501    0  0.00000000000E+00 -0.00000000000E+00 -0.12732021245E+04  0.12732021245E+04  0.50400000000E-02 0. -1.
    8880023    1    1    2    0    0  0.20455771525E+03 -0.30818620876E+03 -0.91371522536E+03  0.11855413605E+04  0.65864270000E+03 0. -1.
    8880022    1    1    2    0    0 -0.20455771525E+03  0.30818620876E+03 -0.44422441246E+02  0.40272522201E+03  0.15294330000E+03 0.  0.
<mgrwt>
<rscale>  0 0.64449777E+03</rscale>
<asrwt>0</asrwt>
<pdfrwt beam="1">  1        1 0.19587725E+00 0.75540241E+03</pdfrwt>
<pdfrwt beam="2">  1       -1 0.48471456E-01 0.75540241E+03</pdfrwt>
<totfact> 0.41340550E+01</totfact>
</mgrwt>
</event>
<event>
 4    1  0.1043382E-007  0.7738209E+03  0.7818608E-02  0.9770557E-01
          1   -1    0    0  501    0  0.00000000000E+00  0.00000000000E+00  0.28016766502E+03  0.28016766507E+03  0.50400000000E-02 0. -1.
         -1   -1    0    0    0  501 -0.00000000000E+00 -0.00000000000E+00 -0.17310182234E+04  0.17310182234E+04  0.50400000000E-02 0.  1.
    8880023    1    1    2    0    0  0.10286772238E+02  0.40605750435E+03 -0.13645042076E+04  0.15686524323E+04  0.65864270000E+03 0.  0.
    8880022    1    1    2    0    0 -0.10286772238E+02 -0.40605750435E+03 -0.86346350770E+02  0.44253345617E+03  0.15294330000E+03 0.  1.
<mgrwt>
<rscale>  0 0.66966827E+03</rscale>
<asrwt>0</asrwt>
<pdfrwt beam="1">  1        1 0.43102719E-01 0.77382086E+03</pdfrwt>
<pdfrwt beam="2">  1       -1 0.26631049E+00 0.77382086E+03</pdfrwt>
<totfact> 0.54285965E+00</totfact>
</mgrwt>
</event>
<event>
 4    1  0.1043382E-007  0.7424001E+03  0.7818608E-02  0.9853010E-01
          1   -1    0    0  501    0  0.00000000000E+00  0.00000000000E+00  0.19797838764E+04  0.19797838764E+04  0.50400000000E-02 0. -1.
         -1   -1    0    0    0  501 -0.00000000000E+00 -0.00000000000E+00 -0.23357015596E+03  0.23357015601E+03  0.50400000000E-02 0.  1.
    8880023    1    1    2    0    0  0.41749726510E+01  0.34253506600E+03  0.45957080209E+03  0.87313414218E+03  0.65864270000E+03 0.  0.
    8880022    1    1    2    0    0 -0.41749726510E+01 -0.34253506600E+03  0.12866429183E+04  0.13402198902E+04  0.15294330000E+03 0.  0.
<mgrwt>
<rscale>  0 0.62593676E+03</rscale>
<asrwt>0</asrwt>
<pdfrwt beam="1">  1        1 0.30458214E+00 0.74240010E+03</pdfrwt>
<pdfrwt beam="2">  1       -1 0.35933869E-01 0.74240010E+03</pdfrwt>
<totfact> 0.23679673E+01</totfact>
</mgrwt>
</event>
<event>
 4    1  0.1043382E-007  0.1230847E+04  0.7818608E-02  0.9127705E-01
          1   -1    0    0  501    0  0.00000000000E+00  0.00000000000E+00  0.12066582504E+04  0.12066582505E+04  0.50400000000E-02 0. -1.
         -1   -1    0    0    0  501 -0.00000000000E+00 -0.00000000000E+00 -0.13599568407E+04  0.13599568407E+04  0.50400000000E-02 0.  1.
    8880023    1    1    2    0    0 -0.76183139947E+02  0.10370008441E+04  0.50066797565E+03  0.13287788565E+04  0.65864270000E+03 0.  0.
    8880022    1    1    2    0    0  0.76183139947E+02 -0.10370008441E+04 -0.65396656587E+03  0.12378362346E+04  0.15294330000E+03 0.  0.
<mgrwt>
<rscale>  0 0.11831834E+04</rscale>
<asrwt>0</asrwt>
<pdfrwt beam="1">  1        1 0.18563973E+00 0.12308472E+04</pdfrwt>
<pdfrwt beam="2">  1       -1 0.20922413E+00 0.12308472E+04</pdfrwt>
<totfact> 0.13429389E+00</totfact>
</mgrwt>
</event>
<event>
 4    1  0.1043382E-007  0.7093117E+03  0.7818608E-02  0.9960566E-01
          1   -1    0    0  501    0  0.00000000000E+00  0.00000000000E+00  0.21093536331E+04  0.21093536331E+04  0.50400000000E-02 0. -1.
         -1   -1    0    0    0  501 -0.00000000000E+00 -0.00000000000E+00 -0.13039701992E+03  0.13039702001E+03  0.50400000000E-02 0.  1.
    8880023    1    1    2    0    0  0.13375306278E+03 -0.22676640041E+03  0.16237008026E+04  0.17718711535E+04  0.65864270000E+03 0.  0.
    8880022    1    1    2    0    0 -0.13375306278E+03  0.22676640041E+03  0.35525581064E+03  0.46787949963E+03  0.15294330000E+03 0.  0.
<mgrwt>
<rscale>  0 0.57413691E+03</rscale>
<asrwt>0</asrwt>
<pdfrwt beam="1">  1        1 0.32451593E+00 0.70931170E+03</pdfrwt>
<pdfrwt beam="2">  1       -1 0.20061081E-01 0.70931170E+03</pdfrwt>
<totfact> 0.53136439E+01</totfact>
</mgrwt>
</event>
<event>
 4    1  0.1043382E-007  0.7086075E+03  0.7818608E-02  0.9963209E-01
          1   -1    0    0  501    0  0.00000000000E+00  0.00000000000E+00  0.11061620864E+04  0.11061620864E+04  0.50400000000E-02 0. -1.
         -1   -1    0    0    0  501 -0.00000000000E+00 -0.00000000000E+00 -0.30495282398E+03  0.30495282403E+03  0.50400000000E-02 0.  1.
    8880023    1    1    2    0    0 -0.40281364667E+02 -0.25824742155E+03  0.19734846028E+03  0.73557524436E+03  0.65864270000E+03 0.  1.
    8880022    1    1    2    0    0  0.40281364667E+02  0.25824742155E+03  0.60386080214E+03  0.67553966608E+03  0.15294330000E+03 0.  0.
<mgrwt>
<rscale>  0 0.57293320E+03</rscale>
<asrwt>0</asrwt>
<pdfrwt beam="1">  1        1 0.17017878E+00 0.70860746E+03</pdfrwt>
<pdfrwt beam="2">  1       -1 0.46915819E-01 0.70860746E+03</pdfrwt>
<totfact> 0.58397956E+01</totfact>
</mgrwt>
</event>
<event>
 4    1  0.1043382E-007  0.8731060E+03  0.7818608E-02  0.9570663E-01
          1   -1    0    0  501    0  0.00000000000E+00  0.00000000000E+00  0.31213529067E+04  0.31213529067E+04  0.50400000000E-02 0. -1.
         -1   -1    0    0    0  501 -0.00000000000E+00 -0.00000000000E+00 -0.46615425396E+03  0.46615425399E+03  0.50400000000E-02 0.  1.
    8880023    1    1    2    0    0  0.28836552903E+03  0.49532740061E+03  0.28360006438E+04  0.29673580455E+04  0.65864270000E+03 0. -1.
    8880022    1    1    2    0    0 -0.28836552903E+03 -0.49532740061E+03 -0.18080199105E+03  0.62014911523E+03  0.15294330000E+03 0.  0.
<mgrwt>
<rscale>  0 0.79268741E+03</rscale>
<asrwt>0</asrwt>
<pdfrwt beam="1">  1        1 0.48020813E+00 0.87310602E+03</pdfrwt>
<pdfrwt beam="2">  1       -1 0.71716040E-01 0.87310602E+03</pdfrwt>
<totfact> 0.10068018E+00</totfact>
</mgrwt>
</event>
<event>
 4    1  0.1043382E-007  0.1152105E+04  0.7818608E-02  0.9205146E-01
          1   -1    0    0  501    0  0.00000000000E+00  0.00000000000E+00  0.16912801858E+04  0.16912801858E+04  0.50400000000E-02 0. -1.
         -1   -1    0    0    0  501 -0.00000000000E+00 -0.00000000000E+00 -0.14134414221E+04  0.14134414221E+04  0.50400000000E-02 0.  1.
    8880023    1    1    2    0    0  0.25154122302E+03 -0.91118807595E+03 -0.98784346495E+03  0.15176236734E+04  0.65864270000E+03 0.  1.
    8880022    1    1    2    0    0 -0.25154122302E+03  0.91118807595E+03  0.12656822286E+04  0.15870979344E+04  0.15294330000E+03 0.  0.
<mgrwt>
<rscale>  0 0.11000466E+04</rscale>
<asrwt>0</asrwt>
<pdfrwt beam="1">  1        1 0.26019695E+00 0.11521054E+04</pdfrwt>
<pdfrwt beam="2">  1       -1 0.21745253E+00 0.11521054E+04</pdfrwt>
<totfact> 0.54591019E-01</totfact>
</mgrwt>
</event>
<event>
 4    1  0.1043382E-007  0.8064884E+03  0.7818608E-02  0.9696939E-01
         -1   -1    0    0    0  501 -0.00000000000E+00  0.00000000000E+00  0.42993594308E+03  0.42993594311E+03  0.50400000000E-02 0.  1.
          1   -1    0    0  501    0  0.00000000000E+00 -0.00000000000E+00 -0.13616151631E+04  0.13616151631E+04  0.50400000000E-02 0. -1.
    8880023    1    1    2    0    0 -0.20114398505E+03  0.41970751968E+03 -0.81857184474E+02  0.81063191999E+03  0.65864270000E+03 0.  1.
    8880022    1    1    2    0    0  0.20114398505E+03 -0.41970751968E+03 -0.84982203552E+03  0.98091918621E+03  0.15294330000E+03 0.  0.
<mgrwt>
<rscale>  0 0.71199364E+03</rscale>
<asrwt>0</asrwt>
<pdfrwt beam="1">  1        1 0.20947925E+00 0.80648838E+03</pdfrwt>
<pdfrwt beam="2">  1       -1 0.66143992E-01 0.80648838E+03</pdfrwt>
<totfact> 0.19430570E+01</totfact>
</mgrwt>
</event>
<event>
 4    1  0.1043382E-007  0.6838211E+03  0.7818608E-02  0.1007240E+00
          1   -1    0    0  501    0  0.00000000000E+00  0.00000000000E+00  0.27150998625E+04  0.27150998625E+04  0.50400000000E-02 0. -1.
         -1   -1    0    0    0  501 -0.00000000000E+00 -0.00000000000E+00 -0.89233682323E+02  0.89233682465E+02  0.50400000000E-02 0.  1.
    8880023    1    1    2    0    0  0.14879782203E+03 -0.10798293177E+03  0.23040629028E+04  0.24033970066E+04  0.65864270000E+03 0. -1.
    8880022    1    1    2    0    0 -0.14879782203E+03  0.10798293177E+03  0.32180327742E+03  0.40093653833E+03  0.15294330000E+03 0.  0.
<mgrwt>
<rscale>  0 0.52586529E+03</rscale>
<asrwt>0</asrwt>
<pdfrwt beam="1">  1        1 0.41770758E+00 0.68382111E+03</pdfrwt>
<pdfrwt beam="2">  1       -1 0.13728262E-01 0.68382111E+03</pdfrwt>
<totfact> 0.38518302E+01</totfact>
</mgrwt>
</event>
<event>
 4    1  0.1043382E-007  0.6646588E+03  0.7818608E-02  0.1019821E+00
          1   -1    0    0  501    0  0.00000000000E+00  0.00000000000E+00  0.12050669748E+04  0.12050669748E+04  0.50400000000E-02 0. -1.
         -1   -1    0    0    0  501 -0.00000000000E+00 -0.00000000000E+00 -0.57684305331E+03  0.57684305333E+03  0.50400000000E-02 0.  1.
    8880023    1    1    2    0    0  0.88090116284E+02 -0.14184210598E+02 -0.37502103116E+03  0.76315924976E+03  0.65864270000E+03 0.  1.
    8880022    1    1    2    0    0 -0.88090116284E+02  0.14184210598E+02  0.10032449527E+04  0.10187507784E+04  0.15294330000E+03 0.  0.
<mgrwt>
<rscale>  0 0.47751107E+03</rscale>
<asrwt>0</asrwt>
<pdfrwt beam="1">  1        1 0.18539492E+00 0.66465876E+03</pdfrwt>
<pdfrwt beam="2">  1       -1 0.88745086E-01 0.66465876E+03</pdfrwt>
<totfact> 0.13806887E+01</totfact>
</mgrwt>
</event>
<event>
 4    1  0.1043382E-007  0.6683465E+03  0.7818608E-02  0.1016877E+00
          1   -1    0    0  501    0  0.00000000000E+00  0.00000000000E+00  0.27505855429E+04  0.27505855429E+04  0.50400000000E-02 0. -1.
         -1   -1    0    0    0  501 -0.00000000000E+00 -0.00000000000E+00 -0.77431939129E+02  0.77431939293E+02  0.50400000000E-02 0.  1.
    8880023    1    1    2    0    0 -0.97025719172E+02  0.58845876855E+02  0.15371519750E+04  0.16761632462E+04  0.65864270000E+03 0.  1.
    8880022    1    1    2    0    0  0.97025719172E+02 -0.58845876855E+02  0.11360016287E+04  0.11518542360E+04  0.15294330000E+03 0.  0.
<mgrwt>
<rscale>  0 0.48830641E+03</rscale>
<asrwt>0</asrwt>
<pdfrwt beam="1">  1        1 0.42316699E+00 0.66834649E+03</pdfrwt>
<pdfrwt beam="2">  1       -1 0.11912606E-01 0.66834649E+03</pdfrwt>
<totfact> 0.45803458E+01</totfact>
</mgrwt>
</event>
<event>
 4    1  0.1043382E-007  0.1107479E+04  0.7818608E-02  0.9252775E-01
          1   -1    0    0  501    0  0.00000000000E+00  0.00000000000E+00  0.56832108006E+03  0.56832108008E+03  0.50400000000E-02 0. -1.
         -1   -1    0    0    0  501 -0.00000000000E+00 -0.00000000000E+00 -0.30015425253E+04  0.30015425253E+04  0.50400000000E-02 0.  1.
    8880023    1    1    2    0    0 -0.86140260845E+03  0.22513101028E+03 -0.24255865081E+04  0.26664543012E+04  0.65864270000E+03 0.  1.
    8880022    1    1    2    0    0  0.86140260845E+03 -0.22513101028E+03 -0.76349371100E+01  0.90340930420E+03  0.15294330000E+03 0.  0.
<mgrwt>
<rscale>  0 0.10524918E+04</rscale>
<asrwt>0</asrwt>
<pdfrwt beam="1">  1        1 0.87434014E-01 0.11074785E+04</pdfrwt>
<pdfrwt beam="2">  1       -1 0.46177576E+00 0.11074785E+04</pdfrwt>
<totfact> 0.10028266E-01</totfact>
</mgrwt>
</event>
<event>
 4    1  0.1043382E-007  0.6626249E+03  0.7818608E-02  0.1021615E+00
         -1   -1    0    0    0  501 -0.00000000000E+00  0.00000000000E+00  0.20452173248E+03  0.20452173254E+03  0.50400000000E-02 0.  1.
          1   -1    0    0  501    0  0.00000000000E+00 -0.00000000000E+00 -0.28920459249E+04  0.28920459249E+04  0.50400000000E-02 0. -1.
    8880023    1    1    2    0    0  0.32725622262E+02  0.64734923640E+02 -0.34336558301E+03  0.74630537084E+03  0.65864270000E+03 0.  1.
    8880022    1    1    2    0    0 -0.32725622262E+02 -0.64734923640E+02 -0.23441586094E+04  0.23502622866E+04  0.15294330000E+03 0.  0.
<mgrwt>
<rscale>  0 0.47108310E+03</rscale>
<asrwt>0</asrwt>
<pdfrwt beam="1">  1        1 0.44493011E+00 0.66262492E+03</pdfrwt>
<pdfrwt beam="2">  1       -1 0.31464884E-01 0.66262492E+03</pdfrwt>
<totfact> 0.72546201E+00</totfact>
</mgrwt>
</event>
<event>
 4    1  0.1043382E-007  0.7057884E+03  0.7818608E-02  0.9973986E-01
          1   -1    0    0  501    0  0.00000000000E+00  0.00000000000E+00  0.23184619305E+03  0.23184619310E+03  0.50400000000E-02 0. -1.
         -1   -1    0    0    0  501 -0.00000000000E+00 -0.00000000000E+00 -0.11170224577E+04  0.11170224577E+04  0.50400000000E-02 0.  1.
    8880023    1    1    2    0    0 -0.18604640435E+03 -0.17237683511E+03 -0.72642109282E+03  0.10128301181E+04  0.65864270000E+03 0.  0.
    8880022    1    1    2    0    0  0.18604640435E+03  0.17237683511E+03 -0.15875517185E+03  0.33603853270E+03  0.15294330000E+03 0.  0.
<mgrwt>
<rscale>  0 0.56805763E+03</rscale>
<asrwt>0</asrwt>
<pdfrwt beam="1">  1        1 0.35668646E-01 0.70578838E+03</pdfrwt>
<pdfrwt beam="2">  1       -1 0.17184961E+00 0.70578838E+03</pdfrwt>
<totfact> 0.30052400E+01</totfact>
</mgrwt>
</event>
<event>
 4    1  0.1043382E-007  0.6882723E+03  0.7818608E-02  0.1004985E+00
          1   -1    0    0  501    0  0.00000000000E+00  0.00000000000E+00  0.89087427568E+03  0.89087427569E+03  0.50400000000E-02 0. -1.
         -1   -1    0    0    0  501 -0.00000000000E+00 -0.00000000000E+00 -0.44554645850E+03  0.44554645853E+03  0.50400000000E-02 0.  1.
    8880023    1    1    2    0    0  0.19534413453E+03 -0.41823249767E+02 -0.13726168501E+03  0.70182582707E+03  0.65864270000E+03 0.  0.
    8880022    1    1    2    0    0 -0.19534413453E+03  0.41823249767E+02  0.58258950218E+03  0.63459490715E+03  0.15294330000E+03 0.  0.
<mgrwt>
<rscale>  0 0.53517499E+03</rscale>
<asrwt>0</asrwt>
<pdfrwt beam="1">  1        1 0.13705758E+00 0.68827227E+03</pdfrwt>
<pdfrwt beam="2">  1       -1 0.68545610E-01 0.68827227E+03</pdfrwt>
<totfact> 0.41124030E+01</totfact>
</mgrwt>
</event>
<event>
 4    1  0.1043382E-007  0.7972831E+03  0.7818608E-02  0.9716702E-01
         -1   -1    0    0    0  501 -0.00000000000E+00  0.00000000000E+00  0.29685926264E+03  0.29685926268E+03  0.50400000000E-02 0.  1.
          1   -1    0    0  501    0  0.00000000000E+00 -0.00000000000E+00 -0.32805733814E+04  0.32805733814E+04  0.50400000000E-02 0. -1.
    8880023    1    1    2    0    0  0.33994393215E+03  0.29374873645E+03 -0.29965233223E+03  0.85173465565E+03  0.65864270000E+03 0.  1.
    8880022    1    1    2    0    0 -0.33994393215E+03 -0.29374873645E+03 -0.26840617865E+04  0.27256979884E+04  0.15294330000E+03 0.  0.
<mgrwt>
<rscale>  0 0.70031039E+03</rscale>
<asrwt>0</asrwt>
<pdfrwt beam="1">  1        1 0.50470357E+00 0.79728314E+03</pdfrwt>
<pdfrwt beam="2">  1       -1 0.45670658E-01 0.79728314E+03</pdfrwt>
<totfact> 0.18850763E+00</totfact>
</mgrwt>
</event>
<event>
 4    1  0.1043382E-007  0.9560603E+03  0.7818608E-02  0.9441448E-01
          1   -1    0    0  501    0  0.00000000000E+00  0.00000000000E+00  0.11569001686E+04  0.11569001687E+04  0.50400000000E-02 0. -1.
         -1   -1    0    0    0  501 -0.00000000000E+00 -0.00000000000E+00 -0.96373815938E+03  0.96373815939E+03  0.50400000000E-02 0.  1.
    8880023    1    1    2    0    0 -0.68476185350E+03 -0.10649985805E+03 -0.54185301581E+03  0.10989339893E+04  0.65864270000E+03 0.  1.
    8880022    1    1    2    0    0  0.68476185350E+03  0.10649985805E+03  0.73501502508E+03  0.10217043388E+04  0.15294330000E+03 0.  0.
<mgrwt>
<rscale>  0 0.88741790E+03</rscale>
<asrwt>0</asrwt>
<pdfrwt beam="1">  1        1 0.17798464E+00 0.95606026E+03</pdfrwt>
<pdfrwt beam="2">  1       -1 0.14826741E+00 0.95606026E+03</pdfrwt>
<totfact> 0.41741823E+00</totfact>
</mgrwt>
</event>
<event>
 4    1  0.1043382E-007  0.7059284E+03  0.7818608E-02  0.9973443E-01
         -1   -1    0    0    0  501 -0.00000000000E+00  0.00000000000E+00  0.24169692539E+03  0.24169692544E+03  0.50400000000E-02 0.  1.
          1   -1    0    0  501    0  0.00000000000E+00 -0.00000000000E+00 -0.11562789427E+04  0.11562789427E+04  0.50400000000E-02 0. -1.
    8880023    1    1    2    0    0 -0.13862041506E+03  0.21285934562E+03 -0.42028546529E+03  0.82156849933E+03  0.65864270000E+03 0.  1.
    8880022    1    1    2    0    0  0.13862041506E+03 -0.21285934562E+03 -0.49429655198E+03  0.57640736880E+03  0.15294330000E+03 0.  0.
<mgrwt>
<rscale>  0 0.56830204E+03</rscale>
<asrwt>0</asrwt>
<pdfrwt beam="1">  1        1 0.17788906E+00 0.70592841E+03</pdfrwt>
<pdfrwt beam="2">  1       -1 0.37184143E-01 0.70592841E+03</pdfrwt>
<totfact> 0.82118473E+01</totfact>
</mgrwt>
</event>
<event>
 4    1  0.1043382E-007  0.7224456E+03  0.7818608E-02  0.9914396E-01
          1   -1    0    0  501    0  0.00000000000E+00  0.00000000000E+00  0.63562171454E+03  0.63562171456E+03  0.50400000000E-02 0. -1.
         -1   -1    0    0    0  501 -0.00000000000E+00 -0.00000000000E+00 -0.24818817208E+04  0.24818817208E+04  0.50400000000E-02 0.  1.
    8880023    1    1    2    0    0 -0.18222802780E+03  0.23432967696E+03 -0.23803753425E+04  0.24875920946E+04  0.65864270000E+03 0.  1.
    8880022    1    1    2    0    0  0.18222802780E+03 -0.23432967696E+03  0.53411533633E+03  0.62991134069E+03  0.15294330000E+03 0.  0.
<mgrwt>
<rscale>  0 0.59568636E+03</rscale>
<asrwt>0</asrwt>
<pdfrwt beam="1">  1        1 0.97787958E-01 0.72244561E+03</pdfrwt>
<pdfrwt beam="2">  1       -1 0.38182795E+00 0.72244561E+03</pdfrwt>
<totfact> 0.32321793E-01</totfact>
</mgrwt>
</event>
<event>
 4    1  0.1043382E-007  0.7851011E+03  0.7818608E-02  0.9743988E-01
          1   -1    0    0  501    0  0.00000000000E+00  0.00000000000E+00  0.49607219612E+03  0.49607219614E+03  0.50400000000E-02 0. -1.
         -1   -1    0    0    0  501 -0.00000000000E+00 -0.00000000000E+00 -0.13378634440E+04  0.13378634440E+04  0.50400000000E-02 0.  1.
    8880023    1    1    2    0    0 -0.40006946846E+03  0.15005980375E+03 -0.10690604967E+04  0.13263762950E+04  0.65864270000E+03 0. -1.
    8880022    1    1    2    0    0  0.40006946846E+03 -0.15005980375E+03  0.22726924881E+03  0.50755934507E+03  0.15294330000E+03 0.  0.
<mgrwt>
<rscale>  0 0.68457087E+03</rscale>
<asrwt>0</asrwt>
<pdfrwt beam="1">  1        1 0.76318800E-01 0.78510110E+03</pdfrwt>
<pdfrwt beam="2">  1       -1 0.20582514E+00 0.78510110E+03</pdfrwt>
<totfact> 0.63344928E+00</totfact>
</mgrwt>
</event>
<event>
 4    1  0.1043382E-007  0.6862761E+03  0.7818608E-02  0.1005975E+00
          1   -1    0    0  501    0  0.00000000000E+00  0.00000000000E+00  0.13393187595E+04  0.13393187595E+04  0.50400000000E-02 0. -1.
         -1   -1    0    0    0  501 -0.00000000000E+00 -0.00000000000E+00 -0.21808076879E+03  0.21808076885E+03  0.50400000000E-02 0.  1.
    8880023    1    1    2    0    0 -0.15577257176E+03 -0.11357625496E+03  0.39775507563E+03  0.79321117381E+03  0.65864270000E+03 0.  1.
    8880022    1    1    2    0    0  0.15577257176E+03  0.11357625496E+03  0.72348291507E+03  0.76418835454E+03  0.15294330000E+03 0.  0.
<mgrwt>
<rscale>  0 0.53106059E+03</rscale>
<asrwt>0</asrwt>
<pdfrwt beam="1">  1        1 0.20604904E+00 0.68627609E+03</pdfrwt>
<pdfrwt beam="2">  1       -1 0.33550887E-01 0.68627609E+03</pdfrwt>
<totfact> 0.73121998E+01</totfact>
</mgrwt>
</event>
<event>
 4    1  0.1043382E-007  0.6716055E+03  0.7818608E-02  0.1014537E+00
          1   -1    0    0  501    0  0.00000000000E+00  0.00000000000E+00  0.12997556357E+04  0.12997556358E+04  0.50400000000E-02 0. -1.
         -1   -1    0    0    0  501 -0.00000000000E+00 -0.00000000000E+00 -0.15534544391E+03  0.15534544399E+03  0.50400000000E-02 0.  1.
    8880023    1    1    2    0    0  0.12693036924E+03 -0.33652275408E+02  0.71630207213E+03  0.98190766321E+03  0.65864270000E+03 0.  0.
    8880022    1    1    2    0    0 -0.12693036924E+03  0.33652275408E+02  0.42810811971E+03  0.47319341653E+03  0.15294330000E+03 0.  0.
<mgrwt>
<rscale>  0 0.49710580E+03</rscale>
<asrwt>0</asrwt>
<pdfrwt beam="1">  1        1 0.19996241E+00 0.67160554E+03</pdfrwt>
<pdfrwt beam="2">  1       -1 0.23899298E-01 0.67160554E+03</pdfrwt>
<totfact> 0.14031046E+02</totfact>
</mgrwt>
</event>
<event>
 4    1  0.1043382E-007  0.7884212E+03  0.7818608E-02  0.9736415E-01
          1   -1    0    0  501    0  0.00000000000E+00  0.00000000000E+00  0.34434294076E+04  0.34434294076E+04  0.50400000000E-02 0. -1.
         -1   -1    0    0    0  501 -0.00000000000E+00 -0.00000000000E+00 -0.11394759169E+03  0.11394759180E+03  0.50400000000E-02 0.  1.
    8880023    1    1    2    0    0 -0.42899485977E+03  0.61329151379E+02  0.22503990996E+04  0.23845134028E+04  0.65864270000E+03 0. -1.
    8880022    1    1    2    0    0  0.42899485977E+03 -0.61329151379E+02  0.10790827163E+04  0.11728635966E+04  0.15294330000E+03 0.  1.
<mgrwt>
<rscale>  0 0.68889460E+03</rscale>
<asrwt>0</asrwt>
<pdfrwt beam="1">  1        1 0.52975835E+00 0.78842125E+03</pdfrwt>
<pdfrwt beam="2">  1       -1 0.17530400E-01 0.78842125E+03</pdfrwt>
<totfact> 0.75257644E+00</totfact>
</mgrwt>
</event>
<event>
 4    1  0.1043382E-007  0.6772357E+03  0.7818608E-02  0.1010933E+00
          1   -1    0    0  501    0  0.00000000000E+00  0.00000000000E+00  0.90617706504E+03  0.90617706506E+03  0.50400000000E-02 0. -1.
         -1   -1    0    0    0  501 -0.00000000000E+00 -0.00000000000E+00 -0.40072419486E+03  0.40072419489E+03  0.50400000000E-02 0.  1.
    8880023    1    1    2    0    0 -0.15051533176E+03 -0.46724462571E+02 -0.79685821111E+02  0.68190767472E+03  0.65864270000E+03 0.  1.
    8880022    1    1    2    0    0  0.15051533176E+03  0.46724462571E+02  0.58513869130E+03  0.62499358522E+03  0.15294330000E+03 0.  0.
<mgrwt>
<rscale>  0 0.51105685E+03</rscale>
<asrwt>0</asrwt>
<pdfrwt beam="1">  1        1 0.13941185E+00 0.67723574E+03</pdfrwt>
<pdfrwt beam="2">  1       -1 0.61649878E-01 0.67723574E+03</pdfrwt>
<totfact> 0.49491016E+01</totfact>
</mgrwt>
</event>
<event>
 4    1  0.1043382E-007  0.7685427E+03  0.7818608E-02  0.9783473E-01
         -1   -1    0    0    0  501 -0.00000000000E+00  0.00000000000E+00  0.42275057825E+03  0.42275057828E+03  0.50400000000E-02 0.  1.
          1   -1    0    0  501    0  0.00000000000E+00 -0.00000000000E+00 -0.84997403762E+03  0.84997403763E+03  0.50400000000E-02 0. -1.
    8880023    1    1    2    0    0  0.24113585056E+03  0.31416752526E+03 -0.21477326606E+03  0.79798840495E+03  0.65864270000E+03 0.  1.
    8880022    1    1    2    0    0 -0.24113585056E+03 -0.31416752526E+03 -0.21245019331E+03  0.47473621097E+03  0.15294330000E+03 0.  1.
<mgrwt>
<rscale>  0 0.66257070E+03</rscale>
<asrwt>0</asrwt>
<pdfrwt beam="1">  1        1 0.13076524E+00 0.76854274E+03</pdfrwt>
<pdfrwt beam="2">  1       -1 0.65038550E-01 0.76854274E+03</pdfrwt>
<totfact> 0.49036619E+01</totfact>
</mgrwt>
</event>
<event>
 4    1  0.1043382E-007  0.6739986E+03  0.7818608E-02  0.1012945E+00
          1   -1    0    0  501    0  0.00000000000E+00  0.00000000000E+00  0.86491840987E+03  0.86491840989E+03  0.50400000000E-02 0. -1.
         -1   -1    0    0    0  501 -0.00000000000E+00 -0.00000000000E+00 -0.14529210086E+04  0.14529210086E+04  0.50400000000E-02 0.  1.
    8880023    1    1    2    0    0 -0.61283215535E+02  0.12926031683E+03 -0.13600485953E+04  0.15178953356E+04  0.65864270000E+03 0.  1.
    8880022    1    1    2    0    0  0.61283215535E+02 -0.12926031683E+03  0.77204599654E+03  0.79994408292E+03  0.15294330000E+03 0.  0.
<mgrwt>
<rscale>  0 0.50320768E+03</rscale>
<asrwt>0</asrwt>
<pdfrwt beam="1">  1        1 0.13306437E+00 0.67399857E+03</pdfrwt>
<pdfrwt beam="2">  1       -1 0.22352631E+00 0.67399857E+03</pdfrwt>
<totfact> 0.21474780E+00</totfact>
</mgrwt>
</event>
<event>
 4    1  0.1043382E-007  0.7437834E+03  0.7818608E-02  0.9849060E-01
         -1   -1    0    0    0  501 -0.00000000000E+00  0.00000000000E+00  0.12299030621E+04  0.12299030621E+04  0.50400000000E-02 0.  1.
          1   -1    0    0  501    0  0.00000000000E+00 -0.00000000000E+00 -0.33588876950E+03  0.33588876953E+03  0.50400000000E-02 0. -1.
    8880023    1    1    2    0    0  0.18310098888E+03 -0.29304877644E+03  0.92464660465E+03  0.11866697549E+04  0.65864270000E+03 0.  0.
    8880022    1    1    2    0    0 -0.18310098888E+03  0.29304877644E+03 -0.30632312036E+02  0.37912207673E+03  0.15294330000E+03 0.  0.
<mgrwt>
<rscale>  0 0.62794856E+03</rscale>
<asrwt>0</asrwt>
<pdfrwt beam="1">  1        1 0.51675195E-01 0.74378341E+03</pdfrwt>
<pdfrwt beam="2">  1       -1 0.18921586E+00 0.74378341E+03</pdfrwt>
<totfact> 0.13928273E+01</totfact>
</mgrwt>
</event>
<event>
 4    1  0.1043382E-007  0.8641726E+03  0.7818608E-02  0.9586184E-01
          1   -1    0    0  501    0  0.00000000000E+00  0.00000000000E+00  0.68895061731E+03  0.68895061733E+03  0.50400000000E-02 0. -1.
         -1   -1    0    0    0  501 -0.00000000000E+00 -0.00000000000E+00 -0.78325896562E+03  0.78325896564E+03  0.50400000000E-02 0.  1.
    8880023    1    1    2    0    0 -0.11842128500E+03 -0.54677270412E+03 -0.18887320054E+03  0.88457180763E+03  0.65864270000E+03 0.  1.
    8880022    1    1    2    0    0  0.11842128500E+03  0.54677270412E+03  0.94564852228E+02  0.58763777533E+03  0.15294330000E+03 0. -1.
<mgrwt>
<rscale>  0 0.78217408E+03</rscale>
<asrwt>0</asrwt>
<pdfrwt beam="1">  1        1 0.10599240E+00 0.86417255E+03</pdfrwt>
<pdfrwt beam="2">  1       -1 0.12050138E+00 0.86417255E+03</pdfrwt>
<totfact> 0.17359068E+01</totfact>
</mgrwt>
</event>
<event>
 4    1  0.1043382E-007  0.7919906E+03  0.7818608E-02  0.9728389E-01
         -1   -1    0    0    0  501 -0.00000000000E+00  0.00000000000E+00  0.81392410857E+03  0.81392410859E+03  0.50400000000E-02 0.  1.
          1   -1    0    0  501    0  0.00000000000E+00 -0.00000000000E+00 -0.17751260361E+04  0.17751260361E+04  0.50400000000E-02 0. -1.
    8880023    1    1    2    0    0 -0.33550574418E+03 -0.28438483979E+03  0.57830910378E+03  0.98065818065E+03  0.65864270000E+03 0.  1.
    8880022    1    1    2    0    0  0.33550574418E+03  0.28438483979E+03 -0.15395110313E+04  0.16083919641E+04  0.15294330000E+03 0.  0.
<mgrwt>
<rscale>  0 0.69351371E+03</rscale>
<asrwt>0</asrwt>
<pdfrwt beam="1">  1        1 0.27309631E+00 0.79199056E+03</pdfrwt>
<pdfrwt beam="2">  1       -1 0.12521909E+00 0.79199056E+03</pdfrwt>
<totfact> 0.24585811E+00</totfact>
</mgrwt>
</event>
<event>
 4    1  0.1043382E-007  0.9233958E+03  0.7818608E-02  0.9489472E-01
          1   -1    0    0  501    0  0.00000000000E+00  0.00000000000E+00  0.11834997955E+04  0.11834997955E+04  0.50400000000E-02 0. -1.
         -1   -1    0    0    0  501 -0.00000000000E+00 -0.00000000000E+00 -0.65822279807E+03  0.65822279809E+03  0.50400000000E-02 0.  1.
    8880023    1    1    2    0    0 -0.56411914558E+03 -0.31720524855E+03  0.69461753372E+03  0.11554883403E+04  0.65864270000E+03 0. -1.
    8880022    1    1    2    0    0  0.56411914558E+03  0.31720524855E+03 -0.16934053632E+03  0.68623425328E+03  0.15294330000E+03 0.  1.
<mgrwt>
<rscale>  0 0.85064494E+03</rscale>
<asrwt>0</asrwt>
<pdfrwt beam="1">  1        1 0.18207689E+00 0.92339579E+03</pdfrwt>
<pdfrwt beam="2">  1       -1 0.10126505E+00 0.92339579E+03</pdfrwt>
<totfact> 0.10294367E+01</totfact>
</mgrwt>
</event>
<event>
 4    1  0.1043382E-007  0.7070967E+03  0.7818608E-02  0.9968944E-01
         -1   -1    0    0    0  501 -0.00000000000E+00  0.00000000000E+00  0.21929538388E+03  0.21929538394E+03  0.50400000000E-02 0.  1.
          1   -1    0    0  501    0  0.00000000000E+00 -0.00000000000E+00 -0.11550732450E+04  0.11550732450E+04  0.50400000000E-02 0. -1.
    8880023    1    1    2    0    0  0.24408438147E+03 -0.81230051909E+02 -0.64463256163E+03  0.95683689958E+03  0.65864270000E+03 0.  0.
    8880022    1    1    2    0    0 -0.24408438147E+03  0.81230051909E+02 -0.29114529953E+03  0.41753172941E+03  0.15294330000E+03 0.  1.
<mgrwt>
<rscale>  0 0.57033195E+03</rscale>
<asrwt>0</asrwt>
<pdfrwt beam="1">  1        1 0.17770357E+00 0.70709668E+03</pdfrwt>
<pdfrwt beam="2">  1       -1 0.33737752E-01 0.70709668E+03</pdfrwt>
<totfact> 0.97850867E+01</totfact>
</mgrwt>
</event>
<event>
 4    1  0.1043382E-007  0.6671987E+03  0.7818608E-02  0.1017756E+00
          1   -1    0    0  501    0  0.00000000000E+00  0.00000000000E+00  0.11219838690E+04  0.11219838690E+04  0.50400000000E-02 0. -1.
         -1   -1    0    0    0  501 -0.00000000000E+00 -0.00000000000E+00 -0.28385468326E+03  0.28385468331E+03  0.50400000000E-02 0.  1.
    8880023    1    1    2    0    0 -0.90265180643E+02 -0.56534473668E+02  0.13799154028E+03  0.68131917704E+03  0.65864270000E+03 0.  1.
    8880022    1    1    2    0    0  0.90265180643E+02  0.56534473668E+02  0.70013764545E+03  0.72451937527E+03  0.15294330000E+03 0.  0.
<mgrwt>
<rscale>  0 0.48505196E+03</rscale>
<asrwt>0</asrwt>
<pdfrwt beam="1">  1        1 0.17261290E+00 0.66719874E+03</pdfrwt>
<pdfrwt beam="2">  1       -1 0.43669951E-01 0.66719874E+03</pdfrwt>
<totfact> 0.65215405E+01</totfact>
</mgrwt>
</event>
<event>
 4    1  0.1043382E-007  0.7539894E+03  0.7818608E-02  0.9820924E-01
         -1   -1    0    0    0  501 -0.00000000000E+00  0.00000000000E+00  0.34828705366E+03  0.34828705370E+03  0.50400000000E-02 0.  1.
          1   -1    0    0  501    0  0.00000000000E+00 -0.00000000000E+00 -0.28048109830E+04  0.28048109830E+04  0.50400000000E-02 0. -1.
    8880023    1    1    2    0    0  0.27213576114E+03 -0.24623561744E+03 -0.96875747589E+02  0.76018745617E+03  0.65864270000E+03 0.  0.
    8880022    1    1    2    0    0 -0.27213576114E+03  0.24623561744E+03 -0.23596481817E+04  0.23929105805E+04  0.15294330000E+03 0.  0.
<mgrwt>
<rscale>  0 0.64251619E+03</rscale>
<asrwt>0</asrwt>
<pdfrwt beam="1">  1        1 0.43150937E+00 0.75398943E+03</pdfrwt>
<pdfrwt beam="2">  1       -1 0.53582626E-01 0.75398943E+03</pdfrwt>
<totfact> 0.31002056E+00</totfact>
</mgrwt>
</event>
<event>
 4    1  0.1043382E-007  0.6633219E+03  0.7818608E-02  0.1020985E+00
         -1   -1    0    0    0  501 -0.00000000000E+00  0.00000000000E+00  0.96994222041E+02  0.96994222172E+02  0.50400000000E-02 0.  1.
          1   -1    0    0  501    0  0.00000000000E+00 -0.00000000000E+00 -0.24684893545E+04  0.24684893545E+04  0.50400000000E-02 0. -1.
    8880023    1    1    2    0    0  0.77346831614E+02 -0.14252966833E+02 -0.11158895013E+04  0.12981545612E+04  0.65864270000E+03 0.  1.
    8880022    1    1    2    0    0 -0.77346831614E+02  0.14252966833E+02 -0.12556056311E+04  0.12673290154E+04  0.15294330000E+03 0.  0.
<mgrwt>
<rscale>  0 0.47332899E+03</rscale>
<asrwt>0</asrwt>
<pdfrwt beam="1">  1        1 0.37976755E+00 0.66332186E+03</pdfrwt>
<pdfrwt beam="2">  1       -1 0.14922190E-01 0.66332186E+03</pdfrwt>
<totfact> 0.49833733E+01</totfact>
</mgrwt>
</event>
<event>
 4    1  0.1043382E-007  0.9863387E+03  0.7818608E-02  0.9399653E-01
         -1   -1    0    0    0  501 -0.00000000000E+00  0.00000000000E+00  0.13315456626E+04  0.13315456626E+04  0.50400000000E-02 0.  1.
          1   -1    0    0  501    0  0.00000000000E+00 -0.00000000000E+00 -0.56620318081E+03  0.56620318083E+03  0.50400000000E-02 0. -1.
    8880023    1    1    2    0    0 -0.72250858091E+03  0.13051889547E+03  0.45148482017E+03  0.10847592270E+04  0.65864270000E+03 0.  1.
    8880022    1    1    2    0    0  0.72250858091E+03 -0.13051889547E+03  0.31385766160E+03  0.81298961637E+03  0.15294330000E+03 0. -1.
<mgrwt>
<rscale>  0 0.92104237E+03</rscale>
<asrwt>0</asrwt>
<pdfrwt beam="1">  1        1 0.87108184E-01 0.98633870E+03</pdfrwt>
<pdfrwt beam="2">  1       -1 0.20485317E+00 0.98633870E+03</pdfrwt>
<totfact> 0.52198401E+00</totfact>
</mgrwt>
</event>
<event>
 4    1  0.1043382E-007  0.8481955E+03  0.7818608E-02  0.9614916E-01
         -1   -1    0    0    0  501 -0.00000000000E+00  0.00000000000E+00  0.53005841600E+03  0.53005841602E+03  0.50400000000E-02 0.  1.
          1   -1    0    0  501    0  0.00000000000E+00 -0.00000000000E+00 -0.15618698298E+04  0.15618698298E+04  0.50400000000E-02 0. -1.
    8880023    1    1    2    0    0  0.48924591545E+03  0.21509016752E+03  0.76888441243E+02  0.85167328513E+03  0.65864270000E+03 0.  1.
    8880022    1    1    2    0    0 -0.48924591545E+03 -0.21509016752E+03 -0.11086998551E+04  0.12402549607E+04  0.15294330000E+03 0.  0.
<mgrwt>
<rscale>  0 0.76316731E+03</rscale>
<asrwt>0</asrwt>
<pdfrwt beam="1">  1        1 0.24028766E+00 0.84819547E+03</pdfrwt>
<pdfrwt beam="2">  1       -1 0.81547449E-01 0.84819547E+03</pdfrwt>
<totfact> 0.90996636E+00</totfact>
</mgrwt>
</event>
<event>
 4    1  0.1043382E-007  0.7330496E+03  0.7818608E-02  0.9880676E-01
          1   -1    0    0  501    0  0.00000000000E+00  0.00000000000E+00  0.14072844073E+04  0.14072844073E+04  0.50400000000E-02 0. -1.
         -1   -1    0    0    0  501 -0.00000000000E+00 -0.00000000000E+00 -0.66886288068E+03  0.66886288070E+03  0.50400000000E-02 0.  1.
    8880023    1    1    2    0    0  0.27210198217E+03  0.17179077548E+03 -0.43324496205E+03  0.85150629043E+03  0.65864270000E+03 0.  1.
    8880022    1    1    2    0    0 -0.27210198217E+03 -0.17179077548E+03  0.11716664886E+04  0.12246409975E+04  0.15294330000E+03 0.  0.
<mgrwt>
<rscale>  0 0.61207018E+03</rscale>
<asrwt>0</asrwt>
<pdfrwt beam="1">  1        1 0.21650529E+00 0.73304963E+03</pdfrwt>
<pdfrwt beam="2">  1       -1 0.10290198E+00 0.73304963E+03</pdfrwt>
<totfact> 0.70574341E+00</totfact>
</mgrwt>
</event>
<event>
 4    1  0.1043382E-007  0.7695483E+03  0.7818608E-02  0.9780987E-01
          1   -1    0    0  501    0  0.00000000000E+00  0.00000000000E+00  0.18728325910E+04  0.18728325910E+04  0.50400000000E-02 0. -1.
         -1   -1    0    0    0  501 -0.00000000000E+00 -0.00000000000E+00 -0.40278087250E+03  0.40278087253E+03  0.50400000000E-02 0.  1.
    8880023    1    1    2    0    0 -0.24393148221E+03  0.31447059792E+03  0.26057917787E+02  0.76998931571E+03  0.65864270000E+03 0.  1.
    8880022    1    1    2    0    0  0.24393148221E+03 -0.31447059792E+03  0.14439938007E+04  0.15056241478E+04  0.15294330000E+03 0.  0.
<mgrwt>
<rscale>  0 0.66392947E+03</rscale>
<asrwt>0</asrwt>
<pdfrwt beam="1">  1        1 0.28812809E+00 0.76954826E+03</pdfrwt>
<pdfrwt beam="2">  1       -1 0.61966288E-01 0.76954826E+03</pdfrwt>
<totfact> 0.99942446E+00</totfact>
</mgrwt>
</event>
<event>
 4    1  0.1043382E-007  0.9798836E+03  0.7818608E-02  0.9408362E-01
          1   -1    0    0  501    0  0.00000000000E+00  0.00000000000E+00  0.11061626780E+04  0.11061626780E+04  0.50400000000E-02 0. -1.
         -1   -1    0    0    0  501 -0.00000000000E+00 -0.00000000000E+00 -0.74750126508E+03  0.74750126510E+03  0.50400000000E-02 0.  1.
    8880023    1    1    2    0    0  0.31245891891E+03 -0.65477563230E+03  0.49809524552E+03  0.10992137120E+04  0.65864270000E+03 0. -1.
    8880022    1    1    2    0    0 -0.31245891891E+03  0.65477563230E+03 -0.13943383258E+03  0.75445023119E+03  0.15294330000E+03 0.  0.
<mgrwt>
<rscale>  0 0.91390670E+03</rscale>
<asrwt>0</asrwt>
<pdfrwt beam="1">  1        1 0.17017887E+00 0.97988362E+03</pdfrwt>
<pdfrwt beam="2">  1       -1 0.11500019E+00 0.97988362E+03</pdfrwt>
<totfact> 0.86539535E+00</totfact>
</mgrwt>
</event>
<event>
 4    1  0.1043382E-007  0.1035984E+04  0.7818608E-02  0.9335923E-01
         -1   -1    0    0    0  501 -0.00000000000E+00  0.00000000000E+00  0.10520026749E+04  0.10520026749E+04  0.50400000000E-02 0.  1.
          1   -1    0    0  501    0  0.00000000000E+00 -0.00000000000E+00 -0.15239986659E+04  0.15239986659E+04  0.50400000000E-02 0. -1.
    8880023    1    1    2    0    0 -0.35711258618E+03  0.71548873725E+03  0.62498690500E+03  0.12099059344E+04  0.65864270000E+03 0.  0.
    8880022    1    1    2    0    0  0.35711258618E+03 -0.71548873725E+03 -0.10969828960E+04  0.13660954064E+04  0.15294330000E+03 0.  0.
<mgrwt>
<rscale>  0 0.97541950E+03</rscale>
<asrwt>0</asrwt>
<pdfrwt beam="1">  1        1 0.23446133E+00 0.10359844E+04</pdfrwt>
<pdfrwt beam="2">  1       -1 0.16184657E+00 0.10359844E+04</pdfrwt>
<totfact> 0.17833365E+00</totfact>
</mgrwt>
</event>
<event>
 4    1  0.1043382E-007  0.6918329E+03  0.7818608E-02  0.1003293E+00
          1   -1    0    0  501    0  0.00000000000E+00  0.00000000000E+00  0.42301738535E+03  0.42301738538E+03  0.50400000000E-02 0. -1.
         -1   -1    0    0    0  501 -0.00000000000E+00 -0.00000000000E+00 -0.13226668499E+04  0.13226668499E+04  0.50400000000E-02 0.  1.
    8880023    1    1    2    0    0  0.15194721144E+03 -0.14742665931E+03 -0.11766510130E+04  0.13649690061E+04  0.65864270000E+03 0.  1.
    8880022    1    1    2    0    0 -0.15194721144E+03  0.14742665931E+03  0.27700154840E+03  0.38071522923E+03  0.15294330000E+03 0.  0.
<mgrwt>
<rscale>  0 0.54229461E+03</rscale>
<asrwt>0</asrwt>
<pdfrwt beam="1">  1        1 0.65079598E-01 0.69183291E+03</pdfrwt>
<pdfrwt beam="2">  1       -1 0.20348721E+00 0.69183291E+03</pdfrwt>
<totfact> 0.82522235E+00</totfact>
</mgrwt>
</event>
<event>
 4    1  0.1043382E-007  0.1029220E+04  0.7818608E-02  0.9344290E-01
          1   -1    0    0  501    0  0.00000000000E+00  0.00000000000E+00  0.63725492742E+03  0.63725492744E+03  0.50400000000E-02 0. -1.
         -1   -1    0    0    0  501 -0.00000000000E+00 -0.00000000000E+00 -0.14458464116E+04  0.14458464116E+04  0.50400000000E-02 0.  1.
    8880023    1    1    2    0    0  0.50114780841E+03  0.61182813735E+03 -0.75375145777E+03  0.12757093172E+04  0.65864270000E+03 0.  0.
    8880022    1    1    2    0    0 -0.50114780841E+03 -0.61182813735E+03 -0.54840026436E+02  0.80739202191E+03  0.15294330000E+03 0.  0.
<mgrwt>
<rscale>  0 0.96805743E+03</rscale>
<asrwt>0</asrwt>
<pdfrwt beam="1">  1        1 0.98039220E-01 0.10292196E+04</pdfrwt>
<pdfrwt beam="2">  1       -1 0.22243791E+00 0.10292196E+04</pdfrwt>
<totfact> 0.33319299E+00</totfact>
</mgrwt>
</event>
<event>
 4    1  0.1043382E-007  0.7833087E+03  0.7818608E-02  0.9748121E-01
         -1   -1    0    0    0  501 -0.00000000000E+00  0.00000000000E+00  0.12020798529E+04  0.12020798529E+04  0.50400000000E-02 0.  1.
          1   -1    0    0  501    0  0.00000000000E+00 -0.00000000000E+00 -0.62282254741E+03  0.62282254743E+03  0.50400000000E-02 0. -1.
    8880023    1    1    2    0    0  0.38894163212E+03  0.16878013610E+03  0.95708469241E+03  0.12367633736E+04  0.65864270000E+03 0.  0.
    8880022    1    1    2    0    0 -0.38894163212E+03 -0.16878013610E+03 -0.37782738689E+03  0.58813902679E+03  0.15294330000E+03 0.  0.
<mgrwt>
<rscale>  0 0.68222540E+03</rscale>
<asrwt>0</asrwt>
<pdfrwt beam="1">  1        1 0.95818855E-01 0.78330871E+03</pdfrwt>
<pdfrwt beam="2">  1       -1 0.18493536E+00 0.78330871E+03</pdfrwt>
<totfact> 0.64058750E+00</totfact>
</mgrwt>
</event>
<event>
 4    1  0.1043382E-007  0.7518393E+03  0.7818608E-02  0.9826712E-01
          1   -1    0    0  501    0  0.00000000000E+00  0.00000000000E+00  0.26221428898E+04  0.26221428898E+04  0.50400000000E-02 0. -1.
         -1   -1    0    0    0  501 -0.00000000000E+00 -0.00000000000E+00 -0.41675704099E+03  0.41675704102E+03  0.50400000000E-02 0.  1.
    8880023    1    1    2    0    0 -0.18061338682E+03 -0.31437389129E+03 -0.46132875628E+02  0.75325333554E+03  0.65864270000E+03 0.  1.
    8880022    1    1    2    0    0  0.18061338682E+03  0.31437389129E+03  0.22515187244E+04  0.22856465953E+04  0.15294330000E+03 0.  0.
<mgrwt>
<rscale>  0 0.63948520E+03</rscale>
<asrwt>0</asrwt>
<pdfrwt beam="1">  1        1 0.40340659E+00 0.75183931E+03</pdfrwt>
<pdfrwt beam="2">  1       -1 0.64116469E-01 0.75183931E+03</pdfrwt>
<totfact> 0.29223675E+00</totfact>
</mgrwt>
</event>
<event>
 4    1  0.1043382E-007  0.6589127E+03  0.7818608E-02  0.1025299E+00
          1   -1    0    0  501    0  0.00000000000E+00  0.00000000000E+00  0.62084377823E+03  0.62084377825E+03  0.50400000000E-02 0. -1.
         -1   -1    0    0    0  501 -0.00000000000E+00 -0.00000000000E+00 -0.28198071778E+03  0.28198071783E+03  0.50400000000E-02 0.  1.
    8880023    1    1    2    0    0  0.13047534242E+02 -0.13622312211E+02  0.18347571082E+03  0.68398051746E+03  0.65864270000E+03 0.  1.
    8880022    1    1    2    0    0 -0.13047534242E+02  0.13622312211E+02  0.15538734963E+03  0.21884397862E+03  0.15294330000E+03 0.  0.
<mgrwt>
<rscale>  0 0.45821898E+03</rscale>
<asrwt>0</asrwt>
<pdfrwt beam="1">  1        1 0.95514426E-01 0.65891275E+03</pdfrwt>
<pdfrwt beam="2">  1       -1 0.43381649E-01 0.65891275E+03</pdfrwt>
<totfact> 0.17428195E+02</totfact>
</mgrwt>
</event>
<event>
 4    1  0.1043382E-007  0.8078473E+03  0.7818608E-02  0.9694079E-01
         -1   -1    0    0    0  501 -0.00000000000E+00  0.00000000000E+00  0.41235235631E+03  0.41235235634E+03  0.50400000000E-02 0.  1.
          1   -1    0    0  501    0  0.00000000000E+00 -0.00000000000E+00 -0.22307052820E+04  0.22307052820E+04  0.50400000000E-02 0. -1.
    8880023    1    1    2    0    0 -0.64896595936E+02  0.46324448758E+03 -0.52102490039E+02  0.80952572483E+03  0.65864270000E+03 0.  1.
    8880022    1    1    2    0    0  0.64896595936E+02 -0.46324448758E+03 -0.17662504357E+04  0.18335319135E+04  0.15294330000E+03 0.  0.
<mgrwt>
<rscale>  0 0.71370448E+03</rscale>
<asrwt>0</asrwt>
<pdfrwt beam="1">  1        1 0.34318542E+00 0.80784728E+03</pdfrwt>
<pdfrwt beam="2">  1       -1 0.63438826E-01 0.80784728E+03</pdfrwt>
<totfact> 0.54571565E+00</totfact>
</mgrwt>
</event>
<event>
 4    1  0.1043382E-007  0.9163852E+03  0.7818608E-02  0.9500224E-01
          1   -1    0    0  501    0  0.00000000000E+00  0.00000000000E+00  0.72238741602E+03  0.72238741604E+03  0.50400000000E-02 0. -1.
         -1   -1    0    0    0  501 -0.00000000000E+00 -0.00000000000E+00 -0.14284416866E+04  0.14284416866E+04  0.50400000000E-02 0.  1.
    8880023    1    1    2    0    0  0.63714141314E+03 -0.15614086058E+01 -0.10639696672E+04  0.14042055680E+04  0.65864270000E+03 0.  0.
    8880022    1    1    2    0    0 -0.63714141314E+03  0.15614086058E+01  0.35791539659E+03  0.74662353463E+03  0.15294330000E+03 0.  0.
<mgrwt>
<rscale>  0 0.84267310E+03</rscale>
<asrwt>0</asrwt>
<pdfrwt beam="1">  1        1 0.11113653E+00 0.91638519E+03</pdfrwt>
<pdfrwt beam="2">  1       -1 0.21976026E+00 0.91638519E+03</pdfrwt>
<totfact> 0.29134924E+00</totfact>
</mgrwt>
</event>
<event>
 4    1  0.1043382E-007  0.6950602E+03  0.7818608E-02  0.1001834E+00
          1   -1    0    0  501    0  0.00000000000E+00  0.00000000000E+00  0.18148335870E+03  0.18148335877E+03  0.50400000000E-02 0. -1.
         -1   -1    0    0    0  501 -0.00000000000E+00 -0.00000000000E+00 -0.26396442830E+04  0.26396442830E+04  0.50400000000E-02 0.  1.
    8880023    1    1    2    0    0 -0.18533560680E+03  0.12226689096E+03 -0.24550017613E+04  0.25514980568E+04  0.65864270000E+03 0.  1.
    8880022    1    1    2    0    0  0.18533560680E+03 -0.12226689096E+03 -0.31591630421E+01  0.26962958498E+03  0.15294330000E+03 0.  0.
<mgrwt>
<rscale>  0 0.54853109E+03</rscale>
<asrwt>0</asrwt>
<pdfrwt beam="1">  1        1 0.27920519E-01 0.69506020E+03</pdfrwt>
<pdfrwt beam="2">  1       -1 0.40609909E+00 0.69506020E+03</pdfrwt>
<totfact> 0.11803309E+00</totfact>
</mgrwt>
</event>
<event>
 4    1  0.1043382E-007  0.8269784E+03  0.7818608E-02  0.9655240E-01
         -1   -1    0    0    0  501 -0.00000000000E+00  0.00000000000E+00  0.80805203945E+03  0.80805203946E+03  0.50400000000E-02 0.  1.
          1   -1    0    0  501    0  0.00000000000E+00 -0.00000000000E+00 -0.10759579271E+04  0.10759579271E+04  0.50400000000E-02 0. -1.
    8880023    1    1    2    0    0 -0.44815786179E+03  0.22189531773E+03  0.49146336950E+03  0.96199243809E+03  0.65864270000E+03 0.  0.
    8880022    1    1    2    0    0  0.44815786179E+03 -0.22189531773E+03 -0.75936925716E+03  0.92201752850E+03  0.15294330000E+03 0.  0.
<mgrwt>
<rscale>  0 0.73745452E+03</rscale>
<asrwt>0</asrwt>
<pdfrwt beam="1">  1        1 0.16553199E+00 0.82697836E+03</pdfrwt>
<pdfrwt beam="2">  1       -1 0.12431570E+00 0.82697836E+03</pdfrwt>
<totfact> 0.76782110E+00</totfact>
</mgrwt>
</event>
<event>
 4    1  0.1043382E-007  0.6705895E+03  0.7818608E-02  0.1015244E+00
          1   -1    0    0  501    0  0.00000000000E+00  0.00000000000E+00  0.13685300407E+04  0.13685300407E+04  0.50400000000E-02 0. -1.
         -1   -1    0    0    0  501 -0.00000000000E+00 -0.00000000000E+00 -0.43463284254E+03  0.43463284257E+03  0.50400000000E-02 0.  1.
    8880023    1    1    2    0    0 -0.85789580383E+02 -0.92304716776E+02 -0.16168191365E+03  0.68980523360E+03  0.65864270000E+03 0.  1.
    8880022    1    1    2    0    0  0.85789580383E+02  0.92304716776E+02  0.10955791118E+04  0.11133576497E+04  0.15294330000E+03 0.  0.
<mgrwt>
<rscale>  0 0.49442732E+03</rscale>
<asrwt>0</asrwt>
<pdfrwt beam="1">  1        1 0.21054308E+00 0.67058946E+03</pdfrwt>
<pdfrwt beam="2">  1       -1 0.66866592E-01 0.67058946E+03</pdfrwt>
<totfact> 0.19140730E+01</totfact>
</mgrwt>
</event>
<event>
 4    1  0.1043382E-007  0.7382629E+03  0.7818608E-02  0.9865036E-01
         -1   -1    0    0    0  501 -0.00000000000E+00  0.00000000000E+00  0.21935827101E+04  0.21935827101E+04  0.50400000000E-02 0.  1.
          1   -1    0    0  501    0  0.00000000000E+00 -0.00000000000E+00 -0.43918103926E+03  0.43918103929E+03  0.50400000000E-02 0. -1.
    8880023    1    1    2    0    0  0.30674961658E+03 -0.13086827508E+03  0.20389283806E+04  0.21684697323E+04  0.65864270000E+03 0.  1.
    8880022    1    1    2    0    0 -0.30674961658E+03  0.13086827508E+03 -0.28452670975E+03  0.46429401705E+03  0.15294330000E+03 0.  0.
<mgrwt>
<rscale>  0 0.61986103E+03</rscale>
<asrwt>0</asrwt>
<pdfrwt beam="1">  1        1 0.67566314E-01 0.73826285E+03</pdfrwt>
<pdfrwt beam="2">  1       -1 0.33747426E+00 0.73826285E+03</pdfrwt>
<totfact> 0.10574190E+00</totfact>
</mgrwt>
</event>
<event>
 4    1  0.1043382E-007  0.6861789E+03  0.7818608E-02  0.1006024E+00
          1   -1    0    0  501    0  0.00000000000E+00  0.00000000000E+00  0.39106547264E+04  0.39106547264E+04  0.50400000000E-02 0. -1.
         -1   -1    0    0    0  501 -0.00000000000E+00 -0.00000000000E+00 -0.36679122928E+03  0.36679122932E+03  0.50400000000E-02 0.  1.
    8880023    1    1    2    0    0 -0.17910986203E+03  0.70363084433E+02 -0.37931119524E+02  0.68722651464E+03  0.65864270000E+03 0.  1.
    8880022    1    1    2    0    0  0.17910986203E+03 -0.70363084433E+02  0.35817946166E+04  0.35902194411E+04  0.15294330000E+03 0.  0.
<mgrwt>
<rscale>  0 0.53085789E+03</rscale>
<asrwt>0</asrwt>
<pdfrwt beam="1">  1        1 0.60163917E+00 0.68617892E+03</pdfrwt>
<pdfrwt beam="2">  1       -1 0.56429422E-01 0.68617892E+03</pdfrwt>
<totfact> 0.41172465E-01</totfact>
</mgrwt>
</event>
<event>
 4    1  0.1043382E-007  0.8072747E+03  0.7818608E-02  0.9695282E-01
         -1   -1    0    0    0  501 -0.00000000000E+00  0.00000000000E+00  0.39459082230E+03  0.39459082234E+03  0.50400000000E-02 0.  1.
          1   -1    0    0  501    0  0.00000000000E+00 -0.00000000000E+00 -0.14957661848E+04  0.14957661849E+04  0.50400000000E-02 0. -1.
    8880023    1    1    2    0    0 -0.44131454035E+03 -0.15206501243E+03 -0.15177845509E+03  0.82141901441E+03  0.65864270000E+03 0.  1.
    8880022    1    1    2    0    0  0.44131454035E+03  0.15206501243E+03 -0.94939690744E+03  0.10689379928E+04  0.15294330000E+03 0.  0.
<mgrwt>
<rscale>  0 0.71298407E+03</rscale>
<asrwt>0</asrwt>
<pdfrwt beam="1">  1        1 0.23011787E+00 0.80727474E+03</pdfrwt>
<pdfrwt beam="2">  1       -1 0.60706281E-01 0.80727474E+03</pdfrwt>
<totfact> 0.18619723E+01</totfact>
</mgrwt>
</event>
<event>
 4    1  0.1043382E-007  0.8849526E+03  0.7818608E-02  0.9550632E-01
         -1   -1    0    0    0  501 -0.00000000000E+00  0.00000000000E+00  0.29543412682E+04  0.29543412682E+04  0.50400000000E-02 0.  1.
          1   -1    0    0  501    0  0.00000000000E+00 -0.00000000000E+00 -0.25987620743E+03  0.25987620748E+03  0.50400000000E-02 0. -1.
    8880023    1    1    2    0    0  0.39554420087E+03 -0.43917616845E+03  0.23547630588E+04  0.25155616055E+04  0.65864270000E+03 0.  1.
    8880022    1    1    2    0    0 -0.39554420087E+03  0.43917616845E+03  0.33970200197E+03  0.69865587018E+03  0.15294330000E+03 0.  0.
<mgrwt>
<rscale>  0 0.80651644E+03</rscale>
<asrwt>0</asrwt>
<pdfrwt beam="1">  1        1 0.39980952E-01 0.88495261E+03</pdfrwt>
<pdfrwt beam="2">  1       -1 0.45451407E+00 0.88495261E+03</pdfrwt>
<totfact> 0.33277593E-01</totfact>
</mgrwt>
</event>
<event>
 4    1  0.1043382E-007  0.7593750E+03  0.7818608E-02  0.9806728E-01
         -1   -1    0    0    0  501 -0.00000000000E+00  0.00000000000E+00  0.26849486756E+03  0.26849486761E+03  0.50400000000E-02 0.  1.
          1   -1    0    0  501    0  0.00000000000E+00 -0.00000000000E+00 -0.17424511788E+04  0.17424511788E+04  0.50400000000E-02 0. -1.
    8880023    1    1    2    0    0  0.13630143470E+01 -0.37793954303E+03 -0.39171803627E+03  0.85445502058E+03  0.65864270000E+03 0.  1.
    8880022    1    1    2    0    0 -0.13630143470E+01  0.37793954303E+03 -0.10822382749E+04  0.11564910258E+04  0.15294330000E+03 0. -1.
<mgrwt>
<rscale>  0 0.65002713E+03</rscale>
<asrwt>0</asrwt>
<pdfrwt beam="1">  1        1 0.26806941E+00 0.75937498E+03</pdfrwt>
<pdfrwt beam="2">  1       -1 0.41306904E-01 0.75937498E+03</pdfrwt>
<totfact> 0.26475201E+01</totfact>
</mgrwt>
</event>
<event>
 4    1  0.1043382E-007  0.7268074E+03  0.7818608E-02  0.9900191E-01
          1   -1    0    0  501    0  0.00000000000E+00  0.00000000000E+00  0.92685159076E+03  0.92685159077E+03  0.50400000000E-02 0. -1.
         -1   -1    0    0    0  501 -0.00000000000E+00 -0.00000000000E+00 -0.75795434184E+03  0.75795434186E+03  0.50400000000E-02 0.  1.
    8880023    1    1    2    0    0 -0.28112433668E+03 -0.12412861245E+03 -0.53445547954E+03  0.90215944875E+03  0.65864270000E+03 0.  0.
    8880022    1    1    2    0    0  0.28112433668E+03  0.12412861245E+03  0.70335272845E+03  0.78264648388E+03  0.15294330000E+03 0.  0.
<mgrwt>
<rscale>  0 0.60252033E+03</rscale>
<asrwt>0</asrwt>
<pdfrwt beam="1">  1        1 0.14259255E+00 0.72680741E+03</pdfrwt>
<pdfrwt beam="2">  1       -1 0.11660836E+00 0.72680741E+03</pdfrwt>
<totfact> 0.11879110E+01</totfact>
</mgrwt>
</event>
<event>
 4    1  0.1043382E-007  0.7459236E+03  0.7818608E-02  0.9843016E-01
          1   -1    0    0  501    0  0.00000000000E+00  0.00000000000E+00  0.14813286965E+04  0.14813286965E+04  0.50400000000E-02 0. -1.
         -1   -1    0    0    0  501 -0.00000000000E+00 -0.00000000000E+00 -0.32358289854E+03  0.32358289858E+03  0.50400000000E-02 0.  1.
    8880023    1    1    2    0    0 -0.67715322321E+02  0.34352063876E+03  0.19777205544E+03  0.77169669321E+03  0.65864270000E+03 0.  0.
    8880022    1    1    2    0    0  0.67715322321E+02 -0.34352063876E+03  0.95997374252E+03  0.10332149019E+04  0.15294330000E+03 0.  0.
<mgrwt>
<rscale>  0 0.63104264E+03</rscale>
<asrwt>0</asrwt>
<pdfrwt beam="1">  1        1 0.22789673E+00 0.74592359E+03</pdfrwt>
<pdfrwt beam="2">  1       -1 0.49781984E-01 0.74592359E+03</pdfrwt>
<totfact> 0.28170535E+01</totfact>
</mgrwt>
</event>
<event>
 4    1  0.1043382E-007  0.7670492E+03  0.7818608E-02  0.9787188E-01
          1   -1    0    0  501    0  0.00000000000E+00  0.00000000000E+00  0.84723194629E+03  0.84723194630E+03  0.50400000000E-02 0. -1.
         -1   -1    0    0    0  501 -0.00000000000E+00 -0.00000000000E+00 -0.75157068446E+03  0.75157068448E+03  0.50400000000E-02 0.  1.
    8880023    1    1    2    0    0 -0.35414896394E+03 -0.17068327602E+03 -0.46513802902E+03  0.89706067893E+03  0.65864270000E+03 0.  1.
    8880022    1    1    2    0    0  0.35414896394E+03  0.17068327602E+03  0.56079929084E+03  0.70174195186E+03  0.15294330000E+03 0.  0.
<mgrwt>
<rscale>  0 0.66054654E+03</rscale>
<asrwt>0</asrwt>
<pdfrwt beam="1">  1        1 0.13034337E+00 0.76704920E+03</pdfrwt>
<pdfrwt beam="2">  1       -1 0.11562626E+00 0.76704920E+03</pdfrwt>
<totfact> 0.14016778E+01</totfact>
</mgrwt>
</event>
<event>
 4    1  0.1043382E-007  0.1086581E+04  0.7818608E-02  0.9276146E-01
         -1   -1    0    0    0  501 -0.00000000000E+00  0.00000000000E+00  0.61463840006E+03  0.61463840008E+03  0.50400000000E-02 0.  1.
          1   -1    0    0  501    0  0.00000000000E+00 -0.00000000000E+00 -0.19585846684E+04  0.19585846684E+04  0.50400000000E-02 0. -1.
    8880023    1    1    2    0    0 -0.65514306724E+03  0.56359134104E+03 -0.15823048822E+03  0.10980413161E+04  0.65864270000E+03 0.  1.
    8880022    1    1    2    0    0  0.65514306724E+03 -0.56359134104E+03 -0.11857157801E+04  0.14751817523E+04  0.15294330000E+03 0.  0.
<mgrwt>
<rscale>  0 0.10300890E+04</rscale>
<asrwt>0</asrwt>
<pdfrwt beam="1">  1        1 0.30132072E+00 0.10865808E+04</pdfrwt>
<pdfrwt beam="2">  1       -1 0.94559755E-01 0.10865808E+04</pdfrwt>
<totfact> 0.34382575E+00</totfact>
</mgrwt>
</event>
<event>
 4    1  0.1043382E-007  0.6640372E+03  0.7818608E-02  0.1020355E+00
         -1   -1    0    0    0  501 -0.00000000000E+00  0.00000000000E+00  0.44016865152E+03  0.44016865155E+03  0.50400000000E-02 0.  1.
          1   -1    0    0  501    0  0.00000000000E+00 -0.00000000000E+00 -0.13741067754E+04  0.13741067754E+04  0.50400000000E-02 0. -1.
    8880023    1    1    2    0    0 -0.81449583597E+02 -0.22386209590E+02  0.17897292053E+03  0.68773300749E+03  0.65864270000E+03 0.  1.
    8880022    1    1    2    0    0  0.81449583597E+02  0.22386209590E+02 -0.11129110444E+04  0.11265424195E+04  0.15294330000E+03 0.  0.
<mgrwt>
<rscale>  0 0.47558649E+03</rscale>
<asrwt>0</asrwt>
<pdfrwt beam="1">  1        1 0.21140104E+00 0.66403719E+03</pdfrwt>
<pdfrwt beam="2">  1       -1 0.67718255E-01 0.66403719E+03</pdfrwt>
<totfact> 0.18509378E+01</totfact>
</mgrwt>
</event>
<event>
 4    1  0.1043382E-007  0.6788522E+03  0.7818608E-02  0.1009981E+00
         -1   -1    0    0    0  501 -0.00000000000E+00  0.00000000000E+00  0.26645419182E+03  0.26645419187E+03  0.50400000000E-02 0.  1.
          1   -1    0    0  501    0  0.00000000000E+00 -0.00000000000E+00 -0.14137764996E+04  0.14137764996E+04  0.50400000000E-02 0. -1.
    8880023    1    1    2    0    0 -0.66404271354E+02  0.15040125920E+03 -0.20151057229E+03  0.70812907230E+03  0.65864270000E+03 0.  1.
    8880022    1    1    2    0    0  0.66404271354E+02 -0.15040125920E+03 -0.94581173546E+03  0.97210161915E+03  0.15294330000E+03 0.  0.
<mgrwt>
<rscale>  0 0.51482380E+03</rscale>
<asrwt>0</asrwt>
<pdfrwt beam="1">  1        1 0.21750407E+00 0.67885217E+03</pdfrwt>
<pdfrwt beam="2">  1       -1 0.40992953E-01 0.67885217E+03</pdfrwt>
<totfact> 0.45347163E+01</totfact>
</mgrwt>
</event>
<event>
 4    1  0.1043382E-007  0.6928868E+03  0.7818608E-02  0.1002810E+00
         -1   -1    0    0    0  501 -0.00000000000E+00  0.00000000000E+00  0.15959053079E+03  0.15959053087E+03  0.50400000000E-02 0.  1.
          1   -1    0    0  501    0  0.00000000000E+00 -0.00000000000E+00 -0.28000411841E+04  0.28000411841E+04  0.50400000000E-02 0. -1.
    8880023    1    1    2    0    0 -0.86000125242E+02  0.19719506424E+03 -0.26022599193E+04  0.26929256969E+04  0.65864270000E+03 0. -1.
    8880022    1    1    2    0    0  0.86000125242E+02 -0.19719506424E+03 -0.38190733951E+02  0.26670601807E+03  0.15294330000E+03 0.  0.
<mgrwt>
<rscale>  0 0.54435250E+03</rscale>
<asrwt>0</asrwt>
<pdfrwt beam="1">  1        1 0.43077553E+00 0.69288680E+03</pdfrwt>
<pdfrwt beam="2">  1       -1 0.24552392E-01 0.69288680E+03</pdfrwt>
<totfact> 0.12839380E+01</totfact>
</mgrwt>
</event>
<event>
 4    1  0.1043382E-007  0.9959967E+03  0.7818608E-02  0.9386814E-01
         -1   -1    0    0    0  501 -0.00000000000E+00  0.00000000000E+00  0.60902570801E+03  0.60902570803E+03  0.50400000000E-02 0.  1.
          1   -1    0    0  501    0  0.00000000000E+00 -0.00000000000E+00 -0.14385257922E+04  0.14385257922E+04  0.50400000000E-02 0. -1.
    8880023    1    1    2    0    0 -0.62981953811E+03 -0.40190375446E+03 -0.11517373390E+03  0.10026337685E+04  0.65864270000E+03 0.  0.
    8880022    1    1    2    0    0  0.62981953811E+03  0.40190375446E+03 -0.71432635032E+03  0.10449177318E+04  0.15294330000E+03 0.  0.
<mgrwt>
<rscale>  0 0.93168829E+03</rscale>
<asrwt>0</asrwt>
<pdfrwt beam="1">  1        1 0.22131166E+00 0.99599673E+03</pdfrwt>
<pdfrwt beam="2">  1       -1 0.93696263E-01 0.99599673E+03</pdfrwt>
<totfact> 0.80188263E+00</totfact>
</mgrwt>
</event>
<event>
 4    1  0.1043382E-007  0.6602713E+03  0.7818608E-02  0.1023880E+00
         -1   -1    0    0    0  501 -0.00000000000E+00  0.00000000000E+00  0.28330460046E+03  0.28330460051E+03  0.50400000000E-02 0.  1.
          1   -1    0    0  501    0  0.00000000000E+00 -0.00000000000E+00 -0.59353957217E+03  0.59353957219E+03  0.50400000000E-02 0. -1.
    8880023    1    1    2    0    0  0.43957772438E+02  0.14687337798E+02 -0.24611425813E+03  0.70464915949E+03  0.65864270000E+03 0.  0.
    8880022    1    1    2    0    0 -0.43957772438E+02 -0.14687337798E+02 -0.64120713576E+02  0.17219501321E+03  0.15294330000E+03 0. -1.
<mgrwt>
<rscale>  0 0.46312018E+03</rscale>
<asrwt>0</asrwt>
<pdfrwt beam="1">  1        1 0.91313780E-01 0.66027132E+03</pdfrwt>
<pdfrwt beam="2">  1       -1 0.43585323E-01 0.66027132E+03</pdfrwt>
<totfact> 0.18431474E+02</totfact>
</mgrwt>
</event>
<event>
 4    1  0.1043382E-007  0.8363752E+03  0.7818608E-02  0.9637053E-01
          1   -1    0    0  501    0  0.00000000000E+00  0.00000000000E+00  0.13917887320E+04  0.13917887321E+04  0.50400000000E-02 0. -1.
         -1   -1    0    0    0  501 -0.00000000000E+00 -0.00000000000E+00 -0.52511672816E+03  0.52511672818E+03  0.50400000000E-02 0.  1.
    8880023    1    1    2    0    0 -0.40218340561E+00  0.51547363682E+03 -0.67448134144E+02  0.83909039386E+03  0.65864270000E+03 0.  0.
    8880022    1    1    2    0    0  0.40218340561E+00 -0.51547363682E+03  0.93412013804E+03  0.10778150664E+04  0.15294330000E+03 0.  0.
<mgrwt>
<rscale>  0 0.74891543E+03</rscale>
<asrwt>0</asrwt>
<pdfrwt beam="1">  1        1 0.21412134E+00 0.83637518E+03</pdfrwt>
<pdfrwt beam="2">  1       -1 0.80787190E-01 0.83637518E+03</pdfrwt>
<totfact> 0.12179321E+01</totfact>
</mgrwt>
</event>
<event>
 4    1  0.1043382E-007  0.9092730E+03  0.7818608E-02  0.9511306E-01
          1   -1    0    0  501    0  0.00000000000E+00  0.00000000000E+00  0.24346169500E+04  0.24346169500E+04  0.50400000000E-02 0. -1.
         -1   -1    0    0    0  501 -0.00000000000E+00 -0.00000000000E+00 -0.25748280160E+03  0.25748280165E+03  0.50400000000E-02 0.  1.
    8880023    1    1    2    0    0  0.51976543533E+03 -0.35044416411E+03  0.10140163406E+04  0.13619862574E+04  0.65864270000E+03 0. -1.
    8880022    1    1    2    0    0 -0.51976543533E+03  0.35044416411E+03  0.11631178078E+04  0.13301134943E+04  0.15294330000E+03 0.  1.
<mgrwt>
<rscale>  0 0.83455355E+03</rscale>
<asrwt>0</asrwt>
<pdfrwt beam="1">  1        1 0.37455647E+00 0.90927302E+03</pdfrwt>
<pdfrwt beam="2">  1       -1 0.39612736E-01 0.90927302E+03</pdfrwt>
<totfact> 0.95869275E+00</totfact>
</mgrwt>
</event>
<event>
 4    1  0.1043382E-007  0.7027862E+03  0.7818608E-02  0.9985833E-01
         -1   -1    0    0    0  501 -0.00000000000E+00  0.00000000000E+00  0.18244525356E+03  0.18244525363E+03  0.50400000000E-02 0.  1.
          1   -1    0    0  501    0  0.00000000000E+00 -0.00000000000E+00 -0.23993203282E+04  0.23993203282E+04  0.50400000000E-02 0. -1.
    8880023    1    1    2    0    0  0.71356280389E+01 -0.24504561755E+03 -0.55650454214E+03  0.89644061909E+03  0.65864270000E+03 0.  0.
    8880022    1    1    2    0    0 -0.71356280389E+01  0.24504561755E+03 -0.16603705324E+04  0.16853249627E+04  0.15294330000E+03 0. -1.
<mgrwt>
<rscale>  0 0.56275802E+03</rscale>
<asrwt>0</asrwt>
<pdfrwt beam="1">  1        1 0.36912618E+00 0.70278623E+03</pdfrwt>
<pdfrwt beam="2">  1       -1 0.28068502E-01 0.70278623E+03</pdfrwt>
<totfact> 0.19218634E+01</totfact>
</mgrwt>
</event>
<event>
 4    1  0.1043382E-007  0.6671540E+03  0.7818608E-02  0.1017791E+00
         -1   -1    0    0    0  501 -0.00000000000E+00  0.00000000000E+00  0.30913288823E+03  0.30913288827E+03  0.50400000000E-02 0.  1.
          1   -1    0    0  501    0  0.00000000000E+00 -0.00000000000E+00 -0.72224390608E+03  0.72224390610E+03  0.50400000000E-02 0. -1.
    8880023    1    1    2    0    0  0.31400350841E+02  0.10148029623E+03 -0.11076464627E+03  0.67628636367E+03  0.65864270000E+03 0.  1.
    8880022    1    1    2    0    0 -0.31400350841E+02 -0.10148029623E+03 -0.30234637158E+03  0.35509043070E+03  0.15294330000E+03 0.  0.
<mgrwt>
<rscale>  0 0.48492325E+03</rscale>
<asrwt>0</asrwt>
<pdfrwt beam="1">  1        1 0.11111445E+00 0.66715398E+03</pdfrwt>
<pdfrwt beam="2">  1       -1 0.47558906E-01 0.66715398E+03</pdfrwt>
<totfact> 0.11731767E+02</totfact>
</mgrwt>
</event>
<event>
 4    1  0.1043382E-007  0.8204229E+03  0.7818608E-02  0.9668262E-01
          1   -1    0    0  501    0  0.00000000000E+00  0.00000000000E+00  0.69819207695E+03  0.69819207697E+03  0.50400000000E-02 0. -1.
         -1   -1    0    0    0  501 -0.00000000000E+00 -0.00000000000E+00 -0.10692965973E+04  0.10692965973E+04  0.50400000000E-02 0.  1.
    8880023    1    1    2    0    0  0.47398425931E+03  0.12092333790E+03 -0.76449169666E+03  0.11214014858E+04  0.65864270000E+03 0.  1.
    8880022    1    1    2    0    0 -0.47398425931E+03 -0.12092333790E+03  0.39338717629E+03  0.64608718855E+03  0.15294330000E+03 0.  0.
<mgrwt>
<rscale>  0 0.72938313E+03</rscale>
<asrwt>0</asrwt>
<pdfrwt beam="1">  1        1 0.10741417E+00 0.82042290E+03</pdfrwt>
<pdfrwt beam="2">  1       -1 0.16450717E+00 0.82042290E+03</pdfrwt>
<totfact> 0.75631579E+00</totfact>
</mgrwt>
</event>
<event>
 4    1  0.1043382E-007  0.8368911E+03  0.7818608E-02  0.9636070E-01
          1   -1    0    0  501    0  0.00000000000E+00  0.00000000000E+00  0.10499020919E+04  0.10499020919E+04  0.50400000000E-02 0. -1.
         -1   -1    0    0    0  501 -0.00000000000E+00 -0.00000000000E+00 -0.52629710555E+03  0.52629710558E+03  0.50400000000E-02 0.  1.
    8880023    1    1    2    0    0  0.27359004286E+03  0.43786409254E+03  0.17300721087E+02  0.83706988734E+03  0.65864270000E+03 0.  1.
    8880022    1    1    2    0    0 -0.27359004286E+03 -0.43786409254E+03  0.50630426526E+03  0.73912931015E+03  0.15294330000E+03 0.  0.
<mgrwt>
<rscale>  0 0.74954116E+03</rscale>
<asrwt>0</asrwt>
<pdfrwt beam="1">  1        1 0.16152340E+00 0.83689108E+03</pdfrwt>
<pdfrwt beam="2">  1       -1 0.80968786E-01 0.83689108E+03</pdfrwt>
<totfact> 0.21445585E+01</totfact>
</mgrwt>
</event>
<event>
 4    1  0.1043382E-007  0.7635011E+03  0.7818608E-02  0.9796126E-01
         -1   -1    0    0    0  501 -0.00000000000E+00  0.00000000000E+00  0.72152386272E+03  0.72152386273E+03  0.50400000000E-02 0.  1.
          1   -1    0    0  501    0  0.00000000000E+00 -0.00000000000E+00 -0.11254151107E+04  0.11254151107E+04  0.50400000000E-02 0. -1.
    8880023    1    1    2    0    0 -0.12867517487E+03 -0.36409668784E+03  0.45789573939E+03  0.89028220983E+03  0.65864270000E+03 0.  1.
    8880022    1    1    2    0    0  0.12867517487E+03  0.36409668784E+03 -0.86178698733E+03  0.95665676357E+03  0.15294330000E+03 0.  0.
<mgrwt>
<rscale>  0 0.65570835E+03</rscale>
<asrwt>0</asrwt>
<pdfrwt beam="1">  1        1 0.17314079E+00 0.76350108E+03</pdfrwt>
<pdfrwt beam="2">  1       -1 0.11100367E+00 0.76350108E+03</pdfrwt>
<totfact> 0.93545393E+00</totfact>
</mgrwt>
</event>
<event>
 4    1  0.1043382E-007  0.1358537E+04  0.7818608E-02  0.9016589E-01
         -1   -1    0    0    0  501 -0.00000000000E+00  0.00000000000E+00  0.77332925189E+03  0.77332925191E+03  0.50400000000E-02 0.  1.
          1   -1    0    0  501    0  0.00000000000E+00 -0.00000000000E+00 -0.22366777226E+04  0.22366777226E+04  0.50400000000E-02 0. -1.
    8880023    1    1    2    0    0  0.42498702922E+03 -0.11095937641E+04 -0.11284555640E+04  0.17660788382E+04  0.65864270000E+03 0.  0.
    8880022    1    1    2    0    0 -0.42498702922E+03  0.11095937641E+04 -0.33489290670E+03  0.12439281363E+04  0.15294330000E+03 0.  0.
<mgrwt>
<rscale>  0 0.13164907E+04</rscale>
<asrwt>0</asrwt>
<pdfrwt beam="1">  1        1 0.34410426E+00 0.13585369E+04</pdfrwt>
<pdfrwt beam="2">  1       -1 0.11897373E+00 0.13585369E+04</pdfrwt>
<totfact> 0.12585911E+00</totfact>
</mgrwt>
</event>
<event>
 4    1  0.1043382E-007  0.7105503E+03  0.7818608E-02  0.9955963E-01
         -1   -1    0    0    0  501 -0.00000000000E+00  0.00000000000E+00  0.56994542471E+03  0.56994542473E+03  0.50400000000E-02 0.  1.
          1   -1    0    0  501    0  0.00000000000E+00 -0.00000000000E+00 -0.61106888352E+03  0.61106888354E+03  0.50400000000E-02 0. -1.
    8880023    1    1    2    0    0  0.10217566954E+03  0.24623507433E+03  0.25432045119E+03  0.75469243897E+03  0.65864270000E+03 0.  1.
    8880022    1    1    2    0    0 -0.10217566954E+03 -0.24623507433E+03 -0.29544391000E+03  0.42632186930E+03  0.15294330000E+03 0.  0.
<mgrwt>
<rscale>  0 0.57624078E+03</rscale>
<asrwt>0</asrwt>
<pdfrwt beam="1">  1        1 0.94010597E-01 0.71055034E+03</pdfrwt>
<pdfrwt beam="2">  1       -1 0.87683912E-01 0.71055034E+03</pdfrwt>
<totfact> 0.43789279E+01</totfact>
</mgrwt>
</event>
<event>
 4    1  0.1043382E-007  0.9838892E+03  0.7818608E-02  0.9402946E-01
          1   -1    0    0  501    0  0.00000000000E+00  0.00000000000E+00  0.15776116758E+04  0.15776116758E+04  0.50400000000E-02 0. -1.
         -1   -1    0    0    0  501 -0.00000000000E+00 -0.00000000000E+00 -0.54678966793E+03  0.54678966796E+03  0.50400000000E-02 0.  1.
    8880023    1    1    2    0    0  0.41257453047E+03  0.60333248181E+03  0.19397984342E+03  0.10028291044E+04  0.65864270000E+03 0.  0.
    8880022    1    1    2    0    0 -0.41257453047E+03 -0.60333248181E+03  0.83684216441E+03  0.11215722393E+04  0.15294330000E+03 0.  1.
<mgrwt>
<rscale>  0 0.91833661E+03</rscale>
<asrwt>0</asrwt>
<pdfrwt beam="1">  1        1 0.24270949E+00 0.98388924E+03</pdfrwt>
<pdfrwt beam="2">  1       -1 0.84121487E-01 0.98388924E+03</pdfrwt>
<totfact> 0.81638035E+00</totfact>
</mgrwt>
</event>
<event>
 4    1  0.1043382E-007  0.7576102E+03  0.7818608E-02  0.9811334E-01
          1   -1    0    0  501    0  0.00000000000E+00  0.00000000000E+00  0.21344264272E+04  0.21344264272E+04  0.50400000000E-02 0. -1.
         -1   -1    0    0    0  501 -0.00000000000E+00 -0.00000000000E+00 -0.50142386355E+03  0.50142386357E+03  0.50400000000E-02 0.  1.
    8880023    1    1    2    0    0  0.20993003074E+03 -0.30998784605E+03 -0.17965989199E+03  0.77862119516E+03  0.65864270000E+03 0.  1.
    8880022    1    1    2    0    0 -0.20993003074E+03  0.30998784605E+03  0.18126624556E+04  0.18572290956E+04  0.15294330000E+03 0.  0.
<mgrwt>
<rscale>  0 0.64757828E+03</rscale>
<asrwt>0</asrwt>
<pdfrwt beam="1">  1        1 0.32837330E+00 0.75761025E+03</pdfrwt>
<pdfrwt beam="2">  1       -1 0.77142133E-01 0.75761025E+03</pdfrwt>
<totfact> 0.42789383E+00</totfact>
</mgrwt>
</event>
<event>
 4    1  0.1043382E-007  0.6843581E+03  0.7818608E-02  0.1006959E+00
         -1   -1    0    0    0  501 -0.00000000000E+00  0.00000000000E+00  0.12471681254E+04  0.12471681254E+04  0.50400000000E-02 0.  1.
          1   -1    0    0  501    0  0.00000000000E+00 -0.00000000000E+00 -0.38020622675E+03  0.38020622679E+03  0.50400000000E-02 0. -1.
    8880023    1    1    2    0    0 -0.18264711106E+03 -0.34289815193E+02  0.10979588657E+04  0.12937772743E+04  0.65864270000E+03 0.  1.
    8880022    1    1    2    0    0  0.18264711106E+03  0.34289815193E+02 -0.23099696700E+03  0.33359707790E+03  0.15294330000E+03 0.  0.
<mgrwt>
<rscale>  0 0.52701510E+03</rscale>
<asrwt>0</asrwt>
<pdfrwt beam="1">  1        1 0.58493266E-01 0.68435807E+03</pdfrwt>
<pdfrwt beam="2">  1       -1 0.19187202E+00 0.68435807E+03</pdfrwt>
<totfact> 0.11429861E+01</totfact>
</mgrwt>
</event>
<event>
 4    1  0.1043382E-007  0.8397971E+03  0.7818608E-02  0.9630563E-01
          1   -1    0    0  501    0  0.00000000000E+00  0.00000000000E+00  0.10274175432E+04  0.10274175432E+04  0.50400000000E-02 0. -1.
         -1   -1    0    0    0  501 -0.00000000000E+00 -0.00000000000E+00 -0.14233340363E+04  0.14233340363E+04  0.50400000000E-02 0.  1.
    8880023    1    1    2    0    0 -0.10099540730E+03 -0.51112517067E+03  0.78589363458E+03  0.11501686935E+04  0.65864270000E+03 0.  0.
    8880022    1    1    2    0    0  0.10099540730E+03  0.51112517067E+03 -0.11818101277E+04  0.13005828860E+04  0.15294330000E+03 0.  0.
<mgrwt>
<rscale>  0 0.75305936E+03</rscale>
<asrwt>0</asrwt>
<pdfrwt beam="1">  1        1 0.15806424E+00 0.83979713E+03</pdfrwt>
<pdfrwt beam="2">  1       -1 0.21897447E+00 0.83979713E+03</pdfrwt>
<totfact> 0.16588272E+00</totfact>
</mgrwt>
</event>
<event>
 4    1  0.1043382E-007  0.2022285E+04  0.7818608E-02  0.8608621E-01
         -1   -1    0    0    0  501 -0.00000000000E+00  0.00000000000E+00  0.31003897080E+04  0.31003897080E+04  0.50400000000E-02 0.  1.
          1   -1    0    0  501    0  0.00000000000E+00 -0.00000000000E+00 -0.16142778158E+04  0.16142778158E+04  0.50400000000E-02 0. -1.
    8880023    1    1    2    0    0  0.13825409644E+04 -0.13207605592E+04  0.18747141714E+04  0.27575698366E+04  0.65864270000E+03 0.  0.
    8880022    1    1    2    0    0 -0.13825409644E+04  0.13207605592E+04 -0.38860227925E+03  0.19570976873E+04  0.15294330000E+03 0.  0.
<mgrwt>
<rscale>  0 0.19957278E+04</rscale>
<asrwt>0</asrwt>
<pdfrwt beam="1">  1        1 0.24835044E+00 0.20222854E+04</pdfrwt>
<pdfrwt beam="2">  1       -1 0.47698303E+00 0.20222854E+04</pdfrwt>
<totfact> 0.10210613E-02</totfact>
</mgrwt>
</event>
<event>
 4    1  0.1043382E-007  0.9903631E+03  0.7818608E-02  0.9394276E-01
          1   -1    0    0  501    0  0.00000000000E+00  0.00000000000E+00  0.50419493506E+03  0.50419493509E+03  0.50400000000E-02 0. -1.
         -1   -1    0    0    0  501 -0.00000000000E+00 -0.00000000000E+00 -0.17929981613E+04  0.17929981613E+04  0.50400000000E-02 0.  1.
    8880023    1    1    2    0    0 -0.68624892187E+03  0.27581040212E+03 -0.11696346832E+04  0.15326005543E+04  0.65864270000E+03 0.  1.
    8880022    1    1    2    0    0  0.68624892187E+03 -0.27581040212E+03 -0.11916854299E+03  0.76459254204E+03  0.15294330000E+03 0. -1.
<mgrwt>
<rscale>  0 0.92548280E+03</rscale>
<asrwt>0</asrwt>
<pdfrwt beam="1">  1        1 0.77568452E-01 0.99036315E+03</pdfrwt>
<pdfrwt beam="2">  1       -1 0.27584587E+00 0.99036315E+03</pdfrwt>
<totfact> 0.21006526E+00</totfact>
</mgrwt>
</event>
<event>
 4    1  0.1043382E-007  0.8755184E+03  0.7818608E-02  0.9566534E-01
         -1   -1    0    0    0  501 -0.00000000000E+00  0.00000000000E+00  0.65551597284E+03  0.65551597286E+03  0.50400000000E-02 0.  1.
          1   -1    0    0  501    0  0.00000000000E+00 -0.00000000000E+00 -0.18619085016E+04  0.18619085016E+04  0.50400000000E-02 0. -1.
    8880023    1    1    2    0    0  0.53365385024E+03  0.21894255424E+03  0.27716661354E+03  0.91834297071E+03  0.65864270000E+03 0.  0.
    8880022    1    1    2    0    0 -0.53365385024E+03 -0.21894255424E+03 -0.14835591423E+04  0.15990815038E+04  0.15294330000E+03 0.  0.
<mgrwt>
<rscale>  0 0.79551355E+03</rscale>
<asrwt>0</asrwt>
<pdfrwt beam="1">  1        1 0.28644746E+00 0.87551841E+03</pdfrwt>
<pdfrwt beam="2">  1       -1 0.10084861E+00 0.87551841E+03</pdfrwt>
<totfact> 0.35515884E+00</totfact>
</mgrwt>
</event>
<event>
 4    1  0.1043382E-007  0.6604318E+03  0.7818608E-02  0.1023718E+00
         -1   -1    0    0    0  501 -0.00000000000E+00  0.00000000000E+00  0.62458065397E+03  0.62458065399E+03  0.50400000000E-02 0.  1.
          1   -1    0    0  501    0  0.00000000000E+00 -0.00000000000E+00 -0.97585139730E+03  0.97585139731E+03  0.50400000000E-02 0. -1.
    8880023    1    1    2    0    0 -0.37216823237E+02 -0.31223349756E+02  0.43965608740E+03  0.79338998668E+03  0.65864270000E+03 0.  0.
    8880022    1    1    2    0    0  0.37216823237E+02  0.31223349756E+02 -0.79092683073E+03  0.80704206463E+03  0.15294330000E+03 0. -1.
<mgrwt>
<rscale>  0 0.46368347E+03</rscale>
<asrwt>0</asrwt>
<pdfrwt beam="1">  1        1 0.15013098E+00 0.66043183E+03</pdfrwt>
<pdfrwt beam="2">  1       -1 0.96089332E-01 0.66043183E+03</pdfrwt>
<totfact> 0.17190608E+01</totfact>
</mgrwt>
</event>
<event>
 4    1  0.1043382E-007  0.1394167E+04  0.7818608E-02  0.8988228E-01
          1   -1    0    0  501    0  0.00000000000E+00  0.00000000000E+00  0.35853723054E+04  0.35853723054E+04  0.50400000000E-02 0. -1.
         -1   -1    0    0    0  501 -0.00000000000E+00 -0.00000000000E+00 -0.72714364616E+03  0.72714364618E+03  0.50400000000E-02 0.  1.
    8880023    1    1    2    0    0  0.21355093762E+03  0.12100778973E+04  0.27328496908E+04  0.30679260355E+04  0.65864270000E+03 0. -1.
    8880022    1    1    2    0    0 -0.21355093762E+03 -0.12100778973E+04  0.12537896844E+03  0.12445899161E+04  0.15294330000E+03 0.  0.
<mgrwt>
<rscale>  0 0.13534400E+04</rscale>
<asrwt>0</asrwt>
<pdfrwt beam="1">  1        1 0.55159574E+00 0.13941674E+04</pdfrwt>
<pdfrwt beam="2">  1       -1 0.11186825E+00 0.13941674E+04</pdfrwt>
<totfact> 0.15294822E-01</totfact>
</mgrwt>
</event>
<event>
 4    1  0.1043382E-007  0.6638818E+03  0.7818608E-02  0.1020491E+00
         -1   -1    0    0    0  501 -0.00000000000E+00  0.00000000000E+00  0.13381503566E+03  0.13381503575E+03  0.50400000000E-02 0.  1.
          1   -1    0    0  501    0  0.00000000000E+00 -0.00000000000E+00 -0.14386913089E+04  0.14386913089E+04  0.50400000000E-02 0. -1.
    8880023    1    1    2    0    0  0.13521507784E+01 -0.83228317127E+02 -0.80655635410E+03  0.10446397176E+04  0.65864270000E+03 0.  0.
    8880022    1    1    2    0    0 -0.13521507784E+01  0.83228317127E+02 -0.49831991916E+03  0.52786662703E+03  0.15294330000E+03 0.  0.
<mgrwt>
<rscale>  0 0.47509994E+03</rscale>
<asrwt>0</asrwt>
<pdfrwt beam="1">  1        1 0.22133711E+00 0.66388176E+03</pdfrwt>
<pdfrwt beam="2">  1       -1 0.20586930E-01 0.66388176E+03</pdfrwt>
<totfact> 0.14440296E+02</totfact>
</mgrwt>
</event>
<event>
 4    1  0.1043382E-007  0.7778659E+03  0.7818608E-02  0.9760874E-01
          1   -1    0    0  501    0  0.00000000000E+00  0.00000000000E+00  0.37593828894E+03  0.37593828898E+03  0.50400000000E-02 0. -1.
         -1   -1    0    0    0  501 -0.00000000000E+00 -0.00000000000E+00 -0.13429628938E+04  0.13429628938E+04  0.50400000000E-02 0.  1.
    8880023    1    1    2    0    0  0.15066337324E+03 -0.38544224824E+03 -0.10108874391E+04  0.12755268714E+04  0.65864270000E+03 0.  0.
    8880022    1    1    2    0    0 -0.15066337324E+03  0.38544224824E+03  0.43862834271E+02  0.44337431140E+03  0.15294330000E+03 0.  0.
<mgrwt>
<rscale>  0 0.67505205E+03</rscale>
<asrwt>0</asrwt>
<pdfrwt beam="1">  1        1 0.57836661E-01 0.77786592E+03</pdfrwt>
<pdfrwt beam="2">  1       -1 0.20660967E+00 0.77786592E+03</pdfrwt>
<totfact> 0.90887004E+00</totfact>
</mgrwt>
</event>
<event>
 4    1  0.1043382E-007  0.7343064E+03  0.7818608E-02  0.9876854E-01
          1   -1    0    0  501    0  0.00000000000E+00  0.00000000000E+00  0.11079017260E+04  0.11079017260E+04  0.50400000000E-02 0. -1.
         -1   -1    0    0    0  501 -0.00000000000E+00 -0.00000000000E+00 -0.41890905047E+03  0.41890905050E+03  0.50400000000E-02 0.  1.
    8880023    1    1    2    0    0 -0.27074839860E+03 -0.17913965246E+03 -0.17371394448E+02  0.73451186650E+03  0.65864270000E+03 0.  0.
    8880022    1    1    2    0    0  0.27074839860E+03  0.17913965246E+03  0.70636406993E+03  0.79229890997E+03  0.15294330000E+03 0.  0.
<mgrwt>
<rscale>  0 0.61396293E+03</rscale>
<asrwt>0</asrwt>
<pdfrwt beam="1">  1        1 0.17044642E+00 0.73430642E+03</pdfrwt>
<pdfrwt beam="2">  1       -1 0.64447547E-01 0.73430642E+03</pdfrwt>
<totfact> 0.31434700E+01</totfact>
</mgrwt>
</event>
<event>
 4    1  0.1043382E-007  0.6899874E+03  0.7818608E-02  0.1004159E+00
          1   -1    0    0  501    0  0.00000000000E+00  0.00000000000E+00  0.11048807351E+04  0.11048807351E+04  0.50400000000E-02 0. -1.
         -1   -1    0    0    0  501 -0.00000000000E+00 -0.00000000000E+00 -0.28614478072E+03  0.28614478077E+03  0.50400000000E-02 0.  1.
    8880023    1    1    2    0    0  0.82739444102E+02 -0.18821948209E+03  0.19547461737E+03  0.71714219047E+03  0.65864270000E+03 0.  0.
    8880022    1    1    2    0    0 -0.82739444102E+02  0.18821948209E+03  0.62326133695E+03  0.67388332536E+03  0.15294330000E+03 0.  0.
<mgrwt>
<rscale>  0 0.53863779E+03</rscale>
<asrwt>0</asrwt>
<pdfrwt beam="1">  1        1 0.16998165E+00 0.68998739E+03</pdfrwt>
<pdfrwt beam="2">  1       -1 0.44022273E-01 0.68998739E+03</pdfrwt>
<totfact> 0.66000556E+01</totfact>
</mgrwt>
</event>
<event>
 4    1  0.1120302E-007  0.8040081E+03  0.7818608E-02  0.9702196E-01
         -1   -1    0    0    0  501 -0.00000000000E+00  0.00000000000E+00  0.97189789195E+03  0.97189789197E+03  0.50400000000E-02 0.  1.
          1   -1    0    0  501    0  0.00000000000E+00 -0.00000000000E+00 -0.19298672655E+04  0.19298672655E+04  0.50400000000E-02 0. -1.
    8880023    1    1    2    0    0  0.15886389842E+03 -0.43287529358E+03  0.76609981621E+03  0.11105574693E+04  0.65864270000E+03 0.  1.
    8880022    1    1    2    0    0 -0.15886389842E+03  0.43287529358E+03 -0.17240691897E+04  0.17912076881E+04  0.15294330000E+03 0.  0.
<mgrwt>
<rscale>  0 0.70886200E+03</rscale>
<asrwt>0</asrwt>
<pdfrwt beam="1">  1        1 0.29690266E+00 0.80400806E+03</pdfrwt>
<pdfrwt beam="2">  1       -1 0.14952275E+00 0.80400806E+03</pdfrwt>
<totfact> 0.12226368E+00</totfact>
</mgrwt>
</event>
<event>
 4    1  0.1043382E-007  0.7980597E+03  0.7818608E-02  0.9715007E-01
         -1   -1    0    0    0  501 -0.00000000000E+00  0.00000000000E+00  0.83698080396E+03  0.83698080397E+03  0.50400000000E-02 0.  1.
          1   -1    0    0  501    0  0.00000000000E+00 -0.00000000000E+00 -0.69978322491E+03  0.69978322493E+03  0.50400000000E-02 0. -1.
    8880023    1    1    2    0    0  0.16082001539E+03  0.42098211178E+03  0.49699498118E+03  0.94016128051E+03  0.65864270000E+03 0.  1.
    8880022    1    1    2    0    0 -0.16082001539E+03 -0.42098211178E+03 -0.35979740214E+03  0.59660274839E+03  0.15294330000E+03 0.  0.
<mgrwt>
<rscale>  0 0.70130254E+03</rscale>
<asrwt>0</asrwt>
<pdfrwt beam="1">  1        1 0.10765896E+00 0.79805966E+03</pdfrwt>
<pdfrwt beam="2">  1       -1 0.12876628E+00 0.79805966E+03</pdfrwt>
<totfact> 0.14483231E+01</totfact>
</mgrwt>
</event>
<event>
 4    1  0.1043382E-007  0.9047492E+03  0.7818608E-02  0.9518450E-01
         -1   -1    0    0    0  501 -0.00000000000E+00  0.00000000000E+00  0.25066362124E+03  0.25066362129E+03  0.50400000000E-02 0.  1.
          1   -1    0    0  501    0  0.00000000000E+00 -0.00000000000E+00 -0.28220576815E+04  0.28220576815E+04  0.50400000000E-02 0. -1.
    8880023    1    1    2    0    0  0.61781749891E+03 -0.55339727459E+02 -0.86935492579E+03  0.12547307044E+04  0.65864270000E+03 0.  1.
    8880022    1    1    2    0    0 -0.61781749891E+03  0.55339727459E+02 -0.17020391344E+04  0.18179905983E+04  0.15294330000E+03 0. -1.
<mgrwt>
<rscale>  0 0.82937127E+03</rscale>
<asrwt>0</asrwt>
<pdfrwt beam="1">  1        1 0.43416270E+00 0.90474922E+03</pdfrwt>
<pdfrwt beam="2">  1       -1 0.38563636E-01 0.90474922E+03</pdfrwt>
<totfact> 0.54275037E+00</totfact>
</mgrwt>
</event>
<event>
 4    1  0.1286915E-007  0.6992669E+03  0.7818608E-02  0.1000026E+00
          1   -1    0    0  501    0  0.00000000000E+00  0.00000000000E+00  0.16442732135E+04  0.16442732135E+04  0.50400000000E-02 0. -1.
         -1   -1    0    0    0  501 -0.00000000000E+00 -0.00000000000E+00 -0.12946702050E+04  0.12946702050E+04  0.50400000000E-02 0.  1.
    8880023    1    1    2    0    0  0.81700193545E+01 -0.23472801197E+03 -0.11866366512E+04  0.13773455401E+04  0.65864270000E+03 0.  1.
    8880022    1    1    2    0    0 -0.81700193545E+01  0.23472801197E+03  0.15362396597E+04  0.15615978784E+04  0.15294330000E+03 0.  0.
<mgrwt>
<rscale>  0 0.55639011E+03</rscale>
<asrwt>0</asrwt>
<pdfrwt beam="1">  1        1 0.25296511E+00 0.69926690E+03</pdfrwt>
<pdfrwt beam="2">  1       -1 0.19918003E+00 0.69926690E+03</pdfrwt>
<totfact> 0.84723459E-01</totfact>
</mgrwt>
</event>
<event>
 4    1  0.1043382E-007  0.6763129E+03  0.7818608E-02  0.1011491E+00
         -1   -1    0    0    0  501 -0.00000000000E+00  0.00000000000E+00  0.70459360350E+03  0.70459360352E+03  0.50400000000E-02 0.  1.
          1   -1    0    0  501    0  0.00000000000E+00 -0.00000000000E+00 -0.63197876251E+03  0.63197876253E+03  0.50400000000E-02 0. -1.
    8880023    1    1    2    0    0 -0.18494646691E+02  0.15246909470E+03  0.51091644047E+03  0.84760526909E+03  0.65864270000E+03 0.  1.
    8880022    1    1    2    0    0  0.18494646691E+02 -0.15246909470E+03 -0.43830159948E+03  0.48896709696E+03  0.15294330000E+03 0.  0.
<mgrwt>
<rscale>  0 0.50886253E+03</rscale>
<asrwt>0</asrwt>
<pdfrwt beam="1">  1        1 0.97227502E-01 0.67631286E+03</pdfrwt>
<pdfrwt beam="2">  1       -1 0.10839902E+00 0.67631286E+03</pdfrwt>
<totfact> 0.25928026E+01</totfact>
</mgrwt>
</event>
<event>
 4    1  0.1043382E-007  0.7105604E+03  0.7818608E-02  0.9955926E-01
         -1   -1    0    0    0  501 -0.00000000000E+00  0.00000000000E+00  0.10462407189E+04  0.10462407190E+04  0.50400000000E-02 0.  1.
          1   -1    0    0  501    0  0.00000000000E+00 -0.00000000000E+00 -0.35979784557E+03  0.35979784560E+03  0.50400000000E-02 0. -1.
    8880023    1    1    2    0    0 -0.20159175022E+03 -0.17448958524E+03  0.80756226106E+03  0.10756639163E+04  0.65864270000E+03 0.  1.
    8880022    1    1    2    0    0  0.20159175022E+03  0.17448958524E+03 -0.12111938768E+03  0.33037464824E+03  0.15294330000E+03 0.  0.
<mgrwt>
<rscale>  0 0.57625777E+03</rscale>
<asrwt>0</asrwt>
<pdfrwt beam="1">  1        1 0.55353515E-01 0.71056038E+03</pdfrwt>
<pdfrwt beam="2">  1       -1 0.16096011E+00 0.71056038E+03</pdfrwt>
<totfact> 0.20440234E+01</totfact>
</mgrwt>
</event>
<event>
 4    1  0.1043382E-007  0.7130228E+03  0.7818608E-02  0.9946943E-01
         -1   -1    0    0    0  501 -0.00000000000E+00  0.00000000000E+00  0.67854030166E+03  0.67854030168E+03  0.50400000000E-02 0.  1.
          1   -1    0    0  501    0  0.00000000000E+00 -0.00000000000E+00 -0.10994191573E+04  0.10994191573E+04  0.50400000000E-02 0. -1.
    8880023    1    1    2    0    0  0.18765932011E+03 -0.19843193739E+03  0.45634975970E+03  0.84655570616E+03  0.65864270000E+03 0.  1.
    8880022    1    1    2    0    0 -0.18765932011E+03  0.19843193739E+03 -0.87722861535E+03  0.93140375284E+03  0.15294330000E+03 0.  0.
<mgrwt>
<rscale>  0 0.58039189E+03</rscale>
<asrwt>0</asrwt>
<pdfrwt beam="1">  1        1 0.16914141E+00 0.71302276E+03</pdfrwt>
<pdfrwt beam="2">  1       -1 0.10439082E+00 0.71302276E+03</pdfrwt>
<totfact> 0.11372308E+01</totfact>
</mgrwt>
</event>
<event>
 4    1  0.1043382E-007  0.7675065E+03  0.7818608E-02  0.9786048E-01
         -1   -1    0    0    0  501 -0.00000000000E+00  0.00000000000E+00  0.14296369164E+04  0.14296369164E+04  0.50400000000E-02 0.  1.
          1   -1    0    0  501    0  0.00000000000E+00 -0.00000000000E+00 -0.37954633843E+03  0.37954633847E+03  0.50400000000E-02 0. -1.
    8880023    1    1    2    0    0  0.35282680290E+03 -0.17541176423E+03  0.11426627109E+04  0.13764971184E+04  0.65864270000E+03 0.  1.
    8880022    1    1    2    0    0 -0.35282680290E+03  0.17541176423E+03 -0.92572132929E+02  0.43268613646E+03  0.15294330000E+03 0.  0.
<mgrwt>
<rscale>  0 0.66116709E+03</rscale>
<asrwt>0</asrwt>
<pdfrwt beam="1">  1        1 0.58391745E-01 0.76750651E+03</pdfrwt>
<pdfrwt beam="2">  1       -1 0.21994414E+00 0.76750651E+03</pdfrwt>
<totfact> 0.73153310E+00</totfact>
</mgrwt>
</event>
<event>
 4    1  0.1043382E-007  0.7084301E+03  0.7818608E-02  0.9963877E-01
          1   -1    0    0  501    0  0.00000000000E+00  0.00000000000E+00  0.12611707803E+04  0.12611707803E+04  0.50400000000E-02 0. -1.
         -1   -1    0    0    0  501 -0.00000000000E+00 -0.00000000000E+00 -0.20280673389E+03  0.20280673395E+03  0.50400000000E-02 0.  1.
    8880023    1    1    2    0    0  0.19768914457E+03 -0.17024099883E+03  0.71767289335E+03  0.10084282739E+04  0.65864270000E+03 0.  1.
    8880022    1    1    2    0    0 -0.19768914457E+03  0.17024099883E+03  0.34069115302E+03  0.45554924029E+03  0.15294330000E+03 0. -1.
<mgrwt>
<rscale>  0 0.57262918E+03</rscale>
<asrwt>0</asrwt>
<pdfrwt beam="1">  1        1 0.19402627E+00 0.70843010E+03</pdfrwt>
<pdfrwt beam="2">  1       -1 0.31201036E-01 0.70843010E+03</pdfrwt>
<totfact> 0.94126225E+01</totfact>
</mgrwt>
</event>
<event>
 4    1  0.1043382E-007  0.7678184E+03  0.7818608E-02  0.9785271E-01
          1   -1    0    0  501    0  0.00000000000E+00  0.00000000000E+00  0.15277849089E+04  0.15277849089E+04  0.50400000000E-02 0. -1.
         -1   -1    0    0    0  501 -0.00000000000E+00 -0.00000000000E+00 -0.36422867130E+03  0.36422867133E+03  0.50400000000E-02 0.  1.
    8880023    1    1    2    0    0  0.26796380671E+03  0.28970724801E+03  0.13474997762E+03  0.77955285516E+03  0.65864270000E+03 0.  0.
    8880022    1    1    2    0    0 -0.26796380671E+03 -0.28970724801E+03  0.10288062600E+04  0.11124607251E+04  0.15294330000E+03 0.  0.
<mgrwt>
<rscale>  0 0.66158992E+03</rscale>
<asrwt>0</asrwt>
<pdfrwt beam="1">  1        1 0.23504383E+00 0.76781840E+03</pdfrwt>
<pdfrwt beam="2">  1       -1 0.56035180E-01 0.76781840E+03</pdfrwt>
<totfact> 0.20813702E+01</totfact>
</mgrwt>
</event>
<event>
 4    1  0.1043382E-007  0.8269702E+03  0.7818608E-02  0.9655257E-01
         -1   -1    0    0    0  501 -0.00000000000E+00  0.00000000000E+00  0.42244862197E+03  0.42244862200E+03  0.50400000000E-02 0.  1.
          1   -1    0    0  501    0  0.00000000000E+00 -0.00000000000E+00 -0.22412286654E+04  0.22412286654E+04  0.50400000000E-02 0. -1.
    8880023    1    1    2    0    0  0.14190333081E+03 -0.47951316890E+03 -0.60386257809E+02  0.82917196096E+03  0.65864270000E+03 0.  1.
    8880022    1    1    2    0    0 -0.14190333081E+03  0.47951316890E+03 -0.17583937856E+04  0.18345053265E+04  0.15294330000E+03 0.  0.
<mgrwt>
<rscale>  0 0.73744446E+03</rscale>
<asrwt>0</asrwt>
<pdfrwt beam="1">  1        1 0.34480440E+00 0.82697016E+03</pdfrwt>
<pdfrwt beam="2">  1       -1 0.64992097E-01 0.82697016E+03</pdfrwt>
<totfact> 0.50987030E+00</totfact>
</mgrwt>
</event>
<event>
 4    1  0.1043382E-007  0.1069245E+04  0.7818608E-02  0.9296096E-01
         -1   -1    0    0    0  501 -0.00000000000E+00  0.00000000000E+00  0.54713014530E+03  0.54713014532E+03  0.50400000000E-02 0.  1.
          1   -1    0    0  501    0  0.00000000000E+00 -0.00000000000E+00 -0.22738076363E+04  0.22738076363E+04  0.50400000000E-02 0. -1.
    8880023    1    1    2    0    0 -0.31908553173E+03  0.77952464686E+03 -0.22542032227E+03  0.10927482691E+04  0.65864270000E+03 0.  0.
    8880022    1    1    2    0    0  0.31908553173E+03 -0.77952464686E+03 -0.15012571687E+04  0.17281895126E+04  0.15294330000E+03 0.  0.
<mgrwt>
<rscale>  0 0.10114302E+04</rscale>
<asrwt>0</asrwt>
<pdfrwt beam="1">  1        1 0.34981655E+00 0.10692448E+04</pdfrwt>
<pdfrwt beam="2">  1       -1 0.84173870E-01 0.10692448E+04</pdfrwt>
<totfact> 0.27276757E+00</totfact>
</mgrwt>
</event>
<event>
 4    1  0.1043382E-007  0.7270688E+03  0.7818608E-02  0.9899355E-01
          1   -1    0    0  501    0  0.00000000000E+00  0.00000000000E+00  0.20680775531E+04  0.20680775531E+04  0.50400000000E-02 0. -1.
         -1   -1    0    0    0  501 -0.00000000000E+00 -0.00000000000E+00 -0.29705741705E+03  0.29705741710E+03  0.50400000000E-02 0.  1.
    8880023    1    1    2    0    0  0.30491040158E+03 -0.42994108597E+02  0.19599868066E+03  0.75302359555E+03  0.65864270000E+03 0.  1.
    8880022    1    1    2    0    0 -0.30491040158E+03  0.42994108597E+02  0.15750214554E+04  0.16121113746E+04  0.15294330000E+03 0.  0.
<mgrwt>
<rscale>  0 0.60292549E+03</rscale>
<asrwt>0</asrwt>
<pdfrwt beam="1">  1        1 0.31816578E+00 0.72706881E+03</pdfrwt>
<pdfrwt beam="2">  1       -1 0.45701141E-01 0.72706881E+03</pdfrwt>
<totfact> 0.13364746E+01</totfact>
</mgrwt>
</event>
<event>
 4    1  0.1043382E-007  0.8493660E+03  0.7818608E-02  0.9612767E-01
         -1   -1    0    0    0  501 -0.00000000000E+00  0.00000000000E+00  0.65262115720E+03  0.65262115722E+03  0.50400000000E-02 0.  1.
          1   -1    0    0  501    0  0.00000000000E+00 -0.00000000000E+00 -0.12996254321E+04  0.12996254321E+04  0.50400000000E-02 0. -1.
    8880023    1    1    2    0    0 -0.50370597270E+03  0.18409944791E+03  0.25933761924E+03  0.88807574039E+03  0.65864270000E+03 0.  1.
    8880022    1    1    2    0    0  0.50370597270E+03 -0.18409944791E+03 -0.90634189417E+03  0.10641708490E+04  0.15294330000E+03 0.  0.
<mgrwt>
<rscale>  0 0.76456934E+03</rscale>
<asrwt>0</asrwt>
<pdfrwt beam="1">  1        1 0.19994237E+00 0.84936595E+03</pdfrwt>
<pdfrwt beam="2">  1       -1 0.10040326E+00 0.84936595E+03</pdfrwt>
<totfact> 0.87375902E+00</totfact>
</mgrwt>
</event>
<event>
 4    1  0.1043382E-007  0.6847100E+03  0.7818608E-02  0.1006776E+00
         -1   -1    0    0    0  501 -0.00000000000E+00  0.00000000000E+00  0.22470495926E+04  0.22470495926E+04  0.50400000000E-02 0.  1.
          1   -1    0    0  501    0  0.00000000000E+00 -0.00000000000E+00 -0.10084222497E+03  0.10084222509E+03  0.50400000000E-02 0. -1.
    8880023    1    1    2    0    0  0.92198512138E+02  0.16284053013E+03  0.17986083072E+04  0.19245310215E+04  0.65864270000E+03 0. -1.
    8880022    1    1    2    0    0 -0.92198512138E+02 -0.16284053013E+03  0.34759906046E+03  0.42336079618E+03  0.15294330000E+03 0.  0.
<mgrwt>
<rscale>  0 0.52776456E+03</rscale>
<asrwt>0</asrwt>
<pdfrwt beam="1">  1        1 0.15514189E-01 0.68471002E+03</pdfrwt>
<pdfrwt beam="2">  1       -1 0.34569993E+00 0.68471002E+03</pdfrwt>
<totfact> 0.64895389E+00</totfact>
</mgrwt>
</event>
<event>
 4    1  0.1043382E-007  0.9872670E+03  0.7818608E-02  0.9398409E-01
          1   -1    0    0  501    0  0.00000000000E+00  0.00000000000E+00  0.14987908634E+04  0.14987908634E+04  0.50400000000E-02 0. -1.
         -1   -1    0    0    0  501 -0.00000000000E+00 -0.00000000000E+00 -0.67160710128E+03  0.67160710130E+03  0.50400000000E-02 0.  1.
    8880023    1    1    2    0    0  0.56768011747E+03 -0.46757383178E+03  0.99393383804E+03  0.14009285080E+04  0.65864270000E+03 0.  0.
    8880022    1    1    2    0    0 -0.56768011747E+03  0.46757383178E+03 -0.16675007592E+03  0.76946945669E+03  0.15294330000E+03 0.  0.
<mgrwt>
<rscale>  0 0.92206723E+03</rscale>
<asrwt>0</asrwt>
<pdfrwt beam="1">  1        1 0.23058321E+00 0.98726704E+03</pdfrwt>
<pdfrwt beam="2">  1       -1 0.10332417E+00 0.98726704E+03</pdfrwt>
<totfact> 0.58342605E+00</totfact>
</mgrwt>
</event>
<event>
 4    1  0.1043382E-007  0.9992531E+03  0.7818608E-02  0.9382536E-01
          1   -1    0    0  501    0  0.00000000000E+00  0.00000000000E+00  0.24036052034E+04  0.24036052034E+04  0.50400000000E-02 0. -1.
         -1   -1    0    0    0  501 -0.00000000000E+00 -0.00000000000E+00 -0.57624921724E+03  0.57624921727E+03  0.50400000000E-02 0.  1.
    8880023    1    1    2    0    0  0.57862379483E+03 -0.47946951706E+03  0.19614816844E+04  0.22013443888E+04  0.65864270000E+03 0.  0.
    8880022    1    1    2    0    0 -0.57862379483E+03  0.47946951706E+03 -0.13412569825E+03  0.77851003184E+03  0.15294330000E+03 0.  0.
<mgrwt>
<rscale>  0 0.93526983E+03</rscale>
<asrwt>0</asrwt>
<pdfrwt beam="1">  1        1 0.36978542E+00 0.99925308E+03</pdfrwt>
<pdfrwt beam="2">  1       -1 0.88653726E-01 0.99925308E+03</pdfrwt>
<totfact> 0.20066808E+00</totfact>
</mgrwt>
</event>
<event>
 4    1  0.1043382E-007  0.7358676E+03  0.7818608E-02  0.9872152E-01
          1   -1    0    0  501    0  0.00000000000E+00  0.00000000000E+00  0.25339053346E+04  0.25339053346E+04  0.50400000000E-02 0. -1.
         -1   -1    0    0    0  501 -0.00000000000E+00 -0.00000000000E+00 -0.54248961768E+03  0.54248961770E+03  0.50400000000E-02 0.  1.
    8880023    1    1    2    0    0  0.17392691107E+03  0.27828109201E+03 -0.27175765713E+03  0.78444462331E+03  0.65864270000E+03 0.  0.
    8880022    1    1    2    0    0 -0.17392691107E+03 -0.27828109201E+03  0.22631733740E+04  0.22919503290E+04  0.15294330000E+03 0.  0.
<mgrwt>
<rscale>  0 0.61630103E+03</rscale>
<asrwt>0</asrwt>
<pdfrwt beam="1">  1        1 0.38983159E+00 0.73586761E+03</pdfrwt>
<pdfrwt beam="2">  1       -1 0.83459942E-01 0.73586761E+03</pdfrwt>
<totfact> 0.19519811E+00</totfact>
</mgrwt>
</event>
<event>
 4    1  0.1043382E-007  0.7525080E+03  0.7818608E-02  0.9824904E-01
         -1   -1    0    0    0  501 -0.00000000000E+00  0.00000000000E+00  0.53286596684E+03  0.53286596687E+03  0.50400000000E-02 0.  1.
          1   -1    0    0  501    0  0.00000000000E+00 -0.00000000000E+00 -0.13264653104E+04  0.13264653104E+04  0.50400000000E-02 0. -1.
    8880023    1    1    2    0    0  0.14382258488E+03  0.33432498455E+03  0.20968085214E+03  0.78117501063E+03  0.65864270000E+03 0.  0.
    8880022    1    1    2    0    0 -0.14382258488E+03 -0.33432498455E+03 -0.10032801957E+04  0.10781562666E+04  0.15294330000E+03 0. -1.
<mgrwt>
<rscale>  0 0.64042994E+03</rscale>
<asrwt>0</asrwt>
<pdfrwt beam="1">  1        1 0.20407158E+00 0.75250803E+03</pdfrwt>
<pdfrwt beam="2">  1       -1 0.81979380E-01 0.75250803E+03</pdfrwt>
<totfact> 0.13261659E+01</totfact>
</mgrwt>
</event>
<event>
 4    1  0.1043382E-007  0.1204293E+04  0.7818608E-02  0.9152960E-01
          1   -1    0    0  501    0  0.00000000000E+00  0.00000000000E+00  0.23352689354E+04  0.23352689355E+04  0.50400000000E-02 0. -1.
         -1   -1    0    0    0  501 -0.00000000000E+00 -0.00000000000E+00 -0.61048818397E+03  0.61048818399E+03  0.50400000000E-02 0.  1.
    8880023    1    1    2    0    0  0.85562264242E+03  0.53331215115E+03  0.38970417318E+03  0.12657770363E+04  0.65864270000E+03 0.  0.
    8880022    1    1    2    0    0 -0.85562264242E+03 -0.53331215115E+03  0.13350765783E+04  0.16799800831E+04  0.15294330000E+03 0.  0.
<mgrwt>
<rscale>  0 0.11552429E+04</rscale>
<asrwt>0</asrwt>
<pdfrwt beam="1">  1        1 0.35927214E+00 0.12042932E+04</pdfrwt>
<pdfrwt beam="2">  1       -1 0.93921260E-01 0.12042932E+04</pdfrwt>
<totfact> 0.19118909E+00</totfact>
</mgrwt>
</event>
<event>
 4    1  0.1043382E-007  0.7776603E+03  0.7818608E-02  0.9761362E-01
          1   -1    0    0  501    0  0.00000000000E+00  0.00000000000E+00  0.12172927118E+04  0.12172927118E+04  0.50400000000E-02 0. -1.
         -1   -1    0    0    0  501 -0.00000000000E+00 -0.00000000000E+00 -0.42647389593E+03  0.42647389596E+03  0.50400000000E-02 0.  1.
    8880023    1    1    2    0    0 -0.14905505078E+03  0.38565252663E+03  0.46941555075E+02  0.77907573144E+03  0.65864270000E+03 0. -1.
    8880022    1    1    2    0    0  0.14905505078E+03 -0.38565252663E+03  0.74387726077E+03  0.86469087631E+03  0.15294330000E+03 0.  0.
<mgrwt>
<rscale>  0 0.67477945E+03</rscale>
<asrwt>0</asrwt>
<pdfrwt beam="1">  1        1 0.18727580E+00 0.77766026E+03</pdfrwt>
<pdfrwt beam="2">  1       -1 0.65611368E-01 0.77766026E+03</pdfrwt>
<totfact> 0.25092461E+01</totfact>
</mgrwt>
</event>
<event>
 4    1  0.1043382E-007  0.9953219E+03  0.7818608E-02  0.9387704E-01
         -1   -1    0    0    0  501 -0.00000000000E+00  0.00000000000E+00  0.10223499987E+04  0.10223499987E+04  0.50400000000E-02 0.  1.
          1   -1    0    0  501    0  0.00000000000E+00 -0.00000000000E+00 -0.11348488559E+04  0.11348488559E+04  0.50400000000E-02 0. -1.
    8880023    1    1    2    0    0 -0.12536006365E+03 -0.73562246351E+03  0.55916059491E+03  0.11416331861E+04  0.65864270000E+03 0.  0.
    8880022    1    1    2    0    0  0.12536006365E+03  0.73562246351E+03 -0.67165945218E+03  0.10155656685E+04  0.15294330000E+03 0.  0.
<mgrwt>
<rscale>  0 0.93094562E+03</rscale>
<asrwt>0</asrwt>
<pdfrwt beam="1">  1        1 0.17459213E+00 0.99532194E+03</pdfrwt>
<pdfrwt beam="2">  1       -1 0.15728462E+00 0.99532194E+03</pdfrwt>
<totfact> 0.36728780E+00</totfact>
</mgrwt>
</event>
<event>
 4    1  0.1043382E-007  0.6981749E+03  0.7818608E-02  0.1000486E+00
          1   -1    0    0  501    0  0.00000000000E+00  0.00000000000E+00  0.40123182882E+04  0.40123182883E+04  0.50400000000E-02 0. -1.
         -1   -1    0    0    0  501 -0.00000000000E+00 -0.00000000000E+00 -0.14670460856E+03  0.14670460865E+03  0.50400000000E-02 0.  1.
    8880023    1    1    2    0    0  0.93874735489E+02 -0.21172032235E+03  0.72625497038E+03  0.10074196986E+04  0.65864270000E+03 0.  1.
    8880022    1    1    2    0    0 -0.93874735489E+02  0.21172032235E+03  0.31393587093E+04  0.31516031983E+04  0.15294330000E+03 0.  0.
<mgrwt>
<rscale>  0 0.55437723E+03</rscale>
<asrwt>0</asrwt>
<pdfrwt beam="1">  1        1 0.61727978E+00 0.69817488E+03</pdfrwt>
<pdfrwt beam="2">  1       -1 0.22569938E-01 0.69817488E+03</pdfrwt>
<totfact> 0.17387238E+00</totfact>
</mgrwt>
</event>
<event>
 4    1  0.1335498E-007  0.1368655E+04  0.7818608E-02  0.9008429E-01
          1   -1    0    0  501    0  0.00000000000E+00  0.00000000000E+00  0.15049005583E+04  0.15049005583E+04  0.50400000000E-02 0. -1.
         -1   -1    0    0    0  501 -0.00000000000E+00 -0.00000000000E+00 -0.23604579905E+04  0.23604579905E+04  0.50400000000E-02 0.  1.
    8880023    1    1    2    0    0 -0.11527421382E+03  0.11942020960E+04 -0.18488329125E+04  0.23003043571E+04  0.65864270000E+03 0.  1.
    8880022    1    1    2    0    0  0.11527421382E+03 -0.11942020960E+04  0.99327548025E+03  0.15650541918E+04  0.15294330000E+03 0.  0.
<mgrwt>
<rscale>  0 0.13269929E+04</rscale>
<asrwt>0</asrwt>
<pdfrwt beam="1">  1        1 0.23152316E+00 0.13686552E+04</pdfrwt>
<pdfrwt beam="2">  1       -1 0.36314738E+00 0.13686552E+04</pdfrwt>
<totfact> 0.79446732E-02</totfact>
</mgrwt>
</event>
<event>
 4    1  0.1043382E-007  0.8453929E+03  0.7818608E-02  0.9620094E-01
         -1   -1    0    0    0  501 -0.00000000000E+00  0.00000000000E+00  0.41905235597E+03  0.41905235600E+03  0.50400000000E-02 0.  1.
          1   -1    0    0  501    0  0.00000000000E+00 -0.00000000000E+00 -0.20783728666E+04  0.20783728666E+04  0.50400000000E-02 0. -1.
    8880023    1    1    2    0    0 -0.49860772533E+03 -0.17963671041E+03 -0.10960726968E+03  0.85246875093E+03  0.65864270000E+03 0.  1.
    8880022    1    1    2    0    0  0.49860772533E+03  0.17963671041E+03 -0.15497132410E+04  0.16449564717E+04  0.15294330000E+03 0. -1.
<mgrwt>
<rscale>  0 0.75980382E+03</rscale>
<asrwt>0</asrwt>
<pdfrwt beam="1">  1        1 0.31974967E+00 0.84539294E+03</pdfrwt>
<pdfrwt beam="2">  1       -1 0.64469595E-01 0.84539294E+03</pdfrwt>
<totfact> 0.66491487E+00</totfact>
</mgrwt>
</event>
<event>
 4    1  0.1043382E-007  0.6658773E+03  0.7818608E-02  0.1018808E+00
         -1   -1    0    0    0  501 -0.00000000000E+00  0.00000000000E+00  0.13166760853E+03  0.13166760862E+03  0.50400000000E-02 0.  1.
          1   -1    0    0  501    0  0.00000000000E+00 -0.00000000000E+00 -0.27393720723E+04  0.27393720724E+04  0.50400000000E-02 0. -1.
    8880023    1    1    2    0    0 -0.97700133769E+02  0.60921182583E+01 -0.74381375935E+03  0.99832436858E+03  0.65864270000E+03 0.  1.
    8880022    1    1    2    0    0  0.97700133769E+02 -0.60921182583E+01 -0.18638907045E+04  0.18727153124E+04  0.15294330000E+03 0.  0.
<mgrwt>
<rscale>  0 0.48119075E+03</rscale>
<asrwt>0</asrwt>
<pdfrwt beam="1">  1        1 0.42144181E+00 0.66587734E+03</pdfrwt>
<pdfrwt beam="2">  1       -1 0.20256557E-01 0.66587734E+03</pdfrwt>
<totfact> 0.19648989E+01</totfact>
</mgrwt>
</event>
<event>
 4    1  0.1043382E-007  0.7792638E+03  0.7818608E-02  0.9757569E-01
         -1   -1    0    0    0  501 -0.00000000000E+00  0.00000000000E+00  0.65340510806E+03  0.65340510808E+03  0.50400000000E-02 0.  1.
          1   -1    0    0  501    0  0.00000000000E+00 -0.00000000000E+00 -0.84717227105E+03  0.84717227107E+03  0.50400000000E-02 0. -1.
    8880023    1    1    2    0    0 -0.41641942640E+03  0.60601023635E+01  0.30158837537E+03  0.83558818682E+03  0.65864270000E+03 0.  1.
    8880022    1    1    2    0    0  0.41641942640E+03 -0.60601023635E+01 -0.49535553835E+03  0.66498919233E+03  0.15294330000E+03 0.  0.
<mgrwt>
<rscale>  0 0.67690194E+03</rscale>
<asrwt>0</asrwt>
<pdfrwt beam="1">  1        1 0.13033419E+00 0.77926380E+03</pdfrwt>
<pdfrwt beam="2">  1       -1 0.10052386E+00 0.77926380E+03</pdfrwt>
<totfact> 0.19431047E+01</totfact>
</mgrwt>
</event>
<event>
 4    1  0.1043382E-007  0.8135775E+03  0.7818608E-02  0.9682173E-01
         -1   -1    0    0    0  501 -0.00000000000E+00  0.00000000000E+00  0.66526922733E+03  0.66526922735E+03  0.50400000000E-02 0.  1.
          1   -1    0    0  501    0  0.00000000000E+00 -0.00000000000E+00 -0.12276233851E+04  0.12276233851E+04  0.50400000000E-02 0. -1.
    8880023    1    1    2    0    0  0.41946669163E+02 -0.47575062900E+03  0.32302038969E+03  0.87535739128E+03  0.65864270000E+03 0.  0.
    8880022    1    1    2    0    0 -0.41946669163E+02  0.47575062900E+03 -0.88537454747E+03  0.10175352212E+04  0.15294330000E+03 0.  0.
<mgrwt>
<rscale>  0 0.72088213E+03</rscale>
<asrwt>0</asrwt>
<pdfrwt beam="1">  1        1 0.18886514E+00 0.81357753E+03</pdfrwt>
<pdfrwt beam="2">  1       -1 0.10234911E+00 0.81357753E+03</pdfrwt>
<totfact> 0.94570749E+00</totfact>
</mgrwt>
</event>
<event>
 4    1  0.1043382E-007  0.7005978E+03  0.7818608E-02  0.9994730E-01
          1   -1    0    0  501    0  0.00000000000E+00  0.00000000000E+00  0.91775179952E+03  0.91775179953E+03  0.50400000000E-02 0. -1.
         -1   -1    0    0    0  501 -0.00000000000E+00 -0.00000000000E+00 -0.38692929044E+03  0.38692929048E+03  0.50400000000E-02 0.  1.
    8880023    1    1    2    0    0 -0.20014435358E+03  0.13026634468E+03 -0.25556343095E+01  0.70060246956E+03  0.65864270000E+03 0.  0.
    8880022    1    1    2    0    0  0.20014435358E+03 -0.13026634468E+03  0.53337814338E+03  0.60407862045E+03  0.15294330000E+03 0.  0.
<mgrwt>
<rscale>  0 0.55881909E+03</rscale>
<asrwt>0</asrwt>
<pdfrwt beam="1">  1        1 0.14119258E+00 0.70059781E+03</pdfrwt>
<pdfrwt beam="2">  1       -1 0.59527584E-01 0.70059781E+03</pdfrwt>
<totfact> 0.51776572E+01</totfact>
</mgrwt>
</event>
<event>
 4    1  0.1043382E-007  0.6830757E+03  0.7818608E-02  0.1007635E+00
          1   -1    0    0  501    0  0.00000000000E+00  0.00000000000E+00  0.38419096303E+03  0.38419096306E+03  0.50400000000E-02 0. -1.
         -1   -1    0    0    0  501 -0.00000000000E+00 -0.00000000000E+00 -0.13869718984E+04  0.13869718984E+04  0.50400000000E-02 0.  1.
    8880023    1    1    2    0    0 -0.13016339812E+03 -0.12585584738E+03 -0.12526369008E+04  0.14267766524E+04  0.65864270000E+03 0.  1.
    8880022    1    1    2    0    0  0.13016339812E+03  0.12585584738E+03  0.24985596538E+03  0.34438620904E+03  0.15294330000E+03 0.  0.
<mgrwt>
<rscale>  0 0.52425600E+03</rscale>
<asrwt>0</asrwt>
<pdfrwt beam="1">  1        1 0.59106303E-01 0.68307570E+03</pdfrwt>
<pdfrwt beam="2">  1       -1 0.21338029E+00 0.68307570E+03</pdfrwt>
<totfact> 0.80518292E+00</totfact>
</mgrwt>
</event>
<event>
 4    1  0.1043382E-007  0.8067091E+03  0.7818608E-02  0.9696473E-01
          1   -1    0    0  501    0  0.00000000000E+00  0.00000000000E+00  0.20489248616E+04  0.20489248616E+04  0.50400000000E-02 0. -1.
         -1   -1    0    0    0  501 -0.00000000000E+00 -0.00000000000E+00 -0.35118261016E+03  0.35118261020E+03  0.50400000000E-02 0.  1.
    8880023    1    1    2    0    0  0.25685166056E+03 -0.38858271466E+03  0.20989688467E+03  0.83356835960E+03  0.65864270000E+03 0.  0.
    8880022    1    1    2    0    0 -0.25685166056E+03  0.38858271466E+03  0.14878453668E+04  0.15665391122E+04  0.15294330000E+03 0.  0.
<mgrwt>
<rscale>  0 0.71227170E+03</rscale>
<asrwt>0</asrwt>
<pdfrwt beam="1">  1        1 0.31521920E+00 0.80670906E+03</pdfrwt>
<pdfrwt beam="2">  1       -1 0.54028095E-01 0.80670906E+03</pdfrwt>
<totfact> 0.99072537E+00</totfact>
</mgrwt>
</event>
<event>
 4    1  0.1043382E-007  0.7230939E+03  0.7818608E-02  0.9912253E-01
          1   -1    0    0  501    0  0.00000000000E+00  0.00000000000E+00  0.13696110366E+04  0.13696110366E+04  0.50400000000E-02 0. -1.
         -1   -1    0    0    0  501 -0.00000000000E+00 -0.00000000000E+00 -0.23561190415E+03  0.23561190420E+03  0.50400000000E-02 0.  1.
    8880023    1    1    2    0    0  0.62983270949E+02 -0.29169791273E+03  0.47307541327E+03  0.86409786345E+03  0.65864270000E+03 0.  1.
    8880022    1    1    2    0    0 -0.62983270949E+02  0.29169791273E+03  0.66092371915E+03  0.74112507734E+03  0.15294330000E+03 0.  0.
<mgrwt>
<rscale>  0 0.59671111E+03</rscale>
<asrwt>0</asrwt>
<pdfrwt beam="1">  1        1 0.21070939E+00 0.72309389E+03</pdfrwt>
<pdfrwt beam="2">  1       -1 0.36247985E-01 0.72309389E+03</pdfrwt>
<totfact> 0.60462323E+01</totfact>
</mgrwt>
</event>
<event>
 4    1  0.1043382E-007  0.1067694E+04  0.7818608E-02  0.9297908E-01
         -1   -1    0    0    0  501 -0.00000000000E+00  0.00000000000E+00  0.61106882719E+03  0.61106882721E+03  0.50400000000E-02 0.  1.
          1   -1    0    0  501    0  0.00000000000E+00 -0.00000000000E+00 -0.33803165010E+04  0.33803165010E+04  0.50400000000E-02 0. -1.
    8880023    1    1    2    0    0 -0.41882578575E+03  0.72852191466E+03  0.26551484202E+02  0.10680235983E+04  0.65864270000E+03 0.  0.
    8880022    1    1    2    0    0  0.41882578575E+03 -0.72852191466E+03 -0.27957991580E+04  0.29233617299E+04  0.15294330000E+03 0.  0.
<mgrwt>
<rscale>  0 0.10097571E+04</rscale>
<asrwt>0</asrwt>
<pdfrwt beam="1">  1        1 0.52004868E+00 0.10676935E+04</pdfrwt>
<pdfrwt beam="2">  1       -1 0.94010591E-01 0.10676935E+04</pdfrwt>
<totfact> 0.34791446E-01</totfact>
</mgrwt>
</event>
<event>
 4    1  0.1043382E-007  0.1533463E+04  0.7818608E-02  0.8886361E-01
         -1   -1    0    0    0  501 -0.00000000000E+00  0.00000000000E+00  0.11773308229E+04  0.11773308229E+04  0.50400000000E-02 0.  1.
          1   -1    0    0  501    0  0.00000000000E+00 -0.00000000000E+00 -0.23221014439E+04  0.23221014439E+04  0.50400000000E-02 0. -1.
    8880023    1    1    2    0    0  0.12841831442E+03  0.13788422731E+04 -0.14076922595E+04  0.20816111503E+04  0.65864270000E+03 0. -1.
    8880022    1    1    2    0    0 -0.12841831442E+03 -0.13788422731E+04  0.26292163846E+03  0.14178211165E+04  0.15294330000E+03 0.  0.
<mgrwt>
<rscale>  0 0.14971336E+04</rscale>
<asrwt>0</asrwt>
<pdfrwt beam="1">  1        1 0.35724638E+00 0.15334626E+04</pdfrwt>
<pdfrwt beam="2">  1       -1 0.18112782E+00 0.15334626E+04</pdfrwt>
<totfact> 0.34620468E-01</totfact>
</mgrwt>
</event>
<event>
 4    1  0.1043382E-007  0.7281298E+03  0.7818608E-02  0.9895980E-01
          1   -1    0    0  501    0  0.00000000000E+00  0.00000000000E+00  0.14270744776E+04  0.14270744776E+04  0.50400000000E-02 0. -1.
         -1   -1    0    0    0  501 -0.00000000000E+00 -0.00000000000E+00 -0.30412787577E+03  0.30412787581E+03  0.50400000000E-02 0.  1.
    8880023    1    1    2    0    0  0.92860979116E+02 -0.29620868330E+03  0.21448667513E+03  0.75906355832E+03  0.65864270000E+03 0.  1.
    8880022    1    1    2    0    0 -0.92860979116E+02  0.29620868330E+03  0.90845992673E+03  0.97213879513E+03  0.15294330000E+03 0.  0.
<mgrwt>
<rscale>  0 0.60456503E+03</rscale>
<asrwt>0</asrwt>
<pdfrwt beam="1">  1        1 0.21954992E+00 0.72812976E+03</pdfrwt>
<pdfrwt beam="2">  1       -1 0.46788904E-01 0.72812976E+03</pdfrwt>
<totfact> 0.34572752E+01</totfact>
</mgrwt>
</event>
<event>
 4    1  0.1043382E-007  0.6587373E+03  0.7818608E-02  0.1025489E+00
          1   -1    0    0  501    0  0.00000000000E+00  0.00000000000E+00  0.14012922370E+04  0.14012922370E+04  0.50400000000E-02 0. -1.
         -1   -1    0    0    0  501 -0.00000000000E+00 -0.00000000000E+00 -0.14459979418E+03  0.14459979427E+03  0.50400000000E-02 0.  1.
    8880023    1    1    2    0    0  0.94978461889E+01 -0.58674609043E+01  0.67040758199E+03  0.93988359302E+03  0.65864270000E+03 0.  1.
    8880022    1    1    2    0    0 -0.94978461889E+01  0.58674609043E+01  0.58628486081E+03  0.60600843823E+03  0.15294330000E+03 0.  0.
<mgrwt>
<rscale>  0 0.45756763E+03</rscale>
<asrwt>0</asrwt>
<pdfrwt beam="1">  1        1 0.21558342E+00 0.65873731E+03</pdfrwt>
<pdfrwt beam="2">  1       -1 0.22246122E-01 0.65873731E+03</pdfrwt>
<totfact> 0.13465891E+02</totfact>
</mgrwt>
</event>
<event>
 4    1  0.1490405E-007  0.7011882E+03  0.7818608E-02  0.9992307E-01
         -1   -1    0    0    0  501 -0.00000000000E+00  0.00000000000E+00  0.13611544175E+04  0.13611544175E+04  0.50400000000E-02 0.  1.
          1   -1    0    0  501    0  0.00000000000E+00 -0.00000000000E+00 -0.16487330604E+04  0.16487330604E+04  0.50400000000E-02 0. -1.
    8880023    1    1    2    0    0  0.20069663530E+03  0.13257280637E+03  0.12569372966E+04  0.14392901939E+04  0.65864270000E+03 0.  1.
    8880022    1    1    2    0    0 -0.20069663530E+03 -0.13257280637E+03 -0.15445159395E+04  0.15705972841E+04  0.15294330000E+03 0.  0.
<mgrwt>
<rscale>  0 0.55988834E+03</rscale>
<asrwt>0</asrwt>
<pdfrwt beam="1">  1        1 0.25365124E+00 0.70118820E+03</pdfrwt>
<pdfrwt beam="2">  1       -1 0.20940837E+00 0.70118820E+03</pdfrwt>
<totfact> 0.71691780E-01</totfact>
</mgrwt>
</event>
<event>
 4    1  0.1043382E-007  0.8846373E+03  0.7818608E-02  0.9551158E-01
         -1   -1    0    0    0  501 -0.00000000000E+00  0.00000000000E+00  0.45533454694E+03  0.45533454696E+03  0.50400000000E-02 0.  1.
          1   -1    0    0  501    0  0.00000000000E+00 -0.00000000000E+00 -0.19614357798E+04  0.19614357798E+04  0.50400000000E-02 0. -1.
    8880023    1    1    2    0    0 -0.46366035242E+03 -0.36577597409E+03 -0.10779545426E+03  0.89118070662E+03  0.65864270000E+03 0.  1.
    8880022    1    1    2    0    0  0.46366035242E+03  0.36577597409E+03 -0.13983057786E+04  0.15255896202E+04  0.15294330000E+03 0.  0.
<mgrwt>
<rscale>  0 0.80614995E+03</rscale>
<asrwt>0</asrwt>
<pdfrwt beam="1">  1        1 0.30175935E+00 0.88463732E+03</pdfrwt>
<pdfrwt beam="2">  1       -1 0.70051470E-01 0.88463732E+03</pdfrwt>
<totfact> 0.66916527E+00</totfact>
</mgrwt>
</event>
<event>
 4    1  0.1043382E-007  0.7591234E+03  0.7818608E-02  0.9807382E-01
          1   -1    0    0  501    0  0.00000000000E+00  0.00000000000E+00  0.14105493809E+04  0.14105493809E+04  0.50400000000E-02 0. -1.
         -1   -1    0    0    0  501 -0.00000000000E+00 -0.00000000000E+00 -0.29105387390E+03  0.29105387394E+03  0.50400000000E-02 0.  1.
    8880023    1    1    2    0    0 -0.27066217587E+02 -0.37646446326E+03  0.36076731396E+03  0.84048874669E+03  0.65864270000E+03 0.  0.
    8880022    1    1    2    0    0  0.27066217587E+02  0.37646446326E+03  0.75872819304E+03  0.86111450816E+03  0.15294330000E+03 0.  0.
<mgrwt>
<rscale>  0 0.64967868E+03</rscale>
<asrwt>0</asrwt>
<pdfrwt beam="1">  1        1 0.21700759E+00 0.75912336E+03</pdfrwt>
<pdfrwt beam="2">  1       -1 0.44777520E-01 0.75912336E+03</pdfrwt>
<totfact> 0.38384748E+01</totfact>
</mgrwt>
</event>
<event>
 4    1  0.1043382E-007  0.8301644E+03  0.7818608E-02  0.9649013E-01
          1   -1    0    0  501    0  0.00000000000E+00  0.00000000000E+00  0.14097036334E+04  0.14097036334E+04  0.50400000000E-02 0. -1.
         -1   -1    0    0    0  501 -0.00000000000E+00 -0.00000000000E+00 -0.41540524450E+03  0.41540524453E+03  0.50400000000E-02 0.  1.
    8880023    1    1    2    0    0  0.37909027709E+03  0.33414569771E+03  0.99668305063E+03  0.12971314872E+04  0.65864270000E+03 0.  0.
    8880022    1    1    2    0    0 -0.37909027709E+03 -0.33414569771E+03 -0.23846617272E+01  0.52797739072E+03  0.15294330000E+03 0.  0.
<mgrwt>
<rscale>  0 0.74135431E+03</rscale>
<asrwt>0</asrwt>
<pdfrwt beam="1">  1        1 0.21687748E+00 0.83016444E+03</pdfrwt>
<pdfrwt beam="2">  1       -1 0.63908500E-01 0.83016444E+03</pdfrwt>
<totfact> 0.19219980E+01</totfact>
</mgrwt>
</event>
<event>
 4    1  0.1043382E-007  0.7890919E+03  0.7818608E-02  0.9734898E-01
         -1   -1    0    0    0  501 -0.00000000000E+00  0.00000000000E+00  0.22675711611E+03  0.22675711616E+03  0.50400000000E-02 0.  1.
          1   -1    0    0  501    0  0.00000000000E+00 -0.00000000000E+00 -0.20476892393E+04  0.20476892393E+04  0.50400000000E-02 0. -1.
    8880023    1    1    2    0    0 -0.35034553524E+03  0.25712603527E+03 -0.15517688392E+04  0.17408769424E+04  0.65864270000E+03 0. -1.
    8880022    1    1    2    0    0  0.35034553524E+03 -0.25712603527E+03 -0.26916328398E+03  0.53356941304E+03  0.15294330000E+03 0.  1.
<mgrwt>
<rscale>  0 0.68976474E+03</rscale>
<asrwt>0</asrwt>
<pdfrwt beam="1">  1        1 0.31502910E+00 0.78909188E+03</pdfrwt>
<pdfrwt beam="2">  1       -1 0.34885712E-01 0.78909188E+03</pdfrwt>
<totfact> 0.22346202E+01</totfact>
</mgrwt>
</event>
<event>
 4    1  0.1043382E-007  0.6779387E+03  0.7818608E-02  0.1010514E+00
          1   -1    0    0  501    0  0.00000000000E+00  0.00000000000E+00  0.18965008327E+04  0.18965008327E+04  0.50400000000E-02 0. -1.
         -1   -1    0    0    0  501 -0.00000000000E+00 -0.00000000000E+00 -0.35751851684E+03  0.35751851687E+03  0.50400000000E-02 0.  1.
    8880023    1    1    2    0    0 -0.14199454322E+03 -0.75021878052E+02  0.17929577398E+04  0.19168459499E+04  0.65864270000E+03 0. -1.
    8880022    1    1    2    0    0  0.14199454322E+03  0.75021878052E+02 -0.25397542395E+03  0.33717339972E+03  0.15294330000E+03 0.  0.
<mgrwt>
<rscale>  0 0.51270675E+03</rscale>
<asrwt>0</asrwt>
<pdfrwt beam="1">  1        1 0.29176936E+00 0.67793874E+03</pdfrwt>
<pdfrwt beam="2">  1       -1 0.55002848E-01 0.67793874E+03</pdfrwt>
<totfact> 0.12348020E+01</totfact>
</mgrwt>
</event>
<event>
 4    1  0.1043382E-007  0.9146337E+03  0.7818608E-02  0.9502937E-01
          1   -1    0    0  501    0  0.00000000000E+00  0.00000000000E+00  0.20805590839E+04  0.20805590839E+04  0.50400000000E-02 0. -1.
         -1   -1    0    0    0  501 -0.00000000000E+00 -0.00000000000E+00 -0.34237095004E+03  0.34237095008E+03  0.50400000000E-02 0.  1.
    8880023    1    1    2    0    0  0.54323587016E+03 -0.32808440759E+03  0.55010201896E+03  0.10673176784E+04  0.65864270000E+03 0.  0.
    8880022    1    1    2    0    0 -0.54323587016E+03  0.32808440759E+03  0.11880861149E+04  0.13556123555E+04  0.15294330000E+03 0.  0.
<mgrwt>
<rscale>  0 0.84067659E+03</rscale>
<asrwt>0</asrwt>
<pdfrwt beam="1">  1        1 0.32008601E+00 0.91463369E+03</pdfrwt>
<pdfrwt beam="2">  1       -1 0.52672454E-01 0.91463369E+03</pdfrwt>
<totfact> 0.97616215E+00</totfact>
</mgrwt>
</event>
<event>
 4    1  0.1043382E-007  0.6838070E+03  0.7818608E-02  0.1007247E+00
         -1   -1    0    0    0  501 -0.00000000000E+00  0.00000000000E+00  0.17848090744E+04  0.17848090744E+04  0.50400000000E-02 0.  1.
          1   -1    0    0  501    0  0.00000000000E+00 -0.00000000000E+00 -0.13811594181E+03  0.13811594190E+03  0.50400000000E-02 0. -1.
    8880023    1    1    2    0    0  0.18192861112E+03 -0.26149839097E+02  0.14832686464E+04  0.16333027635E+04  0.65864270000E+03 0.  1.
    8880022    1    1    2    0    0 -0.18192861112E+03  0.26149839097E+02  0.16342448624E+03  0.28962225285E+03  0.15294330000E+03 0.  0.
<mgrwt>
<rscale>  0 0.52583501E+03</rscale>
<asrwt>0</asrwt>
<pdfrwt beam="1">  1        1 0.21248608E-01 0.68380702E+03</pdfrwt>
<pdfrwt beam="2">  1       -1 0.27458600E+00 0.68380702E+03</pdfrwt>
<totfact> 0.12207874E+01</totfact>
</mgrwt>
</event>
<event>
 4    1  0.1043382E-007  0.1146487E+04  0.7818608E-02  0.9210982E-01
          1   -1    0    0  501    0  0.00000000000E+00  0.00000000000E+00  0.14380060537E+04  0.14380060537E+04  0.50400000000E-02 0. -1.
         -1   -1    0    0    0  501 -0.00000000000E+00 -0.00000000000E+00 -0.10557103575E+04  0.10557103575E+04  0.50400000000E-02 0.  1.
    8880023    1    1    2    0    0  0.83582840665E+03  0.42663047046E+03 -0.44849496876E+03  0.12310892035E+04  0.65864270000E+03 0.  1.
    8880022    1    1    2    0    0 -0.83582840665E+03 -0.42663047046E+03  0.83079066499E+03  0.12626272077E+04  0.15294330000E+03 0.  0.
<mgrwt>
<rscale>  0 0.10940794E+04</rscale>
<asrwt>0</asrwt>
<pdfrwt beam="1">  1        1 0.22123170E+00 0.11464872E+04</pdfrwt>
<pdfrwt beam="2">  1       -1 0.16241698E+00 0.11464872E+04</pdfrwt>
<totfact> 0.19975711E+00</totfact>
</mgrwt>
</event>
<event>
 4    1  0.1043382E-007  0.7149650E+03  0.7818608E-02  0.9940006E-01
          1   -1    0    0  501    0  0.00000000000E+00  0.00000000000E+00  0.33300195236E+03  0.33300195240E+03  0.50400000000E-02 0. -1.
         -1   -1    0    0    0  501 -0.00000000000E+00 -0.00000000000E+00 -0.17047581567E+04  0.17047581567E+04  0.50400000000E-02 0.  1.
    8880023    1    1    2    0    0 -0.27702309776E+03 -0.24958976654E+02 -0.15257477667E+04  0.16849573292E+04  0.65864270000E+03 0.  1.
    8880022    1    1    2    0    0  0.27702309776E+03  0.24958976654E+02  0.15399156240E+03  0.35280277991E+03  0.15294330000E+03 0.  0.
<mgrwt>
<rscale>  0 0.58360992E+03</rscale>
<asrwt>0</asrwt>
<pdfrwt beam="1">  1        1 0.51231070E-01 0.71496500E+03</pdfrwt>
<pdfrwt beam="2">  1       -1 0.26227048E+00 0.71496500E+03</pdfrwt>
<totfact> 0.46418403E+00</totfact>
</mgrwt>
</event>
<event>
 4    1  0.1043382E-007  0.1076013E+04  0.7818608E-02  0.9288245E-01
         -1   -1    0    0    0  501 -0.00000000000E+00  0.00000000000E+00  0.19011162369E+04  0.19011162370E+04  0.50400000000E-02 0.  1.
          1   -1    0    0  501    0  0.00000000000E+00 -0.00000000000E+00 -0.85850034849E+03  0.85850034851E+03  0.50400000000E-02 0. -1.
    8880023    1    1    2    0    0 -0.84224560548E+03 -0.12089392276E+03  0.14486114056E+04  0.18045160601E+04  0.65864270000E+03 0.  0.
    8880022    1    1    2    0    0  0.84224560548E+03  0.12089392276E+03 -0.40599551717E+03  0.95510052533E+03  0.15294330000E+03 0.  0.
<mgrwt>
<rscale>  0 0.10187229E+04</rscale>
<asrwt>0</asrwt>
<pdfrwt beam="1">  1        1 0.13207698E+00 0.10760126E+04</pdfrwt>
<pdfrwt beam="2">  1       -1 0.29247942E+00 0.10760126E+04</pdfrwt>
<totfact> 0.72923822E-01</totfact>
</mgrwt>
</event>
<event>
 4    1  0.1062652E-007  0.6785714E+03  0.7818608E-02  0.1010144E+00
          1   -1    0    0  501    0  0.00000000000E+00  0.00000000000E+00  0.10831542203E+04  0.10831542203E+04  0.50400000000E-02 0. -1.
         -1   -1    0    0    0  501 -0.00000000000E+00 -0.00000000000E+00 -0.10022769931E+04  0.10022769931E+04  0.50400000000E-02 0.  1.
    8880023    1    1    2    0    0 -0.51537583221E+02  0.15489603982E+03 -0.87298178925E+03  0.11056926862E+04  0.65864270000E+03 0.  0.
    8880022    1    1    2    0    0  0.51537583221E+02 -0.15489603982E+03  0.95385901639E+03  0.97973852726E+03  0.15294330000E+03 0. -1.
<mgrwt>
<rscale>  0 0.51417614E+03</rscale>
<asrwt>0</asrwt>
<pdfrwt beam="1">  1        1 0.16663911E+00 0.67857138E+03</pdfrwt>
<pdfrwt beam="2">  1       -1 0.15419646E+00 0.67857138E+03</pdfrwt>
<totfact> 0.44405425E+00</totfact>
</mgrwt>
</event>
<event>
 4    1  0.1043382E-007  0.7646079E+03  0.7818608E-02  0.9793321E-01
          1   -1    0    0  501    0  0.00000000000E+00  0.00000000000E+00  0.14355473505E+04  0.14355473505E+04  0.50400000000E-02 0. -1.
         -1   -1    0    0    0  501 -0.00000000000E+00 -0.00000000000E+00 -0.41053493983E+03  0.41053493987E+03  0.50400000000E-02 0.  1.
    8880023    1    1    2    0    0  0.85254263240E+02  0.37887559839E+03  0.27875618413E+02  0.76511585059E+03  0.65864270000E+03 0.  1.
    8880022    1    1    2    0    0 -0.85254263240E+02 -0.37887559839E+03  0.99713679225E+03  0.10809664398E+04  0.15294330000E+03 0.  0.
<mgrwt>
<rscale>  0 0.65722212E+03</rscale>
<asrwt>0</asrwt>
<pdfrwt beam="1">  1        1 0.22085344E+00 0.76460788E+03</pdfrwt>
<pdfrwt beam="2">  1       -1 0.63159221E-01 0.76460788E+03</pdfrwt>
<totfact> 0.19036861E+01</totfact>
</mgrwt>
</event>
<event>
 4    1  0.1043382E-007  0.7677796E+03  0.7818608E-02  0.9785368E-01
          1   -1    0    0  501    0  0.00000000000E+00  0.00000000000E+00  0.59476332056E+03  0.59476332058E+03  0.50400000000E-02 0. -1.
         -1   -1    0    0    0  501 -0.00000000000E+00 -0.00000000000E+00 -0.95708650246E+03  0.95708650247E+03  0.50400000000E-02 0.  1.
    8880023    1    1    2    0    0  0.28726322544E+03 -0.27047194125E+03 -0.67769982845E+03  0.10240910582E+04  0.65864270000E+03 0.  1.
    8880022    1    1    2    0    0 -0.28726322544E+03  0.27047194125E+03  0.31537664656E+03  0.52775876487E+03  0.15294330000E+03 0. -1.
<mgrwt>
<rscale>  0 0.66153727E+03</rscale>
<asrwt>0</asrwt>
<pdfrwt beam="1">  1        1 0.91502050E-01 0.76777955E+03</pdfrwt>
<pdfrwt beam="2">  1       -1 0.14724408E+00 0.76777955E+03</pdfrwt>
<totfact> 0.13059362E+01</totfact>
</mgrwt>
</event>
<event>
 4    1  0.1043382E-007  0.9896910E+03  0.7818608E-02  0.9395171E-01
          1   -1    0    0  501    0  0.00000000000E+00  0.00000000000E+00  0.11670241447E+04  0.11670241447E+04  0.50400000000E-02 0. -1.
         -1   -1    0    0    0  501 -0.00000000000E+00 -0.00000000000E+00 -0.65178501207E+03  0.65178501209E+03  0.50400000000E-02 0.  1.
    8880023    1    1    2    0    0 -0.48226846410E+03  0.55954907464E+03  0.27724845054E+03  0.10277912959E+04  0.65864270000E+03 0. -1.
    8880022    1    1    2    0    0  0.48226846410E+03 -0.55954907464E+03  0.23799068204E+03  0.79101786083E+03  0.15294330000E+03 0.  1.
<mgrwt>
<rscale>  0 0.92474159E+03</rscale>
<asrwt>0</asrwt>
<pdfrwt beam="1">  1        1 0.17954218E+00 0.98969098E+03</pdfrwt>
<pdfrwt beam="2">  1       -1 0.10027462E+00 0.98969098E+03</pdfrwt>
<totfact> 0.10749391E+01</totfact>
</mgrwt>
</event>
<event>
 4    1  0.1043382E-007  0.7483123E+03  0.7818608E-02  0.9836364E-01
         -1   -1    0    0    0  501 -0.00000000000E+00  0.00000000000E+00  0.72415445750E+03  0.72415445752E+03  0.50400000000E-02 0.  1.
          1   -1    0    0  501    0  0.00000000000E+00 -0.00000000000E+00 -0.27838670015E+04  0.27838670015E+04  0.50400000000E-02 0. -1.
    8880023    1    1    2    0    0 -0.22018362790E+03 -0.27871166792E+03  0.51244362703E+03  0.90695628394E+03  0.65864270000E+03 0.  0.
    8880022    1    1    2    0    0  0.22018362790E+03  0.27871166792E+03 -0.25721561710E+04  0.26010651751E+04  0.15294330000E+03 0.  0.
<mgrwt>
<rscale>  0 0.63447047E+03</rscale>
<asrwt>0</asrwt>
<pdfrwt beam="1">  1        1 0.42828722E+00 0.74831225E+03</pdfrwt>
<pdfrwt beam="2">  1       -1 0.11140838E+00 0.74831225E+03</pdfrwt>
<totfact> 0.68192945E-01</totfact>
</mgrwt>
</event>
<event>
 4    1  0.1043382E-007  0.8065959E+03  0.7818608E-02  0.9696712E-01
          1   -1    0    0  501    0  0.00000000000E+00  0.00000000000E+00  0.71722471103E+03  0.71722471105E+03  0.50400000000E-02 0. -1.
         -1   -1    0    0    0  501 -0.00000000000E+00 -0.00000000000E+00 -0.16402784006E+04  0.16402784006E+04  0.50400000000E-02 0.  1.
    8880023    1    1    2    0    0 -0.44495708516E+03 -0.13711268415E+03  0.43309778747E+03  0.91551657307E+03  0.65864270000E+03 0.  0.
    8880022    1    1    2    0    0  0.44495708516E+03  0.13711268415E+03 -0.13561514770E+04  0.14419865386E+04  0.15294330000E+03 0.  1.
<mgrwt>
<rscale>  0 0.71212909E+03</rscale>
<asrwt>0</asrwt>
<pdfrwt beam="1">  1        1 0.11034226E+00 0.80659587E+03</pdfrwt>
<pdfrwt beam="2">  1       -1 0.25235052E+00 0.80659587E+03</pdfrwt>
<totfact> 0.18318166E+00</totfact>
</mgrwt>
</event>
<event>
 4    1  0.1043382E-007  0.8706790E+03  0.7818608E-02  0.9574843E-01
         -1   -1    0    0    0  501 -0.00000000000E+00  0.00000000000E+00  0.48537731563E+03  0.48537731566E+03  0.50400000000E-02 0.  1.
          1   -1    0    0  501    0  0.00000000000E+00 -0.00000000000E+00 -0.36142379851E+04  0.36142379851E+04  0.50400000000E-02 0. -1.
    8880023    1    1    2    0    0 -0.36726742298E+03  0.43518537641E+03  0.44621435536E+02  0.87182162774E+03  0.65864270000E+03 0.  1.
    8880022    1    1    2    0    0  0.36726742298E+03 -0.43518537641E+03 -0.31734821050E+04  0.32277936730E+04  0.15294330000E+03 0.  0.
<mgrwt>
<rscale>  0 0.78983869E+03</rscale>
<asrwt>0</asrwt>
<pdfrwt beam="1">  1        1 0.55603660E+00 0.87067898E+03</pdfrwt>
<pdfrwt beam="2">  1       -1 0.74673435E-01 0.87067898E+03</pdfrwt>
<totfact> 0.39112238E-01</totfact>
</mgrwt>
</event>
<event>
 4    1  0.1043382E-007  0.6805964E+03  0.7818608E-02  0.1008988E+00
          1   -1    0    0  501    0  0.00000000000E+00  0.00000000000E+00  0.64272160293E+03  0.64272160295E+03  0.50400000000E-02 0. -1.
         -1   -1    0    0    0  501 -0.00000000000E+00 -0.00000000000E+00 -0.51896411763E+03  0.51896411765E+03  0.50400000000E-02 0.  1.
    8880023    1    1    2    0    0  0.17039925245E+03  0.19114606100E+02 -0.24823610117E+03  0.72445333983E+03  0.65864270000E+03 0.  1.
    8880022    1    1    2    0    0 -0.17039925245E+03 -0.19114606100E+02  0.37199358648E+03  0.43723238077E+03  0.15294330000E+03 0.  0.
<mgrwt>
<rscale>  0 0.51878715E+03</rscale>
<asrwt>0</asrwt>
<pdfrwt beam="1">  1        1 0.98880247E-01 0.68059641E+03</pdfrwt>
<pdfrwt beam="2">  1       -1 0.79840634E-01 0.68059641E+03</pdfrwt>
<totfact> 0.49906252E+01</totfact>
</mgrwt>
</event>
<event>
 4    1  0.1043382E-007  0.6761060E+03  0.7818608E-02  0.1011618E+00
         -1   -1    0    0    0  501 -0.00000000000E+00  0.00000000000E+00  0.16227741104E+04  0.16227741104E+04  0.50400000000E-02 0.  1.
          1   -1    0    0  501    0  0.00000000000E+00 -0.00000000000E+00 -0.32977829359E+03  0.32977829363E+03  0.50400000000E-02 0. -1.
    8880023    1    1    2    0    0 -0.15112692626E+03  0.21674766523E+02  0.15049555552E+04  0.16498516820E+04  0.65864270000E+03 0.  1.
    8880022    1    1    2    0    0  0.15112692626E+03 -0.21674766523E+02 -0.21195973843E+03  0.30270072196E+03  0.15294330000E+03 0.  0.
<mgrwt>
<rscale>  0 0.50836616E+03</rscale>
<asrwt>0</asrwt>
<pdfrwt beam="1">  1        1 0.50735123E-01 0.67610602E+03</pdfrwt>
<pdfrwt beam="2">  1       -1 0.24965755E+00 0.67610602E+03</pdfrwt>
<totfact> 0.56984184E+00</totfact>
</mgrwt>
</event>
<event>
 4    1  0.1043382E-007  0.9279802E+03  0.7818608E-02  0.9482530E-01
          1   -1    0    0  501    0  0.00000000000E+00  0.00000000000E+00  0.73551283863E+03  0.73551283865E+03  0.50400000000E-02 0. -1.
         -1   -1    0    0    0  501 -0.00000000000E+00 -0.00000000000E+00 -0.13320672450E+04  0.13320672451E+04  0.50400000000E-02 0.  1.
    8880023    1    1    2    0    0 -0.40179348692E+03 -0.51565393119E+03 -0.93361744776E+03  0.13163543322E+04  0.65864270000E+03 0.  0.
    8880022    1    1    2    0    0  0.40179348692E+03  0.51565393119E+03  0.33706304133E+03  0.75122575151E+03  0.15294330000E+03 0.  0.
<mgrwt>
<rscale>  0 0.85584164E+03</rscale>
<asrwt>0</asrwt>
<pdfrwt beam="1">  1        1 0.11315582E+00 0.92798017E+03</pdfrwt>
<pdfrwt beam="2">  1       -1 0.20493342E+00 0.92798017E+03</pdfrwt>
<totfact> 0.35607058E+00</totfact>
</mgrwt>
</event>
<event>
 4    1  0.1043382E-007  0.8806369E+03  0.7818608E-02  0.9557859E-01
          1   -1    0    0  501    0  0.00000000000E+00  0.00000000000E+00  0.13869634392E+04  0.13869634392E+04  0.50400000000E-02 0. -1.
         -1   -1    0    0    0  501 -0.00000000000E+00 -0.00000000000E+00 -0.67119611098E+03  0.67119611100E+03  0.50400000000E-02 0.  1.
    8880023    1    1    2    0    0 -0.45514141248E+03 -0.36682064417E+03 -0.25312626862E+03  0.91629373264E+03  0.65864270000E+03 0.  1.
    8880022    1    1    2    0    0  0.45514141248E+03  0.36682064417E+03  0.96889359687E+03  0.11418658176E+04  0.15294330000E+03 0.  0.
<mgrwt>
<rscale>  0 0.80149263E+03</rscale>
<asrwt>0</asrwt>
<pdfrwt beam="1">  1        1 0.21337899E+00 0.88063687E+03</pdfrwt>
<pdfrwt beam="2">  1       -1 0.10326094E+00 0.88063687E+03</pdfrwt>
<totfact> 0.70800711E+00</totfact>
</mgrwt>
</event>
<event>
 4    1  0.1043382E-007  0.1273393E+04  0.7818608E-02  0.9088884E-01
         -1   -1    0    0    0  501 -0.00000000000E+00  0.00000000000E+00  0.41753581717E+03  0.41753581720E+03  0.50400000000E-02 0.  1.
          1   -1    0    0  501    0  0.00000000000E+00 -0.00000000000E+00 -0.46621077900E+04  0.46621077900E+04  0.50400000000E-02 0. -1.
    8880023    1    1    2    0    0 -0.19377182190E+03 -0.10724602732E+04 -0.90179516464E+03  0.15603728022E+04  0.65864270000E+03 0.  0.
    8880022    1    1    2    0    0  0.19377182190E+03  0.10724602732E+04 -0.33427768081E+04  0.35192708050E+04  0.15294330000E+03 0.  0.
<mgrwt>
<rscale>  0 0.12277776E+04</rscale>
<asrwt>0</asrwt>
<pdfrwt beam="1">  1        1 0.71724732E+00 0.12733926E+04</pdfrwt>
<pdfrwt beam="2">  1       -1 0.64236283E-01 0.12733926E+04</pdfrwt>
<totfact> 0.54612884E-02</totfact>
</mgrwt>
</event>
<event>
 4    1  0.1043382E-007  0.9519318E+03  0.7818608E-02  0.9447340E-01
         -1   -1    0    0    0  501 -0.00000000000E+00  0.00000000000E+00  0.27491221680E+03  0.27491221685E+03  0.50400000000E-02 0.  1.
          1   -1    0    0  501    0  0.00000000000E+00 -0.00000000000E+00 -0.38480071471E+04  0.38480071472E+04  0.50400000000E-02 0. -1.
    8880023    1    1    2    0    0  0.20604807676E+02  0.68697840652E+03 -0.74586736625E+03  0.12093354470E+04  0.65864270000E+03 0.  0.
    8880022    1    1    2    0    0 -0.20604807676E+02 -0.68697840652E+03 -0.28272275641E+04  0.29135839170E+04  0.15294330000E+03 0.  0.
<mgrwt>
<rscale>  0 0.88280099E+03</rscale>
<asrwt>0</asrwt>
<pdfrwt beam="1">  1        1 0.59200106E+00 0.95193177E+03</pdfrwt>
<pdfrwt beam="2">  1       -1 0.42294190E-01 0.95193177E+03</pdfrwt>
<totfact> 0.75487051E-01</totfact>
</mgrwt>
</event>
<event>
 4    1  0.1043382E-007  0.6818206E+03  0.7818608E-02  0.1008312E+00
         -1   -1    0    0    0  501 -0.00000000000E+00  0.00000000000E+00  0.68903158573E+03  0.68903158575E+03  0.50400000000E-02 0.  1.
          1   -1    0    0  501    0  0.00000000000E+00 -0.00000000000E+00 -0.65872471954E+03  0.65872471956E+03  0.50400000000E-02 0. -1.
    8880023    1    1    2    0    0  0.30903714213E+02  0.17353408598E+03  0.48496608389E+03  0.83670271144E+03  0.65864270000E+03 0.  1.
    8880022    1    1    2    0    0 -0.30903714213E+02 -0.17353408598E+03 -0.45465921770E+03  0.51105359387E+03  0.15294330000E+03 0.  0.
<mgrwt>
<rscale>  0 0.52151050E+03</rscale>
<asrwt>0</asrwt>
<pdfrwt beam="1">  1        1 0.10134226E+00 0.68182060E+03</pdfrwt>
<pdfrwt beam="2">  1       -1 0.10600486E+00 0.68182060E+03</pdfrwt>
<totfact> 0.25687173E+01</totfact>
</mgrwt>
</event>
<event>
 4    1  0.1043382E-007  0.9170996E+03  0.7818608E-02  0.9499121E-01
          1   -1    0    0  501    0  0.00000000000E+00  0.00000000000E+00  0.10819743750E+04  0.10819743751E+04  0.50400000000E-02 0. -1.
         -1   -1    0    0    0  501 -0.00000000000E+00 -0.00000000000E+00 -0.66322030552E+03  0.66322030554E+03  0.50400000000E-02 0.  1.
    8880023    1    1    2    0    0  0.47296353322E+02 -0.63641530533E+03 -0.80505419722E+02  0.92062626226E+03  0.65864270000E+03 0.  1.
    8880022    1    1    2    0    0 -0.47296353322E+02  0.63641530533E+03  0.49925948924E+03  0.82456841833E+03  0.15294330000E+03 0.  0.
<mgrwt>
<rscale>  0 0.84348682E+03</rscale>
<asrwt>0</asrwt>
<pdfrwt beam="1">  1        1 0.16645759E+00 0.91709955E+03</pdfrwt>
<pdfrwt beam="2">  1       -1 0.10203389E+00 0.91709955E+03</pdfrwt>
<totfact> 0.12043579E+01</totfact>
</mgrwt>
</event>
<event>
 4    1  0.1043382E-007  0.7506671E+03  0.7818608E-02  0.9829898E-01
         -1   -1    0    0    0  501 -0.00000000000E+00  0.00000000000E+00  0.17912134833E+04  0.17912134833E+04  0.50400000000E-02 0.  1.
          1   -1    0    0  501    0  0.00000000000E+00 -0.00000000000E+00 -0.30841523508E+03  0.30841523512E+03  0.50400000000E-02 0. -1.
    8880023    1    1    2    0    0  0.35926534034E+03  0.24884690017E+02  0.15312792861E+04  0.17053789288E+04  0.65864270000E+03 0.  1.
    8880022    1    1    2    0    0 -0.35926534034E+03 -0.24884690017E+02 -0.48481037875E+02  0.39424978962E+03  0.15294330000E+03 0.  0.
<mgrwt>
<rscale>  0 0.63782452E+03</rscale>
<asrwt>0</asrwt>
<pdfrwt beam="1">  1        1 0.47448498E-01 0.75066706E+03</pdfrwt>
<pdfrwt beam="2">  1       -1 0.27557130E+00 0.75066706E+03</pdfrwt>
<totfact> 0.41944491E+00</totfact>
</mgrwt>
</event>
<event>
 4    1  0.1043382E-007  0.9263604E+03  0.7818608E-02  0.9484975E-01
         -1   -1    0    0    0  501 -0.00000000000E+00  0.00000000000E+00  0.11221901940E+04  0.11221901940E+04  0.50400000000E-02 0.  1.
          1   -1    0    0  501    0  0.00000000000E+00 -0.00000000000E+00 -0.79700747015E+03  0.79700747017E+03  0.50400000000E-02 0. -1.
    8880023    1    1    2    0    0  0.16307800875E+02 -0.65120461081E+03  0.69184663524E+03  0.11561986691E+04  0.65864270000E+03 0.  1.
    8880022    1    1    2    0    0 -0.16307800875E+02  0.65120461081E+03 -0.36666391140E+03  0.76299899505E+03  0.15294330000E+03 0.  0.
<mgrwt>
<rscale>  0 0.85400696E+03</rscale>
<asrwt>0</asrwt>
<pdfrwt beam="1">  1        1 0.12261654E+00 0.92636040E+03</pdfrwt>
<pdfrwt beam="2">  1       -1 0.17264464E+00 0.92636040E+03</pdfrwt>
<totfact> 0.52933842E+00</totfact>
</mgrwt>
</event>
<event>
 4    1  0.1043382E-007  0.9230164E+03  0.7818608E-02  0.9490049E-01
         -1   -1    0    0    0  501 -0.00000000000E+00  0.00000000000E+00  0.65821463047E+03  0.65821463049E+03  0.50400000000E-02 0.  1.
          1   -1    0    0  501    0  0.00000000000E+00 -0.00000000000E+00 -0.14817405530E+04  0.14817405530E+04  0.50400000000E-02 0. -1.
    8880023    1    1    2    0    0 -0.43390997395E+03 -0.47944889473E+03  0.17606060002E+03  0.93965772986E+03  0.65864270000E+03 0.  0.
    8880022    1    1    2    0    0  0.43390997395E+03  0.47944889473E+03 -0.99958652258E+03  0.12002974537E+04  0.15294330000E+03 0.  0.
<mgrwt>
<rscale>  0 0.85021433E+03</rscale>
<asrwt>0</asrwt>
<pdfrwt beam="1">  1        1 0.22796009E+00 0.92301642E+03</pdfrwt>
<pdfrwt beam="2">  1       -1 0.10126379E+00 0.92301642E+03</pdfrwt>
<totfact> 0.63306332E+00</totfact>
</mgrwt>
</event>
<event>
 4    1  0.1043382E-007  0.1354423E+04  0.7818608E-02  0.9019932E-01
          1   -1    0    0  501    0  0.00000000000E+00  0.00000000000E+00  0.25874885130E+04  0.25874885130E+04  0.50400000000E-02 0. -1.
         -1   -1    0    0    0  501 -0.00000000000E+00 -0.00000000000E+00 -0.10613227369E+04  0.10613227369E+04  0.50400000000E-02 0.  1.
    8880023    1    1    2    0    0 -0.11481702070E+04 -0.28697734808E+03 -0.37390353206E+03  0.14050853640E+04  0.65864270000E+03 0.  0.
    8880022    1    1    2    0    0  0.11481702070E+04  0.28697734808E+03  0.19000693081E+04  0.22437258859E+04  0.15294330000E+03 0.  0.
<mgrwt>
<rscale>  0 0.13122182E+04</rscale>
<asrwt>0</asrwt>
<pdfrwt beam="1">  1        1 0.39807515E+00 0.13544228E+04</pdfrwt>
<pdfrwt beam="2">  1       -1 0.16328042E+00 0.13544228E+04</pdfrwt>
<totfact> 0.31399336E-01</totfact>
</mgrwt>
</event>
<event>
 4    1  0.1043382E-007  0.8417060E+03  0.7818608E-02  0.9626972E-01
         -1   -1    0    0    0  501 -0.00000000000E+00  0.00000000000E+00  0.62385169195E+03  0.62385169197E+03  0.50400000000E-02 0.  1.
          1   -1    0    0  501    0  0.00000000000E+00 -0.00000000000E+00 -0.98528965106E+03  0.98528965108E+03  0.50400000000E-02 0. -1.
    8880023    1    1    2    0    0 -0.32441195612E+03 -0.41160136438E+03 -0.57881482778E+03  0.10215163296E+04  0.65864270000E+03 0. -1.
    8880022    1    1    2    0    0  0.32441195612E+03  0.41160136438E+03  0.21737686867E+03  0.58762501349E+03  0.15294330000E+03 0.  0.
<mgrwt>
<rscale>  0 0.75536445E+03</rscale>
<asrwt>0</asrwt>
<pdfrwt beam="1">  1        1 0.15158302E+00 0.84170601E+03</pdfrwt>
<pdfrwt beam="2">  1       -1 0.95977184E-01 0.84170601E+03</pdfrwt>
<totfact> 0.16565625E+01</totfact>
</mgrwt>
</event>
<event>
 4    1  0.1043382E-007  0.1272257E+04  0.7818608E-02  0.9089895E-01
         -1   -1    0    0    0  501 -0.00000000000E+00  0.00000000000E+00  0.87311518417E+03  0.87311518418E+03  0.50400000000E-02 0.  1.
          1   -1    0    0  501    0  0.00000000000E+00 -0.00000000000E+00 -0.26535358840E+04  0.26535358840E+04  0.50400000000E-02 0. -1.
    8880023    1    1    2    0    0 -0.58498143475E+03  0.91794636838E+03  0.17423259773E+03  0.12841323992E+04  0.65864270000E+03 0.  0.
    8880022    1    1    2    0    0  0.58498143475E+03 -0.91794636838E+03 -0.19546532976E+04  0.22425186691E+04  0.15294330000E+03 0.  0.
<mgrwt>
<rscale>  0 0.12265903E+04</rscale>
<asrwt>0</asrwt>
<pdfrwt beam="1">  1        1 0.40823629E+00 0.12722575E+04</pdfrwt>
<pdfrwt beam="2">  1       -1 0.13432541E+00 0.12722575E+04</pdfrwt>
<totfact> 0.48356772E-01</totfact>
</mgrwt>
</event>
<event>
 4    1  0.1043382E-007  0.7268549E+03  0.7818608E-02  0.9900039E-01
          1   -1    0    0  501    0  0.00000000000E+00  0.00000000000E+00  0.37289491067E+03  0.37289491071E+03  0.50400000000E-02 0. -1.
         -1   -1    0    0    0  501 -0.00000000000E+00 -0.00000000000E+00 -0.19272504615E+04  0.19272504615E+04  0.50400000000E-02 0.  1.
    8880023    1    1    2    0    0  0.25924578228E+03 -0.16522558461E+03 -0.17570211134E+04  0.19014313736E+04  0.65864270000E+03 0.  0.
    8880022    1    1    2    0    0 -0.25924578228E+03  0.16522558461E+03  0.20266556253E+03  0.39871399862E+03  0.15294330000E+03 0. -1.
<mgrwt>
<rscale>  0 0.60259401E+03</rscale>
<asrwt>0</asrwt>
<pdfrwt beam="1">  1        1 0.57368449E-01 0.72685492E+03</pdfrwt>
<pdfrwt beam="2">  1       -1 0.29650006E+00 0.72685492E+03</pdfrwt>
<totfact> 0.24149583E+00</totfact>
</mgrwt>
</event>
<event>
 4    1  0.1043382E-007  0.8942180E+03  0.7818608E-02  0.9535378E-01
          1   -1    0    0  501    0  0.00000000000E+00  0.00000000000E+00  0.13949528041E+04  0.13949528041E+04  0.50400000000E-02 0. -1.
         -1   -1    0    0    0  501 -0.00000000000E+00 -0.00000000000E+00 -0.47253418585E+03  0.47253418588E+03  0.50400000000E-02 0.  1.
    8880023    1    1    2    0    0 -0.60313268131E+03 -0.45239925350E+02  0.85975051810E+03  0.12404825036E+04  0.65864270000E+03 0. -1.
    8880022    1    1    2    0    0  0.60313268131E+03  0.45239925350E+02  0.62668100108E+02  0.62700448634E+03  0.15294330000E+03 0.  0.
<mgrwt>
<rscale>  0 0.81725050E+03</rscale>
<asrwt>0</asrwt>
<pdfrwt beam="1">  1        1 0.21460812E+00 0.89421803E+03</pdfrwt>
<pdfrwt beam="2">  1       -1 0.72697569E-01 0.89421803E+03</pdfrwt>
<totfact> 0.15022841E+01</totfact>
</mgrwt>
</event>
<event>
 4    1  0.1043382E-007  0.1207624E+04  0.7818608E-02  0.9149747E-01
         -1   -1    0    0    0  501 -0.00000000000E+00  0.00000000000E+00  0.94565581212E+03  0.94565581213E+03  0.50400000000E-02 0.  1.
          1   -1    0    0  501    0  0.00000000000E+00 -0.00000000000E+00 -0.28780808413E+04  0.28780808413E+04  0.50400000000E-02 0. -1.
    8880023    1    1    2    0    0  0.60680416049E+03  0.81014461381E+03  0.40357859089E+03  0.12732758812E+04  0.65864270000E+03 0.  0.
    8880022    1    1    2    0    0 -0.60680416049E+03 -0.81014461381E+03 -0.23360036201E+04  0.25504607722E+04  0.15294330000E+03 0.  0.
<mgrwt>
<rscale>  0 0.11587526E+04</rscale>
<asrwt>0</asrwt>
<pdfrwt beam="1">  1        1 0.44278166E+00 0.12076240E+04</pdfrwt>
<pdfrwt beam="2">  1       -1 0.14548551E+00 0.12076240E+04</pdfrwt>
<totfact> 0.27473847E-01</totfact>
</mgrwt>
</event>
<event>
 4    1  0.1043382E-007  0.7745685E+03  0.7818608E-02  0.9768754E-01
         -1   -1    0    0    0  501 -0.00000000000E+00  0.00000000000E+00  0.47372116306E+03  0.47372116309E+03  0.50400000000E-02 0.  1.
          1   -1    0    0  501    0  0.00000000000E+00 -0.00000000000E+00 -0.92775532789E+03  0.92775532790E+03  0.50400000000E-02 0. -1.
    8880023    1    1    2    0    0  0.29631732171E+03  0.27989681035E+03 -0.29591272642E+01  0.77457416836E+03  0.65864270000E+03 0.  1.
    8880022    1    1    2    0    0 -0.29631732171E+03 -0.27989681035E+03 -0.45107503756E+03  0.62690232263E+03  0.15294330000E+03 0.  0.
<mgrwt>
<rscale>  0 0.67066689E+03</rscale>
<asrwt>0</asrwt>
<pdfrwt beam="1">  1        1 0.14273159E+00 0.77456852E+03</pdfrwt>
<pdfrwt beam="2">  1       -1 0.72880179E-01 0.77456852E+03</pdfrwt>
<totfact> 0.33548163E+01</totfact>
</mgrwt>
</event>
<event>
 4    1  0.1043382E-007  0.6729384E+03  0.7818608E-02  0.1013638E+00
          1   -1    0    0  501    0  0.00000000000E+00  0.00000000000E+00  0.20743216854E+03  0.20743216860E+03  0.50400000000E-02 0. -1.
         -1   -1    0    0    0  501 -0.00000000000E+00 -0.00000000000E+00 -0.12463197390E+04  0.12463197390E+04  0.50400000000E-02 0.  1.
    8880023    1    1    2    0    0  0.98558733391E+02  0.96551018036E+02 -0.10503765256E+04  0.12474521934E+04  0.65864270000E+03 0.  1.
    8880022    1    1    2    0    0 -0.98558733391E+02 -0.96551018036E+02  0.11488955059E+02  0.20629971429E+03  0.15294330000E+03 0. -1.
<mgrwt>
<rscale>  0 0.50053854E+03</rscale>
<asrwt>0</asrwt>
<pdfrwt beam="1">  1        1 0.31912642E-01 0.67293843E+03</pdfrwt>
<pdfrwt beam="2">  1       -1 0.19174149E+00 0.67293843E+03</pdfrwt>
<totfact> 0.25161095E+01</totfact>
</mgrwt>
</event>
<event>
 4    1  0.1043382E-007  0.6852897E+03  0.7818608E-02  0.1006477E+00
          1   -1    0    0  501    0  0.00000000000E+00  0.00000000000E+00  0.10660385697E+04  0.10660385697E+04  0.50400000000E-02 0. -1.
         -1   -1    0    0    0  501 -0.00000000000E+00 -0.00000000000E+00 -0.25955980097E+03  0.25955980102E+03  0.50400000000E-02 0.  1.
    8880023    1    1    2    0    0  0.35553767923E+02  0.18587019929E+03  0.27007460319E+03  0.73658828320E+03  0.65864270000E+03 0.  1.
    8880022    1    1    2    0    0 -0.35553767923E+02 -0.18587019929E+03  0.53640416556E+03  0.58901008756E+03  0.15294330000E+03 0.  0.
<mgrwt>
<rscale>  0 0.52899193E+03</rscale>
<asrwt>0</asrwt>
<pdfrwt beam="1">  1        1 0.16400593E+00 0.68528973E+03</pdfrwt>
<pdfrwt beam="2">  1       -1 0.39932277E-01 0.68528973E+03</pdfrwt>
<totfact> 0.84403012E+01</totfact>
</mgrwt>
</event>
<event>
 4    1  0.1043382E-007  0.1038235E+04  0.7818608E-02  0.9333159E-01
          1   -1    0    0  501    0  0.00000000000E+00  0.00000000000E+00  0.13254784248E+04  0.13254784248E+04  0.50400000000E-02 0. -1.
         -1   -1    0    0    0  501 -0.00000000000E+00 -0.00000000000E+00 -0.19468876140E+04  0.19468876140E+04  0.50400000000E-02 0.  1.
    8880023    1    1    2    0    0  0.67521854179E+03 -0.43382330811E+03 -0.16557081380E+04  0.19543035553E+04  0.65864270000E+03 0.  0.
    8880022    1    1    2    0    0 -0.67521854179E+03  0.43382330811E+03  0.10342989488E+04  0.13180624834E+04  0.15294330000E+03 0.  0.
<mgrwt>
<rscale>  0 0.97786631E+03</rscale>
<asrwt>0</asrwt>
<pdfrwt beam="1">  1        1 0.20391976E+00 0.10382355E+04</pdfrwt>
<pdfrwt beam="2">  1       -1 0.29952117E+00 0.10382355E+04</pdfrwt>
<totfact> 0.29111749E-01</totfact>
</mgrwt>
</event>
<event>
 4    1  0.1043382E-007  0.7101993E+03  0.7818608E-02  0.9957262E-01
          1   -1    0    0  501    0  0.00000000000E+00  0.00000000000E+00  0.15003412338E+04  0.15003412338E+04  0.50400000000E-02 0. -1.
         -1   -1    0    0    0  501 -0.00000000000E+00 -0.00000000000E+00 -0.41103513990E+03  0.41103513993E+03  0.50400000000E-02 0.  1.
    8880023    1    1    2    0    0  0.16874418018E+03 -0.20517844474E+03 -0.68672879282E+02  0.71351171199E+03  0.65864270000E+03 0.  1.
    8880022    1    1    2    0    0 -0.16874418018E+03  0.20517844474E+03  0.11579789732E+04  0.11978646618E+04  0.15294330000E+03 0.  0.
<mgrwt>
<rscale>  0 0.57564616E+03</rscale>
<asrwt>0</asrwt>
<pdfrwt beam="1">  1        1 0.23082173E+00 0.71019927E+03</pdfrwt>
<pdfrwt beam="2">  1       -1 0.63236174E-01 0.71019927E+03</pdfrwt>
<totfact> 0.17266988E+01</totfact>
</mgrwt>
</event>
<event>
 4    1  0.1043382E-007  0.8636392E+03  0.7818608E-02  0.9587123E-01
         -1   -1    0    0    0  501 -0.00000000000E+00  0.00000000000E+00  0.66815060802E+03  0.66815060804E+03  0.50400000000E-02 0.  1.
          1   -1    0    0  501    0  0.00000000000E+00 -0.00000000000E+00 -0.11755506267E+04  0.11755506267E+04  0.50400000000E-02 0. -1.
    8880023    1    1    2    0    0  0.45394952522E+03 -0.32556446882E+03  0.24168681043E+03  0.89681944415E+03  0.65864270000E+03 0.  1.
    8880022    1    1    2    0    0 -0.45394952522E+03  0.32556446882E+03 -0.74908682908E+03  0.94688179057E+03  0.15294330000E+03 0. -1.
<mgrwt>
<rscale>  0 0.78154389E+03</rscale>
<asrwt>0</asrwt>
<pdfrwt beam="1">  1        1 0.18085394E+00 0.86363916E+03</pdfrwt>
<pdfrwt beam="2">  1       -1 0.10279240E+00 0.86363916E+03</pdfrwt>
<totfact> 0.10149682E+01</totfact>
</mgrwt>
</event>
<event>
 4    1  0.1043382E-007  0.6789265E+03  0.7818608E-02  0.1009938E+00
         -1   -1    0    0    0  501 -0.00000000000E+00  0.00000000000E+00  0.72706646271E+03  0.72706646273E+03  0.50400000000E-02 0.  1.
          1   -1    0    0  501    0  0.00000000000E+00 -0.00000000000E+00 -0.64924899422E+03  0.64924899424E+03  0.50400000000E-02 0. -1.
    8880023    1    1    2    0    0  0.20702939560E+01 -0.16470173074E+03  0.53663359407E+03  0.86539977280E+03  0.65864270000E+03 0.  1.
    8880022    1    1    2    0    0 -0.20702939560E+01  0.16470173074E+03 -0.45881612557E+03  0.51091568417E+03  0.15294330000E+03 0.  0.
<mgrwt>
<rscale>  0 0.51499471E+03</rscale>
<asrwt>0</asrwt>
<pdfrwt beam="1">  1        1 0.99884461E-01 0.67892647E+03</pdfrwt>
<pdfrwt beam="2">  1       -1 0.11185638E+00 0.67892647E+03</pdfrwt>
<totfact> 0.23143223E+01</totfact>
</mgrwt>
</event>
<event>
 4    1  0.1043382E-007  0.6596296E+03  0.7818608E-02  0.1024539E+00
          1   -1    0    0  501    0  0.00000000000E+00  0.00000000000E+00  0.65524106864E+03  0.65524106866E+03  0.50400000000E-02 0. -1.
         -1   -1    0    0    0  501 -0.00000000000E+00 -0.00000000000E+00 -0.76569139431E+03  0.76569139433E+03  0.50400000000E-02 0.  1.
    8880023    1    1    2    0    0  0.27579631443E+02  0.23245793017E+02 -0.60926583640E+03  0.89795103911E+03  0.65864270000E+03 0.  0.
    8880022    1    1    2    0    0 -0.27579631443E+02 -0.23245793017E+02  0.49881551073E+03  0.52298142388E+03  0.15294330000E+03 0. -1.
<mgrwt>
<rscale>  0 0.46083566E+03</rscale>
<asrwt>0</asrwt>
<pdfrwt beam="1">  1        1 0.10080632E+00 0.65962960E+03</pdfrwt>
<pdfrwt beam="2">  1       -1 0.11779868E+00 0.65962960E+03</pdfrwt>
<totfact> 0.20228726E+01</totfact>
</mgrwt>
</event>
<event>
 4    1  0.1043382E-007  0.7198304E+03  0.7818608E-02  0.9923160E-01
          1   -1    0    0  501    0  0.00000000000E+00  0.00000000000E+00  0.18838380245E+04  0.18838380245E+04  0.50400000000E-02 0. -1.
         -1   -1    0    0    0  501 -0.00000000000E+00 -0.00000000000E+00 -0.16067459982E+03  0.16067459990E+03  0.50400000000E-02 0.  1.
    8880023    1    1    2    0    0  0.18084748255E+03  0.22724383198E+03  0.86269080898E+03  0.11235618404E+04  0.65864270000E+03 0.  1.
    8880022    1    1    2    0    0 -0.18084748255E+03 -0.22724383198E+03  0.86047261568E+03  0.92095078396E+03  0.15294330000E+03 0.  0.
<mgrwt>
<rscale>  0 0.59151853E+03</rscale>
<asrwt>0</asrwt>
<pdfrwt beam="1">  1        1 0.28982124E+00 0.71983038E+03</pdfrwt>
<pdfrwt beam="2">  1       -1 0.24719169E-01 0.71983038E+03</pdfrwt>
<totfact> 0.52821274E+01</totfact>
</mgrwt>
</event>
<event>
 4    1  0.1043382E-007  0.7467747E+03  0.7818608E-02  0.9840635E-01
         -1   -1    0    0    0  501 -0.00000000000E+00  0.00000000000E+00  0.51251959189E+03  0.51251959191E+03  0.50400000000E-02 0.  1.
          1   -1    0    0  501    0  0.00000000000E+00 -0.00000000000E+00 -0.88791195338E+03  0.88791195339E+03  0.50400000000E-02 0. -1.
    8880023    1    1    2    0    0 -0.18123807862E+03  0.30168699628E+03  0.13805718257E+03  0.75942891490E+03  0.65864270000E+03 0.  1.
    8880022    1    1    2    0    0  0.18123807862E+03 -0.30168699628E+03 -0.51344954406E+03  0.64100263040E+03  0.15294330000E+03 0.  0.
<mgrwt>
<rscale>  0 0.63226708E+03</rscale>
<asrwt>0</asrwt>
<pdfrwt beam="1">  1        1 0.13660184E+00 0.74677473E+03</pdfrwt>
<pdfrwt beam="2">  1       -1 0.78849168E-01 0.74677473E+03</pdfrwt>
<totfact> 0.30743677E+01</totfact>
</mgrwt>
</event>
<event>
 4    1  0.1043382E-007  0.8565182E+03  0.7818608E-02  0.9599787E-01
          1   -1    0    0  501    0  0.00000000000E+00  0.00000000000E+00  0.97381824131E+03  0.97381824132E+03  0.50400000000E-02 0. -1.
         -1   -1    0    0    0  501 -0.00000000000E+00 -0.00000000000E+00 -0.23621859138E+04  0.23621859138E+04  0.50400000000E-02 0.  1.
    8880023    1    1    2    0    0  0.48466551648E+03  0.25477945464E+03 -0.21909768285E+04  0.23524461530E+04  0.65864270000E+03 0.  1.
    8880022    1    1    2    0    0 -0.48466551648E+03 -0.25477945464E+03  0.80260915598E+03  0.98355800218E+03  0.15294330000E+03 0.  0.
<mgrwt>
<rscale>  0 0.77310270E+03</rscale>
<asrwt>0</asrwt>
<pdfrwt beam="1">  1        1 0.14981819E+00 0.85651821E+03</pdfrwt>
<pdfrwt beam="2">  1       -1 0.36341322E+00 0.85651821E+03</pdfrwt>
<totfact> 0.21081013E-01</totfact>
</mgrwt>
</event>
<event>
 4    1  0.1043382E-007  0.7231042E+03  0.7818608E-02  0.9912219E-01
          1   -1    0    0  501    0  0.00000000000E+00  0.00000000000E+00  0.12806923297E+04  0.12806923297E+04  0.50400000000E-02 0. -1.
         -1   -1    0    0    0  501 -0.00000000000E+00 -0.00000000000E+00 -0.23495022455E+03  0.23495022461E+03  0.50400000000E-02 0.  1.
    8880023    1    1    2    0    0  0.69168090149E+00 -0.29844430327E+03  0.51470756568E+03  0.88758299049E+03  0.65864270000E+03 0.  1.
    8880022    1    1    2    0    0 -0.69168090149E+00  0.29844430327E+03  0.53103453943E+03  0.62805956378E+03  0.15294330000E+03 0.  0.
<mgrwt>
<rscale>  0 0.59672739E+03</rscale>
<asrwt>0</asrwt>
<pdfrwt beam="1">  1        1 0.19702959E+00 0.72310420E+03</pdfrwt>
<pdfrwt beam="2">  1       -1 0.36146188E-01 0.72310420E+03</pdfrwt>
<totfact> 0.70174274E+01</totfact>
</mgrwt>
</event>
<event>
 4    1  0.1043382E-007  0.6840798E+03  0.7818608E-02  0.1007104E+00
         -1   -1    0    0    0  501 -0.00000000000E+00  0.00000000000E+00  0.15177250211E+03  0.15177250220E+03  0.50400000000E-02 0.  1.
          1   -1    0    0  501    0  0.00000000000E+00 -0.00000000000E+00 -0.19552500977E+04  0.19552500977E+04  0.50400000000E-02 0. -1.
    8880023    1    1    2    0    0  0.12469949018E+03 -0.13640030444E+03 -0.70377863967E+03  0.98146298240E+03  0.65864270000E+03 0.  1.
    8880022    1    1    2    0    0 -0.12469949018E+03  0.13640030444E+03 -0.10996989559E+04  0.11255596175E+04  0.15294330000E+03 0.  1.
<mgrwt>
<rscale>  0 0.52642027E+03</rscale>
<asrwt>0</asrwt>
<pdfrwt beam="1">  1        1 0.30080769E+00 0.68407983E+03</pdfrwt>
<pdfrwt beam="2">  1       -1 0.23349617E-01 0.68407983E+03</pdfrwt>
<totfact> 0.52366758E+01</totfact>
</mgrwt>
</event>
<event>
 4    1  0.1043382E-007  0.6847249E+03  0.7818608E-02  0.1006768E+00
          1   -1    0    0  501    0  0.00000000000E+00  0.00000000000E+00  0.64951614915E+03  0.64951614917E+03  0.50400000000E-02 0. -1.
         -1   -1    0    0    0  501 -0.00000000000E+00 -0.00000000000E+00 -0.34067097558E+03  0.34067097562E+03  0.50400000000E-02 0.  1.
    8880023    1    1    2    0    0 -0.11437016021E+02  0.18683464025E+03  0.15005391715E+03  0.70097387430E+03  0.65864270000E+03 0.  0.
    8880022    1    1    2    0    0  0.11437016021E+02 -0.18683464025E+03  0.15879125641E+03  0.28921325049E+03  0.15294330000E+03 0.  0.
<mgrwt>
<rscale>  0 0.52779618E+03</rscale>
<asrwt>0</asrwt>
<pdfrwt beam="1">  1        1 0.99925561E-01 0.68472490E+03</pdfrwt>
<pdfrwt beam="2">  1       -1 0.52410919E-01 0.68472490E+03</pdfrwt>
<totfact> 0.11429485E+02</totfact>
</mgrwt>
</event>
<event>
 4    1  0.1043382E-007  0.6625441E+03  0.7818608E-02  0.1021689E+00
         -1   -1    0    0    0  501 -0.00000000000E+00  0.00000000000E+00  0.82063512432E+03  0.82063512433E+03  0.50400000000E-02 0.  1.
          1   -1    0    0  501    0  0.00000000000E+00 -0.00000000000E+00 -0.60446973750E+03  0.60446973752E+03  0.50400000000E-02 0. -1.
    8880023    1    1    2    0    0  0.71722541486E+02  0.32268866478E+01  0.66913505523E+03  0.94165092479E+03  0.65864270000E+03 0.  1.
    8880022    1    1    2    0    0 -0.71722541486E+02 -0.32268866478E+01 -0.45296966840E+03  0.48345393706E+03  0.15294330000E+03 0.  0.
<mgrwt>
<rscale>  0 0.47081971E+03</rscale>
<asrwt>0</asrwt>
<pdfrwt beam="1">  1        1 0.92995345E-01 0.66254414E+03</pdfrwt>
<pdfrwt beam="2">  1       -1 0.12625156E+00 0.66254414E+03</pdfrwt>
<totfact> 0.19187139E+01</totfact>
</mgrwt>
</event>
<event>
 4    1  0.1043382E-007  0.8532500E+03  0.7818608E-02  0.9605685E-01
          1   -1    0    0  501    0  0.00000000000E+00  0.00000000000E+00  0.13955519787E+04  0.13955519787E+04  0.50400000000E-02 0. -1.
         -1   -1    0    0    0  501 -0.00000000000E+00 -0.00000000000E+00 -0.44509531237E+03  0.44509531240E+03  0.50400000000E-02 0.  1.
    8880023    1    1    2    0    0  0.50893503332E+03  0.18764447094E+03  0.95019868344E+03  0.12770720653E+04  0.65864270000E+03 0. -1.
    8880022    1    1    2    0    0 -0.50893503332E+03 -0.18764447094E+03  0.25798289349E+00  0.56357522584E+03  0.15294330000E+03 0.  0.
<mgrwt>
<rscale>  0 0.76921045E+03</rscale>
<asrwt>0</asrwt>
<pdfrwt beam="1">  1        1 0.21470030E+00 0.85324998E+03</pdfrwt>
<pdfrwt beam="2">  1       -1 0.68476202E-01 0.85324998E+03</pdfrwt>
<totfact> 0.17053225E+01</totfact>
</mgrwt>
</event>
<event>
 4    1  0.1043382E-007  0.1486034E+04  0.7818608E-02  0.8919561E-01
          1   -1    0    0  501    0  0.00000000000E+00  0.00000000000E+00  0.15902848607E+04  0.15902848607E+04  0.50400000000E-02 0. -1.
         -1   -1    0    0    0  501 -0.00000000000E+00 -0.00000000000E+00 -0.20106899345E+04  0.20106899345E+04  0.50400000000E-02 0.  1.
    8880023    1    1    2    0    0 -0.56627317331E+03 -0.12057449981E+04  0.88501711590E+03  0.17296103055E+04  0.65864270000E+03 0.  0.
    8880022    1    1    2    0    0  0.56627317331E+03  0.12057449981E+04 -0.13054221897E+04  0.18713644898E+04  0.15294330000E+03 0.  0.
<mgrwt>
<rscale>  0 0.14483267E+04</rscale>
<asrwt>0</asrwt>
<pdfrwt beam="1">  1        1 0.24465921E+00 0.14860338E+04</pdfrwt>
<pdfrwt beam="2">  1       -1 0.30933691E+00 0.14860338E+04</pdfrwt>
<totfact> 0.15408760E-01</totfact>
</mgrwt>
</event>
<event>
 4    1  0.1043382E-007  0.8714443E+03  0.7818608E-02  0.9573522E-01
          1   -1    0    0  501    0  0.00000000000E+00  0.00000000000E+00  0.86745094174E+03  0.86745094175E+03  0.50400000000E-02 0. -1.
         -1   -1    0    0    0  501 -0.00000000000E+00 -0.00000000000E+00 -0.85099461299E+03  0.85099461300E+03  0.50400000000E-02 0.  1.
    8880023    1    1    2    0    0  0.29278569006E+03 -0.48977695611E+03 -0.43590315159E+03  0.97438528871E+03  0.65864270000E+03 0.  0.
    8880022    1    1    2    0    0 -0.29278569006E+03  0.48977695611E+03  0.45235948034E+03  0.74406026604E+03  0.15294330000E+03 0.  0.
<mgrwt>
<rscale>  0 0.79073755E+03</rscale>
<asrwt>0</asrwt>
<pdfrwt beam="1">  1        1 0.13345399E+00 0.87144428E+03</pdfrwt>
<pdfrwt beam="2">  1       -1 0.13092225E+00 0.87144428E+03</pdfrwt>
<totfact> 0.98006269E+00</totfact>
</mgrwt>
</event>
<event>
 4    1  0.1043382E-007  0.1018175E+04  0.7818608E-02  0.9358156E-01
          1   -1    0    0  501    0  0.00000000000E+00  0.00000000000E+00  0.58631655599E+03  0.58631655601E+03  0.50400000000E-02 0. -1.
         -1   -1    0    0    0  501 -0.00000000000E+00 -0.00000000000E+00 -0.18619153935E+04  0.18619153935E+04  0.50400000000E-02 0.  1.
    8880023    1    1    2    0    0 -0.35792420422E+03 -0.68902911538E+03 -0.13063462398E+04  0.16562673584E+04  0.65864270000E+03 0.  0.
    8880022    1    1    2    0    0  0.35792420422E+03  0.68902911538E+03  0.30747402349E+02  0.79196459111E+03  0.15294330000E+03 0.  0.
<mgrwt>
<rscale>  0 0.95600792E+03</rscale>
<asrwt>0</asrwt>
<pdfrwt beam="1">  1        1 0.90202548E-01 0.10181754E+04</pdfrwt>
<pdfrwt beam="2">  1       -1 0.28644852E+00 0.10181754E+04</pdfrwt>
<totfact> 0.14457732E+00</totfact>
</mgrwt>
</event>
<event>
 4    1  0.1043382E-007  0.7395213E+03  0.7818608E-02  0.9861344E-01
          1   -1    0    0  501    0  0.00000000000E+00  0.00000000000E+00  0.15519145725E+04  0.15519145725E+04  0.50400000000E-02 0. -1.
         -1   -1    0    0    0  501 -0.00000000000E+00 -0.00000000000E+00 -0.22067914602E+03  0.22067914608E+03  0.50400000000E-02 0.  1.
    8880023    1    1    2    0    0  0.20938931348E+03  0.26313053394E+03  0.59610100661E+03  0.94985692546E+03  0.65864270000E+03 0.  1.
    8880022    1    1    2    0    0 -0.20938931348E+03 -0.26313053394E+03  0.73513441990E+03  0.82273679316E+03  0.15294330000E+03 0.  0.
<mgrwt>
<rscale>  0 0.62171873E+03</rscale>
<asrwt>0</asrwt>
<pdfrwt beam="1">  1        1 0.23875609E+00 0.73952131E+03</pdfrwt>
<pdfrwt beam="2">  1       -1 0.33950638E-01 0.73952131E+03</pdfrwt>
<totfact> 0.50806334E+01</totfact>
</mgrwt>
</event>
<event>
 4    1  0.1043382E-007  0.6622489E+03  0.7818608E-02  0.1021962E+00
          1   -1    0    0  501    0  0.00000000000E+00  0.00000000000E+00  0.58524453789E+03  0.58524453791E+03  0.50400000000E-02 0. -1.
         -1   -1    0    0    0  501 -0.00000000000E+00 -0.00000000000E+00 -0.31146794999E+03  0.31146795003E+03  0.50400000000E-02 0.  1.
    8880023    1    1    2    0    0 -0.23512979417E+02  0.64888282642E+02  0.29973601250E+03  0.72692175155E+03  0.65864270000E+03 0. -1.
    8880022    1    1    2    0    0  0.23512979417E+02 -0.64888282642E+02 -0.25959424600E+02  0.16979073640E+03  0.15294330000E+03 0.  0.
<mgrwt>
<rscale>  0 0.46985122E+03</rscale>
<asrwt>0</asrwt>
<pdfrwt beam="1">  1        1 0.90037620E-01 0.66224886E+03</pdfrwt>
<pdfrwt beam="2">  1       -1 0.47918147E-01 0.66224886E+03</pdfrwt>
<totfact> 0.15767053E+02</totfact>
</mgrwt>
</event>
<event>
 4    1  0.1043382E-007  0.7632154E+03  0.7818608E-02  0.9796853E-01
         -1   -1    0    0    0  501 -0.00000000000E+00  0.00000000000E+00  0.71334292898E+03  0.71334292899E+03  0.50400000000E-02 0.  1.
          1   -1    0    0  501    0  0.00000000000E+00 -0.00000000000E+00 -0.53415819075E+03  0.53415819078E+03  0.50400000000E-02 0. -1.
    8880023    1    1    2    0    0 -0.30732990695E+03 -0.23288609786E+03  0.29271324421E+03  0.81742207940E+03  0.65864270000E+03 0.  1.
    8880022    1    1    2    0    0  0.30732990695E+03  0.23288609786E+03 -0.11352850599E+03  0.43007904038E+03  0.15294330000E+03 0. -1.
<mgrwt>
<rscale>  0 0.65531699E+03</rscale>
<asrwt>0</asrwt>
<pdfrwt beam="1">  1        1 0.82178184E-01 0.76321544E+03</pdfrwt>
<pdfrwt beam="2">  1       -1 0.10974507E+00 0.76321544E+03</pdfrwt>
<totfact> 0.31716464E+01</totfact>
</mgrwt>
</event>
<event>
 4    1  0.1043382E-007  0.1143805E+04  0.7818608E-02  0.9213784E-01
         -1   -1    0    0    0  501 -0.00000000000E+00  0.00000000000E+00  0.16299777270E+04  0.16299777270E+04  0.50400000000E-02 0.  1.
          1   -1    0    0  501    0  0.00000000000E+00 -0.00000000000E+00 -0.10659807371E+04  0.10659807371E+04  0.50400000000E-02 0. -1.
    8880023    1    1    2    0    0 -0.92278316774E+03 -0.15149330166E+03  0.11170755775E+04  0.15987954989E+04  0.65864270000E+03 0.  0.
    8880022    1    1    2    0    0  0.92278316774E+03  0.15149330166E+03 -0.55307858757E+03  0.10971629652E+04  0.15294330000E+03 0.  0.
<mgrwt>
<rscale>  0 0.10912283E+04</rscale>
<asrwt>0</asrwt>
<pdfrwt beam="1">  1        1 0.16399704E+00 0.11438047E+04</pdfrwt>
<pdfrwt beam="2">  1       -1 0.25076580E+00 0.11438047E+04</pdfrwt>
<totfact> 0.91695592E-01</totfact>
</mgrwt>
</event>
<event>
 4    1  0.1043382E-007  0.8825817E+03  0.7818608E-02  0.9554593E-01
          1   -1    0    0  501    0  0.00000000000E+00  0.00000000000E+00  0.12719016523E+04  0.12719016523E+04  0.50400000000E-02 0. -1.
         -1   -1    0    0    0  501 -0.00000000000E+00 -0.00000000000E+00 -0.68736563292E+03  0.68736563294E+03  0.50400000000E-02 0.  1.
    8880023    1    1    2    0    0 -0.54889014519E+03 -0.20942728927E+03 -0.25917956782E+03  0.91985022456E+03  0.65864270000E+03 0.  1.
    8880022    1    1    2    0    0  0.54889014519E+03  0.20942728927E+03  0.84371558724E+03  0.10394170607E+04  0.15294330000E+03 0.  0.
<mgrwt>
<rscale>  0 0.80375845E+03</rscale>
<asrwt>0</asrwt>
<pdfrwt beam="1">  1        1 0.19567717E+00 0.88258166E+03</pdfrwt>
<pdfrwt beam="2">  1       -1 0.10574856E+00 0.88258166E+03</pdfrwt>
<totfact> 0.80756883E+00</totfact>
</mgrwt>
</event>
<event>
 4    1  0.1043382E-007  0.9410527E+03  0.7818608E-02  0.9463106E-01
          1   -1    0    0  501    0  0.00000000000E+00  0.00000000000E+00  0.68416530545E+03  0.68416530547E+03  0.50400000000E-02 0. -1.
         -1   -1    0    0    0  501 -0.00000000000E+00 -0.00000000000E+00 -0.15996896271E+04  0.15996896271E+04  0.50400000000E-02 0.  1.
    8880023    1    1    2    0    0 -0.64939960665E+03  0.17334996411E+03 -0.12111861624E+04  0.15338031769E+04  0.65864270000E+03 0.  0.
    8880022    1    1    2    0    0  0.64939960665E+03 -0.17334996411E+03  0.29566184072E+03  0.75005175571E+03  0.15294330000E+03 0.  0.
<mgrwt>
<rscale>  0 0.87059397E+03</rscale>
<asrwt>0</asrwt>
<pdfrwt beam="1">  1        1 0.10525620E+00 0.94105274E+03</pdfrwt>
<pdfrwt beam="2">  1       -1 0.24610610E+00 0.94105274E+03</pdfrwt>
<totfact> 0.21176036E+00</totfact>
</mgrwt>
</event>
<event>
 4    1  0.1043382E-007  0.7564671E+03  0.7818608E-02  0.9814341E-01
         -1   -1    0    0    0  501 -0.00000000000E+00  0.00000000000E+00  0.75633068089E+03  0.75633068091E+03  0.50400000000E-02 0.  1.
          1   -1    0    0  501    0  0.00000000000E+00 -0.00000000000E+00 -0.12021620303E+04  0.12021620303E+04  0.50400000000E-02 0. -1.
    8880023    1    1    2    0    0  0.34424435768E+03  0.14116703297E+03  0.51615559617E+03  0.91578333394E+03  0.65864270000E+03 0.  0.
    8880022    1    1    2    0    0 -0.34424435768E+03 -0.14116703297E+03 -0.96198694562E+03  0.10427093773E+04  0.15294330000E+03 0.  0.
<mgrwt>
<rscale>  0 0.64598569E+03</rscale>
<asrwt>0</asrwt>
<pdfrwt beam="1">  1        1 0.18494801E+00 0.75646713E+03</pdfrwt>
<pdfrwt beam="2">  1       -1 0.11635857E+00 0.75646713E+03</pdfrwt>
<totfact> 0.73542949E+00</totfact>
</mgrwt>
</event>
<event>
 4    1  0.1043382E-007  0.6855082E+03  0.7818608E-02  0.1006365E+00
          1   -1    0    0  501    0  0.00000000000E+00  0.00000000000E+00  0.17887609677E+04  0.17887609678E+04  0.50400000000E-02 0. -1.
         -1   -1    0    0    0  501 -0.00000000000E+00 -0.00000000000E+00 -0.12649847851E+03  0.12649847861E+03  0.50400000000E-02 0.  1.
    8880023    1    1    2    0    0  0.18682874940E+03  0.34732799841E+02  0.13890729609E+04  0.15490142821E+04  0.65864270000E+03 0.  0.
    8880022    1    1    2    0    0 -0.18682874940E+03 -0.34732799841E+02  0.27318952830E+03  0.36624516430E+03  0.15294330000E+03 0. -1.
<mgrwt>
<rscale>  0 0.52945234E+03</rscale>
<asrwt>0</asrwt>
<pdfrwt beam="1">  1        1 0.27519398E+00 0.68550825E+03</pdfrwt>
<pdfrwt beam="2">  1       -1 0.19461305E-01 0.68550825E+03</pdfrwt>
<totfact> 0.91739327E+01</totfact>
</mgrwt>
</event>
<event>
 4    1  0.1043382E-007  0.6679375E+03  0.7818608E-02  0.1017187E+00
         -1   -1    0    0    0  501 -0.00000000000E+00  0.00000000000E+00  0.15790347310E+03  0.15790347318E+03  0.50400000000E-02 0.  1.
          1   -1    0    0  501    0  0.00000000000E+00 -0.00000000000E+00 -0.16054910023E+04  0.16054910023E+04  0.50400000000E-02 0. -1.
    8880023    1    1    2    0    0  0.54130826373E+02 -0.96954621928E+02 -0.60939975854E+03  0.90416183123E+03  0.65864270000E+03 0.  1.
    8880022    1    1    2    0    0 -0.54130826373E+02  0.96954621928E+02 -0.83818777065E+03  0.85923264426E+03  0.15294330000E+03 0.  0.
<mgrwt>
<rscale>  0 0.48715690E+03</rscale>
<asrwt>0</asrwt>
<pdfrwt beam="1">  1        1 0.24699860E+00 0.66793754E+03</pdfrwt>
<pdfrwt beam="2">  1       -1 0.24292843E-01 0.66793754E+03</pdfrwt>
<totfact> 0.84124676E+01</totfact>
</mgrwt>
</event>
<event>
 4    1  0.1043382E-007  0.8615273E+03  0.7818608E-02  0.9590852E-01
          1   -1    0    0  501    0  0.00000000000E+00  0.00000000000E+00  0.14608479022E+04  0.14608479022E+04  0.50400000000E-02 0. -1.
         -1   -1    0    0    0  501 -0.00000000000E+00 -0.00000000000E+00 -0.62499208028E+03  0.62499208030E+03  0.50400000000E-02 0.  1.
    8880023    1    1    2    0    0  0.37810645370E+03 -0.40676110941E+03 -0.21456466287E+03  0.88784418187E+03  0.65864270000E+03 0.  0.
    8880022    1    1    2    0    0 -0.37810645370E+03  0.40676110941E+03  0.10504204848E+04  0.11979958006E+04  0.15294330000E+03 0.  0.
<mgrwt>
<rscale>  0 0.77904598E+03</rscale>
<asrwt>0</asrwt>
<pdfrwt beam="1">  1        1 0.22474583E+00 0.86152730E+03</pdfrwt>
<pdfrwt beam="2">  1       -1 0.96152628E-01 0.86152730E+03</pdfrwt>
<totfact> 0.74225907E+00</totfact>
</mgrwt>
</event>
<event>
 4    1  0.1043382E-007  0.9154885E+03  0.7818608E-02  0.9501611E-01
          1   -1    0    0  501    0  0.00000000000E+00  0.00000000000E+00  0.14032677878E+04  0.14032677879E+04  0.50400000000E-02 0. -1.
         -1   -1    0    0    0  501 -0.00000000000E+00 -0.00000000000E+00 -0.58647865845E+03  0.58647865847E+03  0.50400000000E-02 0.  1.
    8880023    1    1    2    0    0  0.19338485493E+03  0.60573201114E+03 -0.34634883143E+02  0.91614341281E+03  0.65864270000E+03 0.  0.
    8880022    1    1    2    0    0 -0.19338485493E+03 -0.60573201114E+03  0.85142401255E+03  0.10736030335E+04  0.15294330000E+03 0.  0.
<mgrwt>
<rscale>  0 0.84165121E+03</rscale>
<asrwt>0</asrwt>
<pdfrwt beam="1">  1        1 0.21588735E+00 0.91548849E+03</pdfrwt>
<pdfrwt beam="2">  1       -1 0.90227486E-01 0.91548849E+03</pdfrwt>
<totfact> 0.93154283E+00</totfact>
</mgrwt>
</event>
<event>
 4    1  0.1043382E-007  0.7537935E+03  0.7818608E-02  0.9821449E-01
         -1   -1    0    0    0  501 -0.00000000000E+00  0.00000000000E+00  0.72674052369E+03  0.72674052371E+03  0.50400000000E-02 0.  1.
          1   -1    0    0  501    0  0.00000000000E+00 -0.00000000000E+00 -0.74966273997E+03  0.74966273998E+03  0.50400000000E-02 0. -1.
    8880023    1    1    2    0    0 -0.32048112897E+03 -0.17800646389E+03 -0.46215836352E+03  0.88419172946E+03  0.65864270000E+03 0.  0.
    8880022    1    1    2    0    0  0.32048112897E+03  0.17800646389E+03  0.43923614725E+03  0.59221153423E+03  0.15294330000E+03 0.  0.
<mgrwt>
<rscale>  0 0.64224080E+03</rscale>
<asrwt>0</asrwt>
<pdfrwt beam="1">  1        1 0.11533273E+00 0.75379351E+03</pdfrwt>
<pdfrwt beam="2">  1       -1 0.11180624E+00 0.75379351E+03</pdfrwt>
<totfact> 0.18484605E+01</totfact>
</mgrwt>
</event>
<event>
 4    1  0.1043382E-007  0.7223186E+03  0.7818608E-02  0.9914817E-01
         -1   -1    0    0    0  501 -0.00000000000E+00  0.00000000000E+00  0.57158866802E+03  0.57158866805E+03  0.50400000000E-02 0.  1.
          1   -1    0    0  501    0  0.00000000000E+00 -0.00000000000E+00 -0.49424423677E+03  0.49424423679E+03  0.50400000000E-02 0. -1.
    8880023    1    1    2    0    0  0.10527962603E+03  0.27721865801E+03  0.10974653757E+03  0.73060830325E+03  0.65864270000E+03 0.  1.
    8880022    1    1    2    0    0 -0.10527962603E+03 -0.27721865801E+03 -0.32402106311E+02  0.33522460159E+03  0.15294330000E+03 0.  0.
<mgrwt>
<rscale>  0 0.59548525E+03</rscale>
<asrwt>0</asrwt>
<pdfrwt beam="1">  1        1 0.76037575E-01 0.72231862E+03</pdfrwt>
<pdfrwt beam="2">  1       -1 0.87936718E-01 0.72231862E+03</pdfrwt>
<totfact> 0.58561240E+01</totfact>
</mgrwt>
</event>
<event>
 4    1  0.1043382E-007  0.8032727E+03  0.7818608E-02  0.9703764E-01
          1   -1    0    0  501    0  0.00000000000E+00  0.00000000000E+00  0.78439386435E+03  0.78439386437E+03  0.50400000000E-02 0. -1.
         -1   -1    0    0    0  501 -0.00000000000E+00 -0.00000000000E+00 -0.83816253877E+03  0.83816253878E+03  0.50400000000E-02 0.  1.
    8880023    1    1    2    0    0  0.11621850027E+03 -0.44489333400E+03 -0.51448604972E+03  0.95390928293E+03  0.65864270000E+03 0.  1.
    8880022    1    1    2    0    0 -0.11621850027E+03  0.44489333400E+03  0.46071737531E+03  0.66864712021E+03  0.15294330000E+03 0.  0.
<mgrwt>
<rscale>  0 0.70793127E+03</rscale>
<asrwt>0</asrwt>
<pdfrwt beam="1">  1        1 0.12067598E+00 0.80327270E+03</pdfrwt>
<pdfrwt beam="2">  1       -1 0.12894808E+00 0.80327270E+03</pdfrwt>
<totfact> 0.12086996E+01</totfact>
</mgrwt>
</event>
<event>
 4    1  0.1043382E-007  0.8521353E+03  0.7818608E-02  0.9607709E-01
         -1   -1    0    0    0  501 -0.00000000000E+00  0.00000000000E+00  0.73336947759E+03  0.73336947761E+03  0.50400000000E-02 0.  1.
          1   -1    0    0  501    0  0.00000000000E+00 -0.00000000000E+00 -0.94297280664E+03  0.94297280665E+03  0.50400000000E-02 0. -1.
    8880023    1    1    2    0    0 -0.18963532529E+03 -0.50632283710E+03  0.31415700305E+03  0.90820107949E+03  0.65864270000E+03 0.  1.
    8880022    1    1    2    0    0  0.18963532529E+03  0.50632283710E+03 -0.52376033210E+03  0.76814120477E+03  0.15294330000E+03 0.  0.
<mgrwt>
<rscale>  0 0.76788025E+03</rscale>
<asrwt>0</asrwt>
<pdfrwt beam="1">  1        1 0.14507274E+00 0.85213531E+03</pdfrwt>
<pdfrwt beam="2">  1       -1 0.11282607E+00 0.85213531E+03</pdfrwt>
<totfact> 0.12283831E+01</totfact>
</mgrwt>
</event>
<event>
 4    1  0.1043382E-007  0.7686045E+03  0.7818608E-02  0.9783320E-01
          1   -1    0    0  501    0  0.00000000000E+00  0.00000000000E+00  0.68585474908E+03  0.68585474910E+03  0.50400000000E-02 0. -1.
         -1   -1    0    0    0  501 -0.00000000000E+00 -0.00000000000E+00 -0.59264696144E+03  0.59264696147E+03  0.50400000000E-02 0.  1.
    8880023    1    1    2    0    0 -0.14500317153E+03 -0.36866892318E+03 -0.15860355305E+03  0.78479805554E+03  0.65864270000E+03 0.  1.
    8880022    1    1    2    0    0  0.14500317153E+03  0.36866892318E+03  0.25181134068E+03  0.49370365503E+03  0.15294330000E+03 0.  0.
<mgrwt>
<rscale>  0 0.66265428E+03</rscale>
<asrwt>0</asrwt>
<pdfrwt beam="1">  1        1 0.10551611E+00 0.76860452E+03</pdfrwt>
<pdfrwt beam="2">  1       -1 0.91176456E-01 0.76860452E+03</pdfrwt>
<totfact> 0.33720656E+01</totfact>
</mgrwt>
</event>
<event>
 4    1  0.1043382E-007  0.1108940E+04  0.7818608E-02  0.9251167E-01
         -1   -1    0    0    0  501 -0.00000000000E+00  0.00000000000E+00  0.46617150746E+03  0.46617150749E+03  0.50400000000E-02 0.  1.
          1   -1    0    0  501    0  0.00000000000E+00 -0.00000000000E+00 -0.32283246350E+04  0.32283246350E+04  0.50400000000E-02 0. -1.
    8880023    1    1    2    0    0 -0.79423609925E+03  0.40635792550E+03 -0.42397389950E+03  0.11872244180E+04  0.65864270000E+03 0.  0.
    8880022    1    1    2    0    0  0.79423609925E+03 -0.40635792550E+03 -0.23381792280E+04  0.25072717245E+04  0.15294330000E+03 0.  0.
<mgrwt>
<rscale>  0 0.10540552E+04</rscale>
<asrwt>0</asrwt>
<pdfrwt beam="1">  1        1 0.49666531E+00 0.11089400E+04</pdfrwt>
<pdfrwt beam="2">  1       -1 0.71718696E-01 0.11089400E+04</pdfrwt>
<totfact> 0.80653916E-01</totfact>
</mgrwt>
</event>
<event>
 4    1  0.1043382E-007  0.8614838E+03  0.7818608E-02  0.9590929E-01
         -1   -1    0    0    0  501 -0.00000000000E+00  0.00000000000E+00  0.34761380005E+03  0.34761380009E+03  0.50400000000E-02 0.  1.
          1   -1    0    0  501    0  0.00000000000E+00 -0.00000000000E+00 -0.18930371617E+04  0.18930371617E+04  0.50400000000E-02 0. -1.
    8880023    1    1    2    0    0  0.13076639385E+03  0.53967058289E+03 -0.38182738008E+03  0.94230915428E+03  0.65864270000E+03 0.  1.
    8880022    1    1    2    0    0 -0.13076639385E+03 -0.53967058289E+03 -0.11635959816E+04  0.12983418075E+04  0.15294330000E+03 0.  1.
<mgrwt>
<rscale>  0 0.77899451E+03</rscale>
<asrwt>0</asrwt>
<pdfrwt beam="1">  1        1 0.29123648E+00 0.86148383E+03</pdfrwt>
<pdfrwt beam="2">  1       -1 0.53479047E-01 0.86148383E+03</pdfrwt>
<totfact> 0.12755163E+01</totfact>
</mgrwt>
</event>
<event>
 4    1  0.1043382E-007  0.6859291E+03  0.7818608E-02  0.1006151E+00
          1   -1    0    0  501    0  0.00000000000E+00  0.00000000000E+00  0.12440815027E+04  0.12440815027E+04  0.50400000000E-02 0. -1.
         -1   -1    0    0    0  501 -0.00000000000E+00 -0.00000000000E+00 -0.37979464468E+03  0.37979464472E+03  0.50400000000E-02 0.  1.
    8880023    1    1    2    0    0  0.14883327205E+03  0.12057027802E+03 -0.39867053133E+02  0.68708669249E+03  0.65864270000E+03 0.  1.
    8880022    1    1    2    0    0 -0.14883327205E+03 -0.12057027802E+03  0.90415391114E+03  0.93678945492E+03  0.15294330000E+03 0.  0.
<mgrwt>
<rscale>  0 0.53033567E+03</rscale>
<asrwt>0</asrwt>
<pdfrwt beam="1">  1        1 0.19139715E+00 0.68592911E+03</pdfrwt>
<pdfrwt beam="2">  1       -1 0.58429946E-01 0.68592911E+03</pdfrwt>
<totfact> 0.30553853E+01</totfact>
</mgrwt>
</event>
<event>
 4    1  0.1043382E-007  0.8498780E+03  0.7818608E-02  0.9611828E-01
         -1   -1    0    0    0  501 -0.00000000000E+00  0.00000000000E+00  0.63723922740E+03  0.63723922742E+03  0.50400000000E-02 0.  1.
          1   -1    0    0  501    0  0.00000000000E+00 -0.00000000000E+00 -0.10451349535E+04  0.10451349536E+04  0.50400000000E-02 0. -1.
    8880023    1    1    2    0    0  0.42490832776E+03 -0.32853512292E+03  0.18297709055E+03  0.86935219326E+03  0.65864270000E+03 0. -1.
    8880022    1    1    2    0    0 -0.42490832776E+03  0.32853512292E+03 -0.59087281669E+03  0.81302198772E+03  0.15294330000E+03 0.  0.
<mgrwt>
<rscale>  0 0.76518218E+03</rscale>
<asrwt>0</asrwt>
<pdfrwt beam="1">  1        1 0.16078999E+00 0.84987800E+03</pdfrwt>
<pdfrwt beam="2">  1       -1 0.98036804E-01 0.84987800E+03</pdfrwt>
<totfact> 0.14180734E+01</totfact>
</mgrwt>
</event>
<event>
 4    1  0.1043382E-007  0.9288918E+03  0.7818608E-02  0.9481158E-01
          1   -1    0    0  501    0  0.00000000000E+00  0.00000000000E+00  0.78626262402E+03  0.78626262403E+03  0.50400000000E-02 0. -1.
         -1   -1    0    0    0  501 -0.00000000000E+00 -0.00000000000E+00 -0.86475776348E+03  0.86475776349E+03  0.50400000000E-02 0.  1.
    8880023    1    1    2    0    0  0.59827481252E+03  0.26664017316E+03 -0.23976015134E+03  0.95933563974E+03  0.65864270000E+03 0. -1.
    8880022    1    1    2    0    0 -0.59827481252E+03 -0.26664017316E+03  0.16126501189E+03  0.69168474778E+03  0.15294330000E+03 0. -1.
<mgrwt>
<rscale>  0 0.85687354E+03</rscale>
<asrwt>0</asrwt>
<pdfrwt beam="1">  1        1 0.12096348E+00 0.92889178E+03</pdfrwt>
<pdfrwt beam="2">  1       -1 0.13303966E+00 0.92889178E+03</pdfrwt>
<totfact> 0.10972513E+01</totfact>
</mgrwt>
</event>
<event>
 4    1  0.1043382E-007  0.8604083E+03  0.7818608E-02  0.9592838E-01
         -1   -1    0    0    0  501 -0.00000000000E+00  0.00000000000E+00  0.90184651750E+03  0.90184651752E+03  0.50400000000E-02 0.  1.
          1   -1    0    0  501    0  0.00000000000E+00 -0.00000000000E+00 -0.93015657060E+03  0.93015657061E+03  0.50400000000E-02 0. -1.
    8880023    1    1    2    0    0 -0.28795408876E+03  0.47283682209E+03  0.54659997608E+03  0.10193497720E+04  0.65864270000E+03 0.  0.
    8880022    1    1    2    0    0  0.28795408876E+03 -0.47283682209E+03 -0.57491002917E+03  0.81265331613E+03  0.15294330000E+03 0.  0.
<mgrwt>
<rscale>  0 0.77772055E+03</rscale>
<asrwt>0</asrwt>
<pdfrwt beam="1">  1        1 0.14310101E+00 0.86040829E+03</pdfrwt>
<pdfrwt beam="2">  1       -1 0.13874562E+00 0.86040829E+03</pdfrwt>
<totfact> 0.75152476E+00</totfact>
</mgrwt>
</event>
<event>
 4    1  0.1043382E-007  0.6756503E+03  0.7818608E-02  0.1011899E+00
         -1   -1    0    0    0  501 -0.00000000000E+00  0.00000000000E+00  0.38435242636E+03  0.38435242639E+03  0.50400000000E-02 0.  1.
          1   -1    0    0  501    0  0.00000000000E+00 -0.00000000000E+00 -0.14088810940E+04  0.14088810940E+04  0.50400000000E-02 0. -1.
    8880023    1    1    2    0    0  0.13425691022E+03 -0.68324723118E+02  0.68693296358E+02  0.67913338967E+03  0.65864270000E+03 0.  1.
    8880022    1    1    2    0    0 -0.13425691022E+03  0.68324723118E+02 -0.10932219640E+04  0.11141001307E+04  0.15294330000E+03 0.  0.
<mgrwt>
<rscale>  0 0.50726659E+03</rscale>
<asrwt>0</asrwt>
<pdfrwt beam="1">  1        1 0.21675093E+00 0.67565035E+03</pdfrwt>
<pdfrwt beam="2">  1       -1 0.59131143E-01 0.67565035E+03</pdfrwt>
<totfact> 0.22901085E+01</totfact>
</mgrwt>
</event>
<event>
 4    1  0.1043382E-007  0.9805757E+03  0.7818608E-02  0.9407424E-01
         -1   -1    0    0    0  501 -0.00000000000E+00  0.00000000000E+00  0.70801724192E+03  0.70801724194E+03  0.50400000000E-02 0.  1.
          1   -1    0    0  501    0  0.00000000000E+00 -0.00000000000E+00 -0.14154489114E+04  0.14154489114E+04  0.50400000000E-02 0. -1.
    8880023    1    1    2    0    0  0.72588082446E+03 -0.28555906768E+02  0.14705341113E+03  0.99154088323E+03  0.65864270000E+03 0.  0.
    8880022    1    1    2    0    0 -0.72588082446E+03  0.28555906768E+02 -0.85448508060E+03  0.11319252701E+04  0.15294330000E+03 0.  0.
<mgrwt>
<rscale>  0 0.91467250E+03</rscale>
<asrwt>0</asrwt>
<pdfrwt beam="1">  1        1 0.21776137E+00 0.98057566E+03</pdfrwt>
<pdfrwt beam="2">  1       -1 0.10892573E+00 0.98057566E+03</pdfrwt>
<totfact> 0.58950154E+00</totfact>
</mgrwt>
</event>
<event>
 4    1  0.1043382E-007  0.1084934E+04  0.7818608E-02  0.9278018E-01
          1   -1    0    0  501    0  0.00000000000E+00  0.00000000000E+00  0.54020938072E+03  0.54020938075E+03  0.50400000000E-02 0. -1.
         -1   -1    0    0    0  501 -0.00000000000E+00 -0.00000000000E+00 -0.18253580977E+04  0.18253580977E+04  0.50400000000E-02 0.  1.
    8880023    1    1    2    0    0  0.54814149012E+03  0.66544174014E+03 -0.89731128676E+03  0.14079238454E+04  0.65864270000E+03 0.  0.
    8880022    1    1    2    0    0 -0.54814149012E+03 -0.66544174014E+03 -0.38783743022E+03  0.95764363310E+03  0.15294330000E+03 0. -1.
<mgrwt>
<rscale>  0 0.10283196E+04</rscale>
<asrwt>0</asrwt>
<pdfrwt beam="1">  1        1 0.83109137E-01 0.10849341E+04</pdfrwt>
<pdfrwt beam="2">  1       -1 0.28082432E+00 0.10849341E+04</pdfrwt>
<totfact> 0.17517247E+00</totfact>
</mgrwt>
</event>
<event>
 4    1  0.1043382E-007  0.7070784E+03  0.7818608E-02  0.9969014E-01
         -1   -1    0    0    0  501 -0.00000000000E+00  0.00000000000E+00  0.18710012562E+03  0.18710012569E+03  0.50400000000E-02 0.  1.
          1   -1    0    0  501    0  0.00000000000E+00 -0.00000000000E+00 -0.16591647200E+04  0.16591647200E+04  0.50400000000E-02 0. -1.
    8880023    1    1    2    0    0  0.15118034159E+03  0.20807254860E+03 -0.61033904466E+03  0.93406297264E+03  0.65864270000E+03 0.  0.
    8880022    1    1    2    0    0 -0.15118034159E+03 -0.20807254860E+03 -0.86172554975E+03  0.91220187309E+03  0.15294330000E+03 0.  0.
<mgrwt>
<rscale>  0 0.57030034E+03</rscale>
<asrwt>0</asrwt>
<pdfrwt beam="1">  1        1 0.25525610E+00 0.70707842E+03</pdfrwt>
<pdfrwt beam="2">  1       -1 0.28784636E-01 0.70707842E+03</pdfrwt>
<totfact> 0.57612949E+01</totfact>
</mgrwt>
</event>
<event>
 4    1  0.1043382E-007  0.1047216E+04  0.7818608E-02  0.9322235E-01
          1   -1    0    0  501    0  0.00000000000E+00  0.00000000000E+00  0.15278115362E+04  0.15278115362E+04  0.50400000000E-02 0. -1.
         -1   -1    0    0    0  501 -0.00000000000E+00 -0.00000000000E+00 -0.63768078303E+03  0.63768078305E+03  0.50400000000E-02 0.  1.
    8880023    1    1    2    0    0 -0.14130806406E+03 -0.80180021714E+03  0.82755949247E+03  0.13347346092E+04  0.65864270000E+03 0. -1.
    8880022    1    1    2    0    0  0.14130806406E+03  0.80180021714E+03  0.62571260724E+02  0.83075771008E+03  0.15294330000E+03 0.  1.
<mgrwt>
<rscale>  0 0.98761351E+03</rscale>
<asrwt>0</asrwt>
<pdfrwt beam="1">  1        1 0.23504793E+00 0.10472162E+04</pdfrwt>
<pdfrwt beam="2">  1       -1 0.98104737E-01 0.10472162E+04</pdfrwt>
<totfact> 0.62329183E+00</totfact>
</mgrwt>
</event>
<event>
 4    1  0.1043382E-007  0.7222924E+03  0.7818608E-02  0.9914904E-01
         -1   -1    0    0    0  501 -0.00000000000E+00  0.00000000000E+00  0.17583792320E+03  0.17583792327E+03  0.50400000000E-02 0.  1.
          1   -1    0    0  501    0  0.00000000000E+00 -0.00000000000E+00 -0.15898555635E+04  0.15898555635E+04  0.50400000000E-02 0. -1.
    8880023    1    1    2    0    0  0.19822472728E+02 -0.29580934730E+03 -0.92174413422E+03  0.11710331147E+04  0.65864270000E+03 0. -1.
    8880022    1    1    2    0    0 -0.19822472728E+02  0.29580934730E+03 -0.49227350605E+03  0.59466037210E+03  0.15294330000E+03 0.  1.
<mgrwt>
<rscale>  0 0.59544370E+03</rscale>
<asrwt>0</asrwt>
<pdfrwt beam="1">  1        1 0.24459315E+00 0.72229240E+03</pdfrwt>
<pdfrwt beam="2">  1       -1 0.27051989E-01 0.72229240E+03</pdfrwt>
<totfact> 0.71311661E+01</totfact>
</mgrwt>
</event>
<event>
 4    1  0.1043382E-007  0.7286169E+03  0.7818608E-02  0.9894439E-01
          1   -1    0    0  501    0  0.00000000000E+00  0.00000000000E+00  0.30138714140E+03  0.30138714144E+03  0.50400000000E-02 0. -1.
         -1   -1    0    0    0  501 -0.00000000000E+00 -0.00000000000E+00 -0.16257758226E+04  0.16257758226E+04  0.50400000000E-02 0.  1.
    8880023    1    1    2    0    0 -0.11395391564E+03 -0.28997746178E+03 -0.13942202495E+04  0.15731283271E+04  0.65864270000E+03 0.  1.
    8880022    1    1    2    0    0  0.11395391564E+03  0.28997746178E+03  0.69831568253E+02  0.35403463696E+03  0.15294330000E+03 0.  0.
<mgrwt>
<rscale>  0 0.60531528E+03</rscale>
<asrwt>0</asrwt>
<pdfrwt beam="1">  1        1 0.46367253E-01 0.72861693E+03</pdfrwt>
<pdfrwt beam="2">  1       -1 0.25011935E+00 0.72861693E+03</pdfrwt>
<totfact> 0.63131124E+00</totfact>
</mgrwt>
</event>
<event>
 4    1  0.1043382E-007  0.1264299E+04  0.7818608E-02  0.9097020E-01
          1   -1    0    0  501    0  0.00000000000E+00  0.00000000000E+00  0.17892658079E+04  0.17892658079E+04  0.50400000000E-02 0. -1.
         -1   -1    0    0    0  501 -0.00000000000E+00 -0.00000000000E+00 -0.12939673734E+04  0.12939673734E+04  0.50400000000E-02 0.  1.
    8880023    1    1    2    0    0  0.22798672784E+03  0.10548290207E+04 -0.71661913404E+03  0.14532705875E+04  0.65864270000E+03 0.  0.
    8880022    1    1    2    0    0 -0.22798672784E+03 -0.10548290207E+04  0.12119175685E+04  0.16299625938E+04  0.15294330000E+03 0.  0.
<mgrwt>
<rscale>  0 0.12182628E+04</rscale>
<asrwt>0</asrwt>
<pdfrwt beam="1">  1        1 0.27527166E+00 0.12642992E+04</pdfrwt>
<pdfrwt beam="2">  1       -1 0.19907190E+00 0.12642992E+04</pdfrwt>
<totfact> 0.61531697E-01</totfact>
</mgrwt>
</event>
<event>
 4    1  0.1043382E-007  0.6608952E+03  0.7818608E-02  0.1023257E+00
          1   -1    0    0  501    0  0.00000000000E+00  0.00000000000E+00  0.15253781476E+04  0.15253781476E+04  0.50400000000E-02 0. -1.
         -1   -1    0    0    0  501 -0.00000000000E+00 -0.00000000000E+00 -0.55828606575E+03  0.55828606577E+03  0.50400000000E-02 0.  1.
    8880023    1    1    2    0    0  0.50724024968E+02 -0.19984784201E+02 -0.35597793746E+03  0.75066824665E+03  0.65864270000E+03 0.  1.
    8880022    1    1    2    0    0 -0.50724024968E+02  0.19984784201E+02  0.13230700193E+04  0.13329959667E+04  0.15294330000E+03 0.  0.
<mgrwt>
<rscale>  0 0.46529226E+03</rscale>
<asrwt>0</asrwt>
<pdfrwt beam="1">  1        1 0.23467356E+00 0.66089524E+03</pdfrwt>
<pdfrwt beam="2">  1       -1 0.85890164E-01 0.66089524E+03</pdfrwt>
<totfact> 0.88684716E+00</totfact>
</mgrwt>
</event>
<event>
 4    1  0.1043382E-007  0.7044345E+03  0.7818608E-02  0.9979280E-01
          1   -1    0    0  501    0  0.00000000000E+00  0.00000000000E+00  0.29091115925E+04  0.29091115926E+04  0.50400000000E-02 0. -1.
         -1   -1    0    0    0  501 -0.00000000000E+00 -0.00000000000E+00 -0.19918346224E+03  0.19918346230E+03  0.50400000000E-02 0.  1.
    8880023    1    1    2    0    0  0.25585642852E+02 -0.24852187181E+03  0.46439567254E+03  0.84373650675E+03  0.65864270000E+03 0.  1.
    8880022    1    1    2    0    0 -0.25585642852E+02  0.24852187181E+03  0.22455324578E+04  0.22645585481E+04  0.15294330000E+03 0.  0.
<mgrwt>
<rscale>  0 0.56568194E+03</rscale>
<asrwt>0</asrwt>
<pdfrwt beam="1">  1        1 0.44755564E+00 0.70443449E+03</pdfrwt>
<pdfrwt beam="2">  1       -1 0.30643609E-01 0.70443449E+03</pdfrwt>
<totfact> 0.73298483E+00</totfact>
</mgrwt>
</event>
<event>
 4    1  0.1043382E-007  0.7696121E+03  0.7818608E-02  0.9780829E-01
         -1   -1    0    0    0  501 -0.00000000000E+00  0.00000000000E+00  0.36300730508E+03  0.36300730511E+03  0.50400000000E-02 0.  1.
          1   -1    0    0  501    0  0.00000000000E+00 -0.00000000000E+00 -0.14142766880E+04  0.14142766880E+04  0.50400000000E-02 0. -1.
    8880023    1    1    2    0    0  0.39599323947E+03 -0.41012153629E+02 -0.15548981108E+03  0.78516235905E+03  0.65864270000E+03 0.  0.
    8880022    1    1    2    0    0 -0.39599323947E+03  0.41012153629E+02 -0.89577957180E+03  0.99212163403E+03  0.15294330000E+03 0.  0.
<mgrwt>
<rscale>  0 0.66401568E+03</rscale>
<asrwt>0</asrwt>
<pdfrwt beam="1">  1        1 0.21758103E+00 0.76961214E+03</pdfrwt>
<pdfrwt beam="2">  1       -1 0.55847278E-01 0.76961214E+03</pdfrwt>
<totfact> 0.25070381E+01</totfact>
</mgrwt>
</event>
<event>
 4    1  0.1043382E-007  0.7780550E+03  0.7818608E-02  0.9760426E-01
         -1   -1    0    0    0  501 -0.00000000000E+00  0.00000000000E+00  0.19907224534E+03  0.19907224541E+03  0.50400000000E-02 0.  1.
          1   -1    0    0  501    0  0.00000000000E+00 -0.00000000000E+00 -0.19532041058E+04  0.19532041058E+04  0.50400000000E-02 0. -1.
    8880023    1    1    2    0    0 -0.19374800067E+03 -0.36608892289E+03 -0.89196409974E+03  0.11836255948E+04  0.65864270000E+03 0.  0.
    8880022    1    1    2    0    0  0.19374800067E+03  0.36608892289E+03 -0.86216776067E+03  0.96865075635E+03  0.15294330000E+03 0.  0.
<mgrwt>
<rscale>  0 0.67530260E+03</rscale>
<asrwt>0</asrwt>
<pdfrwt beam="1">  1        1 0.30049293E+00 0.77805501E+03</pdfrwt>
<pdfrwt beam="2">  1       -1 0.30626501E-01 0.77805501E+03</pdfrwt>
<totfact> 0.32574415E+01</totfact>
</mgrwt>
</event>
<event>
 4    1  0.1043382E-007  0.7895871E+03  0.7818608E-02  0.9733780E-01
         -1   -1    0    0    0  501 -0.00000000000E+00  0.00000000000E+00  0.49545499947E+03  0.49545499950E+03  0.50400000000E-02 0.  1.
          1   -1    0    0  501    0  0.00000000000E+00 -0.00000000000E+00 -0.18171233916E+04  0.18171233916E+04  0.50400000000E-02 0. -1.
    8880023    1    1    2    0    0  0.36123506372E+03  0.24320119356E+03  0.12015899712E+03  0.79867764627E+03  0.65864270000E+03 0.  0.
    8880022    1    1    2    0    0 -0.36123506372E+03 -0.24320119356E+03 -0.14418273892E+04  0.15139007448E+04  0.15294330000E+03 0.  0.
<mgrwt>
<rscale>  0 0.69040661E+03</rscale>
<asrwt>0</asrwt>
<pdfrwt beam="1">  1        1 0.27955744E+00 0.78958711E+03</pdfrwt>
<pdfrwt beam="2">  1       -1 0.76223847E-01 0.78958711E+03</pdfrwt>
<totfact> 0.71176560E+00</totfact>
</mgrwt>
</event>
<event>
 4    1  0.1043382E-007  0.1124257E+04  0.7818608E-02  0.9234518E-01
          1   -1    0    0  501    0  0.00000000000E+00  0.00000000000E+00  0.25647719805E+04  0.25647719805E+04  0.50400000000E-02 0. -1.
         -1   -1    0    0    0  501 -0.00000000000E+00 -0.00000000000E+00 -0.46191177105E+03  0.46191177108E+03  0.50400000000E-02 0.  1.
    8880023    1    1    2    0    0  0.77806429187E+03 -0.47408723411E+03  0.16530496826E+04  0.19991313632E+04  0.65864270000E+03 0. -1.
    8880022    1    1    2    0    0 -0.77806429187E+03  0.47408723411E+03  0.44981052683E+03  0.10275523884E+04  0.15294330000E+03 0.  0.
<mgrwt>
<rscale>  0 0.10704138E+04</rscale>
<asrwt>0</asrwt>
<pdfrwt beam="1">  1        1 0.39458030E+00 0.11242566E+04</pdfrwt>
<pdfrwt beam="2">  1       -1 0.71063349E-01 0.11242566E+04</pdfrwt>
<totfact> 0.24494078E+00</totfact>
</mgrwt>
</event>
<event>
 4    1  0.1043382E-007  0.6687648E+03  0.7818608E-02  0.1016564E+00
         -1   -1    0    0    0  501 -0.00000000000E+00  0.00000000000E+00  0.40089095063E+03  0.40089095066E+03  0.50400000000E-02 0.  1.
          1   -1    0    0  501    0  0.00000000000E+00 -0.00000000000E+00 -0.55459167169E+03  0.55459167171E+03  0.50400000000E-02 0. -1.
    8880023    1    1    2    0    0 -0.81242362058E+02 -0.82679167287E+02  0.56146080287E+02  0.67111754164E+03  0.65864270000E+03 0.  0.
    8880022    1    1    2    0    0  0.81242362058E+02  0.82679167287E+02 -0.20984680135E+03  0.28436508074E+03  0.15294330000E+03 0.  0.
<mgrwt>
<rscale>  0 0.48947111E+03</rscale>
<asrwt>0</asrwt>
<pdfrwt beam="1">  1        1 0.85321795E-01 0.66876481E+03</pdfrwt>
<pdfrwt beam="2">  1       -1 0.61675531E-01 0.66876481E+03</pdfrwt>
<totfact> 0.10463321E+02</totfact>
</mgrwt>
</event>
<event>
 4    1  0.1043382E-007  0.9512408E+03  0.7818608E-02  0.9448331E-01
          1   -1    0    0  501    0  0.00000000000E+00  0.00000000000E+00  0.73063935236E+03  0.73063935238E+03  0.50400000000E-02 0. -1.
         -1   -1    0    0    0  501 -0.00000000000E+00 -0.00000000000E+00 -0.14520279552E+04  0.14520279552E+04  0.50400000000E-02 0.  1.
    8880023    1    1    2    0    0 -0.29779931599E+02 -0.68568357406E+03 -0.10411021295E+04  0.14102314201E+04  0.65864270000E+03 0.  1.
    8880022    1    1    2    0    0  0.29779931599E+02  0.68568357406E+03  0.31971352666E+03  0.77243588744E+03  0.15294330000E+03 0.  0.
<mgrwt>
<rscale>  0 0.88202744E+03</rscale>
<asrwt>0</asrwt>
<pdfrwt beam="1">  1        1 0.11240605E+00 0.95124078E+03</pdfrwt>
<pdfrwt beam="2">  1       -1 0.22338892E+00 0.95124078E+03</pdfrwt>
<totfact> 0.26959843E+00</totfact>
</mgrwt>
</event>
<event>
 4    1  0.1043382E-007  0.8640465E+03  0.7818608E-02  0.9586406E-01
         -1   -1    0    0    0  501 -0.00000000000E+00  0.00000000000E+00  0.12918021490E+04  0.12918021491E+04  0.50400000000E-02 0.  1.
          1   -1    0    0  501    0  0.00000000000E+00 -0.00000000000E+00 -0.56884819284E+03  0.56884819286E+03  0.50400000000E-02 0. -1.
    8880023    1    1    2    0    0  0.26721343490E+03 -0.49128718866E+03  0.90667026385E+03  0.12524485200E+04  0.65864270000E+03 0.  0.
    8880022    1    1    2    0    0 -0.26721343490E+03  0.49128718866E+03 -0.18371630764E+03  0.60820182196E+03  0.15294330000E+03 0.  0.
<mgrwt>
<rscale>  0 0.78202516E+03</rscale>
<asrwt>0</asrwt>
<pdfrwt beam="1">  1        1 0.87515106E-01 0.86404648E+03</pdfrwt>
<pdfrwt beam="2">  1       -1 0.19873879E+00 0.86404648E+03</pdfrwt>
<totfact> 0.57898398E+00</totfact>
</mgrwt>
</event>
<event>
 4    1  0.1043382E-007  0.9734299E+03  0.7818608E-02  0.9417176E-01
         -1   -1    0    0    0  501 -0.00000000000E+00  0.00000000000E+00  0.14714253632E+04  0.14714253632E+04  0.50400000000E-02 0.  1.
          1   -1    0    0  501    0  0.00000000000E+00 -0.00000000000E+00 -0.50295393583E+03  0.50295393586E+03  0.50400000000E-02 0. -1.
    8880023    1    1    2    0    0  0.66264706058E+03 -0.27322974607E+03  0.67670156197E+03  0.11855339857E+04  0.65864270000E+03 0.  1.
    8880022    1    1    2    0    0 -0.66264706058E+03  0.27322974607E+03  0.29176986540E+03  0.78884531336E+03  0.15294330000E+03 0. -1.
<mgrwt>
<rscale>  0 0.90675549E+03</rscale>
<asrwt>0</asrwt>
<pdfrwt beam="1">  1        1 0.77377530E-01 0.97342993E+03</pdfrwt>
<pdfrwt beam="2">  1       -1 0.22637313E+00 0.97342993E+03</pdfrwt>
<totfact> 0.44272280E+00</totfact>
</mgrwt>
</event>
<event>
 4    1  0.1043382E-007  0.6663455E+03  0.7818608E-02  0.1018430E+00
         -1   -1    0    0    0  501 -0.00000000000E+00  0.00000000000E+00  0.17839946629E+03  0.17839946637E+03  0.50400000000E-02 0.  1.
          1   -1    0    0  501    0  0.00000000000E+00 -0.00000000000E+00 -0.22060149920E+04  0.22060149920E+04  0.50400000000E-02 0. -1.
    8880023    1    1    2    0    0 -0.90853985196E+02  0.44177941572E+02 -0.46849782703E+03  0.81455911838E+03  0.65864270000E+03 0.  1.
    8880022    1    1    2    0    0  0.90853985196E+02 -0.44177941572E+02 -0.15591176987E+04  0.15698553400E+04  0.15294330000E+03 0.  0.
<mgrwt>
<rscale>  0 0.48257348E+03</rscale>
<asrwt>0</asrwt>
<pdfrwt beam="1">  1        1 0.33938690E+00 0.66634551E+03</pdfrwt>
<pdfrwt beam="2">  1       -1 0.27446073E-01 0.66634551E+03</pdfrwt>
<totfact> 0.27107024E+01</totfact>
</mgrwt>
</event>
<event>
 4    1  0.1043382E-007  0.6705307E+03  0.7818608E-02  0.1015285E+00
          1   -1    0    0  501    0  0.00000000000E+00  0.00000000000E+00  0.69806361772E+03  0.69806361774E+03  0.50400000000E-02 0. -1.
         -1   -1    0    0    0  501 -0.00000000000E+00 -0.00000000000E+00 -0.30312582957E+03  0.30312582961E+03  0.50400000000E-02 0.  1.
    8880023    1    1    2    0    0  0.88678067968E+02  0.89092423627E+02  0.15153320301E+03  0.68744001743E+03  0.65864270000E+03 0.  0.
    8880022    1    1    2    0    0 -0.88678067968E+02 -0.89092423627E+02  0.24340458515E+03  0.31374942992E+03  0.15294330000E+03 0.  0.
<mgrwt>
<rscale>  0 0.49427081E+03</rscale>
<asrwt>0</asrwt>
<pdfrwt beam="1">  1        1 0.10739440E+00 0.67053073E+03</pdfrwt>
<pdfrwt beam="2">  1       -1 0.46634743E-01 0.67053073E+03</pdfrwt>
<totfact> 0.12810964E+02</totfact>
</mgrwt>
</event>
<event>
 4    1  0.1043382E-007  0.7181081E+03  0.7818608E-02  0.9929040E-01
         -1   -1    0    0    0  501 -0.00000000000E+00  0.00000000000E+00  0.20240103659E+04  0.20240103659E+04  0.50400000000E-02 0.  1.
          1   -1    0    0  501    0  0.00000000000E+00 -0.00000000000E+00 -0.20011450435E+03  0.20011450442E+03  0.50400000000E-02 0. -1.
    8880023    1    1    2    0    0 -0.26055814641E+03 -0.11823083681E+03  0.17496713966E+04  0.18913035930E+04  0.65864270000E+03 0.  1.
    8880022    1    1    2    0    0  0.26055814641E+03  0.11823083681E+03  0.74224464922E+02  0.33282127733E+03  0.15294330000E+03 0. -1.
<mgrwt>
<rscale>  0 0.58874290E+03</rscale>
<asrwt>0</asrwt>
<pdfrwt beam="1">  1        1 0.30786847E-01 0.71810813E+03</pdfrwt>
<pdfrwt beam="2">  1       -1 0.31138621E+00 0.71810813E+03</pdfrwt>
<totfact> 0.43563418E+00</totfact>
</mgrwt>
</event>
<event>
 4    1  0.1043382E-007  0.8933044E+03  0.7818608E-02  0.9536867E-01
         -1   -1    0    0    0  501 -0.00000000000E+00  0.00000000000E+00  0.12256161838E+04  0.12256161838E+04  0.50400000000E-02 0.  1.
          1   -1    0    0  501    0  0.00000000000E+00 -0.00000000000E+00 -0.49638471165E+03  0.49638471167E+03  0.50400000000E-02 0. -1.
    8880023    1    1    2    0    0  0.43548542473E+03 -0.41777393557E+03  0.62632713971E+03  0.10909988582E+04  0.65864270000E+03 0.  1.
    8880022    1    1    2    0    0 -0.43548542473E+03  0.41777393557E+03  0.10290433243E+03  0.63100203727E+03  0.15294330000E+03 0.  0.
<mgrwt>
<rscale>  0 0.81619511E+03</rscale>
<asrwt>0</asrwt>
<pdfrwt beam="1">  1        1 0.76366879E-01 0.89330444E+03</pdfrwt>
<pdfrwt beam="2">  1       -1 0.18855634E+00 0.89330444E+03</pdfrwt>
<totfact> 0.82186638E+00</totfact>
</mgrwt>
</event>
<event>
 4    1  0.1043382E-007  0.7568481E+03  0.7818608E-02  0.9813337E-01
         -1   -1    0    0    0  501 -0.00000000000E+00  0.00000000000E+00  0.29285917047E+03  0.29285917051E+03  0.50400000000E-02 0.  1.
          1   -1    0    0  501    0  0.00000000000E+00 -0.00000000000E+00 -0.13626733653E+04  0.13626733653E+04  0.50400000000E-02 0. -1.
    8880023    1    1    2    0    0 -0.35775370216E+03 -0.10498178879E+03 -0.35729558677E+03  0.83694637222E+03  0.65864270000E+03 0.  1.
    8880022    1    1    2    0    0  0.35775370216E+03  0.10498178879E+03 -0.71251860810E+03  0.81858616363E+03  0.15294330000E+03 0.  1.
<mgrwt>
<rscale>  0 0.64651706E+03</rscale>
<asrwt>0</asrwt>
<pdfrwt beam="1">  1        1 0.20964205E+00 0.75684813E+03</pdfrwt>
<pdfrwt beam="2">  1       -1 0.45055258E-01 0.75684813E+03</pdfrwt>
<totfact> 0.40983316E+01</totfact>
</mgrwt>
</event>
<event>
 4    1  0.1043382E-007  0.7305460E+03  0.7818608E-02  0.9888394E-01
          1   -1    0    0  501    0  0.00000000000E+00  0.00000000000E+00  0.67802268180E+03  0.67802268182E+03  0.50400000000E-02 0. -1.
         -1   -1    0    0    0  501 -0.00000000000E+00 -0.00000000000E+00 -0.68515243837E+03  0.68515243839E+03  0.50400000000E-02 0.  1.
    8880023    1    1    2    0    0  0.28298221098E+03  0.14074193598E+03 -0.40275820891E+03  0.83421316544E+03  0.65864270000E+03 0.  1.
    8880022    1    1    2    0    0 -0.28298221098E+03 -0.14074193598E+03  0.39562845234E+03  0.52896195477E+03  0.15294330000E+03 0.  0.
<mgrwt>
<rscale>  0 0.60827049E+03</rscale>
<asrwt>0</asrwt>
<pdfrwt beam="1">  1        1 0.10431118E+00 0.73054598E+03</pdfrwt>
<pdfrwt beam="2">  1       -1 0.10540807E+00 0.73054598E+03</pdfrwt>
<totfact> 0.24796347E+01</totfact>
</mgrwt>
</event>
<event>
 4    1  0.1043382E-007  0.9016342E+03  0.7818608E-02  0.9523413E-01
         -1   -1    0    0    0  501 -0.00000000000E+00  0.00000000000E+00  0.14097395060E+04  0.14097395061E+04  0.50400000000E-02 0.  1.
          1   -1    0    0  501    0  0.00000000000E+00 -0.00000000000E+00 -0.86810666792E+03  0.86810666793E+03  0.50400000000E-02 0. -1.
    8880023    1    1    2    0    0  0.82772621765E+01  0.61568295089E+03  0.11072219404E+04  0.14278951785E+04  0.65864270000E+03 0.  1.
    8880022    1    1    2    0    0 -0.82772621765E+01 -0.61568295089E+03 -0.56558910231E+03  0.84995099550E+03  0.15294330000E+03 0.  0.
<mgrwt>
<rscale>  0 0.82579448E+03</rscale>
<asrwt>0</asrwt>
<pdfrwt beam="1">  1        1 0.13355487E+00 0.90163419E+03</pdfrwt>
<pdfrwt beam="2">  1       -1 0.21688300E+00 0.90163419E+03</pdfrwt>
<totfact> 0.22746430E+00</totfact>
</mgrwt>
</event>
<event>
 4    1  0.1043382E-007  0.6697222E+03  0.7818608E-02  0.1015863E+00
          1   -1    0    0  501    0  0.00000000000E+00  0.00000000000E+00  0.78457359776E+03  0.78457359777E+03  0.50400000000E-02 0. -1.
         -1   -1    0    0    0  501 -0.00000000000E+00 -0.00000000000E+00 -0.45897512925E+03  0.45897512928E+03  0.50400000000E-02 0.  1.
    8880023    1    1    2    0    0  0.12044667251E+03  0.14499923521E+02 -0.18674765526E+03  0.69527155969E+03  0.65864270000E+03 0.  1.
    8880022    1    1    2    0    0 -0.12044667251E+03 -0.14499923521E+02  0.51234612376E+03  0.54827716736E+03  0.15294330000E+03 0.  0.
<mgrwt>
<rscale>  0 0.49209608E+03</rscale>
<asrwt>0</asrwt>
<pdfrwt beam="1">  1        1 0.12070363E+00 0.66972222E+03</pdfrwt>
<pdfrwt beam="2">  1       -1 0.70611559E-01 0.66972222E+03</pdfrwt>
<totfact> 0.47671359E+01</totfact>
</mgrwt>
</event>
<event>
 4    1  0.1043382E-007  0.6757827E+03  0.7818608E-02  0.1011817E+00
          1   -1    0    0  501    0  0.00000000000E+00  0.00000000000E+00  0.14948555696E+04  0.14948555696E+04  0.50400000000E-02 0. -1.
         -1   -1    0    0    0  501 -0.00000000000E+00 -0.00000000000E+00 -0.13280529244E+03  0.13280529254E+03  0.50400000000E-02 0.  1.
    8880023    1    1    2    0    0  0.39751784012E+02 -0.14591743298E+03  0.10165213613E+04  0.12206547365E+04  0.65864270000E+03 0.  1.
    8880022    1    1    2    0    0 -0.39751784012E+02  0.14591743298E+03  0.34552891586E+03  0.40700612562E+03  0.15294330000E+03 0.  1.
<mgrwt>
<rscale>  0 0.50758693E+03</rscale>
<asrwt>0</asrwt>
<pdfrwt beam="1">  1        1 0.22997777E+00 0.67578274E+03</pdfrwt>
<pdfrwt beam="2">  1       -1 0.20431585E-01 0.67578274E+03</pdfrwt>
<totfact> 0.13368471E+02</totfact>
</mgrwt>
</event>
<event>
 4    1  0.1043382E-007  0.6666445E+03  0.7818608E-02  0.1018192E+00
         -1   -1    0    0    0  501 -0.00000000000E+00  0.00000000000E+00  0.29129426467E+03  0.29129426471E+03  0.50400000000E-02 0.  1.
          1   -1    0    0  501    0  0.00000000000E+00 -0.00000000000E+00 -0.14227384706E+04  0.14227384706E+04  0.50400000000E-02 0. -1.
    8880023    1    1    2    0    0 -0.81245395050E+02  0.63276309599E+02 -0.10948673652E+03  0.67557550082E+03  0.65864270000E+03 0.  0.
    8880022    1    1    2    0    0  0.81245395050E+02 -0.63276309599E+02 -0.10219574694E+04  0.10384572345E+04  0.15294330000E+03 0. -1.
<mgrwt>
<rscale>  0 0.48344802E+03</rscale>
<asrwt>0</asrwt>
<pdfrwt beam="1">  1        1 0.21888284E+00 0.66664452E+03</pdfrwt>
<pdfrwt beam="2">  1       -1 0.44814503E-01 0.66664452E+03</pdfrwt>
<totfact> 0.38010738E+01</totfact>
</mgrwt>
</event>
<event>
 4    1  0.1043382E-007  0.8133008E+03  0.7818608E-02  0.9682742E-01
         -1   -1    0    0    0  501 -0.00000000000E+00  0.00000000000E+00  0.59780843895E+03  0.59780843897E+03  0.50400000000E-02 0.  1.
          1   -1    0    0  501    0  0.00000000000E+00 -0.00000000000E+00 -0.18237772921E+04  0.18237772921E+04  0.50400000000E-02 0. -1.
    8880023    1    1    2    0    0  0.29504180268E+03 -0.37496433554E+03  0.25965750747E+03  0.85374477785E+03  0.65864270000E+03 0.  1.
    8880022    1    1    2    0    0 -0.29504180268E+03  0.37496433554E+03 -0.14856263606E+04  0.15678409533E+04  0.15294330000E+03 0.  0.
<mgrwt>
<rscale>  0 0.72053678E+03</rscale>
<asrwt>0</asrwt>
<pdfrwt beam="1">  1        1 0.28058112E+00 0.81330076E+03</pdfrwt>
<pdfrwt beam="2">  1       -1 0.91970530E-01 0.81330076E+03</pdfrwt>
<totfact> 0.46827603E+00</totfact>
</mgrwt>
</event>
<event>
 4    1  0.1043382E-007  0.9574597E+03  0.7818608E-02  0.9439461E-01
         -1   -1    0    0    0  501 -0.00000000000E+00  0.00000000000E+00  0.51351869285E+03  0.51351869288E+03  0.50400000000E-02 0.  1.
          1   -1    0    0  501    0  0.00000000000E+00 -0.00000000000E+00 -0.15193183443E+04  0.15193183443E+04  0.50400000000E-02 0. -1.
    8880023    1    1    2    0    0 -0.59412395659E+03  0.36046589011E+03 -0.23917461653E+03  0.98688076139E+03  0.65864270000E+03 0.  0.
    8880022    1    1    2    0    0  0.59412395659E+03 -0.36046589011E+03 -0.76662503495E+03  0.10459562758E+04  0.15294330000E+03 0.  0.
<mgrwt>
<rscale>  0 0.88898107E+03</rscale>
<asrwt>0</asrwt>
<pdfrwt beam="1">  1        1 0.23374128E+00 0.95745973E+03</pdfrwt>
<pdfrwt beam="2">  1       -1 0.79002876E-01 0.95745973E+03</pdfrwt>
<totfact> 0.10272405E+01</totfact>
</mgrwt>
</event>
<event>
 4    1  0.1043382E-007  0.7075820E+03  0.7818608E-02  0.9967092E-01
          1   -1    0    0  501    0  0.00000000000E+00  0.00000000000E+00  0.22540974060E+04  0.22540974060E+04  0.50400000000E-02 0. -1.
         -1   -1    0    0    0  501 -0.00000000000E+00 -0.00000000000E+00 -0.16661136357E+03  0.16661136364E+03  0.50400000000E-02 0.  1.
    8880023    1    1    2    0    0  0.22460198206E+03  0.12812495981E+03  0.67945534345E+03  0.98098513020E+03  0.65864270000E+03 0.  1.
    8880022    1    1    2    0    0 -0.22460198206E+03 -0.12812495981E+03  0.14080306990E+04  0.14397236394E+04  0.15294330000E+03 0.  0.
<mgrwt>
<rscale>  0 0.57117042E+03</rscale>
<asrwt>0</asrwt>
<pdfrwt beam="1">  1        1 0.34678423E+00 0.70758198E+03</pdfrwt>
<pdfrwt beam="2">  1       -1 0.25632517E-01 0.70758198E+03</pdfrwt>
<totfact> 0.28121801E+01</totfact>
</mgrwt>
</event>
<event>
 4    1  0.1043382E-007  0.7546062E+03  0.7818608E-02  0.9819277E-01
         -1   -1    0    0    0  501 -0.00000000000E+00  0.00000000000E+00  0.35091809971E+03  0.35091809975E+03  0.50400000000E-02 0.  1.
          1   -1    0    0  501    0  0.00000000000E+00 -0.00000000000E+00 -0.11475055591E+04  0.11475055591E+04  0.50400000000E-02 0. -1.
    8880023    1    1    2    0    0 -0.13536538579E+03 -0.34248588070E+03 -0.19969058873E+03  0.78058113200E+03  0.65864270000E+03 0.  1.
    8880022    1    1    2    0    0  0.13536538579E+03  0.34248588070E+03 -0.59689687067E+03  0.71784252687E+03  0.15294330000E+03 0. -1.
<mgrwt>
<rscale>  0 0.64338219E+03</rscale>
<asrwt>0</asrwt>
<pdfrwt beam="1">  1        1 0.17653932E+00 0.75460624E+03</pdfrwt>
<pdfrwt beam="2">  1       -1 0.53987400E-01 0.75460624E+03</pdfrwt>
<totfact> 0.41509915E+01</totfact>
</mgrwt>
</event>
<event>
 4    1  0.1043382E-007  0.6914448E+03  0.7818608E-02  0.1003473E+00
         -1   -1    0    0    0  501 -0.00000000000E+00  0.00000000000E+00  0.24996547654E+03  0.24996547659E+03  0.50400000000E-02 0.  1.
          1   -1    0    0  501    0  0.00000000000E+00 -0.00000000000E+00 -0.92536913378E+03  0.92536913380E+03  0.50400000000E-02 0. -1.
    8880023    1    1    2    0    0  0.17543798632E+03 -0.11622073582E+03 -0.56416830923E+03  0.89240228254E+03  0.65864270000E+03 0.  0.
    8880022    1    1    2    0    0 -0.17543798632E+03  0.11622073582E+03 -0.11123534802E+03  0.28293232785E+03  0.15294330000E+03 0.  1.
<mgrwt>
<rscale>  0 0.54153136E+03</rscale>
<asrwt>0</asrwt>
<pdfrwt beam="1">  1        1 0.14236448E+00 0.69144483E+03</pdfrwt>
<pdfrwt beam="2">  1       -1 0.38456228E-01 0.69144483E+03</pdfrwt>
<totfact> 0.11610071E+02</totfact>
</mgrwt>
</event>
<event>
 4    1  0.1043382E-007  0.8186572E+03  0.7818608E-02  0.9671819E-01
         -1   -1    0    0    0  501 -0.00000000000E+00  0.00000000000E+00  0.21784258699E+03  0.21784258705E+03  0.50400000000E-02 0.  1.
          1   -1    0    0  501    0  0.00000000000E+00 -0.00000000000E+00 -0.27322406124E+04  0.27322406124E+04  0.50400000000E-02 0. -1.
    8880023    1    1    2    0    0  0.26833656948E+03 -0.40544407597E+03 -0.22092016300E+04  0.23560075258E+04  0.65864270000E+03 0. -1.
    8880022    1    1    2    0    0 -0.26833656948E+03  0.40544407597E+03 -0.30519639540E+03  0.59407567366E+03  0.15294330000E+03 0.  0.
<mgrwt>
<rscale>  0 0.72719771E+03</rscale>
<asrwt>0</asrwt>
<pdfrwt beam="1">  1        1 0.42034469E+00 0.81865721E+03</pdfrwt>
<pdfrwt beam="2">  1       -1 0.33514246E-01 0.81865721E+03</pdfrwt>
<totfact> 0.81764331E+00</totfact>
</mgrwt>
</event>
<event>
 4    1  0.1043382E-007  0.8095050E+03  0.7818608E-02  0.9690609E-01
          1   -1    0    0  501    0  0.00000000000E+00  0.00000000000E+00  0.17384671998E+04  0.17384671999E+04  0.50400000000E-02 0. -1.
         -1   -1    0    0    0  501 -0.00000000000E+00 -0.00000000000E+00 -0.62887291988E+03  0.62887291990E+03  0.50400000000E-02 0.  1.
    8880023    1    1    2    0    0  0.17117190570E+03  0.43839296630E+03 -0.30779779723E+03  0.86604728765E+03  0.65864270000E+03 0.  0.
    8880022    1    1    2    0    0 -0.17117190570E+03 -0.43839296630E+03  0.14173920772E+04  0.15012928321E+04  0.15294330000E+03 0.  0.
<mgrwt>
<rscale>  0 0.71578700E+03</rscale>
<asrwt>0</asrwt>
<pdfrwt beam="1">  1        1 0.26745649E+00 0.80950505E+03</pdfrwt>
<pdfrwt beam="2">  1       -1 0.96749679E-01 0.80950505E+03</pdfrwt>
<totfact> 0.47739532E+00</totfact>
</mgrwt>
</event>
<event>
 4    1  0.1043382E-007  0.8247242E+03  0.7818608E-02  0.9659686E-01
          1   -1    0    0  501    0  0.00000000000E+00  0.00000000000E+00  0.20761866992E+04  0.20761866992E+04  0.50400000000E-02 0. -1.
         -1   -1    0    0    0  501 -0.00000000000E+00 -0.00000000000E+00 -0.46853772367E+03  0.46853772370E+03  0.50400000000E-02 0.  1.
    8880023    1    1    2    0    0 -0.40287269250E+03 -0.28991977463E+03 -0.31432957424E+02  0.82532303927E+03  0.65864270000E+03 0.  1.
    8880022    1    1    2    0    0  0.40287269250E+03  0.28991977463E+03  0.16390819329E+04  0.17194013836E+04  0.15294330000E+03 0.  0.
<mgrwt>
<rscale>  0 0.73468651E+03</rscale>
<asrwt>0</asrwt>
<pdfrwt beam="1">  1        1 0.31941334E+00 0.82472425E+03</pdfrwt>
<pdfrwt beam="2">  1       -1 0.72082727E-01 0.82472425E+03</pdfrwt>
<totfact> 0.53317289E+00</totfact>
</mgrwt>
</event>
<event>
 4    1  0.1043382E-007  0.7398583E+03  0.7818608E-02  0.9860360E-01
          1   -1    0    0  501    0  0.00000000000E+00  0.00000000000E+00  0.15607619630E+04  0.15607619630E+04  0.50400000000E-02 0. -1.
         -1   -1    0    0    0  501 -0.00000000000E+00 -0.00000000000E+00 -0.20089177163E+03  0.20089177169E+03  0.50400000000E-02 0.  1.
    8880023    1    1    2    0    0  0.81965364171E+02  0.32689723354E+03  0.79188005410E+03  0.10837270637E+04  0.65864270000E+03 0.  1.
    8880022    1    1    2    0    0 -0.81965364171E+02 -0.32689723354E+03  0.56799013731E+03  0.67792667104E+03  0.15294330000E+03 0. -1.
<mgrwt>
<rscale>  0 0.62221475E+03</rscale>
<asrwt>0</asrwt>
<pdfrwt beam="1">  1        1 0.24011721E+00 0.73985832E+03</pdfrwt>
<pdfrwt beam="2">  1       -1 0.30906428E-01 0.73985832E+03</pdfrwt>
<totfact> 0.59121187E+01</totfact>
</mgrwt>
</event>
<event>
 4    1  0.1043382E-007  0.7315990E+03  0.7818608E-02  0.9885131E-01
         -1   -1    0    0    0  501 -0.00000000000E+00  0.00000000000E+00  0.57888415081E+03  0.57888415083E+03  0.50400000000E-02 0.  1.
          1   -1    0    0  501    0  0.00000000000E+00 -0.00000000000E+00 -0.62785376228E+03  0.62785376230E+03  0.50400000000E-02 0. -1.
    8880023    1    1    2    0    0 -0.25590844166E+03 -0.18957256849E+03  0.21859378655E+03  0.76355768545E+03  0.65864270000E+03 0.  0.
    8880022    1    1    2    0    0  0.25590844166E+03  0.18957256849E+03 -0.26756339802E+03  0.44318022768E+03  0.15294330000E+03 0.  0.
<mgrwt>
<rscale>  0 0.60987343E+03</rscale>
<asrwt>0</asrwt>
<pdfrwt beam="1">  1        1 0.96592887E-01 0.73159900E+03</pdfrwt>
<pdfrwt beam="2">  1       -1 0.89059100E-01 0.73159900E+03</pdfrwt>
<totfact> 0.40612144E+01</totfact>
</mgrwt>
</event>
<event>
 4    1  0.1043382E-007  0.6880142E+03  0.7818608E-02  0.1005111E+00
         -1   -1    0    0    0  501 -0.00000000000E+00  0.00000000000E+00  0.16903945550E+04  0.16903945550E+04  0.50400000000E-02 0.  1.
          1   -1    0    0  501    0  0.00000000000E+00 -0.00000000000E+00 -0.34783908630E+03  0.34783908634E+03  0.50400000000E-02 0. -1.
    8880023    1    1    2    0    0 -0.16987017247E+03 -0.10342881659E+03  0.15607938656E+04  0.17057083844E+04  0.65864270000E+03 0.  1.
    8880022    1    1    2    0    0  0.16987017247E+03  0.10342881659E+03 -0.21823839689E+03  0.33252525692E+03  0.15294330000E+03 0.  0.
<mgrwt>
<rscale>  0 0.53464840E+03</rscale>
<asrwt>0</asrwt>
<pdfrwt beam="1">  1        1 0.53513705E-01 0.68801425E+03</pdfrwt>
<pdfrwt beam="2">  1       -1 0.26006070E+00 0.68801425E+03</pdfrwt>
<totfact> 0.45493767E+00</totfact>
</mgrwt>
</event>
<event>
 4    1  0.1043382E-007  0.1239060E+04  0.7818608E-02  0.9120058E-01
          1   -1    0    0  501    0  0.00000000000E+00  0.00000000000E+00  0.27914194072E+04  0.27914194072E+04  0.50400000000E-02 0. -1.
         -1   -1    0    0    0  501 -0.00000000000E+00 -0.00000000000E+00 -0.55977375844E+03  0.55977375846E+03  0.50400000000E-02 0.  1.
    8880023    1    1    2    0    0 -0.88446724509E+03 -0.56495760133E+03  0.18447363770E+04  0.22222335399E+04  0.65864270000E+03 0.  0.
    8880022    1    1    2    0    0  0.88446724509E+03  0.56495760133E+03  0.38690927169E+03  0.11289596257E+04  0.15294330000E+03 0.  0.
<mgrwt>
<rscale>  0 0.11918075E+04</rscale>
<asrwt>0</asrwt>
<pdfrwt beam="1">  1        1 0.42944914E+00 0.12390600E+04</pdfrwt>
<pdfrwt beam="2">  1       -1 0.86119040E-01 0.12390600E+04</pdfrwt>
<totfact> 0.11129903E+00</totfact>
</mgrwt>
</event>
<event>
 4    1  0.1043382E-007  0.7347148E+03  0.7818608E-02  0.9875619E-01
         -1   -1    0    0    0  501 -0.00000000000E+00  0.00000000000E+00  0.11783206988E+04  0.11783206988E+04  0.50400000000E-02 0.  1.
          1   -1    0    0  501    0  0.00000000000E+00 -0.00000000000E+00 -0.63924349581E+03  0.63924349583E+03  0.50400000000E-02 0. -1.
    8880023    1    1    2    0    0  0.22297188412E+03  0.23723226052E+03  0.99497869998E+03  0.12368461611E+04  0.65864270000E+03 0.  1.
    8880022    1    1    2    0    0 -0.22297188412E+03 -0.23723226052E+03 -0.45590149698E+03  0.58071803356E+03  0.15294330000E+03 0.  0.
<mgrwt>
<rscale>  0 0.61457590E+03</rscale>
<asrwt>0</asrwt>
<pdfrwt beam="1">  1        1 0.98345155E-01 0.73471478E+03</pdfrwt>
<pdfrwt beam="2">  1       -1 0.18128010E+00 0.73471478E+03</pdfrwt>
<totfact> 0.65894219E+00</totfact>
</mgrwt>
</event>
<event>
 4    1  0.1043382E-007  0.9854581E+03  0.7818608E-02  0.9400835E-01
         -1   -1    0    0    0  501 -0.00000000000E+00  0.00000000000E+00  0.11287421368E+04  0.11287421368E+04  0.50400000000E-02 0.  1.
          1   -1    0    0  501    0  0.00000000000E+00 -0.00000000000E+00 -0.13202965329E+04  0.13202965329E+04  0.50400000000E-02 0. -1.
    8880023    1    1    2    0    0  0.57308452724E+03 -0.45704651578E+03  0.75548783701E+03  0.12417284208E+04  0.65864270000E+03 0.  1.
    8880022    1    1    2    0    0 -0.57308452724E+03  0.45704651578E+03 -0.94704223310E+03  0.12073102490E+04  0.15294330000E+03 0.  0.
<mgrwt>
<rscale>  0 0.92006987E+03</rscale>
<asrwt>0</asrwt>
<pdfrwt beam="1">  1        1 0.20312254E+00 0.98545807E+03</pdfrwt>
<pdfrwt beam="2">  1       -1 0.17365264E+00 0.98545807E+03</pdfrwt>
<totfact> 0.20376599E+00</totfact>
</mgrwt>
</event>
<event>
 4    1  0.1043382E-007  0.9875551E+03  0.7818608E-02  0.9398024E-01
         -1   -1    0    0    0  501 -0.00000000000E+00  0.00000000000E+00  0.41816000597E+03  0.41816000600E+03  0.50400000000E-02 0.  1.
          1   -1    0    0  501    0  0.00000000000E+00 -0.00000000000E+00 -0.20151049736E+04  0.20151049736E+04  0.50400000000E-02 0. -1.
    8880023    1    1    2    0    0  0.15858631629E+03 -0.71854382486E+03 -0.50912020804E+03  0.11110663529E+04  0.65864270000E+03 0.  1.
    8880022    1    1    2    0    0 -0.15858631629E+03  0.71854382486E+03 -0.10878247596E+04  0.13221986267E+04  0.15294330000E+03 0.  0.
<mgrwt>
<rscale>  0 0.92238515E+03</rscale>
<asrwt>0</asrwt>
<pdfrwt beam="1">  1        1 0.31001614E+00 0.98755509E+03</pdfrwt>
<pdfrwt beam="2">  1       -1 0.64332310E-01 0.98755509E+03</pdfrwt>
<totfact> 0.72247885E+00</totfact>
</mgrwt>
</event>
<event>
 4    1  0.1043382E-007  0.1459057E+04  0.7818608E-02  0.8939101E-01
         -1   -1    0    0    0  501 -0.00000000000E+00  0.00000000000E+00  0.13525204842E+04  0.13525204842E+04  0.50400000000E-02 0.  1.
          1   -1    0    0  501    0  0.00000000000E+00 -0.00000000000E+00 -0.16329076519E+04  0.16329076519E+04  0.50400000000E-02 0. -1.
    8880023    1    1    2    0    0  0.12026342451E+04 -0.49870679270E+03 -0.68730560967E+03  0.16128350194E+04  0.65864270000E+03 0.  0.
    8880022    1    1    2    0    0 -0.12026342451E+04  0.49870679270E+03  0.40691844197E+03  0.13725931167E+04  0.15294330000E+03 0.  0.
<mgrwt>
<rscale>  0 0.14205146E+04</rscale>
<asrwt>0</asrwt>
<pdfrwt beam="1">  1        1 0.25121656E+00 0.14590572E+04</pdfrwt>
<pdfrwt beam="2">  1       -1 0.20808007E+00 0.14590572E+04</pdfrwt>
<totfact> 0.66707649E-01</totfact>
</mgrwt>
</event>
<event>
 4    1  0.1043382E-007  0.1005237E+04  0.7818608E-02  0.9374737E-01
         -1   -1    0    0    0  501 -0.00000000000E+00  0.00000000000E+00  0.25835381280E+04  0.25835381280E+04  0.50400000000E-02 0.  1.
          1   -1    0    0  501    0  0.00000000000E+00 -0.00000000000E+00 -0.60370777881E+03  0.60370777883E+03  0.50400000000E-02 0. -1.
    8880023    1    1    2    0    0 -0.66883873162E+03  0.35964805507E+03 -0.58238448165E+02  0.10069229839E+04  0.65864270000E+03 0.  0.
    8880022    1    1    2    0    0  0.66883873162E+03 -0.35964805507E+03  0.20380687973E+04  0.21803229229E+04  0.15294330000E+03 0.  0.
<mgrwt>
<rscale>  0 0.94184176E+03</rscale>
<asrwt>0</asrwt>
<pdfrwt beam="1">  1        1 0.92878119E-01 0.10052374E+04</pdfrwt>
<pdfrwt beam="2">  1       -1 0.39746741E+00 0.10052374E+04</pdfrwt>
<totfact> 0.25893549E-01</totfact>
</mgrwt>
</event>
<event>
 4    1  0.1043382E-007  0.8196912E+03  0.7818608E-02  0.9669733E-01
          1   -1    0    0  501    0  0.00000000000E+00  0.00000000000E+00  0.22558498555E+04  0.22558498555E+04  0.50400000000E-02 0. -1.
         -1   -1    0    0    0  501 -0.00000000000E+00 -0.00000000000E+00 -0.30598256338E+03  0.30598256342E+03  0.50400000000E-02 0.  1.
    8880023    1    1    2    0    0  0.19984016476E+01  0.48793386827E+03  0.36641166630E+03  0.89785921440E+03  0.65864270000E+03 0.  1.
    8880022    1    1    2    0    0 -0.19984016476E+01 -0.48793386827E+03  0.15834556258E+04  0.16639732045E+04  0.15294330000E+03 0. -1.
<mgrwt>
<rscale>  0 0.72847809E+03</rscale>
<asrwt>0</asrwt>
<pdfrwt beam="1">  1        1 0.34705383E+00 0.81969120E+03</pdfrwt>
<pdfrwt beam="2">  1       -1 0.47074239E-01 0.81969120E+03</pdfrwt>
<totfact> 0.93289274E+00</totfact>
</mgrwt>
</event>
<event>
 4    1  0.1043382E-007  0.1113294E+04  0.7818608E-02  0.9246398E-01
          1   -1    0    0  501    0  0.00000000000E+00  0.00000000000E+00  0.20081895215E+04  0.20081895215E+04  0.50400000000E-02 0. -1.
         -1   -1    0    0    0  501 -0.00000000000E+00 -0.00000000000E+00 -0.58369559501E+03  0.58369559503E+03  0.50400000000E-02 0.  1.
    8880023    1    1    2    0    0 -0.89207215539E+03 -0.99095400655E+02  0.31575503454E+03  0.11572052873E+04  0.65864270000E+03 0.  0.
    8880022    1    1    2    0    0  0.89207215539E+03  0.99095400655E+02  0.11087388919E+04  0.14346798292E+04  0.15294330000E+03 0.  0.
<mgrwt>
<rscale>  0 0.10587097E+04</rscale>
<asrwt>0</asrwt>
<pdfrwt beam="1">  1        1 0.30895223E+00 0.11132937E+04</pdfrwt>
<pdfrwt beam="2">  1       -1 0.89799323E-01 0.11132937E+04</pdfrwt>
<totfact> 0.35607609E+00</totfact>
</mgrwt>
</event>
<event>
 4    1  0.1043382E-007  0.6961737E+03  0.7818608E-02  0.1001346E+00
          1   -1    0    0  501    0  0.00000000000E+00  0.00000000000E+00  0.86243676717E+03  0.86243676718E+03  0.50400000000E-02 0. -1.
         -1   -1    0    0    0  501 -0.00000000000E+00 -0.00000000000E+00 -0.30389236127E+03  0.30389236131E+03  0.50400000000E-02 0.  1.
    8880023    1    1    2    0    0 -0.20494986027E+03  0.94038165342E+02  0.21657145187E+03  0.72908231483E+03  0.65864270000E+03 0.  1.
    8880022    1    1    2    0    0  0.20494986027E+03 -0.94038165342E+02  0.34197295403E+03  0.43724681367E+03  0.15294330000E+03 0.  0.
<mgrwt>
<rscale>  0 0.55063958E+03</rscale>
<asrwt>0</asrwt>
<pdfrwt beam="1">  1        1 0.13268258E+00 0.69617371E+03</pdfrwt>
<pdfrwt beam="2">  1       -1 0.46752671E-01 0.69617371E+03</pdfrwt>
<totfact> 0.91254350E+01</totfact>
</mgrwt>
</event>
<event>
 4    1  0.1043382E-007  0.6771077E+03  0.7818608E-02  0.1011009E+00
         -1   -1    0    0    0  501 -0.00000000000E+00  0.00000000000E+00  0.99783334449E+03  0.99783334450E+03  0.50400000000E-02 0.  1.
          1   -1    0    0  501    0  0.00000000000E+00 -0.00000000000E+00 -0.45894546032E+03  0.45894546035E+03  0.50400000000E-02 0. -1.
    8880023    1    1    2    0    0 -0.50735832598E+02 -0.14862870491E+03  0.84339674438E+03  0.10815696424E+04  0.65864270000E+03 0.  1.
    8880022    1    1    2    0    0  0.50735832598E+02  0.14862870491E+03 -0.30450886022E+03  0.37520916247E+03  0.15294330000E+03 0.  0.
<mgrwt>
<rscale>  0 0.51075434E+03</rscale>
<asrwt>0</asrwt>
<pdfrwt beam="1">  1        1 0.70606994E-01 0.67710769E+03</pdfrwt>
<pdfrwt beam="2">  1       -1 0.15351282E+00 0.67710769E+03</pdfrwt>
<totfact> 0.16918514E+01</totfact>
</mgrwt>
</event>
<event>
 4    1  0.1043382E-007  0.6925147E+03  0.7818608E-02  0.1002980E+00
         -1   -1    0    0    0  501 -0.00000000000E+00  0.00000000000E+00  0.53057878316E+03  0.53057878318E+03  0.50400000000E-02 0.  1.
          1   -1    0    0  501    0  0.00000000000E+00 -0.00000000000E+00 -0.25859125533E+04  0.25859125533E+04  0.50400000000E-02 0. -1.
    8880023    1    1    2    0    0 -0.35990011237E+02 -0.21088171236E+03  0.29410592009E+03  0.75237947607E+03  0.65864270000E+03 0.  1.
    8880022    1    1    2    0    0  0.35990011237E+02  0.21088171236E+03 -0.23494396902E+04  0.23641118604E+04  0.15294330000E+03 0.  0.
<mgrwt>
<rscale>  0 0.54362831E+03</rscale>
<asrwt>0</asrwt>
<pdfrwt beam="1">  1        1 0.39783269E+00 0.69251468E+03</pdfrwt>
<pdfrwt beam="2">  1       -1 0.81627507E-01 0.69251468E+03</pdfrwt>
<totfact> 0.19035811E+00</totfact>
</mgrwt>
</event>
<event>
 4    1  0.1043382E-007  0.1359141E+04  0.7818608E-02  0.9016099E-01
         -1   -1    0    0    0  501 -0.00000000000E+00  0.00000000000E+00  0.68052849594E+03  0.68052849596E+03  0.50400000000E-02 0.  1.
          1   -1    0    0  501    0  0.00000000000E+00 -0.00000000000E+00 -0.43687723895E+04  0.43687723895E+04  0.50400000000E-02 0. -1.
    8880023    1    1    2    0    0 -0.68753781306E+03 -0.96992087935E+03 -0.35992468584E+04  0.38473163257E+04  0.65864270000E+03 0.  0.
    8880022    1    1    2    0    0  0.68753781306E+03  0.96992087935E+03 -0.88997035231E+02  0.12019845598E+04  0.15294330000E+03 0.  0.
<mgrwt>
<rscale>  0 0.13171182E+04</rscale>
<asrwt>0</asrwt>
<pdfrwt beam="1">  1        1 0.67211881E+00 0.13591413E+04</pdfrwt>
<pdfrwt beam="2">  1       -1 0.10469669E+00 0.13591413E+04</pdfrwt>
<totfact> 0.37271966E-02</totfact>
</mgrwt>
</event>
<event>
 4    1  0.1043382E-007  0.6960460E+03  0.7818608E-02  0.1001402E+00
         -1   -1    0    0    0  501 -0.00000000000E+00  0.00000000000E+00  0.60108894489E+03  0.60108894491E+03  0.50400000000E-02 0.  1.
          1   -1    0    0  501    0  0.00000000000E+00 -0.00000000000E+00 -0.71766758273E+03  0.71766758274E+03  0.50400000000E-02 0. -1.
    8880023    1    1    2    0    0 -0.87049911330E+02  0.20758640973E+03  0.34963579465E+03  0.77892567022E+03  0.65864270000E+03 0.  1.
    8880022    1    1    2    0    0  0.87049911330E+02 -0.20758640973E+03 -0.46621443248E+03  0.53983085743E+03  0.15294330000E+03 0.  0.
<mgrwt>
<rscale>  0 0.55039880E+03</rscale>
<asrwt>0</asrwt>
<pdfrwt beam="1">  1        1 0.11041040E+00 0.69604598E+03</pdfrwt>
<pdfrwt beam="2">  1       -1 0.92475222E-01 0.69604598E+03</pdfrwt>
<totfact> 0.30745311E+01</totfact>
</mgrwt>
</event>
<event>
 4    1  0.1043382E-007  0.7525553E+03  0.7818608E-02  0.9824777E-01
          1   -1    0    0  501    0  0.00000000000E+00  0.00000000000E+00  0.84174252444E+03  0.84174252445E+03  0.50400000000E-02 0. -1.
         -1   -1    0    0    0  501 -0.00000000000E+00 -0.00000000000E+00 -0.97906526387E+03  0.97906526389E+03  0.50400000000E-02 0.  1.
    8880023    1    1    2    0    0 -0.35671400931E+03  0.72693548664E+02 -0.76893723925E+03  0.10759200345E+04  0.65864270000E+03 0.  1.
    8880022    1    1    2    0    0  0.35671400931E+03 -0.72693548664E+02  0.63161449981E+03  0.74488775385E+03  0.15294330000E+03 0.  0.
<mgrwt>
<rscale>  0 0.64049662E+03</rscale>
<asrwt>0</asrwt>
<pdfrwt beam="1">  1        1 0.12949885E+00 0.75255528E+03</pdfrwt>
<pdfrwt beam="2">  1       -1 0.15062542E+00 0.75255528E+03</pdfrwt>
<totfact> 0.72531534E+00</totfact>
</mgrwt>
</event>
<event>
 4    1  0.1043382E-007  0.7664035E+03  0.7818608E-02  0.9788803E-01
          1   -1    0    0  501    0  0.00000000000E+00  0.00000000000E+00  0.28323622756E+04  0.28323622756E+04  0.50400000000E-02 0. -1.
         -1   -1    0    0    0  501 -0.00000000000E+00 -0.00000000000E+00 -0.60988230135E+03  0.60988230138E+03  0.50400000000E-02 0.  1.
    8880023    1    1    2    0    0 -0.37376794065E+03 -0.11773536669E+03 -0.34504022197E+03  0.84049214813E+03  0.65864270000E+03 0.  1.
    8880022    1    1    2    0    0  0.37376794065E+03  0.11773536669E+03  0.25675201962E+04  0.26017524288E+04  0.15294330000E+03 0.  0.
<mgrwt>
<rscale>  0 0.65966917E+03</rscale>
<asrwt>0</asrwt>
<pdfrwt beam="1">  1        1 0.43574803E+00 0.76640348E+03</pdfrwt>
<pdfrwt beam="2">  1       -1 0.93828048E-01 0.76640348E+03</pdfrwt>
<totfact> 0.93199747E-01</totfact>
</mgrwt>
</event>
<event>
 4    1  0.1043382E-007  0.7276292E+03  0.7818608E-02  0.9897569E-01
          1   -1    0    0  501    0  0.00000000000E+00  0.00000000000E+00  0.82731911212E+03  0.82731911214E+03  0.50400000000E-02 0. -1.
         -1   -1    0    0    0  501 -0.00000000000E+00 -0.00000000000E+00 -0.39853237673E+03  0.39853237677E+03  0.50400000000E-02 0.  1.
    8880023    1    1    2    0    0 -0.47937216416E+01 -0.30921047349E+03  0.74657036015E+02  0.73144922993E+03  0.65864270000E+03 0.  1.
    8880022    1    1    2    0    0  0.47937216416E+01  0.30921047349E+03  0.35412969937E+03  0.49440225897E+03  0.15294330000E+03 0.  0.
<mgrwt>
<rscale>  0 0.60379251E+03</rscale>
<asrwt>0</asrwt>
<pdfrwt beam="1">  1        1 0.12727986E+00 0.72762923E+03</pdfrwt>
<pdfrwt beam="2">  1       -1 0.61312674E-01 0.72762923E+03</pdfrwt>
<totfact> 0.57860670E+01</totfact>
</mgrwt>
</event>
<event>
 4    1  0.1043382E-007  0.7314512E+03  0.7818608E-02  0.9885587E-01
          1   -1    0    0  501    0  0.00000000000E+00  0.00000000000E+00  0.75568747288E+03  0.75568747289E+03  0.50400000000E-02 0. -1.
         -1   -1    0    0    0  501 -0.00000000000E+00 -0.00000000000E+00 -0.10356471996E+04  0.10356471996E+04  0.50400000000E-02 0.  1.
    8880023    1    1    2    0    0  0.19967905662E+03 -0.24766707282E+03 -0.84966335819E+03  0.11211372499E+04  0.65864270000E+03 0.  1.
    8880022    1    1    2    0    0 -0.19967905662E+03  0.24766707282E+03  0.56970363144E+03  0.67019742263E+03  0.15294330000E+03 0.  0.
<mgrwt>
<rscale>  0 0.60964893E+03</rscale>
<asrwt>0</asrwt>
<pdfrwt beam="1">  1        1 0.11625961E+00 0.73145124E+03</pdfrwt>
<pdfrwt beam="2">  1       -1 0.15933034E+00 0.73145124E+03</pdfrwt>
<totfact> 0.74114162E+00</totfact>
</mgrwt>
</event>
<event>
 4    1  0.1043382E-007  0.9632832E+03  0.7818608E-02  0.9431255E-01
          1   -1    0    0  501    0  0.00000000000E+00  0.00000000000E+00  0.19020938564E+04  0.19020938564E+04  0.50400000000E-02 0. -1.
         -1   -1    0    0    0  501 -0.00000000000E+00 -0.00000000000E+00 -0.39071362095E+03  0.39071362098E+03  0.50400000000E-02 0.  1.
    8880023    1    1    2    0    0  0.37790858454E+02  0.70190894949E+03  0.11075069580E+04  0.14678168110E+04  0.65864270000E+03 0.  1.
    8880022    1    1    2    0    0 -0.37790858454E+02 -0.70190894949E+03  0.40387327744E+03  0.82499066638E+03  0.15294330000E+03 0. -1.
<mgrwt>
<rscale>  0 0.89547582E+03</rscale>
<asrwt>0</asrwt>
<pdfrwt beam="1">  1        1 0.29262982E+00 0.96328320E+03</pdfrwt>
<pdfrwt beam="2">  1       -1 0.60109789E-01 0.96328320E+03</pdfrwt>
<totfact> 0.98862947E+00</totfact>
</mgrwt>
</event>
<event>
 4    1  0.1043382E-007  0.6640480E+03  0.7818608E-02  0.1020346E+00
          1   -1    0    0  501    0  0.00000000000E+00  0.00000000000E+00  0.16249167080E+04  0.16249167080E+04  0.50400000000E-02 0. -1.
         -1   -1    0    0    0  501 -0.00000000000E+00 -0.00000000000E+00 -0.11816003303E+03  0.11816003314E+03  0.50400000000E-02 0.  1.
    8880023    1    1    2    0    0 -0.84154488718E+02 -0.82181378698E+01  0.94660240601E+03  0.11562940098E+04  0.65864270000E+03 0.  1.
    8880022    1    1    2    0    0  0.84154488718E+02  0.82181378698E+01  0.56015426894E+03  0.58678273133E+03  0.15294330000E+03 0.  0.
<mgrwt>
<rscale>  0 0.47562021E+03</rscale>
<asrwt>0</asrwt>
<pdfrwt beam="1">  1        1 0.24998718E+00 0.66404798E+03</pdfrwt>
<pdfrwt beam="2">  1       -1 0.18178467E-01 0.66404798E+03</pdfrwt>
<totfact> 0.13257319E+02</totfact>
</mgrwt>
</event>
<event>
 4    1  0.1043382E-007  0.9468263E+03  0.7818608E-02  0.9454695E-01
          1   -1    0    0  501    0  0.00000000000E+00  0.00000000000E+00  0.28650147084E+04  0.28650147084E+04  0.50400000000E-02 0. -1.
         -1   -1    0    0    0  501 -0.00000000000E+00 -0.00000000000E+00 -0.33333574544E+03  0.33333574547E+03  0.50400000000E-02 0.  1.
    8880023    1    1    2    0    0  0.67988557433E+03 -0.20627952729E+02  0.54406640743E+03  0.10920111577E+04  0.65864270000E+03 0.  0.
    8880022    1    1    2    0    0 -0.67988557433E+03  0.20627952729E+02  0.19876125555E+04  0.21063392961E+04  0.15294330000E+03 0.  0.
<mgrwt>
<rscale>  0 0.87707990E+03</rscale>
<asrwt>0</asrwt>
<pdfrwt beam="1">  1        1 0.44077150E+00 0.94682634E+03</pdfrwt>
<pdfrwt beam="2">  1       -1 0.51282422E-01 0.94682634E+03</pdfrwt>
<totfact> 0.29583976E+00</totfact>
</mgrwt>
</event>
<event>
 4    1  0.1043382E-007  0.6667949E+03  0.7818608E-02  0.1018073E+00
          1   -1    0    0  501    0  0.00000000000E+00  0.00000000000E+00  0.15670204352E+04  0.15670204352E+04  0.50400000000E-02 0. -1.
         -1   -1    0    0    0  501 -0.00000000000E+00 -0.00000000000E+00 -0.29088904690E+03  0.29088904694E+03  0.50400000000E-02 0.  1.
    8880023    1    1    2    0    0  0.20858125412E+02  0.10183372311E+03  0.10830604699E+03  0.67553354812E+03  0.65864270000E+03 0.  1.
    8880022    1    1    2    0    0 -0.20858125412E+02 -0.10183372311E+03  0.11678253413E+04  0.11823759340E+04  0.15294330000E+03 0.  0.
<mgrwt>
<rscale>  0 0.48388526E+03</rscale>
<asrwt>0</asrwt>
<pdfrwt beam="1">  1        1 0.24108006E+00 0.66679485E+03</pdfrwt>
<pdfrwt beam="2">  1       -1 0.44752161E-01 0.66679485E+03</pdfrwt>
<totfact> 0.30370364E+01</totfact>
</mgrwt>
</event>
<event>
 4    1  0.1043382E-007  0.8708733E+03  0.7818608E-02  0.9574507E-01
         -1   -1    0    0    0  501 -0.00000000000E+00  0.00000000000E+00  0.10596213141E+04  0.10596213141E+04  0.50400000000E-02 0.  1.
          1   -1    0    0  501    0  0.00000000000E+00 -0.00000000000E+00 -0.16714709126E+04  0.16714709126E+04  0.50400000000E-02 0. -1.
    8880023    1    1    2    0    0 -0.36023238224E+02  0.56860573694E+03  0.81148696083E+03  0.11903492982E+04  0.65864270000E+03 0.  1.
    8880022    1    1    2    0    0  0.36023238224E+02 -0.56860573694E+03 -0.14233365594E+04  0.15407429286E+04  0.15294330000E+03 0.  0.
<mgrwt>
<rscale>  0 0.79006702E+03</rscale>
<asrwt>0</asrwt>
<pdfrwt beam="1">  1        1 0.25714937E+00 0.87087333E+03</pdfrwt>
<pdfrwt beam="2">  1       -1 0.16301866E+00 0.87087333E+03</pdfrwt>
<totfact> 0.14213058E+00</totfact>
</mgrwt>
</event>
<event>
 4    1  0.1043382E-007  0.1134014E+04  0.7818608E-02  0.9224098E-01
         -1   -1    0    0    0  501 -0.00000000000E+00  0.00000000000E+00  0.47635172418E+03  0.47635172421E+03  0.50400000000E-02 0.  1.
          1   -1    0    0  501    0  0.00000000000E+00 -0.00000000000E+00 -0.31619920362E+04  0.31619920362E+04  0.50400000000E-02 0. -1.
    8880023    1    1    2    0    0  0.36900167752E+02 -0.92239691477E+03 -0.45955563907E+03  0.12235927764E+04  0.65864270000E+03 0.  1.
    8880022    1    1    2    0    0 -0.36900167752E+02  0.92239691477E+03 -0.22260846730E+04  0.24147509841E+04  0.15294330000E+03 0.  0.
<mgrwt>
<rscale>  0 0.10808120E+04</rscale>
<asrwt>0</asrwt>
<pdfrwt beam="1">  1        1 0.48646030E+00 0.11340141E+04</pdfrwt>
<pdfrwt beam="2">  1       -1 0.73284883E-01 0.11340141E+04</pdfrwt>
<totfact> 0.86047978E-01</totfact>
</mgrwt>
</event>
<event>
 4    1  0.1043382E-007  0.1018524E+04  0.7818608E-02  0.9357714E-01
          1   -1    0    0  501    0  0.00000000000E+00  0.00000000000E+00  0.15493709049E+04  0.15493709049E+04  0.50400000000E-02 0. -1.
         -1   -1    0    0    0  501 -0.00000000000E+00 -0.00000000000E+00 -0.77225496202E+03  0.77225496203E+03  0.50400000000E-02 0.  1.
    8880023    1    1    2    0    0  0.64226456821E+03 -0.43712441744E+03 -0.22635574854E+03  0.10433736929E+04  0.65864270000E+03 0.  0.
    8880022    1    1    2    0    0 -0.64226456821E+03  0.43712441744E+03  0.10034716914E+04  0.12782521740E+04  0.15294330000E+03 0.  0.
<mgrwt>
<rscale>  0 0.95638920E+03</rscale>
<asrwt>0</asrwt>
<pdfrwt beam="1">  1        1 0.23836475E+00 0.10185243E+04</pdfrwt>
<pdfrwt beam="2">  1       -1 0.11880846E+00 0.10185243E+04</pdfrwt>
<totfact> 0.38495577E+00</totfact>
</mgrwt>
</event>
<event>
 4    1  0.1043382E-007  0.7264508E+03  0.7818608E-02  0.9901334E-01
         -1   -1    0    0    0  501 -0.00000000000E+00  0.00000000000E+00  0.16583077959E+04  0.16583077959E+04  0.50400000000E-02 0.  1.
          1   -1    0    0  501    0  0.00000000000E+00 -0.00000000000E+00 -0.40909386269E+03  0.40909386273E+03  0.50400000000E-02 0. -1.
    8880023    1    1    2    0    0  0.27193546501E+03  0.14132132946E+03  0.14839176090E+04  0.16521931763E+04  0.65864270000E+03 0.  1.
    8880022    1    1    2    0    0 -0.27193546501E+03 -0.14132132946E+03 -0.23470367583E+03  0.41520848228E+03  0.15294330000E+03 0.  0.
<mgrwt>
<rscale>  0 0.60196689E+03</rscale>
<asrwt>0</asrwt>
<pdfrwt beam="1">  1        1 0.62937519E-01 0.72645084E+03</pdfrwt>
<pdfrwt beam="2">  1       -1 0.25512427E+00 0.72645084E+03</pdfrwt>
<totfact> 0.39291772E+00</totfact>
</mgrwt>
</event>
<event>
 4    1  0.1043382E-007  0.1319259E+04  0.7818608E-02  0.9049105E-01
         -1   -1    0    0    0  501 -0.00000000000E+00  0.00000000000E+00  0.64222099697E+03  0.64222099699E+03  0.50400000000E-02 0.  1.
          1   -1    0    0  501    0  0.00000000000E+00 -0.00000000000E+00 -0.51308693947E+04  0.51308693947E+04  0.50400000000E-02 0. -1.
    8880023    1    1    2    0    0  0.11415763620E+04 -0.58622680979E+02 -0.20275866765E+03  0.13347488500E+04  0.65864270000E+03 0.  0.
    8880022    1    1    2    0    0 -0.11415763620E+04  0.58622680979E+02 -0.42858897301E+04  0.44383415417E+04  0.15294330000E+03 0.  0.
<mgrwt>
<rscale>  0 0.12756453E+04</rscale>
<asrwt>0</asrwt>
<pdfrwt beam="1">  1        1 0.78936450E+00 0.13192587E+04</pdfrwt>
<pdfrwt beam="2">  1       -1 0.98803234E-01 0.13192587E+04</pdfrwt>
<totfact> 0.58408403E-03</totfact>
</mgrwt>
</event>
<event>
 4    1  0.1043382E-007  0.8235339E+03  0.7818608E-02  0.9662047E-01
         -1   -1    0    0    0  501 -0.00000000000E+00  0.00000000000E+00  0.53312893344E+03  0.53312893346E+03  0.50400000000E-02 0.  1.
          1   -1    0    0  501    0  0.00000000000E+00 -0.00000000000E+00 -0.20444581243E+04  0.20444581243E+04  0.50400000000E-02 0. -1.
    8880023    1    1    2    0    0 -0.49403348962E+03 -0.18134100682E+02  0.15039256945E+03  0.83715354964E+03  0.65864270000E+03 0.  1.
    8880022    1    1    2    0    0  0.49403348962E+03  0.18134100682E+02 -0.16617217603E+04  0.17404335081E+04  0.15294330000E+03 0.  0.
<mgrwt>
<rscale>  0 0.73322174E+03</rscale>
<asrwt>0</asrwt>
<pdfrwt beam="1">  1        1 0.31453201E+00 0.82353393E+03</pdfrwt>
<pdfrwt beam="2">  1       -1 0.82019837E-01 0.82353393E+03</pdfrwt>
<totfact> 0.42685397E+00</totfact>
</mgrwt>
</event>
<event>
 4    1  0.1043382E-007  0.7190499E+03  0.7818608E-02  0.9925814E-01
         -1   -1    0    0    0  501 -0.00000000000E+00  0.00000000000E+00  0.65669090313E+03  0.65669090315E+03  0.50400000000E-02 0.  1.
          1   -1    0    0  501    0  0.00000000000E+00 -0.00000000000E+00 -0.15121730572E+04  0.15121730572E+04  0.50400000000E-02 0. -1.
    8880023    1    1    2    0    0  0.23699595106E+03  0.16448529717E+03  0.43319901795E+03  0.83946059420E+03  0.65864270000E+03 0.  1.
    8880022    1    1    2    0    0 -0.23699595106E+03 -0.16448529717E+03 -0.12886811720E+04  0.13294033662E+04  0.15294330000E+03 0.  0.
<mgrwt>
<rscale>  0 0.59026374E+03</rscale>
<asrwt>0</asrwt>
<pdfrwt beam="1">  1        1 0.23264201E+00 0.71904986E+03</pdfrwt>
<pdfrwt beam="2">  1       -1 0.10102937E+00 0.71904986E+03</pdfrwt>
<totfact> 0.62491519E+00</totfact>
</mgrwt>
</event>
<event>
 4    1  0.1043382E-007  0.6714565E+03  0.7818608E-02  0.1014640E+00
         -1   -1    0    0    0  501 -0.00000000000E+00  0.00000000000E+00  0.83086866622E+03  0.83086866623E+03  0.50400000000E-02 0.  1.
          1   -1    0    0  501    0  0.00000000000E+00 -0.00000000000E+00 -0.77300361187E+03  0.77300361189E+03  0.50400000000E-02 0. -1.
    8880023    1    1    2    0    0  0.98080516852E+02  0.86161736875E+02  0.67663297961E+03  0.95325024419E+03  0.65864270000E+03 0.  1.
    8880022    1    1    2    0    0 -0.98080516852E+02 -0.86161736875E+02 -0.61876792527E+03  0.65062203393E+03  0.15294330000E+03 0.  0.
<mgrwt>
<rscale>  0 0.49671638E+03</rscale>
<asrwt>0</asrwt>
<pdfrwt beam="1">  1        1 0.11892363E+00 0.67145651E+03</pdfrwt>
<pdfrwt beam="2">  1       -1 0.12782595E+00 0.67145651E+03</pdfrwt>
<totfact> 0.12859959E+01</totfact>
</mgrwt>
</event>
<event>
 4    1  0.1043382E-007  0.8010366E+03  0.7818608E-02  0.9708559E-01
         -1   -1    0    0    0  501 -0.00000000000E+00  0.00000000000E+00  0.43212955950E+03  0.43212955952E+03  0.50400000000E-02 0.  1.
          1   -1    0    0  501    0  0.00000000000E+00 -0.00000000000E+00 -0.26358752958E+04  0.26358752958E+04  0.50400000000E-02 0. -1.
    8880023    1    1    2    0    0 -0.45232993940E+03 -0.56982427265E+02  0.11548109584E+02  0.80111980140E+03  0.65864270000E+03 0.  0.
    8880022    1    1    2    0    0  0.45232993940E+03  0.56982427265E+02 -0.22152938459E+04  0.22668850539E+04  0.15294330000E+03 0. -1.
<mgrwt>
<rscale>  0 0.70509456E+03</rscale>
<asrwt>0</asrwt>
<pdfrwt beam="1">  1        1 0.40551927E+00 0.80103656E+03</pdfrwt>
<pdfrwt beam="2">  1       -1 0.66481472E-01 0.80103656E+03</pdfrwt>
<totfact> 0.26337083E+00</totfact>
</mgrwt>
</event>
<event>
 4    1  0.1043382E-007  0.7079517E+03  0.7818608E-02  0.9965687E-01
         -1   -1    0    0    0  501 -0.00000000000E+00  0.00000000000E+00  0.11095341428E+04  0.11095341428E+04  0.50400000000E-02 0.  1.
          1   -1    0    0  501    0  0.00000000000E+00 -0.00000000000E+00 -0.28303554770E+03  0.28303554774E+03  0.50400000000E-02 0. -1.
    8880023    1    1    2    0    0 -0.10125849140E+03 -0.23902327190E+03  0.83044227217E+03  0.10912515660E+04  0.65864270000E+03 0.  0.
    8880022    1    1    2    0    0  0.10125849140E+03  0.23902327190E+03 -0.39436770628E+01  0.30131812457E+03  0.15294330000E+03 0.  1.
<mgrwt>
<rscale>  0 0.57180735E+03</rscale>
<asrwt>0</asrwt>
<pdfrwt beam="1">  1        1 0.43543931E-01 0.70795170E+03</pdfrwt>
<pdfrwt beam="2">  1       -1 0.17069756E+00 0.70795170E+03</pdfrwt>
<totfact> 0.23668836E+01</totfact>
</mgrwt>
</event>
<event>
 4    1  0.1043382E-007  0.7581693E+03  0.7818608E-02  0.9809870E-01
          1   -1    0    0  501    0  0.00000000000E+00  0.00000000000E+00  0.42550328276E+03  0.42550328279E+03  0.50400000000E-02 0. -1.
         -1   -1    0    0    0  501 -0.00000000000E+00 -0.00000000000E+00 -0.14918633665E+04  0.14918633665E+04  0.50400000000E-02 0.  1.
    8880023    1    1    2    0    0 -0.11143731240E+03  0.35859752843E+03 -0.12580700174E+04  0.14688637912E+04  0.65864270000E+03 0.  1.
    8880022    1    1    2    0    0  0.11143731240E+03 -0.35859752843E+03  0.19170993375E+03  0.44850285808E+03  0.15294330000E+03 0. -1.
<mgrwt>
<rscale>  0 0.64835530E+03</rscale>
<asrwt>0</asrwt>
<pdfrwt beam="1">  1        1 0.65462044E-01 0.75816929E+03</pdfrwt>
<pdfrwt beam="2">  1       -1 0.22951744E+00 0.75816929E+03</pdfrwt>
<totfact> 0.54415099E+00</totfact>
</mgrwt>
</event>
<event>
 4    1  0.1043382E-007  0.8192368E+03  0.7818608E-02  0.9670649E-01
         -1   -1    0    0    0  501 -0.00000000000E+00  0.00000000000E+00  0.76214439638E+03  0.76214439639E+03  0.50400000000E-02 0.  1.
          1   -1    0    0  501    0  0.00000000000E+00 -0.00000000000E+00 -0.13290652980E+04  0.13290652980E+04  0.50400000000E-02 0. -1.
    8880023    1    1    2    0    0 -0.46168820707E+03 -0.15550822680E+03  0.46346032729E+03  0.94124624322E+03  0.65864270000E+03 0.  1.
    8880022    1    1    2    0    0  0.46168820707E+03  0.15550822680E+03 -0.10303812289E+04  0.11499634512E+04  0.15294330000E+03 0.  0.
<mgrwt>
<rscale>  0 0.72791569E+03</rscale>
<asrwt>0</asrwt>
<pdfrwt beam="1">  1        1 0.20447158E+00 0.81923685E+03</pdfrwt>
<pdfrwt beam="2">  1       -1 0.11725298E+00 0.81923685E+03</pdfrwt>
<totfact> 0.58070829E+00</totfact>
</mgrwt>
</event>
<event>
 4    1  0.1043382E-007  0.1154583E+04  0.7818608E-02  0.9202587E-01
          1   -1    0    0  501    0  0.00000000000E+00  0.00000000000E+00  0.33547310319E+04  0.33547310319E+04  0.50400000000E-02 0. -1.
         -1   -1    0    0    0  501 -0.00000000000E+00 -0.00000000000E+00 -0.47685846642E+03  0.47685846645E+03  0.50400000000E-02 0.  1.
    8880023    1    1    2    0    0  0.47984841361E+03  0.81792256056E+03  0.25789549300E+04  0.28256097665E+04  0.65864270000E+03 0. -1.
    8880022    1    1    2    0    0 -0.47984841361E+03 -0.81792256056E+03  0.29891763545E+03  0.10059797319E+04  0.15294330000E+03 0.  1.
<mgrwt>
<rscale>  0 0.11026765E+04</rscale>
<asrwt>0</asrwt>
<pdfrwt beam="1">  1        1 0.51611246E+00 0.11545831E+04</pdfrwt>
<pdfrwt beam="2">  1       -1 0.73362842E-01 0.11545831E+04</pdfrwt>
<totfact> 0.61368859E-01</totfact>
</mgrwt>
</event>
<event>
 4    1  0.1043382E-007  0.1139594E+04  0.7818608E-02  0.9218202E-01
          1   -1    0    0  501    0  0.00000000000E+00  0.00000000000E+00  0.91828900394E+03  0.91828900395E+03  0.50400000000E-02 0. -1.
         -1   -1    0    0    0  501 -0.00000000000E+00 -0.00000000000E+00 -0.13889294949E+04  0.13889294949E+04  0.50400000000E-02 0.  1.
    8880023    1    1    2    0    0 -0.90614266154E+03  0.20921476849E+03 -0.69976823270E+03  0.13372924617E+04  0.65864270000E+03 0.  1.
    8880022    1    1    2    0    0  0.90614266154E+03 -0.20921476849E+03  0.22912774176E+03  0.96992603712E+03  0.15294330000E+03 0.  0.
<mgrwt>
<rscale>  0 0.10867511E+04</rscale>
<asrwt>0</asrwt>
<pdfrwt beam="1">  1        1 0.14127523E+00 0.11395945E+04</pdfrwt>
<pdfrwt beam="2">  1       -1 0.21368146E+00 0.11395945E+04</pdfrwt>
<totfact> 0.21088788E+00</totfact>
</mgrwt>
</event>
<event>
 4    1  0.1043382E-007  0.6994326E+03  0.7818608E-02  0.9999563E-01
          1   -1    0    0  501    0  0.00000000000E+00  0.00000000000E+00  0.10633175795E+04  0.10633175795E+04  0.50400000000E-02 0. -1.
         -1   -1    0    0    0  501 -0.00000000000E+00 -0.00000000000E+00 -0.77793749336E+03  0.77793749337E+03  0.50400000000E-02 0.  1.
    8880023    1    1    2    0    0 -0.19334045248E+03 -0.13422089646E+03 -0.59433481706E+03  0.91784522696E+03  0.65864270000E+03 0.  1.
    8880022    1    1    2    0    0  0.19334045248E+03  0.13422089646E+03  0.87971490322E+03  0.92340984594E+03  0.15294330000E+03 0.  0.
<mgrwt>
<rscale>  0 0.55669399E+03</rscale>
<asrwt>0</asrwt>
<pdfrwt beam="1">  1        1 0.16358732E+00 0.69943262E+03</pdfrwt>
<pdfrwt beam="2">  1       -1 0.11968269E+00 0.69943262E+03</pdfrwt>
<totfact> 0.87742300E+00</totfact>
</mgrwt>
</event>
<event>
 4    1  0.1043382E-007  0.7998724E+03  0.7818608E-02  0.9711072E-01
          1   -1    0    0  501    0  0.00000000000E+00  0.00000000000E+00  0.61562336150E+03  0.61562336152E+03  0.50400000000E-02 0. -1.
         -1   -1    0    0    0  501 -0.00000000000E+00 -0.00000000000E+00 -0.80352630241E+03  0.80352630242E+03  0.50400000000E-02 0.  1.
    8880023    1    1    2    0    0  0.59988866878E+02  0.44987439020E+03 -0.40121870733E+03  0.89485880924E+03  0.65864270000E+03 0.  0.
    8880022    1    1    2    0    0 -0.59988866878E+02 -0.44987439020E+03  0.21331576642E+03  0.52429085470E+03  0.15294330000E+03 0.  0.
<mgrwt>
<rscale>  0 0.70361377E+03</rscale>
<asrwt>0</asrwt>
<pdfrwt beam="1">  1        1 0.94711286E-01 0.79987239E+03</pdfrwt>
<pdfrwt beam="2">  1       -1 0.12361943E+00 0.79987239E+03</pdfrwt>
<totfact> 0.19381784E+01</totfact>
</mgrwt>
</event>
<event>
 4    1  0.1043382E-007  0.7628260E+03  0.7818608E-02  0.9797845E-01
          1   -1    0    0  501    0  0.00000000000E+00  0.00000000000E+00  0.12643086371E+04  0.12643086371E+04  0.50400000000E-02 0. -1.
         -1   -1    0    0    0  501 -0.00000000000E+00 -0.00000000000E+00 -0.10015890019E+04  0.10015890019E+04  0.50400000000E-02 0.  1.
    8880023    1    1    2    0    0 -0.35551482361E+03  0.14731779360E+03 -0.81202634066E+03  0.11141320866E+04  0.65864270000E+03 0.  1.
    8880022    1    1    2    0    0  0.35551482361E+03 -0.14731779360E+03  0.10747459758E+04  0.11517655524E+04  0.15294330000E+03 0.  0.
<mgrwt>
<rscale>  0 0.65478298E+03</rscale>
<asrwt>0</asrwt>
<pdfrwt beam="1">  1        1 0.19450902E+00 0.76282601E+03</pdfrwt>
<pdfrwt beam="2">  1       -1 0.15409062E+00 0.76282601E+03</pdfrwt>
<totfact> 0.32342672E+00</totfact>
</mgrwt>
</event>
<event>
 4    1  0.1043382E-007  0.6606003E+03  0.7818608E-02  0.1023550E+00
         -1   -1    0    0    0  501 -0.00000000000E+00  0.00000000000E+00  0.45940510264E+03  0.45940510266E+03  0.50400000000E-02 0.  1.
          1   -1    0    0  501    0  0.00000000000E+00 -0.00000000000E+00 -0.13040800826E+04  0.13040800827E+04  0.50400000000E-02 0. -1.
    8880023    1    1    2    0    0  0.23561359063E+02  0.45026164660E+02  0.21262262669E+03  0.69397484161E+03  0.65864270000E+03 0.  1.
    8880022    1    1    2    0    0 -0.23561359063E+02 -0.45026164660E+02 -0.10572976067E+04  0.10695103437E+04  0.15294330000E+03 0.  0.
<mgrwt>
<rscale>  0 0.46427117E+03</rscale>
<asrwt>0</asrwt>
<pdfrwt beam="1">  1        1 0.20062770E+00 0.66060026E+03</pdfrwt>
<pdfrwt beam="2">  1       -1 0.70677709E-01 0.66060026E+03</pdfrwt>
<totfact> 0.19000604E+01</totfact>
</mgrwt>
</event>
<event>
 4    1  0.1043382E-007  0.7674397E+03  0.7818608E-02  0.9786214E-01
         -1   -1    0    0    0  501 -0.00000000000E+00  0.00000000000E+00  0.13205712019E+04  0.13205712019E+04  0.50400000000E-02 0.  1.
          1   -1    0    0  501    0  0.00000000000E+00 -0.00000000000E+00 -0.52263037817E+03  0.52263037819E+03  0.50400000000E-02 0. -1.
    8880023    1    1    2    0    0  0.39377933847E+03  0.95528088410E+01 -0.17088917842E+03  0.78623580504E+03  0.65864270000E+03 0. -1.
    8880022    1    1    2    0    0 -0.39377933847E+03 -0.95528088410E+01  0.96883000218E+03  0.10569657751E+04  0.15294330000E+03 0.  0.
<mgrwt>
<rscale>  0 0.66107642E+03</rscale>
<asrwt>0</asrwt>
<pdfrwt beam="1">  1        1 0.80404674E-01 0.76743966E+03</pdfrwt>
<pdfrwt beam="2">  1       -1 0.20316480E+00 0.76743966E+03</pdfrwt>
<totfact> 0.61588542E+00</totfact>
</mgrwt>
</event>
<event>
 4    1  0.1043382E-007  0.7352481E+03  0.7818608E-02  0.9874011E-01
         -1   -1    0    0    0  501 -0.00000000000E+00  0.00000000000E+00  0.44110930136E+03  0.44110930139E+03  0.50400000000E-02 0.  1.
          1   -1    0    0  501    0  0.00000000000E+00 -0.00000000000E+00 -0.16560079431E+04  0.16560079431E+04  0.50400000000E-02 0. -1.
    8880023    1    1    2    0    0  0.11363876343E+03 -0.30637530054E+03  0.92321352707E+02  0.74102161356E+03  0.65864270000E+03 0.  0.
    8880022    1    1    2    0    0 -0.11363876343E+03  0.30637530054E+03 -0.13072199944E+04  0.13560956309E+04  0.15294330000E+03 0.  0.
<mgrwt>
<rscale>  0 0.61537497E+03</rscale>
<asrwt>0</asrwt>
<pdfrwt beam="1">  1        1 0.25477045E+00 0.73524812E+03</pdfrwt>
<pdfrwt beam="2">  1       -1 0.67862970E-01 0.73524812E+03</pdfrwt>
<totfact> 0.11702593E+01</totfact>
</mgrwt>
</event>
<event>
 4    1  0.1043382E-007  0.9251497E+03  0.7818608E-02  0.9486808E-01
          1   -1    0    0  501    0  0.00000000000E+00  0.00000000000E+00  0.50580634820E+03  0.50580634822E+03  0.50400000000E-02 0. -1.
         -1   -1    0    0    0  501 -0.00000000000E+00 -0.00000000000E+00 -0.22765472496E+04  0.22765472496E+04  0.50400000000E-02 0.  1.
    8880023    1    1    2    0    0  0.16112409186E+03 -0.62938926256E+03 -0.18900515722E+04  0.21043281514E+04  0.65864270000E+03 0.  1.
    8880022    1    1    2    0    0 -0.16112409186E+03  0.62938926256E+03  0.11931067083E+03  0.67802544642E+03  0.15294330000E+03 0.  0.
<mgrwt>
<rscale>  0 0.85263463E+03</rscale>
<asrwt>0</asrwt>
<pdfrwt beam="1">  1        1 0.77816363E-01 0.92514973E+03</pdfrwt>
<pdfrwt beam="2">  1       -1 0.35023803E+00 0.92514973E+03</pdfrwt>
<totfact> 0.69722087E-01</totfact>
</mgrwt>
</event>
<event>
 4    1  0.1043382E-007  0.6955117E+03  0.7818608E-02  0.1001636E+00
         -1   -1    0    0    0  501 -0.00000000000E+00  0.00000000000E+00  0.45717408838E+03  0.45717408841E+03  0.50400000000E-02 0.  1.
          1   -1    0    0  501    0  0.00000000000E+00 -0.00000000000E+00 -0.17174519775E+04  0.17174519776E+04  0.50400000000E-02 0. -1.
    8880023    1    1    2    0    0 -0.47303098076E+02  0.21837757262E+03  0.17242034068E+03  0.71656494992E+03  0.65864270000E+03 0.  1.
    8880022    1    1    2    0    0  0.47303098076E+02 -0.21837757262E+03 -0.14326982298E+04  0.14580611160E+04  0.15294330000E+03 0.  0.
<mgrwt>
<rscale>  0 0.54938863E+03</rscale>
<asrwt>0</asrwt>
<pdfrwt beam="1">  1        1 0.26422338E+00 0.69551172E+03</pdfrwt>
<pdfrwt beam="2">  1       -1 0.70334476E-01 0.69551172E+03</pdfrwt>
<totfact> 0.99547294E+00</totfact>
</mgrwt>
</event>
<event>
 4    1  0.1043382E-007  0.7804974E+03  0.7818608E-02  0.9754670E-01
         -1   -1    0    0    0  501 -0.00000000000E+00  0.00000000000E+00  0.72556113458E+03  0.72556113460E+03  0.50400000000E-02 0.  1.
          1   -1    0    0  501    0  0.00000000000E+00 -0.00000000000E+00 -0.85170815031E+03  0.85170815032E+03  0.50400000000E-02 0. -1.
    8880023    1    1    2    0    0  0.34583668383E+03  0.23614170661E+03  0.40866028138E+03  0.88101041386E+03  0.65864270000E+03 0.  0.
    8880022    1    1    2    0    0 -0.34583668383E+03 -0.23614170661E+03 -0.53480729711E+03  0.69625887107E+03  0.15294330000E+03 0.  0.
<mgrwt>
<rscale>  0 0.67852997E+03</rscale>
<asrwt>0</asrwt>
<pdfrwt beam="1">  1        1 0.13103202E+00 0.78049736E+03</pdfrwt>
<pdfrwt beam="2">  1       -1 0.11162479E+00 0.78049736E+03</pdfrwt>
<totfact> 0.15088377E+01</totfact>
</mgrwt>
</event>
<event>
 4    1  0.1043382E-007  0.6640168E+03  0.7818608E-02  0.1020373E+00
          1   -1    0    0  501    0  0.00000000000E+00  0.00000000000E+00  0.10642970858E+04  0.10642970858E+04  0.50400000000E-02 0. -1.
         -1   -1    0    0    0  501 -0.00000000000E+00 -0.00000000000E+00 -0.35736725601E+03  0.35736725604E+03  0.50400000000E-02 0.  1.
    8880023    1    1    2    0    0  0.32241020589E+02 -0.77901382732E+02 -0.29635745011E+02  0.66467781104E+03  0.65864270000E+03 0.  1.
    8880022    1    1    2    0    0 -0.32241020589E+02  0.77901382732E+02  0.73656557481E+03  0.75698653082E+03  0.15294330000E+03 0.  0.
<mgrwt>
<rscale>  0 0.47552281E+03</rscale>
<asrwt>0</asrwt>
<pdfrwt beam="1">  1        1 0.16373801E+00 0.66401680E+03</pdfrwt>
<pdfrwt beam="2">  1       -1 0.54979579E-01 0.66401680E+03</pdfrwt>
<totfact> 0.46680426E+01</totfact>
</mgrwt>
</event>
<event>
 4    1  0.1088994E-007  0.6641386E+03  0.7818608E-02  0.1020267E+00
          1   -1    0    0  501    0  0.00000000000E+00  0.00000000000E+00  0.76092874337E+03  0.76092874339E+03  0.50400000000E-02 0. -1.
         -1   -1    0    0    0  501 -0.00000000000E+00 -0.00000000000E+00 -0.13080960418E+04  0.13080960418E+04  0.50400000000E-02 0.  1.
    8880023    1    1    2    0    0 -0.70617175002E+02  0.47782163730E+02 -0.12117195453E+04  0.13817902820E+04  0.65864270000E+03 0.  0.
    8880022    1    1    2    0    0  0.70617175002E+02 -0.47782163730E+02  0.66455224688E+03  0.68723450323E+03  0.15294330000E+03 0.  0.
<mgrwt>
<rscale>  0 0.47590291E+03</rscale>
<asrwt>0</asrwt>
<pdfrwt beam="1">  1        1 0.11706596E+00 0.66413864E+03</pdfrwt>
<pdfrwt beam="2">  1       -1 0.20124555E+00 0.66413864E+03</pdfrwt>
<totfact> 0.37228726E+00</totfact>
</mgrwt>
</event>
<event>
 4    1  0.1043382E-007  0.6755937E+03  0.7818608E-02  0.1011935E+00
          1   -1    0    0  501    0  0.00000000000E+00  0.00000000000E+00  0.16487591808E+04  0.16487591808E+04  0.50400000000E-02 0. -1.
         -1   -1    0    0    0  501 -0.00000000000E+00 -0.00000000000E+00 -0.40699708231E+03  0.40699708235E+03  0.50400000000E-02 0.  1.
    8880023    1    1    2    0    0 -0.56213318019E+02  0.13948745458E+03 -0.11225380045E+03  0.68485604990E+03  0.65864270000E+03 0.  1.
    8880022    1    1    2    0    0  0.56213318019E+02 -0.13948745458E+03  0.13540158990E+04  0.13709002133E+04  0.15294330000E+03 0.  0.
<mgrwt>
<rscale>  0 0.50712939E+03</rscale>
<asrwt>0</asrwt>
<pdfrwt beam="1">  1        1 0.25365526E+00 0.67559373E+03</pdfrwt>
<pdfrwt beam="2">  1       -1 0.62614936E-01 0.67559373E+03</pdfrwt>
<totfact> 0.14041230E+01</totfact>
</mgrwt>
</event>
<event>
 4    1  0.1043382E-007  0.6836511E+03  0.7818608E-02  0.1007329E+00
         -1   -1    0    0    0  501 -0.00000000000E+00  0.00000000000E+00  0.62811818059E+03  0.62811818061E+03  0.50400000000E-02 0.  1.
          1   -1    0    0  501    0  0.00000000000E+00 -0.00000000000E+00 -0.12179627231E+04  0.12179627231E+04  0.50400000000E-02 0. -1.
    8880023    1    1    2    0    0  0.16418420184E+03 -0.81314820060E+02  0.42404306567E+03  0.80448199476E+03  0.65864270000E+03 0.  1.
    8880022    1    1    2    0    0 -0.16418420184E+03  0.81314820060E+02 -0.10138876082E+04  0.10415989090E+04  0.15294330000E+03 0.  0.
<mgrwt>
<rscale>  0 0.52549950E+03</rscale>
<asrwt>0</asrwt>
<pdfrwt beam="1">  1        1 0.18737888E+00 0.68365105E+03</pdfrwt>
<pdfrwt beam="2">  1       -1 0.96633567E-01 0.68365105E+03</pdfrwt>
<totfact> 0.11158111E+01</totfact>
</mgrwt>
</event>
<event>
 4    1  0.1043382E-007  0.7037252E+03  0.7818608E-02  0.9982085E-01
         -1   -1    0    0    0  501 -0.00000000000E+00  0.00000000000E+00  0.13356541937E+04  0.13356541937E+04  0.50400000000E-02 0.  1.
          1   -1    0    0  501    0  0.00000000000E+00 -0.00000000000E+00 -0.49479482818E+03  0.49479482821E+03  0.50400000000E-02 0. -1.
    8880023    1    1    2    0    0 -0.55818908200E+02  0.24146048701E+03  0.11858727139E+04  0.13789572934E+04  0.65864270000E+03 0.  1.
    8880022    1    1    2    0    0  0.55818908200E+02 -0.24146048701E+03 -0.34501334839E+03  0.45149172847E+03  0.15294330000E+03 0.  0.
<mgrwt>
<rscale>  0 0.56442802E+03</rscale>
<asrwt>0</asrwt>
<pdfrwt beam="1">  1        1 0.76122281E-01 0.70372518E+03</pdfrwt>
<pdfrwt beam="2">  1       -1 0.20548526E+00 0.70372518E+03</pdfrwt>
<totfact> 0.64625311E+00</totfact>
</mgrwt>
</event>
<event>
 4    1  0.1043382E-007  0.8600456E+03  0.7818608E-02  0.9593482E-01
          1   -1    0    0  501    0  0.00000000000E+00  0.00000000000E+00  0.23293229153E+04  0.23293229153E+04  0.50400000000E-02 0. -1.
         -1   -1    0    0    0  501 -0.00000000000E+00 -0.00000000000E+00 -0.34439584047E+03  0.34439584051E+03  0.50400000000E-02 0.  1.
    8880023    1    1    2    0    0  0.51347802333E+03  0.20544711803E+03  0.32837850420E+03  0.92060352326E+03  0.65864270000E+03 0.  0.
    8880022    1    1    2    0    0 -0.51347802333E+03 -0.20544711803E+03  0.16565485706E+04  0.17531152326E+04  0.15294330000E+03 0.  0.
<mgrwt>
<rscale>  0 0.77729066E+03</rscale>
<asrwt>0</asrwt>
<pdfrwt beam="1">  1        1 0.35835738E+00 0.86004558E+03</pdfrwt>
<pdfrwt beam="2">  1       -1 0.52983974E-01 0.86004558E+03</pdfrwt>
<totfact> 0.66079032E+00</totfact>
</mgrwt>
</event>
<event>
 4    1  0.1043382E-007  0.6899226E+03  0.7818608E-02  0.1004189E+00
         -1   -1    0    0    0  501 -0.00000000000E+00  0.00000000000E+00  0.20341356448E+03  0.20341356454E+03  0.50400000000E-02 0.  1.
          1   -1    0    0  501    0  0.00000000000E+00 -0.00000000000E+00 -0.13673467853E+04  0.13673467853E+04  0.50400000000E-02 0. -1.
    8880023    1    1    2    0    0 -0.14889048543E+03  0.14147289066E+03 -0.48003404072E+03  0.84049142884E+03  0.65864270000E+03 0.  0.
    8880022    1    1    2    0    0  0.14889048543E+03 -0.14147289066E+03 -0.68389918010E+03  0.73026892102E+03  0.15294330000E+03 0.  0.
<mgrwt>
<rscale>  0 0.53850809E+03</rscale>
<asrwt>0</asrwt>
<pdfrwt beam="1">  1        1 0.21036104E+00 0.68992258E+03</pdfrwt>
<pdfrwt beam="2">  1       -1 0.31294395E-01 0.68992258E+03</pdfrwt>
<totfact> 0.78976865E+01</totfact>
</mgrwt>
</event>
<event>
 4    1  0.1043382E-007  0.7052847E+03  0.7818608E-02  0.9975946E-01
         -1   -1    0    0    0  501 -0.00000000000E+00  0.00000000000E+00  0.13295691820E+03  0.13295691830E+03  0.50400000000E-02 0.  1.
          1   -1    0    0  501    0  0.00000000000E+00 -0.00000000000E+00 -0.28637248999E+04  0.28637248999E+04  0.50400000000E-02 0. -1.
    8880023    1    1    2    0    0  0.15894335243E+03 -0.19584009106E+03 -0.90564373899E+03  0.11478750449E+04  0.65864270000E+03 0.  1.
    8880022    1    1    2    0    0 -0.15894335243E+03  0.19584009106E+03 -0.18251242428E+04  0.18488067733E+04  0.15294330000E+03 0.  0.
<mgrwt>
<rscale>  0 0.56717652E+03</rscale>
<asrwt>0</asrwt>
<pdfrwt beam="1">  1        1 0.44057301E+00 0.70528472E+03</pdfrwt>
<pdfrwt beam="2">  1       -1 0.20454913E-01 0.70528472E+03</pdfrwt>
<totfact> 0.15717512E+01</totfact>
</mgrwt>
</event>
<event>
 4    1  0.1043382E-007  0.1070219E+04  0.7818608E-02  0.9294961E-01
         -1   -1    0    0    0  501 -0.00000000000E+00  0.00000000000E+00  0.43739704692E+03  0.43739704695E+03  0.50400000000E-02 0.  1.
          1   -1    0    0  501    0  0.00000000000E+00 -0.00000000000E+00 -0.23310007045E+04  0.23310007045E+04  0.50400000000E-02 0. -1.
    8880023    1    1    2    0    0 -0.83865272160E+03 -0.90666497015E+02 -0.63142613145E+03  0.12426053142E+04  0.65864270000E+03 0.  0.
    8880022    1    1    2    0    0  0.83865272160E+03  0.90666497015E+02 -0.12621775261E+04  0.15257924373E+04  0.15294330000E+03 0.  0.
<mgrwt>
<rscale>  0 0.10124808E+04</rscale>
<asrwt>0</asrwt>
<pdfrwt beam="1">  1        1 0.35861549E+00 0.10702191E+04</pdfrwt>
<pdfrwt beam="2">  1       -1 0.67291855E-01 0.10702191E+04</pdfrwt>
<totfact> 0.39913051E+00</totfact>
</mgrwt>
</event>
<event>
 4    1  0.1043382E-007  0.7086605E+03  0.7818608E-02  0.9963009E-01
          1   -1    0    0  501    0  0.00000000000E+00  0.00000000000E+00  0.74904035301E+03  0.74904035302E+03  0.50400000000E-02 0. -1.
         -1   -1    0    0    0  501 -0.00000000000E+00 -0.00000000000E+00 -0.37938487126E+03  0.37938487129E+03  0.50400000000E-02 0.  1.
    8880023    1    1    2    0    0 -0.15940126768E+03 -0.20731778914E+03  0.41631546792E+03  0.82189914523E+03  0.65864270000E+03 0.  1.
    8880022    1    1    2    0    0  0.15940126768E+03  0.20731778914E+03 -0.46659986173E+02  0.30652607908E+03  0.15294330000E+03 0.  0.
<mgrwt>
<rscale>  0 0.57302398E+03</rscale>
<asrwt>0</asrwt>
<pdfrwt beam="1">  1        1 0.11523698E+00 0.70866045E+03</pdfrwt>
<pdfrwt beam="2">  1       -1 0.58366904E-01 0.70866045E+03</pdfrwt>
<totfact> 0.74736308E+01</totfact>
</mgrwt>
</event>
<event>
 4    1  0.1043382E-007  0.8038867E+03  0.7818608E-02  0.9702454E-01
         -1   -1    0    0    0  501 -0.00000000000E+00  0.00000000000E+00  0.42188274778E+03  0.42188274781E+03  0.50400000000E-02 0.  1.
          1   -1    0    0  501    0  0.00000000000E+00 -0.00000000000E+00 -0.18435645498E+04  0.18435645498E+04  0.50400000000E-02 0. -1.
    8880023    1    1    2    0    0  0.46089076063E+03  0.18104269511E+01 -0.44454312219E+02  0.80511487567E+03  0.65864270000E+03 0.  1.
    8880022    1    1    2    0    0 -0.46089076063E+03 -0.18104269511E+01 -0.13772274898E+04  0.14603324219E+04  0.15294330000E+03 0. -1.
<mgrwt>
<rscale>  0 0.70870843E+03</rscale>
<asrwt>0</asrwt>
<pdfrwt beam="1">  1        1 0.28362531E+00 0.80388667E+03</pdfrwt>
<pdfrwt beam="2">  1       -1 0.64905039E-01 0.80388667E+03</pdfrwt>
<totfact> 0.94825948E+00</totfact>
</mgrwt>
</event>
<event>
 4    1  0.1043382E-007  0.7695049E+03  0.7818608E-02  0.9781094E-01
          1   -1    0    0  501    0  0.00000000000E+00  0.00000000000E+00  0.18702000997E+04  0.18702000997E+04  0.50400000000E-02 0. -1.
         -1   -1    0    0    0  501 -0.00000000000E+00 -0.00000000000E+00 -0.24800769864E+03  0.24800769869E+03  0.50400000000E-02 0.  1.
    8880023    1    1    2    0    0 -0.88873777827E+02  0.38785188581E+03  0.49975412517E+03  0.91754674300E+03  0.65864270000E+03 0.  1.
    8880022    1    1    2    0    0  0.88873777827E+02 -0.38785188581E+03  0.11224382759E+04  0.12006610554E+04  0.15294330000E+03 0.  0.
<mgrwt>
<rscale>  0 0.66387098E+03</rscale>
<asrwt>0</asrwt>
<pdfrwt beam="1">  1        1 0.28772308E+00 0.76950493E+03</pdfrwt>
<pdfrwt beam="2">  1       -1 0.38155032E-01 0.76950493E+03</pdfrwt>
<totfact> 0.25078120E+01</totfact>
</mgrwt>
</event>
<event>
 4    1  0.1043382E-007  0.1046404E+04  0.7818608E-02  0.9323217E-01
          1   -1    0    0  501    0  0.00000000000E+00  0.00000000000E+00  0.26237243587E+04  0.26237243587E+04  0.50400000000E-02 0. -1.
         -1   -1    0    0    0  501 -0.00000000000E+00 -0.00000000000E+00 -0.33490487127E+03  0.33490487131E+03  0.50400000000E-02 0.  1.
    8880023    1    1    2    0    0  0.66695653666E+03 -0.46510133695E+03  0.13261131016E+04  0.16892413800E+04  0.65864270000E+03 0. -1.
    8880022    1    1    2    0    0 -0.66695653666E+03  0.46510133695E+03  0.96270638588E+03  0.12693878501E+04  0.15294330000E+03 0.  1.
<mgrwt>
<rscale>  0 0.98673248E+03</rscale>
<asrwt>0</asrwt>
<pdfrwt beam="1">  1        1 0.40364989E+00 0.10464036E+04</pdfrwt>
<pdfrwt beam="2">  1       -1 0.51523828E-01 0.10464036E+04</pdfrwt>
<totfact> 0.42690024E+00</totfact>
</mgrwt>
</event>
<event>
 4    1  0.1043382E-007  0.6698443E+03  0.7818608E-02  0.1015775E+00
         -1   -1    0    0    0  501 -0.00000000000E+00  0.00000000000E+00  0.43365381896E+03  0.43365381899E+03  0.50400000000E-02 0.  1.
          1   -1    0    0  501    0  0.00000000000E+00 -0.00000000000E+00 -0.75905112771E+03  0.75905112773E+03  0.50400000000E-02 0. -1.
    8880023    1    1    2    0    0 -0.97350410634E+02 -0.73512421916E+02  0.14313764797E+03  0.68496698545E+03  0.65864270000E+03 0.  1.
    8880022    1    1    2    0    0  0.97350410634E+02  0.73512421916E+02 -0.46853495672E+03  0.50773796127E+03  0.15294330000E+03 0.  0.
<mgrwt>
<rscale>  0 0.49242685E+03</rscale>
<asrwt>0</asrwt>
<pdfrwt beam="1">  1        1 0.11677710E+00 0.66984430E+03</pdfrwt>
<pdfrwt beam="2">  1       -1 0.66715972E-01 0.66984430E+03</pdfrwt>
<totfact> 0.56340238E+01</totfact>
</mgrwt>
</event>
<event>
 4    1  0.1043382E-007  0.8411023E+03  0.7818608E-02  0.9628105E-01
          1   -1    0    0  501    0  0.00000000000E+00  0.00000000000E+00  0.13187021305E+04  0.13187021305E+04  0.50400000000E-02 0. -1.
         -1   -1    0    0    0  501 -0.00000000000E+00 -0.00000000000E+00 -0.47699248057E+03  0.47699248060E+03  0.50400000000E-02 0.  1.
    8880023    1    1    2    0    0  0.37325839505E+03  0.36649845917E+03  0.60654881924E+02  0.84328652961E+03  0.65864270000E+03 0.  1.
    8880022    1    1    2    0    0 -0.37325839505E+03 -0.36649845917E+03  0.78105476797E+03  0.95240808146E+03  0.15294330000E+03 0.  0.
<mgrwt>
<rscale>  0 0.75463599E+03</rscale>
<asrwt>0</asrwt>
<pdfrwt beam="1">  1        1 0.20287725E+00 0.84110235E+03</pdfrwt>
<pdfrwt beam="2">  1       -1 0.73383459E-01 0.84110235E+03</pdfrwt>
<totfact> 0.16769065E+01</totfact>
</mgrwt>
</event>
<event>
 4    1  0.1043382E-007  0.7175540E+03  0.7818608E-02  0.9930951E-01
          1   -1    0    0  501    0  0.00000000000E+00  0.00000000000E+00  0.12400379552E+04  0.12400379552E+04  0.50400000000E-02 0. -1.
         -1   -1    0    0    0  501 -0.00000000000E+00 -0.00000000000E+00 -0.44402309678E+03  0.44402309681E+03  0.50400000000E-02 0.  1.
    8880023    1    1    2    0    0  0.25492958691E+03  0.12682421809E+03 -0.10650256949E+03  0.72541469529E+03  0.65864270000E+03 0.  1.
    8880022    1    1    2    0    0 -0.25492958691E+03 -0.12682421809E+03  0.90251742788E+03  0.95864635670E+03  0.15294330000E+03 0.  0.
<mgrwt>
<rscale>  0 0.58784434E+03</rscale>
<asrwt>0</asrwt>
<pdfrwt beam="1">  1        1 0.19077507E+00 0.71755396E+03</pdfrwt>
<pdfrwt beam="2">  1       -1 0.68311247E-01 0.71755396E+03</pdfrwt>
<totfact> 0.22435849E+01</totfact>
</mgrwt>
</event>
<event>
 4    1  0.1043382E-007  0.1033992E+04  0.7818608E-02  0.9338378E-01
         -1   -1    0    0    0  501 -0.00000000000E+00  0.00000000000E+00  0.19492565719E+04  0.19492565719E+04  0.50400000000E-02 0.  1.
          1   -1    0    0  501    0  0.00000000000E+00 -0.00000000000E+00 -0.71920220413E+03  0.71920220414E+03  0.50400000000E-02 0. -1.
    8880023    1    1    2    0    0 -0.15474219853E+03  0.78191019552E+03  0.14923095098E+04  0.18155237760E+04  0.65864270000E+03 0.  1.
    8880022    1    1    2    0    0  0.15474219853E+03 -0.78191019552E+03 -0.26225514199E+03  0.85293500009E+03  0.15294330000E+03 0.  0.
<mgrwt>
<rscale>  0 0.97325229E+03</rscale>
<asrwt>0</asrwt>
<pdfrwt beam="1">  1        1 0.11064649E+00 0.10339917E+04</pdfrwt>
<pdfrwt beam="2">  1       -1 0.29988562E+00 0.10339917E+04</pdfrwt>
<totfact> 0.87246300E-01</totfact>
</mgrwt>
</event>
<event>
 4    1  0.1043382E-007  0.7437181E+03  0.7818608E-02  0.9849246E-01
         -1   -1    0    0    0  501 -0.00000000000E+00  0.00000000000E+00  0.12164563106E+03  0.12164563116E+03  0.50400000000E-02 0.  1.
          1   -1    0    0  501    0  0.00000000000E+00 -0.00000000000E+00 -0.27761061278E+04  0.27761061278E+04  0.50400000000E-02 0. -1.
    8880023    1    1    2    0    0 -0.30204177224E+03 -0.16756234312E+03 -0.13694515553E+04  0.15583690640E+04  0.65864270000E+03 0.  0.
    8880022    1    1    2    0    0  0.30204177224E+03  0.16756234312E+03 -0.12850089414E+04  0.13393826950E+04  0.15294330000E+03 0.  0.
<mgrwt>
<rscale>  0 0.62785376E+03</rscale>
<asrwt>0</asrwt>
<pdfrwt beam="1">  1        1 0.42709320E+00 0.74371808E+03</pdfrwt>
<pdfrwt beam="2">  1       -1 0.18714715E-01 0.74371808E+03</pdfrwt>
<totfact> 0.20867621E+01</totfact>
</mgrwt>
</event>
<event>
 4    1  0.1043382E-007  0.9193715E+03  0.7818608E-02  0.9495623E-01
          1   -1    0    0  501    0  0.00000000000E+00  0.00000000000E+00  0.32955483309E+04  0.32955483309E+04  0.50400000000E-02 0. -1.
         -1   -1    0    0    0  501 -0.00000000000E+00 -0.00000000000E+00 -0.49564324263E+03  0.49564324265E+03  0.50400000000E-02 0.  1.
    8880023    1    1    2    0    0  0.20774958250E+03  0.60685566845E+03  0.48286062142E+01  0.91938414880E+03  0.65864270000E+03 0.  1.
    8880022    1    1    2    0    0 -0.20774958250E+03 -0.60685566845E+03  0.27950764821E+04  0.28718074248E+04  0.15294330000E+03 0.  0.
<mgrwt>
<rscale>  0 0.84607258E+03</rscale>
<asrwt>0</asrwt>
<pdfrwt beam="1">  1        1 0.50700743E+00 0.91937147E+03</pdfrwt>
<pdfrwt beam="2">  1       -1 0.76252807E-01 0.91937147E+03</pdfrwt>
<totfact> 0.65264247E-01</totfact>
</mgrwt>
</event>
<event>
 4    1  0.1043382E-007  0.6604886E+03  0.7818608E-02  0.1023661E+00
          1   -1    0    0  501    0  0.00000000000E+00  0.00000000000E+00  0.71097089828E+03  0.71097089829E+03  0.50400000000E-02 0. -1.
         -1   -1    0    0    0  501 -0.00000000000E+00 -0.00000000000E+00 -0.61554962246E+03  0.61554962248E+03  0.50400000000E-02 0.  1.
    8880023    1    1    2    0    0  0.25372254092E+02 -0.42322820011E+02 -0.42261934584E+03  0.78412517503E+03  0.65864270000E+03 0.  1.
    8880022    1    1    2    0    0 -0.25372254092E+02  0.42322820011E+02  0.51804062166E+03  0.54239534574E+03  0.15294330000E+03 0.  0.
<mgrwt>
<rscale>  0 0.46388192E+03</rscale>
<asrwt>0</asrwt>
<pdfrwt beam="1">  1        1 0.10938014E+00 0.66048859E+03</pdfrwt>
<pdfrwt beam="2">  1       -1 0.94699942E-01 0.66048859E+03</pdfrwt>
<totfact> 0.29701305E+01</totfact>
</mgrwt>
</event>
<event>
 4    1  0.1043382E-007  0.9583507E+03  0.7818608E-02  0.9438200E-01
          1   -1    0    0  501    0  0.00000000000E+00  0.00000000000E+00  0.10296855563E+04  0.10296855564E+04  0.50400000000E-02 0. -1.
         -1   -1    0    0    0  501 -0.00000000000E+00 -0.00000000000E+00 -0.79265873981E+03  0.79265873983E+03  0.50400000000E-02 0.  1.
    8880023    1    1    2    0    0  0.56706864571E+01  0.69612767975E+03 -0.20988798007E+03  0.98106527491E+03  0.65864270000E+03 0.  0.
    8880022    1    1    2    0    0 -0.56706864571E+01 -0.69612767975E+03  0.44691479660E+03  0.84127902127E+03  0.15294330000E+03 0.  0.
<mgrwt>
<rscale>  0 0.88997580E+03</rscale>
<asrwt>0</asrwt>
<pdfrwt beam="1">  1        1 0.15841316E+00 0.95835072E+03</pdfrwt>
<pdfrwt beam="2">  1       -1 0.12194750E+00 0.95835072E+03</pdfrwt>
<totfact> 0.85974344E+00</totfact>
</mgrwt>
</event>
<event>
 4    1  0.1043382E-007  0.7716774E+03  0.7818608E-02  0.9775763E-01
          1   -1    0    0  501    0  0.00000000000E+00  0.00000000000E+00  0.15518506357E+04  0.15518506357E+04  0.50400000000E-02 0. -1.
         -1   -1    0    0    0  501 -0.00000000000E+00 -0.00000000000E+00 -0.35073755977E+03  0.35073755981E+03  0.50400000000E-02 0.  1.
    8880023    1    1    2    0    0 -0.38523147546E+03  0.11520637609E+03  0.17689631398E+03  0.79169331874E+03  0.65864270000E+03 0.  0.
    8880022    1    1    2    0    0  0.38523147546E+03 -0.11520637609E+03  0.10242167620E+04  0.11108948768E+04  0.15294330000E+03 0.  0.
<mgrwt>
<rscale>  0 0.66679616E+03</rscale>
<asrwt>0</asrwt>
<pdfrwt beam="1">  1        1 0.23874625E+00 0.77167740E+03</pdfrwt>
<pdfrwt beam="2">  1       -1 0.53959624E-01 0.77167740E+03</pdfrwt>
<totfact> 0.21547334E+01</totfact>
</mgrwt>
</event>
<event>
 4    1  0.1043382E-007  0.6833856E+03  0.7818608E-02  0.1007470E+00
         -1   -1    0    0    0  501 -0.00000000000E+00  0.00000000000E+00  0.12673910817E+03  0.12673910827E+03  0.50400000000E-02 0.  1.
          1   -1    0    0  501    0  0.00000000000E+00 -0.00000000000E+00 -0.39641373776E+04  0.39641373776E+04  0.50400000000E-02 0. -1.
    8880023    1    1    2    0    0 -0.14329285233E+03 -0.11257389193E+03 -0.83469678932E+03  0.10787653401E+04  0.65864270000E+03 0.  1.
    8880022    1    1    2    0    0  0.14329285233E+03  0.11257389193E+03 -0.30027014801E+04  0.30121111457E+04  0.15294330000E+03 0.  0.
<mgrwt>
<rscale>  0 0.52492701E+03</rscale>
<asrwt>0</asrwt>
<pdfrwt beam="1">  1        1 0.60986719E+00 0.68338564E+03</pdfrwt>
<pdfrwt beam="2">  1       -1 0.19498327E-01 0.68338564E+03</pdfrwt>
<totfact> 0.24507858E+00</totfact>
</mgrwt>
</event>
<event>
 4    1  0.1293306E-007  0.7309063E+03  0.7818608E-02  0.9887275E-01
          1   -1    0    0  501    0  0.00000000000E+00  0.00000000000E+00  0.10705122290E+04  0.10705122290E+04  0.50400000000E-02 0. -1.
         -1   -1    0    0    0  501 -0.00000000000E+00 -0.00000000000E+00 -0.10181248763E+04  0.10181248763E+04  0.50400000000E-02 0.  1.
    8880023    1    1    2    0    0 -0.20970002243E+03 -0.23757036692E+03 -0.84943195925E+03  0.11206063708E+04  0.65864270000E+03 0.  1.
    8880022    1    1    2    0    0  0.20970002243E+03  0.23757036692E+03  0.90181931193E+03  0.96803073455E+03  0.15294330000E+03 0.  0.
<mgrwt>
<rscale>  0 0.60881975E+03</rscale>
<asrwt>0</asrwt>
<pdfrwt beam="1">  1        1 0.16469419E+00 0.73090628E+03</pdfrwt>
<pdfrwt beam="2">  1       -1 0.15663460E+00 0.73090628E+03</pdfrwt>
<totfact> 0.43092810E+00</totfact>
</mgrwt>
</event>
<event>
 4    1  0.1043382E-007  0.7774800E+03  0.7818608E-02  0.9761790E-01
         -1   -1    0    0    0  501 -0.00000000000E+00  0.00000000000E+00  0.35123705429E+03  0.35123705433E+03  0.50400000000E-02 0.  1.
          1   -1    0    0  501    0  0.00000000000E+00 -0.00000000000E+00 -0.13275966111E+04  0.13275966111E+04  0.50400000000E-02 0. -1.
    8880023    1    1    2    0    0  0.40561607344E+03 -0.78362056802E+02 -0.22761526402E+03  0.81011352640E+03  0.65864270000E+03 0.  1.
    8880022    1    1    2    0    0 -0.40561607344E+03  0.78362056802E+02 -0.74874429280E+03  0.86872013906E+03  0.15294330000E+03 0.  0.
<mgrwt>
<rscale>  0 0.67454046E+03</rscale>
<asrwt>0</asrwt>
<pdfrwt beam="1">  1        1 0.20424563E+00 0.77748004E+03</pdfrwt>
<pdfrwt beam="2">  1       -1 0.54036471E-01 0.77748004E+03</pdfrwt>
<totfact> 0.30687283E+01</totfact>
</mgrwt>
</event>
<event>
 4    1  0.1043382E-007  0.6760877E+03  0.7818608E-02  0.1011629E+00
          1   -1    0    0  501    0  0.00000000000E+00  0.00000000000E+00  0.87821045299E+03  0.87821045301E+03  0.50400000000E-02 0. -1.
         -1   -1    0    0    0  501 -0.00000000000E+00 -0.00000000000E+00 -0.50701155810E+03  0.50701155812E+03  0.50400000000E-02 0.  1.
    8880023    1    1    2    0    0  0.15110815357E+03 -0.21230756467E+02 -0.25517167848E+03  0.72263905987E+03  0.65864270000E+03 0.  1.
    8880022    1    1    2    0    0 -0.15110815357E+03  0.21230756467E+02  0.62637057337E+03  0.66258295126E+03  0.15294330000E+03 0.  0.
<mgrwt>
<rscale>  0 0.50832220E+03</rscale>
<asrwt>0</asrwt>
<pdfrwt beam="1">  1        1 0.13510930E+00 0.67608773E+03</pdfrwt>
<pdfrwt beam="2">  1       -1 0.78001779E-01 0.67608773E+03</pdfrwt>
<totfact> 0.32289721E+01</totfact>
</mgrwt>
</event>
<event>
 4    1  0.1043382E-007  0.7619755E+03  0.7818608E-02  0.9800020E-01
          1   -1    0    0  501    0  0.00000000000E+00  0.00000000000E+00  0.23434028676E+04  0.23434028676E+04  0.50400000000E-02 0. -1.
         -1   -1    0    0    0  501 -0.00000000000E+00 -0.00000000000E+00 -0.50478477494E+03  0.50478477497E+03  0.50400000000E-02 0.  1.
    8880023    1    1    2    0    0  0.24786017636E+03 -0.29216727199E+03 -0.18404146543E+03  0.78388637513E+03  0.65864270000E+03 0.  1.
    8880022    1    1    2    0    0 -0.24786017636E+03  0.29216727199E+03  0.20226595580E+04  0.20643012674E+04  0.15294330000E+03 0.  0.
<mgrwt>
<rscale>  0 0.65361478E+03</rscale>
<asrwt>0</asrwt>
<pdfrwt beam="1">  1        1 0.36052352E+00 0.76197545E+03</pdfrwt>
<pdfrwt beam="2">  1       -1 0.77659196E-01 0.76197545E+03</pdfrwt>
<totfact> 0.30499347E+00</totfact>
</mgrwt>
</event>
<event>
 4    1  0.1043382E-007  0.7519730E+03  0.7818608E-02  0.9826350E-01
         -1   -1    0    0    0  501 -0.00000000000E+00  0.00000000000E+00  0.22955532396E+03  0.22955532402E+03  0.50400000000E-02 0.  1.
          1   -1    0    0  501    0  0.00000000000E+00 -0.00000000000E+00 -0.15440197547E+04  0.15440197548E+04  0.50400000000E-02 0. -1.
    8880023    1    1    2    0    0  0.23287179411E+03  0.27825142584E+03 -0.61728081933E+03  0.97288177321E+03  0.65864270000E+03 0.  0.
    8880022    1    1    2    0    0 -0.23287179411E+03 -0.27825142584E+03 -0.69718361145E+03  0.80069330556E+03  0.15294330000E+03 0.  0.
<mgrwt>
<rscale>  0 0.63967417E+03</rscale>
<asrwt>0</asrwt>
<pdfrwt beam="1">  1        1 0.23754149E+00 0.75197296E+03</pdfrwt>
<pdfrwt beam="2">  1       -1 0.35316205E-01 0.75197296E+03</pdfrwt>
<totfact> 0.47890179E+01</totfact>
</mgrwt>
</event>
<event>
 4    1  0.1043382E-007  0.6986305E+03  0.7818608E-02  0.1000293E+00
         -1   -1    0    0    0  501 -0.00000000000E+00  0.00000000000E+00  0.21428015056E+03  0.21428015062E+03  0.50400000000E-02 0.  1.
          1   -1    0    0  501    0  0.00000000000E+00 -0.00000000000E+00 -0.16984311614E+04  0.16984311614E+04  0.50400000000E-02 0. -1.
    8880023    1    1    2    0    0 -0.59949793145E+02 -0.22512307165E+03 -0.42553028378E+03  0.81802237363E+03  0.65864270000E+03 0.  1.
    8880022    1    1    2    0    0  0.59949793145E+02  0.22512307165E+03 -0.10586207270E+04  0.10946889384E+04  0.15294330000E+03 0.  0.
<mgrwt>
<rscale>  0 0.55521929E+03</rscale>
<asrwt>0</asrwt>
<pdfrwt beam="1">  1        1 0.26129709E+00 0.69863050E+03</pdfrwt>
<pdfrwt beam="2">  1       -1 0.32966178E-01 0.69863050E+03</pdfrwt>
<totfact> 0.42814125E+01</totfact>
</mgrwt>
</event>
<event>
 4    1  0.1043382E-007  0.8141630E+03  0.7818608E-02  0.9680970E-01
         -1   -1    0    0    0  501 -0.00000000000E+00  0.00000000000E+00  0.85779707425E+03  0.85779707427E+03  0.50400000000E-02 0.  1.
          1   -1    0    0  501    0  0.00000000000E+00 -0.00000000000E+00 -0.10406007306E+04  0.10406007306E+04  0.50400000000E-02 0. -1.
    8880023    1    1    2    0    0 -0.47588508345E+03  0.50838676367E+02  0.56961815543E+03  0.99364291017E+03  0.65864270000E+03 0.  1.
    8880022    1    1    2    0    0  0.47588508345E+03 -0.50838676367E+02 -0.75242181181E+03  0.90475489474E+03  0.15294330000E+03 0.  0.
<mgrwt>
<rscale>  0 0.72161226E+03</rscale>
<asrwt>0</asrwt>
<pdfrwt beam="1">  1        1 0.16009242E+00 0.81416300E+03</pdfrwt>
<pdfrwt beam="2">  1       -1 0.13196878E+00 0.81416300E+03</pdfrwt>
<totfact> 0.70441124E+00</totfact>
</mgrwt>
</event>
<event>
 4    1  0.1043382E-007  0.7657057E+03  0.7818608E-02  0.9790554E-01
         -1   -1    0    0    0  501 -0.00000000000E+00  0.00000000000E+00  0.10976506488E+04  0.10976506489E+04  0.50400000000E-02 0.  1.
          1   -1    0    0  501    0  0.00000000000E+00 -0.00000000000E+00 -0.71897760827E+03  0.71897760829E+03  0.50400000000E-02 0. -1.
    8880023    1    1    2    0    0  0.76364716679E+02  0.38296662312E+03  0.87770986615E+03  0.11647659936E+04  0.65864270000E+03 0.  1.
    8880022    1    1    2    0    0 -0.76364716679E+02 -0.38296662312E+03 -0.49903682557E+03  0.65186226358E+03  0.15294330000E+03 0.  0.
<mgrwt>
<rscale>  0 0.65871950E+03</rscale>
<asrwt>0</asrwt>
<pdfrwt beam="1">  1        1 0.11061194E+00 0.76570569E+03</pdfrwt>
<pdfrwt beam="2">  1       -1 0.16886933E+00 0.76570569E+03</pdfrwt>
<totfact> 0.67641452E+00</totfact>
</mgrwt>
</event>
<event>
 4    1  0.1043382E-007  0.7469962E+03  0.7818608E-02  0.9840017E-01
          1   -1    0    0  501    0  0.00000000000E+00  0.00000000000E+00  0.21628259603E+04  0.21628259604E+04  0.50400000000E-02 0. -1.
         -1   -1    0    0    0  501 -0.00000000000E+00 -0.00000000000E+00 -0.46544201738E+03  0.46544201741E+03  0.50400000000E-02 0.  1.
    8880023    1    1    2    0    0 -0.20814110654E+02  0.35179518108E+03 -0.13235796101E+03  0.75863160542E+03  0.65864270000E+03 0.  0.
    8880022    1    1    2    0    0  0.20814110654E+02 -0.35179518108E+03  0.18297419040E+04  0.18696363723E+04  0.15294330000E+03 0.  0.
<mgrwt>
<rscale>  0 0.63258510E+03</rscale>
<asrwt>0</asrwt>
<pdfrwt beam="1">  1        1 0.33274246E+00 0.74699617E+03</pdfrwt>
<pdfrwt beam="2">  1       -1 0.71606464E-01 0.74699617E+03</pdfrwt>
<totfact> 0.47903450E+00</totfact>
</mgrwt>
</event>
<event>
 4    1  0.1043382E-007  0.6923710E+03  0.7818608E-02  0.1003045E+00
         -1   -1    0    0    0  501 -0.00000000000E+00  0.00000000000E+00  0.45462461853E+03  0.45462461856E+03  0.50400000000E-02 0.  1.
          1   -1    0    0  501    0  0.00000000000E+00 -0.00000000000E+00 -0.90310238210E+03  0.90310238212E+03  0.50400000000E-02 0. -1.
    8880023    1    1    2    0    0  0.44260117911E+02 -0.20882644787E+03  0.14620992057E+03  0.70764043871E+03  0.65864270000E+03 0.  1.
    8880022    1    1    2    0    0 -0.44260117911E+02  0.20882644787E+03 -0.59468768414E+03  0.65008656197E+03  0.15294330000E+03 0.  0.
<mgrwt>
<rscale>  0 0.54334805E+03</rscale>
<asrwt>0</asrwt>
<pdfrwt beam="1">  1        1 0.13893883E+00 0.69237103E+03</pdfrwt>
<pdfrwt beam="2">  1       -1 0.69942249E-01 0.69237103E+03</pdfrwt>
<totfact> 0.38556907E+01</totfact>
</mgrwt>
</event>
<event>
 4    1  0.1043382E-007  0.6757831E+03  0.7818608E-02  0.1011817E+00
          1   -1    0    0  501    0  0.00000000000E+00  0.00000000000E+00  0.11292235531E+04  0.11292235531E+04  0.50400000000E-02 0. -1.
         -1   -1    0    0    0  501 -0.00000000000E+00 -0.00000000000E+00 -0.26601480085E+03  0.26601480090E+03  0.50400000000E-02 0.  1.
    8880023    1    1    2    0    0 -0.12758351246E+03 -0.81210114565E+02  0.21020282469E+03  0.70772033257E+03  0.65864270000E+03 0.  1.
    8880022    1    1    2    0    0  0.12758351246E+03  0.81210114565E+02  0.65300592754E+03  0.68751802142E+03  0.15294330000E+03 0.  0.
<mgrwt>
<rscale>  0 0.50758788E+03</rscale>
<asrwt>0</asrwt>
<pdfrwt beam="1">  1        1 0.17372670E+00 0.67578313E+03</pdfrwt>
<pdfrwt beam="2">  1       -1 0.40925355E-01 0.67578313E+03</pdfrwt>
<totfact> 0.72492400E+01</totfact>
</mgrwt>
</event>
<event>
 4    1  0.1043382E-007  0.8582037E+03  0.7818608E-02  0.9596767E-01
         -1   -1    0    0    0  501 -0.00000000000E+00  0.00000000000E+00  0.15285642926E+04  0.15285642926E+04  0.50400000000E-02 0.  1.
          1   -1    0    0  501    0  0.00000000000E+00 -0.00000000000E+00 -0.36630651293E+03  0.36630651296E+03  0.50400000000E-02 0. -1.
    8880023    1    1    2    0    0  0.35092695492E+03 -0.42373774670E+03  0.41189846350E+03  0.95193169722E+03  0.65864270000E+03 0.  1.
    8880022    1    1    2    0    0 -0.35092695492E+03  0.42373774670E+03  0.75035931617E+03  0.94293910835E+03  0.15294330000E+03 0.  0.
<mgrwt>
<rscale>  0 0.77510550E+03</rscale>
<asrwt>0</asrwt>
<pdfrwt beam="1">  1        1 0.56354849E-01 0.85820371E+03</pdfrwt>
<pdfrwt beam="2">  1       -1 0.23516374E+00 0.85820371E+03</pdfrwt>
<totfact> 0.60186199E+00</totfact>
</mgrwt>
</event>
<event>
 4    1  0.1043382E-007  0.9241494E+03  0.7818608E-02  0.9488326E-01
         -1   -1    0    0    0  501 -0.00000000000E+00  0.00000000000E+00  0.91817048186E+03  0.91817048188E+03  0.50400000000E-02 0.  1.
          1   -1    0    0  501    0  0.00000000000E+00 -0.00000000000E+00 -0.10232100234E+04  0.10232100235E+04  0.50400000000E-02 0. -1.
    8880023    1    1    2    0    0 -0.47655810930E+03  0.43947055039E+03  0.49195375092E+03  0.10469339499E+04  0.65864270000E+03 0.  0.
    8880022    1    1    2    0    0  0.47655810930E+03 -0.43947055039E+03 -0.59699329250E+03  0.89444655542E+03  0.15294330000E+03 0.  0.
<mgrwt>
<rscale>  0 0.85150013E+03</rscale>
<asrwt>0</asrwt>
<pdfrwt beam="1">  1        1 0.15741693E+00 0.92414945E+03</pdfrwt>
<pdfrwt beam="2">  1       -1 0.14125700E+00 0.92414945E+03</pdfrwt>
<totfact> 0.60106150E+00</totfact>
</mgrwt>
</event>
<event>
 4    1  0.1043382E-007  0.7612133E+03  0.7818608E-02  0.9801977E-01
          1   -1    0    0  501    0  0.00000000000E+00  0.00000000000E+00  0.10041085031E+04  0.10041085031E+04  0.50400000000E-02 0. -1.
         -1   -1    0    0    0  501 -0.00000000000E+00 -0.00000000000E+00 -0.68008370555E+03  0.68008370557E+03  0.50400000000E-02 0.  1.
    8880023    1    1    2    0    0 -0.17858067709E+03  0.33726010901E+03 -0.39374304632E+03  0.85701763818E+03  0.65864270000E+03 0.  1.
    8880022    1    1    2    0    0  0.17858067709E+03 -0.33726010901E+03  0.71776784386E+03  0.82717457048E+03  0.15294330000E+03 0.  0.
<mgrwt>
<rscale>  0 0.65256579E+03</rscale>
<asrwt>0</asrwt>
<pdfrwt beam="1">  1        1 0.15447823E+00 0.76121327E+03</pdfrwt>
<pdfrwt beam="2">  1       -1 0.10462826E+00 0.76121327E+03</pdfrwt>
<totfact> 0.13276251E+01</totfact>
</mgrwt>
</event>
<event>
 4    1  0.1043382E-007  0.1005456E+04  0.7818608E-02  0.9374454E-01
         -1   -1    0    0    0  501 -0.00000000000E+00  0.00000000000E+00  0.34042671752E+03  0.34042671755E+03  0.50400000000E-02 0.  1.
          1   -1    0    0  501    0  0.00000000000E+00 -0.00000000000E+00 -0.27532991622E+04  0.27532991622E+04  0.50400000000E-02 0. -1.
    8880023    1    1    2    0    0 -0.65379244005E+03  0.38689511533E+03 -0.19422714284E+04  0.21870895941E+04  0.65864270000E+03 0.  0.
    8880022    1    1    2    0    0  0.65379244005E+03 -0.38689511533E+03 -0.47060101635E+03  0.90663628569E+03  0.15294330000E+03 0.  0.
<mgrwt>
<rscale>  0 0.94208206E+03</rscale>
<asrwt>0</asrwt>
<pdfrwt beam="1">  1        1 0.42358447E+00 0.10054564E+04</pdfrwt>
<pdfrwt beam="2">  1       -1 0.52373343E-01 0.10054564E+04</pdfrwt>
<totfact> 0.33778174E+00</totfact>
</mgrwt>
</event>
<event>
 4    1  0.1043382E-007  0.6866637E+03  0.7818608E-02  0.1005780E+00
          1   -1    0    0  501    0  0.00000000000E+00  0.00000000000E+00  0.25541960165E+04  0.25541960166E+04  0.50400000000E-02 0. -1.
         -1   -1    0    0    0  501 -0.00000000000E+00 -0.00000000000E+00 -0.26488784705E+03  0.26488784710E+03  0.50400000000E-02 0.  1.
    8880023    1    1    2    0    0 -0.25095177697E+02 -0.19252805415E+03  0.19998600250E+03  0.71519327950E+03  0.65864270000E+03 0.  1.
    8880022    1    1    2    0    0  0.25095177697E+02  0.19252805415E+03  0.20893221670E+04  0.21038905842E+04  0.15294330000E+03 0.  0.
<mgrwt>
<rscale>  0 0.53186691E+03</rscale>
<asrwt>0</asrwt>
<pdfrwt beam="1">  1        1 0.39295324E+00 0.68666369E+03</pdfrwt>
<pdfrwt beam="2">  1       -1 0.40751976E-01 0.68666369E+03</pdfrwt>
<totfact> 0.78115026E+00</totfact>
</mgrwt>
</event>
<event>
 4    1  0.1043382E-007  0.9176006E+03  0.7818608E-02  0.9498348E-01
          1   -1    0    0  501    0  0.00000000000E+00  0.00000000000E+00  0.83357925770E+03  0.83357925771E+03  0.50400000000E-02 0. -1.
         -1   -1    0    0    0  501 -0.00000000000E+00 -0.00000000000E+00 -0.94814093443E+03  0.94814093445E+03  0.50400000000E-02 0.  1.
    8880023    1    1    2    0    0 -0.54869009977E+03 -0.32729178316E+03 -0.47408504348E+03  0.10328347262E+04  0.65864270000E+03 0.  0.
    8880022    1    1    2    0    0  0.54869009977E+03  0.32729178316E+03  0.35952336674E+03  0.74888546597E+03  0.15294330000E+03 0.  0.
<mgrwt>
<rscale>  0 0.84405741E+03</rscale>
<asrwt>0</asrwt>
<pdfrwt beam="1">  1        1 0.12824296E+00 0.91760064E+03</pdfrwt>
<pdfrwt beam="2">  1       -1 0.14586784E+00 0.91760064E+03</pdfrwt>
<totfact> 0.78648384E+00</totfact>
</mgrwt>
</event>
<event>
 4    1  0.1043382E-007  0.6771210E+03  0.7818608E-02  0.1011001E+00
         -1   -1    0    0    0  501 -0.00000000000E+00  0.00000000000E+00  0.36130747598E+03  0.36130747601E+03  0.50400000000E-02 0.  1.
          1   -1    0    0  501    0  0.00000000000E+00 -0.00000000000E+00 -0.18535814840E+04  0.18535814840E+04  0.50400000000E-02 0. -1.
    8880023    1    1    2    0    0 -0.10390699582E+03  0.11783878589E+03  0.29148904723E+02  0.67774811556E+03  0.65864270000E+03 0.  1.
    8880022    1    1    2    0    0  0.10390699582E+03 -0.11783878589E+03 -0.15214229128E+04  0.15371408445E+04  0.15294330000E+03 0.  0.
<mgrwt>
<rscale>  0 0.51078582E+03</rscale>
<asrwt>0</asrwt>
<pdfrwt beam="1">  1        1 0.28516638E+00 0.67712100E+03</pdfrwt>
<pdfrwt beam="2">  1       -1 0.55585767E-01 0.67712100E+03</pdfrwt>
<totfact> 0.12925541E+01</totfact>
</mgrwt>
</event>
<event>
 4    1  0.1043382E-007  0.8119169E+03  0.7818608E-02  0.9685598E-01
          1   -1    0    0  501    0  0.00000000000E+00  0.00000000000E+00  0.68795779011E+03  0.68795779013E+03  0.50400000000E-02 0. -1.
         -1   -1    0    0    0  501 -0.00000000000E+00 -0.00000000000E+00 -0.12579290451E+04  0.12579290451E+04  0.50400000000E-02 0.  1.
    8880023    1    1    2    0    0  0.21229290183E+03 -0.42465355117E+03 -0.99944945386E+03  0.12876755538E+04  0.65864270000E+03 0.  1.
    8880022    1    1    2    0    0 -0.21229290183E+03  0.42465355117E+03  0.42947819889E+03  0.65821128145E+03  0.15294330000E+03 0.  0.
<mgrwt>
<rscale>  0 0.71880807E+03</rscale>
<asrwt>0</asrwt>
<pdfrwt beam="1">  1        1 0.10583966E+00 0.81191694E+03</pdfrwt>
<pdfrwt beam="2">  1       -1 0.19352754E+00 0.81191694E+03</pdfrwt>
<totfact> 0.47958893E+00</totfact>
</mgrwt>
</event>
<event>
 4    1  0.1043382E-007  0.1135060E+04  0.7818608E-02  0.9222990E-01
          1   -1    0    0  501    0  0.00000000000E+00  0.00000000000E+00  0.35558413617E+04  0.35558413617E+04  0.50400000000E-02 0. -1.
         -1   -1    0    0    0  501 -0.00000000000E+00 -0.00000000000E+00 -0.41360206917E+03  0.41360206920E+03  0.50400000000E-02 0.  1.
    8880023    1    1    2    0    0  0.34166663567E+02  0.92378737340E+03  0.27089267519E+04  0.29371150515E+04  0.65864270000E+03 0.  0.
    8880022    1    1    2    0    0 -0.34166663567E+02 -0.92378737340E+03  0.43331254067E+03  0.10323283795E+04  0.15294330000E+03 0.  0.
<mgrwt>
<rscale>  0 0.10819253E+04</rscale>
<asrwt>0</asrwt>
<pdfrwt beam="1">  1        1 0.54705251E+00 0.11350598E+04</pdfrwt>
<pdfrwt beam="2">  1       -1 0.63631088E-01 0.11350598E+04</pdfrwt>
<totfact> 0.57573197E-01</totfact>
</mgrwt>
</event>
<event>
 4    1  0.1043382E-007  0.6831359E+03  0.7818608E-02  0.1007603E+00
          1   -1    0    0  501    0  0.00000000000E+00  0.00000000000E+00  0.25757094716E+04  0.25757094716E+04  0.50400000000E-02 0. -1.
         -1   -1    0    0    0  501 -0.00000000000E+00 -0.00000000000E+00 -0.17506910932E+03  0.17506910939E+03  0.50400000000E-02 0.  1.
    8880023    1    1    2    0    0  0.10578710714E+03 -0.14721930453E+03  0.52858375080E+03  0.86375657655E+03  0.65864270000E+03 0.  0.
    8880022    1    1    2    0    0 -0.10578710714E+03  0.14721930453E+03  0.18720566115E+04  0.18870220045E+04  0.15294330000E+03 0.  0.
<mgrwt>
<rscale>  0 0.52438652E+03</rscale>
<asrwt>0</asrwt>
<pdfrwt beam="1">  1        1 0.39626300E+00 0.68313589E+03</pdfrwt>
<pdfrwt beam="2">  1       -1 0.26933709E-01 0.68313589E+03</pdfrwt>
<totfact> 0.15699558E+01</totfact>
</mgrwt>
</event>
<event>
 4    1  0.1043382E-007  0.7898008E+03  0.7818608E-02  0.9733299E-01
          1   -1    0    0  501    0  0.00000000000E+00  0.00000000000E+00  0.97636047718E+03  0.97636047719E+03  0.50400000000E-02 0. -1.
         -1   -1    0    0    0  501 -0.00000000000E+00 -0.00000000000E+00 -0.40959266904E+03  0.40959266908E+03  0.50400000000E-02 0.  1.
    8880023    1    1    2    0    0 -0.14316211633E+03  0.41167908110E+03  0.45199446206E+03  0.90999135016E+03  0.65864270000E+03 0. -1.
    8880022    1    1    2    0    0  0.14316211633E+03 -0.41167908110E+03  0.11477334607E+03  0.47596179610E+03  0.15294330000E+03 0.  1.
<mgrwt>
<rscale>  0 0.69068337E+03</rscale>
<asrwt>0</asrwt>
<pdfrwt beam="1">  1        1 0.15020930E+00 0.78980077E+03</pdfrwt>
<pdfrwt beam="2">  1       -1 0.63014258E-01 0.78980077E+03</pdfrwt>
<totfact> 0.41188960E+01</totfact>
</mgrwt>
</event>
<event>
 4    1  0.1043382E-007  0.7568917E+03  0.7818608E-02  0.9813222E-01
         -1   -1    0    0    0  501 -0.00000000000E+00  0.00000000000E+00  0.50310560565E+03  0.50310560568E+03  0.50400000000E-02 0.  1.
          1   -1    0    0  501    0  0.00000000000E+00 -0.00000000000E+00 -0.15937849042E+04  0.15937849042E+04  0.50400000000E-02 0. -1.
    8880023    1    1    2    0    0  0.37280885490E+03  0.94028602560E+01  0.16794467552E+03  0.77530024918E+03  0.65864270000E+03 0.  1.
    8880022    1    1    2    0    0 -0.37280885490E+03 -0.94028602560E+01 -0.12586239741E+04  0.13215902607E+04  0.15294330000E+03 0.  0.
<mgrwt>
<rscale>  0 0.64657781E+03</rscale>
<asrwt>0</asrwt>
<pdfrwt beam="1">  1        1 0.24519767E+00 0.75689171E+03</pdfrwt>
<pdfrwt beam="2">  1       -1 0.77400863E-01 0.75689171E+03</pdfrwt>
<totfact> 0.97949221E+00</totfact>
</mgrwt>
</event>
<event>
 4    1  0.1043382E-007  0.6754756E+03  0.7818608E-02  0.1012008E+00
          1   -1    0    0  501    0  0.00000000000E+00  0.00000000000E+00  0.25208994551E+04  0.25208994551E+04  0.50400000000E-02 0. -1.
         -1   -1    0    0    0  501 -0.00000000000E+00 -0.00000000000E+00 -0.44305905416E+03  0.44305905419E+03  0.50400000000E-02 0.  1.
    8880023    1    1    2    0    0 -0.11102147720E+03  0.10065410869E+03 -0.17755491575E+03  0.69842177255E+03  0.65864270000E+03 0.  1.
    8880022    1    1    2    0    0  0.11102147720E+03 -0.10065410869E+03  0.22553953167E+04  0.22655367367E+04  0.15294330000E+03 0.  0.
<mgrwt>
<rscale>  0 0.50684255E+03</rscale>
<asrwt>0</asrwt>
<pdfrwt beam="1">  1        1 0.38783068E+00 0.67547555E+03</pdfrwt>
<pdfrwt beam="2">  1       -1 0.68162932E-01 0.67547555E+03</pdfrwt>
<totfact> 0.30789576E+00</totfact>
</mgrwt>
</event>
<event>
 4    1  0.1043382E-007  0.6599215E+03  0.7818608E-02  0.1024237E+00
          1   -1    0    0  501    0  0.00000000000E+00  0.00000000000E+00  0.16188573404E+04  0.16188573404E+04  0.50400000000E-02 0. -1.
         -1   -1    0    0    0  501 -0.00000000000E+00 -0.00000000000E+00 -0.32549225261E+03  0.32549225265E+03  0.50400000000E-02 0.  1.
    8880023    1    1    2    0    0  0.20775377949E+02 -0.35420275413E+02  0.19012601288E+02  0.66019534799E+03  0.65864270000E+03 0.  1.
    8880022    1    1    2    0    0 -0.20775377949E+02  0.35420275413E+02  0.12743524865E+04  0.12841542450E+04  0.15294330000E+03 0.  0.
<mgrwt>
<rscale>  0 0.46188147E+03</rscale>
<asrwt>0</asrwt>
<pdfrwt beam="1">  1        1 0.24905497E+00 0.65992152E+03</pdfrwt>
<pdfrwt beam="2">  1       -1 0.50075732E-01 0.65992152E+03</pdfrwt>
<totfact> 0.22727213E+01</totfact>
</mgrwt>
</event>
<event>
 4    1  0.1043382E-007  0.7723664E+03  0.7818608E-02  0.9774084E-01
          1   -1    0    0  501    0  0.00000000000E+00  0.00000000000E+00  0.31181173983E+03  0.31181173987E+03  0.50400000000E-02 0. -1.
         -1   -1    0    0    0  501 -0.00000000000E+00 -0.00000000000E+00 -0.15798334734E+04  0.15798334734E+04  0.50400000000E-02 0.  1.
    8880023    1    1    2    0    0 -0.28632169685E+03 -0.28418220724E+03 -0.12379959108E+04  0.14591722730E+04  0.65864270000E+03 0.  1.
    8880022    1    1    2    0    0  0.28632169685E+03  0.28418220724E+03 -0.30025822800E+02  0.43247294025E+03  0.15294330000E+03 0.  0.
<mgrwt>
<rscale>  0 0.66772087E+03</rscale>
<asrwt>0</asrwt>
<pdfrwt beam="1">  1        1 0.47971037E-01 0.77236639E+03</pdfrwt>
<pdfrwt beam="2">  1       -1 0.24305130E+00 0.77236639E+03</pdfrwt>
<totfact> 0.66721723E+00</totfact>
</mgrwt>
</event>
<event>
 4    1  0.1043382E-007  0.1399637E+04  0.7818608E-02  0.8983965E-01
          1   -1    0    0  501    0  0.00000000000E+00  0.00000000000E+00  0.16320174399E+04  0.16320174399E+04  0.50400000000E-02 0. -1.
         -1   -1    0    0    0  501 -0.00000000000E+00 -0.00000000000E+00 -0.18220253922E+04  0.18220253922E+04  0.50400000000E-02 0.  1.
    8880023    1    1    2    0    0 -0.10977831178E+04  0.56572549886E+03 -0.12060081044E+04  0.18475494223E+04  0.65864270000E+03 0.  0.
    8880022    1    1    2    0    0  0.10977831178E+04 -0.56572549886E+03  0.10160001521E+04  0.16064934098E+04  0.15294330000E+03 0.  0.
<mgrwt>
<rscale>  0 0.13591040E+04</rscale>
<asrwt>0</asrwt>
<pdfrwt beam="1">  1        1 0.25107961E+00 0.13996369E+04</pdfrwt>
<pdfrwt beam="2">  1       -1 0.28031160E+00 0.13996369E+04</pdfrwt>
<totfact> 0.22474665E-01</totfact>
</mgrwt>
</event>
<event>
 4    1  0.1043382E-007  0.6662585E+03  0.7818608E-02  0.1018500E+00
          1   -1    0    0  501    0  0.00000000000E+00  0.00000000000E+00  0.14167005042E+04  0.14167005042E+04  0.50400000000E-02 0. -1.
         -1   -1    0    0    0  501 -0.00000000000E+00 -0.00000000000E+00 -0.23711885097E+03  0.23711885102E+03  0.50400000000E-02 0.  1.
    8880023    1    1    2    0    0  0.28397584722E+02  0.96351942960E+02  0.25835504857E+03  0.71459614967E+03  0.65864270000E+03 0.  1.
    8880022    1    1    2    0    0 -0.28397584722E+02 -0.96351942960E+02  0.92122660466E+03  0.93922320556E+03  0.15294330000E+03 0.  0.
<mgrwt>
<rscale>  0 0.48231759E+03</rscale>
<asrwt>0</asrwt>
<pdfrwt beam="1">  1        1 0.21795393E+00 0.66625845E+03</pdfrwt>
<pdfrwt beam="2">  1       -1 0.36479823E-01 0.66625845E+03</pdfrwt>
<totfact> 0.55800756E+01</totfact>
</mgrwt>
</event>
<event>
 4    1  0.1043382E-007  0.9571361E+03  0.7818608E-02  0.9439920E-01
          1   -1    0    0  501    0  0.00000000000E+00  0.00000000000E+00  0.27801156190E+04  0.27801156190E+04  0.50400000000E-02 0. -1.
         -1   -1    0    0    0  501 -0.00000000000E+00 -0.00000000000E+00 -0.28541254195E+03  0.28541254199E+03  0.50400000000E-02 0.  1.
    8880023    1    1    2    0    0  0.32545667180E+03 -0.61349600298E+03  0.19413641513E+04  0.21644870905E+04  0.65864270000E+03 0.  0.
    8880022    1    1    2    0    0 -0.32545667180E+03  0.61349600298E+03  0.55333892578E+03  0.90104107048E+03  0.15294330000E+03 0.  0.
<mgrwt>
<rscale>  0 0.88861972E+03</rscale>
<asrwt>0</asrwt>
<pdfrwt beam="1">  1        1 0.42771008E+00 0.95713614E+03</pdfrwt>
<pdfrwt beam="2">  1       -1 0.43909624E-01 0.95713614E+03</pdfrwt>
<totfact> 0.45432049E+00</totfact>
</mgrwt>
</event>
<event>
 4    1  0.1043382E-007  0.6750845E+03  0.7818608E-02  0.1012253E+00
         -1   -1    0    0    0  501 -0.00000000000E+00  0.00000000000E+00  0.10519549816E+04  0.10519549816E+04  0.50400000000E-02 0.  1.
          1   -1    0    0  501    0  0.00000000000E+00 -0.00000000000E+00 -0.18776753427E+03  0.18776753434E+03  0.50400000000E-02 0. -1.
    8880023    1    1    2    0    0 -0.62067824273E+02  0.13444892214E+03  0.63272291445E+03  0.92524451915E+03  0.65864270000E+03 0.  1.
    8880022    1    1    2    0    0  0.62067824273E+02 -0.13444892214E+03  0.23146453284E+03  0.31447799677E+03  0.15294330000E+03 0. -1.
<mgrwt>
<rscale>  0 0.50588937E+03</rscale>
<asrwt>0</asrwt>
<pdfrwt beam="1">  1        1 0.28887313E-01 0.67508454E+03</pdfrwt>
<pdfrwt beam="2">  1       -1 0.16183923E+00 0.67508454E+03</pdfrwt>
<totfact> 0.46926518E+01</totfact>
</mgrwt>
</event>
<event>
 4    1  0.1043382E-007  0.1578257E+04  0.7818608E-02  0.8856265E-01
         -1   -1    0    0    0  501 -0.00000000000E+00  0.00000000000E+00  0.12116072862E+04  0.12116072862E+04  0.50400000000E-02 0.  1.
          1   -1    0    0  501    0  0.00000000000E+00 -0.00000000000E+00 -0.23729651638E+04  0.23729651638E+04  0.50400000000E-02 0. -1.
    8880023    1    1    2    0    0  0.43576662974E+03 -0.13664524990E+04 -0.14154245239E+04  0.21199815510E+04  0.65864270000E+03 0.  0.
    8880022    1    1    2    0    0 -0.43576662974E+03  0.13664524990E+04  0.25406664631E+03  0.14645908990E+04  0.15294330000E+03 0.  0.
<mgrwt>
<rscale>  0 0.15431340E+04</rscale>
<asrwt>0</asrwt>
<pdfrwt beam="1">  1        1 0.36507156E+00 0.15782570E+04</pdfrwt>
<pdfrwt beam="2">  1       -1 0.18640112E+00 0.15782570E+04</pdfrwt>
<totfact> 0.29135920E-01</totfact>
</mgrwt>
</event>
<event>
 4    1  0.1043382E-007  0.7371652E+03  0.7818608E-02  0.9868283E-01
          1   -1    0    0  501    0  0.00000000000E+00  0.00000000000E+00  0.14709093209E+04  0.14709093209E+04  0.50400000000E-02 0. -1.
         -1   -1    0    0    0  501 -0.00000000000E+00 -0.00000000000E+00 -0.41083266094E+03  0.41083266097E+03  0.50400000000E-02 0.  1.
    8880023    1    1    2    0    0  0.25946392637E+03  0.20562285381E+03 -0.24421615257E+02  0.73756959580E+03  0.65864270000E+03 0.  1.
    8880022    1    1    2    0    0 -0.25946392637E+03 -0.20562285381E+03  0.10844982752E+04  0.11441723860E+04  0.15294330000E+03 0.  0.
<mgrwt>
<rscale>  0 0.61823358E+03</rscale>
<asrwt>0</asrwt>
<pdfrwt beam="1">  1        1 0.22629374E+00 0.73716517E+03</pdfrwt>
<pdfrwt beam="2">  1       -1 0.63205026E-01 0.73716517E+03</pdfrwt>
<totfact> 0.18037560E+01</totfact>
</mgrwt>
</event>
<event>
 4    1  0.1043382E-007  0.1076410E+04  0.7818608E-02  0.9287786E-01
         -1   -1    0    0    0  501 -0.00000000000E+00  0.00000000000E+00  0.42642256060E+03  0.42642256063E+03  0.50400000000E-02 0.  1.
          1   -1    0    0  501    0  0.00000000000E+00 -0.00000000000E+00 -0.38248004656E+04  0.38248004656E+04  0.50400000000E-02 0. -1.
    8880023    1    1    2    0    0  0.44317662787E+03 -0.72694107141E+03 -0.42956268414E+03  0.11589577864E+04  0.65864270000E+03 0.  1.
    8880022    1    1    2    0    0 -0.44317662787E+03  0.72694107141E+03 -0.29688152208E+04  0.30922652398E+04  0.15294330000E+03 0.  0.
<mgrwt>
<rscale>  0 0.10191510E+04</rscale>
<asrwt>0</asrwt>
<pdfrwt beam="1">  1        1 0.58843082E+00 0.10764103E+04</pdfrwt>
<pdfrwt beam="2">  1       -1 0.65603474E-01 0.10764103E+04</pdfrwt>
<totfact> 0.33103321E-01</totfact>
</mgrwt>
</event>
<event>
 4    1  0.1043382E-007  0.8537436E+03  0.7818608E-02  0.9604791E-01
          1   -1    0    0  501    0  0.00000000000E+00  0.00000000000E+00  0.75239414624E+03  0.75239414626E+03  0.50400000000E-02 0. -1.
         -1   -1    0    0    0  501 -0.00000000000E+00 -0.00000000000E+00 -0.75669211884E+03  0.75669211886E+03  0.50400000000E-02 0.  1.
    8880023    1    1    2    0    0  0.18372223921E+03  0.51118882251E+03 -0.25582231986E+03  0.89124807941E+03  0.65864270000E+03 0.  1.
    8880022    1    1    2    0    0 -0.18372223921E+03 -0.51118882251E+03  0.25152434726E+03  0.61783818571E+03  0.15294330000E+03 0.  0.
<mgrwt>
<rscale>  0 0.76979904E+03</rscale>
<asrwt>0</asrwt>
<pdfrwt beam="1">  1        1 0.11575295E+00 0.85374357E+03</pdfrwt>
<pdfrwt beam="2">  1       -1 0.11641417E+00 0.85374357E+03</pdfrwt>
<totfact> 0.16508727E+01</totfact>
</mgrwt>
</event>
<event>
 4    1  0.1043382E-007  0.8726014E+03  0.7818608E-02  0.9571529E-01
         -1   -1    0    0    0  501 -0.00000000000E+00  0.00000000000E+00  0.17665784397E+04  0.17665784397E+04  0.50400000000E-02 0.  1.
          1   -1    0    0  501    0  0.00000000000E+00 -0.00000000000E+00 -0.33454902816E+03  0.33454902820E+03  0.50400000000E-02 0. -1.
    8880023    1    1    2    0    0 -0.55759580794E+03  0.12926659503E+03  0.11537255715E+04  0.14465530886E+04  0.65864270000E+03 0. -1.
    8880022    1    1    2    0    0  0.55759580794E+03 -0.12926659503E+03  0.27830384008E+03  0.65457437931E+03  0.15294330000E+03 0.  1.
<mgrwt>
<rscale>  0 0.79209553E+03</rscale>
<asrwt>0</asrwt>
<pdfrwt beam="1">  1        1 0.51469081E-01 0.87260137E+03</pdfrwt>
<pdfrwt beam="2">  1       -1 0.27178130E+00 0.87260137E+03</pdfrwt>
<totfact> 0.39241343E+00</totfact>
</mgrwt>
</event>
<event>
 4    1  0.1043382E-007  0.7098865E+03  0.7818608E-02  0.9958422E-01
         -1   -1    0    0    0  501 -0.00000000000E+00  0.00000000000E+00  0.30095183333E+03  0.30095183337E+03  0.50400000000E-02 0.  1.
          1   -1    0    0  501    0  0.00000000000E+00 -0.00000000000E+00 -0.25658922129E+04  0.25658922129E+04  0.50400000000E-02 0. -1.
    8880023    1    1    2    0    0 -0.26183213396E+03 -0.39656530075E+02 -0.14447341189E+03  0.72443873430E+03  0.65864270000E+03 0.  1.
    8880022    1    1    2    0    0  0.26183213396E+03  0.39656530075E+02 -0.21204669676E+04  0.21424053119E+04  0.15294330000E+03 0.  0.
<mgrwt>
<rscale>  0 0.57511538E+03</rscale>
<asrwt>0</asrwt>
<pdfrwt beam="1">  1        1 0.39475263E+00 0.70988655E+03</pdfrwt>
<pdfrwt beam="2">  1       -1 0.46300284E-01 0.70988655E+03</pdfrwt>
<totfact> 0.60345087E+00</totfact>
</mgrwt>
</event>
<event>
 4    1  0.1043382E-007  0.6720727E+03  0.7818608E-02  0.1014219E+00
          1   -1    0    0  501    0  0.00000000000E+00  0.00000000000E+00  0.14134487439E+04  0.14134487439E+04  0.50400000000E-02 0. -1.
         -1   -1    0    0    0  501 -0.00000000000E+00 -0.00000000000E+00 -0.16568061817E+03  0.16568061825E+03  0.50400000000E-02 0.  1.
    8880023    1    1    2    0    0  0.13113337215E+03 -0.25991505120E+02  0.60235305557E+03  0.90250259249E+03  0.65864270000E+03 0.  1.
    8880022    1    1    2    0    0 -0.13113337215E+03  0.25991505120E+02  0.64541507019E+03  0.67662676970E+03  0.15294330000E+03 0.  0.
<mgrwt>
<rscale>  0 0.49831909E+03</rscale>
<asrwt>0</asrwt>
<pdfrwt beam="1">  1        1 0.21745366E+00 0.67207271E+03</pdfrwt>
<pdfrwt beam="2">  1       -1 0.25489326E-01 0.67207271E+03</pdfrwt>
<totfact> 0.10477209E+02</totfact>
</mgrwt>
</event>
<event>
 4    1  0.1043382E-007  0.9561905E+03  0.7818608E-02  0.9441263E-01
         -1   -1    0    0    0  501 -0.00000000000E+00  0.00000000000E+00  0.10646189268E+04  0.10646189268E+04  0.50400000000E-02 0.  1.
          1   -1    0    0  501    0  0.00000000000E+00 -0.00000000000E+00 -0.13368700775E+04  0.13368700775E+04  0.50400000000E-02 0. -1.
    8880023    1    1    2    0    0  0.66514543738E+03  0.19511941502E+03  0.70902150000E+03  0.11903830193E+04  0.65864270000E+03 0.  0.
    8880022    1    1    2    0    0 -0.66514543738E+03 -0.19511941502E+03 -0.98127265064E+03  0.12111059850E+04  0.15294330000E+03 0.  0.
<mgrwt>
<rscale>  0 0.88756340E+03</rscale>
<asrwt>0</asrwt>
<pdfrwt beam="1">  1        1 0.20567232E+00 0.95619049E+03</pdfrwt>
<pdfrwt beam="2">  1       -1 0.16378753E+00 0.95619049E+03</pdfrwt>
<totfact> 0.23544870E+00</totfact>
</mgrwt>
</event>
<event>
 4    1  0.1043382E-007  0.9004344E+03  0.7818608E-02  0.9525335E-01
         -1   -1    0    0    0  501 -0.00000000000E+00  0.00000000000E+00  0.70494202058E+03  0.70494202059E+03  0.50400000000E-02 0.  1.
          1   -1    0    0  501    0  0.00000000000E+00 -0.00000000000E+00 -0.17463796512E+04  0.17463796512E+04  0.50400000000E-02 0. -1.
    8880023    1    1    2    0    0 -0.36027044424E+02  0.61292244046E+03  0.31550138760E+03  0.95410858805E+03  0.65864270000E+03 0.  0.
    8880022    1    1    2    0    0  0.36027044424E+02 -0.61292244046E+03 -0.13569390182E+04  0.14972130837E+04  0.15294330000E+03 0.  0.
<mgrwt>
<rscale>  0 0.82441496E+03</rscale>
<asrwt>0</asrwt>
<pdfrwt beam="1">  1        1 0.26867379E+00 0.90043438E+03</pdfrwt>
<pdfrwt beam="2">  1       -1 0.10845262E+00 0.90043438E+03</pdfrwt>
<totfact> 0.35739497E+00</totfact>
</mgrwt>
</event>
<event>
 4    1  0.1043382E-007  0.1534962E+04  0.7818608E-02  0.8885335E-01
         -1   -1    0    0    0  501 -0.00000000000E+00  0.00000000000E+00  0.76657929601E+03  0.76657929603E+03  0.50400000000E-02 0.  1.
          1   -1    0    0  501    0  0.00000000000E+00 -0.00000000000E+00 -0.29360133593E+04  0.29360133593E+04  0.50400000000E-02 0. -1.
    8880023    1    1    2    0    0  0.13349634915E+04 -0.37439345940E+03 -0.73532127593E+03  0.17020004615E+04  0.65864270000E+03 0.  0.
    8880022    1    1    2    0    0 -0.13349634915E+04  0.37439345940E+03 -0.14341127874E+04  0.20005921938E+04  0.15294330000E+03 0.  0.
<mgrwt>
<rscale>  0 0.14986748E+04</rscale>
<asrwt>0</asrwt>
<pdfrwt beam="1">  1        1 0.45169436E+00 0.15349620E+04</pdfrwt>
<pdfrwt beam="2">  1       -1 0.11793528E+00 0.15349620E+04</pdfrwt>
<totfact> 0.40912533E-01</totfact>
</mgrwt>
</event>
<event>
 4    1  0.1043382E-007  0.6916474E+03  0.7818608E-02  0.1003379E+00
         -1   -1    0    0    0  501 -0.00000000000E+00  0.00000000000E+00  0.12451418755E+04  0.12451418755E+04  0.50400000000E-02 0.  1.
          1   -1    0    0  501    0  0.00000000000E+00 -0.00000000000E+00 -0.66675290615E+03  0.66675290617E+03  0.50400000000E-02 0. -1.
    8880023    1    1    2    0    0  0.76572122585E+02  0.19672974433E+03  0.11168378481E+04  0.13136601034E+04  0.65864270000E+03 0.  1.
    8880022    1    1    2    0    0 -0.76572122585E+02 -0.19672974433E+03 -0.53844887870E+03  0.59823467824E+03  0.15294330000E+03 0.  0.
<mgrwt>
<rscale>  0 0.54193007E+03</rscale>
<asrwt>0</asrwt>
<pdfrwt beam="1">  1        1 0.10257737E+00 0.69164737E+03</pdfrwt>
<pdfrwt beam="2">  1       -1 0.19156029E+00 0.69164737E+03</pdfrwt>
<totfact> 0.52788832E+00</totfact>
</mgrwt>
</event>
<event>
 4    1  0.1043382E-007  0.1722048E+04  0.7818608E-02  0.8766928E-01
          1   -1    0    0  501    0  0.00000000000E+00  0.00000000000E+00  0.31928170211E+04  0.31928170211E+04  0.50400000000E-02 0. -1.
         -1   -1    0    0    0  501 -0.00000000000E+00 -0.00000000000E+00 -0.89996524143E+03  0.89996524145E+03  0.50400000000E-02 0.  1.
    8880023    1    1    2    0    0 -0.65130248363E+03  0.14517040637E+04  0.16000286321E+04  0.23506470266E+04  0.65864270000E+03 0.  0.
    8880022    1    1    2    0    0  0.65130248363E+03 -0.14517040637E+04  0.69282314757E+03  0.17421352360E+04  0.15294330000E+03 0.  0.
<mgrwt>
<rscale>  0 0.16902794E+04</rscale>
<asrwt>0</asrwt>
<pdfrwt beam="1">  1        1 0.49120261E+00 0.17220481E+04</pdfrwt>
<pdfrwt beam="2">  1       -1 0.13845619E+00 0.17220481E+04</pdfrwt>
<totfact> 0.17277722E-01</totfact>
</mgrwt>
</event>
<event>
 4    1  0.1043382E-007  0.8219304E+03  0.7818608E-02  0.9665242E-01
          1   -1    0    0  501    0  0.00000000000E+00  0.00000000000E+00  0.24532968522E+04  0.24532968522E+04  0.50400000000E-02 0. -1.
         -1   -1    0    0    0  501 -0.00000000000E+00 -0.00000000000E+00 -0.59518610540E+03  0.59518610542E+03  0.50400000000E-02 0.  1.
    8880023    1    1    2    0    0  0.46085641678E+03 -0.17137909520E+03 -0.26517705491E+03  0.86364837050E+03  0.65864270000E+03 0.  1.
    8880022    1    1    2    0    0 -0.46085641678E+03  0.17137909520E+03  0.21232878017E+04  0.21848345871E+04  0.15294330000E+03 0.  0.
<mgrwt>
<rscale>  0 0.73124510E+03</rscale>
<asrwt>0</asrwt>
<pdfrwt beam="1">  1        1 0.37743028E+00 0.82193043E+03</pdfrwt>
<pdfrwt beam="2">  1       -1 0.91567095E-01 0.82193043E+03</pdfrwt>
<totfact> 0.17796837E+00</totfact>
</mgrwt>
</event>
<event>
 4    1  0.1043382E-007  0.8755882E+03  0.7818608E-02  0.9566415E-01
          1   -1    0    0  501    0  0.00000000000E+00  0.00000000000E+00  0.29691034680E+04  0.29691034680E+04  0.50400000000E-02 0. -1.
         -1   -1    0    0    0  501 -0.00000000000E+00 -0.00000000000E+00 -0.69491701919E+03  0.69491701921E+03  0.50400000000E-02 0.  1.
    8880023    1    1    2    0    0 -0.29897878010E+03  0.49341276892E+03 -0.37201653357E+03  0.95134167311E+03  0.65864270000E+03 0.  0.
    8880022    1    1    2    0    0  0.29897878010E+03 -0.49341276892E+03  0.26462029823E+04  0.27126788141E+04  0.15294330000E+03 0. -1.
<mgrwt>
<rscale>  0 0.79559522E+03</rscale>
<asrwt>0</asrwt>
<pdfrwt beam="1">  1        1 0.45678516E+00 0.87558819E+03</pdfrwt>
<pdfrwt beam="2">  1       -1 0.10691031E+00 0.87558819E+03</pdfrwt>
<totfact> 0.54033438E-01</totfact>
</mgrwt>
</event>
<event>
 4    1  0.1043382E-007  0.7478662E+03  0.7818608E-02  0.9837599E-01
          1   -1    0    0  501    0  0.00000000000E+00  0.00000000000E+00  0.13160252687E+04  0.13160252687E+04  0.50400000000E-02 0. -1.
         -1   -1    0    0    0  501 -0.00000000000E+00 -0.00000000000E+00 -0.72281492762E+03  0.72281492763E+03  0.50400000000E-02 0.  1.
    8880023    1    1    2    0    0 -0.26906794834E+03 -0.23042596623E+03 -0.48654943424E+03  0.89220751228E+03  0.65864270000E+03 0.  1.
    8880022    1    1    2    0    0  0.26906794834E+03  0.23042596623E+03  0.10797597753E+04  0.11466326840E+04  0.15294330000E+03 0.  0.
<mgrwt>
<rscale>  0 0.63383240E+03</rscale>
<asrwt>0</asrwt>
<pdfrwt beam="1">  1        1 0.20246542E+00 0.74786623E+03</pdfrwt>
<pdfrwt beam="2">  1       -1 0.11120230E+00 0.74786623E+03</pdfrwt>
<totfact> 0.68035839E+00</totfact>
</mgrwt>
</event>
<event>
 4    1  0.1043382E-007  0.6800089E+03  0.7818608E-02  0.1009319E+00
         -1   -1    0    0    0  501 -0.00000000000E+00  0.00000000000E+00  0.16380886296E+04  0.16380886296E+04  0.50400000000E-02 0.  1.
          1   -1    0    0  501    0  0.00000000000E+00 -0.00000000000E+00 -0.24170334260E+03  0.24170334265E+03  0.50400000000E-02 0. -1.
    8880023    1    1    2    0    0  0.47289257761E+02 -0.16237484681E+03  0.14864654236E+04  0.16346227475E+04  0.65864270000E+03 0.  1.
    8880022    1    1    2    0    0 -0.47289257761E+02  0.16237484681E+03 -0.90080136567E+02  0.24516922481E+03  0.15294330000E+03 0.  0.
<mgrwt>
<rscale>  0 0.51746334E+03</rscale>
<asrwt>0</asrwt>
<pdfrwt beam="1">  1        1 0.37185128E-01 0.68000888E+03</pdfrwt>
<pdfrwt beam="2">  1       -1 0.25201364E+00 0.68000888E+03</pdfrwt>
<totfact> 0.82202272E+00</totfact>
</mgrwt>
</event>
<event>
 4    1  0.1043382E-007  0.7006616E+03  0.7818608E-02  0.9994468E-01
         -1   -1    0    0    0  501 -0.00000000000E+00  0.00000000000E+00  0.87813759791E+03  0.87813759793E+03  0.50400000000E-02 0.  1.
          1   -1    0    0  501    0  0.00000000000E+00 -0.00000000000E+00 -0.14844091230E+04  0.14844091230E+04  0.50400000000E-02 0. -1.
    8880023    1    1    2    0    0 -0.23506533293E+03  0.43135816246E+02  0.72095056311E+03  0.10053339396E+04  0.65864270000E+03 0.  0.
    8880022    1    1    2    0    0  0.23506533293E+03 -0.43135816246E+02 -0.13272220882E+04  0.13572127813E+04  0.15294330000E+03 0.  0.
<mgrwt>
<rscale>  0 0.55893479E+03</rscale>
<asrwt>0</asrwt>
<pdfrwt beam="1">  1        1 0.22837063E+00 0.70066156E+03</pdfrwt>
<pdfrwt beam="2">  1       -1 0.13509809E+00 0.70066156E+03</pdfrwt>
<totfact> 0.32488475E+00</totfact>
</mgrwt>
</event>
<event>
 4    1  0.1043382E-007  0.7661124E+03  0.7818608E-02  0.9789533E-01
         -1   -1    0    0    0  501 -0.00000000000E+00  0.00000000000E+00  0.10059980769E+04  0.10059980769E+04  0.50400000000E-02 0.  1.
          1   -1    0    0  501    0  0.00000000000E+00 -0.00000000000E+00 -0.59744718780E+03  0.59744718782E+03  0.50400000000E-02 0. -1.
    8880023    1    1    2    0    0  0.37612952200E+03 -0.10791010001E+03  0.74240799707E+03  0.10668166887E+04  0.65864270000E+03 0.  1.
    8880022    1    1    2    0    0 -0.37612952200E+03  0.10791010001E+03 -0.33385710797E+03  0.53662857598E+03  0.15294330000E+03 0.  0.
<mgrwt>
<rscale>  0 0.65927321E+03</rscale>
<asrwt>0</asrwt>
<pdfrwt beam="1">  1        1 0.91914953E-01 0.76611240E+03</pdfrwt>
<pdfrwt beam="2">  1       -1 0.15476893E+00 0.76611240E+03</pdfrwt>
<totfact> 0.11347853E+01</totfact>
</mgrwt>
</event>
<event>
 4    1  0.1043382E-007  0.9358025E+03  0.7818608E-02  0.9470842E-01
         -1   -1    0    0    0  501 -0.00000000000E+00  0.00000000000E+00  0.10205493985E+04  0.10205493985E+04  0.50400000000E-02 0.  1.
          1   -1    0    0  501    0  0.00000000000E+00 -0.00000000000E+00 -0.95402458484E+03  0.95402458486E+03  0.50400000000E-02 0. -1.
    8880023    1    1    2    0    0  0.79656621718E+02 -0.65997802133E+03  0.59737605739E+03  0.11102182336E+04  0.65864270000E+03 0.  0.
    8880022    1    1    2    0    0 -0.79656621718E+02  0.65997802133E+03 -0.53085124378E+03  0.86435574971E+03  0.15294330000E+03 0.  0.
<mgrwt>
<rscale>  0 0.86468058E+03</rscale>
<asrwt>0</asrwt>
<pdfrwt beam="1">  1        1 0.14677301E+00 0.93580253E+03</pdfrwt>
<pdfrwt beam="2">  1       -1 0.15700760E+00 0.93580253E+03</pdfrwt>
<totfact> 0.51188038E+00</totfact>
</mgrwt>
</event>
<event>
 4    1  0.1043382E-007  0.7062753E+03  0.7818608E-02  0.9972101E-01
         -1   -1    0    0    0  501 -0.00000000000E+00  0.00000000000E+00  0.10555221315E+03  0.10555221327E+03  0.50400000000E-02 0.  1.
          1   -1    0    0  501    0  0.00000000000E+00 -0.00000000000E+00 -0.33311230643E+04  0.33311230643E+04  0.50400000000E-02 0. -1.
    8880023    1    1    2    0    0  0.18689968032E+03  0.17344492381E+03 -0.12240983308E+04  0.14132379707E+04  0.65864270000E+03 0.  1.
    8880022    1    1    2    0    0 -0.18689968032E+03 -0.17344492381E+03 -0.20014725203E+04  0.20234373068E+04  0.15294330000E+03 0.  0.
<mgrwt>
<rscale>  0 0.56890653E+03</rscale>
<asrwt>0</asrwt>
<pdfrwt beam="1">  1        1 0.51248039E+00 0.70627533E+03</pdfrwt>
<pdfrwt beam="2">  1       -1 0.16238805E-01 0.70627533E+03</pdfrwt>
<totfact> 0.10530435E+01</totfact>
</mgrwt>
</event>
<event>
 4    1  0.1043382E-007  0.6636723E+03  0.7818608E-02  0.1020674E+00
          1   -1    0    0  501    0  0.00000000000E+00  0.00000000000E+00  0.31118331774E+03  0.31118331778E+03  0.50400000000E-02 0. -1.
         -1   -1    0    0    0  501 -0.00000000000E+00 -0.00000000000E+00 -0.57420232385E+03  0.57420232388E+03  0.50400000000E-02 0.  1.
    8880023    1    1    2    0    0  0.71676418313E+02 -0.38899656816E+02 -0.25778626519E+03  0.71197939368E+03  0.65864270000E+03 0.  0.
    8880022    1    1    2    0    0 -0.71676418313E+02  0.38899656816E+02 -0.52327409256E+01  0.17340624797E+03  0.15294330000E+03 0.  0.
<mgrwt>
<rscale>  0 0.47444076E+03</rscale>
<asrwt>0</asrwt>
<pdfrwt beam="1">  1        1 0.47874357E-01 0.66367228E+03</pdfrwt>
<pdfrwt beam="2">  1       -1 0.88338819E-01 0.66367228E+03</pdfrwt>
<totfact> 0.10748974E+02</totfact>
</mgrwt>
</event>
<event>
 4    1  0.1043382E-007  0.6798823E+03  0.7818608E-02  0.1009390E+00
          1   -1    0    0  501    0  0.00000000000E+00  0.00000000000E+00  0.24623404965E+04  0.24623404965E+04  0.50400000000E-02 0. -1.
         -1   -1    0    0    0  501 -0.00000000000E+00 -0.00000000000E+00 -0.11737803901E+03  0.11737803912E+03  0.50400000000E-02 0.  1.
    8880023    1    1    2    0    0  0.12476775851E+03 -0.11341394279E+03  0.96114405682E+03  0.11773010746E+04  0.65864270000E+03 0.  1.
    8880022    1    1    2    0    0 -0.12476775851E+03  0.11341394279E+03  0.13838184007E+04  0.14024174610E+04  0.15294330000E+03 0.  0.
<mgrwt>
<rscale>  0 0.51717665E+03</rscale>
<asrwt>0</asrwt>
<pdfrwt beam="1">  1        1 0.37882161E+00 0.67988229E+03</pdfrwt>
<pdfrwt beam="2">  1       -1 0.18058160E-01 0.67988229E+03</pdfrwt>
<totfact> 0.36748225E+01</totfact>
</mgrwt>
</event>
<event>
 4    1  0.1043382E-007  0.9318784E+03  0.7818608E-02  0.9476681E-01
          1   -1    0    0  501    0  0.00000000000E+00  0.00000000000E+00  0.97667542029E+03  0.97667542031E+03  0.50400000000E-02 0. -1.
         -1   -1    0    0    0  501 -0.00000000000E+00 -0.00000000000E+00 -0.67106926867E+03  0.67106926869E+03  0.50400000000E-02 0.  1.
    8880023    1    1    2    0    0 -0.33520643160E+03 -0.56764756985E+03  0.84059143901E+02  0.93566193749E+03  0.65864270000E+03 0.  0.
    8880022    1    1    2    0    0  0.33520643160E+03  0.56764756985E+03  0.22154700772E+03  0.71208275150E+03  0.15294330000E+03 0.  0.
<mgrwt>
<rscale>  0 0.86025082E+03</rscale>
<asrwt>0</asrwt>
<pdfrwt beam="1">  1        1 0.15025776E+00 0.93187838E+03</pdfrwt>
<pdfrwt beam="2">  1       -1 0.10324143E+00 0.93187838E+03</pdfrwt>
<totfact> 0.14107386E+01</totfact>
</mgrwt>
</event>
<event>
 4    1  0.1043382E-007  0.7952710E+03  0.7818608E-02  0.9721116E-01
         -1   -1    0    0    0  501 -0.00000000000E+00  0.00000000000E+00  0.39983480210E+03  0.39983480213E+03  0.50400000000E-02 0.  1.
          1   -1    0    0  501    0  0.00000000000E+00 -0.00000000000E+00 -0.18952480639E+04  0.18952480639E+04  0.50400000000E-02 0. -1.
    8880023    1    1    2    0    0  0.37298958287E+02  0.44413349695E+03 -0.75292295149E+02  0.79882720996E+03  0.65864270000E+03 0.  1.
    8880022    1    1    2    0    0 -0.37298958287E+02 -0.44413349695E+03 -0.14201209666E+04  0.14962556560E+04  0.15294330000E+03 0.  0.
<mgrwt>
<rscale>  0 0.69773360E+03</rscale>
<asrwt>0</asrwt>
<pdfrwt beam="1">  1        1 0.29157662E+00 0.79527101E+03</pdfrwt>
<pdfrwt beam="2">  1       -1 0.61513047E-01 0.79527101E+03</pdfrwt>
<totfact> 0.97591256E+00</totfact>
</mgrwt>
</event>
<event>
 4    1  0.1043382E-007  0.9613187E+03  0.7818608E-02  0.9434013E-01
         -1   -1    0    0    0  501 -0.00000000000E+00  0.00000000000E+00  0.50596973922E+03  0.50596973925E+03  0.50400000000E-02 0.  1.
          1   -1    0    0  501    0  0.00000000000E+00 -0.00000000000E+00 -0.22839615201E+04  0.22839615201E+04  0.50400000000E-02 0. -1.
    8880023    1    1    2    0    0  0.54260223956E+03 -0.44261301711E+03 -0.10151009486E+03  0.96666332242E+03  0.65864270000E+03 0.  1.
    8880022    1    1    2    0    0 -0.54260223956E+03  0.44261301711E+03 -0.16764816860E+04  0.18232679369E+04  0.15294330000E+03 0. -1.
<mgrwt>
<rscale>  0 0.89328665E+03</rscale>
<asrwt>0</asrwt>
<pdfrwt beam="1">  1        1 0.35137869E+00 0.96131872E+03</pdfrwt>
<pdfrwt beam="2">  1       -1 0.77841499E-01 0.96131872E+03</pdfrwt>
<totfact> 0.32220809E+00</totfact>
</mgrwt>
</event>
<event>
 4    1  0.1043382E-007  0.8320067E+03  0.7818608E-02  0.9645441E-01
          1   -1    0    0  501    0  0.00000000000E+00  0.00000000000E+00  0.26532187362E+04  0.26532187362E+04  0.50400000000E-02 0. -1.
         -1   -1    0    0    0  501 -0.00000000000E+00 -0.00000000000E+00 -0.31750420700E+03  0.31750420704E+03  0.50400000000E-02 0.  1.
    8880023    1    1    2    0    0 -0.13065461678E+03  0.49127825961E+03  0.32852607213E+03  0.89451916893E+03  0.65864270000E+03 0.  1.
    8880022    1    1    2    0    0  0.13065461678E+03 -0.49127825961E+03  0.20071884571E+04  0.20762037743E+04  0.15294330000E+03 0.  0.
<mgrwt>
<rscale>  0 0.74360268E+03</rscale>
<asrwt>0</asrwt>
<pdfrwt beam="1">  1        1 0.40818748E+00 0.83200671E+03</pdfrwt>
<pdfrwt beam="2">  1       -1 0.48846804E-01 0.83200671E+03</pdfrwt>
<totfact> 0.46510304E+00</totfact>
</mgrwt>
</event>
<event>
 4    1  0.1043382E-007  0.7929110E+03  0.7818608E-02  0.9726339E-01
          1   -1    0    0  501    0  0.00000000000E+00  0.00000000000E+00  0.21858312508E+04  0.21858312508E+04  0.50400000000E-02 0. -1.
         -1   -1    0    0    0  501 -0.00000000000E+00 -0.00000000000E+00 -0.41456889050E+03  0.41456889053E+03  0.50400000000E-02 0.  1.
    8880023    1    1    2    0    0  0.40160533156E+03  0.18333263986E+03  0.25630499360E+02  0.79332517163E+03  0.65864270000E+03 0.  1.
    8880022    1    1    2    0    0 -0.40160533156E+03 -0.18333263986E+03  0.17456318610E+04  0.18070749697E+04  0.15294330000E+03 0.  0.
<mgrwt>
<rscale>  0 0.69470018E+03</rscale>
<asrwt>0</asrwt>
<pdfrwt beam="1">  1        1 0.33628174E+00 0.79291103E+03</pdfrwt>
<pdfrwt beam="2">  1       -1 0.63779828E-01 0.79291103E+03</pdfrwt>
<totfact> 0.58016441E+00</totfact>
</mgrwt>
</event>
<event>
 4    1  0.1043382E-007  0.7136049E+03  0.7818608E-02  0.9944850E-01
          1   -1    0    0  501    0  0.00000000000E+00  0.00000000000E+00  0.99381233913E+03  0.99381233914E+03  0.50400000000E-02 0. -1.
         -1   -1    0    0    0  501 -0.00000000000E+00 -0.00000000000E+00 -0.92727242670E+03  0.92727242671E+03  0.50400000000E-02 0.  1.
    8880023    1    1    2    0    0 -0.25950738266E+03  0.89875773562E+02 -0.75655686544E+03  0.10400049198E+04  0.65864270000E+03 0.  1.
    8880022    1    1    2    0    0  0.25950738266E+03 -0.89875773562E+02  0.82309677788E+03  0.88107984604E+03  0.15294330000E+03 0.  0.
<mgrwt>
<rscale>  0 0.58136026E+03</rscale>
<asrwt>0</asrwt>
<pdfrwt beam="1">  1        1 0.15289421E+00 0.71360489E+03</pdfrwt>
<pdfrwt beam="2">  1       -1 0.14265730E+00 0.71360489E+03</pdfrwt>
<totfact> 0.63534516E+00</totfact>
</mgrwt>
</event>
<event>
 4    1  0.1043382E-007  0.9189201E+03  0.7818608E-02  0.9496317E-01
         -1   -1    0    0    0  501 -0.00000000000E+00  0.00000000000E+00  0.40929960577E+03  0.40929960580E+03  0.50400000000E-02 0.  1.
          1   -1    0    0  501    0  0.00000000000E+00 -0.00000000000E+00 -0.29737270231E+04  0.29737270231E+04  0.50400000000E-02 0. -1.
    8880023    1    1    2    0    0 -0.32098918590E+03 -0.55458984057E+03 -0.21602399369E+03  0.94397061440E+03  0.65864270000E+03 0.  0.
    8880022    1    1    2    0    0  0.32098918590E+03  0.55458984057E+03 -0.23484034236E+04  0.24390560145E+04  0.15294330000E+03 0.  0.
<mgrwt>
<rscale>  0 0.84555912E+03</rscale>
<asrwt>0</asrwt>
<pdfrwt beam="1">  1        1 0.45749645E+00 0.91892010E+03</pdfrwt>
<pdfrwt beam="2">  1       -1 0.62969172E-01 0.91892010E+03</pdfrwt>
<totfact> 0.16639204E+00</totfact>
</mgrwt>
</event>
<event>
 4    1  0.1043382E-007  0.6680437E+03  0.7818608E-02  0.1017106E+00
          1   -1    0    0  501    0  0.00000000000E+00  0.00000000000E+00  0.21610540532E+04  0.21610540532E+04  0.50400000000E-02 0. -1.
         -1   -1    0    0    0  501 -0.00000000000E+00 -0.00000000000E+00 -0.18155805538E+03  0.18155805545E+03  0.50400000000E-02 0.  1.
    8880023    1    1    2    0    0  0.74217267594E+02 -0.83450569566E+02  0.45938689117E+03  0.81075194875E+03  0.65864270000E+03 0.  1.
    8880022    1    1    2    0    0 -0.74217267594E+02  0.83450569566E+02  0.15201091066E+04  0.15318601599E+04  0.15294330000E+03 0.  0.
<mgrwt>
<rscale>  0 0.48745640E+03</rscale>
<asrwt>0</asrwt>
<pdfrwt beam="1">  1        1 0.33246989E+00 0.66804372E+03</pdfrwt>
<pdfrwt beam="2">  1       -1 0.27932006E-01 0.66804372E+03</pdfrwt>
<totfact> 0.28178711E+01</totfact>
</mgrwt>
</event>
<event>
 4    1  0.1043382E-007  0.1045939E+04  0.7818608E-02  0.9323780E-01
         -1   -1    0    0    0  501 -0.00000000000E+00  0.00000000000E+00  0.56383093923E+03  0.56383093925E+03  0.50400000000E-02 0.  1.
          1   -1    0    0  501    0  0.00000000000E+00 -0.00000000000E+00 -0.22611666443E+04  0.22611666443E+04  0.50400000000E-02 0. -1.
    8880023    1    1    2    0    0 -0.64498371186E+03  0.49413913451E+03 -0.13134743482E+03  0.10541536073E+04  0.65864270000E+03 0.  0.
    8880022    1    1    2    0    0  0.64498371186E+03 -0.49413913451E+03 -0.15659882702E+04  0.17708439763E+04  0.15294330000E+03 0.  0.
<mgrwt>
<rscale>  0 0.98622831E+03</rscale>
<asrwt>0</asrwt>
<pdfrwt beam="1">  1        1 0.34787179E+00 0.10459387E+04</pdfrwt>
<pdfrwt beam="2">  1       -1 0.86743223E-01 0.10459387E+04</pdfrwt>
<totfact> 0.26137481E+00</totfact>
</mgrwt>
</event>
<event>
 4    1  0.1043382E-007  0.9086657E+03  0.7818608E-02  0.9512261E-01
         -1   -1    0    0    0  501 -0.00000000000E+00  0.00000000000E+00  0.41532380203E+03  0.41532380206E+03  0.50400000000E-02 0.  1.
          1   -1    0    0  501    0  0.00000000000E+00 -0.00000000000E+00 -0.16063976546E+04  0.16063976546E+04  0.50400000000E-02 0. -1.
    8880023    1    1    2    0    0  0.42446926465E+01  0.62597531371E+03 -0.37775378264E+03  0.98405855383E+03  0.65864270000E+03 0.  0.
    8880022    1    1    2    0    0 -0.42446926465E+01 -0.62597531371E+03 -0.81332006993E+03  0.10376629029E+04  0.15294330000E+03 0.  0.
<mgrwt>
<rscale>  0 0.83385862E+03</rscale>
<asrwt>0</asrwt>
<pdfrwt beam="1">  1        1 0.24713810E+00 0.90866568E+03</pdfrwt>
<pdfrwt beam="2">  1       -1 0.63895970E-01 0.90866568E+03</pdfrwt>
<totfact> 0.13955337E+01</totfact>
</mgrwt>
</event>
<event>
 4    1  0.1043382E-007  0.7664713E+03  0.7818608E-02  0.9788633E-01
          1   -1    0    0  501    0  0.00000000000E+00  0.00000000000E+00  0.74340381329E+03  0.74340381331E+03  0.50400000000E-02 0. -1.
         -1   -1    0    0    0  501 -0.00000000000E+00 -0.00000000000E+00 -0.50322693851E+03  0.50322693853E+03  0.50400000000E-02 0.  1.
    8880023    1    1    2    0    0  0.37140388156E+02 -0.39024169059E+03  0.89999694865E+01  0.76652409696E+03  0.65864270000E+03 0.  1.
    8880022    1    1    2    0    0 -0.37140388156E+02  0.39024169059E+03  0.23117690529E+03  0.48010665488E+03  0.15294330000E+03 0.  0.
<mgrwt>
<rscale>  0 0.65976132E+03</rscale>
<asrwt>0</asrwt>
<pdfrwt beam="1">  1        1 0.11436982E+00 0.76647126E+03</pdfrwt>
<pdfrwt beam="2">  1       -1 0.77419529E-01 0.76647126E+03</pdfrwt>
<totfact> 0.42435735E+01</totfact>
</mgrwt>
</event>
<event>
 4    1  0.1043382E-007  0.6794377E+03  0.7818608E-02  0.1009644E+00
          1   -1    0    0  501    0  0.00000000000E+00  0.00000000000E+00  0.45832113281E+03  0.45832113284E+03  0.50400000000E-02 0. -1.
         -1   -1    0    0    0  501 -0.00000000000E+00 -0.00000000000E+00 -0.56513579107E+03  0.56513579109E+03  0.50400000000E-02 0.  1.
    8880023    1    1    2    0    0  0.28770699771E+02  0.16430963931E+03 -0.28363043421E+03  0.73626207305E+03  0.65864270000E+03 0.  1.
    8880022    1    1    2    0    0 -0.28770699771E+02 -0.16430963931E+03  0.17681577595E+03  0.28719485089E+03  0.15294330000E+03 0.  0.
<mgrwt>
<rscale>  0 0.51616562E+03</rscale>
<asrwt>0</asrwt>
<pdfrwt beam="1">  1        1 0.70510943E-01 0.67943772E+03</pdfrwt>
<pdfrwt beam="2">  1       -1 0.86943968E-01 0.67943772E+03</pdfrwt>
<totfact> 0.66748503E+01</totfact>
</mgrwt>
</event>
<event>
 4    1  0.1043382E-007  0.9214689E+03  0.7818608E-02  0.9492410E-01
         -1   -1    0    0    0  501 -0.00000000000E+00  0.00000000000E+00  0.38749973917E+03  0.38749973920E+03  0.50400000000E-02 0.  1.
          1   -1    0    0  501    0  0.00000000000E+00 -0.00000000000E+00 -0.23471909693E+04  0.23471909693E+04  0.50400000000E-02 0. -1.
    8880023    1    1    2    0    0 -0.71080633156E+02  0.64050151996E+03 -0.33550390303E+03  0.98064658705E+03  0.65864270000E+03 0.  1.
    8880022    1    1    2    0    0  0.71080633156E+02 -0.64050151996E+03 -0.16241873271E+04  0.17540441215E+04  0.15294330000E+03 0.  0.
<mgrwt>
<rscale>  0 0.84845684E+03</rscale>
<asrwt>0</asrwt>
<pdfrwt beam="1">  1        1 0.36110630E+00 0.92146886E+03</pdfrwt>
<pdfrwt beam="2">  1       -1 0.59615346E-01 0.92146886E+03</pdfrwt>
<totfact> 0.50621766E+00</totfact>
</mgrwt>
</event>
<event>
 4    1  0.1043382E-007  0.9492348E+03  0.7818608E-02  0.9451216E-01
         -1   -1    0    0    0  501 -0.00000000000E+00  0.00000000000E+00  0.16588787944E+04  0.16588787944E+04  0.50400000000E-02 0.  1.
          1   -1    0    0  501    0  0.00000000000E+00 -0.00000000000E+00 -0.82447039393E+03  0.82447039394E+03  0.50400000000E-02 0. -1.
    8880023    1    1    2    0    0 -0.67251453059E+03 -0.12231402081E+03 -0.42673417329E+03  0.10407443367E+04  0.65864270000E+03 0.  0.
    8880022    1    1    2    0    0  0.67251453059E+03  0.12231402081E+03  0.12611425738E+04  0.14426048516E+04  0.15294330000E+03 0.  0.
<mgrwt>
<rscale>  0 0.87978044E+03</rscale>
<asrwt>0</asrwt>
<pdfrwt beam="1">  1        1 0.12684160E+00 0.94923481E+03</pdfrwt>
<pdfrwt beam="2">  1       -1 0.25521212E+00 0.94923481E+03</pdfrwt>
<totfact> 0.13788209E+00</totfact>
</mgrwt>
</event>
<event>
 4    1  0.1043382E-007  0.1019853E+04  0.7818608E-02  0.9356032E-01
         -1   -1    0    0    0  501 -0.00000000000E+00  0.00000000000E+00  0.11437153615E+04  0.11437153615E+04  0.50400000000E-02 0.  1.
          1   -1    0    0  501    0  0.00000000000E+00 -0.00000000000E+00 -0.21675804108E+04  0.21675804108E+04  0.50400000000E-02 0. -1.
    8880023    1    1    2    0    0  0.52253049376E+03  0.57728012113E+03  0.81695904602E+03  0.13067221374E+04  0.65864270000E+03 0.  0.
    8880022    1    1    2    0    0 -0.52253049376E+03 -0.57728012113E+03 -0.18408240953E+04  0.20045736350E+04  0.15294330000E+03 0.  0.
<mgrwt>
<rscale>  0 0.95784102E+03</rscale>
<asrwt>0</asrwt>
<pdfrwt beam="1">  1        1 0.33347391E+00 0.10198533E+04</pdfrwt>
<pdfrwt beam="2">  1       -1 0.17595621E+00 0.10198533E+04</pdfrwt>
<totfact> 0.51563712E-01</totfact>
</mgrwt>
</event>
<event>
 4    1  0.1043382E-007  0.6676102E+03  0.7818608E-02  0.1017437E+00
         -1   -1    0    0    0  501 -0.00000000000E+00  0.00000000000E+00  0.32345835792E+03  0.32345835796E+03  0.50400000000E-02 0.  1.
          1   -1    0    0  501    0  0.00000000000E+00 -0.00000000000E+00 -0.10015176889E+04  0.10015176889E+04  0.50400000000E-02 0. -1.
    8880023    1    1    2    0    0 -0.16592204435E+02 -0.10778603553E+03 -0.50058811255E+02  0.66948429522E+03  0.65864270000E+03 0.  0.
    8880022    1    1    2    0    0  0.16592204435E+02  0.10778603553E+03 -0.62800051975E+03  0.65549175169E+03  0.15294330000E+03 0.  0.
<mgrwt>
<rscale>  0 0.48622876E+03</rscale>
<asrwt>0</asrwt>
<pdfrwt beam="1">  1        1 0.15407964E+00 0.66761017E+03</pdfrwt>
<pdfrwt beam="2">  1       -1 0.49762825E-01 0.66761017E+03</pdfrwt>
<totfact> 0.63009029E+01</totfact>
</mgrwt>
</event>
<event>
 4    1  0.1043382E-007  0.7385554E+03  0.7818608E-02  0.9864175E-01
         -1   -1    0    0    0  501 -0.00000000000E+00  0.00000000000E+00  0.38189790481E+03  0.38189790485E+03  0.50400000000E-02 0.  1.
          1   -1    0    0  501    0  0.00000000000E+00 -0.00000000000E+00 -0.10342091103E+04  0.10342091103E+04  0.50400000000E-02 0. -1.
    8880023    1    1    2    0    0  0.21501957947E+03 -0.25577428017E+03 -0.89519172392E+02  0.74396087965E+03  0.65864270000E+03 0.  0.
    8880022    1    1    2    0    0 -0.21501957947E+03  0.25577428017E+03 -0.56279203308E+03  0.67214613550E+03  0.15294330000E+03 0.  0.
<mgrwt>
<rscale>  0 0.62029368E+03</rscale>
<asrwt>0</asrwt>
<pdfrwt beam="1">  1        1 0.15910909E+00 0.73855542E+03</pdfrwt>
<pdfrwt beam="2">  1       -1 0.58753524E-01 0.73855542E+03</pdfrwt>
<totfact> 0.42891657E+01</totfact>
</mgrwt>
</event>
<event>
 4    1  0.1043382E-007  0.7694745E+03  0.7818608E-02  0.9781169E-01
         -1   -1    0    0    0  501 -0.00000000000E+00  0.00000000000E+00  0.19061125313E+04  0.19061125314E+04  0.50400000000E-02 0.  1.
          1   -1    0    0  501    0  0.00000000000E+00 -0.00000000000E+00 -0.34975528645E+03  0.34975528648E+03  0.50400000000E-02 0. -1.
    8880023    1    1    2    0    0  0.25856743399E+03 -0.30236361885E+03  0.16489907699E+04  0.18196872372E+04  0.65864270000E+03 0. -1.
    8880022    1    1    2    0    0 -0.25856743399E+03  0.30236361885E+03 -0.92633524995E+02  0.43618058060E+03  0.15294330000E+03 0. -1.
<mgrwt>
<rscale>  0 0.66382997E+03</rscale>
<asrwt>0</asrwt>
<pdfrwt beam="1">  1        1 0.53808505E-01 0.76947455E+03</pdfrwt>
<pdfrwt beam="2">  1       -1 0.29324808E+00 0.76947455E+03</pdfrwt>
<totfact> 0.27370551E+00</totfact>
</mgrwt>
</event>
<event>
 4    1  0.1043382E-007  0.6780782E+03  0.7818608E-02  0.1010432E+00
          1   -1    0    0  501    0  0.00000000000E+00  0.00000000000E+00  0.39178240680E+03  0.39178240684E+03  0.50400000000E-02 0. -1.
         -1   -1    0    0    0  501 -0.00000000000E+00 -0.00000000000E+00 -0.14403333685E+04  0.14403333685E+04  0.50400000000E-02 0.  1.
    8880023    1    1    2    0    0 -0.16068259182E+03 -0.12688267490E+02 -0.13184024545E+04  0.14825569553E+04  0.65864270000E+03 0.  1.
    8880022    1    1    2    0    0  0.16068259182E+03  0.12688267490E+02  0.26985149283E+03  0.34955882001E+03  0.15294330000E+03 0.  0.
<mgrwt>
<rscale>  0 0.51303198E+03</rscale>
<asrwt>0</asrwt>
<pdfrwt beam="1">  1        1 0.60274217E-01 0.67807824E+03</pdfrwt>
<pdfrwt beam="2">  1       -1 0.22158975E+00 0.67807824E+03</pdfrwt>
<totfact> 0.69256710E+00</totfact>
</mgrwt>
</event>
<event>
 4    1  0.1043382E-007  0.7090046E+03  0.7818608E-02  0.9961716E-01
         -1   -1    0    0    0  501 -0.00000000000E+00  0.00000000000E+00  0.42881796979E+03  0.42881796982E+03  0.50400000000E-02 0.  1.
          1   -1    0    0  501    0  0.00000000000E+00 -0.00000000000E+00 -0.17486543428E+04  0.17486543428E+04  0.50400000000E-02 0. -1.
    8880023    1    1    2    0    0  0.22784983131E+03  0.13023730159E+03  0.10844258491E+03  0.71724981759E+03  0.65864270000E+03 0.  1.
    8880022    1    1    2    0    0 -0.22784983131E+03 -0.13023730159E+03 -0.14282789579E+04  0.14602224950E+04  0.15294330000E+03 0.  0.
<mgrwt>
<rscale>  0 0.57361267E+03</rscale>
<asrwt>0</asrwt>
<pdfrwt beam="1">  1        1 0.26902374E+00 0.70900459E+03</pdfrwt>
<pdfrwt beam="2">  1       -1 0.65971996E-01 0.70900459E+03</pdfrwt>
<totfact> 0.10779075E+01</totfact>
</mgrwt>
</event>
<event>
 4    1  0.1043382E-007  0.9113171E+03  0.7818608E-02  0.9508103E-01
         -1   -1    0    0    0  501 -0.00000000000E+00  0.00000000000E+00  0.79943733491E+03  0.79943733493E+03  0.50400000000E-02 0.  1.
          1   -1    0    0  501    0  0.00000000000E+00 -0.00000000000E+00 -0.17572862987E+04  0.17572862987E+04  0.50400000000E-02 0. -1.
    8880023    1    1    2    0    0 -0.17231103211E+03  0.60580317514E+03  0.44293803945E+03  0.10132585513E+04  0.65864270000E+03 0.  1.
    8880022    1    1    2    0    0  0.17231103211E+03 -0.60580317514E+03 -0.14007870032E+04  0.15434650823E+04  0.15294330000E+03 0.  0.
<mgrwt>
<rscale>  0 0.83689054E+03</rscale>
<asrwt>0</asrwt>
<pdfrwt beam="1">  1        1 0.27035174E+00 0.91131706E+03</pdfrwt>
<pdfrwt beam="2">  1       -1 0.12299036E+00 0.91131706E+03</pdfrwt>
<totfact> 0.25911965E+00</totfact>
</mgrwt>
</event>
<event>
 4    1  0.1043382E-007  0.7060827E+03  0.7818608E-02  0.9972846E-01
          1   -1    0    0  501    0  0.00000000000E+00  0.00000000000E+00  0.16028185924E+04  0.16028185924E+04  0.50400000000E-02 0. -1.
         -1   -1    0    0    0  501 -0.00000000000E+00 -0.00000000000E+00 -0.22843817339E+03  0.22843817345E+03  0.50400000000E-02 0.  1.
    8880023    1    1    2    0    0 -0.20847502665E+03 -0.14587920788E+03  0.39754493929E+03  0.81030535297E+03  0.65864270000E+03 0.  1.
    8880022    1    1    2    0    0  0.20847502665E+03  0.14587920788E+03  0.97683547972E+03  0.10209514129E+04  0.15294330000E+03 0.  0.
<mgrwt>
<rscale>  0 0.56857107E+03</rscale>
<asrwt>0</asrwt>
<pdfrwt beam="1">  1        1 0.24658747E+00 0.70608270E+03</pdfrwt>
<pdfrwt beam="2">  1       -1 0.35144336E-01 0.70608270E+03</pdfrwt>
<totfact> 0.44299589E+01</totfact>
</mgrwt>
</event>
<event>
 4    1  0.1043382E-007  0.7273305E+03  0.7818608E-02  0.9898520E-01
          1   -1    0    0  501    0  0.00000000000E+00  0.00000000000E+00  0.62197448045E+03  0.62197448047E+03  0.50400000000E-02 0. -1.
         -1   -1    0    0    0  501 -0.00000000000E+00 -0.00000000000E+00 -0.76974370128E+03  0.76974370130E+03  0.50400000000E-02 0.  1.
    8880023    1    1    2    0    0 -0.30198981083E+03 -0.63257885772E+02 -0.51276480327E+03  0.88990862210E+03  0.65864270000E+03 0.  1.
    8880022    1    1    2    0    0  0.30198981083E+03  0.63257885772E+02  0.36499558244E+03  0.50180955967E+03  0.15294330000E+03 0.  0.
<mgrwt>
<rscale>  0 0.60333057E+03</rscale>
<asrwt>0</asrwt>
<pdfrwt beam="1">  1        1 0.95688382E-01 0.72733047E+03</pdfrwt>
<pdfrwt beam="2">  1       -1 0.11842211E+00 0.72733047E+03</pdfrwt>
<totfact> 0.21380166E+01</totfact>
</mgrwt>
</event>
<event>
 4    1  0.1043382E-007  0.7333109E+03  0.7818608E-02  0.9879878E-01
         -1   -1    0    0    0  501 -0.00000000000E+00  0.00000000000E+00  0.18562907291E+03  0.18562907298E+03  0.50400000000E-02 0.  1.
          1   -1    0    0  501    0  0.00000000000E+00 -0.00000000000E+00 -0.24279318901E+04  0.24279318901E+04  0.50400000000E-02 0. -1.
    8880023    1    1    2    0    0 -0.27863911375E+03  0.16215712681E+03 -0.64412824154E+03  0.97603590471E+03  0.65864270000E+03 0.  1.
    8880022    1    1    2    0    0  0.27863911375E+03 -0.16215712681E+03 -0.15981745756E+04  0.16375250583E+04  0.15294330000E+03 0.  0.
<mgrwt>
<rscale>  0 0.61246446E+03</rscale>
<asrwt>0</asrwt>
<pdfrwt beam="1">  1        1 0.37352796E+00 0.73331091E+03</pdfrwt>
<pdfrwt beam="2">  1       -1 0.28558321E-01 0.73331091E+03</pdfrwt>
<totfact> 0.17753438E+01</totfact>
</mgrwt>
</event>
<event>
 4    1  0.1043382E-007  0.7159113E+03  0.7818608E-02  0.9936672E-01
          1   -1    0    0  501    0  0.00000000000E+00  0.00000000000E+00  0.10537420355E+04  0.10537420355E+04  0.50400000000E-02 0. -1.
         -1   -1    0    0    0  501 -0.00000000000E+00 -0.00000000000E+00 -0.45178133677E+03  0.45178133680E+03  0.50400000000E-02 0.  1.
    8880023    1    1    2    0    0 -0.19164882346E+03 -0.20491340104E+03 -0.11077674236E+03  0.72443113294E+03  0.65864270000E+03 0.  1.
    8880022    1    1    2    0    0  0.19164882346E+03  0.20491340104E+03  0.71273744110E+03  0.78109223938E+03  0.15294330000E+03 0.  0.
<mgrwt>
<rscale>  0 0.58516477E+03</rscale>
<asrwt>0</asrwt>
<pdfrwt beam="1">  1        1 0.16211416E+00 0.71591129E+03</pdfrwt>
<pdfrwt beam="2">  1       -1 0.69504822E-01 0.71591129E+03</pdfrwt>
<totfact> 0.29692162E+01</totfact>
</mgrwt>
</event>
<event>
 4    1  0.1043382E-007  0.7342908E+03  0.7818608E-02  0.9876901E-01
         -1   -1    0    0    0  501 -0.00000000000E+00  0.00000000000E+00  0.17855193236E+03  0.17855193243E+03  0.50400000000E-02 0.  1.
          1   -1    0    0  501    0  0.00000000000E+00 -0.00000000000E+00 -0.17277915867E+04  0.17277915867E+04  0.50400000000E-02 0. -1.
    8880023    1    1    2    0    0  0.11521672322E+03 -0.30347642082E+03 -0.87262479077E+03  0.11404635299E+04  0.65864270000E+03 0. -1.
    8880022    1    1    2    0    0 -0.11521672322E+03  0.30347642082E+03 -0.67661486358E+03  0.76587998925E+03  0.15294330000E+03 0.  1.
<mgrwt>
<rscale>  0 0.61393953E+03</rscale>
<asrwt>0</asrwt>
<pdfrwt beam="1">  1        1 0.26581408E+00 0.73429084E+03</pdfrwt>
<pdfrwt beam="2">  1       -1 0.27469529E-01 0.73429084E+03</pdfrwt>
<totfact> 0.55990638E+01</totfact>
</mgrwt>
</event>
<event>
 4    1  0.1043382E-007  0.6767764E+03  0.7818608E-02  0.1011209E+00
          1   -1    0    0  501    0  0.00000000000E+00  0.00000000000E+00  0.56097322306E+03  0.56097322309E+03  0.50400000000E-02 0. -1.
         -1   -1    0    0    0  501 -0.00000000000E+00 -0.00000000000E+00 -0.36724954615E+03  0.36724954618E+03  0.50400000000E-02 0.  1.
    8880023    1    1    2    0    0 -0.98524038640E+02 -0.12045379190E+03  0.78042018380E+02  0.68126123115E+03  0.65864270000E+03 0.  0.
    8880022    1    1    2    0    0  0.98524038640E+02  0.12045379190E+03  0.11568165854E+03  0.24696153812E+03  0.15294330000E+03 0.  1.
<mgrwt>
<rscale>  0 0.50996882E+03</rscale>
<asrwt>0</asrwt>
<pdfrwt beam="1">  1        1 0.86303573E-01 0.67677641E+03</pdfrwt>
<pdfrwt beam="2">  1       -1 0.56499930E-01 0.67677641E+03</pdfrwt>
<totfact> 0.12218517E+02</totfact>
</mgrwt>
</event>
<event>
 4    1  0.1043382E-007  0.7113899E+03  0.7818608E-02  0.9952875E-01
         -1   -1    0    0    0  501 -0.00000000000E+00  0.00000000000E+00  0.24873459291E+04  0.24873459291E+04  0.50400000000E-02 0.  1.
          1   -1    0    0  501    0  0.00000000000E+00 -0.00000000000E+00 -0.16727425767E+03  0.16727425774E+03  0.50400000000E-02 0. -1.
    8880023    1    1    2    0    0 -0.11811326889E+03  0.24148433201E+03  0.22174292852E+04  0.23287482191E+04  0.65864270000E+03 0.  1.
    8880022    1    1    2    0    0  0.11811326889E+03 -0.24148433201E+03  0.10264238624E+03  0.32587196774E+03  0.15294330000E+03 0.  0.
<mgrwt>
<rscale>  0 0.57765751E+03</rscale>
<asrwt>0</asrwt>
<pdfrwt beam="1">  1        1 0.25734504E-01 0.71138993E+03</pdfrwt>
<pdfrwt beam="2">  1       -1 0.38266856E+00 0.71138993E+03</pdfrwt>
<totfact> 0.18838389E+00</totfact>
</mgrwt>
</event>
<event>
 4    1  0.1043382E-007  0.7155807E+03  0.7818608E-02  0.9937833E-01
          1   -1    0    0  501    0  0.00000000000E+00  0.00000000000E+00  0.89258556119E+03  0.89258556120E+03  0.50400000000E-02 0. -1.
         -1   -1    0    0    0  501 -0.00000000000E+00 -0.00000000000E+00 -0.51263007212E+03  0.51263007215E+03  0.50400000000E-02 0.  1.
    8880023    1    1    2    0    0 -0.13704532432E+03  0.24385252055E+03 -0.20035470268E+03  0.74310005103E+03  0.65864270000E+03 0.  1.
    8880022    1    1    2    0    0  0.13704532432E+03 -0.24385252055E+03  0.58031019174E+03  0.66211558232E+03  0.15294330000E+03 0.  0.
<mgrwt>
<rscale>  0 0.58462245E+03</rscale>
<asrwt>0</asrwt>
<pdfrwt beam="1">  1        1 0.13732085E+00 0.71558066E+03</pdfrwt>
<pdfrwt beam="2">  1       -1 0.78866166E-01 0.71558066E+03</pdfrwt>
<totfact> 0.30564845E+01</totfact>
</mgrwt>
</event>
<event>
 4    1  0.1043382E-007  0.8299136E+03  0.7818608E-02  0.9649501E-01
         -1   -1    0    0    0  501 -0.00000000000E+00  0.00000000000E+00  0.65958379448E+03  0.65958379450E+03  0.50400000000E-02 0.  1.
          1   -1    0    0  501    0  0.00000000000E+00 -0.00000000000E+00 -0.83580660034E+03  0.83580660035E+03  0.50400000000E-02 0. -1.
    8880023    1    1    2    0    0 -0.49202728061E+03  0.11338203346E+03  0.19223301056E+03  0.85188618194E+03  0.65864270000E+03 0.  0.
    8880022    1    1    2    0    0  0.49202728061E+03 -0.11338203346E+03 -0.36845581641E+03  0.64350421291E+03  0.15294330000E+03 0.  0.
<mgrwt>
<rscale>  0 0.74104778E+03</rscale>
<asrwt>0</asrwt>
<pdfrwt beam="1">  1        1 0.12858563E+00 0.82991357E+03</pdfrwt>
<pdfrwt beam="2">  1       -1 0.10147443E+00 0.82991357E+03</pdfrwt>
<totfact> 0.19333483E+01</totfact>
</mgrwt>
</event>
<event>
 4    1  0.1043382E-007  0.9804350E+03  0.7818608E-02  0.9407614E-01
         -1   -1    0    0    0  501 -0.00000000000E+00  0.00000000000E+00  0.36334368492E+03  0.36334368495E+03  0.50400000000E-02 0.  1.
          1   -1    0    0  501    0  0.00000000000E+00 -0.00000000000E+00 -0.29804003196E+04  0.29804003196E+04  0.50400000000E-02 0. -1.
    8880023    1    1    2    0    0  0.66831808089E+03  0.28424185710E+03 -0.50042371240E+03  0.11007618220E+04  0.65864270000E+03 0.  1.
    8880022    1    1    2    0    0 -0.66831808089E+03 -0.28424185710E+03 -0.21166329223E+04  0.22429821826E+04  0.15294330000E+03 0.  0.
<mgrwt>
<rscale>  0 0.91451682E+03</rscale>
<asrwt>0</asrwt>
<pdfrwt beam="1">  1        1 0.45852311E+00 0.98043495E+03</pdfrwt>
<pdfrwt beam="2">  1       -1 0.55899030E-01 0.98043495E+03</pdfrwt>
<totfact> 0.20612843E+00</totfact>
</mgrwt>
</event>
<event>
 4    1  0.1043382E-007  0.6629457E+03  0.7818608E-02  0.1021323E+00
          1   -1    0    0  501    0  0.00000000000E+00  0.00000000000E+00  0.28738927581E+04  0.28738927581E+04  0.50400000000E-02 0. -1.
         -1   -1    0    0    0  501 -0.00000000000E+00 -0.00000000000E+00 -0.10663072686E+03  0.10663072698E+03  0.50400000000E-02 0.  1.
    8880023    1    1    2    0    0  0.24663455937E+02 -0.71263582319E+02  0.96831361173E+03  0.11735110742E+04  0.65864270000E+03 0.  1.
    8880022    1    1    2    0    0 -0.24663455937E+02  0.71263582319E+02  0.17989484195E+04  0.18070124109E+04  0.15294330000E+03 0.  0.
<mgrwt>
<rscale>  0 0.47212266E+03</rscale>
<asrwt>0</asrwt>
<pdfrwt beam="1">  1        1 0.44213741E+00 0.66294569E+03</pdfrwt>
<pdfrwt beam="2">  1       -1 0.16404725E-01 0.66294569E+03</pdfrwt>
<totfact> 0.22412583E+01</totfact>
</mgrwt>
</event>
<event>
 4    1  0.1043382E-007  0.6696313E+03  0.7818608E-02  0.1015929E+00
         -1   -1    0    0    0  501 -0.00000000000E+00  0.00000000000E+00  0.22543069470E+04  0.22543069470E+04  0.50400000000E-02 0.  1.
          1   -1    0    0  501    0  0.00000000000E+00 -0.00000000000E+00 -0.51036841556E+03  0.51036841558E+03  0.50400000000E-02 0. -1.
    8880023    1    1    2    0    0  0.10621013504E+03 -0.57578886873E+02  0.21834825004E+04  0.22838568162E+04  0.65864270000E+03 0.  0.
    8880022    1    1    2    0    0 -0.10621013504E+03  0.57578886873E+02 -0.43954396891E+03  0.48081854646E+03  0.15294330000E+03 0. -1.
<mgrwt>
<rscale>  0 0.49184926E+03</rscale>
<asrwt>0</asrwt>
<pdfrwt beam="1">  1        1 0.78518218E-01 0.66963134E+03</pdfrwt>
<pdfrwt beam="2">  1       -1 0.34681645E+00 0.66963134E+03</pdfrwt>
<totfact> 0.76020100E-01</totfact>
</mgrwt>
</event>
<event>
 4    1  0.1043382E-007  0.7514482E+03  0.7818608E-02  0.9827773E-01
         -1   -1    0    0    0  501 -0.00000000000E+00  0.00000000000E+00  0.14789738933E+04  0.14789738933E+04  0.50400000000E-02 0.  1.
          1   -1    0    0  501    0  0.00000000000E+00 -0.00000000000E+00 -0.44198851441E+03  0.44198851444E+03  0.50400000000E-02 0. -1.
    8880023    1    1    2    0    0  0.21580537756E+03 -0.29033112843E+03  0.12616580562E+04  0.14684874471E+04  0.65864270000E+03 0.  0.
    8880022    1    1    2    0    0 -0.21580537756E+03  0.29033112843E+03 -0.22467267730E+03  0.45247496070E+03  0.15294330000E+03 0.  0.
<mgrwt>
<rscale>  0 0.63893172E+03</rscale>
<asrwt>0</asrwt>
<pdfrwt beam="1">  1        1 0.67998232E-01 0.75144816E+03</pdfrwt>
<pdfrwt beam="2">  1       -1 0.22753445E+00 0.75144816E+03</pdfrwt>
<totfact> 0.53335232E+00</totfact>
</mgrwt>
</event>
<event>
 4    1  0.1043382E-007  0.7629870E+03  0.7818608E-02  0.9797435E-01
          1   -1    0    0  501    0  0.00000000000E+00  0.00000000000E+00  0.10331049859E+04  0.10331049859E+04  0.50400000000E-02 0. -1.
         -1   -1    0    0    0  501 -0.00000000000E+00 -0.00000000000E+00 -0.66695208630E+03  0.66695208632E+03  0.50400000000E-02 0.  1.
    8880023    1    1    2    0    0  0.35688028627E+03  0.14482878572E+03 -0.37557534666E+03  0.85041517107E+03  0.65864270000E+03 0.  1.
    8880022    1    1    2    0    0 -0.35688028627E+03 -0.14482878572E+03  0.74172824622E+03  0.84964190113E+03  0.15294330000E+03 0.  0.
<mgrwt>
<rscale>  0 0.65500376E+03</rscale>
<asrwt>0</asrwt>
<pdfrwt beam="1">  1        1 0.15893923E+00 0.76298697E+03</pdfrwt>
<pdfrwt beam="2">  1       -1 0.10260801E+00 0.76298697E+03</pdfrwt>
<totfact> 0.13189674E+01</totfact>
</mgrwt>
</event>
<event>
 4    1  0.1043382E-007  0.7450282E+03  0.7818608E-02  0.9845535E-01
         -1   -1    0    0    0  501 -0.00000000000E+00  0.00000000000E+00  0.45808617215E+03  0.45808617218E+03  0.50400000000E-02 0.  1.
          1   -1    0    0  501    0  0.00000000000E+00 -0.00000000000E+00 -0.12358541332E+04  0.12358541332E+04  0.50400000000E-02 0. -1.
    8880023    1    1    2    0    0 -0.21049738156E+02  0.34758267036E+03  0.86167819549E+02  0.74999460238E+03  0.65864270000E+03 0.  1.
    8880022    1    1    2    0    0  0.21049738156E+02 -0.34758267036E+03 -0.86393578056E+03  0.94394570297E+03  0.15294330000E+03 0.  0.
<mgrwt>
<rscale>  0 0.62975084E+03</rscale>
<asrwt>0</asrwt>
<pdfrwt beam="1">  1        1 0.19013140E+00 0.74502819E+03</pdfrwt>
<pdfrwt beam="2">  1       -1 0.70474796E-01 0.74502819E+03</pdfrwt>
<totfact> 0.21124637E+01</totfact>
</mgrwt>
</event>
<event>
 4    1  0.1043382E-007  0.8132171E+03  0.7818608E-02  0.9682914E-01
          1   -1    0    0  501    0  0.00000000000E+00  0.00000000000E+00  0.13489578935E+04  0.13489578935E+04  0.50400000000E-02 0. -1.
         -1   -1    0    0    0  501 -0.00000000000E+00 -0.00000000000E+00 -0.34378435045E+03  0.34378435049E+03  0.50400000000E-02 0.  1.
    8880023    1    1    2    0    0 -0.22238734959E+03 -0.42196649970E+03  0.39730296668E+03  0.90508105368E+03  0.65864270000E+03 0.  1.
    8880022    1    1    2    0    0  0.22238734959E+03  0.42196649970E+03  0.60787057639E+03  0.78766119035E+03  0.15294330000E+03 0.  0.
<mgrwt>
<rscale>  0 0.72043238E+03</rscale>
<asrwt>0</asrwt>
<pdfrwt beam="1">  1        1 0.20753199E+00 0.81321711E+03</pdfrwt>
<pdfrwt beam="2">  1       -1 0.52889899E-01 0.81321711E+03</pdfrwt>
<totfact> 0.30769790E+01</totfact>
</mgrwt>
</event>
<event>
 4    1  0.1043382E-007  0.6596032E+03  0.7818608E-02  0.1024567E+00
          1   -1    0    0  501    0  0.00000000000E+00  0.00000000000E+00  0.88461706478E+03  0.88461706479E+03  0.50400000000E-02 0. -1.
         -1   -1    0    0    0  501 -0.00000000000E+00 -0.00000000000E+00 -0.74237678638E+03  0.74237678640E+03  0.50400000000E-02 0.  1.
    8880023    1    1    2    0    0  0.32101697958E+02  0.15348966451E+02 -0.58582057010E+03  0.88219162113E+03  0.65864270000E+03 0.  1.
    8880022    1    1    2    0    0 -0.32101697958E+02 -0.15348966451E+02  0.72806084849E+03  0.74480223006E+03  0.15294330000E+03 0.  0.
<mgrwt>
<rscale>  0 0.46074035E+03</rscale>
<asrwt>0</asrwt>
<pdfrwt beam="1">  1        1 0.13609493E+00 0.65960315E+03</pdfrwt>
<pdfrwt beam="2">  1       -1 0.11421181E+00 0.65960315E+03</pdfrwt>
<totfact> 0.13635651E+01</totfact>
</mgrwt>
</event>
<event>
 4    1  0.1043382E-007  0.7647989E+03  0.7818608E-02  0.9792838E-01
         -1   -1    0    0    0  501 -0.00000000000E+00  0.00000000000E+00  0.42684549135E+03  0.42684549138E+03  0.50400000000E-02 0.  1.
          1   -1    0    0  501    0  0.00000000000E+00 -0.00000000000E+00 -0.10436110788E+04  0.10436110788E+04  0.50400000000E-02 0. -1.
    8880023    1    1    2    0    0 -0.33563431740E+03  0.19610385879E+03 -0.70875957588E+03  0.10427163857E+04  0.65864270000E+03 0. -1.
    8880022    1    1    2    0    0  0.33563431740E+03 -0.19610385879E+03  0.91993988435E+02  0.42774018443E+03  0.15294330000E+03 0.  0.
<mgrwt>
<rscale>  0 0.65748293E+03</rscale>
<asrwt>0</asrwt>
<pdfrwt beam="1">  1        1 0.16055555E+00 0.76479888E+03</pdfrwt>
<pdfrwt beam="2">  1       -1 0.65668538E-01 0.76479888E+03</pdfrwt>
<totfact> 0.33726194E+01</totfact>
</mgrwt>
</event>
<event>
 4    1  0.1043382E-007  0.7992686E+03  0.7818608E-02  0.9712380E-01
          1   -1    0    0  501    0  0.00000000000E+00  0.00000000000E+00  0.10004613351E+04  0.10004613351E+04  0.50400000000E-02 0. -1.
         -1   -1    0    0    0  501 -0.00000000000E+00 -0.00000000000E+00 -0.74867724460E+03  0.74867724461E+03  0.50400000000E-02 0.  1.
    8880023    1    1    2    0    0  0.15740489288E+03 -0.42455119674E+03 -0.43688683987E+03  0.91087888112E+03  0.65864270000E+03 0.  1.
    8880022    1    1    2    0    0 -0.15740489288E+03  0.42455119674E+03  0.68867093040E+03  0.83825969863E+03  0.15294330000E+03 0.  0.
<mgrwt>
<rscale>  0 0.70284463E+03</rscale>
<asrwt>0</asrwt>
<pdfrwt beam="1">  1        1 0.15391713E+00 0.79926856E+03</pdfrwt>
<pdfrwt beam="2">  1       -1 0.11518111E+00 0.79926856E+03</pdfrwt>
<totfact> 0.10602795E+01</totfact>
</mgrwt>
</event>
<event>
 4    1  0.1043382E-007  0.7178211E+03  0.7818608E-02  0.9930029E-01
          1   -1    0    0  501    0  0.00000000000E+00  0.00000000000E+00  0.19453204045E+04  0.19453204045E+04  0.50400000000E-02 0. -1.
         -1   -1    0    0    0  501 -0.00000000000E+00 -0.00000000000E+00 -0.20082187409E+03  0.20082187415E+03  0.50400000000E-02 0.  1.
    8880023    1    1    2    0    0 -0.16719872753E+03 -0.23130404540E+03  0.53829879972E+03  0.89723618961E+03  0.65864270000E+03 0.  1.
    8880022    1    1    2    0    0  0.16719872753E+03  0.23130404540E+03  0.12061997307E+04  0.12489060890E+04  0.15294330000E+03 0.  0.
<mgrwt>
<rscale>  0 0.58827789E+03</rscale>
<asrwt>0</asrwt>
<pdfrwt beam="1">  1        1 0.29928007E+00 0.71782114E+03</pdfrwt>
<pdfrwt beam="2">  1       -1 0.30895672E-01 0.71782114E+03</pdfrwt>
<totfact> 0.32719737E+01</totfact>
</mgrwt>
</event>
<event>
 4    1  0.1043382E-007  0.6763159E+03  0.7818608E-02  0.1011489E+00
          1   -1    0    0  501    0  0.00000000000E+00  0.00000000000E+00  0.10165277972E+04  0.10165277972E+04  0.50400000000E-02 0. -1.
         -1   -1    0    0    0  501 -0.00000000000E+00 -0.00000000000E+00 -0.48852244718E+03  0.48852244720E+03  0.50400000000E-02 0.  1.
    8880023    1    1    2    0    0 -0.14898450187E+03  0.37370708156E+02 -0.23179544023E+03  0.71493516070E+03  0.65864270000E+03 0.  1.
    8880022    1    1    2    0    0  0.14898450187E+03 -0.37370708156E+02  0.75980079026E+03  0.79011508371E+03  0.15294330000E+03 0.  0.
<mgrwt>
<rscale>  0 0.50886975E+03</rscale>
<asrwt>0</asrwt>
<pdfrwt beam="1">  1        1 0.15638889E+00 0.67631587E+03</pdfrwt>
<pdfrwt beam="2">  1       -1 0.75157301E-01 0.67631587E+03</pdfrwt>
<totfact> 0.27111369E+01</totfact>
</mgrwt>
</event>
<event>
 4    1  0.1043382E-007  0.8067770E+03  0.7818608E-02  0.9696330E-01
         -1   -1    0    0    0  501 -0.00000000000E+00  0.00000000000E+00  0.13116833486E+04  0.13116833486E+04  0.50400000000E-02 0.  1.
          1   -1    0    0  501    0  0.00000000000E+00 -0.00000000000E+00 -0.66858033480E+03  0.66858033481E+03  0.50400000000E-02 0. -1.
    8880023    1    1    2    0    0 -0.39601826507E+03  0.24545560501E+03  0.10631296260E+04  0.13345912214E+04  0.65864270000E+03 0.  1.
    8880022    1    1    2    0    0  0.39601826507E+03 -0.24545560501E+03 -0.42002661217E+03  0.64567246204E+03  0.15294330000E+03 0.  0.
<mgrwt>
<rscale>  0 0.71235729E+03</rscale>
<asrwt>0</asrwt>
<pdfrwt beam="1">  1        1 0.10285851E+00 0.80677700E+03</pdfrwt>
<pdfrwt beam="2">  1       -1 0.20179744E+00 0.80677700E+03</pdfrwt>
<totfact> 0.43939422E+00</totfact>
</mgrwt>
</event>
<event>
 4    1  0.1043382E-007  0.1345066E+04  0.7818608E-02  0.9027588E-01
         -1   -1    0    0    0  501 -0.00000000000E+00  0.00000000000E+00  0.15722803982E+04  0.15722803982E+04  0.50400000000E-02 0.  1.
          1   -1    0    0  501    0  0.00000000000E+00 -0.00000000000E+00 -0.20007090856E+04  0.20007090856E+04  0.50400000000E-02 0. -1.
    8880023    1    1    2    0    0  0.85276449654E+03  0.80509964453E+03 -0.14732266675E+04  0.19948934168E+04  0.65864270000E+03 0.  0.
    8880022    1    1    2    0    0 -0.85276449654E+03 -0.80509964453E+03  0.10447979801E+04  0.15780960669E+04  0.15294330000E+03 0.  0.
<mgrwt>
<rscale>  0 0.13024965E+04</rscale>
<asrwt>0</asrwt>
<pdfrwt beam="1">  1        1 0.30780140E+00 0.13450661E+04</pdfrwt>
<pdfrwt beam="2">  1       -1 0.24188929E+00 0.13450661E+04</pdfrwt>
<totfact> 0.22571036E-01</totfact>
</mgrwt>
</event>
<event>
 4    1  0.1043382E-007  0.7632424E+03  0.7818608E-02  0.9796784E-01
          1   -1    0    0  501    0  0.00000000000E+00  0.00000000000E+00  0.80110124723E+03  0.80110124725E+03  0.50400000000E-02 0. -1.
         -1   -1    0    0    0  501 -0.00000000000E+00 -0.00000000000E+00 -0.82348710004E+03  0.82348710006E+03  0.50400000000E-02 0.  1.
    8880023    1    1    2    0    0 -0.16644221916E+03 -0.34788757901E+03 -0.55917724396E+03  0.94615969919E+03  0.65864270000E+03 0.  0.
    8880022    1    1    2    0    0  0.16644221916E+03  0.34788757901E+03  0.53679139115E+03  0.67842864811E+03  0.15294330000E+03 0.  0.
<mgrwt>
<rscale>  0 0.65535396E+03</rscale>
<asrwt>0</asrwt>
<pdfrwt beam="1">  1        1 0.12324635E+00 0.76324242E+03</pdfrwt>
<pdfrwt beam="2">  1       -1 0.12669032E+00 0.76324242E+03</pdfrwt>
<totfact> 0.12276200E+01</totfact>
</mgrwt>
</event>
<event>
 4    1  0.1043382E-007  0.9208162E+03  0.7818608E-02  0.9493409E-01
         -1   -1    0    0    0  501 -0.00000000000E+00  0.00000000000E+00  0.10741790189E+04  0.10741790189E+04  0.50400000000E-02 0.  1.
          1   -1    0    0  501    0  0.00000000000E+00 -0.00000000000E+00 -0.16920230419E+04  0.16920230419E+04  0.50400000000E-02 0. -1.
    8880023    1    1    2    0    0  0.37717723539E+03  0.52137275886E+03  0.78836991135E+03  0.12122002904E+04  0.65864270000E+03 0.  1.
    8880022    1    1    2    0    0 -0.37717723539E+03 -0.52137275886E+03 -0.14062139344E+04  0.15540017705E+04  0.15294330000E+03 0.  0.
<mgrwt>
<rscale>  0 0.84771518E+03</rscale>
<asrwt>0</asrwt>
<pdfrwt beam="1">  1        1 0.26031124E+00 0.92081617E+03</pdfrwt>
<pdfrwt beam="2">  1       -1 0.16525831E+00 0.92081617E+03</pdfrwt>
<totfact> 0.13136388E+00</totfact>
</mgrwt>
</event>
<event>
 4    1  0.1043382E-007  0.7503571E+03  0.7818608E-02  0.9830744E-01
         -1   -1    0    0    0  501 -0.00000000000E+00  0.00000000000E+00  0.71751743176E+03  0.71751743178E+03  0.50400000000E-02 0.  1.
          1   -1    0    0  501    0  0.00000000000E+00 -0.00000000000E+00 -0.29714614644E+04  0.29714614644E+04  0.50400000000E-02 0. -1.
    8880023    1    1    2    0    0  0.20571010536E+02 -0.35889052326E+03  0.50373795052E+03  0.90376307914E+03  0.65864270000E+03 0.  1.
    8880022    1    1    2    0    0 -0.20571010536E+02  0.35889052326E+03 -0.27576819831E+04  0.27852158170E+04  0.15294330000E+03 0.  0.
<mgrwt>
<rscale>  0 0.63738442E+03</rscale>
<asrwt>0</asrwt>
<pdfrwt beam="1">  1        1 0.45714791E+00 0.75035710E+03</pdfrwt>
<pdfrwt beam="2">  1       -1 0.11038730E+00 0.75035710E+03</pdfrwt>
<totfact> 0.51327528E-01</totfact>
</mgrwt>
</event>
<event>
 4    1  0.1043382E-007  0.9473988E+03  0.7818608E-02  0.9453866E-01
          1   -1    0    0  501    0  0.00000000000E+00  0.00000000000E+00  0.32876770949E+04  0.32876770949E+04  0.50400000000E-02 0. -1.
         -1   -1    0    0    0  501 -0.00000000000E+00 -0.00000000000E+00 -0.51496112760E+03  0.51496112762E+03  0.50400000000E-02 0.  1.
    8880023    1    1    2    0    0 -0.62100316923E+03 -0.27948062696E+03  0.41070962160E+01  0.94740774302E+03  0.65864270000E+03 0.  0.
    8880022    1    1    2    0    0  0.62100316923E+03  0.27948062696E+03  0.27686088711E+04  0.28552304795E+04  0.15294330000E+03 0.  0.
<mgrwt>
<rscale>  0 0.87772209E+03</rscale>
<asrwt>0</asrwt>
<pdfrwt beam="1">  1        1 0.50579648E+00 0.94739884E+03</pdfrwt>
<pdfrwt beam="2">  1       -1 0.79224789E-01 0.94739884E+03</pdfrwt>
<totfact> 0.60703319E-01</totfact>
</mgrwt>
</event>
<event>
 4    1  0.1043382E-007  0.7072507E+03  0.7818608E-02  0.9968356E-01
          1   -1    0    0  501    0  0.00000000000E+00  0.00000000000E+00  0.13442517716E+04  0.13442517716E+04  0.50400000000E-02 0. -1.
         -1   -1    0    0    0  501 -0.00000000000E+00 -0.00000000000E+00 -0.21669706500E+03  0.21669706506E+03  0.50400000000E-02 0.  1.
    8880023    1    1    2    0    0 -0.29845517865E+02 -0.25593467377E+03  0.50189633229E+03  0.86723897906E+03  0.65864270000E+03 0.  1.
    8880022    1    1    2    0    0  0.29845517865E+02  0.25593467377E+03  0.62565837427E+03  0.69370985757E+03  0.15294330000E+03 0.  0.
<mgrwt>
<rscale>  0 0.57059831E+03</rscale>
<asrwt>0</asrwt>
<pdfrwt beam="1">  1        1 0.20680796E+00 0.70725068E+03</pdfrwt>
<pdfrwt beam="2">  1       -1 0.33338011E-01 0.70725068E+03</pdfrwt>
<totfact> 0.73203139E+01</totfact>
</mgrwt>
</event>
<event>
 4    1  0.1043382E-007  0.8893308E+03  0.7818608E-02  0.9543381E-01
         -1   -1    0    0    0  501 -0.00000000000E+00  0.00000000000E+00  0.89831812576E+03  0.89831812578E+03  0.50400000000E-02 0.  1.
          1   -1    0    0  501    0  0.00000000000E+00 -0.00000000000E+00 -0.64413137043E+03  0.64413137045E+03  0.50400000000E-02 0. -1.
    8880023    1    1    2    0    0  0.46402608300E+03  0.37653526279E+03  0.42673451830E+02  0.89035399678E+03  0.65864270000E+03 0. -1.
    8880022    1    1    2    0    0 -0.46402608300E+03 -0.37653526279E+03  0.21151330350E+03  0.65209549945E+03  0.15294330000E+03 0.  1.
<mgrwt>
<rscale>  0 0.81159710E+03</rscale>
<asrwt>0</asrwt>
<pdfrwt beam="1">  1        1 0.99097134E-01 0.88933077E+03</pdfrwt>
<pdfrwt beam="2">  1       -1 0.13820279E+00 0.88933077E+03</pdfrwt>
<totfact> 0.13556617E+01</totfact>
</mgrwt>
</event>
<event>
 4    1  0.1043382E-007  0.7681992E+03  0.7818608E-02  0.9784325E-01
         -1   -1    0    0    0  501 -0.00000000000E+00  0.00000000000E+00  0.10372348892E+04  0.10372348892E+04  0.50400000000E-02 0.  1.
          1   -1    0    0  501    0  0.00000000000E+00 -0.00000000000E+00 -0.42410944972E+03  0.42410944975E+03  0.50400000000E-02 0. -1.
    8880023    1    1    2    0    0 -0.28675877924E+03  0.27219344675E+03  0.68753606702E+03  0.10309393385E+04  0.65864270000E+03 0. -1.
    8880022    1    1    2    0    0  0.28675877924E+03 -0.27219344675E+03 -0.74410627559E+02  0.43040500047E+03  0.15294330000E+03 0.  1.
<mgrwt>
<rscale>  0 0.66210581E+03</rscale>
<asrwt>0</asrwt>
<pdfrwt beam="1">  1        1 0.65247608E-01 0.76819924E+03</pdfrwt>
<pdfrwt beam="2">  1       -1 0.15957460E+00 0.76819924E+03</pdfrwt>
<totfact> 0.16740695E+01</totfact>
</mgrwt>
</event>
<event>
 4    1  0.1043382E-007  0.1210585E+04  0.7818608E-02  0.9146901E-01
          1   -1    0    0  501    0  0.00000000000E+00  0.00000000000E+00  0.10404907070E+04  0.10404907070E+04  0.50400000000E-02 0. -1.
         -1   -1    0    0    0  501 -0.00000000000E+00 -0.00000000000E+00 -0.13297143179E+04  0.13297143179E+04  0.50400000000E-02 0.  1.
    8880023    1    1    2    0    0  0.78762734262E+03  0.64136516840E+03 -0.51980221099E+03  0.13174637205E+04  0.65864270000E+03 0.  0.
    8880022    1    1    2    0    0 -0.78762734262E+03 -0.64136516840E+03  0.23057860016E+03  0.10527413044E+04  0.15294330000E+03 0.  0.
<mgrwt>
<rscale>  0 0.11618715E+04</rscale>
<asrwt>0</asrwt>
<pdfrwt beam="1">  1        1 0.16007549E+00 0.12105851E+04</pdfrwt>
<pdfrwt beam="2">  1       -1 0.20457143E+00 0.12105851E+04</pdfrwt>
<totfact> 0.19303749E+00</totfact>
</mgrwt>
</event>
<event>
 4    1  0.1043382E-007  0.6824232E+03  0.7818608E-02  0.1007985E+00
          1   -1    0    0  501    0  0.00000000000E+00  0.00000000000E+00  0.16401947214E+04  0.16401947214E+04  0.50400000000E-02 0. -1.
         -1   -1    0    0    0  501 -0.00000000000E+00 -0.00000000000E+00 -0.42216244896E+03  0.42216244899E+03  0.50400000000E-02 0.  1.
    8880023    1    1    2    0    0  0.13677999853E+03  0.11481496127E+03 -0.12938409487E+03  0.69458022834E+03  0.65864270000E+03 0.  1.
    8880022    1    1    2    0    0 -0.13677999853E+03 -0.11481496127E+03  0.13474163673E+04  0.13677769421E+04  0.15294330000E+03 0.  0.
<mgrwt>
<rscale>  0 0.52283445E+03</rscale>
<asrwt>0</asrwt>
<pdfrwt beam="1">  1        1 0.25233765E+00 0.68242322E+03</pdfrwt>
<pdfrwt beam="2">  1       -1 0.64948069E-01 0.68242322E+03</pdfrwt>
<totfact> 0.13212574E+01</totfact>
</mgrwt>
</event>
<event>
 4    1  0.1043382E-007  0.7042238E+03  0.7818608E-02  0.9980110E-01
          1   -1    0    0  501    0  0.00000000000E+00  0.00000000000E+00  0.34015174188E+04  0.34015174188E+04  0.50400000000E-02 0. -1.
         -1   -1    0    0    0  501 -0.00000000000E+00 -0.00000000000E+00 -0.24174340040E+03  0.24174340045E+03  0.50400000000E-02 0.  1.
    8880023    1    1    2    0    0  0.10793015466E+02  0.24900709230E+03  0.29486045244E+03  0.76346179595E+03  0.65864270000E+03 0.  1.
    8880022    1    1    2    0    0 -0.10793015466E+02 -0.24900709230E+03  0.28649135660E+04  0.28797990233E+04  0.15294330000E+03 0.  0.
<mgrwt>
<rscale>  0 0.56531025E+03</rscale>
<asrwt>0</asrwt>
<pdfrwt beam="1">  1        1 0.52331036E+00 0.70422385E+03</pdfrwt>
<pdfrwt beam="2">  1       -1 0.37191293E-01 0.70422385E+03</pdfrwt>
<totfact> 0.22689131E+00</totfact>
</mgrwt>
</event>
<event>
 4    1  0.1043382E-007  0.7280191E+03  0.7818608E-02  0.9896331E-01
         -1   -1    0    0    0  501 -0.00000000000E+00  0.00000000000E+00  0.32212146802E+03  0.32212146806E+03  0.50400000000E-02 0.  1.
          1   -1    0    0  501    0  0.00000000000E+00 -0.00000000000E+00 -0.20046454694E+04  0.20046454695E+04  0.50400000000E-02 0. -1.
    8880023    1    1    2    0    0 -0.11968049866E+03  0.28614365456E+03 -0.13418994100E+03  0.74028289142E+03  0.65864270000E+03 0.  0.
    8880022    1    1    2    0    0  0.11968049866E+03 -0.28614365456E+03 -0.15483340604E+04  0.15864840461E+04  0.15294330000E+03 0.  0.
<mgrwt>
<rscale>  0 0.60439439E+03</rscale>
<asrwt>0</asrwt>
<pdfrwt beam="1">  1        1 0.30840699E+00 0.72801911E+03</pdfrwt>
<pdfrwt beam="2">  1       -1 0.49557150E-01 0.72801911E+03</pdfrwt>
<totfact> 0.12656241E+01</totfact>
</mgrwt>
</event>
<event>
 4    1  0.1043382E-007  0.1128209E+04  0.7818608E-02  0.9230280E-01
          1   -1    0    0  501    0  0.00000000000E+00  0.00000000000E+00  0.14876564462E+04  0.14876564462E+04  0.50400000000E-02 0. -1.
         -1   -1    0    0    0  501 -0.00000000000E+00 -0.00000000000E+00 -0.90735726401E+03  0.90735726402E+03  0.50400000000E-02 0.  1.
    8880023    1    1    2    0    0 -0.91521878745E+03 -0.37696414371E+02 -0.24283928967E+03  0.11540483419E+04  0.65864270000E+03 0.  0.
    8880022    1    1    2    0    0  0.91521878745E+03  0.37696414371E+02  0.82313847188E+03  0.12409653684E+04  0.15294330000E+03 0.  0.
<mgrwt>
<rscale>  0 0.10746284E+04</rscale>
<asrwt>0</asrwt>
<pdfrwt beam="1">  1        1 0.22887022E+00 0.11282095E+04</pdfrwt>
<pdfrwt beam="2">  1       -1 0.13959343E+00 0.11282095E+04</pdfrwt>
<totfact> 0.27884987E+00</totfact>
</mgrwt>
</event>
<event>
 4    1  0.1043382E-007  0.9004488E+03  0.7818608E-02  0.9525312E-01
          1   -1    0    0  501    0  0.00000000000E+00  0.00000000000E+00  0.10041986118E+04  0.10041986118E+04  0.50400000000E-02 0. -1.
         -1   -1    0    0    0  501 -0.00000000000E+00 -0.00000000000E+00 -0.66698502731E+03  0.66698502733E+03  0.50400000000E-02 0.  1.
    8880023    1    1    2    0    0 -0.40403875439E+03  0.46233154528E+03 -0.94175153878E+02  0.90536011547E+03  0.65864270000E+03 0. -1.
    8880022    1    1    2    0    0  0.40403875439E+03 -0.46233154528E+03  0.43138873838E+03  0.76582352368E+03  0.15294330000E+03 0.  0.
<mgrwt>
<rscale>  0 0.82443151E+03</rscale>
<asrwt>0</asrwt>
<pdfrwt beam="1">  1        1 0.15449209E+00 0.90044877E+03</pdfrwt>
<pdfrwt beam="2">  1       -1 0.10261308E+00 0.90044877E+03</pdfrwt>
<totfact> 0.13660149E+01</totfact>
</mgrwt>
</event>
<event>
 4    1  0.1043382E-007  0.6788294E+03  0.7818608E-02  0.1009994E+00
          1   -1    0    0  501    0  0.00000000000E+00  0.00000000000E+00  0.12612223496E+04  0.12612223496E+04  0.50400000000E-02 0. -1.
         -1   -1    0    0    0  501 -0.00000000000E+00 -0.00000000000E+00 -0.31974373301E+03  0.31974373305E+03  0.50400000000E-02 0.  1.
    8880023    1    1    2    0    0  0.12079275856E+03 -0.11139246749E+03  0.71605825403E+02  0.68259561442E+03  0.65864270000E+03 0.  1.
    8880022    1    1    2    0    0 -0.12079275856E+03  0.11139246749E+03  0.86987279115E+03  0.89837046820E+03  0.15294330000E+03 0.  0.
<mgrwt>
<rscale>  0 0.51477142E+03</rscale>
<asrwt>0</asrwt>
<pdfrwt beam="1">  1        1 0.19403421E+00 0.67882942E+03</pdfrwt>
<pdfrwt beam="2">  1       -1 0.49191343E-01 0.67882942E+03</pdfrwt>
<totfact> 0.41365276E+01</totfact>
</mgrwt>
</event>
<event>
 4    1  0.1043382E-007  0.6593581E+03  0.7818608E-02  0.1024824E+00
          1   -1    0    0  501    0  0.00000000000E+00  0.00000000000E+00  0.32330558465E+03  0.32330558469E+03  0.50400000000E-02 0. -1.
         -1   -1    0    0    0  501 -0.00000000000E+00 -0.00000000000E+00 -0.56436993419E+03  0.56436993422E+03  0.50400000000E-02 0.  1.
    8880023    1    1    2    0    0 -0.16188006686E+02 -0.26091963967E+02 -0.29537650713E+03  0.72249590267E+03  0.65864270000E+03 0.  1.
    8880022    1    1    2    0    0  0.16188006686E+02  0.26091963967E+02  0.54312157580E+02  0.16517961624E+03  0.15294330000E+03 0.  0.
<mgrwt>
<rscale>  0 0.45985274E+03</rscale>
<asrwt>0</asrwt>
<pdfrwt beam="1">  1        1 0.49739321E-01 0.65935806E+03</pdfrwt>
<pdfrwt beam="2">  1       -1 0.86826144E-01 0.65935806E+03</pdfrwt>
<totfact> 0.10623972E+02</totfact>
</mgrwt>
</event>
<event>
 4    1  0.1043382E-007  0.6978289E+03  0.7818608E-02  0.1000633E+00
          1   -1    0    0  501    0  0.00000000000E+00  0.00000000000E+00  0.13609147009E+04  0.13609147009E+04  0.50400000000E-02 0. -1.
         -1   -1    0    0    0  501 -0.00000000000E+00 -0.00000000000E+00 -0.49504081243E+03  0.49504081245E+03  0.50400000000E-02 0.  1.
    8880023    1    1    2    0    0 -0.17518134436E+03  0.14988798323E+03 -0.22291191621E+03  0.73256729355E+03  0.65864270000E+03 0.  1.
    8880022    1    1    2    0    0  0.17518134436E+03 -0.14988798323E+03  0.10887858047E+04  0.11233882198E+04  0.15294330000E+03 0.  0.
<mgrwt>
<rscale>  0 0.55373555E+03</rscale>
<asrwt>0</asrwt>
<pdfrwt beam="1">  1        1 0.20937149E+00 0.69782886E+03</pdfrwt>
<pdfrwt beam="2">  1       -1 0.76160127E-01 0.69782886E+03</pdfrwt>
<totfact> 0.14772183E+01</totfact>
</mgrwt>
</event>
<event>
 4    1  0.1043382E-007  0.7687638E+03  0.7818608E-02  0.9782925E-01
          1   -1    0    0  501    0  0.00000000000E+00  0.00000000000E+00  0.18507168485E+04  0.18507168485E+04  0.50400000000E-02 0. -1.
         -1   -1    0    0    0  501 -0.00000000000E+00 -0.00000000000E+00 -0.33427684078E+03  0.33427684081E+03  0.50400000000E-02 0.  1.
    8880023    1    1    2    0    0 -0.34457737231E+03 -0.19609701706E+03  0.18964670763E+03  0.79181038487E+03  0.65864270000E+03 0.  1.
    8880022    1    1    2    0    0  0.34457737231E+03  0.19609701706E+03  0.13267933001E+04  0.13931833045E+04  0.15294330000E+03 0.  0.
<mgrwt>
<rscale>  0 0.66286973E+03</rscale>
<asrwt>0</asrwt>
<pdfrwt beam="1">  1        1 0.28472566E+00 0.76876382E+03</pdfrwt>
<pdfrwt beam="2">  1       -1 0.51427207E-01 0.76876382E+03</pdfrwt>
<totfact> 0.14861424E+01</totfact>
</mgrwt>
</event>
<event>
 4    1  0.1043382E-007  0.8014516E+03  0.7818608E-02  0.9707666E-01
          1   -1    0    0  501    0  0.00000000000E+00  0.00000000000E+00  0.33544543724E+03  0.33544543728E+03  0.50400000000E-02 0. -1.
         -1   -1    0    0    0  501 -0.00000000000E+00 -0.00000000000E+00 -0.32750937568E+04  0.32750937569E+04  0.50400000000E-02 0.  1.
    8880023    1    1    2    0    0  0.43687870789E+03  0.13285849441E+03 -0.30180335008E+04  0.31226352337E+04  0.65864270000E+03 0.  0.
    8880022    1    1    2    0    0 -0.43687870789E+03 -0.13285849441E+03  0.78385181145E+02  0.48790396041E+03  0.15294330000E+03 0.  0.
<mgrwt>
<rscale>  0 0.70562176E+03</rscale>
<asrwt>0</asrwt>
<pdfrwt beam="1">  1        1 0.51606993E-01 0.80145155E+03</pdfrwt>
<pdfrwt beam="2">  1       -1 0.50386056E+00 0.80145155E+03</pdfrwt>
<totfact> 0.11221763E-01</totfact>
</mgrwt>
</event>
<event>
 4    1  0.1043382E-007  0.8212507E+03  0.7818608E-02  0.9666602E-01
          1   -1    0    0  501    0  0.00000000000E+00  0.00000000000E+00  0.22221464434E+04  0.22221464434E+04  0.50400000000E-02 0. -1.
         -1   -1    0    0    0  501 -0.00000000000E+00 -0.00000000000E+00 -0.60823072667E+03  0.60823072669E+03  0.50400000000E-02 0.  1.
    8880023    1    1    2    0    0  0.24407815418E+03 -0.42552120083E+03 -0.28025031164E+03  0.86775162411E+03  0.65864270000E+03 0.  1.
    8880022    1    1    2    0    0 -0.24407815418E+03  0.42552120083E+03  0.18941660284E+04  0.19626255460E+04  0.15294330000E+03 0.  0.
<mgrwt>
<rscale>  0 0.73040594E+03</rscale>
<asrwt>0</asrwt>
<pdfrwt beam="1">  1        1 0.34186868E+00 0.82125066E+03</pdfrwt>
<pdfrwt beam="2">  1       -1 0.93573959E-01 0.82125066E+03</pdfrwt>
<totfact> 0.24323173E+00</totfact>
</mgrwt>
</event>
<event>
 4    1  0.1043382E-007  0.7605849E+03  0.7818608E-02  0.9803596E-01
         -1   -1    0    0    0  501 -0.00000000000E+00  0.00000000000E+00  0.12487368390E+04  0.12487368390E+04  0.50400000000E-02 0.  1.
          1   -1    0    0  501    0  0.00000000000E+00 -0.00000000000E+00 -0.31544354400E+03  0.31544354404E+03  0.50400000000E-02 0. -1.
    8880023    1    1    2    0    0 -0.19084784068E+03  0.32902328534E+03  0.31703541290E+03  0.82401509688E+03  0.65864270000E+03 0.  0.
    8880022    1    1    2    0    0  0.19084784068E+03 -0.32902328534E+03  0.61625788208E+03  0.74016528616E+03  0.15294330000E+03 0.  0.
<mgrwt>
<rscale>  0 0.65169943E+03</rscale>
<asrwt>0</asrwt>
<pdfrwt beam="1">  1        1 0.48529776E-01 0.76058492E+03</pdfrwt>
<pdfrwt beam="2">  1       -1 0.19211336E+00 0.76058492E+03</pdfrwt>
<totfact> 0.14403528E+01</totfact>
</mgrwt>
</event>
<event>
 4    1  0.1043382E-007  0.7143665E+03  0.7818608E-02  0.9942130E-01
          1   -1    0    0  501    0  0.00000000000E+00  0.00000000000E+00  0.11178099094E+04  0.11178099094E+04  0.50400000000E-02 0. -1.
         -1   -1    0    0    0  501 -0.00000000000E+00 -0.00000000000E+00 -0.35024050195E+03  0.35024050199E+03  0.50400000000E-02 0.  1.
    8880023    1    1    2    0    0  0.22498443272E+03 -0.16090758723E+03  0.89522700926E+02  0.71995400328E+03  0.65864270000E+03 0.  1.
    8880022    1    1    2    0    0 -0.22498443272E+03  0.16090758723E+03  0.67804670650E+03  0.74809640809E+03  0.15294330000E+03 0.  0.
<mgrwt>
<rscale>  0 0.58262212E+03</rscale>
<asrwt>0</asrwt>
<pdfrwt beam="1">  1        1 0.17197076E+00 0.71436647E+03</pdfrwt>
<pdfrwt beam="2">  1       -1 0.53883154E-01 0.71436647E+03</pdfrwt>
<totfact> 0.44009609E+01</totfact>
</mgrwt>
</event>
<event>
 4    1  0.1043382E-007  0.7452963E+03  0.7818608E-02  0.9844779E-01
          1   -1    0    0  501    0  0.00000000000E+00  0.00000000000E+00  0.45342045187E+03  0.45342045189E+03  0.50400000000E-02 0. -1.
         -1   -1    0    0    0  501 -0.00000000000E+00 -0.00000000000E+00 -0.10857016497E+04  0.10857016497E+04  0.50400000000E-02 0.  1.
    8880023    1    1    2    0    0 -0.34850190721E+03  0.14242704448E+02 -0.82541031870E+03  0.11121010900E+04  0.65864270000E+03 0.  0.
    8880022    1    1    2    0    0  0.34850190721E+03 -0.14242704448E+02  0.19312912089E+03  0.42702101155E+03  0.15294330000E+03 0.  0.
<mgrwt>
<rscale>  0 0.63013811E+03</rscale>
<asrwt>0</asrwt>
<pdfrwt beam="1">  1        1 0.69756993E-01 0.74529634E+03</pdfrwt>
<pdfrwt beam="2">  1       -1 0.16703102E+00 0.74529634E+03</pdfrwt>
<totfact> 0.13498643E+01</totfact>
</mgrwt>
</event>
<event>
 4    1  0.1043382E-007  0.7185752E+03  0.7818608E-02  0.9927437E-01
         -1   -1    0    0    0  501 -0.00000000000E+00  0.00000000000E+00  0.30989675015E+03  0.30989675019E+03  0.50400000000E-02 0.  1.
          1   -1    0    0  501    0  0.00000000000E+00 -0.00000000000E+00 -0.35324803745E+04  0.35324803745E+04  0.50400000000E-02 0. -1.
    8880023    1    1    2    0    0 -0.86478491258E+02 -0.27397368027E+03 -0.12697735253E+03  0.72970786021E+03  0.65864270000E+03 0.  0.
    8880022    1    1    2    0    0  0.86478491258E+02  0.27397368027E+03 -0.30956062719E+04  0.31126692645E+04  0.15294330000E+03 0.  0.
<mgrwt>
<rscale>  0 0.58949814E+03</rscale>
<asrwt>0</asrwt>
<pdfrwt beam="1">  1        1 0.54345849E+00 0.71857520E+03</pdfrwt>
<pdfrwt beam="2">  1       -1 0.47676426E-01 0.71857520E+03</pdfrwt>
<totfact> 0.11374190E+00</totfact>
</mgrwt>
</event>
<event>
 4    1  0.1043382E-007  0.8154702E+03  0.7818608E-02  0.9678293E-01
         -1   -1    0    0    0  501 -0.00000000000E+00  0.00000000000E+00  0.78833359665E+03  0.78833359666E+03  0.50400000000E-02 0.  1.
          1   -1    0    0  501    0  0.00000000000E+00 -0.00000000000E+00 -0.61127420202E+03  0.61127420204E+03  0.50400000000E-02 0. -1.
    8880023    1    1    2    0    0 -0.70342395738E+02  0.47563993529E+03  0.31872606125E+03  0.87554435014E+03  0.65864270000E+03 0.  0.
    8880022    1    1    2    0    0  0.70342395738E+02 -0.47563993529E+03 -0.14166666662E+03  0.52406344857E+03  0.15294330000E+03 0.  0.
<mgrwt>
<rscale>  0 0.72324030E+03</rscale>
<asrwt>0</asrwt>
<pdfrwt beam="1">  1        1 0.94042185E-01 0.81547018E+03</pdfrwt>
<pdfrwt beam="2">  1       -1 0.12128209E+00 0.81547018E+03</pdfrwt>
<totfact> 0.20492375E+01</totfact>
</mgrwt>
</event>
<event>
 4    1  0.1043382E-007  0.6824367E+03  0.7818608E-02  0.1007978E+00
          1   -1    0    0  501    0  0.00000000000E+00  0.00000000000E+00  0.10503057816E+04  0.10503057816E+04  0.50400000000E-02 0. -1.
         -1   -1    0    0    0  501 -0.00000000000E+00 -0.00000000000E+00 -0.21151724281E+03  0.21151724287E+03  0.50400000000E-02 0.  1.
    8880023    1    1    2    0    0 -0.10588811807E+03  0.14386582600E+03  0.48585551435E+03  0.83772039281E+03  0.65864270000E+03 0.  1.
    8880022    1    1    2    0    0  0.10588811807E+03 -0.14386582600E+03  0.35293302446E+03  0.42410263169E+03  0.15294330000E+03 0. -1.
<mgrwt>
<rscale>  0 0.52286399E+03</rscale>
<asrwt>0</asrwt>
<pdfrwt beam="1">  1        1 0.16158550E+00 0.68243672E+03</pdfrwt>
<pdfrwt beam="2">  1       -1 0.32541115E-01 0.68243672E+03</pdfrwt>
<totfact> 0.12506733E+02</totfact>
</mgrwt>
</event>
<event>
 4    1  0.1043382E-007  0.8243761E+03  0.7818608E-02  0.9660375E-01
          1   -1    0    0  501    0  0.00000000000E+00  0.00000000000E+00  0.73946138948E+03  0.73946138950E+03  0.50400000000E-02 0. -1.
         -1   -1    0    0    0  501 -0.00000000000E+00 -0.00000000000E+00 -0.63018732763E+03  0.63018732765E+03  0.50400000000E-02 0.  1.
    8880023    1    1    2    0    0 -0.31113430336E+03 -0.38598090016E+03 -0.52895182609E+02  0.82607137502E+03  0.65864270000E+03 0.  0.
    8880022    1    1    2    0    0  0.31113430336E+03  0.38598090016E+03  0.16216924447E+03  0.54357734213E+03  0.15294330000E+03 0.  0.
<mgrwt>
<rscale>  0 0.73425835E+03</rscale>
<asrwt>0</asrwt>
<pdfrwt beam="1">  1        1 0.11376329E+00 0.82437614E+03</pdfrwt>
<pdfrwt beam="2">  1       -1 0.96951897E-01 0.82437614E+03</pdfrwt>
<totfact> 0.26070312E+01</totfact>
</mgrwt>
</event>
<event>
 4    1  0.1043382E-007  0.6882533E+03  0.7818608E-02  0.1004994E+00
          1   -1    0    0  501    0  0.00000000000E+00  0.00000000000E+00  0.11729159836E+04  0.11729159836E+04  0.50400000000E-02 0. -1.
         -1   -1    0    0    0  501 -0.00000000000E+00 -0.00000000000E+00 -0.24469146953E+03  0.24469146958E+03  0.50400000000E-02 0.  1.
    8880023    1    1    2    0    0  0.14993403916E+03  0.13191745630E+03  0.31918092062E+03  0.75866270353E+03  0.65864270000E+03 0.  1.
    8880022    1    1    2    0    0 -0.14993403916E+03 -0.13191745630E+03  0.60904359344E+03  0.65894474965E+03  0.15294330000E+03 0.  0.
<mgrwt>
<rscale>  0 0.53513637E+03</rscale>
<asrwt>0</asrwt>
<pdfrwt beam="1">  1        1 0.18044861E+00 0.68825332E+03</pdfrwt>
<pdfrwt beam="2">  1       -1 0.37644842E-01 0.68825332E+03</pdfrwt>
<totfact> 0.78242223E+01</totfact>
</mgrwt>
</event>
<event>
 4    1  0.1043382E-007  0.7075462E+03  0.7818608E-02  0.9967228E-01
          1   -1    0    0  501    0  0.00000000000E+00  0.00000000000E+00  0.92899813832E+03  0.92899813833E+03  0.50400000000E-02 0. -1.
         -1   -1    0    0    0  501 -0.00000000000E+00 -0.00000000000E+00 -0.36874359194E+03  0.36874359197E+03  0.50400000000E-02 0.  1.
    8880023    1    1    2    0    0  0.23654209815E+03  0.10420773573E+03  0.54640646408E+02  0.70965288901E+03  0.65864270000E+03 0.  1.
    8880022    1    1    2    0    0 -0.23654209815E+03 -0.10420773573E+03  0.50561389997E+03  0.58808884129E+03  0.15294330000E+03 0.  0.
<mgrwt>
<rscale>  0 0.57110869E+03</rscale>
<asrwt>0</asrwt>
<pdfrwt beam="1">  1        1 0.14292279E+00 0.70754620E+03</pdfrwt>
<pdfrwt beam="2">  1       -1 0.56729784E-01 0.70754620E+03</pdfrwt>
<totfact> 0.55674769E+01</totfact>
</mgrwt>
</event>
<event>
 4    1  0.1043382E-007  0.6881913E+03  0.7818608E-02  0.1005024E+00
         -1   -1    0    0    0  501 -0.00000000000E+00  0.00000000000E+00  0.49741134535E+03  0.49741134538E+03  0.50400000000E-02 0.  1.
          1   -1    0    0  501    0  0.00000000000E+00 -0.00000000000E+00 -0.62380672138E+03  0.62380672140E+03  0.50400000000E-02 0. -1.
    8880023    1    1    2    0    0  0.12203698847E+03 -0.15781002296E+03  0.19302404789E+03  0.71474857064E+03  0.65864270000E+03 0.  1.
    8880022    1    1    2    0    0 -0.12203698847E+03  0.15781002296E+03 -0.31941942391E+03  0.40646949614E+03  0.15294330000E+03 0.  0.
<mgrwt>
<rscale>  0 0.53500986E+03</rscale>
<asrwt>0</asrwt>
<pdfrwt beam="1">  1        1 0.95970264E-01 0.68819128E+03</pdfrwt>
<pdfrwt beam="2">  1       -1 0.76524823E-01 0.68819128E+03</pdfrwt>
<totfact> 0.56954766E+01</totfact>
</mgrwt>
</event>
<event>
 4    1  0.1043382E-007  0.6593611E+03  0.7818608E-02  0.1024821E+00
         -1   -1    0    0    0  501 -0.00000000000E+00  0.00000000000E+00  0.83304609804E+03  0.83304609805E+03  0.50400000000E-02 0.  1.
          1   -1    0    0  501    0  0.00000000000E+00 -0.00000000000E+00 -0.20319738406E+03  0.20319738413E+03  0.50400000000E-02 0. -1.
    8880023    1    1    2    0    0 -0.30366978035E+02  0.49639312802E+01  0.56097970919E+03  0.86571082606E+03  0.65864270000E+03 0.  1.
    8880022    1    1    2    0    0  0.30366978035E+02 -0.49639312802E+01  0.68869004782E+02  0.17053265612E+03  0.15294330000E+03 0.  1.
<mgrwt>
<rscale>  0 0.45986364E+03</rscale>
<asrwt>0</asrwt>
<pdfrwt beam="1">  1        1 0.31261136E-01 0.65936105E+03</pdfrwt>
<pdfrwt beam="2">  1       -1 0.12816094E+00 0.65936105E+03</pdfrwt>
<totfact> 0.78382478E+01</totfact>
</mgrwt>
</event>
<event>
 4    1  0.1043382E-007  0.1475080E+04  0.7818608E-02  0.8927436E-01
         -1   -1    0    0    0  501 -0.00000000000E+00  0.00000000000E+00  0.68777587675E+03  0.68777587676E+03  0.50400000000E-02 0.  1.
          1   -1    0    0  501    0  0.00000000000E+00 -0.00000000000E+00 -0.34361576703E+04  0.34361576703E+04  0.50400000000E-02 0. -1.
    8880023    1    1    2    0    0 -0.72817857640E+03  0.11008203660E+04 -0.58861757775E+03  0.15881846166E+04  0.65864270000E+03 0.  0.
    8880022    1    1    2    0    0  0.72817857640E+03 -0.11008203660E+04 -0.21597642158E+04  0.25357489305E+04  0.15294330000E+03 0.  0.
<mgrwt>
<rscale>  0 0.14370380E+04</rscale>
<asrwt>0</asrwt>
<pdfrwt beam="1">  1        1 0.52863963E+00 0.14750796E+04</pdfrwt>
<pdfrwt beam="2">  1       -1 0.10581168E+00 0.14750796E+04</pdfrwt>
<totfact> 0.22619201E-01</totfact>
</mgrwt>
</event>
<event>
 4    1  0.1043382E-007  0.8828946E+03  0.7818608E-02  0.9554069E-01
          1   -1    0    0  501    0  0.00000000000E+00  0.00000000000E+00  0.12131789171E+04  0.12131789171E+04  0.50400000000E-02 0. -1.
         -1   -1    0    0    0  501 -0.00000000000E+00 -0.00000000000E+00 -0.45866711579E+03  0.45866711581E+03  0.50400000000E-02 0.  1.
    8880023    1    1    2    0    0 -0.36273698204E+03 -0.46272506947E+03  0.48349800543E+03  0.10066146907E+04  0.65864270000E+03 0.  1.
    8880022    1    1    2    0    0  0.36273698204E+03  0.46272506947E+03  0.27101379586E+03  0.66523134217E+03  0.15294330000E+03 0. -1.
<mgrwt>
<rscale>  0 0.80412270E+03</rscale>
<asrwt>0</asrwt>
<pdfrwt beam="1">  1        1 0.18664291E+00 0.88289457E+03</pdfrwt>
<pdfrwt beam="2">  1       -1 0.70564173E-01 0.88289457E+03</pdfrwt>
<totfact> 0.21535432E+01</totfact>
</mgrwt>
</event>
<event>
 4    1  0.1043382E-007  0.8153468E+03  0.7818608E-02  0.9678545E-01
          1   -1    0    0  501    0  0.00000000000E+00  0.00000000000E+00  0.69412369991E+03  0.69412369993E+03  0.50400000000E-02 0. -1.
         -1   -1    0    0    0  501 -0.00000000000E+00 -0.00000000000E+00 -0.14139479170E+04  0.14139479170E+04  0.50400000000E-02 0.  1.
    8880023    1    1    2    0    0 -0.78021103872E+02  0.47422881784E+03 -0.11740017695E+04  0.14293602154E+04  0.65864270000E+03 0.  0.
    8880022    1    1    2    0    0  0.78021103872E+02 -0.47422881784E+03  0.45417755247E+03  0.67871140148E+03  0.15294330000E+03 0.  0.
<mgrwt>
<rscale>  0 0.72308681E+03</rscale>
<asrwt>0</asrwt>
<pdfrwt beam="1">  1        1 0.10678826E+00 0.81534684E+03</pdfrwt>
<pdfrwt beam="2">  1       -1 0.21753045E+00 0.81534684E+03</pdfrwt>
<totfact> 0.32492554E+00</totfact>
</mgrwt>
</event>
<event>
 4    1  0.1043382E-007  0.7580466E+03  0.7818608E-02  0.9810191E-01
         -1   -1    0    0    0  501 -0.00000000000E+00  0.00000000000E+00  0.17810660387E+04  0.17810660387E+04  0.50400000000E-02 0.  1.
          1   -1    0    0  501    0  0.00000000000E+00 -0.00000000000E+00 -0.36561393747E+03  0.36561393750E+03  0.50400000000E-02 0. -1.
    8880023    1    1    2    0    0  0.14522105683E+03  0.34602789008E+03  0.15452437859E+04  0.17211661803E+04  0.65864270000E+03 0.  1.
    8880022    1    1    2    0    0 -0.14522105683E+03 -0.34602789008E+03 -0.12979168470E+03  0.42551379589E+03  0.15294330000E+03 0.  0.
<mgrwt>
<rscale>  0 0.64818489E+03</rscale>
<asrwt>0</asrwt>
<pdfrwt beam="1">  1        1 0.56248297E-01 0.75804661E+03</pdfrwt>
<pdfrwt beam="2">  1       -1 0.27401017E+00 0.75804661E+03</pdfrwt>
<totfact> 0.34330425E+00</totfact>
</mgrwt>
</event>
<event>
 4    1  0.1043382E-007  0.7361173E+03  0.7818608E-02  0.9871405E-01
         -1   -1    0    0    0  501 -0.00000000000E+00  0.00000000000E+00  0.93316610331E+03  0.93316610332E+03  0.50400000000E-02 0.  1.
          1   -1    0    0  501    0  0.00000000000E+00 -0.00000000000E+00 -0.10645339794E+04  0.10645339794E+04  0.50400000000E-02 0. -1.
    8880023    1    1    2    0    0 -0.20083737292E+03 -0.26023602389E+03  0.74620364117E+03  0.10481834376E+04  0.65864270000E+03 0.  1.
    8880022    1    1    2    0    0  0.20083737292E+03  0.26023602389E+03 -0.87757151727E+03  0.94951664515E+03  0.15294330000E+03 0.  0.
<mgrwt>
<rscale>  0 0.61667362E+03</rscale>
<asrwt>0</asrwt>
<pdfrwt beam="1">  1        1 0.16377446E+00 0.73611728E+03</pdfrwt>
<pdfrwt beam="2">  1       -1 0.14356402E+00 0.73611728E+03</pdfrwt>
<totfact> 0.54968133E+00</totfact>
</mgrwt>
</event>
<event>
 4    1  0.1043382E-007  0.1083313E+04  0.7818608E-02  0.9279866E-01
          1   -1    0    0  501    0  0.00000000000E+00  0.00000000000E+00  0.15124832944E+04  0.15124832944E+04  0.50400000000E-02 0. -1.
         -1   -1    0    0    0  501 -0.00000000000E+00 -0.00000000000E+00 -0.72850037159E+03  0.72850037161E+03  0.50400000000E-02 0.  1.
    8880023    1    1    2    0    0  0.80053694324E+03  0.31447932613E+03  0.24774414479E+02  0.10835961526E+04  0.65864270000E+03 0.  0.
    8880022    1    1    2    0    0 -0.80053694324E+03 -0.31447932613E+03  0.75920850833E+03  0.11573875134E+04  0.15294330000E+03 0.  0.
<mgrwt>
<rscale>  0 0.10265771E+04</rscale>
<asrwt>0</asrwt>
<pdfrwt beam="1">  1        1 0.23268973E+00 0.10833129E+04</pdfrwt>
<pdfrwt beam="2">  1       -1 0.11207698E+00 0.10833129E+04</pdfrwt>
<totfact> 0.46614625E+00</totfact>
</mgrwt>
</event>
<event>
 4    1  0.1043382E-007  0.6625350E+03  0.7818608E-02  0.1021698E+00
         -1   -1    0    0    0  501 -0.00000000000E+00  0.00000000000E+00  0.31138276073E+03  0.31138276077E+03  0.50400000000E-02 0.  1.
          1   -1    0    0  501    0  0.00000000000E+00 -0.00000000000E+00 -0.16015840629E+04  0.16015840629E+04  0.50400000000E-02 0. -1.
    8880023    1    1    2    0    0  0.45071052970E+01  0.71569057000E+02 -0.53400178224E+02  0.66468355570E+03  0.65864270000E+03 0.  1.
    8880022    1    1    2    0    0 -0.45071052970E+01 -0.71569057000E+02 -0.12368011239E+04  0.12482832680E+04  0.15294330000E+03 0.  0.
<mgrwt>
<rscale>  0 0.47078991E+03</rscale>
<asrwt>0</asrwt>
<pdfrwt beam="1">  1        1 0.24639754E+00 0.66253502E+03</pdfrwt>
<pdfrwt beam="2">  1       -1 0.47905041E-01 0.66253502E+03</pdfrwt>
<totfact> 0.25366491E+01</totfact>
</mgrwt>
</event>
<event>
 4    1  0.1043382E-007  0.6876155E+03  0.7818608E-02  0.1005307E+00
          1   -1    0    0  501    0  0.00000000000E+00  0.00000000000E+00  0.10365795345E+04  0.10365795345E+04  0.50400000000E-02 0. -1.
         -1   -1    0    0    0  501 -0.00000000000E+00 -0.00000000000E+00 -0.38234841182E+03  0.38234841185E+03  0.50400000000E-02 0.  1.
    8880023    1    1    2    0    0  0.18253797840E+03  0.75396937517E+02 -0.32291748906E+02  0.68837328177E+03  0.65864270000E+03 0.  1.
    8880022    1    1    2    0    0 -0.18253797840E+03 -0.75396937517E+02  0.68652287161E+03  0.73055466462E+03  0.15294330000E+03 0.  0.
<mgrwt>
<rscale>  0 0.53383153E+03</rscale>
<asrwt>0</asrwt>
<pdfrwt beam="1">  1        1 0.15947377E+00 0.68761546E+03</pdfrwt>
<pdfrwt beam="2">  1       -1 0.58822833E-01 0.68761546E+03</pdfrwt>
<totfact> 0.42850656E+01</totfact>
</mgrwt>
</event>
<event>
 4    1  0.1171334E-007  0.6855359E+03  0.7818608E-02  0.1006351E+00
          1   -1    0    0  501    0  0.00000000000E+00  0.00000000000E+00  0.11311676615E+04  0.11311676615E+04  0.50400000000E-02 0. -1.
         -1   -1    0    0    0  501 -0.00000000000E+00 -0.00000000000E+00 -0.89609345624E+03  0.89609345625E+03  0.50400000000E-02 0.  1.
    8880023    1    1    2    0    0 -0.15333549409E+03 -0.11241666003E+03 -0.74784287297E+03  0.10145089690E+04  0.65864270000E+03 0.  1.
    8880022    1    1    2    0    0  0.15333549409E+03  0.11241666003E+03  0.98291707826E+03  0.10127521488E+04  0.15294330000E+03 0.  0.
<mgrwt>
<rscale>  0 0.52951054E+03</rscale>
<asrwt>0</asrwt>
<pdfrwt beam="1">  1        1 0.17402579E+00 0.68553591E+03</pdfrwt>
<pdfrwt beam="2">  1       -1 0.13786053E+00 0.68553591E+03</pdfrwt>
<totfact> 0.54947210E+00</totfact>
</mgrwt>
</event>
<event>
 4    1  0.1043382E-007  0.6970376E+03  0.7818608E-02  0.1000972E+00
          1   -1    0    0  501    0  0.00000000000E+00  0.00000000000E+00  0.12867751239E+04  0.12867751239E+04  0.50400000000E-02 0. -1.
         -1   -1    0    0    0  501 -0.00000000000E+00 -0.00000000000E+00 -0.33501523939E+03  0.33501523943E+03  0.50400000000E-02 0.  1.
    8880023    1    1    2    0    0 -0.18624032670E+03  0.13177933243E+03  0.72700157142E+02  0.70081864334E+03  0.65864270000E+03 0.  1.
    8880022    1    1    2    0    0  0.18624032670E+03 -0.13177933243E+03  0.87905972741E+03  0.92097172004E+03  0.15294330000E+03 0.  0.
<mgrwt>
<rscale>  0 0.55226112E+03</rscale>
<asrwt>0</asrwt>
<pdfrwt beam="1">  1        1 0.19796541E+00 0.69703763E+03</pdfrwt>
<pdfrwt beam="2">  1       -1 0.51540805E-01 0.69703763E+03</pdfrwt>
<totfact> 0.36238790E+01</totfact>
</mgrwt>
</event>
<event>
 4    1  0.1043382E-007  0.6643048E+03  0.7818608E-02  0.1020124E+00
          1   -1    0    0  501    0  0.00000000000E+00  0.00000000000E+00  0.31422447637E+03  0.31422447641E+03  0.50400000000E-02 0. -1.
         -1   -1    0    0    0  501 -0.00000000000E+00 -0.00000000000E+00 -0.63819671085E+03  0.63819671087E+03  0.50400000000E-02 0.  1.
    8880023    1    1    2    0    0  0.43308571878E+02 -0.74933272662E+02 -0.38328586316E+03  0.76694777326E+03  0.65864270000E+03 0.  0.
    8880022    1    1    2    0    0 -0.43308571878E+02  0.74933272662E+02  0.59313628673E+02  0.18547341403E+03  0.15294330000E+03 0.  0.
<mgrwt>
<rscale>  0 0.47641914E+03</rscale>
<asrwt>0</asrwt>
<pdfrwt beam="1">  1        1 0.48342227E-01 0.66430477E+03</pdfrwt>
<pdfrwt beam="2">  1       -1 0.98184109E-01 0.66430477E+03</pdfrwt>
<totfact> 0.83951200E+01</totfact>
</mgrwt>
</event>
<event>
 4    1  0.1043382E-007  0.7179573E+03  0.7818608E-02  0.9929559E-01
          1   -1    0    0  501    0  0.00000000000E+00  0.00000000000E+00  0.60486514956E+03  0.60486514958E+03  0.50400000000E-02 0. -1.
         -1   -1    0    0    0  501 -0.00000000000E+00 -0.00000000000E+00 -0.47495542156E+03  0.47495542159E+03  0.50400000000E-02 0.  1.
    8880023    1    1    2    0    0  0.28563024759E+03  0.82401257224E+01 -0.29647045463E+02  0.71856919749E+03  0.65864270000E+03 0.  0.
    8880022    1    1    2    0    0 -0.28563024759E+03 -0.82401257224E+01  0.15955677346E+03  0.36125137368E+03  0.15294330000E+03 0.  1.
<mgrwt>
<rscale>  0 0.58849867E+03</rscale>
<asrwt>0</asrwt>
<pdfrwt beam="1">  1        1 0.93056176E-01 0.71795734E+03</pdfrwt>
<pdfrwt beam="2">  1       -1 0.73070065E-01 0.71795734E+03</pdfrwt>
<totfact> 0.65385937E+01</totfact>
</mgrwt>
</event>
<event>
 4    1  0.1043382E-007  0.6861001E+03  0.7818608E-02  0.1006064E+00
          1   -1    0    0  501    0  0.00000000000E+00  0.00000000000E+00  0.24732606100E+04  0.24732606100E+04  0.50400000000E-02 0. -1.
         -1   -1    0    0    0  501 -0.00000000000E+00 -0.00000000000E+00 -0.11608414072E+03  0.11608414083E+03  0.50400000000E-02 0.  1.
    8880023    1    1    2    0    0  0.37574914669E+02  0.18844431371E+03  0.10166249209E+04  0.12264826007E+04  0.65864270000E+03 0.  1.
    8880022    1    1    2    0    0 -0.37574914669E+02 -0.18844431371E+03  0.13405515483E+04  0.13628621501E+04  0.15294330000E+03 0.  0.
<mgrwt>
<rscale>  0 0.53069327E+03</rscale>
<asrwt>0</asrwt>
<pdfrwt beam="1">  1        1 0.38050165E+00 0.68610009E+03</pdfrwt>
<pdfrwt beam="2">  1       -1 0.17859098E-01 0.68610009E+03</pdfrwt>
<totfact> 0.36758163E+01</totfact>
</mgrwt>
</event>
<event>
 4    1  0.1043382E-007  0.1384146E+04  0.7818608E-02  0.8996101E-01
         -1   -1    0    0    0  501 -0.00000000000E+00  0.00000000000E+00  0.49345292383E+03  0.49345292386E+03  0.50400000000E-02 0.  1.
          1   -1    0    0  501    0  0.00000000000E+00 -0.00000000000E+00 -0.41987011190E+04  0.41987011190E+04  0.50400000000E-02 0. -1.
    8880023    1    1    2    0    0 -0.59755448267E+03  0.10606500692E+04 -0.95792050363E+03  0.16832919612E+04  0.65864270000E+03 0.  0.
    8880022    1    1    2    0    0  0.59755448267E+03 -0.10606500692E+04 -0.27473276915E+04  0.30088620817E+04  0.15294330000E+03 0.  0.
<mgrwt>
<rscale>  0 0.13430569E+04</rscale>
<asrwt>0</asrwt>
<pdfrwt beam="1">  1        1 0.64595399E+00 0.13841460E+04</pdfrwt>
<pdfrwt beam="2">  1       -1 0.75915837E-01 0.13841460E+04</pdfrwt>
<totfact> 0.10979263E-01</totfact>
</mgrwt>
</event>
<event>
 4    1  0.1043382E-007  0.9343667E+03  0.7818608E-02  0.9472973E-01
         -1   -1    0    0    0  501 -0.00000000000E+00  0.00000000000E+00  0.68153341911E+03  0.68153341913E+03  0.50400000000E-02 0.  1.
          1   -1    0    0  501    0  0.00000000000E+00 -0.00000000000E+00 -0.20593142429E+04  0.20593142429E+04  0.50400000000E-02 0. -1.
    8880023    1    1    2    0    0 -0.66179987803E+03  0.35380976379E+02  0.25796802628E+03  0.96932378538E+03  0.65864270000E+03 0.  1.
    8880022    1    1    2    0    0  0.66179987803E+03 -0.35380976379E+02 -0.16357488501E+04  0.17715238766E+04  0.15294330000E+03 0.  0.
<mgrwt>
<rscale>  0 0.86306073E+03</rscale>
<asrwt>0</asrwt>
<pdfrwt beam="1">  1        1 0.31681757E+00 0.93436668E+03</pdfrwt>
<pdfrwt beam="2">  1       -1 0.10485130E+00 0.93436668E+03</pdfrwt>
<totfact> 0.23704428E+00</totfact>
</mgrwt>
</event>
<event>
 4    1  0.1043382E-007  0.7946681E+03  0.7818608E-02  0.9722445E-01
         -1   -1    0    0    0  501 -0.00000000000E+00  0.00000000000E+00  0.67082169326E+03  0.67082169328E+03  0.50400000000E-02 0.  1.
          1   -1    0    0  501    0  0.00000000000E+00 -0.00000000000E+00 -0.12507428118E+04  0.12507428118E+04  0.50400000000E-02 0. -1.
    8880023    1    1    2    0    0 -0.16226729899E+03 -0.41395231627E+03 -0.10094533983E+04  0.12847153638E+04  0.65864270000E+03 0. -1.
    8880022    1    1    2    0    0  0.16226729899E+03  0.41395231627E+03  0.42953227970E+03  0.63684914130E+03  0.15294330000E+03 0.  0.
<mgrwt>
<rscale>  0 0.69695981E+03</rscale>
<asrwt>0</asrwt>
<pdfrwt beam="1">  1        1 0.19242197E+00 0.79466811E+03</pdfrwt>
<pdfrwt beam="2">  1       -1 0.10320334E+00 0.79466811E+03</pdfrwt>
<totfact> 0.89522212E+00</totfact>
</mgrwt>
</event>
<event>
 4    1  0.1043382E-007  0.8101037E+03  0.7818608E-02  0.9689361E-01
         -1   -1    0    0    0  501 -0.00000000000E+00  0.00000000000E+00  0.10970402105E+04  0.10970402105E+04  0.50400000000E-02 0.  1.
          1   -1    0    0  501    0  0.00000000000E+00 -0.00000000000E+00 -0.12860137565E+04  0.12860137565E+04  0.50400000000E-02 0. -1.
    8880023    1    1    2    0    0  0.45796324992E+03 -0.11281574012E+03  0.88521781504E+03  0.11999493805E+04  0.65864270000E+03 0.  1.
    8880022    1    1    2    0    0 -0.45796324992E+03  0.11281574012E+03 -0.10741913611E+04  0.11831045865E+04  0.15294330000E+03 0.  0.
<mgrwt>
<rscale>  0 0.71653777E+03</rscale>
<asrwt>0</asrwt>
<pdfrwt beam="1">  1        1 0.19784827E+00 0.81010366E+03</pdfrwt>
<pdfrwt beam="2">  1       -1 0.16877542E+00 0.81010366E+03</pdfrwt>
<totfact> 0.24023968E+00</totfact>
</mgrwt>
</event>
<event>
 4    1  0.1043382E-007  0.6806396E+03  0.7818608E-02  0.1008964E+00
         -1   -1    0    0    0  501 -0.00000000000E+00  0.00000000000E+00  0.52379923856E+03  0.52379923859E+03  0.50400000000E-02 0.  1.
          1   -1    0    0  501    0  0.00000000000E+00 -0.00000000000E+00 -0.16845729648E+04  0.16845729648E+04  0.50400000000E-02 0. -1.
    8880023    1    1    2    0    0 -0.78615173579E+02  0.15257671392E+03  0.28974752253E+03  0.73974578892E+03  0.65864270000E+03 0.  1.
    8880022    1    1    2    0    0  0.78615173579E+02 -0.15257671392E+03 -0.14505212488E+04  0.14686264145E+04  0.15294330000E+03 0.  0.
<mgrwt>
<rscale>  0 0.51888392E+03</rscale>
<asrwt>0</asrwt>
<pdfrwt beam="1">  1        1 0.25916507E+00 0.68063956E+03</pdfrwt>
<pdfrwt beam="2">  1       -1 0.80584499E-01 0.68063956E+03</pdfrwt>
<totfact> 0.79088091E+00</totfact>
</mgrwt>
</event>
<event>
 4    1  0.1043382E-007  0.7238795E+03  0.7818608E-02  0.9909671E-01
          1   -1    0    0  501    0  0.00000000000E+00  0.00000000000E+00  0.13348823575E+04  0.13348823576E+04  0.50400000000E-02 0. -1.
         -1   -1    0    0    0  501 -0.00000000000E+00 -0.00000000000E+00 -0.72511167115E+03  0.72511167116E+03  0.50400000000E-02 0.  1.
    8880023    1    1    2    0    0  0.23060886763E+03  0.19238209588E+03 -0.51332955247E+03  0.88741690110E+03  0.65864270000E+03 0.  1.
    8880022    1    1    2    0    0 -0.23060886763E+03 -0.19238209588E+03  0.11231002389E+04  0.11725771276E+04  0.15294330000E+03 0.  0.
<mgrwt>
<rscale>  0 0.59794861E+03</rscale>
<asrwt>0</asrwt>
<pdfrwt beam="1">  1        1 0.20536652E+00 0.72387950E+03</pdfrwt>
<pdfrwt beam="2">  1       -1 0.11155564E+00 0.72387950E+03</pdfrwt>
<totfact> 0.65744552E+00</totfact>
</mgrwt>
</event>
<event>
 4    1  0.1043382E-007  0.8586967E+03  0.7818608E-02  0.9595886E-01
         -1   -1    0    0    0  501 -0.00000000000E+00  0.00000000000E+00  0.64298206313E+03  0.64298206315E+03  0.50400000000E-02 0.  1.
          1   -1    0    0  501    0  0.00000000000E+00 -0.00000000000E+00 -0.11422297645E+04  0.11422297645E+04  0.50400000000E-02 0. -1.
    8880023    1    1    2    0    0 -0.41715976130E+03 -0.35989926308E+03  0.20026572698E+03  0.88174050246E+03  0.65864270000E+03 0.  1.
    8880022    1    1    2    0    0  0.41715976130E+03  0.35989926308E+03 -0.69951342838E+03  0.90347132522E+03  0.15294330000E+03 0.  0.
<mgrwt>
<rscale>  0 0.77569067E+03</rscale>
<asrwt>0</asrwt>
<pdfrwt beam="1">  1        1 0.17572766E+00 0.85869666E+03</pdfrwt>
<pdfrwt beam="2">  1       -1 0.98920317E-01 0.85869666E+03</pdfrwt>
<totfact> 0.11735032E+01</totfact>
</mgrwt>
</event>
<event>
 4    1  0.1043382E-007  0.7717583E+03  0.7818608E-02  0.9775566E-01
         -1   -1    0    0    0  501 -0.00000000000E+00  0.00000000000E+00  0.47043587765E+03  0.47043587768E+03  0.50400000000E-02 0.  1.
          1   -1    0    0  501    0  0.00000000000E+00 -0.00000000000E+00 -0.14312389732E+04  0.14312389732E+04  0.50400000000E-02 0. -1.
    8880023    1    1    2    0    0 -0.16300077496E+03  0.36773819904E+03  0.79533043960E+02  0.77584556905E+03  0.65864270000E+03 0.  1.
    8880022    1    1    2    0    0  0.16300077496E+03 -0.36773819904E+03 -0.10403361395E+04  0.11258292819E+04  0.15294330000E+03 0.  0.
<mgrwt>
<rscale>  0 0.66690479E+03</rscale>
<asrwt>0</asrwt>
<pdfrwt beam="1">  1        1 0.22019061E+00 0.77175828E+03</pdfrwt>
<pdfrwt beam="2">  1       -1 0.72374751E-01 0.77175828E+03</pdfrwt>
<totfact> 0.14524636E+01</totfact>
</mgrwt>
</event>
<event>
 4    1  0.1043382E-007  0.7284710E+03  0.7818608E-02  0.9894900E-01
         -1   -1    0    0    0  501 -0.00000000000E+00  0.00000000000E+00  0.62903491640E+03  0.62903491642E+03  0.50400000000E-02 0.  1.
          1   -1    0    0  501    0  0.00000000000E+00 -0.00000000000E+00 -0.95627759035E+03  0.95627759037E+03  0.50400000000E-02 0. -1.
    8880023    1    1    2    0    0  0.94708462992E+02  0.29646261801E+03  0.36221900686E+03  0.81355552486E+03  0.65864270000E+03 0.  1.
    8880022    1    1    2    0    0 -0.94708462992E+02 -0.29646261801E+03 -0.68946168081E+03  0.77175698193E+03  0.15294330000E+03 0.  0.
<mgrwt>
<rscale>  0 0.60509070E+03</rscale>
<asrwt>0</asrwt>
<pdfrwt beam="1">  1        1 0.14711963E+00 0.72847099E+03</pdfrwt>
<pdfrwt beam="2">  1       -1 0.96774603E-01 0.72847099E+03</pdfrwt>
<totfact> 0.17368240E+01</totfact>
</mgrwt>
</event>
<event>
 4    1  0.1043382E-007  0.9676437E+03  0.7818608E-02  0.9425171E-01
          1   -1    0    0  501    0  0.00000000000E+00  0.00000000000E+00  0.99673664765E+03  0.99673664766E+03  0.50400000000E-02 0. -1.
         -1   -1    0    0    0  501 -0.00000000000E+00 -0.00000000000E+00 -0.15997146461E+04  0.15997146461E+04  0.50400000000E-02 0.  1.
    8880023    1    1    2    0    0 -0.53152882203E+03  0.46904281915E+03 -0.12798292972E+04  0.16044616826E+04  0.65864270000E+03 0.  0.
    8880022    1    1    2    0    0  0.53152882203E+03 -0.46904281915E+03  0.67685129878E+03  0.99198961109E+03  0.15294330000E+03 0.  0.
<mgrwt>
<rscale>  0 0.90032873E+03</rscale>
<asrwt>0</asrwt>
<pdfrwt beam="1">  1        1 0.15334410E+00 0.96764366E+03</pdfrwt>
<pdfrwt beam="2">  1       -1 0.24610995E+00 0.96764366E+03</pdfrwt>
<totfact> 0.11394121E+00</totfact>
</mgrwt>
</event>
<event>
 4    1  0.1043382E-007  0.9038589E+03  0.7818608E-02  0.9519865E-01
          1   -1    0    0  501    0  0.00000000000E+00  0.00000000000E+00  0.59603126820E+03  0.59603126822E+03  0.50400000000E-02 0. -1.
         -1   -1    0    0    0  501 -0.00000000000E+00 -0.00000000000E+00 -0.22611494923E+04  0.22611494923E+04  0.50400000000E-02 0.  1.
    8880023    1    1    2    0    0 -0.39022088203E+02  0.61776039532E+03 -0.19572227161E+04  0.21558482313E+04  0.65864270000E+03 0.  1.
    8880022    1    1    2    0    0  0.39022088203E+02 -0.61776039532E+03  0.29210449200E+03  0.70133252931E+03  0.15294330000E+03 0.  0.
<mgrwt>
<rscale>  0 0.82834962E+03</rscale>
<asrwt>0</asrwt>
<pdfrwt beam="1">  1        1 0.91697119E-01 0.90385886E+03</pdfrwt>
<pdfrwt beam="2">  1       -1 0.34786915E+00 0.90385886E+03</pdfrwt>
<totfact> 0.57501617E-01</totfact>
</mgrwt>
</event>
<event>
 4    1  0.1043382E-007  0.9091137E+03  0.7818608E-02  0.9511557E-01
         -1   -1    0    0    0  501 -0.00000000000E+00  0.00000000000E+00  0.68044752192E+03  0.68044752193E+03  0.50400000000E-02 0.  1.
          1   -1    0    0  501    0  0.00000000000E+00 -0.00000000000E+00 -0.10263593843E+04  0.10263593843E+04  0.50400000000E-02 0. -1.
    8880023    1    1    2    0    0 -0.38422084074E+03 -0.49502706390E+03  0.11167906756E+03  0.91594752516E+03  0.65864270000E+03 0.  0.
    8880022    1    1    2    0    0  0.38422084074E+03  0.49502706390E+03 -0.45759092994E+03  0.79085938108E+03  0.15294330000E+03 0.  0.
<mgrwt>
<rscale>  0 0.83437123E+03</rscale>
<asrwt>0</asrwt>
<pdfrwt beam="1">  1        1 0.15790144E+00 0.90911366E+03</pdfrwt>
<pdfrwt beam="2">  1       -1 0.10468423E+00 0.90911366E+03</pdfrwt>
<totfact> 0.12524324E+01</totfact>
</mgrwt>
</event>
<event>
 4    1  0.1043382E-007  0.9086368E+03  0.7818608E-02  0.9512307E-01
          1   -1    0    0  501    0  0.00000000000E+00  0.00000000000E+00  0.18650329483E+04  0.18650329483E+04  0.50400000000E-02 0. -1.
         -1   -1    0    0    0  501 -0.00000000000E+00 -0.00000000000E+00 -0.33257703752E+03  0.33257703756E+03  0.50400000000E-02 0.  1.
    8880023    1    1    2    0    0  0.27199783220E+03  0.56376213478E+03  0.71198768145E+03  0.11543600955E+04  0.65864270000E+03 0. -1.
    8880022    1    1    2    0    0 -0.27199783220E+03 -0.56376213478E+03  0.82046822930E+03  0.10432498903E+04  0.15294330000E+03 0.  1.
<mgrwt>
<rscale>  0 0.83382553E+03</rscale>
<asrwt>0</asrwt>
<pdfrwt beam="1">  1        1 0.28692814E+00 0.90863677E+03</pdfrwt>
<pdfrwt beam="2">  1       -1 0.51165699E-01 0.90863677E+03</pdfrwt>
<totfact> 0.14414305E+01</totfact>
</mgrwt>
</event>
<event>
 4    1  0.1043382E-007  0.6741255E+03  0.7818608E-02  0.1012863E+00
         -1   -1    0    0    0  501 -0.00000000000E+00  0.00000000000E+00  0.12900856809E+04  0.12900856809E+04  0.50400000000E-02 0.  1.
          1   -1    0    0  501    0  0.00000000000E+00 -0.00000000000E+00 -0.34137903873E+03  0.34137903877E+03  0.50400000000E-02 0. -1.
    8880023    1    1    2    0    0  0.29867615275E+02  0.14050957183E+03  0.11549212542E+04  0.13372689797E+04  0.65864270000E+03 0.  1.
    8880022    1    1    2    0    0 -0.29867615275E+02 -0.14050957183E+03 -0.20621461205E+03  0.29419574004E+03  0.15294330000E+03 0.  0.
<mgrwt>
<rscale>  0 0.50352386E+03</rscale>
<asrwt>0</asrwt>
<pdfrwt beam="1">  1        1 0.52519851E-01 0.67412552E+03</pdfrwt>
<pdfrwt beam="2">  1       -1 0.19847472E+00 0.67412552E+03</pdfrwt>
<totfact> 0.11867767E+01</totfact>
</mgrwt>
</event>
<event>
 4    1  0.1043382E-007  0.7451840E+03  0.7818608E-02  0.9845096E-01
         -1   -1    0    0    0  501 -0.00000000000E+00  0.00000000000E+00  0.50467201144E+03  0.50467201146E+03  0.50400000000E-02 0.  1.
          1   -1    0    0  501    0  0.00000000000E+00 -0.00000000000E+00 -0.12047751633E+04  0.12047751633E+04  0.50400000000E-02 0. -1.
    8880023    1    1    2    0    0 -0.28770731162E+03 -0.19675738157E+03  0.16595160901E+03  0.76343900029E+03  0.65864270000E+03 0.  1.
    8880022    1    1    2    0    0  0.28770731162E+03  0.19675738157E+03 -0.86605476088E+03  0.94600817450E+03  0.15294330000E+03 0.  0.
<mgrwt>
<rscale>  0 0.62997588E+03</rscale>
<asrwt>0</asrwt>
<pdfrwt beam="1">  1        1 0.18535002E+00 0.74518398E+03</pdfrwt>
<pdfrwt beam="2">  1       -1 0.77641849E-01 0.74518398E+03</pdfrwt>
<totfact> 0.18189384E+01</totfact>
</mgrwt>
</event>
<event>
 4    1  0.1043382E-007  0.7007965E+03  0.7818608E-02  0.9993913E-01
         -1   -1    0    0    0  501 -0.00000000000E+00  0.00000000000E+00  0.19993345012E+04  0.19993345012E+04  0.50400000000E-02 0.  1.
          1   -1    0    0  501    0  0.00000000000E+00 -0.00000000000E+00 -0.30629767493E+03  0.30629767498E+03  0.50400000000E-02 0. -1.
    8880023    1    1    2    0    0  0.23935948058E+03 -0.35389723832E+01  0.18519654693E+04  0.19801241857E+04  0.65864270000E+03 0.  1.
    8880022    1    1    2    0    0 -0.23935948058E+03  0.35389723832E+01 -0.15892864301E+03  0.32550799045E+03  0.15294330000E+03 0.  0.
<mgrwt>
<rscale>  0 0.55917944E+03</rscale>
<asrwt>0</asrwt>
<pdfrwt beam="1">  1        1 0.47122720E-01 0.70079647E+03</pdfrwt>
<pdfrwt beam="2">  1       -1 0.30758992E+00 0.70079647E+03</pdfrwt>
<totfact> 0.26634649E+00</totfact>
</mgrwt>
</event>
<event>
 4    1  0.1120681E-007  0.7495724E+03  0.7818608E-02  0.9832892E-01
         -1   -1    0    0    0  501 -0.00000000000E+00  0.00000000000E+00  0.60407514454E+03  0.60407514456E+03  0.50400000000E-02 0.  1.
          1   -1    0    0  501    0  0.00000000000E+00 -0.00000000000E+00 -0.17974564193E+04  0.17974564193E+04  0.50400000000E-02 0. -1.
    8880023    1    1    2    0    0  0.34248730186E+03  0.10368685651E+03  0.33743730201E+03  0.82202351256E+03  0.65864270000E+03 0.  1.
    8880022    1    1    2    0    0 -0.34248730186E+03 -0.10368685651E+03 -0.15308185768E+04  0.15795080513E+04  0.15294330000E+03 0.  0.
<mgrwt>
<rscale>  0 0.63626833E+03</rscale>
<asrwt>0</asrwt>
<pdfrwt beam="1">  1        1 0.27653175E+00 0.74957236E+03</pdfrwt>
<pdfrwt beam="2">  1       -1 0.92934638E-01 0.74957236E+03</pdfrwt>
<totfact> 0.48158807E+00</totfact>
</mgrwt>
</event>
<event>
 4    1  0.1043382E-007  0.6687248E+03  0.7818608E-02  0.1016594E+00
         -1   -1    0    0    0  501 -0.00000000000E+00  0.00000000000E+00  0.44448515770E+03  0.44448515773E+03  0.50400000000E-02 0.  1.
          1   -1    0    0  501    0  0.00000000000E+00 -0.00000000000E+00 -0.61063175531E+03  0.61063175533E+03  0.50400000000E-02 0. -1.
    8880023    1    1    2    0    0 -0.79941153534E+02  0.83618835620E+02  0.15001368802E+03  0.68534444665E+03  0.65864270000E+03 0.  1.
    8880022    1    1    2    0    0  0.79941153534E+02 -0.83618835620E+02 -0.31616028562E+03  0.36977246642E+03  0.15294330000E+03 0.  0.
<mgrwt>
<rscale>  0 0.48936028E+03</rscale>
<asrwt>0</asrwt>
<pdfrwt beam="1">  1        1 0.93943346E-01 0.66872483E+03</pdfrwt>
<pdfrwt beam="2">  1       -1 0.68382332E-01 0.66872483E+03</pdfrwt>
<totfact> 0.74194758E+01</totfact>
</mgrwt>
</event>
<event>
 4    1  0.1043382E-007  0.7100409E+03  0.7818608E-02  0.9957849E-01
         -1   -1    0    0    0  501 -0.00000000000E+00  0.00000000000E+00  0.74660842444E+02  0.74660842614E+02  0.50400000000E-02 0.  1.
          1   -1    0    0  501    0  0.00000000000E+00 -0.00000000000E+00 -0.35942561178E+04  0.35942561178E+04  0.50400000000E-02 0. -1.
    8880023    1    1    2    0    0  0.15234176047E+03 -0.21711717643E+03 -0.21036378641E+04  0.22202365527E+04  0.65864270000E+03 0.  1.
    8880022    1    1    2    0    0 -0.15234176047E+03  0.21711717643E+03 -0.14159574112E+04  0.14486804077E+04  0.15294330000E+03 0. -1.
<mgrwt>
<rscale>  0 0.57537750E+03</rscale>
<asrwt>0</asrwt>
<pdfrwt beam="1">  1        1 0.55296235E+00 0.71004090E+03</pdfrwt>
<pdfrwt beam="2">  1       -1 0.11486286E-01 0.71004090E+03</pdfrwt>
<totfact> 0.11557977E+01</totfact>
</mgrwt>
</event>
<event>
 4    1  0.1043382E-007  0.7407376E+03  0.7818608E-02  0.9857804E-01
         -1   -1    0    0    0  501 -0.00000000000E+00  0.00000000000E+00  0.16602351715E+03  0.16602351722E+03  0.50400000000E-02 0.  1.
          1   -1    0    0  501    0  0.00000000000E+00 -0.00000000000E+00 -0.20132551330E+04  0.20132551330E+04  0.50400000000E-02 0. -1.
    8880023    1    1    2    0    0  0.74294075747E+01 -0.33886106669E+03 -0.92593318824E+03  0.11857674704E+04  0.65864270000E+03 0.  0.
    8880022    1    1    2    0    0 -0.74294075747E+01  0.33886106669E+03 -0.92129842764E+03  0.99351117981E+03  0.15294330000E+03 0.  0.
<mgrwt>
<rscale>  0 0.62350615E+03</rscale>
<asrwt>0</asrwt>
<pdfrwt beam="1">  1        1 0.30973154E+00 0.74073762E+03</pdfrwt>
<pdfrwt beam="2">  1       -1 0.25542081E-01 0.74073762E+03</pdfrwt>
<totfact> 0.40833545E+01</totfact>
</mgrwt>
</event>
<event>
 4    1  0.1043382E-007  0.9035583E+03  0.7818608E-02  0.9520343E-01
          1   -1    0    0  501    0  0.00000000000E+00  0.00000000000E+00  0.40782736096E+04  0.40782736096E+04  0.50400000000E-02 0. -1.
         -1   -1    0    0    0  501 -0.00000000000E+00 -0.00000000000E+00 -0.32180000871E+03  0.32180000875E+03  0.50400000000E-02 0.  1.
    8880023    1    1    2    0    0 -0.42957805035E+02 -0.61705912266E+03  0.40780593071E+03  0.99132397189E+03  0.65864270000E+03 0.  0.
    8880022    1    1    2    0    0  0.42957805035E+02  0.61705912266E+03  0.33486676702E+04  0.34087496465E+04  0.15294330000E+03 0.  0.
<mgrwt>
<rscale>  0 0.82800458E+03</rscale>
<asrwt>0</asrwt>
<pdfrwt beam="1">  1        1 0.62742669E+00 0.90355827E+03</pdfrwt>
<pdfrwt beam="2">  1       -1 0.49507695E-01 0.90355827E+03</pdfrwt>
<totfact> 0.36009865E-01</totfact>
</mgrwt>
</event>
<event>
 4    1  0.1043382E-007  0.7760386E+03  0.7818608E-02  0.9765226E-01
         -1   -1    0    0    0  501 -0.00000000000E+00  0.00000000000E+00  0.37521340223E+03  0.37521340227E+03  0.50400000000E-02 0.  1.
          1   -1    0    0  501    0  0.00000000000E+00 -0.00000000000E+00 -0.12287810060E+04  0.12287810060E+04  0.50400000000E-02 0. -1.
    8880023    1    1    2    0    0 -0.38694047245E+03  0.13675823343E+03 -0.17365495502E+03  0.79523077990E+03  0.65864270000E+03 0. -1.
    8880022    1    1    2    0    0  0.38694047245E+03 -0.13675823343E+03 -0.67991264871E+03  0.80876362833E+03  0.15294330000E+03 0.  0.
<mgrwt>
<rscale>  0 0.67262577E+03</rscale>
<asrwt>0</asrwt>
<pdfrwt beam="1">  1        1 0.18904323E+00 0.77603863E+03</pdfrwt>
<pdfrwt beam="2">  1       -1 0.57725139E-01 0.77603863E+03</pdfrwt>
<totfact> 0.31746739E+01</totfact>
</mgrwt>
</event>
<event>
 4    1  0.1043382E-007  0.8751264E+03  0.7818608E-02  0.9567203E-01
          1   -1    0    0  501    0  0.00000000000E+00  0.00000000000E+00  0.13046317902E+04  0.13046317902E+04  0.50400000000E-02 0. -1.
         -1   -1    0    0    0  501 -0.00000000000E+00 -0.00000000000E+00 -0.79479605928E+03  0.79479605930E+03  0.50400000000E-02 0.  1.
    8880023    1    1    2    0    0  0.10574587496E+03  0.56643964219E+03 -0.43882671590E+03  0.97898679826E+03  0.65864270000E+03 0.  1.
    8880022    1    1    2    0    0 -0.10574587496E+03 -0.56643964219E+03  0.94866244683E+03  0.11204410513E+04  0.15294330000E+03 0.  0.
<mgrwt>
<rscale>  0 0.79505470E+03</rscale>
<asrwt>0</asrwt>
<pdfrwt beam="1">  1        1 0.20071258E+00 0.87512643E+03</pdfrwt>
<pdfrwt beam="2">  1       -1 0.12227632E+00 0.87512643E+03</pdfrwt>
<totfact> 0.54115486E+00</totfact>
</mgrwt>
</event>
<event>
 4    1  0.1043382E-007  0.6898863E+03  0.7818608E-02  0.1004207E+00
          1   -1    0    0  501    0  0.00000000000E+00  0.00000000000E+00  0.98534409106E+03  0.98534409107E+03  0.50400000000E-02 0. -1.
         -1   -1    0    0    0  501 -0.00000000000E+00 -0.00000000000E+00 -0.23619648200E+03  0.23619648206E+03  0.50400000000E-02 0.  1.
    8880023    1    1    2    0    0  0.45989558209E+02  0.20004459163E+03  0.43201656528E+03  0.81399103008E+03  0.65864270000E+03 0. -1.
    8880022    1    1    2    0    0 -0.45989558209E+02 -0.20004459163E+03  0.31713104377E+03  0.40754954305E+03  0.15294330000E+03 0.  0.
<mgrwt>
<rscale>  0 0.53843542E+03</rscale>
<asrwt>0</asrwt>
<pdfrwt beam="1">  1        1 0.15159140E+00 0.68988628E+03</pdfrwt>
<pdfrwt beam="2">  1       -1 0.36337920E-01 0.68988628E+03</pdfrwt>
<totfact> 0.11527533E+02</totfact>
</mgrwt>
</event>
<event>
 4    1  0.1043382E-007  0.8451552E+03  0.7818608E-02  0.9620535E-01
         -1   -1    0    0    0  501 -0.00000000000E+00  0.00000000000E+00  0.52570521141E+03  0.52570521143E+03  0.50400000000E-02 0.  1.
          1   -1    0    0  501    0  0.00000000000E+00 -0.00000000000E+00 -0.24427075112E+04  0.24427075112E+04  0.50400000000E-02 0. -1.
    8880023    1    1    2    0    0 -0.48387584551E+03 -0.21527011483E+03  0.12406865840E+03  0.85421326053E+03  0.65864270000E+03 0.  0.
    8880022    1    1    2    0    0  0.48387584551E+03  0.21527011483E+03 -0.20410709582E+04  0.21141994621E+04  0.15294330000E+03 0.  0.
<mgrwt>
<rscale>  0 0.75951803E+03</rscale>
<asrwt>0</asrwt>
<pdfrwt beam="1">  1        1 0.37580115E+00 0.84515517E+03</pdfrwt>
<pdfrwt beam="2">  1       -1 0.80877726E-01 0.84515517E+03</pdfrwt>
<totfact> 0.23600911E+00</totfact>
</mgrwt>
</event>
<event>
 4    1  0.1043382E-007  0.7303815E+03  0.7818608E-02  0.9888906E-01
         -1   -1    0    0    0  501 -0.00000000000E+00  0.00000000000E+00  0.29043462005E+03  0.29043462009E+03  0.50400000000E-02 0.  1.
          1   -1    0    0  501    0  0.00000000000E+00 -0.00000000000E+00 -0.20448590068E+04  0.20448590068E+04  0.50400000000E-02 0. -1.
    8880023    1    1    2    0    0  0.16541437046E+03 -0.26885877955E+03 -0.22220208000E+03  0.76343364343E+03  0.65864270000E+03 0.  1.
    8880022    1    1    2    0    0 -0.16541437046E+03  0.26885877955E+03 -0.15322223067E+04  0.15718599834E+04  0.15294330000E+03 0.  0.
<mgrwt>
<rscale>  0 0.60801950E+03</rscale>
<asrwt>0</asrwt>
<pdfrwt beam="1">  1        1 0.31459369E+00 0.73038152E+03</pdfrwt>
<pdfrwt beam="2">  1       -1 0.44682250E-01 0.73038152E+03</pdfrwt>
<totfact> 0.14436026E+01</totfact>
</mgrwt>
</event>
<event>
 4    1  0.1043382E-007  0.7626123E+03  0.7818608E-02  0.9798391E-01
         -1   -1    0    0    0  501 -0.00000000000E+00  0.00000000000E+00  0.55073165309E+03  0.55073165311E+03  0.50400000000E-02 0.  1.
          1   -1    0    0  501    0  0.00000000000E+00 -0.00000000000E+00 -0.21687811668E+04  0.21687811669E+04  0.50400000000E-02 0. -1.
    8880023    1    1    2    0    0 -0.21349914445E+03 -0.31966447111E+03  0.25283457084E+03  0.80343187966E+03  0.65864270000E+03 0.  0.
    8880022    1    1    2    0    0  0.21349914445E+03  0.31966447111E+03 -0.18708840846E+04  0.19160809403E+04  0.15294330000E+03 0.  0.
<mgrwt>
<rscale>  0 0.65448964E+03</rscale>
<asrwt>0</asrwt>
<pdfrwt beam="1">  1        1 0.33365864E+00 0.76261226E+03</pdfrwt>
<pdfrwt beam="2">  1       -1 0.84727948E-01 0.76261226E+03</pdfrwt>
<totfact> 0.33201010E+00</totfact>
</mgrwt>
</event>
<event>
 4    1  0.1043382E-007  0.6874557E+03  0.7818608E-02  0.1005386E+00
         -1   -1    0    0    0  501 -0.00000000000E+00  0.00000000000E+00  0.14808364259E+04  0.14808364260E+04  0.50400000000E-02 0.  1.
          1   -1    0    0  501    0  0.00000000000E+00 -0.00000000000E+00 -0.29512519099E+03  0.29512519104E+03  0.50400000000E-02 0. -1.
    8880023    1    1    2    0    0  0.14460581706E+03 -0.13369481626E+03  0.13232665866E+04  0.14911840301E+04  0.65864270000E+03 0.  1.
    8880022    1    1    2    0    0 -0.14460581706E+03  0.13369481626E+03 -0.13755535162E+03  0.28477758689E+03  0.15294330000E+03 0.  0.
<mgrwt>
<rscale>  0 0.53350327E+03</rscale>
<asrwt>0</asrwt>
<pdfrwt beam="1">  1        1 0.45403876E-01 0.68745571E+03</pdfrwt>
<pdfrwt beam="2">  1       -1 0.22782099E+00 0.68745571E+03</pdfrwt>
<totfact> 0.91078087E+00</totfact>
</mgrwt>
</event>
<event>
 4    1  0.1043382E-007  0.1141975E+04  0.7818608E-02  0.9215701E-01
         -1   -1    0    0    0  501 -0.00000000000E+00  0.00000000000E+00  0.17288065112E+04  0.17288065112E+04  0.50400000000E-02 0.  1.
          1   -1    0    0  501    0  0.00000000000E+00 -0.00000000000E+00 -0.77557730930E+03  0.77557730931E+03  0.50400000000E-02 0. -1.
    8880023    1    1    2    0    0 -0.81829262284E+03 -0.44798774062E+03  0.10535452616E+04  0.15537257341E+04  0.65864270000E+03 0.  0.
    8880022    1    1    2    0    0  0.81829262284E+03  0.44798774062E+03 -0.10031605973E+03  0.95065808637E+03  0.15294330000E+03 0.  0.
<mgrwt>
<rscale>  0 0.10892826E+04</rscale>
<asrwt>0</asrwt>
<pdfrwt beam="1">  1        1 0.11931959E+00 0.11419746E+04</pdfrwt>
<pdfrwt beam="2">  1       -1 0.26597023E+00 0.11419746E+04</pdfrwt>
<totfact> 0.12642023E+00</totfact>
</mgrwt>
</event>
<event>
 4    1  0.1043382E-007  0.9208572E+03  0.7818608E-02  0.9493346E-01
          1   -1    0    0  501    0  0.00000000000E+00  0.00000000000E+00  0.23911905153E+04  0.23911905153E+04  0.50400000000E-02 0. -1.
         -1   -1    0    0    0  501 -0.00000000000E+00 -0.00000000000E+00 -0.59865539925E+03  0.59865539927E+03  0.50400000000E-02 0.  1.
    8880023    1    1    2    0    0  0.40761936689E+03  0.49801026150E+03 -0.15430654800E+03  0.93369614214E+03  0.65864270000E+03 0.  0.
    8880022    1    1    2    0    0 -0.40761936689E+03 -0.49801026150E+03  0.19468416641E+04  0.20561497725E+04  0.15294330000E+03 0.  0.
<mgrwt>
<rscale>  0 0.84776180E+03</rscale>
<asrwt>0</asrwt>
<pdfrwt beam="1">  1        1 0.36787546E+00 0.92085720E+03</pdfrwt>
<pdfrwt beam="2">  1       -1 0.92100831E-01 0.92085720E+03</pdfrwt>
<totfact> 0.19036136E+00</totfact>
</mgrwt>
</event>
<event>
 4    1  0.1043382E-007  0.7228899E+03  0.7818608E-02  0.9912926E-01
          1   -1    0    0  501    0  0.00000000000E+00  0.00000000000E+00  0.26093229302E+04  0.26093229302E+04  0.50400000000E-02 0. -1.
         -1   -1    0    0    0  501 -0.00000000000E+00 -0.00000000000E+00 -0.12157860827E+03  0.12157860838E+03  0.50400000000E-02 0.  1.
    8880023    1    1    2    0    0 -0.12021691304E+03  0.27259403114E+03  0.12053669737E+04  0.14055174704E+04  0.65864270000E+03 0. -1.
    8880022    1    1    2    0    0  0.12021691304E+03 -0.27259403114E+03  0.12823773482E+04  0.13253840682E+04  0.15294330000E+03 0.  0.
<mgrwt>
<rscale>  0 0.59638903E+03</rscale>
<asrwt>0</asrwt>
<pdfrwt beam="1">  1        1 0.40143426E+00 0.72288991E+03</pdfrwt>
<pdfrwt beam="2">  1       -1 0.18704403E-01 0.72288991E+03</pdfrwt>
<totfact> 0.27341643E+01</totfact>
</mgrwt>
</event>
<event>
 4    1  0.1043382E-007  0.6788921E+03  0.7818608E-02  0.1009957E+00
         -1   -1    0    0    0  501 -0.00000000000E+00  0.00000000000E+00  0.74478557584E+03  0.74478557586E+03  0.50400000000E-02 0.  1.
          1   -1    0    0  501    0  0.00000000000E+00 -0.00000000000E+00 -0.21767734674E+04  0.21767734674E+04  0.50400000000E-02 0. -1.
    8880023    1    1    2    0    0 -0.14710735459E+03 -0.73781185844E+02  0.58252569839E+03  0.89455610931E+03  0.65864270000E+03 0.  1.
    8880022    1    1    2    0    0  0.14710735459E+03  0.73781185844E+02 -0.20145135900E+04  0.20270029340E+04  0.15294330000E+03 0.  0.
<mgrwt>
<rscale>  0 0.51491560E+03</rscale>
<asrwt>0</asrwt>
<pdfrwt beam="1">  1        1 0.33488822E+00 0.67889207E+03</pdfrwt>
<pdfrwt beam="2">  1       -1 0.11458240E+00 0.67889207E+03</pdfrwt>
<totfact> 0.16820245E+00</totfact>
</mgrwt>
</event>
<event>
 4    1  0.1043382E-007  0.1411179E+04  0.7818608E-02  0.8975045E-01
         -1   -1    0    0    0  501 -0.00000000000E+00  0.00000000000E+00  0.14098151707E+04  0.14098151707E+04  0.50400000000E-02 0.  1.
          1   -1    0    0  501    0  0.00000000000E+00 -0.00000000000E+00 -0.15651247938E+04  0.15651247939E+04  0.50400000000E-02 0. -1.
    8880023    1    1    2    0    0  0.33395287752E+03 -0.12025353080E+04  0.57161471132E+03  0.15225535379E+04  0.65864270000E+03 0.  0.
    8880022    1    1    2    0    0 -0.33395287752E+03  0.12025353080E+04 -0.72692433445E+03  0.14523864267E+04  0.15294330000E+03 0.  0.
<mgrwt>
<rscale>  0 0.13710500E+04</rscale>
<asrwt>0</asrwt>
<pdfrwt beam="1">  1        1 0.24078843E+00 0.14111789E+04</pdfrwt>
<pdfrwt beam="2">  1       -1 0.21689464E+00 0.14111789E+04</pdfrwt>
<totfact> 0.65062695E-01</totfact>
</mgrwt>
</event>
<event>
 4    1  0.1043382E-007  0.6643087E+03  0.7818608E-02  0.1020121E+00
          1   -1    0    0  501    0  0.00000000000E+00  0.00000000000E+00  0.66865127560E+03  0.66865127562E+03  0.50400000000E-02 0. -1.
         -1   -1    0    0    0  501 -0.00000000000E+00 -0.00000000000E+00 -0.49741361228E+03  0.49741361231E+03  0.50400000000E-02 0.  1.
    8880023    1    1    2    0    0  0.78504386035E+02 -0.36509771915E+02 -0.24987566309E+03  0.70974922003E+03  0.65864270000E+03 0.  1.
    8880022    1    1    2    0    0 -0.78504386035E+02  0.36509771915E+02  0.42111332641E+03  0.45631566789E+03  0.15294330000E+03 0.  0.
<mgrwt>
<rscale>  0 0.47643145E+03</rscale>
<asrwt>0</asrwt>
<pdfrwt beam="1">  1        1 0.10286943E+00 0.66430874E+03</pdfrwt>
<pdfrwt beam="2">  1       -1 0.76525171E-01 0.66430874E+03</pdfrwt>
<totfact> 0.51557543E+01</totfact>
</mgrwt>
</event>
<event>
 4    1  0.1043382E-007  0.6801398E+03  0.7818608E-02  0.1009245E+00
         -1   -1    0    0    0  501 -0.00000000000E+00  0.00000000000E+00  0.89355321170E+03  0.89355321172E+03  0.50400000000E-02 0.  1.
          1   -1    0    0  501    0  0.00000000000E+00 -0.00000000000E+00 -0.10332366544E+04  0.10332366544E+04  0.50400000000E-02 0. -1.
    8880023    1    1    2    0    0  0.99396007730E+01  0.16935528088E+03  0.74753413548E+03  0.10106421210E+04  0.65864270000E+03 0.  0.
    8880022    1    1    2    0    0 -0.99396007730E+01 -0.16935528088E+03 -0.88721757818E+03  0.91614774512E+03  0.15294330000E+03 0.  0.
<mgrwt>
<rscale>  0 0.51775941E+03</rscale>
<asrwt>0</asrwt>
<pdfrwt beam="1">  1        1 0.15895949E+00 0.68013985E+03</pdfrwt>
<pdfrwt beam="2">  1       -1 0.13746972E+00 0.68013985E+03</pdfrwt>
<totfact> 0.65596933E+00</totfact>
</mgrwt>
</event>
<event>
 4    1  0.1043382E-007  0.8642111E+03  0.7818608E-02  0.9586116E-01
          1   -1    0    0  501    0  0.00000000000E+00  0.00000000000E+00  0.17602986880E+04  0.17602986880E+04  0.50400000000E-02 0. -1.
         -1   -1    0    0    0  501 -0.00000000000E+00 -0.00000000000E+00 -0.57438428896E+03  0.57438428898E+03  0.50400000000E-02 0.  1.
    8880023    1    1    2    0    0  0.43058467821E+03  0.35727778470E+03 -0.15105416371E+03  0.87731302691E+03  0.65864270000E+03 0.  1.
    8880022    1    1    2    0    0 -0.43058467821E+03 -0.35727778470E+03  0.13369685627E+04  0.14573699500E+04  0.15294330000E+03 0.  0.
<mgrwt>
<rscale>  0 0.78221958E+03</rscale>
<asrwt>0</asrwt>
<pdfrwt beam="1">  1        1 0.27081518E+00 0.86421108E+03</pdfrwt>
<pdfrwt beam="2">  1       -1 0.88366815E-01 0.86421108E+03</pdfrwt>
<totfact> 0.55986571E+00</totfact>
</mgrwt>
</event>
<event>
 4    1  0.1043382E-007  0.7805172E+03  0.7818608E-02  0.9754623E-01
         -1   -1    0    0    0  501 -0.00000000000E+00  0.00000000000E+00  0.12731109216E+04  0.12731109216E+04  0.50400000000E-02 0.  1.
          1   -1    0    0  501    0  0.00000000000E+00 -0.00000000000E+00 -0.44002147145E+03  0.44002147148E+03  0.50400000000E-02 0. -1.
    8880023    1    1    2    0    0 -0.41880385815E+03 -0.50245272523E+00  0.97157757334E+03  0.12462624568E+04  0.65864270000E+03 0.  1.
    8880022    1    1    2    0    0  0.41880385815E+03  0.50245272523E+00 -0.13848812322E+03  0.46686993622E+03  0.15294330000E+03 0.  1.
<mgrwt>
<rscale>  0 0.67855616E+03</rscale>
<asrwt>0</asrwt>
<pdfrwt beam="1">  1        1 0.67695612E-01 0.78051722E+03</pdfrwt>
<pdfrwt beam="2">  1       -1 0.19586322E+00 0.78051722E+03</pdfrwt>
<totfact> 0.87261910E+00</totfact>
</mgrwt>
</event>
<event>
 4    1  0.1043382E-007  0.7485566E+03  0.7818608E-02  0.9835688E-01
          1   -1    0    0  501    0  0.00000000000E+00  0.00000000000E+00  0.19933439247E+04  0.19933439247E+04  0.50400000000E-02 0. -1.
         -1   -1    0    0    0  501 -0.00000000000E+00 -0.00000000000E+00 -0.18185498073E+03  0.18185498080E+03  0.50400000000E-02 0.  1.
    8880023    1    1    2    0    0 -0.27681064656E+03  0.22338901400E+03  0.15068188949E+04  0.16825100813E+04  0.65864270000E+03 0. -1.
    8880022    1    1    2    0    0  0.27681064656E+03 -0.22338901400E+03  0.30467004909E+03  0.49268882416E+03  0.15294330000E+03 0.  0.
<mgrwt>
<rscale>  0 0.63481966E+03</rscale>
<asrwt>0</asrwt>
<pdfrwt beam="1">  1        1 0.30666829E+00 0.74855661E+03</pdfrwt>
<pdfrwt beam="2">  1       -1 0.27977690E-01 0.74855661E+03</pdfrwt>
<totfact> 0.35969372E+01</totfact>
</mgrwt>
</event>
<event>
 4    1  0.1043382E-007  0.7570195E+03  0.7818608E-02  0.9812886E-01
         -1   -1    0    0    0  501 -0.00000000000E+00  0.00000000000E+00  0.46583494077E+03  0.46583494080E+03  0.50400000000E-02 0.  1.
          1   -1    0    0  501    0  0.00000000000E+00 -0.00000000000E+00 -0.12670908810E+04  0.12670908810E+04  0.50400000000E-02 0. -1.
    8880023    1    1    2    0    0 -0.26230893695E+03 -0.26544730844E+03  0.82490153836E+02  0.76150054741E+03  0.65864270000E+03 0.  1.
    8880022    1    1    2    0    0  0.26230893695E+03  0.26544730844E+03 -0.88374609407E+03  0.97142527441E+03  0.15294330000E+03 0.  0.
<mgrwt>
<rscale>  0 0.64675582E+03</rscale>
<asrwt>0</asrwt>
<pdfrwt beam="1">  1        1 0.19493706E+00 0.75701946E+03</pdfrwt>
<pdfrwt beam="2">  1       -1 0.71666915E-01 0.75701946E+03</pdfrwt>
<totfact> 0.19357016E+01</totfact>
</mgrwt>
</event>
<event>
 4    1  0.1043382E-007  0.9881940E+03  0.7818608E-02  0.9397169E-01
          1   -1    0    0  501    0  0.00000000000E+00  0.00000000000E+00  0.27151142387E+04  0.27151142387E+04  0.50400000000E-02 0. -1.
         -1   -1    0    0    0  501 -0.00000000000E+00 -0.00000000000E+00 -0.35594881379E+03  0.35594881383E+03  0.50400000000E-02 0.  1.
    8880023    1    1    2    0    0 -0.73664208100E+03  0.86990943799E+01  0.20137768025E+04  0.22431728526E+04  0.65864270000E+03 0. -1.
    8880022    1    1    2    0    0  0.73664208100E+03 -0.86990943799E+01  0.34538862239E+03  0.82789019999E+03  0.15294330000E+03 0.  0.
<mgrwt>
<rscale>  0 0.92309025E+03</rscale>
<asrwt>0</asrwt>
<pdfrwt beam="1">  1        1 0.41770987E+00 0.98819403E+03</pdfrwt>
<pdfrwt beam="2">  1       -1 0.54761358E-01 0.98819403E+03</pdfrwt>
<totfact> 0.33042805E+00</totfact>
</mgrwt>
</event>
<event>
 4    1  0.1043382E-007  0.6657568E+03  0.7818608E-02  0.1018907E+00
          1   -1    0    0  501    0  0.00000000000E+00  0.00000000000E+00  0.12738798571E+04  0.12738798571E+04  0.50400000000E-02 0. -1.
         -1   -1    0    0    0  501 -0.00000000000E+00 -0.00000000000E+00 -0.23970538052E+03  0.23970538058E+03  0.50400000000E-02 0.  1.
    8880023    1    1    2    0    0 -0.63109894680E+02  0.73750270685E+02  0.25385004207E+03  0.71251106052E+03  0.65864270000E+03 0.  1.
    8880022    1    1    2    0    0  0.63109894680E+02 -0.73750270685E+02  0.78032443446E+03  0.80107417713E+03  0.15294330000E+03 0.  0.
<mgrwt>
<rscale>  0 0.48083214E+03</rscale>
<asrwt>0</asrwt>
<pdfrwt beam="1">  1        1 0.19598152E+00 0.66575684E+03</pdfrwt>
<pdfrwt beam="2">  1       -1 0.36877750E-01 0.66575684E+03</pdfrwt>
<totfact> 0.68871102E+01</totfact>
</mgrwt>
</event>
<event>
 4    1  0.1043382E-007  0.7751464E+03  0.7818608E-02  0.9767364E-01
         -1   -1    0    0    0  501 -0.00000000000E+00  0.00000000000E+00  0.14031819518E+04  0.14031819518E+04  0.50400000000E-02 0.  1.
          1   -1    0    0  501    0  0.00000000000E+00 -0.00000000000E+00 -0.63481203567E+03  0.63481203569E+03  0.50400000000E-02 0. -1.
    8880023    1    1    2    0    0 -0.40743408744E+03 -0.32236390555E+02  0.11971592697E+04  0.14261985288E+04  0.65864270000E+03 0.  1.
    8880022    1    1    2    0    0  0.40743408744E+03  0.32236390555E+02 -0.42878935354E+03  0.61179545863E+03  0.15294330000E+03 0.  0.
<mgrwt>
<rscale>  0 0.67143763E+03</rscale>
<asrwt>0</asrwt>
<pdfrwt beam="1">  1        1 0.97663391E-01 0.77514639E+03</pdfrwt>
<pdfrwt beam="2">  1       -1 0.21587414E+00 0.77514639E+03</pdfrwt>
<totfact> 0.38291877E+00</totfact>
</mgrwt>
</event>
<event>
 4    1  0.1043382E-007  0.1066982E+04  0.7818608E-02  0.9298740E-01
          1   -1    0    0  501    0  0.00000000000E+00  0.00000000000E+00  0.24640188792E+04  0.24640188792E+04  0.50400000000E-02 0. -1.
         -1   -1    0    0    0  501 -0.00000000000E+00 -0.00000000000E+00 -0.71525613041E+03  0.71525613043E+03  0.50400000000E-02 0.  1.
    8880023    1    1    2    0    0 -0.29782126631E+03  0.78481978826E+03  0.20195561036E+04  0.22840877103E+04  0.65864270000E+03 0. -1.
    8880022    1    1    2    0    0  0.29782126631E+03 -0.78481978826E+03 -0.27079335484E+03  0.89518729926E+03  0.15294330000E+03 0.  0.
<mgrwt>
<rscale>  0 0.10089891E+04</rscale>
<asrwt>0</asrwt>
<pdfrwt beam="1">  1        1 0.37907983E+00 0.10669816E+04</pdfrwt>
<pdfrwt beam="2">  1       -1 0.11003940E+00 0.10669816E+04</pdfrwt>
<totfact> 0.11022845E+00</totfact>
</mgrwt>
</event>
<event>
 4    1  0.1043382E-007  0.9659963E+03  0.7818608E-02  0.9427463E-01
          1   -1    0    0  501    0  0.00000000000E+00  0.00000000000E+00  0.34646541768E+04  0.34646541768E+04  0.50400000000E-02 0. -1.
         -1   -1    0    0    0  501 -0.00000000000E+00 -0.00000000000E+00 -0.47383184237E+03  0.47383184240E+03  0.50400000000E-02 0.  1.
    8880023    1    1    2    0    0  0.63693257143E+03  0.30603200113E+03  0.11458328307E+03  0.97276832868E+03  0.65864270000E+03 0.  1.
    8880022    1    1    2    0    0 -0.63693257143E+03 -0.30603200113E+03  0.28762390513E+04  0.29657176905E+04  0.15294330000E+03 0.  0.
<mgrwt>
<rscale>  0 0.89849635E+03</rscale>
<asrwt>0</asrwt>
<pdfrwt beam="1">  1        1 0.53302371E+00 0.96599632E+03</pdfrwt>
<pdfrwt beam="2">  1       -1 0.72897208E-01 0.96599632E+03</pdfrwt>
<totfact> 0.52843291E-01</totfact>
</mgrwt>
</event>
<event>
 4    1  0.1043382E-007  0.7149562E+03  0.7818608E-02  0.9940037E-01
          1   -1    0    0  501    0  0.00000000000E+00  0.00000000000E+00  0.19044173006E+04  0.19044173006E+04  0.50400000000E-02 0. -1.
         -1   -1    0    0    0  501 -0.00000000000E+00 -0.00000000000E+00 -0.16131394691E+03  0.16131394699E+03  0.50400000000E-02 0.  1.
    8880023    1    1    2    0    0  0.12716963913E+02 -0.27783157674E+03  0.81140946807E+03  0.10814562577E+04  0.65864270000E+03 0.  1.
    8880022    1    1    2    0    0 -0.12716963913E+02  0.27783157674E+03  0.93169388564E+03  0.98427498991E+03  0.15294330000E+03 0.  0.
<mgrwt>
<rscale>  0 0.58359536E+03</rscale>
<asrwt>0</asrwt>
<pdfrwt beam="1">  1        1 0.29298726E+00 0.71495616E+03</pdfrwt>
<pdfrwt beam="2">  1       -1 0.24817532E-01 0.71495616E+03</pdfrwt>
<totfact> 0.50861226E+01</totfact>
</mgrwt>
</event>
<event>
 4    1  0.1043382E-007  0.9317251E+03  0.7818608E-02  0.9476910E-01
         -1   -1    0    0    0  501 -0.00000000000E+00  0.00000000000E+00  0.35524822335E+03  0.35524822339E+03  0.50400000000E-02 0.  1.
          1   -1    0    0  501    0  0.00000000000E+00 -0.00000000000E+00 -0.20866738436E+04  0.20866738436E+04  0.50400000000E-02 0. -1.
    8880023    1    1    2    0    0  0.61074866102E+03 -0.24756312106E+03 -0.55403754077E+03  0.10840061018E+04  0.65864270000E+03 0.  1.
    8880022    1    1    2    0    0 -0.61074866102E+03  0.24756312106E+03 -0.11773880794E+04  0.13579159652E+04  0.15294330000E+03 0. -1.
<mgrwt>
<rscale>  0 0.86007759E+03</rscale>
<asrwt>0</asrwt>
<pdfrwt beam="1">  1        1 0.32102674E+00 0.93172508E+03</pdfrwt>
<pdfrwt beam="2">  1       -1 0.54653574E-01 0.93172508E+03</pdfrwt>
<totfact> 0.89853077E+00</totfact>
</mgrwt>
</event>
<event>
 4    1  0.1043382E-007  0.8190859E+03  0.7818608E-02  0.9670953E-01
          1   -1    0    0  501    0  0.00000000000E+00  0.00000000000E+00  0.20896173972E+04  0.20896173972E+04  0.50400000000E-02 0. -1.
         -1   -1    0    0    0  501 -0.00000000000E+00 -0.00000000000E+00 -0.68562081707E+03  0.68562081708E+03  0.50400000000E-02 0.  1.
    8880023    1    1    2    0    0 -0.39352225682E+03  0.28676065707E+03  0.18966009507E+04  0.20659130702E+04  0.65864270000E+03 0. -1.
    8880022    1    1    2    0    0  0.39352225682E+03 -0.28676065707E+03 -0.49260437061E+03  0.70932514407E+03  0.15294330000E+03 0.  0.
<mgrwt>
<rscale>  0 0.72772872E+03</rscale>
<asrwt>0</asrwt>
<pdfrwt beam="1">  1        1 0.32147960E+00 0.81908586E+03</pdfrwt>
<pdfrwt beam="2">  1       -1 0.10548013E+00 0.81908586E+03</pdfrwt>
<totfact> 0.22733885E+00</totfact>
</mgrwt>
</event>
<event>
 4    1  0.1043382E-007  0.6670801E+03  0.7818608E-02  0.1017849E+00
         -1   -1    0    0    0  501 -0.00000000000E+00  0.00000000000E+00  0.76093879451E+03  0.76093879453E+03  0.50400000000E-02 0.  1.
          1   -1    0    0  501    0  0.00000000000E+00 -0.00000000000E+00 -0.97062934635E+03  0.97062934636E+03  0.50400000000E-02 0. -1.
    8880023    1    1    2    0    0  0.11142517743E+02  0.10517378382E+03  0.60217998745E+03  0.89867492680E+03  0.65864270000E+03 0.  1.
    8880022    1    1    2    0    0 -0.11142517743E+02 -0.10517378382E+03 -0.81187053929E+03  0.83289321409E+03  0.15294330000E+03 0.  0.
<mgrwt>
<rscale>  0 0.48471051E+03</rscale>
<asrwt>0</asrwt>
<pdfrwt beam="1">  1        1 0.14932759E+00 0.66708012E+03</pdfrwt>
<pdfrwt beam="2">  1       -1 0.11706751E+00 0.66708012E+03</pdfrwt>
<totfact> 0.10958880E+01</totfact>
</mgrwt>
</event>
<event>
 4    1  0.1043382E-007  0.8230833E+03  0.7818608E-02  0.9662943E-01
         -1   -1    0    0    0  501 -0.00000000000E+00  0.00000000000E+00  0.78849177840E+03  0.78849177841E+03  0.50400000000E-02 0.  1.
          1   -1    0    0  501    0  0.00000000000E+00 -0.00000000000E+00 -0.85392532618E+03  0.85392532619E+03  0.50400000000E-02 0. -1.
    8880023    1    1    2    0    0 -0.27370391367E+03 -0.41078231189E+03  0.42816924470E+03  0.92779041194E+03  0.65864270000E+03 0.  0.
    8880022    1    1    2    0    0  0.27370391367E+03  0.41078231189E+03 -0.49360279248E+03  0.71462669267E+03  0.15294330000E+03 0.  0.
<mgrwt>
<rscale>  0 0.73266667E+03</rscale>
<asrwt>0</asrwt>
<pdfrwt beam="1">  1        1 0.13137313E+00 0.82308332E+03</pdfrwt>
<pdfrwt beam="2">  1       -1 0.12130643E+00 0.82308332E+03</pdfrwt>
<totfact> 0.12234567E+01</totfact>
</mgrwt>
</event>
<event>
 4    1  0.1043382E-007  0.8003276E+03  0.7818608E-02  0.9710088E-01
          1   -1    0    0  501    0  0.00000000000E+00  0.00000000000E+00  0.98777429892E+03  0.98777429894E+03  0.50400000000E-02 0. -1.
         -1   -1    0    0    0  501 -0.00000000000E+00 -0.00000000000E+00 -0.93596925756E+03  0.93596925757E+03  0.50400000000E-02 0.  1.
    8880023    1    1    2    0    0  0.32827244366E+03 -0.31456513741E+03 -0.67900938721E+03  0.10495608497E+04  0.65864270000E+03 0.  0.
    8880022    1    1    2    0    0 -0.32827244366E+03  0.31456513741E+03  0.73081442858E+03  0.87418270686E+03  0.15294330000E+03 0. -1.
<mgrwt>
<rscale>  0 0.70419308E+03</rscale>
<asrwt>0</asrwt>
<pdfrwt beam="1">  1        1 0.15196528E+00 0.80032758E+03</pdfrwt>
<pdfrwt beam="2">  1       -1 0.14399527E+00 0.80032758E+03</pdfrwt>
<totfact> 0.61870124E+00</totfact>
</mgrwt>
</event>
<event>
 4    1  0.1043382E-007  0.6737396E+03  0.7818608E-02  0.1013113E+00
          1   -1    0    0  501    0  0.00000000000E+00  0.00000000000E+00  0.23956931072E+04  0.23956931072E+04  0.50400000000E-02 0. -1.
         -1   -1    0    0    0  501 -0.00000000000E+00 -0.00000000000E+00 -0.15997831564E+03  0.15997831572E+03  0.50400000000E-02 0.  1.
    8880023    1    1    2    0    0 -0.13979405227E+03 -0.23925318022E+02  0.58631415285E+03  0.89313453073E+03  0.65864270000E+03 0.  0.
    8880022    1    1    2    0    0  0.13979405227E+03  0.23925318022E+02  0.16494006387E+04  0.16625368922E+04  0.15294330000E+03 0. -1.
<mgrwt>
<rscale>  0 0.50256038E+03</rscale>
<asrwt>0</asrwt>
<pdfrwt beam="1">  1        1 0.36856815E+00 0.67373957E+03</pdfrwt>
<pdfrwt beam="2">  1       -1 0.24612050E-01 0.67373957E+03</pdfrwt>
<totfact> 0.24316463E+01</totfact>
</mgrwt>
</event>
<event>
 4    1  0.1043382E-007  0.6950935E+03  0.7818608E-02  0.1001820E+00
          1   -1    0    0  501    0  0.00000000000E+00  0.00000000000E+00  0.10597837541E+04  0.10597837541E+04  0.50400000000E-02 0. -1.
         -1   -1    0    0    0  501 -0.00000000000E+00 -0.00000000000E+00 -0.59088146118E+03  0.59088146121E+03  0.50400000000E-02 0.  1.
    8880023    1    1    2    0    0  0.22204765131E+03  0.62935311118E+01 -0.35730694112E+03  0.78155180533E+03  0.65864270000E+03 0.  1.
    8880022    1    1    2    0    0 -0.22204765131E+03 -0.62935311118E+01  0.82620923399E+03  0.86911340994E+03  0.15294330000E+03 0.  0.
<mgrwt>
<rscale>  0 0.54859445E+03</rscale>
<asrwt>0</asrwt>
<pdfrwt beam="1">  1        1 0.16304365E+00 0.69509350E+03</pdfrwt>
<pdfrwt beam="2">  1       -1 0.90904840E-01 0.69509350E+03</pdfrwt>
<totfact> 0.16683959E+01</totfact>
</mgrwt>
</event>
<event>
 4    1  0.1043382E-007  0.9387961E+03  0.7818608E-02  0.9466421E-01
         -1   -1    0    0    0  501 -0.00000000000E+00  0.00000000000E+00  0.17701392991E+04  0.17701392991E+04  0.50400000000E-02 0.  1.
          1   -1    0    0  501    0  0.00000000000E+00 -0.00000000000E+00 -0.42564246848E+03  0.42564246851E+03  0.50400000000E-02 0. -1.
    8880023    1    1    2    0    0  0.66637932705E+03 -0.58876816428E+02  0.11459557095E+04  0.14814022348E+04  0.65864270000E+03 0.  0.
    8880022    1    1    2    0    0 -0.66637932705E+03  0.58876816428E+02  0.19854112112E+03  0.71437953276E+03  0.15294330000E+03 0.  0.
<mgrwt>
<rscale>  0 0.86805410E+03</rscale>
<asrwt>0</asrwt>
<pdfrwt beam="1">  1        1 0.65483456E-01 0.93879609E+03</pdfrwt>
<pdfrwt beam="2">  1       -1 0.27232912E+00 0.93879609E+03</pdfrwt>
<totfact> 0.28060342E+00</totfact>
</mgrwt>
</event>
<event>
 4    1  0.1043382E-007  0.8885479E+03  0.7818608E-02  0.9544672E-01
         -1   -1    0    0    0  501 -0.00000000000E+00  0.00000000000E+00  0.66006466042E+03  0.66006466044E+03  0.50400000000E-02 0.  1.
          1   -1    0    0  501    0  0.00000000000E+00 -0.00000000000E+00 -0.16001817912E+04  0.16001817912E+04  0.50400000000E-02 0. -1.
    8880023    1    1    2    0    0 -0.44166946757E+03 -0.40079320742E+03  0.24761954423E+03  0.92240596195E+03  0.65864270000E+03 0.  1.
    8880022    1    1    2    0    0  0.44166946757E+03  0.40079320742E+03 -0.11877366750E+04  0.13378404897E+04  0.15294330000E+03 0.  0.
<mgrwt>
<rscale>  0 0.81068973E+03</rscale>
<asrwt>0</asrwt>
<pdfrwt beam="1">  1        1 0.24618181E+00 0.88854787E+03</pdfrwt>
<pdfrwt beam="2">  1       -1 0.10154841E+00 0.88854787E+03</pdfrwt>
<totfact> 0.52414795E+00</totfact>
</mgrwt>
</event>
<event>
 4    1  0.1043382E-007  0.8087263E+03  0.7818608E-02  0.9692236E-01
          1   -1    0    0  501    0  0.00000000000E+00  0.00000000000E+00  0.70032371710E+03  0.70032371712E+03  0.50400000000E-02 0. -1.
         -1   -1    0    0    0  501 -0.00000000000E+00 -0.00000000000E+00 -0.75210918693E+03  0.75210918695E+03  0.50400000000E-02 0.  1.
    8880023    1    1    2    0    0 -0.42267037106E+03  0.20390611358E+03 -0.34399079456E+03  0.87884459305E+03  0.65864270000E+03 0.  1.
    8880022    1    1    2    0    0  0.42267037106E+03 -0.20390611358E+03  0.29220532473E+03  0.57358831102E+03  0.15294330000E+03 0.  0.
<mgrwt>
<rscale>  0 0.71480928E+03</rscale>
<asrwt>0</asrwt>
<pdfrwt beam="1">  1        1 0.10774211E+00 0.80872625E+03</pdfrwt>
<pdfrwt beam="2">  1       -1 0.11570911E+00 0.80872625E+03</pdfrwt>
<totfact> 0.18792464E+01</totfact>
</mgrwt>
</event>
<event>
 4    1  0.1043382E-007  0.9851241E+03  0.7818608E-02  0.9401284E-01
         -1   -1    0    0    0  501 -0.00000000000E+00  0.00000000000E+00  0.90134171913E+03  0.90134171914E+03  0.50400000000E-02 0.  1.
          1   -1    0    0  501    0  0.00000000000E+00 -0.00000000000E+00 -0.21294298779E+04  0.21294298779E+04  0.50400000000E-02 0. -1.
    8880023    1    1    2    0    0  0.73254789215E+03  0.57403290331E+01 -0.18247335083E+04  0.20736735395E+04  0.65864270000E+03 0.  0.
    8880022    1    1    2    0    0 -0.73254789215E+03 -0.57403290331E+01  0.59664534955E+03  0.95709805758E+03  0.15294330000E+03 0.  1.
<mgrwt>
<rscale>  0 0.91970102E+03</rscale>
<asrwt>0</asrwt>
<pdfrwt beam="1">  1        1 0.32760459E+00 0.98512414E+03</pdfrwt>
<pdfrwt beam="2">  1       -1 0.13866796E+00 0.98512414E+03</pdfrwt>
<totfact> 0.10617061E+00</totfact>
</mgrwt>
</event>
<event>
 4    1  0.1043382E-007  0.1100897E+04  0.7818608E-02  0.9260058E-01
          1   -1    0    0  501    0  0.00000000000E+00  0.00000000000E+00  0.32786504356E+04  0.32786504356E+04  0.50400000000E-02 0. -1.
         -1   -1    0    0    0  501 -0.00000000000E+00 -0.00000000000E+00 -0.68544688802E+03  0.68544688804E+03  0.50400000000E-02 0.  1.
    8880023    1    1    2    0    0 -0.62644543622E+03 -0.62107236571E+03 -0.11960059360E+03  0.11073749484E+04  0.65864270000E+03 0.  0.
    8880022    1    1    2    0    0  0.62644543622E+03  0.62107236571E+03  0.27128041412E+04  0.28567223753E+04  0.15294330000E+03 0.  0.
<mgrwt>
<rscale>  0 0.10454467E+04</rscale>
<asrwt>0</asrwt>
<pdfrwt beam="1">  1        1 0.50440776E+00 0.11008973E+04</pdfrwt>
<pdfrwt beam="2">  1       -1 0.10545337E+00 0.11008973E+04</pdfrwt>
<totfact> 0.31743938E-01</totfact>
</mgrwt>
</event>
<event>
 4    1  0.1043382E-007  0.7070322E+03  0.7818608E-02  0.9969191E-01
         -1   -1    0    0    0  501 -0.00000000000E+00  0.00000000000E+00  0.61855243974E+03  0.61855243976E+03  0.50400000000E-02 0.  1.
          1   -1    0    0  501    0  0.00000000000E+00 -0.00000000000E+00 -0.66739261432E+03  0.66739261434E+03  0.50400000000E-02 0. -1.
    8880023    1    1    2    0    0 -0.23832136736E+03  0.96370661673E+02  0.34877494007E+03  0.78837715825E+03  0.65864270000E+03 0.  0.
    8880022    1    1    2    0    0  0.23832136736E+03 -0.96370661673E+02 -0.39761511465E+03  0.49756789585E+03  0.15294330000E+03 0.  0.
<mgrwt>
<rscale>  0 0.57022040E+03</rscale>
<asrwt>0</asrwt>
<pdfrwt beam="1">  1        1 0.10267579E+00 0.70703224E+03</pdfrwt>
<pdfrwt beam="2">  1       -1 0.95161913E-01 0.70703224E+03</pdfrwt>
<totfact> 0.32135723E+01</totfact>
</mgrwt>
</event>
<event>
 4    1  0.1043382E-007  0.6598895E+03  0.7818608E-02  0.1024270E+00
         -1   -1    0    0    0  501 -0.00000000000E+00  0.00000000000E+00  0.51807758456E+03  0.51807758458E+03  0.50400000000E-02 0.  1.
          1   -1    0    0  501    0  0.00000000000E+00 -0.00000000000E+00 -0.32939117209E+03  0.32939117212E+03  0.50400000000E-02 0. -1.
    8880023    1    1    2    0    0  0.33615691328E+02 -0.22670782022E+02  0.19804027615E+03  0.68896599067E+03  0.65864270000E+03 0.  1.
    8880022    1    1    2    0    0 -0.33615691328E+02  0.22670782022E+02 -0.93538636740E+01  0.15850276604E+03  0.15294330000E+03 0. -1.
<mgrwt>
<rscale>  0 0.46176738E+03</rscale>
<asrwt>0</asrwt>
<pdfrwt beam="1">  1        1 0.50675565E-01 0.65988953E+03</pdfrwt>
<pdfrwt beam="2">  1       -1 0.79704244E-01 0.65988953E+03</pdfrwt>
<totfact> 0.12455818E+02</totfact>
</mgrwt>
</event>
<event>
 4    1  0.1043382E-007  0.6722722E+03  0.7818608E-02  0.1014084E+00
          1   -1    0    0  501    0  0.00000000000E+00  0.00000000000E+00  0.62202872403E+03  0.62202872405E+03  0.50400000000E-02 0. -1.
         -1   -1    0    0    0  501 -0.00000000000E+00 -0.00000000000E+00 -0.47745210138E+03  0.47745210141E+03  0.50400000000E-02 0.  1.
    8880023    1    1    2    0    0  0.13365485178E+03  0.16617570562E+02 -0.19804094813E+03  0.70083534903E+03  0.65864270000E+03 0.  1.
    8880022    1    1    2    0    0 -0.13365485178E+03 -0.16617570562E+02  0.34261757078E+03  0.39864547643E+03  0.15294330000E+03 0.  0.
<mgrwt>
<rscale>  0 0.49883392E+03</rscale>
<asrwt>0</asrwt>
<pdfrwt beam="1">  1        1 0.95696726E-01 0.67227224E+03</pdfrwt>
<pdfrwt beam="2">  1       -1 0.73454170E-01 0.67227224E+03</pdfrwt>
<totfact> 0.62368579E+01</totfact>
</mgrwt>
</event>
<event>
 4    1  0.1043382E-007  0.8690317E+03  0.7818608E-02  0.9577695E-01
         -1   -1    0    0    0  501 -0.00000000000E+00  0.00000000000E+00  0.11420070074E+04  0.11420070074E+04  0.50400000000E-02 0.  1.
          1   -1    0    0  501    0  0.00000000000E+00 -0.00000000000E+00 -0.63965965798E+03  0.63965965800E+03  0.50400000000E-02 0. -1.
    8880023    1    1    2    0    0 -0.14275921642E+03 -0.54865807355E+03  0.74659786274E+03  0.11456982371E+04  0.65864270000E+03 0.  1.
    8880022    1    1    2    0    0  0.14275921642E+03  0.54865807355E+03 -0.24425051332E+03  0.63596842832E+03  0.15294330000E+03 0.  0.
<mgrwt>
<rscale>  0 0.78790205E+03</rscale>
<asrwt>0</asrwt>
<pdfrwt beam="1">  1        1 0.98409180E-01 0.86903169E+03</pdfrwt>
<pdfrwt beam="2">  1       -1 0.17569338E+00 0.86903169E+03</pdfrwt>
<totfact> 0.70949892E+00</totfact>
</mgrwt>
</event>
<event>
 4    1  0.1043382E-007  0.7267871E+03  0.7818608E-02  0.9900256E-01
          1   -1    0    0  501    0  0.00000000000E+00  0.00000000000E+00  0.28292110393E+03  0.28292110397E+03  0.50400000000E-02 0. -1.
         -1   -1    0    0    0  501 -0.00000000000E+00 -0.00000000000E+00 -0.12984634441E+04  0.12984634441E+04  0.50400000000E-02 0.  1.
    8880023    1    1    2    0    0 -0.30277523178E+03  0.52311495588E+02 -0.10020854691E+04  0.12378993607E+04  0.65864270000E+03 0.  0.
    8880022    1    1    2    0    0  0.30277523178E+03 -0.52311495588E+02 -0.13456871043E+02  0.34348518737E+03  0.15294330000E+03 0.  0.
<mgrwt>
<rscale>  0 0.60248889E+03</rscale>
<asrwt>0</asrwt>
<pdfrwt beam="1">  1        1 0.43526324E-01 0.72678714E+03</pdfrwt>
<pdfrwt beam="2">  1       -1 0.19976360E+00 0.72678714E+03</pdfrwt>
<totfact> 0.14745209E+01</totfact>
</mgrwt>
</event>
<event>
 4    1  0.1043382E-007  0.6626692E+03  0.7818608E-02  0.1021574E+00
          1   -1    0    0  501    0  0.00000000000E+00  0.00000000000E+00  0.12445457253E+04  0.12445457253E+04  0.50400000000E-02 0. -1.
         -1   -1    0    0    0  501 -0.00000000000E+00 -0.00000000000E+00 -0.35722590765E+03  0.35722590769E+03  0.50400000000E-02 0.  1.
    8880023    1    1    2    0    0 -0.98251168197E+01  0.72274924838E+02 -0.35408223554E+02  0.66361445602E+03  0.65864270000E+03 0.  1.
    8880022    1    1    2    0    0  0.98251168197E+01 -0.72274924838E+02  0.92272804121E+03  0.93815717699E+03  0.15294330000E+03 0.  0.
<mgrwt>
<rscale>  0 0.47122705E+03</rscale>
<asrwt>0</asrwt>
<pdfrwt beam="1">  1        1 0.19146857E+00 0.66266915E+03</pdfrwt>
<pdfrwt beam="2">  1       -1 0.54957833E-01 0.66266915E+03</pdfrwt>
<totfact> 0.34488063E+01</totfact>
</mgrwt>
</event>
<event>
 4    1  0.1043382E-007  0.7267845E+03  0.7818608E-02  0.9900264E-01
          1   -1    0    0  501    0  0.00000000000E+00  0.00000000000E+00  0.38752115496E+03  0.38752115499E+03  0.50400000000E-02 0. -1.
         -1   -1    0    0    0  501 -0.00000000000E+00 -0.00000000000E+00 -0.74503149264E+03  0.74503149265E+03  0.50400000000E-02 0.  1.
    8880023    1    1    2    0    0 -0.28565463871E+03  0.11316762545E+03 -0.29140932617E+03  0.78302942838E+03  0.65864270000E+03 0.  1.
    8880022    1    1    2    0    0  0.28565463871E+03 -0.11316762545E+03 -0.66101011512E+02  0.34952321927E+03  0.15294330000E+03 0.  0.
<mgrwt>
<rscale>  0 0.60248478E+03</rscale>
<asrwt>0</asrwt>
<pdfrwt beam="1">  1        1 0.59618639E-01 0.72678449E+03</pdfrwt>
<pdfrwt beam="2">  1       -1 0.11462023E+00 0.72678449E+03</pdfrwt>
<totfact> 0.44311176E+01</totfact>
</mgrwt>
</event>
<event>
 4    1  0.1043382E-007  0.1240948E+04  0.7818608E-02  0.9118310E-01
         -1   -1    0    0    0  501 -0.00000000000E+00  0.00000000000E+00  0.19493098722E+04  0.19493098722E+04  0.50400000000E-02 0.  1.
          1   -1    0    0  501    0  0.00000000000E+00 -0.00000000000E+00 -0.82650272665E+03  0.82650272666E+03  0.50400000000E-02 0. -1.
    8880023    1    1    2    0    0  0.57319817264E+03 -0.88180847051E+03  0.11787442138E+04  0.17115462166E+04  0.65864270000E+03 0.  1.
    8880022    1    1    2    0    0 -0.57319817264E+03  0.88180847051E+03 -0.55937068248E+02  0.10642663823E+04  0.15294330000E+03 0. -1.
<mgrwt>
<rscale>  0 0.11937892E+04</rscale>
<asrwt>0</asrwt>
<pdfrwt beam="1">  1        1 0.12715427E+00 0.12409482E+04</pdfrwt>
<pdfrwt beam="2">  1       -1 0.29989382E+00 0.12409482E+04</pdfrwt>
<totfact> 0.68103068E-01</totfact>
</mgrwt>
</event>
<event>
 4    1  0.1043382E-007  0.7735733E+03  0.7818608E-02  0.9771156E-01
         -1   -1    0    0    0  501 -0.00000000000E+00  0.00000000000E+00  0.14420256989E+04  0.14420256989E+04  0.50400000000E-02 0.  1.
          1   -1    0    0  501    0  0.00000000000E+00 -0.00000000000E+00 -0.45024185677E+03  0.45024185680E+03  0.50400000000E-02 0. -1.
    8880023    1    1    2    0    0  0.98361584994E+02 -0.39361197289E+03  0.11869512106E+04  0.14167811296E+04  0.65864270000E+03 0.  1.
    8880022    1    1    2    0    0 -0.98361584994E+02  0.39361197289E+03 -0.19516736852E+03  0.47548642605E+03  0.15294330000E+03 0.  0.
<mgrwt>
<rscale>  0 0.66933720E+03</rscale>
<asrwt>0</asrwt>
<pdfrwt beam="1">  1        1 0.69267975E-01 0.77357326E+03</pdfrwt>
<pdfrwt beam="2">  1       -1 0.22185012E+00 0.77357326E+03</pdfrwt>
<totfact> 0.56541763E+00</totfact>
</mgrwt>
</event>
<event>
 4    1  0.1043382E-007  0.9144066E+03  0.7818608E-02  0.9503289E-01
          1   -1    0    0  501    0  0.00000000000E+00  0.00000000000E+00  0.21076644942E+04  0.21076644942E+04  0.50400000000E-02 0. -1.
         -1   -1    0    0    0  501 -0.00000000000E+00 -0.00000000000E+00 -0.61733547453E+03  0.61733547455E+03  0.50400000000E-02 0.  1.
    8880023    1    1    2    0    0  0.61801768908E+03 -0.14277000561E+03 -0.17982442177E+03  0.93192068732E+03  0.65864270000E+03 0.  0.
    8880022    1    1    2    0    0 -0.61801768908E+03  0.14277000561E+03  0.16701534415E+04  0.17930792815E+04  0.15294330000E+03 0.  0.
<mgrwt>
<rscale>  0 0.84041753E+03</rscale>
<asrwt>0</asrwt>
<pdfrwt beam="1">  1        1 0.32425607E+00 0.91440655E+03</pdfrwt>
<pdfrwt beam="2">  1       -1 0.94974690E-01 0.91440655E+03</pdfrwt>
<totfact> 0.27665400E+00</totfact>
</mgrwt>
</event>
<event>
 4    1  0.1043382E-007  0.7836767E+03  0.7818608E-02  0.9747270E-01
          1   -1    0    0  501    0  0.00000000000E+00  0.00000000000E+00  0.27461776574E+04  0.27461776574E+04  0.50400000000E-02 0. -1.
         -1   -1    0    0    0  501 -0.00000000000E+00 -0.00000000000E+00 -0.14446062691E+03  0.14446062700E+03  0.50400000000E-02 0.  1.
    8880023    1    1    2    0    0 -0.81912616314E+02 -0.41668856693E+03  0.13627884097E+04  0.15720500928E+04  0.65864270000E+03 0.  0.
    8880022    1    1    2    0    0  0.81912616314E+02  0.41668856693E+03  0.12389286208E+04  0.13185881916E+04  0.15294330000E+03 0.  0.
<mgrwt>
<rscale>  0 0.68270766E+03</rscale>
<asrwt>0</asrwt>
<pdfrwt beam="1">  1        1 0.42248889E+00 0.78367675E+03</pdfrwt>
<pdfrwt beam="2">  1       -1 0.22224711E-01 0.78367675E+03</pdfrwt>
<totfact> 0.16334969E+01</totfact>
</mgrwt>
</event>
<event>
 4    1  0.1043382E-007  0.1180562E+04  0.7818608E-02  0.9176253E-01
         -1   -1    0    0    0  501 -0.00000000000E+00  0.00000000000E+00  0.10662030746E+04  0.10662030746E+04  0.50400000000E-02 0.  1.
          1   -1    0    0  501    0  0.00000000000E+00 -0.00000000000E+00 -0.21729503420E+04  0.21729503420E+04  0.50400000000E-02 0. -1.
    8880023    1    1    2    0    0 -0.65934217972E+03 -0.72469642092E+03  0.55462240824E+03  0.13043516529E+04  0.65864270000E+03 0.  1.
    8880022    1    1    2    0    0  0.65934217972E+03  0.72469642092E+03 -0.16613696757E+04  0.19348017637E+04  0.15294330000E+03 0.  0.
<mgrwt>
<rscale>  0 0.11301938E+04</rscale>
<asrwt>0</asrwt>
<pdfrwt beam="1">  1        1 0.33430005E+00 0.11805622E+04</pdfrwt>
<pdfrwt beam="2">  1       -1 0.16403124E+00 0.11805622E+04</pdfrwt>
<totfact> 0.61081263E-01</totfact>
</mgrwt>
</event>
<event>
 4    1  0.1043382E-007  0.1054418E+04  0.7818608E-02  0.9313589E-01
         -1   -1    0    0    0  501 -0.00000000000E+00  0.00000000000E+00  0.17439276191E+04  0.17439276191E+04  0.50400000000E-02 0.  1.
          1   -1    0    0  501    0  0.00000000000E+00 -0.00000000000E+00 -0.11421271780E+04  0.11421271780E+04  0.50400000000E-02 0. -1.
    8880023    1    1    2    0    0 -0.76155580862E+03 -0.31308255621E+03  0.13841339104E+04  0.17400071336E+04  0.65864270000E+03 0.  1.
    8880022    1    1    2    0    0  0.76155580862E+03  0.31308255621E+03 -0.78233346937E+03  0.11460476635E+04  0.15294330000E+03 0.  0.
<mgrwt>
<rscale>  0 0.99541429E+03</rscale>
<asrwt>0</asrwt>
<pdfrwt beam="1">  1        1 0.17571187E+00 0.10544184E+04</pdfrwt>
<pdfrwt beam="2">  1       -1 0.26829656E+00 0.10544184E+04</pdfrwt>
<totfact> 0.62634921E-01</totfact>
</mgrwt>
</event>
<event>
 4    1  0.1043382E-007  0.9709066E+03  0.7818608E-02  0.9420651E-01
         -1   -1    0    0    0  501 -0.00000000000E+00  0.00000000000E+00  0.69467217166E+03  0.69467217168E+03  0.50400000000E-02 0.  1.
          1   -1    0    0  501    0  0.00000000000E+00 -0.00000000000E+00 -0.12969392164E+04  0.12969392164E+04  0.50400000000E-02 0. -1.
    8880023    1    1    2    0    0  0.12626839852E+03  0.70207247942E+03  0.10367844253E+03  0.97642659762E+03  0.65864270000E+03 0.  0.
    8880022    1    1    2    0    0 -0.12626839852E+03 -0.70207247942E+03 -0.70594548730E+03  0.10151847905E+04  0.15294330000E+03 0.  0.
<mgrwt>
<rscale>  0 0.90395467E+03</rscale>
<asrwt>0</asrwt>
<pdfrwt beam="1">  1        1 0.19952911E+00 0.97090663E+03</pdfrwt>
<pdfrwt beam="2">  1       -1 0.10687264E+00 0.97090663E+03</pdfrwt>
<totfact> 0.74810616E+00</totfact>
</mgrwt>
</event>
<event>
 4    1  0.1043382E-007  0.8810017E+03  0.7818608E-02  0.9557245E-01
          1   -1    0    0  501    0  0.00000000000E+00  0.00000000000E+00  0.15042731844E+04  0.15042731844E+04  0.50400000000E-02 0. -1.
         -1   -1    0    0    0  501 -0.00000000000E+00 -0.00000000000E+00 -0.10643361045E+04  0.10643361045E+04  0.50400000000E-02 0.  1.
    8880023    1    1    2    0    0 -0.21735791416E+03  0.54323971766E+03 -0.79937679979E+03  0.11896080565E+04  0.65864270000E+03 0.  0.
    8880022    1    1    2    0    0  0.21735791416E+03 -0.54323971766E+03  0.12393138797E+04  0.13790012325E+04  0.15294330000E+03 0.  0.
<mgrwt>
<rscale>  0 0.80191797E+03</rscale>
<asrwt>0</asrwt>
<pdfrwt beam="1">  1        1 0.23142664E+00 0.88100174E+03</pdfrwt>
<pdfrwt beam="2">  1       -1 0.16374402E+00 0.88100174E+03</pdfrwt>
<totfact> 0.18218974E+00</totfact>
</mgrwt>
</event>
<event>
 4    1  0.1043382E-007  0.8173135E+03  0.7818608E-02  0.9674540E-01
         -1   -1    0    0    0  501 -0.00000000000E+00  0.00000000000E+00  0.78952327414E+03  0.78952327416E+03  0.50400000000E-02 0.  1.
          1   -1    0    0  501    0  0.00000000000E+00 -0.00000000000E+00 -0.11982867715E+04  0.11982867715E+04  0.50400000000E-02 0. -1.
    8880023    1    1    2    0    0  0.29095308837E+03 -0.38670065163E+03  0.49195136699E+03  0.95394834627E+03  0.65864270000E+03 0.  1.
    8880022    1    1    2    0    0 -0.29095308837E+03  0.38670065163E+03 -0.90071486436E+03  0.10338616994E+04  0.15294330000E+03 0.  0.
<mgrwt>
<rscale>  0 0.72553119E+03</rscale>
<asrwt>0</asrwt>
<pdfrwt beam="1">  1        1 0.18435181E+00 0.81731346E+03</pdfrwt>
<pdfrwt beam="2">  1       -1 0.12146512E+00 0.81731346E+03</pdfrwt>
<totfact> 0.66101696E+00</totfact>
</mgrwt>
</event>
<event>
 4    1  0.1043382E-007  0.7460032E+03  0.7818608E-02  0.9842793E-01
          1   -1    0    0  501    0  0.00000000000E+00  0.00000000000E+00  0.14278691832E+04  0.14278691833E+04  0.50400000000E-02 0. -1.
         -1   -1    0    0    0  501 -0.00000000000E+00 -0.00000000000E+00 -0.46369653963E+03  0.46369653966E+03  0.50400000000E-02 0.  1.
    8880023    1    1    2    0    0 -0.34982993732E+03 -0.18155501517E+02 -0.10755417134E+03  0.75371660014E+03  0.65864270000E+03 0.  1.
    8880022    1    1    2    0    0  0.34982993732E+03  0.18155501517E+02  0.10717268150E+04  0.11378491228E+04  0.15294330000E+03 0.  0.
<mgrwt>
<rscale>  0 0.63115735E+03</rscale>
<asrwt>0</asrwt>
<pdfrwt beam="1">  1        1 0.21967218E+00 0.74600323E+03</pdfrwt>
<pdfrwt beam="2">  1       -1 0.71337930E-01 0.74600323E+03</pdfrwt>
<totfact> 0.15096199E+01</totfact>
</mgrwt>
</event>
<event>
 4    1  0.1043382E-007  0.6918443E+03  0.7818608E-02  0.1003288E+00
         -1   -1    0    0    0  501 -0.00000000000E+00  0.00000000000E+00  0.29997607033E+03  0.29997607037E+03  0.50400000000E-02 0.  1.
          1   -1    0    0  501    0  0.00000000000E+00 -0.00000000000E+00 -0.17797281268E+04  0.17797281268E+04  0.50400000000E-02 0. -1.
    8880023    1    1    2    0    0 -0.19889503070E+03  0.72657418838E+02 -0.12880022567E+03  0.70373150999E+03  0.65864270000E+03 0.  0.
    8880022    1    1    2    0    0  0.19889503070E+03 -0.72657418838E+02 -0.13509518308E+04  0.13759726872E+04  0.15294330000E+03 0.  0.
<mgrwt>
<rscale>  0 0.54231696E+03</rscale>
<asrwt>0</asrwt>
<pdfrwt beam="1">  1        1 0.27380432E+00 0.69184430E+03</pdfrwt>
<pdfrwt beam="2">  1       -1 0.46150166E-01 0.69184430E+03</pdfrwt>
<totfact> 0.20558376E+01</totfact>
</mgrwt>
</event>
<event>
 4    1  0.1043382E-007  0.7670823E+03  0.7818608E-02  0.9787105E-01
          1   -1    0    0  501    0  0.00000000000E+00  0.00000000000E+00  0.35172285557E+03  0.35172285561E+03  0.50400000000E-02 0. -1.
         -1   -1    0    0    0  501 -0.00000000000E+00 -0.00000000000E+00 -0.18961986873E+04  0.18961986873E+04  0.50400000000E-02 0.  1.
    8880023    1    1    2    0    0  0.11471106726E+03 -0.37609369098E+03 -0.16442570821E+04  0.18143860261E+04  0.65864270000E+03 0.  1.
    8880022    1    1    2    0    0 -0.11471106726E+03  0.37609369098E+03  0.99781250437E+02  0.43353551677E+03  0.15294330000E+03 0.  0.
<mgrwt>
<rscale>  0 0.66059152E+03</rscale>
<asrwt>0</asrwt>
<pdfrwt beam="1">  1        1 0.54111210E-01 0.76708233E+03</pdfrwt>
<pdfrwt beam="2">  1       -1 0.29172287E+00 0.76708233E+03</pdfrwt>
<totfact> 0.27796956E+00</totfact>
</mgrwt>
</event>
<event>
 4    1  0.1043382E-007  0.7317643E+03  0.7818608E-02  0.9884621E-01
         -1   -1    0    0    0  501 -0.00000000000E+00  0.00000000000E+00  0.41639235896E+03  0.41639235899E+03  0.50400000000E-02 0.  1.
          1   -1    0    0  501    0  0.00000000000E+00 -0.00000000000E+00 -0.98762777401E+03  0.98762777402E+03  0.50400000000E-02 0. -1.
    8880023    1    1    2    0    0  0.20911437865E+03 -0.24070711844E+03  0.48771192385E+00  0.73176443228E+03  0.65864270000E+03 0.  1.
    8880022    1    1    2    0    0 -0.20911437865E+03  0.24070711844E+03 -0.57172312697E+03  0.67225570073E+03  0.15294330000E+03 0.  0.
<mgrwt>
<rscale>  0 0.61012437E+03</rscale>
<asrwt>0</asrwt>
<pdfrwt beam="1">  1        1 0.15194273E+00 0.73176427E+03</pdfrwt>
<pdfrwt beam="2">  1       -1 0.64060363E-01 0.73176427E+03</pdfrwt>
<totfact> 0.39285481E+01</totfact>
</mgrwt>
</event>
<event>
 4    1  0.1043382E-007  0.7377126E+03  0.7818608E-02  0.9866661E-01
         -1   -1    0    0    0  501 -0.00000000000E+00  0.00000000000E+00  0.52255970600E+03  0.52255970603E+03  0.50400000000E-02 0.  1.
          1   -1    0    0  501    0  0.00000000000E+00 -0.00000000000E+00 -0.12938218110E+04  0.12938218111E+04  0.50400000000E-02 0. -1.
    8880023    1    1    2    0    0  0.11035765582E+03 -0.31341793881E+03  0.21176419896E+03  0.76750498291E+03  0.65864270000E+03 0.  0.
    8880022    1    1    2    0    0 -0.11035765582E+03  0.31341793881E+03 -0.98302630400E+03  0.10488765342E+04  0.15294330000E+03 0.  0.
<mgrwt>
<rscale>  0 0.61904599E+03</rscale>
<asrwt>0</asrwt>
<pdfrwt beam="1">  1        1 0.19904951E+00 0.73771256E+03</pdfrwt>
<pdfrwt beam="2">  1       -1 0.80393801E-01 0.73771256E+03</pdfrwt>
<totfact> 0.14607928E+01</totfact>
</mgrwt>
</event>
<event>
 4    1  0.1043382E-007  0.6910332E+03  0.7818608E-02  0.1003665E+00
         -1   -1    0    0    0  501 -0.00000000000E+00  0.00000000000E+00  0.39151840021E+03  0.39151840024E+03  0.50400000000E-02 0.  1.
          1   -1    0    0  501    0  0.00000000000E+00 -0.00000000000E+00 -0.95399361093E+03  0.95399361094E+03  0.50400000000E-02 0. -1.
    8880023    1    1    2    0    0  0.19840729584E+03 -0.65964058945E+02  0.37448069570E+02  0.69204716335E+03  0.65864270000E+03 0.  1.
    8880022    1    1    2    0    0 -0.19840729584E+03  0.65964058945E+02 -0.59992328029E+03  0.65346484784E+03  0.15294330000E+03 0.  0.
<mgrwt>
<rscale>  0 0.54071856E+03</rscale>
<asrwt>0</asrwt>
<pdfrwt beam="1">  1        1 0.14676825E+00 0.69103323E+03</pdfrwt>
<pdfrwt beam="2">  1       -1 0.60233600E-01 0.69103323E+03</pdfrwt>
<totfact> 0.47380822E+01</totfact>
</mgrwt>
</event>
<event>
 4    1  0.1043382E-007  0.7648352E+03  0.7818608E-02  0.9792747E-01
          1   -1    0    0  501    0  0.00000000000E+00  0.00000000000E+00  0.66836627297E+03  0.66836627299E+03  0.50400000000E-02 0. -1.
         -1   -1    0    0    0  501 -0.00000000000E+00 -0.00000000000E+00 -0.89076658923E+03  0.89076658924E+03  0.50400000000E-02 0.  1.
    8880023    1    1    2    0    0 -0.38099699663E+03  0.77485181494E+02 -0.61834284864E+03  0.98352465628E+03  0.65864270000E+03 0.  1.
    8880022    1    1    2    0    0  0.38099699663E+03 -0.77485181494E+02  0.39594253238E+03  0.57560820595E+03  0.15294330000E+03 0.  0.
<mgrwt>
<rscale>  0 0.65753250E+03</rscale>
<asrwt>0</asrwt>
<pdfrwt beam="1">  1        1 0.10282558E+00 0.76483519E+03</pdfrwt>
<pdfrwt beam="2">  1       -1 0.13704101E+00 0.76483519E+03</pdfrwt>
<totfact> 0.13298160E+01</totfact>
</mgrwt>
</event>
<event>
 4    1  0.1043382E-007  0.1124202E+04  0.7818608E-02  0.9234577E-01
         -1   -1    0    0    0  501 -0.00000000000E+00  0.00000000000E+00  0.92453146893E+03  0.92453146894E+03  0.50400000000E-02 0.  1.
          1   -1    0    0  501    0  0.00000000000E+00 -0.00000000000E+00 -0.15986108695E+04  0.15986108695E+04  0.50400000000E-02 0. -1.
    8880023    1    1    2    0    0 -0.84563589247E+03  0.33899895170E+03  0.31723895072E+03  0.11681057786E+04  0.65864270000E+03 0.  0.
    8880022    1    1    2    0    0  0.84563589247E+03 -0.33899895170E+03 -0.99131835127E+03  0.13550365598E+04  0.15294330000E+03 0.  0.
<mgrwt>
<rscale>  0 0.10703558E+04</rscale>
<asrwt>0</asrwt>
<pdfrwt beam="1">  1        1 0.24594013E+00 0.11242022E+04</pdfrwt>
<pdfrwt beam="2">  1       -1 0.14223561E+00 0.11242022E+04</pdfrwt>
<totfact> 0.22268308E+00</totfact>
</mgrwt>
</event>
<event>
 4    1  0.1043382E-007  0.7917124E+03  0.7818608E-02  0.9729011E-01
         -1   -1    0    0    0  501 -0.00000000000E+00  0.00000000000E+00  0.31991057874E+03  0.31991057878E+03  0.50400000000E-02 0.  1.
          1   -1    0    0  501    0  0.00000000000E+00 -0.00000000000E+00 -0.22793894538E+04  0.22793894538E+04  0.50400000000E-02 0. -1.
    8880023    1    1    2    0    0  0.24152819560E+03  0.36696379755E+03 -0.25390869329E+03  0.83143137346E+03  0.65864270000E+03 0.  1.
    8880022    1    1    2    0    0 -0.24152819560E+03 -0.36696379755E+03 -0.17055701818E+04  0.17678686592E+04  0.15294330000E+03 0.  0.
<mgrwt>
<rscale>  0 0.69315477E+03</rscale>
<asrwt>0</asrwt>
<pdfrwt beam="1">  1        1 0.35067529E+00 0.79171239E+03</pdfrwt>
<pdfrwt beam="2">  1       -1 0.49217014E-01 0.79171239E+03</pdfrwt>
<totfact> 0.83062765E+00</totfact>
</mgrwt>
</event>
<event>
 4    1  0.1043382E-007  0.9821860E+03  0.7818608E-02  0.9405244E-01
         -1   -1    0    0    0  501 -0.00000000000E+00  0.00000000000E+00  0.11414138249E+04  0.11414138249E+04  0.50400000000E-02 0.  1.
          1   -1    0    0  501    0  0.00000000000E+00 -0.00000000000E+00 -0.71956047366E+03  0.71956047368E+03  0.50400000000E-02 0. -1.
    8880023    1    1    2    0    0 -0.49016301363E+03  0.53909123026E+03  0.51780924937E+03  0.11103223674E+04  0.65864270000E+03 0.  0.
    8880022    1    1    2    0    0  0.49016301363E+03 -0.53909123026E+03 -0.95955898109E+02  0.75065193124E+03  0.15294330000E+03 0.  0.
<mgrwt>
<rscale>  0 0.91645375E+03</rscale>
<asrwt>0</asrwt>
<pdfrwt beam="1">  1        1 0.11070161E+00 0.98218600E+03</pdfrwt>
<pdfrwt beam="2">  1       -1 0.17560213E+00 0.98218600E+03</pdfrwt>
<totfact> 0.58771109E+00</totfact>
</mgrwt>
</event>
<event>
 4    1  0.1043382E-007  0.7500081E+03  0.7818608E-02  0.9831698E-01
          1   -1    0    0  501    0  0.00000000000E+00  0.00000000000E+00  0.68048601006E+03  0.68048601008E+03  0.50400000000E-02 0. -1.
         -1   -1    0    0    0  501 -0.00000000000E+00 -0.00000000000E+00 -0.17734398429E+04  0.17734398429E+04  0.50400000000E-02 0.  1.
    8880023    1    1    2    0    0 -0.30112959350E+03 -0.19499465230E+03 -0.16276369189E+04  0.17921255795E+04  0.65864270000E+03 0.  1.
    8880022    1    1    2    0    0  0.30112959350E+03  0.19499465230E+03  0.53468308607E+03  0.66180027353E+03  0.15294330000E+03 0.  0.
<mgrwt>
<rscale>  0 0.63688839E+03</rscale>
<asrwt>0</asrwt>
<pdfrwt beam="1">  1        1 0.10469016E+00 0.75000810E+03</pdfrwt>
<pdfrwt beam="2">  1       -1 0.27283690E+00 0.75000810E+03</pdfrwt>
<totfact> 0.14795458E+00</totfact>
</mgrwt>
</event>
<event>
 4    1  0.1043382E-007  0.1025218E+04  0.7818608E-02  0.9349284E-01
         -1   -1    0    0    0  501 -0.00000000000E+00  0.00000000000E+00  0.51743885323E+03  0.51743885326E+03  0.50400000000E-02 0.  1.
          1   -1    0    0  501    0  0.00000000000E+00 -0.00000000000E+00 -0.20236180230E+04  0.20236180231E+04  0.50400000000E-02 0. -1.
    8880023    1    1    2    0    0  0.75001088750E+03 -0.23397749777E+03 -0.25615521508E+03  0.10567343570E+04  0.65864270000E+03 0. -1.
    8880022    1    1    2    0    0 -0.75001088750E+03  0.23397749777E+03 -0.12500239547E+04  0.14843225193E+04  0.15294330000E+03 0.  0.
<mgrwt>
<rscale>  0 0.96369604E+03</rscale>
<asrwt>0</asrwt>
<pdfrwt beam="1">  1        1 0.31132584E+00 0.10252180E+04</pdfrwt>
<pdfrwt beam="2">  1       -1 0.79605979E-01 0.10252180E+04</pdfrwt>
<totfact> 0.45653758E+00</totfact>
</mgrwt>
</event>
<event>
 4    1  0.1043382E-007  0.8719333E+03  0.7818608E-02  0.9572679E-01
         -1   -1    0    0    0  501 -0.00000000000E+00  0.00000000000E+00  0.40273025702E+03  0.40273025705E+03  0.50400000000E-02 0.  1.
          1   -1    0    0  501    0  0.00000000000E+00 -0.00000000000E+00 -0.36142132635E+04  0.36142132635E+04  0.50400000000E-02 0. -1.
    8880023    1    1    2    0    0 -0.30508141941E+03  0.48309706169E+03 -0.13283728505E+03  0.88199398754E+03  0.65864270000E+03 0.  0.
    8880022    1    1    2    0    0  0.30508141941E+03 -0.48309706169E+03 -0.30786457214E+04  0.31349495330E+04  0.15294330000E+03 0.  0.
<mgrwt>
<rscale>  0 0.79131161E+03</rscale>
<asrwt>0</asrwt>
<pdfrwt beam="1">  1        1 0.55603279E+00 0.87193328E+03</pdfrwt>
<pdfrwt beam="2">  1       -1 0.61958503E-01 0.87193328E+03</pdfrwt>
<totfact> 0.57204366E-01</totfact>
</mgrwt>
</event>
<event>
 4    1  0.1043382E-007  0.9317666E+03  0.7818608E-02  0.9476848E-01
         -1   -1    0    0    0  501 -0.00000000000E+00  0.00000000000E+00  0.14978054473E+04  0.14978054473E+04  0.50400000000E-02 0.  1.
          1   -1    0    0  501    0  0.00000000000E+00 -0.00000000000E+00 -0.49992475614E+03  0.49992475617E+03  0.50400000000E-02 0. -1.
    8880023    1    1    2    0    0 -0.22826720957E+03 -0.61828219010E+03  0.93209984803E+03  0.13179526238E+04  0.65864270000E+03 0.  1.
    8880022    1    1    2    0    0  0.22826720957E+03  0.61828219010E+03  0.65780843144E+02  0.67977757972E+03  0.15294330000E+03 0.  0.
<mgrwt>
<rscale>  0 0.86012451E+03</rscale>
<asrwt>0</asrwt>
<pdfrwt beam="1">  1        1 0.76911501E-01 0.93176660E+03</pdfrwt>
<pdfrwt beam="2">  1       -1 0.23043161E+00 0.93176660E+03</pdfrwt>
<totfact> 0.42173489E+00</totfact>
</mgrwt>
</event>
<event>
 4    1  0.1043382E-007  0.7038462E+03  0.7818608E-02  0.9981605E-01
         -1   -1    0    0    0  501 -0.00000000000E+00  0.00000000000E+00  0.15108321329E+04  0.15108321329E+04  0.50400000000E-02 0.  1.
          1   -1    0    0  501    0  0.00000000000E+00 -0.00000000000E+00 -0.41986868953E+03  0.41986868956E+03  0.50400000000E-02 0. -1.
    8880023    1    1    2    0    0  0.23325156523E+03  0.84752358405E+02  0.13617054514E+04  0.15328539388E+04  0.65864270000E+03 0.  0.
    8880022    1    1    2    0    0 -0.23325156523E+03 -0.84752358405E+02 -0.27074200803E+03  0.39784688370E+03  0.15294330000E+03 0.  0.
<mgrwt>
<rscale>  0 0.56464241E+03</rscale>
<asrwt>0</asrwt>
<pdfrwt beam="1">  1        1 0.64595182E-01 0.70384619E+03</pdfrwt>
<pdfrwt beam="2">  1       -1 0.23243571E+00 0.70384619E+03</pdfrwt>
<totfact> 0.53419933E+00</totfact>
</mgrwt>
</event>
<event>
 4    1  0.1043382E-007  0.7144575E+03  0.7818608E-02  0.9941806E-01
         -1   -1    0    0    0  501 -0.00000000000E+00  0.00000000000E+00  0.67614448024E+03  0.67614448026E+03  0.50400000000E-02 0.  1.
          1   -1    0    0  501    0  0.00000000000E+00 -0.00000000000E+00 -0.12124344780E+04  0.12124344780E+04  0.50400000000E-02 0. -1.
    8880023    1    1    2    0    0  0.22861116290E+03  0.15612908726E+03  0.45568304740E+03  0.84740580694E+03  0.65864270000E+03 0.  1.
    8880022    1    1    2    0    0 -0.22861116290E+03 -0.15612908726E+03 -0.99197304518E+03  0.10411731513E+04  0.15294330000E+03 0.  0.
<mgrwt>
<rscale>  0 0.58277263E+03</rscale>
<asrwt>0</asrwt>
<pdfrwt beam="1">  1        1 0.18652838E+00 0.71445753E+03</pdfrwt>
<pdfrwt beam="2">  1       -1 0.10402223E+00 0.71445753E+03</pdfrwt>
<totfact> 0.94741334E+00</totfact>
</mgrwt>
</event>
<event>
 4    1  0.1043382E-007  0.7957192E+03  0.7818608E-02  0.9720130E-01
          1   -1    0    0  501    0  0.00000000000E+00  0.00000000000E+00  0.53387340965E+03  0.53387340968E+03  0.50400000000E-02 0. -1.
         -1   -1    0    0    0  501 -0.00000000000E+00 -0.00000000000E+00 -0.97657544972E+03  0.97657544973E+03  0.50400000000E-02 0.  1.
    8880023    1    1    2    0    0  0.18207574359E+03 -0.40768531864E+03  0.87615452772E+02  0.80052830635E+03  0.65864270000E+03 0.  0.
    8880022    1    1    2    0    0 -0.18207574359E+03  0.40768531864E+03 -0.53031749283E+03  0.70992055306E+03  0.15294330000E+03 0.  0.
<mgrwt>
<rscale>  0 0.69830836E+03</rscale>
<asrwt>0</asrwt>
<pdfrwt beam="1">  1        1 0.82134371E-01 0.79571924E+03</pdfrwt>
<pdfrwt beam="2">  1       -1 0.15024238E+00 0.79571924E+03</pdfrwt>
<totfact> 0.14373090E+01</totfact>
</mgrwt>
</event>
<event>
 4    1  0.1043382E-007  0.7879021E+03  0.7818608E-02  0.9737592E-01
          1   -1    0    0  501    0  0.00000000000E+00  0.00000000000E+00  0.59411523748E+03  0.59411523750E+03  0.50400000000E-02 0. -1.
         -1   -1    0    0    0  501 -0.00000000000E+00 -0.00000000000E+00 -0.86922936851E+03  0.86922936852E+03  0.50400000000E-02 0.  1.
    8880023    1    1    2    0    0  0.42140969443E+02  0.43035301824E+03 -0.51938646637E+03  0.94369067460E+03  0.65864270000E+03 0.  1.
    8880022    1    1    2    0    0 -0.42140969443E+02 -0.43035301824E+03  0.24427233534E+03  0.51965393142E+03  0.15294330000E+03 0.  0.
<mgrwt>
<rscale>  0 0.68822034E+03</rscale>
<asrwt>0</asrwt>
<pdfrwt beam="1">  1        1 0.91402345E-01 0.78790214E+03</pdfrwt>
<pdfrwt beam="2">  1       -1 0.13372759E+00 0.78790214E+03</pdfrwt>
<totfact> 0.16773071E+01</totfact>
</mgrwt>
</event>
<event>
 4    1  0.1043382E-007  0.9352940E+03  0.7818608E-02  0.9471596E-01
          1   -1    0    0  501    0  0.00000000000E+00  0.00000000000E+00  0.14710658304E+04  0.14710658304E+04  0.50400000000E-02 0. -1.
         -1   -1    0    0    0  501 -0.00000000000E+00 -0.00000000000E+00 -0.90712187815E+03  0.90712187816E+03  0.50400000000E-02 0.  1.
    8880023    1    1    2    0    0 -0.75869172973E+02 -0.65970335453E+03 -0.54064810162E+03  0.10803125582E+04  0.65864270000E+03 0.  1.
    8880022    1    1    2    0    0  0.75869172973E+02  0.65970335453E+03  0.11045920538E+04  0.12978751503E+04  0.15294330000E+03 0.  0.
<mgrwt>
<rscale>  0 0.86410701E+03</rscale>
<asrwt>0</asrwt>
<pdfrwt beam="1">  1        1 0.22631782E+00 0.93529399E+03</pdfrwt>
<pdfrwt beam="2">  1       -1 0.13955721E+00 0.93529399E+03</pdfrwt>
<totfact> 0.29367171E+00</totfact>
</mgrwt>
</event>
<event>
 4    1  0.1043382E-007  0.6804591E+03  0.7818608E-02  0.1009065E+00
          1   -1    0    0  501    0  0.00000000000E+00  0.00000000000E+00  0.12770567573E+04  0.12770567573E+04  0.50400000000E-02 0. -1.
         -1   -1    0    0    0  501 -0.00000000000E+00 -0.00000000000E+00 -0.24944050915E+03  0.24944050921E+03  0.50400000000E-02 0.  1.
    8880023    1    1    2    0    0 -0.79304488819E+02  0.15141061884E+03  0.26517210583E+03  0.73030187554E+03  0.65864270000E+03 0.  1.
    8880022    1    1    2    0    0  0.79304488819E+02 -0.15141061884E+03  0.76244414227E+03  0.79619539093E+03  0.15294330000E+03 0.  0.
<mgrwt>
<rscale>  0 0.51847875E+03</rscale>
<asrwt>0</asrwt>
<pdfrwt beam="1">  1        1 0.19647027E+00 0.68045910E+03</pdfrwt>
<pdfrwt beam="2">  1       -1 0.38375463E-01 0.68045910E+03</pdfrwt>
<totfact> 0.63682769E+01</totfact>
</mgrwt>
</event>
<event>
 4    1  0.1043382E-007  0.6877179E+03  0.7818608E-02  0.1005257E+00
          1   -1    0    0  501    0  0.00000000000E+00  0.00000000000E+00  0.12966119254E+04  0.12966119254E+04  0.50400000000E-02 0. -1.
         -1   -1    0    0    0  501 -0.00000000000E+00 -0.00000000000E+00 -0.32317283941E+03  0.32317283945E+03  0.50400000000E-02 0.  1.
    8880023    1    1    2    0    0 -0.19612924399E+03 -0.26059237773E+02  0.80410759164E+02  0.69240296120E+03  0.65864270000E+03 0.  1.
    8880022    1    1    2    0    0  0.19612924399E+03  0.26059237773E+02  0.89302832679E+03  0.92738180362E+03  0.15294330000E+03 0.  0.
<mgrwt>
<rscale>  0 0.53404181E+03</rscale>
<asrwt>0</asrwt>
<pdfrwt beam="1">  1        1 0.19947876E+00 0.68771794E+03</pdfrwt>
<pdfrwt beam="2">  1       -1 0.49718899E-01 0.68771794E+03</pdfrwt>
<totfact> 0.38225403E+01</totfact>
</mgrwt>
</event>
<event>
 4    1  0.1058870E-007  0.7186153E+03  0.7818608E-02  0.9927299E-01
         -1   -1    0    0    0  501 -0.00000000000E+00  0.00000000000E+00  0.60415530119E+03  0.60415530121E+03  0.50400000000E-02 0.  1.
          1   -1    0    0  501    0  0.00000000000E+00 -0.00000000000E+00 -0.18061471981E+04  0.18061471981E+04  0.50400000000E-02 0. -1.
    8880023    1    1    2    0    0  0.22934300851E+03 -0.17320375509E+03  0.36768636699E+03  0.80721820288E+03  0.65864270000E+03 0.  1.
    8880022    1    1    2    0    0 -0.22934300851E+03  0.17320375509E+03 -0.15696782639E+04  0.16030842964E+04  0.15294330000E+03 0.  0.
<mgrwt>
<rscale>  0 0.58956292E+03</rscale>
<asrwt>0</asrwt>
<pdfrwt beam="1">  1        1 0.27786880E+00 0.71861531E+03</pdfrwt>
<pdfrwt beam="2">  1       -1 0.92946971E-01 0.71861531E+03</pdfrwt>
<totfact> 0.47762164E+00</totfact>
</mgrwt>
</event>
<event>
 4    1  0.1051109E-007  0.6942551E+03  0.7818608E-02  0.1002192E+00
         -1   -1    0    0    0  501 -0.00000000000E+00  0.00000000000E+00  0.11338097212E+04  0.11338097212E+04  0.50400000000E-02 0.  1.
          1   -1    0    0  501    0  0.00000000000E+00 -0.00000000000E+00 -0.11461895234E+04  0.11461895234E+04  0.50400000000E-02 0. -1.
    8880023    1    1    2    0    0 -0.14971909619E+03 -0.16051193222E+03  0.10086594458E+04  0.12244933532E+04  0.65864270000E+03 0.  1.
    8880022    1    1    2    0    0  0.14971909619E+03  0.16051193222E+03 -0.10210392479E+04  0.10555058915E+04  0.15294330000E+03 0.  0.
<mgrwt>
<rscale>  0 0.54699309E+03</rscale>
<asrwt>0</asrwt>
<pdfrwt beam="1">  1        1 0.17633685E+00 0.69425506E+03</pdfrwt>
<pdfrwt beam="2">  1       -1 0.17443227E+00 0.69425506E+03</pdfrwt>
<totfact> 0.28134987E+00</totfact>
</mgrwt>
</event>
<event>
 4    1  0.1043382E-007  0.7075012E+03  0.7818608E-02  0.9967400E-01
         -1   -1    0    0    0  501 -0.00000000000E+00  0.00000000000E+00  0.50909259282E+03  0.50909259285E+03  0.50400000000E-02 0.  1.
          1   -1    0    0  501    0  0.00000000000E+00 -0.00000000000E+00 -0.19488356368E+04  0.19488356368E+04  0.50400000000E-02 0. -1.
    8880023    1    1    2    0    0 -0.22170502367E+03 -0.13264487895E+03  0.24341441156E+03  0.74820355750E+03  0.65864270000E+03 0.  1.
    8880022    1    1    2    0    0  0.22170502367E+03  0.13264487895E+03 -0.16831574555E+04  0.17097246722E+04  0.15294330000E+03 0.  0.
<mgrwt>
<rscale>  0 0.57103109E+03</rscale>
<asrwt>0</asrwt>
<pdfrwt beam="1">  1        1 0.29982086E+00 0.70750123E+03</pdfrwt>
<pdfrwt beam="2">  1       -1 0.78321939E-01 0.70750123E+03</pdfrwt>
<totfact> 0.55645764E+00</totfact>
</mgrwt>
</event>
<event>
 4    1  0.1043382E-007  0.7449083E+03  0.7818608E-02  0.9845873E-01
          1   -1    0    0  501    0  0.00000000000E+00  0.00000000000E+00  0.29355307951E+03  0.29355307956E+03  0.50400000000E-02 0. -1.
         -1   -1    0    0    0  501 -0.00000000000E+00 -0.00000000000E+00 -0.18498764599E+04  0.18498764599E+04  0.50400000000E-02 0.  1.
    8880023    1    1    2    0    0 -0.34326598743E+03  0.56979483518E+02 -0.15959932614E+04  0.17612730897E+04  0.65864270000E+03 0.  0.
    8880022    1    1    2    0    0  0.34326598743E+03 -0.56979483518E+02  0.39669880996E+02  0.38215644982E+03  0.15294330000E+03 0.  0.
<mgrwt>
<rscale>  0 0.62957761E+03</rscale>
<asrwt>0</asrwt>
<pdfrwt beam="1">  1        1 0.45162013E-01 0.74490832E+03</pdfrwt>
<pdfrwt beam="2">  1       -1 0.28459637E+00 0.74490832E+03</pdfrwt>
<totfact> 0.39196306E+00</totfact>
</mgrwt>
</event>
<event>
 4    1  0.1043382E-007  0.6860293E+03  0.7818608E-02  0.1006100E+00
          1   -1    0    0  501    0  0.00000000000E+00  0.00000000000E+00  0.16506481753E+04  0.16506481753E+04  0.50400000000E-02 0. -1.
         -1   -1    0    0    0  501 -0.00000000000E+00 -0.00000000000E+00 -0.53862501151E+03  0.53862501153E+03  0.50400000000E-02 0.  1.
    8880023    1    1    2    0    0  0.79913510948E+02  0.17447023867E+03 -0.30527682470E+03  0.75088626261E+03  0.65864270000E+03 0.  1.
    8880022    1    1    2    0    0 -0.79913510948E+02 -0.17447023867E+03  0.14172999885E+04  0.14383869242E+04  0.15294330000E+03 0.  0.
<mgrwt>
<rscale>  0 0.53054536E+03</rscale>
<asrwt>0</asrwt>
<pdfrwt beam="1">  1        1 0.25394587E+00 0.68602933E+03</pdfrwt>
<pdfrwt beam="2">  1       -1 0.82865388E-01 0.68602933E+03</pdfrwt>
<totfact> 0.78465452E+00</totfact>
</mgrwt>
</event>
<event>
 4    1  0.1043382E-007  0.8007770E+03  0.7818608E-02  0.9709119E-01
         -1   -1    0    0    0  501 -0.00000000000E+00  0.00000000000E+00  0.14494398144E+04  0.14494398145E+04  0.50400000000E-02 0.  1.
          1   -1    0    0  501    0  0.00000000000E+00 -0.00000000000E+00 -0.86391925601E+03  0.86391925602E+03  0.50400000000E-02 0. -1.
    8880023    1    1    2    0    0  0.10379116065E+02  0.45533047733E+03  0.12553707201E+04  0.14890263332E+04  0.65864270000E+03 0.  0.
    8880022    1    1    2    0    0 -0.10379116065E+02 -0.45533047733E+03 -0.66985016170E+03  0.82433273730E+03  0.15294330000E+03 0.  0.
<mgrwt>
<rscale>  0 0.70476462E+03</rscale>
<asrwt>0</asrwt>
<pdfrwt beam="1">  1        1 0.13291066E+00 0.80077698E+03</pdfrwt>
<pdfrwt beam="2">  1       -1 0.22299074E+00 0.80077698E+03</pdfrwt>
<totfact> 0.21205669E+00</totfact>
</mgrwt>
</event>
<event>
 4    1  0.1117067E-007  0.6612261E+03  0.7818608E-02  0.1022934E+00
          1   -1    0    0  501    0  0.00000000000E+00  0.00000000000E+00  0.15347343814E+04  0.15347343814E+04  0.50400000000E-02 0. -1.
         -1   -1    0    0    0  501 -0.00000000000E+00 -0.00000000000E+00 -0.67392466868E+03  0.67392466870E+03  0.50400000000E-02 0.  1.
    8880023    1    1    2    0    0  0.18194556562E+02  0.55486570525E+02 -0.50566254280E+03  0.83241492950E+03  0.65864270000E+03 0.  1.
    8880022    1    1    2    0    0 -0.18194556562E+02 -0.55486570525E+02  0.13664722556E+04  0.13762441207E+04  0.15294330000E+03 0.  0.
<mgrwt>
<rscale>  0 0.46642552E+03</rscale>
<asrwt>0</asrwt>
<pdfrwt beam="1">  1        1 0.23611298E+00 0.66122614E+03</pdfrwt>
<pdfrwt beam="2">  1       -1 0.10368072E+00 0.66122614E+03</pdfrwt>
<totfact> 0.57423026E+00</totfact>
</mgrwt>
</event>
<event>
 4    1  0.1043382E-007  0.6669051E+03  0.7818608E-02  0.1017986E+00
         -1   -1    0    0    0  501 -0.00000000000E+00  0.00000000000E+00  0.21829384970E+03  0.21829384976E+03  0.50400000000E-02 0.  1.
          1   -1    0    0  501    0  0.00000000000E+00 -0.00000000000E+00 -0.32332244311E+04  0.32332244311E+04  0.50400000000E-02 0. -1.
    8880023    1    1    2    0    0 -0.69485204937E+02  0.78256106275E+02 -0.30171275589E+03  0.73197882839E+03  0.65864270000E+03 0.  1.
    8880022    1    1    2    0    0  0.69485204937E+02 -0.78256106275E+02 -0.27132178255E+04  0.27195394525E+04  0.15294330000E+03 0.  0.
<mgrwt>
<rscale>  0 0.48420490E+03</rscale>
<asrwt>0</asrwt>
<pdfrwt beam="1">  1        1 0.49741911E+00 0.66690510E+03</pdfrwt>
<pdfrwt beam="2">  1       -1 0.33583671E-01 0.66690510E+03</pdfrwt>
<totfact> 0.36671657E+00</totfact>
</mgrwt>
</event>
<event>
 4    1  0.1043382E-007  0.9157735E+03  0.7818608E-02  0.9501170E-01
          1   -1    0    0  501    0  0.00000000000E+00  0.00000000000E+00  0.19662587104E+04  0.19662587104E+04  0.50400000000E-02 0. -1.
         -1   -1    0    0    0  501 -0.00000000000E+00 -0.00000000000E+00 -0.45220923100E+03  0.45220923103E+03  0.50400000000E-02 0.  1.
    8880023    1    1    2    0    0 -0.55520246561E+03 -0.31077492953E+03  0.15077242098E+04  0.17640502639E+04  0.65864270000E+03 0. -1.
    8880022    1    1    2    0    0  0.55520246561E+03  0.31077492953E+03  0.63252696576E+01  0.65441767755E+03  0.15294330000E+03 0.  0.
<mgrwt>
<rscale>  0 0.84197603E+03</rscale>
<asrwt>0</asrwt>
<pdfrwt beam="1">  1        1 0.30250133E+00 0.91577347E+03</pdfrwt>
<pdfrwt beam="2">  1       -1 0.69570652E-01 0.91577347E+03</pdfrwt>
<totfact> 0.67080242E+00</totfact>
</mgrwt>
</event>
<event>
 4    1  0.1043382E-007  0.9098274E+03  0.7818608E-02  0.9510436E-01
          1   -1    0    0  501    0  0.00000000000E+00  0.00000000000E+00  0.10112590251E+04  0.10112590251E+04  0.50400000000E-02 0. -1.
         -1   -1    0    0    0  501 -0.00000000000E+00 -0.00000000000E+00 -0.92377525041E+03  0.92377525043E+03  0.50400000000E-02 0.  1.
    8880023    1    1    2    0    0 -0.12245006207E+03  0.61561494676E+03  0.61734336284E+03  0.10994993471E+04  0.65864270000E+03 0. -1.
    8880022    1    1    2    0    0  0.12245006207E+03 -0.61561494676E+03 -0.52985958818E+03  0.83553492840E+03  0.15294330000E+03 0.  0.
<mgrwt>
<rscale>  0 0.83518771E+03</rscale>
<asrwt>0</asrwt>
<pdfrwt beam="1">  1        1 0.15557831E+00 0.90982745E+03</pdfrwt>
<pdfrwt beam="2">  1       -1 0.14211927E+00 0.90982745E+03</pdfrwt>
<totfact> 0.60531584E+00</totfact>
</mgrwt>
</event>
<event>
 4    1  0.1043382E-007  0.6731571E+03  0.7818608E-02  0.1013494E+00
          1   -1    0    0  501    0  0.00000000000E+00  0.00000000000E+00  0.92416027805E+03  0.92416027806E+03  0.50400000000E-02 0. -1.
         -1   -1    0    0    0  501 -0.00000000000E+00 -0.00000000000E+00 -0.60480356702E+03  0.60480356704E+03  0.50400000000E-02 0.  1.
    8880023    1    1    2    0    0 -0.12261297278E+03 -0.65546762714E+02 -0.39827910606E+03  0.78215520952E+03  0.65864270000E+03 0.  1.
    8880022    1    1    2    0    0  0.12261297278E+03  0.65546762714E+02  0.71763581709E+03  0.74680863558E+03  0.15294330000E+03 0.  0.
<mgrwt>
<rscale>  0 0.50109348E+03</rscale>
<asrwt>0</asrwt>
<pdfrwt beam="1">  1        1 0.14217851E+00 0.67315713E+03</pdfrwt>
<pdfrwt beam="2">  1       -1 0.93046702E-01 0.67315713E+03</pdfrwt>
<totfact> 0.20256650E+01</totfact>
</mgrwt>
</event>
<event>
 4    1  0.1043382E-007  0.6797337E+03  0.7818608E-02  0.1009475E+00
         -1   -1    0    0    0  501 -0.00000000000E+00  0.00000000000E+00  0.46020435233E+03  0.46020435235E+03  0.50400000000E-02 0.  1.
          1   -1    0    0  501    0  0.00000000000E+00 -0.00000000000E+00 -0.71201002803E+03  0.71201002805E+03  0.50400000000E-02 0. -1.
    8880023    1    1    2    0    0  0.94130790665E+02 -0.13916567477E+03  0.16323295988E+03  0.69905857855E+03  0.65864270000E+03 0.  1.
    8880022    1    1    2    0    0 -0.94130790665E+02  0.13916567477E+03 -0.41503863559E+03  0.47315580186E+03  0.15294330000E+03 0.  0.
<mgrwt>
<rscale>  0 0.51683945E+03</rscale>
<asrwt>0</asrwt>
<pdfrwt beam="1">  1        1 0.10954000E+00 0.67973370E+03</pdfrwt>
<pdfrwt beam="2">  1       -1 0.70800670E-01 0.67973370E+03</pdfrwt>
<totfact> 0.55028638E+01</totfact>
</mgrwt>
</event>
<event>
 4    1  0.1043382E-007  0.9795212E+03  0.7818608E-02  0.9408855E-01
         -1   -1    0    0    0  501 -0.00000000000E+00  0.00000000000E+00  0.31878747424E+03  0.31878747428E+03  0.50400000000E-02 0.  1.
          1   -1    0    0  501    0  0.00000000000E+00 -0.00000000000E+00 -0.27730426216E+04  0.27730426216E+04  0.50400000000E-02 0. -1.
    8880023    1    1    2    0    0  0.65376623513E+03 -0.31343458609E+03 -0.19884166174E+04  0.22165880043E+04  0.65864270000E+03 0. -1.
    8880022    1    1    2    0    0 -0.65376623513E+03  0.31343458609E+03 -0.46583852994E+03  0.87524209162E+03  0.15294330000E+03 0.  0.
<mgrwt>
<rscale>  0 0.91350554E+03</rscale>
<asrwt>0</asrwt>
<pdfrwt beam="1">  1        1 0.42662193E+00 0.97952118E+03</pdfrwt>
<pdfrwt beam="2">  1       -1 0.49044229E-01 0.97952118E+03</pdfrwt>
<totfact> 0.37223839E+00</totfact>
</mgrwt>
</event>
<event>
 4    1  0.1043382E-007  0.7283383E+03  0.7818608E-02  0.9895320E-01
         -1   -1    0    0    0  501 -0.00000000000E+00  0.00000000000E+00  0.11246251569E+04  0.11246251569E+04  0.50400000000E-02 0.  1.
          1   -1    0    0  501    0  0.00000000000E+00 -0.00000000000E+00 -0.25947622853E+03  0.25947622857E+03  0.50400000000E-02 0. -1.
    8880023    1    1    2    0    0  0.28451918616E+03  0.12536052211E+03  0.65028411952E+03  0.97639442346E+03  0.65864270000E+03 0.  1.
    8880022    1    1    2    0    0 -0.28451918616E+03 -0.12536052211E+03  0.21486480888E+03  0.40770696205E+03  0.15294330000E+03 0. -1.
<mgrwt>
<rscale>  0 0.60488633E+03</rscale>
<asrwt>0</asrwt>
<pdfrwt beam="1">  1        1 0.39919420E-01 0.72833827E+03</pdfrwt>
<pdfrwt beam="2">  1       -1 0.17301925E+00 0.72833827E+03</pdfrwt>
<totfact> 0.25423067E+01</totfact>
</mgrwt>
</event>
<event>
 4    1  0.1043382E-007  0.7160584E+03  0.7818608E-02  0.9936156E-01
          1   -1    0    0  501    0  0.00000000000E+00  0.00000000000E+00  0.62620626671E+03  0.62620626673E+03  0.50400000000E-02 0. -1.
         -1   -1    0    0    0  501 -0.00000000000E+00 -0.00000000000E+00 -0.91765554685E+03  0.91765554687E+03  0.50400000000E-02 0.  1.
    8880023    1    1    2    0    0 -0.83539876988E+02  0.26823580573E+03 -0.71578470182E+03  0.10124659521E+04  0.65864270000E+03 0.  1.
    8880022    1    1    2    0    0  0.83539876988E+02 -0.26823580573E+03  0.42433542167E+03  0.53139586151E+03  0.15294330000E+03 0.  0.
<mgrwt>
<rscale>  0 0.58540566E+03</rscale>
<asrwt>0</asrwt>
<pdfrwt beam="1">  1        1 0.96339425E-01 0.71605835E+03</pdfrwt>
<pdfrwt beam="2">  1       -1 0.14117778E+00 0.71605835E+03</pdfrwt>
<totfact> 0.13629834E+01</totfact>
</mgrwt>
</event>
<event>
 4    1  0.1043382E-007  0.1046002E+04  0.7818608E-02  0.9323702E-01
          1   -1    0    0  501    0  0.00000000000E+00  0.00000000000E+00  0.10279321570E+04  0.10279321570E+04  0.50400000000E-02 0. -1.
         -1   -1    0    0    0  501 -0.00000000000E+00 -0.00000000000E+00 -0.16516606217E+04  0.16516606218E+04  0.50400000000E-02 0.  1.
    8880023    1    1    2    0    0 -0.54759957195E+03 -0.60037119893E+03 -0.12590307435E+04  0.16368504779E+04  0.65864270000E+03 0.  0.
    8880022    1    1    2    0    0  0.54759957195E+03  0.60037119893E+03  0.63530227874E+03  0.10427423009E+04  0.15294330000E+03 0.  0.
<mgrwt>
<rscale>  0 0.98629746E+03</rscale>
<asrwt>0</asrwt>
<pdfrwt beam="1">  1        1 0.15814341E+00 0.10460024E+04</pdfrwt>
<pdfrwt beam="2">  1       -1 0.25410163E+00 0.10460024E+04</pdfrwt>
<totfact> 0.94533594E-01</totfact>
</mgrwt>
</event>
<event>
 4    1  0.1043382E-007  0.7444001E+03  0.7818608E-02  0.9847310E-01
          1   -1    0    0  501    0  0.00000000000E+00  0.00000000000E+00  0.20797349917E+04  0.20797349917E+04  0.50400000000E-02 0. -1.
         -1   -1    0    0    0  501 -0.00000000000E+00 -0.00000000000E+00 -0.43869141480E+03  0.43869141483E+03  0.50400000000E-02 0.  1.
    8880023    1    1    2    0    0  0.32782527258E+03  0.11336602588E+03 -0.86837205595E+02  0.74944791127E+03  0.65864270000E+03 0.  1.
    8880022    1    1    2    0    0 -0.32782527258E+03 -0.11336602588E+03  0.17278807825E+04  0.17689784953E+04  0.15294330000E+03 0.  0.
<mgrwt>
<rscale>  0 0.62884235E+03</rscale>
<asrwt>0</asrwt>
<pdfrwt beam="1">  1        1 0.31995923E+00 0.74440007E+03</pdfrwt>
<pdfrwt beam="2">  1       -1 0.67490987E-01 0.74440007E+03</pdfrwt>
<totfact> 0.61477504E+00</totfact>
</mgrwt>
</event>
<event>
 4    1  0.1043382E-007  0.8072081E+03  0.7818608E-02  0.9695422E-01
         -1   -1    0    0    0  501 -0.00000000000E+00  0.00000000000E+00  0.58575943215E+03  0.58575943217E+03  0.50400000000E-02 0.  1.
          1   -1    0    0  501    0  0.00000000000E+00 -0.00000000000E+00 -0.11226631332E+04  0.11226631332E+04  0.50400000000E-02 0. -1.
    8880023    1    1    2    0    0  0.58020581515E+02 -0.46304247029E+03  0.19180514473E+03  0.82968315457E+03  0.65864270000E+03 0.  1.
    8880022    1    1    2    0    0 -0.58020581515E+02  0.46304247029E+03 -0.72870884578E+03  0.87873941081E+03  0.15294330000E+03 0. -1.
<mgrwt>
<rscale>  0 0.71290019E+03</rscale>
<asrwt>0</asrwt>
<pdfrwt beam="1">  1        1 0.17271740E+00 0.80720810E+03</pdfrwt>
<pdfrwt beam="2">  1       -1 0.90116836E-01 0.80720810E+03</pdfrwt>
<totfact> 0.15041628E+01</totfact>
</mgrwt>
</event>
<event>
 4    1  0.1043382E-007  0.8245209E+03  0.7818608E-02  0.9660088E-01
         -1   -1    0    0    0  501 -0.00000000000E+00  0.00000000000E+00  0.12024459608E+04  0.12024459608E+04  0.50400000000E-02 0.  1.
          1   -1    0    0  501    0  0.00000000000E+00 -0.00000000000E+00 -0.11929154358E+04  0.11929154358E+04  0.50400000000E-02 0. -1.
    8880023    1    1    2    0    0 -0.20582594494E+03 -0.45128733226E+03  0.98854169527E+03  0.12872643339E+04  0.65864270000E+03 0.  1.
    8880022    1    1    2    0    0  0.20582594494E+03  0.45128733226E+03 -0.97901117029E+03  0.11080970627E+04  0.15294330000E+03 0.  0.
<mgrwt>
<rscale>  0 0.73443647E+03</rscale>
<asrwt>0</asrwt>
<pdfrwt beam="1">  1        1 0.18352545E+00 0.82452094E+03</pdfrwt>
<pdfrwt beam="2">  1       -1 0.18499169E+00 0.82452094E+03</pdfrwt>
<totfact> 0.21367990E+00</totfact>
</mgrwt>
</event>
<event>
 4    1  0.1043382E-007  0.7398521E+03  0.7818608E-02  0.9860378E-01
         -1   -1    0    0    0  501 -0.00000000000E+00  0.00000000000E+00  0.48982480039E+03  0.48982480042E+03  0.50400000000E-02 0.  1.
          1   -1    0    0  501    0  0.00000000000E+00 -0.00000000000E+00 -0.21515161934E+04  0.21515161934E+04  0.50400000000E-02 0. -1.
    8880023    1    1    2    0    0 -0.29867660808E+03  0.15608709617E+03  0.18114995237E+03  0.76170624870E+03  0.65864270000E+03 0.  1.
    8880022    1    1    2    0    0  0.29867660808E+03 -0.15608709617E+03 -0.18428413454E+04  0.18796347451E+04  0.15294330000E+03 0.  0.
<mgrwt>
<rscale>  0 0.62220558E+03</rscale>
<asrwt>0</asrwt>
<pdfrwt beam="1">  1        1 0.33100249E+00 0.73985208E+03</pdfrwt>
<pdfrwt beam="2">  1       -1 0.75357663E-01 0.73985208E+03</pdfrwt>
<totfact> 0.43908357E+00</totfact>
</mgrwt>
</event>
<event>
 4    1  0.1043382E-007  0.7050649E+03  0.7818608E-02  0.9976805E-01
          1   -1    0    0  501    0  0.00000000000E+00  0.00000000000E+00  0.63813616092E+03  0.63813616094E+03  0.50400000000E-02 0. -1.
         -1   -1    0    0    0  501 -0.00000000000E+00 -0.00000000000E+00 -0.11549322967E+04  0.11549322967E+04  0.50400000000E-02 0.  1.
    8880023    1    1    2    0    0  0.10652619219E+03 -0.22794405297E+03 -0.10021849488E+04  0.12253534995E+04  0.65864270000E+03 0.  1.
    8880022    1    1    2    0    0 -0.10652619219E+03  0.22794405297E+03  0.48538881301E+03  0.56771495815E+03  0.15294330000E+03 0.  0.
<mgrwt>
<rscale>  0 0.56679100E+03</rscale>
<asrwt>0</asrwt>
<pdfrwt beam="1">  1        1 0.98174794E-01 0.70506491E+03</pdfrwt>
<pdfrwt beam="2">  1       -1 0.17768189E+00 0.70506491E+03</pdfrwt>
<totfact> 0.70387167E+00</totfact>
</mgrwt>
</event>
<event>
 4    1  0.1043382E-007  0.9311262E+03  0.7818608E-02  0.9477806E-01
         -1   -1    0    0    0  501 -0.00000000000E+00  0.00000000000E+00  0.52384805127E+03  0.52384805130E+03  0.50400000000E-02 0.  1.
          1   -1    0    0  501    0  0.00000000000E+00 -0.00000000000E+00 -0.19221479539E+04  0.19221479540E+04  0.50400000000E-02 0. -1.
    8880023    1    1    2    0    0 -0.29310018147E+03 -0.58930297802E+03 -0.43618896823E+02  0.93214726878E+03  0.65864270000E+03 0.  0.
    8880022    1    1    2    0    0  0.29310018147E+03  0.58930297802E+03 -0.13546810058E+04  0.15138487365E+04  0.15294330000E+03 0.  0.
<mgrwt>
<rscale>  0 0.85940068E+03</rscale>
<asrwt>0</asrwt>
<pdfrwt beam="1">  1        1 0.29571507E+00 0.93112616E+03</pdfrwt>
<pdfrwt beam="2">  1       -1 0.80592009E-01 0.93112616E+03</pdfrwt>
<totfact> 0.52689853E+00</totfact>
</mgrwt>
</event>
<event>
 4    1  0.1043382E-007  0.7379896E+03  0.7818608E-02  0.9865842E-01
         -1   -1    0    0    0  501 -0.00000000000E+00  0.00000000000E+00  0.17355797853E+04  0.17355797853E+04  0.50400000000E-02 0.  1.
          1   -1    0    0  501    0  0.00000000000E+00 -0.00000000000E+00 -0.24862139762E+03  0.24862139767E+03  0.50400000000E-02 0. -1.
    8880023    1    1    2    0    0  0.31313173746E+03  0.11299099820E+03  0.14357226497E+04  0.16142887548E+04  0.65864270000E+03 0.  1.
    8880022    1    1    2    0    0 -0.31313173746E+03 -0.11299099820E+03  0.51235737982E+02  0.36991242821E+03  0.15294330000E+03 0.  0.
<mgrwt>
<rscale>  0 0.61945653E+03</rscale>
<asrwt>0</asrwt>
<pdfrwt beam="1">  1        1 0.38249446E-01 0.73798960E+03</pdfrwt>
<pdfrwt beam="2">  1       -1 0.26701227E+00 0.73798960E+03</pdfrwt>
<totfact> 0.63009341E+00</totfact>
</mgrwt>
</event>
<event>
 4    1  0.1043382E-007  0.7008074E+03  0.7818608E-02  0.9993868E-01
         -1   -1    0    0    0  501 -0.00000000000E+00  0.00000000000E+00  0.36265251947E+03  0.36265251951E+03  0.50400000000E-02 0.  1.
          1   -1    0    0  501    0  0.00000000000E+00 -0.00000000000E+00 -0.10297902928E+04  0.10297902928E+04  0.50400000000E-02 0. -1.
    8880023    1    1    2    0    0  0.32675939752E+02  0.23717725635E+03 -0.37653914448E+02  0.70181820403E+03  0.65864270000E+03 0.  0.
    8880022    1    1    2    0    0 -0.32675939752E+02 -0.23717725635E+03 -0.62948385888E+03  0.69062460829E+03  0.15294330000E+03 0.  0.
<mgrwt>
<rscale>  0 0.55919920E+03</rscale>
<asrwt>0</asrwt>
<pdfrwt beam="1">  1        1 0.15842927E+00 0.70080737E+03</pdfrwt>
<pdfrwt beam="2">  1       -1 0.55792696E-01 0.70080737E+03</pdfrwt>
<totfact> 0.47998139E+01</totfact>
</mgrwt>
</event>
<event>
 4    1  0.1043382E-007  0.7928743E+03  0.7818608E-02  0.9726420E-01
          1   -1    0    0  501    0  0.00000000000E+00  0.00000000000E+00  0.22027395815E+04  0.22027395815E+04  0.50400000000E-02 0. -1.
         -1   -1    0    0    0  501 -0.00000000000E+00 -0.00000000000E+00 -0.51553564658E+03  0.51553564661E+03  0.50400000000E-02 0.  1.
    8880023    1    1    2    0    0  0.30847559769E+03 -0.31572501825E+03 -0.16347104307E+03  0.80955078266E+03  0.65864270000E+03 0.  1.
    8880022    1    1    2    0    0 -0.30847559769E+03  0.31572501825E+03  0.18506749779E+04  0.19087244454E+04  0.15294330000E+03 0.  0.
<mgrwt>
<rscale>  0 0.69465290E+03</rscale>
<asrwt>0</asrwt>
<pdfrwt beam="1">  1        1 0.33888301E+00 0.79287432E+03</pdfrwt>
<pdfrwt beam="2">  1       -1 0.79313178E-01 0.79287432E+03</pdfrwt>
<totfact> 0.36087035E+00</totfact>
</mgrwt>
</event>
<event>
 4    1  0.1043382E-007  0.6600419E+03  0.7818608E-02  0.1024114E+00
          1   -1    0    0  501    0  0.00000000000E+00  0.00000000000E+00  0.23785818565E+04  0.23785818565E+04  0.50400000000E-02 0. -1.
         -1   -1    0    0    0  501 -0.00000000000E+00 -0.00000000000E+00 -0.12071219148E+03  0.12071219159E+03  0.50400000000E-02 0.  1.
    8880023    1    1    2    0    0  0.29218620411E+02 -0.31485384512E+02  0.81984542363E+03  0.10525216302E+04  0.65864270000E+03 0.  1.
    8880022    1    1    2    0    0 -0.29218620411E+02  0.31485384512E+02  0.14380242414E+04  0.14467724178E+04  0.15294330000E+03 0.  0.
<mgrwt>
<rscale>  0 0.46230938E+03</rscale>
<asrwt>0</asrwt>
<pdfrwt beam="1">  1        1 0.36593565E+00 0.66004186E+03</pdfrwt>
<pdfrwt beam="2">  1       -1 0.18571108E-01 0.66004186E+03</pdfrwt>
<totfact> 0.40099949E+01</totfact>
</mgrwt>
</event>
<event>
 4    1  0.1043382E-007  0.8893235E+03  0.7818608E-02  0.9543393E-01
          1   -1    0    0  501    0  0.00000000000E+00  0.00000000000E+00  0.27326027694E+04  0.27326027694E+04  0.50400000000E-02 0. -1.
         -1   -1    0    0    0  501 -0.00000000000E+00 -0.00000000000E+00 -0.21680072177E+03  0.21680072183E+03  0.50400000000E-02 0.  1.
    8880023    1    1    2    0    0  0.57731907057E+03 -0.15423623819E+03  0.11757827129E+04  0.14742324513E+04  0.65864270000E+03 0.  0.
    8880022    1    1    2    0    0 -0.57731907057E+03  0.15423623819E+03  0.13400193347E+04  0.14751710399E+04  0.15294330000E+03 0.  0.
<mgrwt>
<rscale>  0 0.81158871E+03</rscale>
<asrwt>0</asrwt>
<pdfrwt beam="1">  1        1 0.42040041E+00 0.88932353E+03</pdfrwt>
<pdfrwt beam="2">  1       -1 0.33353959E-01 0.88932353E+03</pdfrwt>
<totfact> 0.81552032E+00</totfact>
</mgrwt>
</event>
<event>
 4    1  0.1043382E-007  0.6762845E+03  0.7818608E-02  0.1011509E+00
         -1   -1    0    0    0  501 -0.00000000000E+00  0.00000000000E+00  0.15344523513E+03  0.15344523521E+03  0.50400000000E-02 0.  1.
          1   -1    0    0  501    0  0.00000000000E+00 -0.00000000000E+00 -0.24642688205E+04  0.24642688205E+04  0.50400000000E-02 0. -1.
    8880023    1    1    2    0    0 -0.93851939826E+02  0.12141815036E+03 -0.63413759211E+03  0.92708750711E+03  0.65864270000E+03 0.  1.
    8880022    1    1    2    0    0  0.93851939826E+02 -0.12141815036E+03 -0.16766859932E+04  0.16906265486E+04  0.15294330000E+03 0.  0.
<mgrwt>
<rscale>  0 0.50879464E+03</rscale>
<asrwt>0</asrwt>
<pdfrwt beam="1">  1        1 0.37911825E+00 0.67628453E+03</pdfrwt>
<pdfrwt beam="2">  1       -1 0.23606961E-01 0.67628453E+03</pdfrwt>
<totfact> 0.23439274E+01</totfact>
</mgrwt>
</event>
<event>
 4    1  0.1043382E-007  0.6937949E+03  0.7818608E-02  0.1002399E+00
         -1   -1    0    0    0  501 -0.00000000000E+00  0.00000000000E+00  0.27837644013E+03  0.27837644017E+03  0.50400000000E-02 0.  1.
          1   -1    0    0  501    0  0.00000000000E+00 -0.00000000000E+00 -0.14140865078E+04  0.14140865078E+04  0.50400000000E-02 0. -1.
    8880023    1    1    2    0    0 -0.14425869290E+02  0.21756158769E+03 -0.20360345795E+03  0.72305305787E+03  0.65864270000E+03 0.  1.
    8880022    1    1    2    0    0  0.14425869290E+02 -0.21756158769E+03 -0.93210660975E+03  0.96940989014E+03  0.15294330000E+03 0.  0.
<mgrwt>
<rscale>  0 0.54610885E+03</rscale>
<asrwt>0</asrwt>
<pdfrwt beam="1">  1        1 0.21755177E+00 0.69379490E+03</pdfrwt>
<pdfrwt beam="2">  1       -1 0.42827145E-01 0.69379490E+03</pdfrwt>
<totfact> 0.41757914E+01</totfact>
</mgrwt>
</event>
<event>
 4    1  0.1043382E-007  0.7692835E+03  0.7818608E-02  0.9781640E-01
          1   -1    0    0  501    0  0.00000000000E+00  0.00000000000E+00  0.22833846405E+04  0.22833846405E+04  0.50400000000E-02 0. -1.
         -1   -1    0    0    0  501 -0.00000000000E+00 -0.00000000000E+00 -0.31211188759E+03  0.31211188763E+03  0.50400000000E-02 0.  1.
    8880023    1    1    2    0    0 -0.39096728689E+03  0.71634457416E+02  0.23004716359E+03  0.80294384526E+03  0.65864270000E+03 0.  1.
    8880022    1    1    2    0    0  0.39096728689E+03 -0.71634457416E+02  0.17412255894E+04  0.17925526829E+04  0.15294330000E+03 0.  0.
<mgrwt>
<rscale>  0 0.66357202E+03</rscale>
<asrwt>0</asrwt>
<pdfrwt beam="1">  1        1 0.35128995E+00 0.76928351E+03</pdfrwt>
<pdfrwt beam="2">  1       -1 0.48017213E-01 0.76928351E+03</pdfrwt>
<totfact> 0.86787643E+00</totfact>
</mgrwt>
</event>
<event>
 4    1  0.1043382E-007  0.8630911E+03  0.7818608E-02  0.9588088E-01
          1   -1    0    0  501    0  0.00000000000E+00  0.00000000000E+00  0.16338502027E+04  0.16338502027E+04  0.50400000000E-02 0. -1.
         -1   -1    0    0    0  501 -0.00000000000E+00 -0.00000000000E+00 -0.59615564416E+03  0.59615564418E+03  0.50400000000E-02 0.  1.
    8880023    1    1    2    0    0 -0.33107021825E+03  0.44889712954E+03 -0.18024968344E+03  0.88171212817E+03  0.65864270000E+03 0.  1.
    8880022    1    1    2    0    0  0.33107021825E+03 -0.44889712954E+03  0.12179442420E+04  0.13482937187E+04  0.15294330000E+03 0.  0.
<mgrwt>
<rscale>  0 0.78089614E+03</rscale>
<asrwt>0</asrwt>
<pdfrwt beam="1">  1        1 0.25136157E+00 0.86309115E+03</pdfrwt>
<pdfrwt beam="2">  1       -1 0.91716254E-01 0.86309115E+03</pdfrwt>
<totfact> 0.62802333E+00</totfact>
</mgrwt>
</event>
<event>
 4    1  0.1043382E-007  0.7179303E+03  0.7818608E-02  0.9929652E-01
          1   -1    0    0  501    0  0.00000000000E+00  0.00000000000E+00  0.13394466065E+04  0.13394466065E+04  0.50400000000E-02 0. -1.
         -1   -1    0    0    0  501 -0.00000000000E+00 -0.00000000000E+00 -0.57535514442E+03  0.57535514444E+03  0.50400000000E-02 0.  1.
    8880023    1    1    2    0    0 -0.74024059916E+02  0.27592420295E+03 -0.31801948868E+03  0.78521355609E+03  0.65864270000E+03 0.  1.
    8880022    1    1    2    0    0  0.74024059916E+02 -0.27592420295E+03  0.10821109507E+04  0.11295881948E+04  0.15294330000E+03 0.  0.
<mgrwt>
<rscale>  0 0.58845487E+03</rscale>
<asrwt>0</asrwt>
<pdfrwt beam="1">  1        1 0.20606870E+00 0.71793031E+03</pdfrwt>
<pdfrwt beam="2">  1       -1 0.88516178E-01 0.71793031E+03</pdfrwt>
<totfact> 0.11056014E+01</totfact>
</mgrwt>
</event>
<event>
 4    1  0.1043382E-007  0.7434334E+03  0.7818608E-02  0.9850056E-01
          1   -1    0    0  501    0  0.00000000000E+00  0.00000000000E+00  0.95375504609E+03  0.95375504610E+03  0.50400000000E-02 0. -1.
         -1   -1    0    0    0  501 -0.00000000000E+00 -0.00000000000E+00 -0.36470581201E+03  0.36470581205E+03  0.50400000000E-02 0.  1.
    8880023    1    1    2    0    0 -0.34242143116E+03  0.40381004151E+02  0.57700032299E+03  0.94107525789E+03  0.65864270000E+03 0.  0.
    8880022    1    1    2    0    0  0.34242143116E+03 -0.40381004151E+02  0.12048911080E+02  0.37738560026E+03  0.15294330000E+03 0. -1.
<mgrwt>
<rscale>  0 0.62744048E+03</rscale>
<asrwt>0</asrwt>
<pdfrwt beam="1">  1        1 0.14673154E+00 0.74343343E+03</pdfrwt>
<pdfrwt beam="2">  1       -1 0.56108587E-01 0.74343343E+03</pdfrwt>
<totfact> 0.54165077E+01</totfact>
</mgrwt>
</event>
<event>
 4    1  0.1043382E-007  0.7827823E+03  0.7818608E-02  0.9749341E-01
         -1   -1    0    0    0  501 -0.00000000000E+00  0.00000000000E+00  0.23748261124E+04  0.23748261124E+04  0.50400000000E-02 0.  1.
          1   -1    0    0  501    0  0.00000000000E+00 -0.00000000000E+00 -0.28634746077E+03  0.28634746081E+03  0.50400000000E-02 0. -1.
    8880023    1    1    2    0    0  0.41930125262E+03  0.55895943064E+02  0.20676678747E+04  0.22108818474E+04  0.65864270000E+03 0.  1.
    8880022    1    1    2    0    0 -0.41930125262E+03 -0.55895943064E+02  0.20810776961E+02  0.45029172583E+03  0.15294330000E+03 0.  0.
<mgrwt>
<rscale>  0 0.68153499E+03</rscale>
<asrwt>0</asrwt>
<pdfrwt beam="1">  1        1 0.44053458E-01 0.78278228E+03</pdfrwt>
<pdfrwt beam="2">  1       -1 0.36535785E+00 0.78278228E+03</pdfrwt>
<totfact> 0.12080992E+00</totfact>
</mgrwt>
</event>
<event>
 4    1  0.1043382E-007  0.7908800E+03  0.7818608E-02  0.9730874E-01
         -1   -1    0    0    0  501 -0.00000000000E+00  0.00000000000E+00  0.96193956211E+03  0.96193956212E+03  0.50400000000E-02 0.  1.
          1   -1    0    0  501    0  0.00000000000E+00 -0.00000000000E+00 -0.85914428520E+03  0.85914428522E+03  0.50400000000E-02 0. -1.
    8880023    1    1    2    0    0 -0.33032330276E+03 -0.28734563175E+03  0.70603835440E+03  0.10601798718E+04  0.65864270000E+03 0.  1.
    8880022    1    1    2    0    0  0.33032330276E+03  0.28734563175E+03 -0.60324307749E+03  0.76090397554E+03  0.15294330000E+03 0.  0.
<mgrwt>
<rscale>  0 0.69207968E+03</rscale>
<asrwt>0</asrwt>
<pdfrwt beam="1">  1        1 0.13217604E+00 0.79088002E+03</pdfrwt>
<pdfrwt beam="2">  1       -1 0.14799070E+00 0.79088002E+03</pdfrwt>
<totfact> 0.73144535E+00</totfact>
</mgrwt>
</event>
<event>
 4    1  0.1043382E-007  0.7462950E+03  0.7818608E-02  0.9841976E-01
          1   -1    0    0  501    0  0.00000000000E+00  0.00000000000E+00  0.16178385603E+04  0.16178385603E+04  0.50400000000E-02 0. -1.
         -1   -1    0    0    0  501 -0.00000000000E+00 -0.00000000000E+00 -0.25072759965E+03  0.25072759970E+03  0.50400000000E-02 0.  1.
    8880023    1    1    2    0    0  0.34928008118E+03  0.33903212377E+02  0.44195428981E+03  0.86734065019E+03  0.65864270000E+03 0.  1.
    8880022    1    1    2    0    0 -0.34928008118E+03 -0.33903212377E+02  0.92515667082E+03  0.10012255098E+04  0.15294330000E+03 0. -1.
<mgrwt>
<rscale>  0 0.63157735E+03</rscale>
<asrwt>0</asrwt>
<pdfrwt beam="1">  1        1 0.24889824E+00 0.74629499E+03</pdfrwt>
<pdfrwt beam="2">  1       -1 0.38573477E-01 0.74629499E+03</pdfrwt>
<totfact> 0.36442966E+01</totfact>
</mgrwt>
</event>
<event>
 4    1  0.1043382E-007  0.1063216E+04  0.7818608E-02  0.9303160E-01
         -1   -1    0    0    0  501 -0.00000000000E+00  0.00000000000E+00  0.10323169166E+04  0.10323169166E+04  0.50400000000E-02 0.  1.
          1   -1    0    0  501    0  0.00000000000E+00 -0.00000000000E+00 -0.24656585909E+04  0.24656585909E+04  0.50400000000E-02 0. -1.
    8880023    1    1    2    0    0 -0.72929514170E+03 -0.40588962674E+03  0.65158416048E+03  0.12469923485E+04  0.65864270000E+03 0.  1.
    8880022    1    1    2    0    0  0.72929514170E+03  0.40588962674E+03 -0.20849258347E+04  0.22509831590E+04  0.15294330000E+03 0.  0.
<mgrwt>
<rscale>  0 0.10049243E+04</rscale>
<asrwt>0</asrwt>
<pdfrwt beam="1">  1        1 0.37933209E+00 0.10632159E+04</pdfrwt>
<pdfrwt beam="2">  1       -1 0.15881799E+00 0.10632159E+04</pdfrwt>
<totfact> 0.43000955E-01</totfact>
</mgrwt>
</event>
<event>
 4    1  0.1043382E-007  0.7630974E+03  0.7818608E-02  0.9797154E-01
          1   -1    0    0  501    0  0.00000000000E+00  0.00000000000E+00  0.12180259425E+04  0.12180259425E+04  0.50400000000E-02 0. -1.
         -1   -1    0    0    0  501 -0.00000000000E+00 -0.00000000000E+00 -0.71469611428E+03  0.71469611430E+03  0.50400000000E-02 0.  1.
    8880023    1    1    2    0    0 -0.35908548809E+03  0.13987514223E+03 -0.45507027179E+03  0.88848556640E+03  0.65864270000E+03 0.  0.
    8880022    1    1    2    0    0  0.35908548809E+03 -0.13987514223E+03  0.95840010000E+03  0.10442364904E+04  0.15294330000E+03 0.  0.
<mgrwt>
<rscale>  0 0.65515518E+03</rscale>
<asrwt>0</asrwt>
<pdfrwt beam="1">  1        1 0.18738861E+00 0.76309740E+03</pdfrwt>
<pdfrwt beam="2">  1       -1 0.10995325E+00 0.76309740E+03</pdfrwt>
<totfact> 0.81876589E+00</totfact>
</mgrwt>
</event>
<event>
 4    1  0.1043382E-007  0.7171976E+03  0.7818608E-02  0.9932185E-01
         -1   -1    0    0    0  501 -0.00000000000E+00  0.00000000000E+00  0.50662989514E+03  0.50662989517E+03  0.50400000000E-02 0.  1.
          1   -1    0    0  501    0  0.00000000000E+00 -0.00000000000E+00 -0.75134368930E+03  0.75134368932E+03  0.50400000000E-02 0. -1.
    8880023    1    1    2    0    0  0.26733797531E+03 -0.95354956177E+02  0.16567055912E+03  0.73608362373E+03  0.65864270000E+03 0.  0.
    8880022    1    1    2    0    0 -0.26733797531E+03  0.95354956177E+02 -0.41038435327E+03  0.52188996075E+03  0.15294330000E+03 0.  0.
<mgrwt>
<rscale>  0 0.58726506E+03</rscale>
<asrwt>0</asrwt>
<pdfrwt beam="1">  1        1 0.11559134E+00 0.71719758E+03</pdfrwt>
<pdfrwt beam="2">  1       -1 0.77943061E-01 0.71719758E+03</pdfrwt>
<totfact> 0.41351174E+01</totfact>
</mgrwt>
</event>
<event>
 4    1  0.1043382E-007  0.8007105E+03  0.7818608E-02  0.9709262E-01
          1   -1    0    0  501    0  0.00000000000E+00  0.00000000000E+00  0.16644878371E+04  0.16644878371E+04  0.50400000000E-02 0. -1.
         -1   -1    0    0    0  501 -0.00000000000E+00 -0.00000000000E+00 -0.27298695360E+03  0.27298695364E+03  0.50400000000E-02 0.  1.
    8880023    1    1    2    0    0  0.31653463905E+03 -0.32731170461E+03  0.55965425641E+03  0.97690850271E+03  0.65864270000E+03 0.  0.
    8880022    1    1    2    0    0 -0.31653463905E+03  0.32731170461E+03  0.83184662711E+03  0.96056628805E+03  0.15294330000E+03 0.  0.
<mgrwt>
<rscale>  0 0.70468012E+03</rscale>
<asrwt>0</asrwt>
<pdfrwt beam="1">  1        1 0.25607504E+00 0.80071052E+03</pdfrwt>
<pdfrwt beam="2">  1       -1 0.41997994E-01 0.80071052E+03</pdfrwt>
<totfact> 0.28837638E+01</totfact>
</mgrwt>
</event>
<event>
 4    1  0.1043382E-007  0.1038302E+04  0.7818608E-02  0.9333077E-01
          1   -1    0    0  501    0  0.00000000000E+00  0.00000000000E+00  0.10979662655E+04  0.10979662655E+04  0.50400000000E-02 0. -1.
         -1   -1    0    0    0  501 -0.00000000000E+00 -0.00000000000E+00 -0.96284296231E+03  0.96284296232E+03  0.50400000000E-02 0.  1.
    8880023    1    1    2    0    0  0.45217210936E+03 -0.66317579263E+03 -0.36758641059E+03  0.11014498281E+04  0.65864270000E+03 0.  0.
    8880022    1    1    2    0    0 -0.45217210936E+03  0.66317579263E+03  0.50270971377E+03  0.95935939967E+03  0.15294330000E+03 0.  0.
<mgrwt>
<rscale>  0 0.97793905E+03</rscale>
<asrwt>0</asrwt>
<pdfrwt beam="1">  1        1 0.16891789E+00 0.10383024E+04</pdfrwt>
<pdfrwt beam="2">  1       -1 0.14812969E+00 0.10383024E+04</pdfrwt>
<totfact> 0.45848109E+00</totfact>
</mgrwt>
</event>
<event>
 4    1  0.1043382E-007  0.8143233E+03  0.7818608E-02  0.9680641E-01
         -1   -1    0    0    0  501 -0.00000000000E+00  0.00000000000E+00  0.51964925637E+03  0.51964925640E+03  0.50400000000E-02 0.  1.
          1   -1    0    0  501    0  0.00000000000E+00 -0.00000000000E+00 -0.18636099816E+04  0.18636099817E+04  0.50400000000E-02 0. -1.
    8880023    1    1    2    0    0  0.64483904689E+02  0.47450396454E+03  0.13117536766E+03  0.82482081064E+03  0.65864270000E+03 0.  1.
    8880022    1    1    2    0    0 -0.64483904689E+02 -0.47450396454E+03 -0.14751360929E+04  0.15584384274E+04  0.15294330000E+03 0.  0.
<mgrwt>
<rscale>  0 0.72181203E+03</rscale>
<asrwt>0</asrwt>
<pdfrwt beam="1">  1        1 0.28670922E+00 0.81432327E+03</pdfrwt>
<pdfrwt beam="2">  1       -1 0.79946040E-01 0.81432327E+03</pdfrwt>
<totfact> 0.59677617E+00</totfact>
</mgrwt>
</event>
<event>
 4    1  0.1043382E-007  0.1394571E+04  0.7818608E-02  0.8987912E-01
          1   -1    0    0  501    0  0.00000000000E+00  0.00000000000E+00  0.23065641548E+04  0.23065641548E+04  0.50400000000E-02 0. -1.
         -1   -1    0    0    0  501 -0.00000000000E+00 -0.00000000000E+00 -0.10213349740E+04  0.10213349740E+04  0.50400000000E-02 0.  1.
    8880023    1    1    2    0    0  0.98886766139E+03  0.73017813511E+03  0.15246612465E+04  0.20662578454E+04  0.65864270000E+03 0.  0.
    8880022    1    1    2    0    0 -0.98886766139E+03 -0.73017813511E+03 -0.23943206574E+03  0.12616412834E+04  0.15294330000E+03 0.  0.
<mgrwt>
<rscale>  0 0.13538586E+04</rscale>
<asrwt>0</asrwt>
<pdfrwt beam="1">  1        1 0.35485602E+00 0.13945715E+04</pdfrwt>
<pdfrwt beam="2">  1       -1 0.15712846E+00 0.13945715E+04</pdfrwt>
<totfact> 0.54371619E-01</totfact>
</mgrwt>
</event>
<event>
 4    1  0.1043382E-007  0.1043141E+04  0.7818608E-02  0.9327173E-01
          1   -1    0    0  501    0  0.00000000000E+00  0.00000000000E+00  0.18079553767E+04  0.18079553768E+04  0.50400000000E-02 0. -1.
         -1   -1    0    0    0  501 -0.00000000000E+00 -0.00000000000E+00 -0.12065327116E+04  0.12065327116E+04  0.50400000000E-02 0.  1.
    8880023    1    1    2    0    0 -0.72095108886E+03 -0.36682650766E+03 -0.85016604979E+03  0.13457060146E+04  0.65864270000E+03 0.  0.
    8880022    1    1    2    0    0  0.72095108886E+03  0.36682650766E+03  0.14515887150E+04  0.16687820737E+04  0.15294330000E+03 0.  0.
<mgrwt>
<rscale>  0 0.98319291E+03</rscale>
<asrwt>0</asrwt>
<pdfrwt beam="1">  1        1 0.27814698E+00 0.10431406E+04</pdfrwt>
<pdfrwt beam="2">  1       -1 0.18562042E+00 0.10431406E+04</pdfrwt>
<totfact> 0.76556557E-01</totfact>
</mgrwt>
</event>
<event>
 4    1  0.1043382E-007  0.6704284E+03  0.7818608E-02  0.1015358E+00
         -1   -1    0    0    0  501 -0.00000000000E+00  0.00000000000E+00  0.13041668492E+04  0.13041668492E+04  0.50400000000E-02 0.  1.
          1   -1    0    0  501    0  0.00000000000E+00 -0.00000000000E+00 -0.18653294849E+03  0.18653294856E+03  0.50400000000E-02 0. -1.
    8880023    1    1    2    0    0  0.52565348455E+02  0.11358236917E+03  0.11052440129E+04  0.12926865841E+04  0.65864270000E+03 0.  1.
    8880022    1    1    2    0    0 -0.52565348455E+02 -0.11358236917E+03  0.12389887818E+02  0.19801321365E+03  0.15294330000E+03 0.  0.
<mgrwt>
<rscale>  0 0.49399767E+03</rscale>
<asrwt>0</asrwt>
<pdfrwt beam="1">  1        1 0.28697377E-01 0.67042843E+03</pdfrwt>
<pdfrwt beam="2">  1       -1 0.20064105E+00 0.67042843E+03</pdfrwt>
<totfact> 0.25085675E+01</totfact>
</mgrwt>
</event>
<event>
 4    1  0.1043382E-007  0.6888072E+03  0.7818608E-02  0.1004725E+00
          1   -1    0    0  501    0  0.00000000000E+00  0.00000000000E+00  0.13100671354E+04  0.13100671354E+04  0.50400000000E-02 0. -1.
         -1   -1    0    0    0  501 -0.00000000000E+00 -0.00000000000E+00 -0.51749040923E+03  0.51749040926E+03  0.50400000000E-02 0.  1.
    8880023    1    1    2    0    0 -0.11818721143E+03 -0.16333072615E+03 -0.26657762078E+03  0.73859256510E+03  0.65864270000E+03 0.  1.
    8880022    1    1    2    0    0  0.11818721143E+03  0.16333072615E+03  0.10591543469E+04  0.10889649796E+04  0.15294330000E+03 0.  0.
<mgrwt>
<rscale>  0 0.53626191E+03</rscale>
<asrwt>0</asrwt>
<pdfrwt beam="1">  1        1 0.20154878E+00 0.68880719E+03</pdfrwt>
<pdfrwt beam="2">  1       -1 0.79613911E-01 0.68880719E+03</pdfrwt>
<totfact> 0.14626692E+01</totfact>
</mgrwt>
</event>
<event>
 4    1  0.1043382E-007  0.8066172E+03  0.7818608E-02  0.9696667E-01
         -1   -1    0    0    0  501 -0.00000000000E+00  0.00000000000E+00  0.28685240710E+03  0.28685240714E+03  0.50400000000E-02 0.  1.
          1   -1    0    0  501    0  0.00000000000E+00 -0.00000000000E+00 -0.22159226680E+04  0.22159226680E+04  0.50400000000E-02 0. -1.
    8880023    1    1    2    0    0 -0.42314049989E+03 -0.19435352520E+03 -0.40648486767E+03  0.90325042447E+03  0.65864270000E+03 0.  0.
    8880022    1    1    2    0    0  0.42314049989E+03  0.19435352520E+03 -0.15225853932E+04  0.15995246507E+04  0.15294330000E+03 0.  0.
<mgrwt>
<rscale>  0 0.71215602E+03</rscale>
<asrwt>0</asrwt>
<pdfrwt beam="1">  1        1 0.34091117E+00 0.80661725E+03</pdfrwt>
<pdfrwt beam="2">  1       -1 0.44131141E-01 0.80661725E+03</pdfrwt>
<totfact> 0.11215932E+01</totfact>
</mgrwt>
</event>
<event>
 4    1  0.1043382E-007  0.8748061E+03  0.7818608E-02  0.9567750E-01
          1   -1    0    0  501    0  0.00000000000E+00  0.00000000000E+00  0.67784256266E+03  0.67784256268E+03  0.50400000000E-02 0. -1.
         -1   -1    0    0    0  501 -0.00000000000E+00 -0.00000000000E+00 -0.82960735297E+03  0.82960735298E+03  0.50400000000E-02 0.  1.
    8880023    1    1    2    0    0 -0.46057783553E+03  0.34546130211E+03  0.55884151884E+02  0.87658924162E+03  0.65864270000E+03 0.  0.
    8880022    1    1    2    0    0  0.46057783553E+03 -0.34546130211E+03 -0.20764894219E+03  0.63086067404E+03  0.15294330000E+03 0.  0.
<mgrwt>
<rscale>  0 0.79467959E+03</rscale>
<asrwt>0</asrwt>
<pdfrwt beam="1">  1        1 0.10428347E+00 0.87480607E+03</pdfrwt>
<pdfrwt beam="2">  1       -1 0.12763190E+00 0.87480607E+03</pdfrwt>
<totfact> 0.15410010E+01</totfact>
</mgrwt>
</event>
<event>
 4    1  0.1043382E-007  0.7053809E+03  0.7818608E-02  0.9975571E-01
          1   -1    0    0  501    0  0.00000000000E+00  0.00000000000E+00  0.19366916530E+04  0.19366916530E+04  0.50400000000E-02 0. -1.
         -1   -1    0    0    0  501 -0.00000000000E+00 -0.00000000000E+00 -0.12929840034E+03  0.12929840044E+03  0.50400000000E-02 0.  1.
    8880023    1    1    2    0    0  0.24084970711E+02 -0.25134015223E+03  0.12946196801E+04  0.14743141728E+04  0.65864270000E+03 0.  0.
    8880022    1    1    2    0    0 -0.24084970711E+02  0.25134015223E+03  0.51277357256E+03  0.59167588059E+03  0.15294330000E+03 0.  1.
<mgrwt>
<rscale>  0 0.56734496E+03</rscale>
<asrwt>0</asrwt>
<pdfrwt beam="1">  1        1 0.29795252E+00 0.70538086E+03</pdfrwt>
<pdfrwt beam="2">  1       -1 0.19892065E-01 0.70538086E+03</pdfrwt>
<totfact> 0.70307106E+01</totfact>
</mgrwt>
</event>
<event>
 4    1  0.1043382E-007  0.7879182E+03  0.7818608E-02  0.9737555E-01
          1   -1    0    0  501    0  0.00000000000E+00  0.00000000000E+00  0.29281249533E+04  0.29281249533E+04  0.50400000000E-02 0. -1.
         -1   -1    0    0    0  501 -0.00000000000E+00 -0.00000000000E+00 -0.49153169344E+03  0.49153169346E+03  0.50400000000E-02 0.  1.
    8880023    1    1    2    0    0  0.37012203451E+03 -0.22363933220E+03 -0.14197646509E+03  0.80060751573E+03  0.65864270000E+03 0.  0.
    8880022    1    1    2    0    0 -0.37012203451E+03  0.22363933220E+03  0.25785697249E+04  0.26190491310E+04  0.15294330000E+03 0.  0.
<mgrwt>
<rscale>  0 0.68824120E+03</rscale>
<asrwt>0</asrwt>
<pdfrwt beam="1">  1        1 0.45048077E+00 0.78791819E+03</pdfrwt>
<pdfrwt beam="2">  1       -1 0.75620259E-01 0.78791819E+03</pdfrwt>
<totfact> 0.12642890E+00</totfact>
</mgrwt>
</event>
<event>
 4    1  0.1043382E-007  0.9330944E+03  0.7818608E-02  0.9474866E-01
         -1   -1    0    0    0  501 -0.00000000000E+00  0.00000000000E+00  0.39018270112E+03  0.39018270115E+03  0.50400000000E-02 0.  1.
          1   -1    0    0  501    0  0.00000000000E+00 -0.00000000000E+00 -0.27008385171E+04  0.27008385171E+04  0.50400000000E-02 0. -1.
    8880023    1    1    2    0    0  0.64700326548E+03  0.13506217266E+03 -0.31759705619E+03  0.98566379278E+03  0.65864270000E+03 0.  0.
    8880022    1    1    2    0    0 -0.64700326548E+03 -0.13506217266E+03 -0.19930587598E+04  0.21053574255E+04  0.15294330000E+03 0.  0.
<mgrwt>
<rscale>  0 0.86162448E+03</rscale>
<asrwt>0</asrwt>
<pdfrwt beam="1">  1        1 0.41551361E+00 0.93309443E+03</pdfrwt>
<pdfrwt beam="2">  1       -1 0.60028110E-01 0.93309443E+03</pdfrwt>
<totfact> 0.28476399E+00</totfact>
</mgrwt>
</event>
<event>
 4    1  0.1043382E-007  0.6649897E+03  0.7818608E-02  0.1019542E+00
          1   -1    0    0  501    0  0.00000000000E+00  0.00000000000E+00  0.20710971744E+04  0.20710971744E+04  0.50400000000E-02 0. -1.
         -1   -1    0    0    0  501 -0.00000000000E+00 -0.00000000000E+00 -0.11769282611E+03  0.11769282622E+03  0.50400000000E-02 0.  1.
    8880023    1    1    2    0    0  0.86135061008E+02  0.31333719245E+02  0.89246260204E+03  0.11129693405E+04  0.65864270000E+03 0.  1.
    8880022    1    1    2    0    0 -0.86135061008E+02 -0.31333719245E+02  0.10609417463E+04  0.10758206601E+04  0.15294330000E+03 0.  0.
<mgrwt>
<rscale>  0 0.47852222E+03</rscale>
<asrwt>0</asrwt>
<pdfrwt beam="1">  1        1 0.31863033E+00 0.66498967E+03</pdfrwt>
<pdfrwt beam="2">  1       -1 0.18106589E-01 0.66498967E+03</pdfrwt>
<totfact> 0.67159791E+01</totfact>
</mgrwt>
</event>
<event>
 4    1  0.1043382E-007  0.7281480E+03  0.7818608E-02  0.9895922E-01
          1   -1    0    0  501    0  0.00000000000E+00  0.00000000000E+00  0.17042944648E+04  0.17042944648E+04  0.50400000000E-02 0. -1.
         -1   -1    0    0    0  501 -0.00000000000E+00 -0.00000000000E+00 -0.56190164983E+03  0.56190164986E+03  0.50400000000E-02 0.  1.
    8880023    1    1    2    0    0  0.28998419966E+03  0.11089849261E+03 -0.29654819527E+03  0.78621902171E+03  0.65864270000E+03 0.  1.
    8880022    1    1    2    0    0 -0.28998419966E+03 -0.11089849261E+03  0.14389410102E+04  0.14799770930E+04  0.15294330000E+03 0.  0.
<mgrwt>
<rscale>  0 0.60459315E+03</rscale>
<asrwt>0</asrwt>
<pdfrwt beam="1">  1        1 0.26219915E+00 0.72814801E+03</pdfrwt>
<pdfrwt beam="2">  1       -1 0.86446407E-01 0.72814801E+03</pdfrwt>
<totfact> 0.65435233E+00</totfact>
</mgrwt>
</event>
<event>
 4    1  0.1043382E-007  0.7295812E+03  0.7818608E-02  0.9891407E-01
         -1   -1    0    0    0  501 -0.00000000000E+00  0.00000000000E+00  0.47316129614E+03  0.47316129617E+03  0.50400000000E-02 0.  1.
          1   -1    0    0  501    0  0.00000000000E+00 -0.00000000000E+00 -0.61802221629E+03  0.61802221631E+03  0.50400000000E-02 0. -1.
    8880023    1    1    2    0    0 -0.27320077154E+03 -0.15440144862E+03 -0.13486422909E+03  0.74194139624E+03  0.65864270000E+03 0.  0.
    8880022    1    1    2    0    0  0.27320077154E+03  0.15440144862E+03 -0.99966910617E+01  0.34924211624E+03  0.15294330000E+03 0.  0.
<mgrwt>
<rscale>  0 0.60679552E+03</rscale>
<asrwt>0</asrwt>
<pdfrwt beam="1">  1        1 0.95080341E-01 0.72958116E+03</pdfrwt>
<pdfrwt beam="2">  1       -1 0.72794045E-01 0.72958116E+03</pdfrwt>
<totfact> 0.63819963E+01</totfact>
</mgrwt>
</event>
<event>
 4    1  0.1043382E-007  0.7750925E+03  0.7818608E-02  0.9767494E-01
          1   -1    0    0  501    0  0.00000000000E+00  0.00000000000E+00  0.12106993024E+04  0.12106993024E+04  0.50400000000E-02 0. -1.
         -1   -1    0    0    0  501 -0.00000000000E+00 -0.00000000000E+00 -0.67316922194E+03  0.67316922195E+03  0.50400000000E-02 0.  1.
    8880023    1    1    2    0    0  0.27230455768E+03 -0.30464482412E+03 -0.38346341325E+03  0.86476160678E+03  0.65864270000E+03 0.  1.
    8880022    1    1    2    0    0 -0.27230455768E+03  0.30464482412E+03  0.92099349372E+03  0.10191069176E+04  0.15294330000E+03 0.  0.
<mgrwt>
<rscale>  0 0.67136585E+03</rscale>
<asrwt>0</asrwt>
<pdfrwt beam="1">  1        1 0.18626143E+00 0.77509254E+03</pdfrwt>
<pdfrwt beam="2">  1       -1 0.10356450E+00 0.77509254E+03</pdfrwt>
<totfact> 0.95149358E+00</totfact>
</mgrwt>
</event>
<event>
 4    1  0.1043382E-007  0.6921311E+03  0.7818608E-02  0.1003156E+00
         -1   -1    0    0    0  501 -0.00000000000E+00  0.00000000000E+00  0.22686370404E+04  0.22686370404E+04  0.50400000000E-02 0.  1.
          1   -1    0    0  501    0  0.00000000000E+00 -0.00000000000E+00 -0.40710665367E+03  0.40710665370E+03  0.50400000000E-02 0. -1.
    8880023    1    1    2    0    0 -0.21190726049E+03  0.18181334495E+02  0.21661114572E+04  0.22740018249E+04  0.65864270000E+03 0.  1.
    8880022    1    1    2    0    0  0.21190726049E+03 -0.18181334495E+02 -0.30458107052E+03  0.40174186925E+03  0.15294330000E+03 0.  0.
<mgrwt>
<rscale>  0 0.54287903E+03</rscale>
<asrwt>0</asrwt>
<pdfrwt beam="1">  1        1 0.62631791E-01 0.69213110E+03</pdfrwt>
<pdfrwt beam="2">  1       -1 0.34902109E+00 0.69213110E+03</pdfrwt>
<totfact> 0.99287582E-01</totfact>
</mgrwt>
</event>
<event>
 4    1  0.1043382E-007  0.1092083E+04  0.7818608E-02  0.9269922E-01
          1   -1    0    0  501    0  0.00000000000E+00  0.00000000000E+00  0.27100427271E+04  0.27100427271E+04  0.50400000000E-02 0. -1.
         -1   -1    0    0    0  501 -0.00000000000E+00 -0.00000000000E+00 -0.80572871127E+03  0.80572871129E+03  0.50400000000E-02 0.  1.
    8880023    1    1    2    0    0  0.42513171676E+03 -0.76032814343E+03 -0.30677694781E+03  0.11343536328E+04  0.65864270000E+03 0.  0.
    8880022    1    1    2    0    0 -0.42513171676E+03  0.76032814343E+03  0.22110909636E+04  0.23814178056E+04  0.15294330000E+03 0. -1.
<mgrwt>
<rscale>  0 0.10359970E+04</rscale>
<asrwt>0</asrwt>
<pdfrwt beam="1">  1        1 0.41692965E+00 0.10920834E+04</pdfrwt>
<pdfrwt beam="2">  1       -1 0.12395826E+00 0.10920834E+04</pdfrwt>
<totfact> 0.55537322E-01</totfact>
</mgrwt>
</event>
<event>
 4    1  0.1043382E-007  0.9997413E+03  0.7818608E-02  0.9381896E-01
         -1   -1    0    0    0  501 -0.00000000000E+00  0.00000000000E+00  0.11437727799E+04  0.11437727799E+04  0.50400000000E-02 0.  1.
          1   -1    0    0  501    0  0.00000000000E+00 -0.00000000000E+00 -0.78210527758E+03  0.78210527759E+03  0.50400000000E-02 0. -1.
    8880023    1    1    2    0    0 -0.10369802738E+03 -0.74492894371E+03  0.54237146190E+03  0.11373871025E+04  0.65864270000E+03 0. -1.
    8880022    1    1    2    0    0  0.10369802738E+03  0.74492894371E+03 -0.18070395958E+03  0.78849095498E+03  0.15294330000E+03 0.  1.
<mgrwt>
<rscale>  0 0.93580645E+03</rscale>
<asrwt>0</asrwt>
<pdfrwt beam="1">  1        1 0.12032389E+00 0.99974128E+03</pdfrwt>
<pdfrwt beam="2">  1       -1 0.17596504E+00 0.99974128E+03</pdfrwt>
<totfact> 0.51174336E+00</totfact>
</mgrwt>
</event>
<event>
 4    1  0.1043382E-007  0.7494482E+03  0.7818608E-02  0.9833233E-01
          1   -1    0    0  501    0  0.00000000000E+00  0.00000000000E+00  0.55525310220E+03  0.55525310222E+03  0.50400000000E-02 0. -1.
         -1   -1    0    0    0  501 -0.00000000000E+00 -0.00000000000E+00 -0.83904862615E+03  0.83904862617E+03  0.50400000000E-02 0.  1.
    8880023    1    1    2    0    0 -0.35162869755E+03 -0.64958543757E+02 -0.54426065581E+03  0.92622471413E+03  0.65864270000E+03 0.  1.
    8880022    1    1    2    0    0  0.35162869755E+03  0.64958543757E+02  0.26046513186E+03  0.46807701425E+03  0.15294330000E+03 0.  0.
<mgrwt>
<rscale>  0 0.63609146E+03</rscale>
<asrwt>0</asrwt>
<pdfrwt beam="1">  1        1 0.85423554E-01 0.74944817E+03</pdfrwt>
<pdfrwt beam="2">  1       -1 0.12908440E+00 0.74944817E+03</pdfrwt>
<totfact> 0.20276903E+01</totfact>
</mgrwt>
</event>
<event>
 4    1  0.1043382E-007  0.8696172E+03  0.7818608E-02  0.9576680E-01
         -1   -1    0    0    0  501 -0.00000000000E+00  0.00000000000E+00  0.11580582482E+04  0.11580582482E+04  0.50400000000E-02 0.  1.
          1   -1    0    0  501    0  0.00000000000E+00 -0.00000000000E+00 -0.72420987275E+03  0.72420987277E+03  0.50400000000E-02 0. -1.
    8880023    1    1    2    0    0  0.21765673710E+03 -0.52445154961E+03  0.80653389870E+03  0.11860569207E+04  0.65864270000E+03 0.  0.
    8880022    1    1    2    0    0 -0.21765673710E+03  0.52445154961E+03 -0.37268552328E+03  0.69621120026E+03  0.15294330000E+03 0.  0.
<mgrwt>
<rscale>  0 0.78859071E+03</rscale>
<asrwt>0</asrwt>
<pdfrwt beam="1">  1        1 0.11141690E+00 0.86961721E+03</pdfrwt>
<pdfrwt beam="2">  1       -1 0.17816281E+00 0.86961721E+03</pdfrwt>
<totfact> 0.56495658E+00</totfact>
</mgrwt>
</event>
<event>
 4    1  0.1043382E-007  0.1314767E+04  0.7818608E-02  0.9052912E-01
          1   -1    0    0  501    0  0.00000000000E+00  0.00000000000E+00  0.14743056444E+04  0.14743056444E+04  0.50400000000E-02 0. -1.
         -1   -1    0    0    0  501 -0.00000000000E+00 -0.00000000000E+00 -0.12566240105E+04  0.12566240105E+04  0.50400000000E-02 0.  1.
    8880023    1    1    2    0    0 -0.67488750438E+03 -0.91614876932E+03 -0.46570804102E+03  0.13948103444E+04  0.65864270000E+03 0.  1.
    8880022    1    1    2    0    0  0.67488750438E+03  0.91614876932E+03  0.68338967497E+03  0.13361193105E+04  0.15294330000E+03 0. -1.
<mgrwt>
<rscale>  0 0.12709661E+04</rscale>
<asrwt>0</asrwt>
<pdfrwt beam="1">  1        1 0.22681625E+00 0.13147669E+04</pdfrwt>
<pdfrwt beam="2">  1       -1 0.19332677E+00 0.13147669E+04</pdfrwt>
<totfact> 0.11036031E+00</totfact>
</mgrwt>
</event>
<event>
 4    1  0.1043382E-007  0.1413310E+04  0.7818608E-02  0.8973409E-01
          1   -1    0    0  501    0  0.00000000000E+00  0.00000000000E+00  0.10293901686E+04  0.10293901686E+04  0.50400000000E-02 0. -1.
         -1   -1    0    0    0  501 -0.00000000000E+00 -0.00000000000E+00 -0.24199073198E+04  0.24199073198E+04  0.50400000000E-02 0.  1.
    8880023    1    1    2    0    0  0.93354704920E+02 -0.12469644302E+04 -0.16401054163E+04  0.21650384232E+04  0.65864270000E+03 0. -1.
    8880022    1    1    2    0    0 -0.93354704920E+02  0.12469644302E+04  0.24958826514E+03  0.12842590651E+04  0.15294330000E+03 0.  0.
<mgrwt>
<rscale>  0 0.13732549E+04</rscale>
<asrwt>0</asrwt>
<pdfrwt beam="1">  1        1 0.15836772E+00 0.14133102E+04</pdfrwt>
<pdfrwt beam="2">  1       -1 0.37229343E+00 0.14133102E+04</pdfrwt>
<totfact> 0.15233218E-01</totfact>
</mgrwt>
</event>
<event>
 4    1  0.1043382E-007  0.7866816E+03  0.7818608E-02  0.9740370E-01
         -1   -1    0    0    0  501 -0.00000000000E+00  0.00000000000E+00  0.85557907882E+03  0.85557907883E+03  0.50400000000E-02 0.  1.
          1   -1    0    0  501    0  0.00000000000E+00 -0.00000000000E+00 -0.53040184771E+03  0.53040184773E+03  0.50400000000E-02 0. -1.
    8880023    1    1    2    0    0  0.42971398488E+03  0.20089356821E+02  0.45825319259E+03  0.91041962074E+03  0.65864270000E+03 0.  0.
    8880022    1    1    2    0    0 -0.42971398488E+03 -0.20089356821E+02 -0.13307596148E+03  0.47556130582E+03  0.15294330000E+03 0.  0.
<mgrwt>
<rscale>  0 0.68663241E+03</rscale>
<asrwt>0</asrwt>
<pdfrwt beam="1">  1        1 0.81600285E-01 0.78668157E+03</pdfrwt>
<pdfrwt beam="2">  1       -1 0.13162755E+00 0.78668157E+03</pdfrwt>
<totfact> 0.20503613E+01</totfact>
</mgrwt>
</event>
<event>
 4    1  0.1043382E-007  0.6588138E+03  0.7818608E-02  0.1025406E+00
         -1   -1    0    0    0  501 -0.00000000000E+00  0.00000000000E+00  0.18390361592E+03  0.18390361599E+03  0.50400000000E-02 0.  1.
          1   -1    0    0  501    0  0.00000000000E+00 -0.00000000000E+00 -0.13424899200E+04  0.13424899200E+04  0.50400000000E-02 0. -1.
    8880023    1    1    2    0    0 -0.62682344323E+01  0.13642607149E+02 -0.44160432946E+03  0.79312672478E+03  0.65864270000E+03 0.  1.
    8880022    1    1    2    0    0  0.62682344323E+01 -0.13642607149E+02 -0.71698197462E+03  0.73326681122E+03  0.15294330000E+03 0.  0.
<mgrwt>
<rscale>  0 0.45785215E+03</rscale>
<asrwt>0</asrwt>
<pdfrwt beam="1">  1        1 0.20653690E+00 0.65881380E+03</pdfrwt>
<pdfrwt beam="2">  1       -1 0.28292865E-01 0.65881380E+03</pdfrwt>
<totfact> 0.98254870E+01</totfact>
</mgrwt>
</event>
<event>
 4    1  0.1043382E-007  0.6819791E+03  0.7818608E-02  0.1008226E+00
          1   -1    0    0  501    0  0.00000000000E+00  0.00000000000E+00  0.10433082706E+04  0.10433082706E+04  0.50400000000E-02 0. -1.
         -1   -1    0    0    0  501 -0.00000000000E+00 -0.00000000000E+00 -0.34257654018E+03  0.34257654022E+03  0.50400000000E-02 0.  1.
    8880023    1    1    2    0    0  0.13951079751E+03 -0.10872925631E+03  0.37916022585E+02  0.68303231610E+03  0.65864270000E+03 0.  1.
    8880022    1    1    2    0    0 -0.13951079751E+03  0.10872925631E+03  0.66281570784E+03  0.70285249474E+03  0.15294330000E+03 0.  0.
<mgrwt>
<rscale>  0 0.52185982E+03</rscale>
<asrwt>0</asrwt>
<pdfrwt beam="1">  1        1 0.16050896E+00 0.68197912E+03</pdfrwt>
<pdfrwt beam="2">  1       -1 0.52704084E-01 0.68197912E+03</pdfrwt>
<totfact> 0.52403907E+01</totfact>
</mgrwt>
</event>
<event>
 4    1  0.1043382E-007  0.7328593E+03  0.7818608E-02  0.9881258E-01
         -1   -1    0    0    0  501 -0.00000000000E+00  0.00000000000E+00  0.55386467923E+03  0.55386467925E+03  0.50400000000E-02 0.  1.
          1   -1    0    0  501    0  0.00000000000E+00 -0.00000000000E+00 -0.10306597009E+04  0.10306597009E+04  0.50400000000E-02 0. -1.
    8880023    1    1    2    0    0 -0.31948733931E+03  0.34645871719E+02  0.25077052442E+03  0.77457637363E+03  0.65864270000E+03 0.  0.
    8880022    1    1    2    0    0  0.31948733931E+03 -0.34645871719E+02 -0.72756554609E+03  0.80994800653E+03  0.15294330000E+03 0.  0.
<mgrwt>
<rscale>  0 0.61178264E+03</rscale>
<asrwt>0</asrwt>
<pdfrwt beam="1">  1        1 0.15856303E+00 0.73285927E+03</pdfrwt>
<pdfrwt beam="2">  1       -1 0.85209950E-01 0.73285927E+03</pdfrwt>
<totfact> 0.20119258E+01</totfact>
</mgrwt>
</event>
<event>
 4    1  0.1043382E-007  0.7619031E+03  0.7818608E-02  0.9800205E-01
          1   -1    0    0  501    0  0.00000000000E+00  0.00000000000E+00  0.23245405194E+04  0.23245405194E+04  0.50400000000E-02 0. -1.
         -1   -1    0    0    0  501 -0.00000000000E+00 -0.00000000000E+00 -0.34267470022E+03  0.34267470026E+03  0.50400000000E-02 0.  1.
    8880023    1    1    2    0    0  0.19976252113E+03 -0.32677362012E+03  0.13363686207E+03  0.77353414975E+03  0.65864270000E+03 0.  1.
    8880022    1    1    2    0    0 -0.19976252113E+03  0.32677362012E+03  0.18482289571E+04  0.18936810699E+04  0.15294330000E+03 0.  0.
<mgrwt>
<rscale>  0 0.65351523E+03</rscale>
<asrwt>0</asrwt>
<pdfrwt beam="1">  1        1 0.35762162E+00 0.76190306E+03</pdfrwt>
<pdfrwt beam="2">  1       -1 0.52719184E-01 0.76190306E+03</pdfrwt>
<totfact> 0.68269420E+00</totfact>
</mgrwt>
</event>
<event>
 4    1  0.1043382E-007  0.1044757E+04  0.7818608E-02  0.9325210E-01
         -1   -1    0    0    0  501 -0.00000000000E+00  0.00000000000E+00  0.64894270724E+03  0.64894270726E+03  0.50400000000E-02 0.  1.
          1   -1    0    0  501    0  0.00000000000E+00 -0.00000000000E+00 -0.17088238305E+04  0.17088238305E+04  0.50400000000E-02 0. -1.
    8880023    1    1    2    0    0 -0.10966283406E+03  0.80354342734E+03 -0.39625724281E+02  0.10455086710E+04  0.65864270000E+03 0.  0.
    8880022    1    1    2    0    0  0.10966283406E+03 -0.80354342734E+03 -0.10202553990E+04  0.13122578668E+04  0.15294330000E+03 0.  0.
<mgrwt>
<rscale>  0 0.98494719E+03</rscale>
<asrwt>0</asrwt>
<pdfrwt beam="1">  1        1 0.26289597E+00 0.10447575E+04</pdfrwt>
<pdfrwt beam="2">  1       -1 0.99837340E-01 0.10447575E+04</pdfrwt>
<totfact> 0.45060088E+00</totfact>
</mgrwt>
</event>
<event>
 4    1  0.1043382E-007  0.1167162E+04  0.7818608E-02  0.9189724E-01
          1   -1    0    0  501    0  0.00000000000E+00  0.00000000000E+00  0.19115379726E+04  0.19115379726E+04  0.50400000000E-02 0. -1.
         -1   -1    0    0    0  501 -0.00000000000E+00 -0.00000000000E+00 -0.66065932693E+03  0.66065932695E+03  0.50400000000E-02 0.  1.
    8880023    1    1    2    0    0  0.92962669063E+03  0.25347591065E+03  0.28958347986E+03  0.12025492170E+04  0.65864270000E+03 0.  1.
    8880022    1    1    2    0    0 -0.92962669063E+03 -0.25347591065E+03  0.96129516578E+03  0.13696480825E+04  0.15294330000E+03 0.  0.
<mgrwt>
<rscale>  0 0.11160127E+04</rscale>
<asrwt>0</asrwt>
<pdfrwt beam="1">  1        1 0.29408277E+00 0.11671615E+04</pdfrwt>
<pdfrwt beam="2">  1       -1 0.10163990E+00 0.11671615E+04</pdfrwt>
<totfact> 0.31077829E+00</totfact>
</mgrwt>
</event>
<event>
 4    1  0.1043382E-007  0.6612764E+03  0.7818608E-02  0.1022885E+00
         -1   -1    0    0    0  501 -0.00000000000E+00  0.00000000000E+00  0.39507203877E+03  0.39507203880E+03  0.50400000000E-02 0.  1.
          1   -1    0    0  501    0  0.00000000000E+00 -0.00000000000E+00 -0.66465804906E+03  0.66465804908E+03  0.50400000000E-02 0. -1.
    8880023    1    1    2    0    0 -0.45990458538E+02 -0.36894287855E+02  0.87288072463E+02  0.66701253707E+03  0.65864270000E+03 0.  1.
    8880022    1    1    2    0    0  0.45990458538E+02  0.36894287855E+02 -0.35687408276E+03  0.39271755081E+03  0.15294330000E+03 0.  0.
<mgrwt>
<rscale>  0 0.46659666E+03</rscale>
<asrwt>0</asrwt>
<pdfrwt beam="1">  1        1 0.10225508E+00 0.66127643E+03</pdfrwt>
<pdfrwt beam="2">  1       -1 0.60780314E-01 0.66127643E+03</pdfrwt>
<totfact> 0.83039740E+01</totfact>
</mgrwt>
</event>
<event>
 4    1  0.1043382E-007  0.8357160E+03  0.7818608E-02  0.9638312E-01
          1   -1    0    0  501    0  0.00000000000E+00  0.00000000000E+00  0.15101475399E+04  0.15101475399E+04  0.50400000000E-02 0. -1.
         -1   -1    0    0    0  501 -0.00000000000E+00 -0.00000000000E+00 -0.76646341346E+03  0.76646341347E+03  0.50400000000E-02 0.  1.
    8880023    1    1    2    0    0 -0.50757808552E+03 -0.83519360087E+02 -0.46340807787E+03  0.95559837239E+03  0.65864270000E+03 0.  1.
    8880022    1    1    2    0    0  0.50757808552E+03  0.83519360087E+02  0.12070922043E+04  0.13210125810E+04  0.15294330000E+03 0.  0.
<mgrwt>
<rscale>  0 0.74811539E+03</rscale>
<asrwt>0</asrwt>
<pdfrwt beam="1">  1        1 0.23233039E+00 0.83571598E+03</pdfrwt>
<pdfrwt beam="2">  1       -1 0.11791745E+00 0.83571598E+03</pdfrwt>
<totfact> 0.42775227E+00</totfact>
</mgrwt>
</event>
<event>
 4    1  0.1043382E-007  0.8041096E+03  0.7818608E-02  0.9701980E-01
         -1   -1    0    0    0  501 -0.00000000000E+00  0.00000000000E+00  0.83255451771E+03  0.83255451773E+03  0.50400000000E-02 0.  1.
          1   -1    0    0  501    0  0.00000000000E+00 -0.00000000000E+00 -0.55448180259E+03  0.55448180262E+03  0.50400000000E-02 0. -1.
    8880023    1    1    2    0    0  0.46086733219E+03 -0.19580227079E+02 -0.41866603978E+02  0.80519879655E+03  0.65864270000E+03 0.  0.
    8880022    1    1    2    0    0 -0.46086733219E+03  0.19580227079E+02  0.31993931910E+03  0.58183752379E+03  0.15294330000E+03 0.  0.
<mgrwt>
<rscale>  0 0.70899047E+03</rscale>
<asrwt>0</asrwt>
<pdfrwt beam="1">  1        1 0.85304893E-01 0.80410963E+03</pdfrwt>
<pdfrwt beam="2">  1       -1 0.12808531E+00 0.80410963E+03</pdfrwt>
<totfact> 0.20599106E+01</totfact>
</mgrwt>
</event>
<event>
 4    1  0.1043382E-007  0.1113115E+04  0.7818608E-02  0.9246593E-01
          1   -1    0    0  501    0  0.00000000000E+00  0.00000000000E+00  0.17735327258E+04  0.17735327258E+04  0.50400000000E-02 0. -1.
         -1   -1    0    0    0  501 -0.00000000000E+00 -0.00000000000E+00 -0.64505327812E+03  0.64505327814E+03  0.50400000000E-02 0.  1.
    8880023    1    1    2    0    0  0.26008681847E+03  0.85881879875E+03  0.22415360926E+03  0.11354602278E+04  0.65864270000E+03 0.  0.
    8880022    1    1    2    0    0 -0.26008681847E+03 -0.85881879875E+03  0.90432583843E+03  0.12831257761E+04  0.15294330000E+03 0.  0.
<mgrwt>
<rscale>  0 0.10585188E+04</rscale>
<asrwt>0</asrwt>
<pdfrwt beam="1">  1        1 0.27285119E+00 0.11131150E+04</pdfrwt>
<pdfrwt beam="2">  1       -1 0.99238967E-01 0.11131150E+04</pdfrwt>
<totfact> 0.40965862E+00</totfact>
</mgrwt>
</event>
<event>
 4    1  0.1043382E-007  0.7970027E+03  0.7818608E-02  0.9717315E-01
         -1   -1    0    0    0  501 -0.00000000000E+00  0.00000000000E+00  0.22538874323E+03  0.22538874329E+03  0.50400000000E-02 0.  1.
          1   -1    0    0  501    0  0.00000000000E+00 -0.00000000000E+00 -0.21205593555E+04  0.21205593555E+04  0.50400000000E-02 0. -1.
    8880023    1    1    2    0    0  0.30403951361E+03 -0.33009559184E+03 -0.70219989617E+03  0.10622137384E+04  0.65864270000E+03 0.  1.
    8880022    1    1    2    0    0 -0.30403951361E+03  0.33009559184E+03 -0.11929707161E+04  0.12837343604E+04  0.15294330000E+03 0.  0.
<mgrwt>
<rscale>  0 0.69995179E+03</rscale>
<asrwt>0</asrwt>
<pdfrwt beam="1">  1        1 0.32623989E+00 0.79700272E+03</pdfrwt>
<pdfrwt beam="2">  1       -1 0.34675193E-01 0.79700272E+03</pdfrwt>
<totfact> 0.20165216E+01</totfact>
</mgrwt>
</event>
<event>
 4    1  0.1043382E-007  0.8456869E+03  0.7818608E-02  0.9619549E-01
          1   -1    0    0  501    0  0.00000000000E+00  0.00000000000E+00  0.19476126054E+04  0.19476126054E+04  0.50400000000E-02 0. -1.
         -1   -1    0    0    0  501 -0.00000000000E+00 -0.00000000000E+00 -0.53298873497E+03  0.53298873499E+03  0.50400000000E-02 0.  1.
    8880023    1    1    2    0    0 -0.36571569069E+03 -0.38422404697E+03 -0.11586823162E+03  0.85358756905E+03  0.65864270000E+03 0.  0.
    8880022    1    1    2    0    0  0.36571569069E+03  0.38422404697E+03  0.15304921021E+04  0.16270137714E+04  0.15294330000E+03 0.  0.
<mgrwt>
<rscale>  0 0.76015703E+03</rscale>
<asrwt>0</asrwt>
<pdfrwt beam="1">  1        1 0.29963271E+00 0.84568688E+03</pdfrwt>
<pdfrwt beam="2">  1       -1 0.81998268E-01 0.84568688E+03</pdfrwt>
<totfact> 0.49420492E+00</totfact>
</mgrwt>
</event>
<event>
 4    1  0.1043382E-007  0.1112896E+04  0.7818608E-02  0.9246832E-01
          1   -1    0    0  501    0  0.00000000000E+00  0.00000000000E+00  0.38606732109E+04  0.38606732109E+04  0.50400000000E-02 0. -1.
         -1   -1    0    0    0  501 -0.00000000000E+00 -0.00000000000E+00 -0.35114650297E+03  0.35114650301E+03  0.50400000000E-02 0.  1.
    8880023    1    1    2    0    0 -0.87717937385E+03 -0.18783896254E+03  0.29267443012E+04  0.31311929900E+04  0.65864270000E+03 0.  0.
    8880022    1    1    2    0    0  0.87717937385E+03  0.18783896254E+03  0.58278240667E+03  0.10806267239E+04  0.15294330000E+03 0.  0.
<mgrwt>
<rscale>  0 0.10582846E+04</rscale>
<asrwt>0</asrwt>
<pdfrwt beam="1">  1        1 0.59394979E+00 0.11128959E+04</pdfrwt>
<pdfrwt beam="2">  1       -1 0.54022533E-01 0.11128959E+04</pdfrwt>
<totfact> 0.45121627E-01</totfact>
</mgrwt>
</event>
<event>
 4    1  0.1043382E-007  0.7809340E+03  0.7818608E-02  0.9753647E-01
         -1   -1    0    0    0  501 -0.00000000000E+00  0.00000000000E+00  0.49814988011E+03  0.49814988014E+03  0.50400000000E-02 0.  1.
          1   -1    0    0  501    0  0.00000000000E+00 -0.00000000000E+00 -0.19437654314E+04  0.19437654315E+04  0.50400000000E-02 0. -1.
    8880023    1    1    2    0    0  0.30208990839E+03  0.29118629850E+03  0.14107548687E+03  0.79357436479E+03  0.65864270000E+03 0.  0.
    8880022    1    1    2    0    0 -0.30208990839E+03 -0.29118629850E+03 -0.15866910382E+04  0.16483409468E+04  0.15294330000E+03 0.  0.
<mgrwt>
<rscale>  0 0.67910534E+03</rscale>
<asrwt>0</asrwt>
<pdfrwt beam="1">  1        1 0.29904083E+00 0.78093404E+03</pdfrwt>
<pdfrwt beam="2">  1       -1 0.76638444E-01 0.78093404E+03</pdfrwt>
<totfact> 0.57967849E+00</totfact>
</mgrwt>
</event>
<event>
 4    1  0.1043382E-007  0.7601748E+03  0.7818608E-02  0.9804655E-01
          1   -1    0    0  501    0  0.00000000000E+00  0.00000000000E+00  0.12585494099E+04  0.12585494099E+04  0.50400000000E-02 0. -1.
         -1   -1    0    0    0  501 -0.00000000000E+00 -0.00000000000E+00 -0.31346571139E+03  0.31346571143E+03  0.50400000000E-02 0.  1.
    8880023    1    1    2    0    0  0.67807082306E+02  0.37344033076E+03  0.31973125890E+03  0.82467797668E+03  0.65864270000E+03 0.  1.
    8880022    1    1    2    0    0 -0.67807082306E+02 -0.37344033076E+03  0.62535243961E+03  0.74733714466E+03  0.15294330000E+03 0.  0.
<mgrwt>
<rscale>  0 0.65113315E+03</rscale>
<asrwt>0</asrwt>
<pdfrwt beam="1">  1        1 0.19362299E+00 0.76017477E+03</pdfrwt>
<pdfrwt beam="2">  1       -1 0.48225493E-01 0.76017477E+03</pdfrwt>
<totfact> 0.42732215E+01</totfact>
</mgrwt>
</event>
<event>
 4    1  0.1043382E-007  0.6777149E+03  0.7818608E-02  0.1010647E+00
         -1   -1    0    0    0  501 -0.00000000000E+00  0.00000000000E+00  0.45458223059E+03  0.45458223062E+03  0.50400000000E-02 0.  1.
          1   -1    0    0  501    0  0.00000000000E+00 -0.00000000000E+00 -0.30168026803E+04  0.30168026803E+04  0.50400000000E-02 0. -1.
    8880023    1    1    2    0    0 -0.87875633522E+02  0.13328615438E+03  0.19508156712E+03  0.70523354288E+03  0.65864270000E+03 0.  1.
    8880022    1    1    2    0    0  0.87875633522E+02 -0.13328615438E+03 -0.27573020168E+04  0.27661513680E+04  0.15294330000E+03 0.  0.
<mgrwt>
<rscale>  0 0.51218347E+03</rscale>
<asrwt>0</asrwt>
<pdfrwt beam="1">  1        1 0.46412348E+00 0.67771493E+03</pdfrwt>
<pdfrwt beam="2">  1       -1 0.69935729E-01 0.67771493E+03</pdfrwt>
<totfact> 0.13163370E+00</totfact>
</mgrwt>
</event>
<event>
 4    1  0.1043382E-007  0.6667272E+03  0.7818608E-02  0.1018126E+00
          1   -1    0    0  501    0  0.00000000000E+00  0.00000000000E+00  0.12689976399E+04  0.12689976399E+04  0.50400000000E-02 0. -1.
         -1   -1    0    0    0  501 -0.00000000000E+00 -0.00000000000E+00 -0.31419076922E+03  0.31419076926E+03  0.50400000000E-02 0.  1.
    8880023    1    1    2    0    0  0.72186413075E+02 -0.74189589622E+02  0.59886872473E+02  0.66941139608E+03  0.65864270000E+03 0.  1.
    8880022    1    1    2    0    0 -0.72186413075E+02  0.74189589622E+02  0.89491999820E+03  0.91377701308E+03  0.15294330000E+03 0.  0.
<mgrwt>
<rscale>  0 0.48368875E+03</rscale>
<asrwt>0</asrwt>
<pdfrwt beam="1">  1        1 0.19523040E+00 0.66672722E+03</pdfrwt>
<pdfrwt beam="2">  1       -1 0.48337042E-01 0.66672722E+03</pdfrwt>
<totfact> 0.42273437E+01</totfact>
</mgrwt>
</event>
<event>
 4    1  0.1043382E-007  0.8542587E+03  0.7818608E-02  0.9603859E-01
         -1   -1    0    0    0  501 -0.00000000000E+00  0.00000000000E+00  0.86400705525E+03  0.86400705527E+03  0.50400000000E-02 0.  1.
          1   -1    0    0  501    0  0.00000000000E+00 -0.00000000000E+00 -0.77214882177E+03  0.77214882179E+03  0.50400000000E-02 0. -1.
    8880023    1    1    2    0    0 -0.23980358004E+03  0.48830520007E+03  0.45158348672E+03  0.96627406938E+03  0.65864270000E+03 0.  1.
    8880022    1    1    2    0    0  0.23980358004E+03 -0.48830520007E+03 -0.35972525324E+03  0.66988180767E+03  0.15294330000E+03 0.  0.
<mgrwt>
<rscale>  0 0.77041303E+03</rscale>
<asrwt>0</asrwt>
<pdfrwt beam="1">  1        1 0.11879213E+00 0.85425870E+03</pdfrwt>
<pdfrwt beam="2">  1       -1 0.13292416E+00 0.85425870E+03</pdfrwt>
<totfact> 0.11408310E+01</totfact>
</mgrwt>
</event>
<event>
 4    1  0.1043382E-007  0.7903939E+03  0.7818608E-02  0.9731965E-01
          1   -1    0    0  501    0  0.00000000000E+00  0.00000000000E+00  0.18611876149E+04  0.18611876149E+04  0.50400000000E-02 0. -1.
         -1   -1    0    0    0  501 -0.00000000000E+00 -0.00000000000E+00 -0.33555732342E+03  0.33555732345E+03  0.50400000000E-02 0.  1.
    8880023    1    1    2    0    0 -0.33852433107E+03  0.27624908323E+03  0.23345770254E+03  0.82415106858E+03  0.65864270000E+03 0.  0.
    8880022    1    1    2    0    0  0.33852433107E+03 -0.27624908323E+03  0.12921725889E+04  0.13725938698E+04  0.15294330000E+03 0.  0.
<mgrwt>
<rscale>  0 0.69145106E+03</rscale>
<asrwt>0</asrwt>
<pdfrwt beam="1">  1        1 0.28633655E+00 0.79039388E+03</pdfrwt>
<pdfrwt beam="2">  1       -1 0.51624205E-01 0.79039388E+03</pdfrwt>
<totfact> 0.14473386E+01</totfact>
</mgrwt>
</event>
<event>
 4    1  0.1043382E-007  0.8830633E+03  0.7818608E-02  0.9553786E-01
         -1   -1    0    0    0  501 -0.00000000000E+00  0.00000000000E+00  0.57275526911E+03  0.57275526913E+03  0.50400000000E-02 0.  1.
          1   -1    0    0  501    0  0.00000000000E+00 -0.00000000000E+00 -0.10344042522E+04  0.10344042522E+04  0.50400000000E-02 0. -1.
    8880023    1    1    2    0    0  0.30086958798E+03 -0.50543842199E+03 -0.73712054633E+02  0.88613440327E+03  0.65864270000E+03 0.  1.
    8880022    1    1    2    0    0 -0.30086958798E+03  0.50543842199E+03 -0.38793692843E+03  0.72102511805E+03  0.15294330000E+03 0.  0.
<mgrwt>
<rscale>  0 0.80431904E+03</rscale>
<asrwt>0</asrwt>
<pdfrwt beam="1">  1        1 0.15913911E+00 0.88306326E+03</pdfrwt>
<pdfrwt beam="2">  1       -1 0.88116196E-01 0.88306326E+03</pdfrwt>
<totfact> 0.18265056E+01</totfact>
</mgrwt>
</event>
<event>
 4    1  0.1043382E-007  0.7941416E+03  0.7818608E-02  0.9723609E-01
         -1   -1    0    0    0  501 -0.00000000000E+00  0.00000000000E+00  0.10390808495E+04  0.10390808495E+04  0.50400000000E-02 0.  1.
          1   -1    0    0  501    0  0.00000000000E+00 -0.00000000000E+00 -0.10683010292E+04  0.10683010292E+04  0.50400000000E-02 0. -1.
    8880023    1    1    2    0    0 -0.89736006903E+02 -0.43450898470E+03  0.81723635539E+03  0.11395332709E+04  0.65864270000E+03 0.  1.
    8880022    1    1    2    0    0  0.89736006903E+02  0.43450898470E+03 -0.84645653511E+03  0.96784860777E+03  0.15294330000E+03 0.  0.
<mgrwt>
<rscale>  0 0.69628337E+03</rscale>
<asrwt>0</asrwt>
<pdfrwt beam="1">  1        1 0.16435400E+00 0.79414156E+03</pdfrwt>
<pdfrwt beam="2">  1       -1 0.15985859E+00 0.79414156E+03</pdfrwt>
<totfact> 0.40484963E+00</totfact>
</mgrwt>
</event>
<event>
 4    1  0.1043382E-007  0.1000657E+04  0.7818608E-02  0.9380698E-01
         -1   -1    0    0    0  501 -0.00000000000E+00  0.00000000000E+00  0.15022584739E+04  0.15022584739E+04  0.50400000000E-02 0.  1.
          1   -1    0    0  501    0  0.00000000000E+00 -0.00000000000E+00 -0.15910095298E+04  0.15910095299E+04  0.50400000000E-02 0. -1.
    8880023    1    1    2    0    0 -0.43605794384E+02 -0.75206580947E+03  0.12185213566E+04  0.15767399754E+04  0.65864270000E+03 0.  0.
    8880022    1    1    2    0    0  0.43605794384E+02  0.75206580947E+03 -0.13072724126E+04  0.15165280284E+04  0.15294330000E+03 0.  0.
<mgrwt>
<rscale>  0 0.93681288E+03</rscale>
<asrwt>0</asrwt>
<pdfrwt beam="1">  1        1 0.24477070E+00 0.10006571E+04</pdfrwt>
<pdfrwt beam="2">  1       -1 0.23111669E+00 0.10006571E+04</pdfrwt>
<totfact> 0.53057617E-01</totfact>
</mgrwt>
</event>
<event>
 4    1  0.1043382E-007  0.8546020E+03  0.7818608E-02  0.9603239E-01
          1   -1    0    0  501    0  0.00000000000E+00  0.00000000000E+00  0.91740011151E+03  0.91740011153E+03  0.50400000000E-02 0. -1.
         -1   -1    0    0    0  501 -0.00000000000E+00 -0.00000000000E+00 -0.56405801719E+03  0.56405801721E+03  0.50400000000E-02 0.  1.
    8880023    1    1    2    0    0  0.33821489574E+03 -0.42678454815E+03  0.95766891428E+02  0.85995108582E+03  0.65864270000E+03 0.  1.
    8880022    1    1    2    0    0 -0.33821489574E+03  0.42678454815E+03  0.25757520290E+03  0.62150704292E+03  0.15294330000E+03 0. -1.
<mgrwt>
<rscale>  0 0.77082204E+03</rscale>
<asrwt>0</asrwt>
<pdfrwt beam="1">  1        1 0.14113848E+00 0.85460200E+03</pdfrwt>
<pdfrwt beam="2">  1       -1 0.86778158E-01 0.85460200E+03</pdfrwt>
<totfact> 0.23418838E+01</totfact>
</mgrwt>
</event>
<event>
 4    1  0.1043382E-007  0.7412371E+03  0.7818608E-02  0.9856358E-01
         -1   -1    0    0    0  501 -0.00000000000E+00  0.00000000000E+00  0.84321044204E+02  0.84321044354E+02  0.50400000000E-02 0.  1.
          1   -1    0    0  501    0  0.00000000000E+00 -0.00000000000E+00 -0.42991788888E+04  0.42991788888E+04  0.50400000000E-02 0. -1.
    8880023    1    1    2    0    0  0.29025843534E+03  0.17712206256E+03 -0.19119677357E+04  0.20506225915E+04  0.65864270000E+03 0.  1.
    8880022    1    1    2    0    0 -0.29025843534E+03 -0.17712206256E+03 -0.23028901089E+04  0.23328773416E+04  0.15294330000E+03 0.  0.
<mgrwt>
<rscale>  0 0.62423785E+03</rscale>
<asrwt>0</asrwt>
<pdfrwt beam="1">  1        1 0.66141197E+00 0.74123707E+03</pdfrwt>
<pdfrwt beam="2">  1       -1 0.12972472E-01 0.74123707E+03</pdfrwt>
<totfact> 0.23634675E+00</totfact>
</mgrwt>
</event>
<event>
 4    1  0.1463042E-007  0.7812557E+03  0.7818608E-02  0.9752896E-01
         -1   -1    0    0    0  501 -0.00000000000E+00  0.00000000000E+00  0.10571072184E+04  0.10571072184E+04  0.50400000000E-02 0.  1.
          1   -1    0    0  501    0  0.00000000000E+00 -0.00000000000E+00 -0.19601666696E+04  0.19601666696E+04  0.50400000000E-02 0. -1.
    8880023    1    1    2    0    0  0.11455718845E+03  0.40426091582E+03  0.88130597427E+03  0.11777353964E+04  0.65864270000E+03 0.  1.
    8880022    1    1    2    0    0 -0.11455718845E+03 -0.40426091582E+03 -0.17843654254E+04  0.18395384916E+04  0.15294330000E+03 0.  0.
<mgrwt>
<rscale>  0 0.67952880E+03</rscale>
<asrwt>0</asrwt>
<pdfrwt beam="1">  1        1 0.30156410E+00 0.78125568E+03</pdfrwt>
<pdfrwt beam="2">  1       -1 0.16263188E+00 0.78125568E+03</pdfrwt>
<totfact> 0.93103140E-01</totfact>
</mgrwt>
</event>
<event>
 4    1  0.1043382E-007  0.7120344E+03  0.7818608E-02  0.9950523E-01
          1   -1    0    0  501    0  0.00000000000E+00  0.00000000000E+00  0.19539523024E+04  0.19539523024E+04  0.50400000000E-02 0. -1.
         -1   -1    0    0    0  501 -0.00000000000E+00 -0.00000000000E+00 -0.23143520883E+03  0.23143520889E+03  0.50400000000E-02 0.  1.
    8880023    1    1    2    0    0 -0.24282959931E+03  0.11923322039E+03  0.37943842676E+03  0.80682495073E+03  0.65864270000E+03 0.  1.
    8880022    1    1    2    0    0  0.24282959931E+03 -0.11923322039E+03  0.13430786668E+04  0.13785625606E+04  0.15294330000E+03 0.  0.
<mgrwt>
<rscale>  0 0.57874000E+03</rscale>
<asrwt>0</asrwt>
<pdfrwt beam="1">  1        1 0.30060803E+00 0.71203440E+03</pdfrwt>
<pdfrwt beam="2">  1       -1 0.35605419E-01 0.71203440E+03</pdfrwt>
<totfact> 0.25152080E+01</totfact>
</mgrwt>
</event>
<event>
 4    1  0.1043382E-007  0.7637221E+03  0.7818608E-02  0.9795565E-01
          1   -1    0    0  501    0  0.00000000000E+00  0.00000000000E+00  0.87037566430E+03  0.87037566432E+03  0.50400000000E-02 0. -1.
         -1   -1    0    0    0  501 -0.00000000000E+00 -0.00000000000E+00 -0.57990187403E+03  0.57990187405E+03  0.50400000000E-02 0.  1.
    8880023    1    1    2    0    0  0.30983977074E+03  0.23121550020E+03 -0.21727654680E+03  0.79402808207E+03  0.65864270000E+03 0.  0.
    8880022    1    1    2    0    0 -0.30983977074E+03 -0.23121550020E+03  0.50775033708E+03  0.65624945629E+03  0.15294330000E+03 0.  0.
<mgrwt>
<rscale>  0 0.65601101E+03</rscale>
<asrwt>0</asrwt>
<pdfrwt beam="1">  1        1 0.13390395E+00 0.76372213E+03</pdfrwt>
<pdfrwt beam="2">  1       -1 0.89215673E-01 0.76372213E+03</pdfrwt>
<totfact> 0.24316240E+01</totfact>
</mgrwt>
</event>
<event>
 4    1  0.1043382E-007  0.9407838E+03  0.7818608E-02  0.9463500E-01
          1   -1    0    0  501    0  0.00000000000E+00  0.00000000000E+00  0.17874226623E+04  0.17874226623E+04  0.50400000000E-02 0. -1.
         -1   -1    0    0    0  501 -0.00000000000E+00 -0.00000000000E+00 -0.91004694292E+03  0.91004694293E+03  0.50400000000E-02 0.  1.
    8880023    1    1    2    0    0  0.32214795998E+03  0.58947832691E+03 -0.56612500967E+03  0.10979853090E+04  0.65864270000E+03 0.  1.
    8880022    1    1    2    0    0 -0.32214795998E+03 -0.58947832691E+03  0.14435007291E+04  0.15994842962E+04  0.15294330000E+03 0.  0.
<mgrwt>
<rscale>  0 0.87029145E+03</rscale>
<asrwt>0</asrwt>
<pdfrwt beam="1">  1        1 0.27498810E+00 0.94078383E+03</pdfrwt>
<pdfrwt beam="2">  1       -1 0.14000722E+00 0.94078383E+03</pdfrwt>
<totfact> 0.17715819E+00</totfact>
</mgrwt>
</event>
<event>
 4    1  0.1043382E-007  0.6685436E+03  0.7818608E-02  0.1016729E+00
         -1   -1    0    0    0  501 -0.00000000000E+00  0.00000000000E+00  0.22551969199E+03  0.22551969205E+03  0.50400000000E-02 0.  1.
          1   -1    0    0  501    0  0.00000000000E+00 -0.00000000000E+00 -0.27077690223E+04  0.27077690223E+04  0.50400000000E-02 0. -1.
    8880023    1    1    2    0    0  0.61467177779E+02  0.96758082916E+02 -0.28337189586E+03  0.72611994752E+03  0.65864270000E+03 0.  1.
    8880022    1    1    2    0    0 -0.61467177779E+02 -0.96758082916E+02 -0.21988774345E+04  0.22071687669E+04  0.15294330000E+03 0.  0.
<mgrwt>
<rscale>  0 0.48885659E+03</rscale>
<asrwt>0</asrwt>
<pdfrwt beam="1">  1        1 0.41657983E+00 0.66854360E+03</pdfrwt>
<pdfrwt beam="2">  1       -1 0.34695339E-01 0.66854360E+03</pdfrwt>
<totfact> 0.82062740E+00</totfact>
</mgrwt>
</event>
<event>
 4    1  0.1043382E-007  0.6624523E+03  0.7818608E-02  0.1021774E+00
          1   -1    0    0  501    0  0.00000000000E+00  0.00000000000E+00  0.34474090815E+04  0.34474090815E+04  0.50400000000E-02 0. -1.
         -1   -1    0    0    0  501 -0.00000000000E+00 -0.00000000000E+00 -0.17968011818E+03  0.17968011826E+03  0.50400000000E-02 0.  1.
    8880023    1    1    2    0    0  0.67768681419E+02  0.20982954820E+02  0.44208142656E+03  0.79641639395E+03  0.65864270000E+03 0.  1.
    8880022    1    1    2    0    0 -0.67768681419E+02 -0.20982954820E+02  0.28256475367E+04  0.28306728058E+04  0.15294330000E+03 0.  0.
<mgrwt>
<rscale>  0 0.47051951E+03</rscale>
<asrwt>0</asrwt>
<pdfrwt beam="1">  1        1 0.53037057E+00 0.66245233E+03</pdfrwt>
<pdfrwt beam="2">  1       -1 0.27643098E-01 0.66245233E+03</pdfrwt>
<totfact> 0.35589821E+00</totfact>
</mgrwt>
</event>
<event>
 4    1  0.1043382E-007  0.6692594E+03  0.7818608E-02  0.1016199E+00
          1   -1    0    0  501    0  0.00000000000E+00  0.00000000000E+00  0.63554551845E+03  0.63554551847E+03  0.50400000000E-02 0. -1.
         -1   -1    0    0    0  501 -0.00000000000E+00 -0.00000000000E+00 -0.12399130957E+04  0.12399130957E+04  0.50400000000E-02 0.  1.
    8880023    1    1    2    0    0 -0.10472721753E+03 -0.55947161941E+02 -0.11311002493E+04  0.13142662802E+04  0.65864270000E+03 0.  1.
    8880022    1    1    2    0    0  0.10472721753E+03  0.55947161941E+02  0.52673267200E+03  0.56119233404E+03  0.15294330000E+03 0.  0.
<mgrwt>
<rscale>  0 0.49083394E+03</rscale>
<asrwt>0</asrwt>
<pdfrwt beam="1">  1        1 0.97776234E-01 0.66925935E+03</pdfrwt>
<pdfrwt beam="2">  1       -1 0.19075586E+00 0.66925935E+03</pdfrwt>
<totfact> 0.57585103E+00</totfact>
</mgrwt>
</event>
<event>
 4    1  0.1043382E-007  0.1186628E+04  0.7818608E-02  0.9170231E-01
          1   -1    0    0  501    0  0.00000000000E+00  0.00000000000E+00  0.18277171832E+04  0.18277171832E+04  0.50400000000E-02 0. -1.
         -1   -1    0    0    0  501 -0.00000000000E+00 -0.00000000000E+00 -0.83662414188E+03  0.83662414189E+03  0.50400000000E-02 0.  1.
    8880023    1    1    2    0    0  0.47575165563E+03 -0.86483328102E+03 -0.92987326256E+02  0.11902659749E+04  0.65864270000E+03 0.  0.
    8880022    1    1    2    0    0 -0.47575165563E+03  0.86483328102E+03  0.10840803676E+04  0.14740753502E+04  0.15294330000E+03 0.  0.
<mgrwt>
<rscale>  0 0.11366042E+04</rscale>
<asrwt>0</asrwt>
<pdfrwt beam="1">  1        1 0.28118726E+00 0.11866282E+04</pdfrwt>
<pdfrwt beam="2">  1       -1 0.12871141E+00 0.11866282E+04</pdfrwt>
<totfact> 0.19977411E+00</totfact>
</mgrwt>
</event>
<event>
 4    1  0.1043382E-007  0.8407156E+03  0.7818608E-02  0.9628832E-01
          1   -1    0    0  501    0  0.00000000000E+00  0.00000000000E+00  0.26588231813E+04  0.26588231813E+04  0.50400000000E-02 0. -1.
         -1   -1    0    0    0  501 -0.00000000000E+00 -0.00000000000E+00 -0.70844105842E+03  0.70844105844E+03  0.50400000000E-02 0.  1.
    8880023    1    1    2    0    0 -0.27600703320E+03  0.44363561327E+03 -0.41674581230E+03  0.93833880772E+03  0.65864270000E+03 0.  1.
    8880022    1    1    2    0    0  0.27600703320E+03 -0.44363561327E+03  0.23671279352E+04  0.24289254320E+04  0.15294330000E+03 0.  0.
<mgrwt>
<rscale>  0 0.75416899E+03</rscale>
<asrwt>0</asrwt>
<pdfrwt beam="1">  1        1 0.40904972E+00 0.84071556E+03</pdfrwt>
<pdfrwt beam="2">  1       -1 0.10899093E+00 0.84071556E+03</pdfrwt>
<totfact> 0.86031000E-01</totfact>
</mgrwt>
</event>
<event>
 4    1  0.1043382E-007  0.8771132E+03  0.7818608E-02  0.9563819E-01
          1   -1    0    0  501    0  0.00000000000E+00  0.00000000000E+00  0.33558508546E+03  0.33558508550E+03  0.50400000000E-02 0. -1.
         -1   -1    0    0    0  501 -0.00000000000E+00 -0.00000000000E+00 -0.20848610982E+04  0.20848610982E+04  0.50400000000E-02 0.  1.
    8880023    1    1    2    0    0 -0.14776556233E+02  0.57905009935E+03 -0.15643474206E+04  0.17934632483E+04  0.65864270000E+03 0.  0.
    8880022    1    1    2    0    0  0.14776556233E+02 -0.57905009935E+03 -0.18492859214E+03  0.62698293548E+03  0.15294330000E+03 0.  0.
<mgrwt>
<rscale>  0 0.79737898E+03</rscale>
<asrwt>0</asrwt>
<pdfrwt beam="1">  1        1 0.51628476E-01 0.87711320E+03</pdfrwt>
<pdfrwt beam="2">  1       -1 0.32074785E+00 0.87711320E+03</pdfrwt>
<totfact> 0.18940513E+00</totfact>
</mgrwt>
</event>
<event>
 4    1  0.1043382E-007  0.6641262E+03  0.7818608E-02  0.1020278E+00
          1   -1    0    0  501    0  0.00000000000E+00  0.00000000000E+00  0.79301708108E+03  0.79301708110E+03  0.50400000000E-02 0. -1.
         -1   -1    0    0    0  501 -0.00000000000E+00 -0.00000000000E+00 -0.24914095030E+03  0.24914095036E+03  0.50400000000E-02 0.  1.
    8880023    1    1    2    0    0  0.79868768513E+02 -0.29568953554E+02  0.26956639254E+03  0.71674932120E+03  0.65864270000E+03 0. -1.
    8880022    1    1    2    0    0 -0.79868768513E+02  0.29568953554E+02  0.27430973824E+03  0.32540871025E+03  0.15294330000E+03 0.  0.
<mgrwt>
<rscale>  0 0.47586404E+03</rscale>
<asrwt>0</asrwt>
<pdfrwt beam="1">  1        1 0.12200263E+00 0.66412615E+03</pdfrwt>
<pdfrwt beam="2">  1       -1 0.38329377E-01 0.66412615E+03</pdfrwt>
<totfact> 0.15081947E+02</totfact>
</mgrwt>
</event>
<event>
 4    1  0.1043382E-007  0.6675602E+03  0.7818608E-02  0.1017476E+00
         -1   -1    0    0    0  501 -0.00000000000E+00  0.00000000000E+00  0.12100868165E+03  0.12100868176E+03  0.50400000000E-02 0.  1.
          1   -1    0    0  501    0  0.00000000000E+00 -0.00000000000E+00 -0.17991074869E+04  0.17991074869E+04  0.50400000000E-02 0. -1.
    8880023    1    1    2    0    0 -0.10340199585E+03  0.33681624533E+02 -0.90503358539E+03  0.11245987825E+04  0.65864270000E+03 0.  0.
    8880022    1    1    2    0    0  0.10340199585E+03 -0.33681624533E+02 -0.77306521981E+03  0.79551738615E+03  0.15294330000E+03 0.  0.
<mgrwt>
<rscale>  0 0.48608647E+03</rscale>
<asrwt>0</asrwt>
<pdfrwt beam="1">  1        1 0.27678575E+00 0.66756021E+03</pdfrwt>
<pdfrwt beam="2">  1       -1 0.18616722E-01 0.66756021E+03</pdfrwt>
<totfact> 0.97365286E+01</totfact>
</mgrwt>
</event>
<event>
 4    1  0.1043382E-007  0.1402450E+04  0.7818608E-02  0.8981782E-01
         -1   -1    0    0    0  501 -0.00000000000E+00  0.00000000000E+00  0.38208399352E+03  0.38208399356E+03  0.50400000000E-02 0.  1.
          1   -1    0    0  501    0  0.00000000000E+00 -0.00000000000E+00 -0.45952306467E+04  0.45952306467E+04  0.50400000000E-02 0. -1.
    8880023    1    1    2    0    0 -0.10142953048E+04 -0.71011228329E+03 -0.22489070108E+04  0.26503674028E+04  0.65864270000E+03 0. -1.
    8880022    1    1    2    0    0  0.10142953048E+04  0.71011228329E+03 -0.19642396424E+04  0.23269472375E+04  0.15294330000E+03 0.  1.
<mgrwt>
<rscale>  0 0.13620159E+04</rscale>
<asrwt>0</asrwt>
<pdfrwt beam="1">  1        1 0.70695852E+00 0.14024495E+04</pdfrwt>
<pdfrwt beam="2">  1       -1 0.58782156E-01 0.14024495E+04</pdfrwt>
<totfact> 0.75330977E-02</totfact>
</mgrwt>
</event>
<event>
 4    1  0.1043382E-007  0.7136224E+03  0.7818608E-02  0.9944788E-01
         -1   -1    0    0    0  501 -0.00000000000E+00  0.00000000000E+00  0.11424651160E+04  0.11424651160E+04  0.50400000000E-02 0.  1.
          1   -1    0    0  501    0  0.00000000000E+00 -0.00000000000E+00 -0.55404356731E+03  0.55404356733E+03  0.50400000000E-02 0. -1.
    8880023    1    1    2    0    0 -0.24600910823E+03 -0.12217308342E+03  0.96865198211E+03  0.12031390661E+04  0.65864270000E+03 0.  1.
    8880022    1    1    2    0    0  0.24600910823E+03  0.12217308342E+03 -0.38023043346E+03  0.49336961721E+03  0.15294330000E+03 0.  0.
<mgrwt>
<rscale>  0 0.58138935E+03</rscale>
<asrwt>0</asrwt>
<pdfrwt beam="1">  1        1 0.85237472E-01 0.71362241E+03</pdfrwt>
<pdfrwt beam="2">  1       -1 0.17576386E+00 0.71362241E+03</pdfrwt>
<totfact> 0.88858844E+00</totfact>
</mgrwt>
</event>
<event>
 4    1  0.1043382E-007  0.8985946E+03  0.7818608E-02  0.9528291E-01
          1   -1    0    0  501    0  0.00000000000E+00  0.00000000000E+00  0.10911892328E+04  0.10911892328E+04  0.50400000000E-02 0. -1.
         -1   -1    0    0    0  501 -0.00000000000E+00 -0.00000000000E+00 -0.91229986486E+03  0.91229986487E+03  0.50400000000E-02 0.  1.
    8880023    1    1    2    0    0  0.33815241997E+03 -0.50922981171E+03 -0.53934054195E+03  0.10480269494E+04  0.65864270000E+03 0.  0.
    8880022    1    1    2    0    0 -0.33815241997E+03  0.50922981171E+03  0.71822990986E+03  0.95546214823E+03  0.15294330000E+03 0.  0.
<mgrwt>
<rscale>  0 0.82229758E+03</rscale>
<asrwt>0</asrwt>
<pdfrwt beam="1">  1        1 0.16787527E+00 0.89859461E+03</pdfrwt>
<pdfrwt beam="2">  1       -1 0.14035383E+00 0.89859461E+03</pdfrwt>
<totfact> 0.54422616E+00</totfact>
</mgrwt>
</event>
<event>
 4    1  0.1043382E-007  0.7728408E+03  0.7818608E-02  0.9772931E-01
          1   -1    0    0  501    0  0.00000000000E+00  0.00000000000E+00  0.23312763954E+04  0.23312763954E+04  0.50400000000E-02 0. -1.
         -1   -1    0    0    0  501 -0.00000000000E+00 -0.00000000000E+00 -0.34392996783E+03  0.34392996787E+03  0.50400000000E-02 0.  1.
    8880023    1    1    2    0    0 -0.38393704254E+03  0.12674814186E+03  0.14945079048E+03  0.78715849048E+03  0.65864270000E+03 0.  1.
    8880022    1    1    2    0    0  0.38393704254E+03 -0.12674814186E+03  0.18378956371E+04  0.18880478728E+04  0.15294330000E+03 0.  0.
<mgrwt>
<rscale>  0 0.66835679E+03</rscale>
<asrwt>0</asrwt>
<pdfrwt beam="1">  1        1 0.35865792E+00 0.77284083E+03</pdfrwt>
<pdfrwt beam="2">  1       -1 0.52912301E-01 0.77284083E+03</pdfrwt>
<totfact> 0.66964115E+00</totfact>
</mgrwt>
</event>
<event>
 4    1  0.1043382E-007  0.8227127E+03  0.7818608E-02  0.9663681E-01
         -1   -1    0    0    0  501 -0.00000000000E+00  0.00000000000E+00  0.77449544985E+03  0.77449544987E+03  0.50400000000E-02 0.  1.
          1   -1    0    0  501    0  0.00000000000E+00 -0.00000000000E+00 -0.17471387509E+04  0.17471387509E+04  0.50400000000E-02 0. -1.
    8880023    1    1    2    0    0  0.10546878617E+03 -0.48158317907E+03  0.49891609211E+03  0.96217124071E+03  0.65864270000E+03 0.  1.
    8880022    1    1    2    0    0 -0.10546878617E+03  0.48158317907E+03 -0.14715593932E+04  0.15594629601E+04  0.15294330000E+03 0.  0.
<mgrwt>
<rscale>  0 0.73220993E+03</rscale>
<asrwt>0</asrwt>
<pdfrwt beam="1">  1        1 0.26879058E+00 0.82271273E+03</pdfrwt>
<pdfrwt beam="2">  1       -1 0.11915315E+00 0.82271273E+03</pdfrwt>
<totfact> 0.28858442E+00</totfact>
</mgrwt>
</event>
<event>
 4    1  0.1043382E-007  0.8371314E+03  0.7818608E-02  0.9635613E-01
          1   -1    0    0  501    0  0.00000000000E+00  0.00000000000E+00  0.12854722574E+04  0.12854722574E+04  0.50400000000E-02 0. -1.
         -1   -1    0    0    0  501 -0.00000000000E+00 -0.00000000000E+00 -0.40283750548E+03  0.40283750551E+03  0.50400000000E-02 0.  1.
    8880023    1    1    2    0    0 -0.49514063134E+02  0.51432209289E+03  0.28667787532E+03  0.88485776719E+03  0.65864270000E+03 0.  0.
    8880022    1    1    2    0    0  0.49514063134E+02 -0.51432209289E+03  0.59595687661E+03  0.80345199576E+03  0.15294330000E+03 0.  1.
<mgrwt>
<rscale>  0 0.74983258E+03</rscale>
<asrwt>0</asrwt>
<pdfrwt beam="1">  1        1 0.19776496E+00 0.83713145E+03</pdfrwt>
<pdfrwt beam="2">  1       -1 0.61975001E-01 0.83713145E+03</pdfrwt>
<totfact> 0.24967846E+01</totfact>
</mgrwt>
</event>
<event>
 4    1  0.1043382E-007  0.8436306E+03  0.7818608E-02  0.9623372E-01
          1   -1    0    0  501    0  0.00000000000E+00  0.00000000000E+00  0.24899905990E+04  0.24899905990E+04  0.50400000000E-02 0. -1.
         -1   -1    0    0    0  501 -0.00000000000E+00 -0.00000000000E+00 -0.67224503828E+03  0.67224503830E+03  0.50400000000E-02 0.  1.
    8880023    1    1    2    0    0  0.25090423768E+02  0.52656700530E+03 -0.35937482855E+03  0.91698572186E+03  0.65864270000E+03 0.  1.
    8880022    1    1    2    0    0 -0.25090423768E+02 -0.52656700530E+03  0.21771203892E+04  0.22452499154E+04  0.15294330000E+03 0.  0.
<mgrwt>
<rscale>  0 0.75768387E+03</rscale>
<asrwt>0</asrwt>
<pdfrwt beam="1">  1        1 0.38307547E+00 0.84363057E+03</pdfrwt>
<pdfrwt beam="2">  1       -1 0.10342232E+00 0.84363057E+03</pdfrwt>
<totfact> 0.12700674E+00</totfact>
</mgrwt>
</event>
<event>
 4    1  0.1043382E-007  0.1242330E+04  0.7818608E-02  0.9117034E-01
         -1   -1    0    0    0  501 -0.00000000000E+00  0.00000000000E+00  0.91913709416E+03  0.91913709418E+03  0.50400000000E-02 0.  1.
          1   -1    0    0  501    0  0.00000000000E+00 -0.00000000000E+00 -0.14934390621E+04  0.14934390621E+04  0.50400000000E-02 0. -1.
    8880023    1    1    2    0    0 -0.10486131493E+04 -0.99926185290E+02 -0.97186262243E+02  0.12461260592E+04  0.65864270000E+03 0.  0.
    8880022    1    1    2    0    0  0.10486131493E+04  0.99926185290E+02 -0.47711570571E+03  0.11664500971E+04  0.15294330000E+03 0.  0.
<mgrwt>
<rscale>  0 0.11952396E+04</rscale>
<asrwt>0</asrwt>
<pdfrwt beam="1">  1        1 0.22975985E+00 0.12423305E+04</pdfrwt>
<pdfrwt beam="2">  1       -1 0.14140571E+00 0.12423305E+04</pdfrwt>
<totfact> 0.26370443E+00</totfact>
</mgrwt>
</event>
<event>
 4    1  0.1109496E-007  0.1089019E+04  0.7818608E-02  0.9273382E-01
         -1   -1    0    0    0  501 -0.00000000000E+00  0.00000000000E+00  0.12507007156E+04  0.12507007156E+04  0.50400000000E-02 0.  1.
          1   -1    0    0  501    0  0.00000000000E+00 -0.00000000000E+00 -0.22635435898E+04  0.22635435898E+04  0.50400000000E-02 0. -1.
    8880023    1    1    2    0    0  0.90023043035E+02  0.86258210584E+03  0.89717160729E+03  0.14109851653E+04  0.65864270000E+03 0.  0.
    8880022    1    1    2    0    0 -0.90023043035E+02 -0.86258210584E+03 -0.19100144815E+04  0.21032591400E+04  0.15294330000E+03 0.  0.
<mgrwt>
<rscale>  0 0.10327076E+04</rscale>
<asrwt>0</asrwt>
<pdfrwt beam="1">  1        1 0.34823747E+00 0.10890189E+04</pdfrwt>
<pdfrwt beam="2">  1       -1 0.19241550E+00 0.10890189E+04</pdfrwt>
<totfact> 0.33522476E-01</totfact>
</mgrwt>
</event>
<event>
 4    1  0.1043382E-007  0.1113869E+04  0.7818608E-02  0.9245769E-01
         -1   -1    0    0    0  501 -0.00000000000E+00  0.00000000000E+00  0.73648226626E+03  0.73648226628E+03  0.50400000000E-02 0.  1.
          1   -1    0    0  501    0  0.00000000000E+00 -0.00000000000E+00 -0.41144800225E+04  0.41144800225E+04  0.50400000000E-02 0. -1.
    8880023    1    1    2    0    0  0.74253195207E+03 -0.50551045113E+03 -0.37158020310E+04  0.38791609216E+04  0.65864270000E+03 0. -1.
    8880022    1    1    2    0    0 -0.74253195207E+03  0.50551045113E+03  0.33780427480E+03  0.97180136712E+03  0.15294330000E+03 0.  0.
<mgrwt>
<rscale>  0 0.10593248E+04</rscale>
<asrwt>0</asrwt>
<pdfrwt beam="1">  1        1 0.63299691E+00 0.11138693E+04</pdfrwt>
<pdfrwt beam="2">  1       -1 0.11330497E+00 0.11138693E+04</pdfrwt>
<totfact> 0.55719319E-02</totfact>
</mgrwt>
</event>
<event>
 4    1  0.1043382E-007  0.8449583E+03  0.7818608E-02  0.9620901E-01
         -1   -1    0    0    0  501 -0.00000000000E+00  0.00000000000E+00  0.55730065331E+03  0.55730065333E+03  0.50400000000E-02 0.  1.
          1   -1    0    0  501    0  0.00000000000E+00 -0.00000000000E+00 -0.10958135490E+04  0.10958135490E+04  0.50400000000E-02 0. -1.
    8880023    1    1    2    0    0  0.52147573729E+03  0.90594454567E+02  0.50664063612E+02  0.84647584336E+03  0.65864270000E+03 0.  0.
    8880022    1    1    2    0    0 -0.52147573729E+03 -0.90594454567E+02 -0.58917695927E+03  0.80663835895E+03  0.15294330000E+03 0.  0.
<mgrwt>
<rscale>  0 0.75928133E+03</rscale>
<asrwt>0</asrwt>
<pdfrwt beam="1">  1        1 0.16858670E+00 0.84495829E+03</pdfrwt>
<pdfrwt beam="2">  1       -1 0.85738562E-01 0.84495829E+03</pdfrwt>
<totfact> 0.17487598E+01</totfact>
</mgrwt>
</event>
<event>
 4    1  0.1043382E-007  0.7524136E+03  0.7818608E-02  0.9825159E-01
         -1   -1    0    0    0  501 -0.00000000000E+00  0.00000000000E+00  0.94205866077E+03  0.94205866079E+03  0.50400000000E-02 0.  1.
          1   -1    0    0  501    0  0.00000000000E+00 -0.00000000000E+00 -0.66307879183E+03  0.66307879185E+03  0.50400000000E-02 0. -1.
    8880023    1    1    2    0    0  0.35981895899E+03  0.53350495850E+02  0.70030176154E+03  0.10278855589E+04  0.65864270000E+03 0.  0.
    8880022    1    1    2    0    0 -0.35981895899E+03 -0.53350495850E+02 -0.42132189260E+03  0.57725189377E+03  0.15294330000E+03 0.  0.
<mgrwt>
<rscale>  0 0.64029659E+03</rscale>
<asrwt>0</asrwt>
<pdfrwt beam="1">  1        1 0.10201212E+00 0.75241356E+03</pdfrwt>
<pdfrwt beam="2">  1       -1 0.14493210E+00 0.75241356E+03</pdfrwt>
<totfact> 0.11642939E+01</totfact>
</mgrwt>
</event>
<event>
 4    1  0.1246171E-007  0.6630903E+03  0.7818608E-02  0.1021192E+00
         -1   -1    0    0    0  501 -0.00000000000E+00  0.00000000000E+00  0.80624941416E+03  0.80624941417E+03  0.50400000000E-02 0.  1.
          1   -1    0    0  501    0  0.00000000000E+00 -0.00000000000E+00 -0.15620570483E+04  0.15620570483E+04  0.50400000000E-02 0. -1.
    8880023    1    1    2    0    0  0.67441362200E+02 -0.36471279334E+02  0.66390204901E+03  0.93832543848E+03  0.65864270000E+03 0.  1.
    8880022    1    1    2    0    0 -0.67441362200E+02  0.36471279334E+02 -0.14197096831E+04  0.14299810240E+04  0.15294330000E+03 0.  0.
<mgrwt>
<rscale>  0 0.47258790E+03</rscale>
<asrwt>0</asrwt>
<pdfrwt beam="1">  1        1 0.24031647E+00 0.66309026E+03</pdfrwt>
<pdfrwt beam="2">  1       -1 0.12403837E+00 0.66309026E+03</pdfrwt>
<totfact> 0.35898865E+00</totfact>
</mgrwt>
</event>
<event>
 4    1  0.1043382E-007  0.8321055E+03  0.7818608E-02  0.9645250E-01
          1   -1    0    0  501    0  0.00000000000E+00  0.00000000000E+00  0.17304408135E+04  0.17304408135E+04  0.50400000000E-02 0. -1.
         -1   -1    0    0    0  501 -0.00000000000E+00 -0.00000000000E+00 -0.56601643123E+03  0.56601643125E+03  0.50400000000E-02 0.  1.
    8880023    1    1    2    0    0  0.45511840197E+03 -0.22684033252E+03 -0.17965824335E+03  0.85127938242E+03  0.65864270000E+03 0.  0.
    8880022    1    1    2    0    0 -0.45511840197E+03  0.22684033252E+03  0.13440826256E+04  0.14451778623E+04  0.15294330000E+03 0.  0.
<mgrwt>
<rscale>  0 0.74372307E+03</rscale>
<asrwt>0</asrwt>
<pdfrwt beam="1">  1        1 0.26622166E+00 0.83210546E+03</pdfrwt>
<pdfrwt beam="2">  1       -1 0.87079452E-01 0.83210546E+03</pdfrwt>
<totfact> 0.60841165E+00</totfact>
</mgrwt>
</event>
<event>
 4    1  0.1043382E-007  0.7773777E+03  0.7818608E-02  0.9762033E-01
          1   -1    0    0  501    0  0.00000000000E+00  0.00000000000E+00  0.30651314901E+04  0.30651314901E+04  0.50400000000E-02 0. -1.
         -1   -1    0    0    0  501 -0.00000000000E+00 -0.00000000000E+00 -0.14395524994E+03  0.14395525003E+03  0.50400000000E-02 0.  1.
    8880023    1    1    2    0    0  0.51764977905E+02 -0.40966609955E+03  0.11796929485E+04  0.14127956629E+04  0.65864270000E+03 0.  0.
    8880022    1    1    2    0    0 -0.51764977905E+02  0.40966609955E+03  0.17414832917E+04  0.17962910773E+04  0.15294330000E+03 0.  0.
<mgrwt>
<rscale>  0 0.67440475E+03</rscale>
<asrwt>0</asrwt>
<pdfrwt beam="1">  1        1 0.47155870E+00 0.77737773E+03</pdfrwt>
<pdfrwt beam="2">  1       -1 0.22146961E-01 0.77737773E+03</pdfrwt>
<totfact> 0.97637809E+00</totfact>
</mgrwt>
</event>
<event>
 4    1  0.1043382E-007  0.8064666E+03  0.7818608E-02  0.9696984E-01
         -1   -1    0    0    0  501 -0.00000000000E+00  0.00000000000E+00  0.37403777374E+03  0.37403777377E+03  0.50400000000E-02 0.  1.
          1   -1    0    0  501    0  0.00000000000E+00 -0.00000000000E+00 -0.36237870002E+04  0.36237870002E+04  0.50400000000E-02 0. -1.
    8880023    1    1    2    0    0  0.32691306101E+03 -0.33121908988E+03 -0.10281833989E+03  0.81299449705E+03  0.65864270000E+03 0.  0.
    8880022    1    1    2    0    0 -0.32691306101E+03  0.33121908988E+03 -0.31469308866E+04  0.31848302769E+04  0.15294330000E+03 0.  0.
<mgrwt>
<rscale>  0 0.71196624E+03</rscale>
<asrwt>0</asrwt>
<pdfrwt beam="1">  1        1 0.55750567E+00 0.80646664E+03</pdfrwt>
<pdfrwt beam="2">  1       -1 0.57544275E-01 0.80646664E+03</pdfrwt>
<totfact> 0.65961483E-01</totfact>
</mgrwt>
</event>
<event>
 4    1  0.1043382E-007  0.6865525E+03  0.7818608E-02  0.1005836E+00
          1   -1    0    0  501    0  0.00000000000E+00  0.00000000000E+00  0.21213214127E+04  0.21213214127E+04  0.50400000000E-02 0. -1.
         -1   -1    0    0    0  501 -0.00000000000E+00 -0.00000000000E+00 -0.19610561757E+03  0.19610561764E+03  0.50400000000E-02 0.  1.
    8880023    1    1    2    0    0  0.17025606393E+03 -0.92504399925E+02  0.44814477109E+03  0.81987080289E+03  0.65864270000E+03 0.  1.
    8880022    1    1    2    0    0 -0.17025606393E+03  0.92504399925E+02  0.14770710241E+04  0.14975562275E+04  0.15294330000E+03 0.  0.
<mgrwt>
<rscale>  0 0.53163607E+03</rscale>
<asrwt>0</asrwt>
<pdfrwt beam="1">  1        1 0.32635714E+00 0.68655255E+03</pdfrwt>
<pdfrwt beam="2">  1       -1 0.30170095E-01 0.68655255E+03</pdfrwt>
<totfact> 0.26136708E+01</totfact>
</mgrwt>
</event>
<event>
 4    1  0.1043382E-007  0.7701934E+03  0.7818608E-02  0.9779398E-01
         -1   -1    0    0    0  501 -0.00000000000E+00  0.00000000000E+00  0.25467663853E+03  0.25467663858E+03  0.50400000000E-02 0.  1.
          1   -1    0    0  501    0  0.00000000000E+00 -0.00000000000E+00 -0.17849633748E+04  0.17849633748E+04  0.50400000000E-02 0. -1.
    8880023    1    1    2    0    0 -0.17744623425E+03  0.35763179385E+03 -0.48468204503E+03  0.91000799835E+03  0.65864270000E+03 0.  0.
    8880022    1    1    2    0    0  0.17744623425E+03 -0.35763179385E+03 -0.10456046913E+04  0.11296320150E+04  0.15294330000E+03 0.  0.
<mgrwt>
<rscale>  0 0.66479956E+03</rscale>
<asrwt>0</asrwt>
<pdfrwt beam="1">  1        1 0.27460974E+00 0.77019340E+03</pdfrwt>
<pdfrwt beam="2">  1       -1 0.39181022E-01 0.77019340E+03</pdfrwt>
<totfact> 0.27259438E+01</totfact>
</mgrwt>
</event>
<event>
 4    1  0.1043382E-007  0.8201574E+03  0.7818608E-02  0.9668795E-01
          1   -1    0    0  501    0  0.00000000000E+00  0.00000000000E+00  0.20149923349E+04  0.20149923349E+04  0.50400000000E-02 0. -1.
         -1   -1    0    0    0  501 -0.00000000000E+00 -0.00000000000E+00 -0.39093452919E+03  0.39093452922E+03  0.50400000000E-02 0.  1.
    8880023    1    1    2    0    0 -0.11759404487E+03  0.47436236508E+03  0.13489815217E+03  0.83117731593E+03  0.65864270000E+03 0.  1.
    8880022    1    1    2    0    0  0.11759404487E+03 -0.47436236508E+03  0.14891596535E+04  0.15747495482E+04  0.15294330000E+03 0.  0.
<mgrwt>
<rscale>  0 0.72905487E+03</rscale>
<asrwt>0</asrwt>
<pdfrwt beam="1">  1        1 0.30999883E+00 0.82015744E+03</pdfrwt>
<pdfrwt beam="2">  1       -1 0.60143772E-01 0.82015744E+03</pdfrwt>
<totfact> 0.84524991E+00</totfact>
</mgrwt>
</event>
<event>
 4    1  0.1043382E-007  0.7052644E+03  0.7818608E-02  0.9976025E-01
          1   -1    0    0  501    0  0.00000000000E+00  0.00000000000E+00  0.18608923963E+04  0.18608923963E+04  0.50400000000E-02 0. -1.
         -1   -1    0    0    0  501 -0.00000000000E+00 -0.00000000000E+00 -0.48821561518E+03  0.48821561520E+03  0.50400000000E-02 0.  1.
    8880023    1    1    2    0    0  0.20671790980E+02 -0.25131727527E+03 -0.21261531858E+03  0.73661603007E+03  0.65864270000E+03 0.  1.
    8880022    1    1    2    0    0 -0.20671790980E+02  0.25131727527E+03  0.15852920997E+04  0.16124919815E+04  0.15294330000E+03 0.  0.
<mgrwt>
<rscale>  0 0.56714094E+03</rscale>
<asrwt>0</asrwt>
<pdfrwt beam="1">  1        1 0.28629113E+00 0.70526442E+03</pdfrwt>
<pdfrwt beam="2">  1       -1 0.75110097E-01 0.70526442E+03</pdfrwt>
<totfact> 0.69568337E+00</totfact>
</mgrwt>
</event>
<event>
 4    1  0.1043382E-007  0.9666996E+03  0.7818608E-02  0.9426483E-01
          1   -1    0    0  501    0  0.00000000000E+00  0.00000000000E+00  0.13958677298E+04  0.13958677298E+04  0.50400000000E-02 0. -1.
         -1   -1    0    0    0  501 -0.00000000000E+00 -0.00000000000E+00 -0.86598106253E+03  0.86598106254E+03  0.50400000000E-02 0.  1.
    8880023    1    1    2    0    0  0.53874219720E+03 -0.45875352773E+03 -0.43128582574E+03  0.10585441058E+04  0.65864270000E+03 0.  1.
    8880022    1    1    2    0    0 -0.53874219720E+03  0.45875352773E+03  0.96117249298E+03  0.12033046865E+04  0.15294330000E+03 0.  0.
<mgrwt>
<rscale>  0 0.89927880E+03</rscale>
<asrwt>0</asrwt>
<pdfrwt beam="1">  1        1 0.21474888E+00 0.96669962E+03</pdfrwt>
<pdfrwt beam="2">  1       -1 0.13322786E+00 0.96669962E+03</pdfrwt>
<totfact> 0.37181577E+00</totfact>
</mgrwt>
</event>
<event>
 4    1  0.1043382E-007  0.8023870E+03  0.7818608E-02  0.9705658E-01
         -1   -1    0    0    0  501 -0.00000000000E+00  0.00000000000E+00  0.48833024344E+03  0.48833024346E+03  0.50400000000E-02 0.  1.
          1   -1    0    0  501    0  0.00000000000E+00 -0.00000000000E+00 -0.12956153838E+04  0.12956153838E+04  0.50400000000E-02 0. -1.
    8880023    1    1    2    0    0  0.38804804535E+03  0.24378975928E+03  0.45653870983E+02  0.80368477305E+03  0.65864270000E+03 0.  1.
    8880022    1    1    2    0    0 -0.38804804535E+03 -0.24378975928E+03 -0.85293901133E+03  0.98026085421E+03  0.15294330000E+03 0.  0.
<mgrwt>
<rscale>  0 0.70680891E+03</rscale>
<asrwt>0</asrwt>
<pdfrwt beam="1">  1        1 0.19932544E+00 0.80238703E+03</pdfrwt>
<pdfrwt beam="2">  1       -1 0.75127730E-01 0.80238703E+03</pdfrwt>
<totfact> 0.16658599E+01</totfact>
</mgrwt>
</event>
<event>
 4    1  0.1043382E-007  0.6688490E+03  0.7818608E-02  0.1016502E+00
         -1   -1    0    0    0  501 -0.00000000000E+00  0.00000000000E+00  0.14719421630E+03  0.14719421639E+03  0.50400000000E-02 0.  1.
          1   -1    0    0  501    0  0.00000000000E+00 -0.00000000000E+00 -0.16473324431E+04  0.16473324431E+04  0.50400000000E-02 0. -1.
    8880023    1    1    2    0    0  0.11634005997E+03  0.37060429772E+01 -0.68635174446E+03  0.95835153659E+03  0.65864270000E+03 0.  1.
    8880022    1    1    2    0    0 -0.11634005997E+03 -0.37060429772E+01 -0.81378648229E+03  0.83617512286E+03  0.15294330000E+03 0.  0.
<mgrwt>
<rscale>  0 0.48970410E+03</rscale>
<asrwt>0</asrwt>
<pdfrwt beam="1">  1        1 0.25343575E+00 0.66884897E+03</pdfrwt>
<pdfrwt beam="2">  1       -1 0.22645265E-01 0.66884897E+03</pdfrwt>
<totfact> 0.88757999E+01</totfact>
</mgrwt>
</event>
<event>
 4    1  0.1043382E-007  0.7539771E+03  0.7818608E-02  0.9820957E-01
          1   -1    0    0  501    0  0.00000000000E+00  0.00000000000E+00  0.17633384061E+04  0.17633384061E+04  0.50400000000E-02 0. -1.
         -1   -1    0    0    0  501 -0.00000000000E+00 -0.00000000000E+00 -0.19630361583E+03  0.19630361589E+03  0.50400000000E-02 0.  1.
    8880023    1    1    2    0    0 -0.34914819471E+03 -0.11299023306E+03  0.82376662197E+03  0.11167241863E+04  0.65864270000E+03 0. -1.
    8880022    1    1    2    0    0  0.34914819471E+03  0.11299023306E+03  0.74326816833E+03  0.84291783568E+03  0.15294330000E+03 0.  0.
<mgrwt>
<rscale>  0 0.64249886E+03</rscale>
<asrwt>0</asrwt>
<pdfrwt beam="1">  1        1 0.27128283E+00 0.75397710E+03</pdfrwt>
<pdfrwt beam="2">  1       -1 0.30200557E-01 0.75397710E+03</pdfrwt>
<totfact> 0.44862209E+01</totfact>
</mgrwt>
</event>
<event>
 4    1  0.1043382E-007  0.6625666E+03  0.7818608E-02  0.1021668E+00
         -1   -1    0    0    0  501 -0.00000000000E+00  0.00000000000E+00  0.48443813868E+03  0.48443813870E+03  0.50400000000E-02 0.  1.
          1   -1    0    0  501    0  0.00000000000E+00 -0.00000000000E+00 -0.50209546529E+03  0.50209546532E+03  0.50400000000E-02 0. -1.
    8880023    1    1    2    0    0  0.20045318379E+02  0.69155858718E+02  0.21711646354E+03  0.69723318380E+03  0.65864270000E+03 0.  1.
    8880022    1    1    2    0    0 -0.20045318379E+02 -0.69155858718E+02 -0.23477379015E+03  0.28930042022E+03  0.15294330000E+03 0.  0.
<mgrwt>
<rscale>  0 0.47089313E+03</rscale>
<asrwt>0</asrwt>
<pdfrwt beam="1">  1        1 0.77245456E-01 0.66256664E+03</pdfrwt>
<pdfrwt beam="2">  1       -1 0.74528944E-01 0.66256664E+03</pdfrwt>
<totfact> 0.81886505E+01</totfact>
</mgrwt>
</event>
<event>
 4    1  0.1043382E-007  0.1245320E+04  0.7818608E-02  0.9114279E-01
          1   -1    0    0  501    0  0.00000000000E+00  0.00000000000E+00  0.10657724836E+04  0.10657724836E+04  0.50400000000E-02 0. -1.
         -1   -1    0    0    0  501 -0.00000000000E+00 -0.00000000000E+00 -0.13251767892E+04  0.13251767892E+04  0.50400000000E-02 0.  1.
    8880023    1    1    2    0    0  0.10202033140E+04 -0.27603805286E+03 -0.41309909817E+03  0.13120491148E+04  0.65864270000E+03 0.  0.
    8880022    1    1    2    0    0 -0.10202033140E+04  0.27603805286E+03  0.15369479255E+03  0.10789001579E+04  0.15294330000E+03 0.  0.
<mgrwt>
<rscale>  0 0.11983759E+04</rscale>
<asrwt>0</asrwt>
<pdfrwt beam="1">  1        1 0.16396500E+00 0.12453200E+04</pdfrwt>
<pdfrwt beam="2">  1       -1 0.20387335E+00 0.12453200E+04</pdfrwt>
<totfact> 0.18592771E+00</totfact>
</mgrwt>
</event>
<event>
 4    1  0.1043382E-007  0.8137282E+03  0.7818608E-02  0.9681863E-01
          1   -1    0    0  501    0  0.00000000000E+00  0.00000000000E+00  0.33449334860E+03  0.33449334864E+03  0.50400000000E-02 0. -1.
         -1   -1    0    0    0  501 -0.00000000000E+00 -0.00000000000E+00 -0.14660824316E+04  0.14660824316E+04  0.50400000000E-02 0.  1.
    8880023    1    1    2    0    0 -0.33839848412E+03  0.33738673465E+03 -0.98545289130E+03  0.12779948944E+04  0.65864270000E+03 0.  0.
    8880022    1    1    2    0    0  0.33839848412E+03 -0.33738673465E+03 -0.14613619173E+03  0.52258088591E+03  0.15294330000E+03 0.  0.
<mgrwt>
<rscale>  0 0.72107006E+03</rscale>
<asrwt>0</asrwt>
<pdfrwt beam="1">  1        1 0.51460516E-01 0.81372818E+03</pdfrwt>
<pdfrwt beam="2">  1       -1 0.22555114E+00 0.81372818E+03</pdfrwt>
<totfact> 0.78841394E+00</totfact>
</mgrwt>
</event>
<event>
 4    1  0.1043382E-007  0.9465547E+03  0.7818608E-02  0.9455089E-01
         -1   -1    0    0    0  501 -0.00000000000E+00  0.00000000000E+00  0.58973111384E+03  0.58973111386E+03  0.50400000000E-02 0.  1.
          1   -1    0    0  501    0  0.00000000000E+00 -0.00000000000E+00 -0.16687063130E+04  0.16687063130E+04  0.50400000000E-02 0. -1.
    8880023    1    1    2    0    0  0.64084643450E+03  0.22687300502E+03  0.31915520195E+02  0.94709256132E+03  0.65864270000E+03 0.  1.
    8880022    1    1    2    0    0 -0.64084643450E+03 -0.22687300502E+03 -0.11108907193E+04  0.13113448655E+04  0.15294330000E+03 0.  0.
<mgrwt>
<rscale>  0 0.87677509E+03</rscale>
<asrwt>0</asrwt>
<pdfrwt beam="1">  1        1 0.25672405E+00 0.94655466E+03</pdfrwt>
<pdfrwt beam="2">  1       -1 0.90727864E-01 0.94655466E+03</pdfrwt>
<totfact> 0.60245153E+00</totfact>
</mgrwt>
</event>
<event>
 4    1  0.1043382E-007  0.7021824E+03  0.7818608E-02  0.9988265E-01
          1   -1    0    0  501    0  0.00000000000E+00  0.00000000000E+00  0.11104385768E+04  0.11104385768E+04  0.50400000000E-02 0. -1.
         -1   -1    0    0    0  501 -0.00000000000E+00 -0.00000000000E+00 -0.33153974530E+03  0.33153974534E+03  0.50400000000E-02 0.  1.
    8880023    1    1    2    0    0 -0.56922058295E+02 -0.23666388049E+03  0.10586191021E+03  0.71011749967E+03  0.65864270000E+03 0.  1.
    8880022    1    1    2    0    0  0.56922058295E+02  0.23666388049E+03  0.67303692128E+03  0.73186082247E+03  0.15294330000E+03 0.  0.
<mgrwt>
<rscale>  0 0.56167782E+03</rscale>
<asrwt>0</asrwt>
<pdfrwt beam="1">  1        1 0.17083670E+00 0.70218240E+03</pdfrwt>
<pdfrwt beam="2">  1       -1 0.51006115E-01 0.70218240E+03</pdfrwt>
<totfact> 0.49558251E+01</totfact>
</mgrwt>
</event>
<event>
 4    1  0.1043382E-007  0.6944393E+03  0.7818608E-02  0.1002110E+00
         -1   -1    0    0    0  501 -0.00000000000E+00  0.00000000000E+00  0.39889314055E+03  0.39889314058E+03  0.50400000000E-02 0.  1.
          1   -1    0    0  501    0  0.00000000000E+00 -0.00000000000E+00 -0.90811497445E+03  0.90811497447E+03  0.50400000000E-02 0. -1.
    8880023    1    1    2    0    0  0.14359296612E+02 -0.21961217841E+03  0.40307640465E+02  0.69560808682E+03  0.65864270000E+03 0.  1.
    8880022    1    1    2    0    0 -0.14359296612E+02  0.21961217841E+03 -0.54952947437E+03  0.61140002823E+03  0.15294330000E+03 0.  0.
<mgrwt>
<rscale>  0 0.54734599E+03</rscale>
<asrwt>0</asrwt>
<pdfrwt beam="1">  1        1 0.13971000E+00 0.69443927E+03</pdfrwt>
<pdfrwt beam="2">  1       -1 0.61368176E-01 0.69443927E+03</pdfrwt>
<totfact> 0.49671624E+01</totfact>
</mgrwt>
</event>
<event>
 4    1  0.1043382E-007  0.1199324E+04  0.7818608E-02  0.9157780E-01
         -1   -1    0    0    0  501 -0.00000000000E+00  0.00000000000E+00  0.96095200237E+03  0.96095200239E+03  0.50400000000E-02 0.  1.
          1   -1    0    0  501    0  0.00000000000E+00 -0.00000000000E+00 -0.25275581747E+04  0.25275581747E+04  0.50400000000E-02 0. -1.
    8880023    1    1    2    0    0 -0.10000136880E+04 -0.67381364620E+02  0.40964603383E+03  0.12673546085E+04  0.65864270000E+03 0.  0.
    8880022    1    1    2    0    0  0.10000136880E+04  0.67381364620E+02 -0.19762522062E+04  0.22211555686E+04  0.15294330000E+03 0.  0.
<mgrwt>
<rscale>  0 0.11500040E+04</rscale>
<asrwt>0</asrwt>
<pdfrwt beam="1">  1        1 0.38885510E+00 0.11993239E+04</pdfrwt>
<pdfrwt beam="2">  1       -1 0.14783877E+00 0.11993239E+04</pdfrwt>
<totfact> 0.46433420E-01</totfact>
</mgrwt>
</event>
<event>
 4    1  0.1043382E-007  0.7405737E+03  0.7818608E-02  0.9858279E-01
          1   -1    0    0  501    0  0.00000000000E+00  0.00000000000E+00  0.82905184227E+03  0.82905184228E+03  0.50400000000E-02 0. -1.
         -1   -1    0    0    0  501 -0.00000000000E+00 -0.00000000000E+00 -0.60970160408E+03  0.60970160410E+03  0.50400000000E-02 0.  1.
    8880023    1    1    2    0    0  0.27038133982E+03  0.20379678485E+03  0.56485546953E+03  0.93140276259E+03  0.65864270000E+03 0.  0.
    8880022    1    1    2    0    0 -0.27038133982E+03 -0.20379678485E+03 -0.34550523134E+03  0.50735068379E+03  0.15294330000E+03 0.  0.
<mgrwt>
<rscale>  0 0.62326571E+03</rscale>
<asrwt>0</asrwt>
<pdfrwt beam="1">  1        1 0.12754644E+00 0.74057370E+03</pdfrwt>
<pdfrwt beam="2">  1       -1 0.93800248E-01 0.74057370E+03</pdfrwt>
<totfact> 0.23633718E+01</totfact>
</mgrwt>
</event>
<event>
 4    1  0.1043382E-007  0.8874116E+03  0.7818608E-02  0.9546550E-01
         -1   -1    0    0    0  501 -0.00000000000E+00  0.00000000000E+00  0.52086233429E+03  0.52086233432E+03  0.50400000000E-02 0.  1.
          1   -1    0    0  501    0  0.00000000000E+00 -0.00000000000E+00 -0.14998801263E+04  0.14998801263E+04  0.50400000000E-02 0. -1.
    8880023    1    1    2    0    0  0.58039707342E+03 -0.12972448283E+03 -0.26951292593E+02  0.88782080552E+03  0.65864270000E+03 0.  0.
    8880022    1    1    2    0    0 -0.58039707342E+03  0.12972448283E+03 -0.95206649943E+03  0.11329216551E+04  0.15294330000E+03 0.  0.
<mgrwt>
<rscale>  0 0.80937195E+03</rscale>
<asrwt>0</asrwt>
<pdfrwt beam="1">  1        1 0.23075079E+00 0.88741164E+03</pdfrwt>
<pdfrwt beam="2">  1       -1 0.80132667E-01 0.88741164E+03</pdfrwt>
<totfact> 0.10364088E+01</totfact>
</mgrwt>
</event>
<event>
 4    1  0.1043382E-007  0.7890941E+03  0.7818608E-02  0.9734893E-01
         -1   -1    0    0    0  501 -0.00000000000E+00  0.00000000000E+00  0.62155966316E+03  0.62155966318E+03  0.50400000000E-02 0.  1.
          1   -1    0    0  501    0  0.00000000000E+00 -0.00000000000E+00 -0.80285534183E+03  0.80285534184E+03  0.50400000000E-02 0. -1.
    8880023    1    1    2    0    0  0.41421634910E+03 -0.13146889066E+03 -0.43231761618E+03  0.89975995721E+03  0.65864270000E+03 0.  0.
    8880022    1    1    2    0    0 -0.41421634910E+03  0.13146889066E+03  0.25102193752E+03  0.52465504782E+03  0.15294330000E+03 0.  0.
<mgrwt>
<rscale>  0 0.68976758E+03</rscale>
<asrwt>0</asrwt>
<pdfrwt beam="1">  1        1 0.12351621E+00 0.78909408E+03</pdfrwt>
<pdfrwt beam="2">  1       -1 0.95624564E-01 0.78909408E+03</pdfrwt>
<totfact> 0.23712419E+01</totfact>
</mgrwt>
</event>
<event>
 4    1  0.1043382E-007  0.7162948E+03  0.7818608E-02  0.9935328E-01
         -1   -1    0    0    0  501 -0.00000000000E+00  0.00000000000E+00  0.16330960063E+04  0.16330960063E+04  0.50400000000E-02 0.  1.
          1   -1    0    0  501    0  0.00000000000E+00 -0.00000000000E+00 -0.10335093375E+04  0.10335093375E+04  0.50400000000E-02 0. -1.
    8880023    1    1    2    0    0 -0.22259254546E+03 -0.17239680810E+03  0.15263238235E+04  0.16860435111E+04  0.65864270000E+03 0.  1.
    8880022    1    1    2    0    0  0.22259254546E+03  0.17239680810E+03 -0.92673715476E+03  0.98056183271E+03  0.15294330000E+03 0.  0.
<mgrwt>
<rscale>  0 0.58579262E+03</rscale>
<asrwt>0</asrwt>
<pdfrwt beam="1">  1        1 0.15900144E+00 0.71629485E+03</pdfrwt>
<pdfrwt beam="2">  1       -1 0.25124554E+00 0.71629485E+03</pdfrwt>
<totfact> 0.10330105E+00</totfact>
</mgrwt>
</event>
<event>
 4    1  0.1043382E-007  0.6640043E+03  0.7818608E-02  0.1020384E+00
         -1   -1    0    0    0  501 -0.00000000000E+00  0.00000000000E+00  0.32478126511E+03  0.32478126514E+03  0.50400000000E-02 0.  1.
          1   -1    0    0  501    0  0.00000000000E+00 -0.00000000000E+00 -0.14580154923E+04  0.14580154923E+04  0.50400000000E-02 0. -1.
    8880023    1    1    2    0    0  0.12786423016E+02 -0.83234477904E+02 -0.28780094352E+02  0.66462769354E+03  0.65864270000E+03 0.  1.
    8880022    1    1    2    0    0 -0.12786423016E+02  0.83234477904E+02 -0.11044541328E+04  0.11181690639E+04  0.15294330000E+03 0.  0.
<mgrwt>
<rscale>  0 0.47548365E+03</rscale>
<asrwt>0</asrwt>
<pdfrwt beam="1">  1        1 0.22431007E+00 0.66400427E+03</pdfrwt>
<pdfrwt beam="2">  1       -1 0.49966349E-01 0.66400427E+03</pdfrwt>
<totfact> 0.29336681E+01</totfact>
</mgrwt>
</event>
<event>
 4    1  0.1043382E-007  0.9938420E+03  0.7818608E-02  0.9389659E-01
         -1   -1    0    0    0  501 -0.00000000000E+00  0.00000000000E+00  0.56717626294E+03  0.56717626297E+03  0.50400000000E-02 0.  1.
          1   -1    0    0  501    0  0.00000000000E+00 -0.00000000000E+00 -0.14932185319E+04  0.14932185319E+04  0.50400000000E-02 0. -1.
    8880023    1    1    2    0    0 -0.24709944690E+03 -0.70203536427E+03 -0.20881617938E+03  0.10155423144E+04  0.65864270000E+03 0. -1.
    8880022    1    1    2    0    0  0.24709944690E+03  0.70203536427E+03 -0.71722608958E+03  0.10448524805E+04  0.15294330000E+03 0.  0.
<mgrwt>
<rscale>  0 0.92931627E+03</rscale>
<asrwt>0</asrwt>
<pdfrwt beam="1">  1        1 0.22972593E+00 0.99384204E+03</pdfrwt>
<pdfrwt beam="2">  1       -1 0.87257887E-01 0.99384204E+03</pdfrwt>
<totfact> 0.86055698E+00</totfact>
</mgrwt>
</event>
<event>
 4    1  0.1043382E-007  0.9005399E+03  0.7818608E-02  0.9525166E-01
          1   -1    0    0  501    0  0.00000000000E+00  0.00000000000E+00  0.48787212123E+03  0.48787212126E+03  0.50400000000E-02 0. -1.
         -1   -1    0    0    0  501 -0.00000000000E+00 -0.00000000000E+00 -0.21569197014E+04  0.21569197014E+04  0.50400000000E-02 0.  1.
    8880023    1    1    2    0    0  0.61223380452E+03  0.48286486776E+02 -0.17869222561E+04  0.20010155351E+04  0.65864270000E+03 0.  1.
    8880022    1    1    2    0    0 -0.61223380452E+03 -0.48286486776E+02  0.11787467591E+03  0.64377628757E+03  0.15294330000E+03 0.  0.
<mgrwt>
<rscale>  0 0.82453627E+03</rscale>
<asrwt>0</asrwt>
<pdfrwt beam="1">  1        1 0.75057251E-01 0.90053985E+03</pdfrwt>
<pdfrwt beam="2">  1       -1 0.33183379E+00 0.90053985E+03</pdfrwt>
<totfact> 0.97026543E-01</totfact>
</mgrwt>
</event>
<event>
 4    1  0.1043382E-007  0.8527389E+03  0.7818608E-02  0.9606612E-01
          1   -1    0    0  501    0  0.00000000000E+00  0.00000000000E+00  0.51630887075E+03  0.51630887078E+03  0.50400000000E-02 0. -1.
         -1   -1    0    0    0  501 -0.00000000000E+00 -0.00000000000E+00 -0.13051748588E+04  0.13051748588E+04  0.50400000000E-02 0.  1.
    8880023    1    1    2    0    0 -0.34498467743E+03 -0.41753918286E+03 -0.90860663281E+03  0.12460857179E+04  0.65864270000E+03 0.  1.
    8880022    1    1    2    0    0  0.34498467743E+03  0.41753918286E+03  0.11974064474E+03  0.57539801173E+03  0.15294330000E+03 0.  0.
<mgrwt>
<rscale>  0 0.76860071E+03</rscale>
<asrwt>0</asrwt>
<pdfrwt beam="1">  1        1 0.79432135E-01 0.85273888E+03</pdfrwt>
<pdfrwt beam="2">  1       -1 0.20079613E+00 0.85273888E+03</pdfrwt>
<totfact> 0.64313432E+00</totfact>
</mgrwt>
</event>
<event>
 4    1  0.1043382E-007  0.6600479E+03  0.7818608E-02  0.1024107E+00
         -1   -1    0    0    0  501 -0.00000000000E+00  0.00000000000E+00  0.21763071574E+03  0.21763071579E+03  0.50400000000E-02 0.  1.
          1   -1    0    0  501    0  0.00000000000E+00 -0.00000000000E+00 -0.28587224941E+04  0.28587224941E+04  0.50400000000E-02 0. -1.
    8880023    1    1    2    0    0  0.42779002858E+02  0.47983149765E+01 -0.29176174766E+03  0.72165655999E+03  0.65864270000E+03 0.  1.
    8880022    1    1    2    0    0 -0.42779002858E+02 -0.47983149765E+01 -0.23493300307E+04  0.23546966499E+04  0.15294330000E+03 0.  0.
<mgrwt>
<rscale>  0 0.46233091E+03</rscale>
<asrwt>0</asrwt>
<pdfrwt beam="1">  1        1 0.43980343E+00 0.66004793E+03</pdfrwt>
<pdfrwt beam="2">  1       -1 0.33481651E-01 0.66004793E+03</pdfrwt>
<totfact> 0.68689669E+00</totfact>
</mgrwt>
</event>
<event>
 4    1  0.1043382E-007  0.6992304E+03  0.7818608E-02  0.1000041E+00
         -1   -1    0    0    0  501 -0.00000000000E+00  0.00000000000E+00  0.47499605905E+03  0.47499605907E+03  0.50400000000E-02 0.  1.
          1   -1    0    0  501    0  0.00000000000E+00 -0.00000000000E+00 -0.52026813989E+03  0.52026813992E+03  0.50400000000E-02 0. -1.
    8880023    1    1    2    0    0 -0.18667184546E+03 -0.14236081723E+03  0.45583764280E+02  0.70071468231E+03  0.65864270000E+03 0.  0.
    8880022    1    1    2    0    0  0.18667184546E+03  0.14236081723E+03 -0.90855845128E+02  0.29454951668E+03  0.15294330000E+03 0.  1.
<mgrwt>
<rscale>  0 0.55632317E+03</rscale>
<asrwt>0</asrwt>
<pdfrwt beam="1">  1        1 0.80041253E-01 0.69923042E+03</pdfrwt>
<pdfrwt beam="2">  1       -1 0.73076316E-01 0.69923042E+03</pdfrwt>
<totfact> 0.80980948E+01</totfact>
</mgrwt>
</event>
<event>
 4    1  0.1043382E-007  0.6626216E+03  0.7818608E-02  0.1021618E+00
          1   -1    0    0  501    0  0.00000000000E+00  0.00000000000E+00  0.15481100919E+04  0.15481100919E+04  0.50400000000E-02 0. -1.
         -1   -1    0    0    0  501 -0.00000000000E+00 -0.00000000000E+00 -0.51718019137E+03  0.51718019139E+03  0.50400000000E-02 0.  1.
    8880023    1    1    2    0    0 -0.70990059092E+02 -0.14748959868E+02 -0.29734177114E+03  0.72627780872E+03  0.65864270000E+03 0.  1.
    8880022    1    1    2    0    0  0.70990059092E+02  0.14748959868E+02  0.13282716717E+04  0.13390124746E+04  0.15294330000E+03 0.  0.
<mgrwt>
<rscale>  0 0.47107214E+03</rscale>
<asrwt>0</asrwt>
<pdfrwt beam="1">  1        1 0.23817078E+00 0.66262156E+03</pdfrwt>
<pdfrwt beam="2">  1       -1 0.79566184E-01 0.66262156E+03</pdfrwt>
<totfact> 0.10076073E+01</totfact>
</mgrwt>
</event>
<event>
 4    1  0.1043382E-007  0.8156544E+03  0.7818608E-02  0.9677917E-01
         -1   -1    0    0    0  501 -0.00000000000E+00  0.00000000000E+00  0.10012197257E+04  0.10012197257E+04  0.50400000000E-02 0.  1.
          1   -1    0    0  501    0  0.00000000000E+00 -0.00000000000E+00 -0.10224784892E+04  0.10224784892E+04  0.50400000000E-02 0. -1.
    8880023    1    1    2    0    0 -0.11178421699E+03 -0.46795956837E+03  0.74592648155E+03  0.11053046598E+04  0.65864270000E+03 0.  1.
    8880022    1    1    2    0    0  0.11178421699E+03  0.46795956837E+03 -0.76718524511E+03  0.91839355514E+03  0.15294330000E+03 0.  0.
<mgrwt>
<rscale>  0 0.72346949E+03</rscale>
<asrwt>0</asrwt>
<pdfrwt beam="1">  1        1 0.15730438E+00 0.81565438E+03</pdfrwt>
<pdfrwt beam="2">  1       -1 0.15403380E+00 0.81565438E+03</pdfrwt>
<totfact> 0.48441187E+00</totfact>
</mgrwt>
</event>
<event>
 4    1  0.1043382E-007  0.8456333E+03  0.7818608E-02  0.9619648E-01
          1   -1    0    0  501    0  0.00000000000E+00  0.00000000000E+00  0.14042440225E+04  0.14042440225E+04  0.50400000000E-02 0. -1.
         -1   -1    0    0    0  501 -0.00000000000E+00 -0.00000000000E+00 -0.44092359369E+03  0.44092359372E+03  0.50400000000E-02 0.  1.
    8880023    1    1    2    0    0 -0.50885880041E+03 -0.14949318423E+03  0.14482793405E+03  0.85794570203E+03  0.65864270000E+03 0.  0.
    8880022    1    1    2    0    0  0.50885880041E+03  0.14949318423E+03  0.81849249471E+03  0.98722191416E+03  0.15294330000E+03 0.  0.
<mgrwt>
<rscale>  0 0.76009267E+03</rscale>
<asrwt>0</asrwt>
<pdfrwt beam="1">  1        1 0.21603754E+00 0.84563331E+03</pdfrwt>
<pdfrwt beam="2">  1       -1 0.67834401E-01 0.84563331E+03</pdfrwt>
<totfact> 0.17158228E+01</totfact>
</mgrwt>
</event>
<event>
 4    1  0.1043382E-007  0.9008683E+03  0.7818608E-02  0.9524639E-01
         -1   -1    0    0    0  501 -0.00000000000E+00  0.00000000000E+00  0.46291144245E+03  0.46291144248E+03  0.50400000000E-02 0.  1.
          1   -1    0    0  501    0  0.00000000000E+00 -0.00000000000E+00 -0.16645949631E+04  0.16645949631E+04  0.50400000000E-02 0. -1.
    8880023    1    1    2    0    0  0.53835067226E+03 -0.29653335105E+03 -0.16977006004E+03  0.91672545190E+03  0.65864270000E+03 0.  1.
    8880022    1    1    2    0    0 -0.53835067226E+03  0.29653335105E+03 -0.10319134606E+04  0.12107809537E+04  0.15294330000E+03 0.  0.
<mgrwt>
<rscale>  0 0.82491399E+03</rscale>
<asrwt>0</asrwt>
<pdfrwt beam="1">  1        1 0.25609153E+00 0.90086829E+03</pdfrwt>
<pdfrwt beam="2">  1       -1 0.71217146E-01 0.90086829E+03</pdfrwt>
<totfact> 0.10227178E+01</totfact>
</mgrwt>
</event>
<event>
 4    1  0.1043382E-007  0.9709106E+03  0.7818608E-02  0.9420646E-01
         -1   -1    0    0    0  501 -0.00000000000E+00  0.00000000000E+00  0.95256750315E+03  0.95256750316E+03  0.50400000000E-02 0.  1.
          1   -1    0    0  501    0  0.00000000000E+00 -0.00000000000E+00 -0.19131334988E+04  0.19131334988E+04  0.50400000000E-02 0. -1.
    8880023    1    1    2    0    0 -0.64634652289E+03  0.30181683961E+03  0.60117295362E+03  0.11419616275E+04  0.65864270000E+03 0.  1.
    8880022    1    1    2    0    0  0.64634652289E+03 -0.30181683961E+03 -0.15617389493E+04  0.17237393745E+04  0.15294330000E+03 0.  0.
<mgrwt>
<rscale>  0 0.90395911E+03</rscale>
<asrwt>0</asrwt>
<pdfrwt beam="1">  1        1 0.29432823E+00 0.97091062E+03</pdfrwt>
<pdfrwt beam="2">  1       -1 0.14654885E+00 0.97091062E+03</pdfrwt>
<totfact> 0.12860892E+00</totfact>
</mgrwt>
</event>
<event>
 4    1  0.1043382E-007  0.8998009E+03  0.7818608E-02  0.9526351E-01
          1   -1    0    0  501    0  0.00000000000E+00  0.00000000000E+00  0.23923115835E+04  0.23923115835E+04  0.50400000000E-02 0. -1.
         -1   -1    0    0    0  501 -0.00000000000E+00 -0.00000000000E+00 -0.42964684285E+03  0.42964684288E+03  0.50400000000E-02 0.  1.
    8880023    1    1    2    0    0 -0.58686520214E+03 -0.17725866778E+03  0.16279819210E+03  0.91440956819E+03  0.65864270000E+03 0. -1.
    8880022    1    1    2    0    0  0.58686520214E+03  0.17725866778E+03  0.17998665485E+04  0.19075488582E+04  0.15294330000E+03 0.  0.
<mgrwt>
<rscale>  0 0.82368614E+03</rscale>
<asrwt>0</asrwt>
<pdfrwt beam="1">  1        1 0.36804793E+00 0.89980087E+03</pdfrwt>
<pdfrwt beam="2">  1       -1 0.66099515E-01 0.89980087E+03</pdfrwt>
<totfact> 0.38493472E+00</totfact>
</mgrwt>
</event>
<event>
 4    1  0.1043382E-007  0.6889004E+03  0.7818608E-02  0.1004680E+00
          1   -1    0    0  501    0  0.00000000000E+00  0.00000000000E+00  0.42507134599E+03  0.42507134602E+03  0.50400000000E-02 0. -1.
         -1   -1    0    0    0  501 -0.00000000000E+00 -0.00000000000E+00 -0.69949053994E+03  0.69949053996E+03  0.50400000000E-02 0.  1.
    8880023    1    1    2    0    0  0.10269524161E+02  0.20166344154E+03 -0.44413125088E+03  0.81965625786E+03  0.65864270000E+03 0.  1.
    8880022    1    1    2    0    0 -0.10269524161E+02 -0.20166344154E+03  0.16971205693E+03  0.30490562812E+03  0.15294330000E+03 0.  0.
<mgrwt>
<rscale>  0 0.53645073E+03</rscale>
<asrwt>0</asrwt>
<pdfrwt beam="1">  1        1 0.65395592E-01 0.68890044E+03</pdfrwt>
<pdfrwt beam="2">  1       -1 0.10761393E+00 0.68890044E+03</pdfrwt>
<totfact> 0.45644358E+01</totfact>
</mgrwt>
</event>
<event>
 4    1  0.1043382E-007  0.7262407E+03  0.7818608E-02  0.9902009E-01
         -1   -1    0    0    0  501 -0.00000000000E+00  0.00000000000E+00  0.12007284822E+03  0.12007284832E+03  0.50400000000E-02 0.  1.
          1   -1    0    0  501    0  0.00000000000E+00 -0.00000000000E+00 -0.36200307134E+04  0.36200307134E+04  0.50400000000E-02 0. -1.
    8880023    1    1    2    0    0 -0.29575599654E+03  0.78382365843E+02 -0.11144579667E+04  0.13302038079E+04  0.65864270000E+03 0.  0.
    8880022    1    1    2    0    0  0.29575599654E+03 -0.78382365843E+02 -0.23854998985E+04  0.24098997538E+04  0.15294330000E+03 0.  0.
<mgrwt>
<rscale>  0 0.60164036E+03</rscale>
<asrwt>0</asrwt>
<pdfrwt beam="1">  1        1 0.55692772E+00 0.72624074E+03</pdfrwt>
<pdfrwt beam="2">  1       -1 0.18472749E-01 0.72624074E+03</pdfrwt>
<totfact> 0.50859817E+00</totfact>
</mgrwt>
</event>
<event>
 4    1  0.1043382E-007  0.6928919E+03  0.7818608E-02  0.1002807E+00
         -1   -1    0    0    0  501 -0.00000000000E+00  0.00000000000E+00  0.38290217887E+03  0.38290217890E+03  0.50400000000E-02 0.  1.
          1   -1    0    0  501    0  0.00000000000E+00 -0.00000000000E+00 -0.21773160835E+04  0.21773160835E+04  0.50400000000E-02 0. -1.
    8880023    1    1    2    0    0 -0.41900494945E+02  0.21102927554E+03  0.52178599344E+02  0.69485381132E+03  0.65864270000E+03 0.  1.
    8880022    1    1    2    0    0  0.41900494945E+02 -0.21102927554E+03 -0.18465925039E+04  0.18653644511E+04  0.15294330000E+03 0.  0.
<mgrwt>
<rscale>  0 0.54436244E+03</rscale>
<asrwt>0</asrwt>
<pdfrwt beam="1">  1        1 0.33497170E+00 0.69289192E+03</pdfrwt>
<pdfrwt beam="2">  1       -1 0.58908029E-01 0.69289192E+03</pdfrwt>
<totfact> 0.70003235E+00</totfact>
</mgrwt>
</event>
<event>
 4    1  0.1043382E-007  0.7499909E+03  0.7818608E-02  0.9831745E-01
         -1   -1    0    0    0  501 -0.00000000000E+00  0.00000000000E+00  0.22781306431E+03  0.22781306436E+03  0.50400000000E-02 0.  1.
          1   -1    0    0  501    0  0.00000000000E+00 -0.00000000000E+00 -0.25964995471E+04  0.25964995472E+04  0.50400000000E-02 0. -1.
    8880023    1    1    2    0    0  0.14842328819E+03  0.32656805754E+03 -0.46799040850E+03  0.88402567689E+03  0.65864270000E+03 0.  1.
    8880022    1    1    2    0    0 -0.14842328819E+03 -0.32656805754E+03 -0.19006960743E+04  0.19402869346E+04  0.15294330000E+03 0.  0.
<mgrwt>
<rscale>  0 0.63686395E+03</rscale>
<asrwt>0</asrwt>
<pdfrwt beam="1">  1        1 0.39946145E+00 0.74999092E+03</pdfrwt>
<pdfrwt beam="2">  1       -1 0.35048166E-01 0.74999092E+03</pdfrwt>
<totfact> 0.94799898E+00</totfact>
</mgrwt>
</event>
<event>
 4    1  0.1043382E-007  0.6818903E+03  0.7818608E-02  0.1008274E+00
          1   -1    0    0  501    0  0.00000000000E+00  0.00000000000E+00  0.16494377197E+04  0.16494377197E+04  0.50400000000E-02 0. -1.
         -1   -1    0    0    0  501 -0.00000000000E+00 -0.00000000000E+00 -0.31045403146E+03  0.31045403150E+03  0.50400000000E-02 0.  1.
    8880023    1    1    2    0    0  0.13654907882E+03  0.11188625595E+03  0.88298911258E+02  0.68758351434E+03  0.65864270000E+03 0.  1.
    8880022    1    1    2    0    0 -0.13654907882E+03 -0.11188625595E+03  0.12506847769E+04  0.12723082368E+04  0.15294330000E+03 0.  0.
<mgrwt>
<rscale>  0 0.52166421E+03</rscale>
<asrwt>0</asrwt>
<pdfrwt beam="1">  1        1 0.25375965E+00 0.68189031E+03</pdfrwt>
<pdfrwt beam="2">  1       -1 0.47762158E-01 0.68189031E+03</pdfrwt>
<totfact> 0.23615416E+01</totfact>
</mgrwt>
</event>
<event>
 4    1  0.1043382E-007  0.1040371E+04  0.7818608E-02  0.9330548E-01
          1   -1    0    0  501    0  0.00000000000E+00  0.00000000000E+00  0.23397584137E+04  0.23397584137E+04  0.50400000000E-02 0. -1.
         -1   -1    0    0    0  501 -0.00000000000E+00 -0.00000000000E+00 -0.39587254708E+03  0.39587254711E+03  0.50400000000E-02 0.  1.
    8880023    1    1    2    0    0 -0.59841573635E+03 -0.53894317157E+03  0.14290416158E+04  0.17676343744E+04  0.65864270000E+03 0.  0.
    8880022    1    1    2    0    0  0.59841573635E+03  0.53894317157E+03  0.51484425086E+03  0.96799658643E+03  0.15294330000E+03 0.  0.
<mgrwt>
<rscale>  0 0.98018590E+03</rscale>
<asrwt>0</asrwt>
<pdfrwt beam="1">  1        1 0.35996283E+00 0.10403708E+04</pdfrwt>
<pdfrwt beam="2">  1       -1 0.60903469E-01 0.10403708E+04</pdfrwt>
<totfact> 0.48308496E+00</totfact>
</mgrwt>
</event>
<event>
 4    1  0.1043382E-007  0.6660999E+03  0.7818608E-02  0.1018628E+00
          1   -1    0    0  501    0  0.00000000000E+00  0.00000000000E+00  0.72989712491E+03  0.72989712493E+03  0.50400000000E-02 0. -1.
         -1   -1    0    0    0  501 -0.00000000000E+00 -0.00000000000E+00 -0.33101661335E+03  0.33101661338E+03  0.50400000000E-02 0.  1.
    8880023    1    1    2    0    0  0.95095372891E+02  0.28909887538E+02  0.50919949110E+02  0.66804338109E+03  0.65864270000E+03 0.  1.
    8880022    1    1    2    0    0 -0.95095372891E+02 -0.28909887538E+02  0.34796056245E+03  0.39287035722E+03  0.15294330000E+03 0.  0.
<mgrwt>
<rscale>  0 0.48185022E+03</rscale>
<asrwt>0</asrwt>
<pdfrwt beam="1">  1        1 0.11229187E+00 0.66609993E+03</pdfrwt>
<pdfrwt beam="2">  1       -1 0.50925633E-01 0.66609993E+03</pdfrwt>
<totfact> 0.10149327E+02</totfact>
</mgrwt>
</event>
<event>
 4    1  0.1043382E-007  0.7584705E+03  0.7818608E-02  0.9809083E-01
         -1   -1    0    0    0  501 -0.00000000000E+00  0.00000000000E+00  0.80507852267E+03  0.80507852268E+03  0.50400000000E-02 0.  1.
          1   -1    0    0  501    0  0.00000000000E+00 -0.00000000000E+00 -0.89340701036E+03  0.89340701038E+03  0.50400000000E-02 0. -1.
    8880023    1    1    2    0    0 -0.35009541471E+03 -0.13747910006E+03  0.55353727365E+03  0.93897871219E+03  0.65864270000E+03 0.  0.
    8880022    1    1    2    0    0  0.35009541471E+03  0.13747910006E+03 -0.64186576135E+03  0.75950682087E+03  0.15294330000E+03 0.  0.
<mgrwt>
<rscale>  0 0.64877348E+03</rscale>
<asrwt>0</asrwt>
<pdfrwt beam="1">  1        1 0.13744723E+00 0.75847051E+03</pdfrwt>
<pdfrwt beam="2">  1       -1 0.12385823E+00 0.75847051E+03</pdfrwt>
<totfact> 0.10867447E+01</totfact>
</mgrwt>
</event>
<event>
 4    1  0.1043382E-007  0.9205877E+03  0.7818608E-02  0.9493758E-01
          1   -1    0    0  501    0  0.00000000000E+00  0.00000000000E+00  0.10024147726E+04  0.10024147727E+04  0.50400000000E-02 0. -1.
         -1   -1    0    0    0  501 -0.00000000000E+00 -0.00000000000E+00 -0.16382926281E+04  0.16382926281E+04  0.50400000000E-02 0.  1.
    8880023    1    1    2    0    0 -0.59222151365E+03 -0.25088886179E+03 -0.13714050297E+04  0.16517365117E+04  0.65864270000E+03 0.  1.
    8880022    1    1    2    0    0  0.59222151365E+03  0.25088886179E+03  0.73552717431E+03  0.98897088904E+03  0.15294330000E+03 0.  0.
<mgrwt>
<rscale>  0 0.84745552E+03</rscale>
<asrwt>0</asrwt>
<pdfrwt beam="1">  1        1 0.15421766E+00 0.92058772E+03</pdfrwt>
<pdfrwt beam="2">  1       -1 0.25204502E+00 0.92058772E+03</pdfrwt>
<totfact> 0.10395858E+00</totfact>
</mgrwt>
</event>
<event>
 4    1  0.1043382E-007  0.1125021E+04  0.7818608E-02  0.9233697E-01
          1   -1    0    0  501    0  0.00000000000E+00  0.00000000000E+00  0.31541536119E+04  0.31541536119E+04  0.50400000000E-02 0. -1.
         -1   -1    0    0    0  501 -0.00000000000E+00 -0.00000000000E+00 -0.53311924579E+03  0.53311924582E+03  0.50400000000E-02 0.  1.
    8880023    1    1    2    0    0  0.81030128930E+03 -0.41865662717E+03  0.26439403198E+03  0.11556712168E+04  0.65864270000E+03 0.  0.
    8880022    1    1    2    0    0 -0.81030128930E+03  0.41865662717E+03  0.23566403341E+04  0.25316016409E+04  0.15294330000E+03 0.  0.
<mgrwt>
<rscale>  0 0.10712288E+04</rscale>
<asrwt>0</asrwt>
<pdfrwt beam="1">  1        1 0.48525442E+00 0.11250208E+04</pdfrwt>
<pdfrwt beam="2">  1       -1 0.82018343E-01 0.11250208E+04</pdfrwt>
<totfact> 0.68780324E-01</totfact>
</mgrwt>
</event>
<event>
 4    1  0.1043382E-007  0.7456857E+03  0.7818608E-02  0.9843684E-01
          1   -1    0    0  501    0  0.00000000000E+00  0.00000000000E+00  0.14148096843E+04  0.14148096843E+04  0.50400000000E-02 0. -1.
         -1   -1    0    0    0  501 -0.00000000000E+00 -0.00000000000E+00 -0.24392139775E+03  0.24392139781E+03  0.50400000000E-02 0.  1.
    8880023    1    1    2    0    0  0.33308075997E+03 -0.10627369279E+03  0.53730833417E+03  0.91910137780E+03  0.65864270000E+03 0.  0.
    8880022    1    1    2    0    0 -0.33308075997E+03  0.10627369279E+03  0.63357995240E+03  0.73962970433E+03  0.15294330000E+03 0.  1.
<mgrwt>
<rscale>  0 0.63069974E+03</rscale>
<asrwt>0</asrwt>
<pdfrwt beam="1">  1        1 0.21766303E+00 0.74568566E+03</pdfrwt>
<pdfrwt beam="2">  1       -1 0.37526369E-01 0.74568566E+03</pdfrwt>
<totfact> 0.52727412E+01</totfact>
</mgrwt>
</event>
<event>
 4    1  0.1043382E-007  0.7043331E+03  0.7818608E-02  0.9979679E-01
         -1   -1    0    0    0  501 -0.00000000000E+00  0.00000000000E+00  0.30592292722E+03  0.30592292726E+03  0.50400000000E-02 0.  1.
          1   -1    0    0  501    0  0.00000000000E+00 -0.00000000000E+00 -0.89947273909E+03  0.89947273910E+03  0.50400000000E-02 0. -1.
    8880023    1    1    2    0    0  0.20718251263E+02  0.24868789011E+03 -0.23489286263E+03  0.74246870358E+03  0.65864270000E+03 0.  1.
    8880022    1    1    2    0    0 -0.20718251263E+02 -0.24868789011E+03 -0.35865694924E+03  0.46292696279E+03  0.15294330000E+03 0.  0.
<mgrwt>
<rscale>  0 0.56550311E+03</rscale>
<asrwt>0</asrwt>
<pdfrwt beam="1">  1        1 0.13838042E+00 0.70433310E+03</pdfrwt>
<pdfrwt beam="2">  1       -1 0.47065066E-01 0.70433310E+03</pdfrwt>
<totfact> 0.83971389E+01</totfact>
</mgrwt>
</event>
<event>
 4    1  0.1043382E-007  0.8004340E+03  0.7818608E-02  0.9709858E-01
         -1   -1    0    0    0  501 -0.00000000000E+00  0.00000000000E+00  0.35383118448E+03  0.35383118452E+03  0.50400000000E-02 0.  1.
          1   -1    0    0  501    0  0.00000000000E+00 -0.00000000000E+00 -0.22236615865E+04  0.22236615865E+04  0.50400000000E-02 0. -1.
    8880023    1    1    2    0    0 -0.44660538358E+03 -0.86186056138E+02 -0.17942927266E+03  0.82029840611E+03  0.65864270000E+03 0.  0.
    8880022    1    1    2    0    0  0.44660538358E+03  0.86186056138E+02 -0.16904011294E+04  0.17571943649E+04  0.15294330000E+03 0.  0.
<mgrwt>
<rscale>  0 0.70432848E+03</rscale>
<asrwt>0</asrwt>
<pdfrwt beam="1">  1        1 0.34210177E+00 0.80043401E+03</pdfrwt>
<pdfrwt beam="2">  1       -1 0.54435568E-01 0.80043401E+03</pdfrwt>
<totfact> 0.74607078E+00</totfact>
</mgrwt>
</event>
<event>
 4    1  0.1043382E-007  0.6640106E+03  0.7818608E-02  0.1020378E+00
          1   -1    0    0  501    0  0.00000000000E+00  0.00000000000E+00  0.29819435488E+04  0.29819435488E+04  0.50400000000E-02 0. -1.
         -1   -1    0    0    0  501 -0.00000000000E+00 -0.00000000000E+00 -0.40290443431E+03  0.40290443434E+03  0.50400000000E-02 0.  1.
    8880023    1    1    2    0    0  0.78016344666E+02  0.31832720880E+02 -0.12457957314E+03  0.67559614302E+03  0.65864270000E+03 0.  1.
    8880022    1    1    2    0    0 -0.78016344666E+02 -0.31832720880E+02  0.27036186876E+04  0.27092518401E+04  0.15294330000E+03 0.  0.
<mgrwt>
<rscale>  0 0.47550343E+03</rscale>
<asrwt>0</asrwt>
<pdfrwt beam="1">  1        1 0.45876052E+00 0.66401060E+03</pdfrwt>
<pdfrwt beam="2">  1       -1 0.61985301E-01 0.66401060E+03</pdfrwt>
<totfact> 0.17830170E+00</totfact>
</mgrwt>
</event>
<event>
 4    1  0.1043382E-007  0.6870197E+03  0.7818608E-02  0.1005602E+00
         -1   -1    0    0    0  501 -0.00000000000E+00  0.00000000000E+00  0.55907307931E+03  0.55907307933E+03  0.50400000000E-02 0.  1.
          1   -1    0    0  501    0  0.00000000000E+00 -0.00000000000E+00 -0.11859597707E+04  0.11859597707E+04  0.50400000000E-02 0. -1.
    8880023    1    1    2    0    0  0.19229580243E+03  0.34758752585E+02  0.32594493283E+03  0.76041840589E+03  0.65864270000E+03 0.  1.
    8880022    1    1    2    0    0 -0.19229580243E+03 -0.34758752585E+02 -0.95283162423E+03  0.98461444417E+03  0.15294330000E+03 0.  0.
<mgrwt>
<rscale>  0 0.53260427E+03</rscale>
<asrwt>0</asrwt>
<pdfrwt beam="1">  1        1 0.18245535E+00 0.68701969E+03</pdfrwt>
<pdfrwt beam="2">  1       -1 0.86011243E-01 0.68701969E+03</pdfrwt>
<totfact> 0.15205871E+01</totfact>
</mgrwt>
</event>
<event>
 4    1  0.1043382E-007  0.6612043E+03  0.7818608E-02  0.1022955E+00
          1   -1    0    0  501    0  0.00000000000E+00  0.00000000000E+00  0.18253008512E+04  0.18253008512E+04  0.50400000000E-02 0. -1.
         -1   -1    0    0    0  501 -0.00000000000E+00 -0.00000000000E+00 -0.16087786689E+03  0.16087786697E+03  0.50400000000E-02 0.  1.
    8880023    1    1    2    0    0  0.56360252848E+02 -0.14299451494E+02  0.55070094625E+03  0.86050141829E+03  0.65864270000E+03 0.  1.
    8880022    1    1    2    0    0 -0.56360252848E+02  0.14299451494E+02  0.11137220380E+04  0.11256772998E+04  0.15294330000E+03 0.  0.
<mgrwt>
<rscale>  0 0.46635119E+03</rscale>
<asrwt>0</asrwt>
<pdfrwt beam="1">  1        1 0.28081553E+00 0.66120432E+03</pdfrwt>
<pdfrwt beam="2">  1       -1 0.24750440E-01 0.66120432E+03</pdfrwt>
<totfact> 0.58089937E+01</totfact>
</mgrwt>
</event>
<event>
 4    1  0.1043382E-007  0.6905249E+03  0.7818608E-02  0.1003904E+00
         -1   -1    0    0    0  501 -0.00000000000E+00  0.00000000000E+00  0.96715818459E+03  0.96715818460E+03  0.50400000000E-02 0.  1.
          1   -1    0    0  501    0  0.00000000000E+00 -0.00000000000E+00 -0.62802102747E+03  0.62802102749E+03  0.50400000000E-02 0. -1.
    8880023    1    1    2    0    0  0.72980688665E+01  0.20727075109E+03  0.80634861273E+03  0.10616132618E+04  0.65864270000E+03 0.  1.
    8880022    1    1    2    0    0 -0.72980688665E+01 -0.20727075109E+03 -0.46721145561E+03  0.53356595032E+03  0.15294330000E+03 0.  0.
<mgrwt>
<rscale>  0 0.53971003E+03</rscale>
<asrwt>0</asrwt>
<pdfrwt beam="1">  1        1 0.96618620E-01 0.69052490E+03</pdfrwt>
<pdfrwt beam="2">  1       -1 0.14879357E+00 0.69052490E+03</pdfrwt>
<totfact> 0.11854261E+01</totfact>
</mgrwt>
</event>
<event>
 4    1  0.1043382E-007  0.8465092E+03  0.7818608E-02  0.9618027E-01
         -1   -1    0    0    0  501 -0.00000000000E+00  0.00000000000E+00  0.50639719495E+03  0.50639719498E+03  0.50400000000E-02 0.  1.
          1   -1    0    0  501    0  0.00000000000E+00 -0.00000000000E+00 -0.14263111083E+04  0.14263111083E+04  0.50400000000E-02 0. -1.
    8880023    1    1    2    0    0 -0.27669668078E+03 -0.45409978681E+03  0.14641629825E+02  0.84663584446E+03  0.65864270000E+03 0.  0.
    8880022    1    1    2    0    0  0.27669668078E+03  0.45409978681E+03 -0.93455554318E+03  0.10860724588E+04  0.15294330000E+03 0.  0.
<mgrwt>
<rscale>  0 0.76114467E+03</rscale>
<asrwt>0</asrwt>
<pdfrwt beam="1">  1        1 0.21943248E+00 0.84650923E+03</pdfrwt>
<pdfrwt beam="2">  1       -1 0.77907262E-01 0.84650923E+03</pdfrwt>
<totfact> 0.12430922E+01</totfact>
</mgrwt>
</event>
<event>
 4    1  0.1043382E-007  0.1223440E+04  0.7818608E-02  0.9134667E-01
          1   -1    0    0  501    0  0.00000000000E+00  0.00000000000E+00  0.16840455911E+04  0.16840455911E+04  0.50400000000E-02 0. -1.
         -1   -1    0    0    0  501 -0.00000000000E+00 -0.00000000000E+00 -0.10113240696E+04  0.10113240696E+04  0.50400000000E-02 0.  1.
    8880023    1    1    2    0    0  0.54303336034E+03  0.87641880071E+03  0.10240447371E+04  0.15954538459E+04  0.65864270000E+03 0. -1.
    8880022    1    1    2    0    0 -0.54303336034E+03 -0.87641880071E+03 -0.35132321556E+03  0.10999158147E+04  0.15294330000E+03 0.  0.
<mgrwt>
<rscale>  0 0.11753983E+04</rscale>
<asrwt>0</asrwt>
<pdfrwt beam="1">  1        1 0.25908393E+00 0.12234400E+04</pdfrwt>
<pdfrwt beam="2">  1       -1 0.15558832E+00 0.12234400E+04</pdfrwt>
<totfact> 0.15101387E+00</totfact>
</mgrwt>
</event>
<event>
 4    1  0.1043382E-007  0.7353081E+03  0.7818608E-02  0.9873831E-01
          1   -1    0    0  501    0  0.00000000000E+00  0.00000000000E+00  0.14433589158E+04  0.14433589159E+04  0.50400000000E-02 0. -1.
         -1   -1    0    0    0  501 -0.00000000000E+00 -0.00000000000E+00 -0.38290015303E+03  0.38290015306E+03  0.50400000000E-02 0.  1.
    8880023    1    1    2    0    0  0.26842611760E+03  0.18658855158E+03  0.31659243153E+02  0.73598938996E+03  0.65864270000E+03 0.  1.
    8880022    1    1    2    0    0 -0.26842611760E+03 -0.18658855158E+03  0.10287995197E+04  0.10902696790E+04  0.15294330000E+03 0.  0.
<mgrwt>
<rscale>  0 0.61546480E+03</rscale>
<asrwt>0</asrwt>
<pdfrwt beam="1">  1        1 0.22205522E+00 0.73530815E+03</pdfrwt>
<pdfrwt beam="2">  1       -1 0.58907716E-01 0.73530815E+03</pdfrwt>
<totfact> 0.21663800E+01</totfact>
</mgrwt>
</event>
<event>
 4    1  0.1043382E-007  0.7704824E+03  0.7818608E-02  0.9778688E-01
         -1   -1    0    0    0  501 -0.00000000000E+00  0.00000000000E+00  0.73818019991E+03  0.73818019993E+03  0.50400000000E-02 0.  1.
          1   -1    0    0  501    0  0.00000000000E+00 -0.00000000000E+00 -0.10110320198E+04  0.10110320198E+04  0.50400000000E-02 0. -1.
    8880023    1    1    2    0    0  0.21868926958E+03  0.33467579770E+03  0.46229135324E+03  0.89853012623E+03  0.65864270000E+03 0.  1.
    8880022    1    1    2    0    0 -0.21868926958E+03 -0.33467579770E+03 -0.73514317311E+03  0.85068209349E+03  0.15294330000E+03 0.  0.
<mgrwt>
<rscale>  0 0.66518889E+03</rscale>
<asrwt>0</asrwt>
<pdfrwt beam="1">  1        1 0.15554339E+00 0.77048238E+03</pdfrwt>
<pdfrwt beam="2">  1       -1 0.11356618E+00 0.77048238E+03</pdfrwt>
<totfact> 0.10802116E+01</totfact>
</mgrwt>
</event>
<event>
 4    1  0.1043382E-007  0.8117111E+03  0.7818608E-02  0.9686024E-01
          1   -1    0    0  501    0  0.00000000000E+00  0.00000000000E+00  0.10197788964E+04  0.10197788964E+04  0.50400000000E-02 0. -1.
         -1   -1    0    0    0  501 -0.00000000000E+00 -0.00000000000E+00 -0.10451982187E+04  0.10451982187E+04  0.50400000000E-02 0.  1.
    8880023    1    1    2    0    0  0.33093335743E+03  0.33992327636E+03 -0.80271499172E+03  0.11415893680E+04  0.65864270000E+03 0.  1.
    8880022    1    1    2    0    0 -0.33093335743E+03 -0.33992327636E+03  0.77729566938E+03  0.92338774711E+03  0.15294330000E+03 0.  0.
<mgrwt>
<rscale>  0 0.71855065E+03</rscale>
<asrwt>0</asrwt>
<pdfrwt beam="1">  1        1 0.15688906E+00 0.81171111E+03</pdfrwt>
<pdfrwt beam="2">  1       -1 0.16079973E+00 0.81171111E+03</pdfrwt>
<totfact> 0.43260188E+00</totfact>
</mgrwt>
</event>
<event>
 4    1  0.1043382E-007  0.6742013E+03  0.7818608E-02  0.1012814E+00
         -1   -1    0    0    0  501 -0.00000000000E+00  0.00000000000E+00  0.74982236443E+02  0.74982236612E+02  0.50400000000E-02 0.  1.
          1   -1    0    0  501    0  0.00000000000E+00 -0.00000000000E+00 -0.31368233748E+04  0.31368233748E+04  0.50400000000E-02 0. -1.
    8880023    1    1    2    0    0  0.12745774197E+03  0.67020450073E+02 -0.16192629765E+04  0.17540125455E+04  0.65864270000E+03 0.  0.
    8880022    1    1    2    0    0 -0.12745774197E+03 -0.67020450073E+02 -0.14425781619E+04  0.14577930659E+04  0.15294330000E+03 0.  0.
<mgrwt>
<rscale>  0 0.50371229E+03</rscale>
<asrwt>0</asrwt>
<pdfrwt beam="1">  1        1 0.48258811E+00 0.67420132E+03</pdfrwt>
<pdfrwt beam="2">  1       -1 0.11535731E-01 0.67420132E+03</pdfrwt>
<totfact> 0.25595529E+01</totfact>
</mgrwt>
</event>
<event>
 4    1  0.1043382E-007  0.6698495E+03  0.7818608E-02  0.1015771E+00
         -1   -1    0    0    0  501 -0.00000000000E+00  0.00000000000E+00  0.20828476761E+03  0.20828476767E+03  0.50400000000E-02 0.  1.
          1   -1    0    0  501    0  0.00000000000E+00 -0.00000000000E+00 -0.14383969017E+04  0.14383969018E+04  0.50400000000E-02 0. -1.
    8880023    1    1    2    0    0  0.11676863860E+03 -0.35401477897E+02 -0.37131727692E+03  0.76588178331E+03  0.65864270000E+03 0.  1.
    8880022    1    1    2    0    0 -0.11676863860E+03  0.35401477897E+02 -0.85879485722E+03  0.88079988612E+03  0.15294330000E+03 0.  0.
<mgrwt>
<rscale>  0 0.49244099E+03</rscale>
<asrwt>0</asrwt>
<pdfrwt beam="1">  1        1 0.22129183E+00 0.66984952E+03</pdfrwt>
<pdfrwt beam="2">  1       -1 0.32043811E-01 0.66984952E+03</pdfrwt>
<totfact> 0.67803261E+01</totfact>
</mgrwt>
</event>
<event>
 4    1  0.1043382E-007  0.8914026E+03  0.7818608E-02  0.9539976E-01
         -1   -1    0    0    0  501 -0.00000000000E+00  0.00000000000E+00  0.17059124019E+04  0.17059124019E+04  0.50400000000E-02 0.  1.
          1   -1    0    0  501    0  0.00000000000E+00 -0.00000000000E+00 -0.74438972719E+03  0.74438972721E+03  0.50400000000E-02 0. -1.
    8880023    1    1    2    0    0 -0.22367145398E+03 -0.55745811776E+03  0.14218975260E+04  0.16782107297E+04  0.65864270000E+03 0.  0.
    8880022    1    1    2    0    0  0.22367145398E+03  0.55745811776E+03 -0.46037485131E+03  0.77209139946E+03  0.15294330000E+03 0.  0.
<mgrwt>
<rscale>  0 0.81399606E+03</rscale>
<asrwt>0</asrwt>
<pdfrwt beam="1">  1        1 0.11452150E+00 0.89140265E+03</pdfrwt>
<pdfrwt beam="2">  1       -1 0.26244806E+00 0.89140265E+03</pdfrwt>
<totfact> 0.14693630E+00</totfact>
</mgrwt>
</event>
<event>
 4    1  0.1043382E-007  0.7725462E+03  0.7818608E-02  0.9773647E-01
         -1   -1    0    0    0  501 -0.00000000000E+00  0.00000000000E+00  0.59038635981E+03  0.59038635983E+03  0.50400000000E-02 0.  1.
          1   -1    0    0  501    0  0.00000000000E+00 -0.00000000000E+00 -0.29670978833E+04  0.29670978833E+04  0.50400000000E-02 0. -1.
    8880023    1    1    2    0    0 -0.32909147007E+03 -0.23391506621E+03  0.31285046925E+03  0.83348849797E+03  0.65864270000E+03 0.  1.
    8880022    1    1    2    0    0  0.32909147007E+03  0.23391506621E+03 -0.26895619927E+04  0.27239957452E+04  0.15294330000E+03 0.  0.
<mgrwt>
<rscale>  0 0.66796198E+03</rscale>
<asrwt>0</asrwt>
<pdfrwt beam="1">  1        1 0.45647659E+00 0.77254622E+03</pdfrwt>
<pdfrwt beam="2">  1       -1 0.90828673E-01 0.77254622E+03</pdfrwt>
<totfact> 0.80277153E-01</totfact>
</mgrwt>
</event>
<event>
 4    1  0.1043382E-007  0.8054919E+03  0.7818608E-02  0.9699045E-01
         -1   -1    0    0    0  501 -0.00000000000E+00  0.00000000000E+00  0.29772861064E+03  0.29772861069E+03  0.50400000000E-02 0.  1.
          1   -1    0    0  501    0  0.00000000000E+00 -0.00000000000E+00 -0.17929771674E+04  0.17929771675E+04  0.50400000000E-02 0. -1.
    8880023    1    1    2    0    0 -0.16956086578E+03 -0.43157403384E+03 -0.13657092398E+04  0.15855532056E+04  0.65864270000E+03 0.  0.
    8880022    1    1    2    0    0  0.16956086578E+03  0.43157403384E+03 -0.12953931704E+03  0.50515257256E+03  0.15294330000E+03 0.  0.
<mgrwt>
<rscale>  0 0.71073692E+03</rscale>
<asrwt>0</asrwt>
<pdfrwt beam="1">  1        1 0.27584263E+00 0.80549192E+03</pdfrwt>
<pdfrwt beam="2">  1       -1 0.45804403E-01 0.80549192E+03</pdfrwt>
<totfact> 0.20111258E+01</totfact>
</mgrwt>
</event>
<event>
 4    1  0.1043382E-007  0.6955960E+03  0.7818608E-02  0.1001599E+00
          1   -1    0    0  501    0  0.00000000000E+00  0.00000000000E+00  0.16971717527E+04  0.16971717527E+04  0.50400000000E-02 0. -1.
         -1   -1    0    0    0  501 -0.00000000000E+00 -0.00000000000E+00 -0.31071556751E+03  0.31071556755E+03  0.50400000000E-02 0.  1.
    8880023    1    1    2    0    0 -0.10084113391E+03 -0.19968646568E+03  0.11153126060E+03  0.70448069329E+03  0.65864270000E+03 0.  1.
    8880022    1    1    2    0    0  0.10084113391E+03  0.19968646568E+03  0.12749249246E+04  0.13034066270E+04  0.15294330000E+03 0.  0.
<mgrwt>
<rscale>  0 0.54954835E+03</rscale>
<asrwt>0</asrwt>
<pdfrwt beam="1">  1        1 0.26110335E+00 0.69559602E+03</pdfrwt>
<pdfrwt beam="2">  1       -1 0.47802395E-01 0.69559602E+03</pdfrwt>
<totfact> 0.21854400E+01</totfact>
</mgrwt>
</event>
<event>
 4    1  0.1043382E-007  0.7981770E+03  0.7818608E-02  0.9714752E-01
          1   -1    0    0  501    0  0.00000000000E+00  0.00000000000E+00  0.10099163821E+04  0.10099163821E+04  0.50400000000E-02 0. -1.
         -1   -1    0    0    0  501 -0.00000000000E+00 -0.00000000000E+00 -0.60761371907E+03  0.60761371909E+03  0.50400000000E-02 0.  1.
    8880023    1    1    2    0    0  0.21347872759E+03  0.39711846758E+03 -0.22568655280E+03  0.82947023503E+03  0.65864270000E+03 0.  0.
    8880022    1    1    2    0    0 -0.21347872759E+03 -0.39711846758E+03  0.62798921580E+03  0.78805986613E+03  0.15294330000E+03 0.  0.
<mgrwt>
<rscale>  0 0.70145229E+03</rscale>
<asrwt>0</asrwt>
<pdfrwt beam="1">  1        1 0.15537175E+00 0.79817695E+03</pdfrwt>
<pdfrwt beam="2">  1       -1 0.93479034E-01 0.79817695E+03</pdfrwt>
<totfact> 0.16899051E+01</totfact>
</mgrwt>
</event>
<event>
 4    1  0.1043382E-007  0.8350542E+03  0.7818608E-02  0.9639577E-01
         -1   -1    0    0    0  501 -0.00000000000E+00  0.00000000000E+00  0.75845610424E+03  0.75845610425E+03  0.50400000000E-02 0.  1.
          1   -1    0    0  501    0  0.00000000000E+00 -0.00000000000E+00 -0.10706030852E+04  0.10706030852E+04  0.50400000000E-02 0. -1.
    8880023    1    1    2    0    0 -0.17662269299E+03  0.48198525422E+03  0.40973878247E+03  0.93016204883E+03  0.65864270000E+03 0.  1.
    8880022    1    1    2    0    0  0.17662269299E+03 -0.48198525422E+03 -0.72188576341E+03  0.89889714061E+03  0.15294330000E+03 0.  0.
<mgrwt>
<rscale>  0 0.74731167E+03</rscale>
<asrwt>0</asrwt>
<pdfrwt beam="1">  1        1 0.16470817E+00 0.83505423E+03</pdfrwt>
<pdfrwt beam="2">  1       -1 0.11668555E+00 0.83505423E+03</pdfrwt>
<totfact> 0.90397794E+00</totfact>
</mgrwt>
</event>
<event>
 4    1  0.1043382E-007  0.7580671E+03  0.7818608E-02  0.9810137E-01
         -1   -1    0    0    0  501 -0.00000000000E+00  0.00000000000E+00  0.42064158242E+03  0.42064158245E+03  0.50400000000E-02 0.  1.
          1   -1    0    0  501    0  0.00000000000E+00 -0.00000000000E+00 -0.16354028729E+04  0.16354028729E+04  0.50400000000E-02 0. -1.
    8880023    1    1    2    0    0  0.69562790783E+00 -0.37530660534E+03  0.18096137784E+02  0.75828306613E+03  0.65864270000E+03 0.  1.
    8880022    1    1    2    0    0 -0.69562790783E+00  0.37530660534E+03 -0.12328574282E+04  0.12977613892E+04  0.15294330000E+03 0.  0.
<mgrwt>
<rscale>  0 0.64821337E+03</rscale>
<asrwt>0</asrwt>
<pdfrwt beam="1">  1        1 0.25160044E+00 0.75806711E+03</pdfrwt>
<pdfrwt beam="2">  1       -1 0.64714090E-01 0.75806711E+03</pdfrwt>
<totfact> 0.13255427E+01</totfact>
</mgrwt>
</event>
<event>
 4    1  0.1043382E-007  0.6632029E+03  0.7818608E-02  0.1021091E+00
          1   -1    0    0  501    0  0.00000000000E+00  0.00000000000E+00  0.13099496865E+04  0.13099496865E+04  0.50400000000E-02 0. -1.
         -1   -1    0    0    0  501 -0.00000000000E+00 -0.00000000000E+00 -0.19346324502E+03  0.19346324509E+03  0.50400000000E-02 0.  1.
    8880023    1    1    2    0    0 -0.19036918637E+02 -0.75269235152E+02  0.41746333863E+03  0.78365407381E+03  0.65864270000E+03 0.  1.
    8880022    1    1    2    0    0  0.19036918637E+02  0.75269235152E+02  0.69902310285E+03  0.71975885779E+03  0.15294330000E+03 0.  0.
<mgrwt>
<rscale>  0 0.47294893E+03</rscale>
<asrwt>0</asrwt>
<pdfrwt beam="1">  1        1 0.20153072E+00 0.66320289E+03</pdfrwt>
<pdfrwt beam="2">  1       -1 0.29763576E-01 0.66320289E+03</pdfrwt>
<totfact> 0.94807892E+01</totfact>
</mgrwt>
</event>
<event>
 4    1  0.2988137E-007  0.1231520E+04  0.7818608E-02  0.9127076E-01
          1   -1    0    0  501    0  0.00000000000E+00  0.00000000000E+00  0.16288085003E+04  0.16288085003E+04  0.50400000000E-02 0. -1.
         -1   -1    0    0    0  501 -0.00000000000E+00 -0.00000000000E+00 -0.25364051349E+04  0.25364051349E+04  0.50400000000E-02 0.  1.
    8880023    1    1    2    0    0  0.96430129327E+03 -0.39109248619E+03 -0.21864416422E+04  0.25094157842E+04  0.65864270000E+03 0.  0.
    8880022    1    1    2    0    0 -0.96430129327E+03  0.39109248619E+03  0.12788450075E+04  0.16557978510E+04  0.15294330000E+03 0.  0.
<mgrwt>
<rscale>  0 0.11838898E+04</rscale>
<asrwt>0</asrwt>
<pdfrwt beam="1">  1        1 0.25058592E+00 0.12315196E+04</pdfrwt>
<pdfrwt beam="2">  1       -1 0.39021617E+00 0.12315196E+04</pdfrwt>
<totfact> 0.43818570E-02</totfact>
</mgrwt>
</event>
<event>
 4    1  0.1043382E-007  0.8669556E+03  0.7818608E-02  0.9581309E-01
         -1   -1    0    0    0  501 -0.00000000000E+00  0.00000000000E+00  0.30834899476E+03  0.30834899480E+03  0.50400000000E-02 0.  1.
          1   -1    0    0  501    0  0.00000000000E+00 -0.00000000000E+00 -0.18447521772E+04  0.18447521772E+04  0.50400000000E-02 0. -1.
    8880023    1    1    2    0    0  0.44351335533E+03  0.34799085426E+03 -0.61798152327E+03  0.10646657224E+04  0.65864270000E+03 0.  0.
    8880022    1    1    2    0    0 -0.44351335533E+03 -0.34799085426E+03 -0.91842165920E+03  0.10884354497E+04  0.15294330000E+03 0.  1.
<mgrwt>
<rscale>  0 0.78545752E+03</rscale>
<asrwt>0</asrwt>
<pdfrwt beam="1">  1        1 0.28380802E+00 0.86695556E+03</pdfrwt>
<pdfrwt beam="2">  1       -1 0.47438308E-01 0.86695556E+03</pdfrwt>
<totfact> 0.17251362E+01</totfact>
</mgrwt>
</event>
<event>
 4    1  0.1043382E-007  0.7620849E+03  0.7818608E-02  0.9799739E-01
          1   -1    0    0  501    0  0.00000000000E+00  0.00000000000E+00  0.16852902394E+04  0.16852902394E+04  0.50400000000E-02 0. -1.
         -1   -1    0    0    0  501 -0.00000000000E+00 -0.00000000000E+00 -0.34986325821E+03  0.34986325825E+03  0.50400000000E-02 0.  1.
    8880023    1    1    2    0    0  0.25414415003E+03 -0.28700865428E+03  0.14220862836E+04  0.16134134067E+04  0.65864270000E+03 0. -1.
    8880022    1    1    2    0    0 -0.25414415003E+03  0.28700865428E+03 -0.86659302394E+02  0.42174009097E+03  0.15294330000E+03 0.  0.
<mgrwt>
<rscale>  0 0.65376527E+03</rscale>
<asrwt>0</asrwt>
<pdfrwt beam="1">  1        1 0.25927542E+00 0.76208492E+03</pdfrwt>
<pdfrwt beam="2">  1       -1 0.53825117E-01 0.76208492E+03</pdfrwt>
<totfact> 0.17605014E+01</totfact>
</mgrwt>
</event>
<event>
 4    1  0.1043382E-007  0.6866651E+03  0.7818608E-02  0.1005780E+00
         -1   -1    0    0    0  501 -0.00000000000E+00  0.00000000000E+00  0.38520471371E+03  0.38520471374E+03  0.50400000000E-02 0.  1.
          1   -1    0    0  501    0  0.00000000000E+00 -0.00000000000E+00 -0.67135882994E+03  0.67135882996E+03  0.50400000000E-02 0. -1.
    8880023    1    1    2    0    0 -0.15103814045E+03 -0.12200924984E+03 -0.11075306675E+02  0.68675442889E+03  0.65864270000E+03 0.  1.
    8880022    1    1    2    0    0  0.15103814045E+03  0.12200924984E+03 -0.27507880956E+03  0.36980911481E+03  0.15294330000E+03 0.  0.
<mgrwt>
<rscale>  0 0.53186987E+03</rscale>
<asrwt>0</asrwt>
<pdfrwt beam="1">  1        1 0.10328597E+00 0.68666512E+03</pdfrwt>
<pdfrwt beam="2">  1       -1 0.59262264E-01 0.68666512E+03</pdfrwt>
<totfact> 0.85802426E+01</totfact>
</mgrwt>
</event>
<event>
 4    1  0.1043382E-007  0.7547272E+03  0.7818608E-02  0.9818955E-01
          1   -1    0    0  501    0  0.00000000000E+00  0.00000000000E+00  0.12976132191E+04  0.12976132191E+04  0.50400000000E-02 0. -1.
         -1   -1    0    0    0  501 -0.00000000000E+00 -0.00000000000E+00 -0.51560336810E+03  0.51560336812E+03  0.50400000000E-02 0.  1.
    8880023    1    1    2    0    0 -0.66947980606E+02  0.36238223753E+03 -0.17640372663E+03  0.77506864162E+03  0.65864270000E+03 0.  0.
    8880022    1    1    2    0    0  0.66947980606E+02 -0.36238223753E+03  0.95841357763E+03  0.10381479456E+04  0.15294330000E+03 0.  0.
<mgrwt>
<rscale>  0 0.64355183E+03</rscale>
<asrwt>0</asrwt>
<pdfrwt beam="1">  1        1 0.19963281E+00 0.75472719E+03</pdfrwt>
<pdfrwt beam="2">  1       -1 0.79323594E-01 0.75472719E+03</pdfrwt>
<totfact> 0.14902264E+01</totfact>
</mgrwt>
</event>
<event>
 4    1  0.1043382E-007  0.7592938E+03  0.7818608E-02  0.9806939E-01
          1   -1    0    0  501    0  0.00000000000E+00  0.00000000000E+00  0.11496606143E+04  0.11496606143E+04  0.50400000000E-02 0. -1.
         -1   -1    0    0    0  501 -0.00000000000E+00 -0.00000000000E+00 -0.74158681574E+03  0.74158681575E+03  0.50400000000E-02 0.  1.
    8880023    1    1    2    0    0 -0.37700224355E+03  0.24211172275E+02 -0.49092584651E+03  0.90417656768E+03  0.65864270000E+03 0.  1.
    8880022    1    1    2    0    0  0.37700224355E+03 -0.24211172275E+02  0.89899964508E+03  0.98707086238E+03  0.15294330000E+03 0.  0.
<mgrwt>
<rscale>  0 0.64991473E+03</rscale>
<asrwt>0</asrwt>
<pdfrwt beam="1">  1        1 0.17687086E+00 0.75929380E+03</pdfrwt>
<pdfrwt beam="2">  1       -1 0.11409028E+00 0.75929380E+03</pdfrwt>
<totfact> 0.84160638E+00</totfact>
</mgrwt>
</event>
<event>
 4    1  0.1043382E-007  0.8297961E+03  0.7818608E-02  0.9649729E-01
         -1   -1    0    0    0  501 -0.00000000000E+00  0.00000000000E+00  0.56139513848E+03  0.56139513851E+03  0.50400000000E-02 0.  1.
          1   -1    0    0  501    0  0.00000000000E+00 -0.00000000000E+00 -0.10920384804E+04  0.10920384804E+04  0.50400000000E-02 0. -1.
    8880023    1    1    2    0    0 -0.50459537110E+03  0.11610109941E+02  0.94935181143E+02  0.83520906249E+03  0.65864270000E+03 0.  1.
    8880022    1    1    2    0    0  0.50459537110E+03 -0.11610109941E+02 -0.62557852303E+03  0.81822455639E+03  0.15294330000E+03 0.  0.
<mgrwt>
<rscale>  0 0.74090415E+03</rscale>
<asrwt>0</asrwt>
<pdfrwt beam="1">  1        1 0.16800592E+00 0.82979605E+03</pdfrwt>
<pdfrwt beam="2">  1       -1 0.86368483E-01 0.82979605E+03</pdfrwt>
<totfact> 0.17353870E+01</totfact>
</mgrwt>
</event>
<event>
 4    1  0.1043382E-007  0.6999669E+03  0.7818608E-02  0.9997339E-01
         -1   -1    0    0    0  501 -0.00000000000E+00  0.00000000000E+00  0.35271315028E+03  0.35271315032E+03  0.50400000000E-02 0.  1.
          1   -1    0    0  501    0  0.00000000000E+00 -0.00000000000E+00 -0.14513037036E+04  0.14513037036E+04  0.50400000000E-02 0. -1.
    8880023    1    1    2    0    0 -0.21695899034E+03 -0.95248312497E+02 -0.31920277527E+02  0.70069433771E+03  0.65864270000E+03 0.  1.
    8880022    1    1    2    0    0  0.21695899034E+03  0.95248312497E+02 -0.10666702758E+04  0.11033225162E+04  0.15294330000E+03 0.  0.
<mgrwt>
<rscale>  0 0.55767089E+03</rscale>
<asrwt>0</asrwt>
<pdfrwt beam="1">  1        1 0.22327749E+00 0.69996689E+03</pdfrwt>
<pdfrwt beam="2">  1       -1 0.54263563E-01 0.69996689E+03</pdfrwt>
<totfact> 0.25210176E+01</totfact>
</mgrwt>
</event>
<event>
 4    1  0.1043382E-007  0.7128018E+03  0.7818608E-02  0.9947740E-01
          1   -1    0    0  501    0  0.00000000000E+00  0.00000000000E+00  0.13444795431E+04  0.13444795431E+04  0.50400000000E-02 0. -1.
         -1   -1    0    0    0  501 -0.00000000000E+00 -0.00000000000E+00 -0.31775834817E+03  0.31775834821E+03  0.50400000000E-02 0.  1.
    8880023    1    1    2    0    0 -0.19783037032E+03  0.18745497574E+03  0.14584897215E+03  0.72757017001E+03  0.65864270000E+03 0.  1.
    8880022    1    1    2    0    0  0.19783037032E+03 -0.18745497574E+03  0.88087222278E+03  0.93466772130E+03  0.15294330000E+03 0.  0.
<mgrwt>
<rscale>  0 0.58002347E+03</rscale>
<asrwt>0</asrwt>
<pdfrwt beam="1">  1        1 0.20684300E+00 0.71280182E+03</pdfrwt>
<pdfrwt beam="2">  1       -1 0.48885900E-01 0.71280182E+03</pdfrwt>
<totfact> 0.36410254E+01</totfact>
</mgrwt>
</event>
<event>
 4    1  0.1043382E-007  0.7674105E+03  0.7818608E-02  0.9786287E-01
         -1   -1    0    0    0  501 -0.00000000000E+00  0.00000000000E+00  0.10141230140E+04  0.10141230140E+04  0.50400000000E-02 0.  1.
          1   -1    0    0  501    0  0.00000000000E+00 -0.00000000000E+00 -0.49826347095E+03  0.49826347098E+03  0.50400000000E-02 0. -1.
    8880023    1    1    2    0    0 -0.18380043978E+03  0.34831894349E+03  0.71177281073E+03  0.10466801940E+04  0.65864270000E+03 0.  1.
    8880022    1    1    2    0    0  0.18380043978E+03 -0.34831894349E+03 -0.19591326767E+03  0.46570629104E+03  0.15294330000E+03 0.  0.
<mgrwt>
<rscale>  0 0.66103688E+03</rscale>
<asrwt>0</asrwt>
<pdfrwt beam="1">  1        1 0.76655919E-01 0.76741051E+03</pdfrwt>
<pdfrwt beam="2">  1       -1 0.15601893E+00 0.76741051E+03</pdfrwt>
<totfact> 0.14322140E+01</totfact>
</mgrwt>
</event>
<event>
 4    1  0.1043382E-007  0.9240599E+03  0.7818608E-02  0.9488462E-01
          1   -1    0    0  501    0  0.00000000000E+00  0.00000000000E+00  0.21616025439E+04  0.21616025439E+04  0.50400000000E-02 0. -1.
         -1   -1    0    0    0  501 -0.00000000000E+00 -0.00000000000E+00 -0.32438951676E+03  0.32438951680E+03  0.50400000000E-02 0.  1.
    8880023    1    1    2    0    0  0.48080781587E+03 -0.43462674488E+03  0.66726000798E+03  0.11397906333E+04  0.65864270000E+03 0.  1.
    8880022    1    1    2    0    0 -0.48080781587E+03  0.43462674488E+03  0.11699530191E+04  0.13462014274E+04  0.15294330000E+03 0.  0.
<mgrwt>
<rscale>  0 0.85139858E+03</rscale>
<asrwt>0</asrwt>
<pdfrwt beam="1">  1        1 0.33255423E+00 0.92405994E+03</pdfrwt>
<pdfrwt beam="2">  1       -1 0.49906080E-01 0.92405994E+03</pdfrwt>
<totfact> 0.95328215E+00</totfact>
</mgrwt>
</event>
<event>
 4    1  0.1043382E-007  0.9393195E+03  0.7818608E-02  0.9465650E-01
         -1   -1    0    0    0  501 -0.00000000000E+00  0.00000000000E+00  0.12751478070E+04  0.12751478070E+04  0.50400000000E-02 0.  1.
          1   -1    0    0  501    0  0.00000000000E+00 -0.00000000000E+00 -0.74004791515E+03  0.74004791516E+03  0.50400000000E-02 0. -1.
    8880023    1    1    2    0    0 -0.66935943740E+03 -0.21653083157E+02  0.84324916478E+03  0.12622956360E+04  0.65864270000E+03 0.  0.
    8880022    1    1    2    0    0  0.66935943740E+03  0.21653083157E+02 -0.30814927289E+03  0.75290008623E+03  0.15294330000E+03 0.  0.
<mgrwt>
<rscale>  0 0.86864344E+03</rscale>
<asrwt>0</asrwt>
<pdfrwt beam="1">  1        1 0.11385353E+00 0.93931950E+03</pdfrwt>
<pdfrwt beam="2">  1       -1 0.19617658E+00 0.93931950E+03</pdfrwt>
<totfact> 0.40448087E+00</totfact>
</mgrwt>
</event>
<event>
 4    1  0.1043382E-007  0.1078219E+04  0.7818608E-02  0.9285703E-01
         -1   -1    0    0    0  501 -0.00000000000E+00  0.00000000000E+00  0.99112097156E+03  0.99112097157E+03  0.50400000000E-02 0.  1.
          1   -1    0    0  501    0  0.00000000000E+00 -0.00000000000E+00 -0.14436875240E+04  0.14436875241E+04  0.50400000000E-02 0. -1.
    8880023    1    1    2    0    0  0.74267266323E+03 -0.42093042492E+03  0.46324461181E+03  0.11735207216E+04  0.65864270000E+03 0. -1.
    8880022    1    1    2    0    0 -0.74267266323E+03  0.42093042492E+03 -0.91581116429E+03  0.12612877741E+04  0.15294330000E+03 0.  0.
<mgrwt>
<rscale>  0 0.10210975E+04</rscale>
<asrwt>0</asrwt>
<pdfrwt beam="1">  1        1 0.22210577E+00 0.10782186E+04</pdfrwt>
<pdfrwt beam="2">  1       -1 0.15248015E+00 0.10782186E+04</pdfrwt>
<totfact> 0.23774565E+00</totfact>
</mgrwt>
</event>
<event>
 4    1  0.1043382E-007  0.8391866E+03  0.7818608E-02  0.9631716E-01
         -1   -1    0    0    0  501 -0.00000000000E+00  0.00000000000E+00  0.61459716474E+03  0.61459716476E+03  0.50400000000E-02 0.  1.
          1   -1    0    0  501    0  0.00000000000E+00 -0.00000000000E+00 -0.28319913265E+04  0.28319913265E+04  0.50400000000E-02 0. -1.
    8880023    1    1    2    0    0  0.36124510004E+03  0.37406669891E+03  0.28492228807E+03  0.88623633080E+03  0.65864270000E+03 0.  1.
    8880022    1    1    2    0    0 -0.36124510004E+03 -0.37406669891E+03 -0.25023164498E+04  0.25603521604E+04  0.15294330000E+03 0.  0.
<mgrwt>
<rscale>  0 0.75232111E+03</rscale>
<asrwt>0</asrwt>
<pdfrwt beam="1">  1        1 0.43569097E+00 0.83918658E+03</pdfrwt>
<pdfrwt beam="2">  1       -1 0.94553411E-01 0.83918658E+03</pdfrwt>
<totfact> 0.90271445E-01</totfact>
</mgrwt>
</event>
<event>
 4    1  0.1043382E-007  0.7958183E+03  0.7818608E-02  0.9719912E-01
          1   -1    0    0  501    0  0.00000000000E+00  0.00000000000E+00  0.10566281064E+04  0.10566281064E+04  0.50400000000E-02 0. -1.
         -1   -1    0    0    0  501 -0.00000000000E+00 -0.00000000000E+00 -0.59123603537E+03  0.59123603539E+03  0.50400000000E-02 0.  1.
    8880023    1    1    2    0    0  0.14306049636E+03  0.42314331908E+03 -0.21069948803E+03  0.82323815182E+03  0.65864270000E+03 0.  0.
    8880022    1    1    2    0    0 -0.14306049636E+03 -0.42314331908E+03  0.67609155901E+03  0.82462598994E+03  0.15294330000E+03 0.  0.
<mgrwt>
<rscale>  0 0.69843534E+03</rscale>
<asrwt>0</asrwt>
<pdfrwt beam="1">  1        1 0.16255817E+00 0.79581831E+03</pdfrwt>
<pdfrwt beam="2">  1       -1 0.90959390E-01 0.79581831E+03</pdfrwt>
<totfact> 0.16539717E+01</totfact>
</mgrwt>
</event>
<event>
 4    1  0.1043382E-007  0.7453564E+03  0.7818608E-02  0.9844610E-01
          1   -1    0    0  501    0  0.00000000000E+00  0.00000000000E+00  0.16667871415E+04  0.16667871415E+04  0.50400000000E-02 0. -1.
         -1   -1    0    0    0  501 -0.00000000000E+00 -0.00000000000E+00 -0.49236925573E+03  0.49236925575E+03  0.50400000000E-02 0.  1.
    8880023    1    1    2    0    0 -0.29745779114E+03 -0.18238665669E+03 -0.16772225004E+03  0.76399410303E+03  0.65864270000E+03 0.  1.
    8880022    1    1    2    0    0  0.29745779114E+03  0.18238665669E+03  0.13421401358E+04  0.13951622942E+04  0.15294330000E+03 0.  0.
<mgrwt>
<rscale>  0 0.63022486E+03</rscale>
<asrwt>0</asrwt>
<pdfrwt beam="1">  1        1 0.25642879E+00 0.74535645E+03</pdfrwt>
<pdfrwt beam="2">  1       -1 0.75749116E-01 0.74535645E+03</pdfrwt>
<totfact> 0.91628734E+00</totfact>
</mgrwt>
</event>
<event>
 4    1  0.1043382E-007  0.7970800E+03  0.7818608E-02  0.9717146E-01
          1   -1    0    0  501    0  0.00000000000E+00  0.00000000000E+00  0.24123214842E+04  0.24123214842E+04  0.50400000000E-02 0. -1.
         -1   -1    0    0    0  501 -0.00000000000E+00 -0.00000000000E+00 -0.29436892871E+03  0.29436892875E+03  0.50400000000E-02 0.  1.
    8880023    1    1    2    0    0 -0.18315041693E+03 -0.40985644414E+03  0.33998833778E+03  0.86656139777E+03  0.65864270000E+03 0.  0.
    8880022    1    1    2    0    0  0.18315041693E+03  0.40985644414E+03  0.17779642177E+04  0.18401290152E+04  0.15294330000E+03 0.  0.
<mgrwt>
<rscale>  0 0.70005068E+03</rscale>
<asrwt>0</asrwt>
<pdfrwt beam="1">  1        1 0.37112638E+00 0.79708004E+03</pdfrwt>
<pdfrwt beam="2">  1       -1 0.45287528E-01 0.79708004E+03</pdfrwt>
<totfact> 0.78855777E+00</totfact>
</mgrwt>
</event>
<event>
 4    1  0.1043382E-007  0.9019824E+03  0.7818608E-02  0.9522857E-01
          1   -1    0    0  501    0  0.00000000000E+00  0.00000000000E+00  0.15987675583E+04  0.15987675583E+04  0.50400000000E-02 0. -1.
         -1   -1    0    0    0  501 -0.00000000000E+00 -0.00000000000E+00 -0.80912906134E+03  0.80912906136E+03  0.50400000000E-02 0.  1.
    8880023    1    1    2    0    0 -0.60571399250E+03  0.11345788665E+03 -0.45530622556E+03  0.10103841339E+04  0.65864270000E+03 0.  1.
    8880022    1    1    2    0    0  0.60571399250E+03 -0.11345788665E+03  0.12449447225E+04  0.13975124858E+04  0.15294330000E+03 0.  0.
<mgrwt>
<rscale>  0 0.82619471E+03</rscale>
<asrwt>0</asrwt>
<pdfrwt beam="1">  1        1 0.24596424E+00 0.90198245E+03</pdfrwt>
<pdfrwt beam="2">  1       -1 0.12448140E+00 0.90198245E+03</pdfrwt>
<totfact> 0.32250603E+00</totfact>
</mgrwt>
</event>
<event>
 4    1  0.1043382E-007  0.1123263E+04  0.7818608E-02  0.9235587E-01
          1   -1    0    0  501    0  0.00000000000E+00  0.00000000000E+00  0.16367530964E+04  0.16367530964E+04  0.50400000000E-02 0. -1.
         -1   -1    0    0    0  501 -0.00000000000E+00 -0.00000000000E+00 -0.95768651205E+03  0.95768651207E+03  0.50400000000E-02 0.  1.
    8880023    1    1    2    0    0  0.89726873146E+03  0.15106103550E+03  0.11072621002E+04  0.15772603392E+04  0.65864270000E+03 0.  0.
    8880022    1    1    2    0    0 -0.89726873146E+03 -0.15106103550E+03 -0.42819551588E+03  0.10171792692E+04  0.15294330000E+03 0.  0.
<mgrwt>
<rscale>  0 0.10693545E+04</rscale>
<asrwt>0</asrwt>
<pdfrwt beam="1">  1        1 0.25180817E+00 0.11232635E+04</pdfrwt>
<pdfrwt beam="2">  1       -1 0.14733639E+00 0.11232635E+04</pdfrwt>
<totfact> 0.19094434E+00</totfact>
</mgrwt>
</event>
<event>
 4    1  0.1043382E-007  0.7828135E+03  0.7818608E-02  0.9749269E-01
          1   -1    0    0  501    0  0.00000000000E+00  0.00000000000E+00  0.70881228267E+03  0.70881228268E+03  0.50400000000E-02 0. -1.
         -1   -1    0    0    0  501 -0.00000000000E+00 -0.00000000000E+00 -0.75898061647E+03  0.75898061648E+03  0.50400000000E-02 0.  1.
    8880023    1    1    2    0    0  0.10768839877E+03 -0.40913323759E+03 -0.41733650868E+03  0.88711147275E+03  0.65864270000E+03 0.  0.
    8880022    1    1    2    0    0 -0.10768839877E+03  0.40913323759E+03  0.36716817488E+03  0.58068142642E+03  0.15294330000E+03 0.  0.
<mgrwt>
<rscale>  0 0.68157597E+03</rscale>
<asrwt>0</asrwt>
<pdfrwt beam="1">  1        1 0.10904804E+00 0.78281352E+03</pdfrwt>
<pdfrwt beam="2">  1       -1 0.11676625E+00 0.78281352E+03</pdfrwt>
<totfact> 0.18103493E+01</totfact>
</mgrwt>
</event>
<event>
 4    1  0.1043382E-007  0.7488754E+03  0.7818608E-02  0.9834809E-01
         -1   -1    0    0    0  501 -0.00000000000E+00  0.00000000000E+00  0.65449846372E+03  0.65449846373E+03  0.50400000000E-02 0.  1.
          1   -1    0    0  501    0  0.00000000000E+00 -0.00000000000E+00 -0.66776791649E+03  0.66776791651E+03  0.50400000000E-02 0. -1.
    8880023    1    1    2    0    0  0.35619522243E+03 -0.11361580579E+02  0.31668703846E+03  0.81308364181E+03  0.65864270000E+03 0.  1.
    8880022    1    1    2    0    0 -0.35619522243E+03  0.11361580579E+02 -0.32995649124E+03  0.50918273843E+03  0.15294330000E+03 0.  0.
<mgrwt>
<rscale>  0 0.63527478E+03</rscale>
<asrwt>0</asrwt>
<pdfrwt beam="1">  1        1 0.10273353E+00 0.74887538E+03</pdfrwt>
<pdfrwt beam="2">  1       -1 0.10069207E+00 0.74887538E+03</pdfrwt>
<totfact> 0.28135947E+01</totfact>
</mgrwt>
</event>
<event>
 4    1  0.1043382E-007  0.7096927E+03  0.7818608E-02  0.9959144E-01
         -1   -1    0    0    0  501 -0.00000000000E+00  0.00000000000E+00  0.15962017592E+04  0.15962017592E+04  0.50400000000E-02 0.  1.
          1   -1    0    0  501    0  0.00000000000E+00 -0.00000000000E+00 -0.75834971452E+03  0.75834971454E+03  0.50400000000E-02 0. -1.
    8880023    1    1    2    0    0 -0.24834343903E+03 -0.90438208041E+02  0.14811834675E+04  0.16424275338E+04  0.65864270000E+03 0.  1.
    8880022    1    1    2    0    0  0.24834343903E+03  0.90438208041E+02 -0.64333142283E+03  0.71212393992E+03  0.15294330000E+03 0.  0.
<mgrwt>
<rscale>  0 0.57478584E+03</rscale>
<asrwt>0</asrwt>
<pdfrwt beam="1">  1        1 0.11666919E+00 0.70969271E+03</pdfrwt>
<pdfrwt beam="2">  1       -1 0.24556950E+00 0.70969271E+03</pdfrwt>
<totfact> 0.18908318E+00</totfact>
</mgrwt>
</event>
<event>
 4    1  0.1043382E-007  0.1182118E+04  0.7818608E-02  0.9174704E-01
         -1   -1    0    0    0  501 -0.00000000000E+00  0.00000000000E+00  0.93460485208E+03  0.93460485209E+03  0.50400000000E-02 0.  1.
          1   -1    0    0  501    0  0.00000000000E+00 -0.00000000000E+00 -0.21764301747E+04  0.21764301747E+04  0.50400000000E-02 0. -1.
    8880023    1    1    2    0    0  0.96940974363E+03  0.15439166968E+03  0.35157817938E+03  0.12332921232E+04  0.65864270000E+03 0.  0.
    8880022    1    1    2    0    0 -0.96940974363E+03 -0.15439166968E+03 -0.15934035020E+04  0.18777429036E+04  0.15294330000E+03 0.  0.
<mgrwt>
<rscale>  0 0.11318380E+04</rscale>
<asrwt>0</asrwt>
<pdfrwt beam="1">  1        1 0.33483541E+00 0.11821177E+04</pdfrwt>
<pdfrwt beam="2">  1       -1 0.14378536E+00 0.11821177E+04</pdfrwt>
<totfact> 0.87154124E-01</totfact>
</mgrwt>
</event>
<event>
 4    1  0.1043382E-007  0.7294057E+03  0.7818608E-02  0.9891957E-01
         -1   -1    0    0    0  501 -0.00000000000E+00  0.00000000000E+00  0.34368094500E+03  0.34368094504E+03  0.50400000000E-02 0.  1.
          1   -1    0    0  501    0  0.00000000000E+00 -0.00000000000E+00 -0.11553580502E+04  0.11553580502E+04  0.50400000000E-02 0. -1.
    8880023    1    1    2    0    0 -0.14199101764E+03 -0.27939393254E+03 -0.14070530268E+03  0.74285301850E+03  0.65864270000E+03 0.  1.
    8880022    1    1    2    0    0  0.14199101764E+03  0.27939393254E+03 -0.67097180253E+03  0.75618597675E+03  0.15294330000E+03 0.  0.
<mgrwt>
<rscale>  0 0.60652657E+03</rscale>
<asrwt>0</asrwt>
<pdfrwt beam="1">  1        1 0.17774739E+00 0.72940567E+03</pdfrwt>
<pdfrwt beam="2">  1       -1 0.52873992E-01 0.72940567E+03</pdfrwt>
<totfact> 0.42748966E+01</totfact>
</mgrwt>
</event>
<event>
 4    1  0.1043382E-007  0.6692500E+03  0.7818608E-02  0.1016206E+00
          1   -1    0    0  501    0  0.00000000000E+00  0.00000000000E+00  0.13900362867E+04  0.13900362867E+04  0.50400000000E-02 0. -1.
         -1   -1    0    0    0  501 -0.00000000000E+00 -0.00000000000E+00 -0.13675961081E+03  0.13675961090E+03  0.50400000000E-02 0.  1.
    8880023    1    1    2    0    0 -0.11645799747E+03 -0.22866888497E+02  0.87230719766E+03  0.10994614196E+04  0.65864270000E+03 0.  1.
    8880022    1    1    2    0    0  0.11645799747E+03  0.22866888497E+02  0.38096947826E+03  0.42733447806E+03  0.15294330000E+03 0.  0.
<mgrwt>
<rscale>  0 0.49080831E+03</rscale>
<asrwt>0</asrwt>
<pdfrwt beam="1">  1        1 0.21385172E+00 0.66925000E+03</pdfrwt>
<pdfrwt beam="2">  1       -1 0.21039942E-01 0.66925000E+03</pdfrwt>
<totfact> 0.15037624E+02</totfact>
</mgrwt>
</event>
<event>
 4    1  0.1043382E-007  0.8036846E+03  0.7818608E-02  0.9702885E-01
          1   -1    0    0  501    0  0.00000000000E+00  0.00000000000E+00  0.15354352423E+04  0.15354352423E+04  0.50400000000E-02 0. -1.
         -1   -1    0    0    0  501 -0.00000000000E+00 -0.00000000000E+00 -0.74332950208E+03  0.74332950210E+03  0.50400000000E-02 0.  1.
    8880023    1    1    2    0    0  0.44412054032E+03 -0.12188367922E+03 -0.46690645424E+03  0.92946787404E+03  0.65864270000E+03 0.  1.
    8880022    1    1    2    0    0 -0.44412054032E+03  0.12188367922E+03  0.12590121944E+04  0.13492968704E+04  0.15294330000E+03 0.  0.
<mgrwt>
<rscale>  0 0.70845270E+03</rscale>
<asrwt>0</asrwt>
<pdfrwt beam="1">  1        1 0.23622080E+00 0.80368457E+03</pdfrwt>
<pdfrwt beam="2">  1       -1 0.11435839E+00 0.80368457E+03</pdfrwt>
<totfact> 0.44466421E+00</totfact>
</mgrwt>
</event>
<event>
 4    1  0.1043382E-007  0.7342084E+03  0.7818608E-02  0.9877150E-01
          1   -1    0    0  501    0  0.00000000000E+00  0.00000000000E+00  0.81787035835E+03  0.81787035837E+03  0.50400000000E-02 0. -1.
         -1   -1    0    0    0  501 -0.00000000000E+00 -0.00000000000E+00 -0.60253607080E+03  0.60253607082E+03  0.50400000000E-02 0.  1.
    8880023    1    1    2    0    0 -0.24559224525E+03  0.21198161054E+03 -0.29950648296E+03  0.79294772446E+03  0.65864270000E+03 0. -1.
    8880022    1    1    2    0    0  0.24559224525E+03 -0.21198161054E+03  0.51484077052E+03  0.62745870472E+03  0.15294330000E+03 0.  0.
<mgrwt>
<rscale>  0 0.61381564E+03</rscale>
<asrwt>0</asrwt>
<pdfrwt beam="1">  1        1 0.12582621E+00 0.73420839E+03</pdfrwt>
<pdfrwt beam="2">  1       -1 0.92697857E-01 0.73420839E+03</pdfrwt>
<totfact> 0.24819386E+01</totfact>
</mgrwt>
</event>
<event>
 4    1  0.1043382E-007  0.6657084E+03  0.7818608E-02  0.1018946E+00
         -1   -1    0    0    0  501 -0.00000000000E+00  0.00000000000E+00  0.18798366447E+03  0.18798366454E+03  0.50400000000E-02 0.  1.
          1   -1    0    0  501    0  0.00000000000E+00 -0.00000000000E+00 -0.12617516592E+04  0.12617516593E+04  0.50400000000E-02 0. -1.
    8880023    1    1    2    0    0 -0.44505226737E+02 -0.85887652883E+02 -0.45829528465E+03  0.80820924167E+03  0.65864270000E+03 0.  1.
    8880022    1    1    2    0    0  0.44505226737E+02  0.85887652883E+02 -0.61547271012E+03  0.64152608213E+03  0.15294330000E+03 0.  0.
<mgrwt>
<rscale>  0 0.48068753E+03</rscale>
<asrwt>0</asrwt>
<pdfrwt beam="1">  1        1 0.19411563E+00 0.66570835E+03</pdfrwt>
<pdfrwt beam="2">  1       -1 0.28920565E-01 0.66570835E+03</pdfrwt>
<totfact> 0.10775870E+02</totfact>
</mgrwt>
</event>
<event>
 4    1  0.1043382E-007  0.6588764E+03  0.7818608E-02  0.1025338E+00
         -1   -1    0    0    0  501 -0.00000000000E+00  0.00000000000E+00  0.45437604710E+03  0.45437604713E+03  0.50400000000E-02 0.  1.
          1   -1    0    0  501    0  0.00000000000E+00 -0.00000000000E+00 -0.63106652433E+03  0.63106652435E+03  0.50400000000E-02 0. -1.
    8880023    1    1    2    0    0  0.75546048552E+00 -0.17531270708E+02  0.19168490587E+03  0.68619328587E+03  0.65864270000E+03 0.  1.
    8880022    1    1    2    0    0 -0.75546048552E+00  0.17531270708E+02 -0.36837538310E+03  0.39924928561E+03  0.15294330000E+03 0.  0.
<mgrwt>
<rscale>  0 0.45808442E+03</rscale>
<asrwt>0</asrwt>
<pdfrwt beam="1">  1        1 0.97087158E-01 0.65887641E+03</pdfrwt>
<pdfrwt beam="2">  1       -1 0.69904007E-01 0.65887641E+03</pdfrwt>
<totfact> 0.67702279E+01</totfact>
</mgrwt>
</event>
<event>
 4    1  0.1043382E-007  0.8269505E+03  0.7818608E-02  0.9655295E-01
          1   -1    0    0  501    0  0.00000000000E+00  0.00000000000E+00  0.11419074244E+04  0.11419074244E+04  0.50400000000E-02 0. -1.
         -1   -1    0    0    0  501 -0.00000000000E+00 -0.00000000000E+00 -0.54603641901E+03  0.54603641903E+03  0.50400000000E-02 0.  1.
    8880023    1    1    2    0    0 -0.81734034096E+02 -0.49331180929E+03 -0.82919943120E+02  0.83109741712E+03  0.65864270000E+03 0.  1.
    8880022    1    1    2    0    0  0.81734034096E+02  0.49331180929E+03  0.67879094853E+03  0.85684642634E+03  0.15294330000E+03 0. -1.
<mgrwt>
<rscale>  0 0.73742041E+03</rscale>
<asrwt>0</asrwt>
<pdfrwt beam="1">  1        1 0.17567806E+00 0.82695054E+03</pdfrwt>
<pdfrwt beam="2">  1       -1 0.84005603E-01 0.82695054E+03</pdfrwt>
<totfact> 0.16924892E+01</totfact>
</mgrwt>
</event>
<event>
 4    1  0.1043382E-007  0.8703743E+03  0.7818608E-02  0.9575369E-01
         -1   -1    0    0    0  501 -0.00000000000E+00  0.00000000000E+00  0.12955347084E+04  0.12955347084E+04  0.50400000000E-02 0.  1.
          1   -1    0    0  501    0  0.00000000000E+00 -0.00000000000E+00 -0.62748904335E+03  0.62748904337E+03  0.50400000000E-02 0. -1.
    8880023    1    1    2    0    0  0.54996763725E+03 -0.14586581409E+03  0.93393087529E+03  0.12766277154E+04  0.65864270000E+03 0.  0.
    8880022    1    1    2    0    0 -0.54996763725E+03  0.14586581409E+03 -0.26588521025E+03  0.64639603633E+03  0.15294330000E+03 0.  0.
<mgrwt>
<rscale>  0 0.78948070E+03</rscale>
<asrwt>0</asrwt>
<pdfrwt beam="1">  1        1 0.96536778E-01 0.87037431E+03</pdfrwt>
<pdfrwt beam="2">  1       -1 0.19931303E+00 0.87037431E+03</pdfrwt>
<totfact> 0.49762388E+00</totfact>
</mgrwt>
</event>
<event>
 4    1  0.1043382E-007  0.7063284E+03  0.7818608E-02  0.9971896E-01
          1   -1    0    0  501    0  0.00000000000E+00  0.00000000000E+00  0.13171546261E+04  0.13171546261E+04  0.50400000000E-02 0. -1.
         -1   -1    0    0    0  501 -0.00000000000E+00 -0.00000000000E+00 -0.37429645155E+03  0.37429645159E+03  0.50400000000E-02 0.  1.
    8880023    1    1    2    0    0 -0.10225629829E+03  0.23373754150E+03  0.37276793279E+01  0.70633822684E+03  0.65864270000E+03 0.  0.
    8880022    1    1    2    0    0  0.10225629829E+03 -0.23373754150E+03  0.93913049518E+03  0.98511285081E+03  0.15294330000E+03 0. -1.
<mgrwt>
<rscale>  0 0.56899886E+03</rscale>
<asrwt>0</asrwt>
<pdfrwt beam="1">  1        1 0.20263917E+00 0.70632839E+03</pdfrwt>
<pdfrwt beam="2">  1       -1 0.57584070E-01 0.70632839E+03</pdfrwt>
<totfact> 0.27830159E+01</totfact>
</mgrwt>
</event>
<event>
 4    1  0.1043382E-007  0.9311861E+03  0.7818608E-02  0.9477716E-01
          1   -1    0    0  501    0  0.00000000000E+00  0.00000000000E+00  0.10494660345E+04  0.10494660346E+04  0.50400000000E-02 0. -1.
         -1   -1    0    0    0  501 -0.00000000000E+00 -0.00000000000E+00 -0.10444102061E+04  0.10444102062E+04  0.50400000000E-02 0.  1.
    8880023    1    1    2    0    0  0.53850795494E+03 -0.37855852245E+03 -0.66340528746E+03  0.11433346641E+04  0.65864270000E+03 0.  1.
    8880022    1    1    2    0    0 -0.53850795494E+03  0.37855852245E+03  0.66846111585E+03  0.95054157661E+03  0.15294330000E+03 0.  0.
<mgrwt>
<rscale>  0 0.85946845E+03</rscale>
<asrwt>0</asrwt>
<pdfrwt beam="1">  1        1 0.16145631E+00 0.93118611E+03</pdfrwt>
<pdfrwt beam="2">  1       -1 0.16067849E+00 0.93118611E+03</pdfrwt>
<totfact> 0.40466574E+00</totfact>
</mgrwt>
</event>
<event>
 4    1  0.1630064E-007  0.7371205E+03  0.7818608E-02  0.9868416E-01
          1   -1    0    0  501    0  0.00000000000E+00  0.00000000000E+00  0.17984091897E+04  0.17984091897E+04  0.50400000000E-02 0. -1.
         -1   -1    0    0    0  501 -0.00000000000E+00 -0.00000000000E+00 -0.11276003454E+04  0.11276003454E+04  0.50400000000E-02 0.  1.
    8880023    1    1    2    0    0 -0.27548038799E+03 -0.18343114681E+03 -0.98514790097E+03  0.12303914104E+04  0.65864270000E+03 0.  1.
    8880022    1    1    2    0    0  0.27548038799E+03  0.18343114681E+03  0.16559567452E+04  0.16956181247E+04  0.15294330000E+03 0.  0.
<mgrwt>
<rscale>  0 0.61816720E+03</rscale>
<asrwt>0</asrwt>
<pdfrwt beam="1">  1        1 0.27667833E+00 0.73712050E+03</pdfrwt>
<pdfrwt beam="2">  1       -1 0.17347698E+00 0.73712050E+03</pdfrwt>
<totfact> 0.10034507E+00</totfact>
</mgrwt>
</event>
<event>
 4    1  0.1043382E-007  0.6609374E+03  0.7818608E-02  0.1023216E+00
          1   -1    0    0  501    0  0.00000000000E+00  0.00000000000E+00  0.12306404108E+03  0.12306404118E+03  0.50400000000E-02 0. -1.
         -1   -1    0    0    0  501 -0.00000000000E+00 -0.00000000000E+00 -0.15400062450E+04  0.15400062450E+04  0.50400000000E-02 0.  1.
    8880023    1    1    2    0    0  0.10991987532E+02  0.53918341289E+02 -0.13134714483E+04  0.14703895617E+04  0.65864270000E+03 0.  1.
    8880022    1    1    2    0    0 -0.10991987532E+02 -0.53918341289E+02 -0.10347075563E+03  0.19268072453E+03  0.15294330000E+03 0.  0.
<mgrwt>
<rscale>  0 0.46543726E+03</rscale>
<asrwt>0</asrwt>
<pdfrwt beam="1">  1        1 0.18932931E-01 0.66093738E+03</pdfrwt>
<pdfrwt beam="2">  1       -1 0.23692402E+00 0.66093738E+03</pdfrwt>
<totfact> 0.24889520E+01</totfact>
</mgrwt>
</event>
<event>
 4    1  0.1043382E-007  0.1107708E+04  0.7818608E-02  0.9252523E-01
         -1   -1    0    0    0  501 -0.00000000000E+00  0.00000000000E+00  0.55352491417E+03  0.55352491420E+03  0.50400000000E-02 0.  1.
          1   -1    0    0  501    0  0.00000000000E+00 -0.00000000000E+00 -0.22692538901E+04  0.22692538901E+04  0.50400000000E-02 0. -1.
    8880023    1    1    2    0    0  0.56179250984E+03 -0.69108309326E+03 -0.30758828714E+03  0.11496205576E+04  0.65864270000E+03 0.  1.
    8880022    1    1    2    0    0 -0.56179250984E+03  0.69108309326E+03 -0.14081406887E+04  0.16731582466E+04  0.15294330000E+03 0.  0.
<mgrwt>
<rscale>  0 0.10527373E+04</rscale>
<asrwt>0</asrwt>
<pdfrwt beam="1">  1        1 0.34911598E+00 0.11077079E+04</pdfrwt>
<pdfrwt beam="2">  1       -1 0.85157680E-01 0.11077079E+04</pdfrwt>
<totfact> 0.26655090E+00</totfact>
</mgrwt>
</event>
<event>
 4    1  0.1043382E-007  0.7292100E+03  0.7818608E-02  0.9892572E-01
          1   -1    0    0  501    0  0.00000000000E+00  0.00000000000E+00  0.13709818827E+04  0.13709818828E+04  0.50400000000E-02 0. -1.
         -1   -1    0    0    0  501 -0.00000000000E+00 -0.00000000000E+00 -0.44042761104E+03  0.44042761107E+03  0.50400000000E-02 0.  1.
    8880023    1    1    2    0    0  0.30941254397E+03 -0.46914058757E+02 -0.88414200606E+02  0.73455042605E+03  0.65864270000E+03 0.  0.
    8880022    1    1    2    0    0 -0.30941254397E+03  0.46914058757E+02  0.10189684723E+04  0.10768590678E+04  0.15294330000E+03 0. -1.
<mgrwt>
<rscale>  0 0.60622650E+03</rscale>
<asrwt>0</asrwt>
<pdfrwt beam="1">  1        1 0.21092029E+00 0.72921002E+03</pdfrwt>
<pdfrwt beam="2">  1       -1 0.67758094E-01 0.72921002E+03</pdfrwt>
<totfact> 0.18408112E+01</totfact>
</mgrwt>
</event>
<event>
 4    1  0.1043382E-007  0.1061513E+04  0.7818608E-02  0.9305167E-01
         -1   -1    0    0    0  501 -0.00000000000E+00  0.00000000000E+00  0.20027358087E+04  0.20027358087E+04  0.50400000000E-02 0.  1.
          1   -1    0    0  501    0  0.00000000000E+00 -0.00000000000E+00 -0.45682897075E+03  0.45682897078E+03  0.50400000000E-02 0. -1.
    8880023    1    1    2    0    0  0.75165296569E+03 -0.35779582777E+03  0.94884051177E+03  0.14237656262E+04  0.65864270000E+03 0.  0.
    8880022    1    1    2    0    0 -0.75165296569E+03  0.35779582777E+03  0.59706632622E+03  0.10357991534E+04  0.15294330000E+03 0.  0.
<mgrwt>
<rscale>  0 0.10030853E+04</rscale>
<asrwt>0</asrwt>
<pdfrwt beam="1">  1        1 0.70281380E-01 0.10615132E+04</pdfrwt>
<pdfrwt beam="2">  1       -1 0.30811320E+00 0.10615132E+04</pdfrwt>
<totfact> 0.14788043E+00</totfact>
</mgrwt>
</event>
<event>
 4    1  0.1043382E-007  0.6588259E+03  0.7818608E-02  0.1025393E+00
          1   -1    0    0  501    0  0.00000000000E+00  0.00000000000E+00  0.13068888065E+04  0.13068888065E+04  0.50400000000E-02 0. -1.
         -1   -1    0    0    0  501 -0.00000000000E+00 -0.00000000000E+00 -0.46647253443E+03  0.46647253445E+03  0.50400000000E-02 0.  1.
    8880023    1    1    2    0    0  0.15527528635E+02  0.51851373034E+00 -0.22555132123E+03  0.69636554896E+03  0.65864270000E+03 0.  1.
    8880022    1    1    2    0    0 -0.15527528635E+02 -0.51851373034E+00  0.10659675933E+04  0.10769957920E+04  0.15294330000E+03 0.  0.
<mgrwt>
<rscale>  0 0.45789713E+03</rscale>
<asrwt>0</asrwt>
<pdfrwt beam="1">  1        1 0.20105982E+00 0.65882591E+03</pdfrwt>
<pdfrwt beam="2">  1       -1 0.71765006E-01 0.65882591E+03</pdfrwt>
<totfact> 0.18336164E+01</totfact>
</mgrwt>
</event>
<event>
 4    1  0.1043382E-007  0.8298692E+03  0.7818608E-02  0.9649587E-01
         -1   -1    0    0    0  501 -0.00000000000E+00  0.00000000000E+00  0.14345524468E+03  0.14345524477E+03  0.50400000000E-02 0.  1.
          1   -1    0    0  501    0  0.00000000000E+00 -0.00000000000E+00 -0.38297164958E+04  0.38297164958E+04  0.50400000000E-02 0. -1.
    8880023    1    1    2    0    0  0.46491723031E+03 -0.19678559990E+03 -0.14055743554E+04  0.16322751233E+04  0.65864270000E+03 0.  0.
    8880022    1    1    2    0    0 -0.46491723031E+03  0.19678559990E+03 -0.22806868957E+04  0.23408966172E+04  0.15294330000E+03 0.  0.
<mgrwt>
<rscale>  0 0.74099349E+03</rscale>
<asrwt>0</asrwt>
<pdfrwt beam="1">  1        1 0.58918708E+00 0.82986915E+03</pdfrwt>
<pdfrwt beam="2">  1       -1 0.22070041E-01 0.82986915E+03</pdfrwt>
<totfact> 0.25071131E+00</totfact>
</mgrwt>
</event>
<event>
 4    1  0.1043382E-007  0.1282518E+04  0.7818608E-02  0.9080805E-01
         -1   -1    0    0    0  501 -0.00000000000E+00  0.00000000000E+00  0.72347645601E+03  0.72347645603E+03  0.50400000000E-02 0.  1.
          1   -1    0    0  501    0  0.00000000000E+00 -0.00000000000E+00 -0.23548845182E+04  0.23548845182E+04  0.50400000000E-02 0. -1.
    8880023    1    1    2    0    0 -0.52696567311E+03  0.96610062487E+03 -0.14778375533E+04  0.19567466055E+04  0.65864270000E+03 0.  0.
    8880022    1    1    2    0    0  0.52696567311E+03 -0.96610062487E+03 -0.15357050896E+03  0.11216143688E+04  0.15294330000E+03 0.  0.
<mgrwt>
<rscale>  0 0.12373177E+04</rscale>
<asrwt>0</asrwt>
<pdfrwt beam="1">  1        1 0.36228992E+00 0.12825184E+04</pdfrwt>
<pdfrwt beam="2">  1       -1 0.11130407E+00 0.12825184E+04</pdfrwt>
<totfact> 0.12384089E+00</totfact>
</mgrwt>
</event>
<event>
 4    1  0.1043382E-007  0.9639158E+03  0.7818608E-02  0.9430369E-01
          1   -1    0    0  501    0  0.00000000000E+00  0.00000000000E+00  0.23662895147E+04  0.23662895147E+04  0.50400000000E-02 0. -1.
         -1   -1    0    0    0  501 -0.00000000000E+00 -0.00000000000E+00 -0.32710394409E+03  0.32710394413E+03  0.50400000000E-02 0.  1.
    8880023    1    1    2    0    0  0.50997489910E+03  0.48502479656E+03  0.15410826874E+04  0.18177099622E+04  0.65864270000E+03 0. -1.
    8880022    1    1    2    0    0 -0.50997489910E+03 -0.48502479656E+03  0.49810288317E+03  0.87568349661E+03  0.15294330000E+03 0.  0.
<mgrwt>
<rscale>  0 0.89618038E+03</rscale>
<asrwt>0</asrwt>
<pdfrwt beam="1">  1        1 0.36404455E+00 0.96391579E+03</pdfrwt>
<pdfrwt beam="2">  1       -1 0.50323683E-01 0.96391579E+03</pdfrwt>
<totfact> 0.67844382E+00</totfact>
</mgrwt>
</event>
<event>
 4    1  0.1043382E-007  0.1492245E+04  0.7818608E-02  0.8915131E-01
          1   -1    0    0  501    0  0.00000000000E+00  0.00000000000E+00  0.22099394154E+04  0.22099394154E+04  0.50400000000E-02 0. -1.
         -1   -1    0    0    0  501 -0.00000000000E+00 -0.00000000000E+00 -0.98376914978E+03  0.98376914979E+03  0.50400000000E-02 0.  1.
    8880023    1    1    2    0    0  0.46806355156E+03 -0.12545524670E+04  0.21245422922E+03  0.15072930659E+04  0.65864270000E+03 0.  0.
    8880022    1    1    2    0    0 -0.46806355156E+03  0.12545524670E+04  0.10137160364E+04  0.16864154993E+04  0.15294330000E+03 0.  0.
<mgrwt>
<rscale>  0 0.14547249E+04</rscale>
<asrwt>0</asrwt>
<pdfrwt beam="1">  1        1 0.33999068E+00 0.14922451E+04</pdfrwt>
<pdfrwt beam="2">  1       -1 0.15134910E+00 0.14922451E+04</pdfrwt>
<totfact> 0.69408286E-01</totfact>
</mgrwt>
</event>
<event>
 4    1  0.1043382E-007  0.8734579E+03  0.7818608E-02  0.9570059E-01
          1   -1    0    0  501    0  0.00000000000E+00  0.00000000000E+00  0.14413838510E+04  0.14413838510E+04  0.50400000000E-02 0. -1.
         -1   -1    0    0    0  501 -0.00000000000E+00 -0.00000000000E+00 -0.56921277853E+03  0.56921277856E+03  0.50400000000E-02 0.  1.
    8880023    1    1    2    0    0  0.49580065417E+03 -0.28861787376E+03  0.10732354710E+04  0.13837496696E+04  0.65864270000E+03 0.  0.
    8880022    1    1    2    0    0 -0.49580065417E+03  0.28861787376E+03 -0.20106439858E+03  0.62684695989E+03  0.15294330000E+03 0.  0.
<mgrwt>
<rscale>  0 0.79310002E+03</rscale>
<asrwt>0</asrwt>
<pdfrwt beam="1">  1        1 0.22175136E+00 0.87345794E+03</pdfrwt>
<pdfrwt beam="2">  1       -1 0.87571198E-01 0.87345794E+03</pdfrwt>
<totfact> 0.94073094E+00</totfact>
</mgrwt>
</event>
<event>
 4    1  0.1043382E-007  0.7005911E+03  0.7818608E-02  0.9994758E-01
          1   -1    0    0  501    0  0.00000000000E+00  0.00000000000E+00  0.18104441483E+04  0.18104441483E+04  0.50400000000E-02 0. -1.
         -1   -1    0    0    0  501 -0.00000000000E+00 -0.00000000000E+00 -0.45570795480E+03  0.45570795483E+03  0.50400000000E-02 0.  1.
    8880023    1    1    2    0    0 -0.34684839832E+02  0.23625118191E+03 -0.16535325727E+03  0.71983995792E+03  0.65864270000E+03 0.  1.
    8880022    1    1    2    0    0  0.34684839832E+02 -0.23625118191E+03  0.15200894507E+04  0.15463121452E+04  0.15294330000E+03 0.  0.
<mgrwt>
<rscale>  0 0.55880688E+03</rscale>
<asrwt>0</asrwt>
<pdfrwt beam="1">  1        1 0.27852987E+00 0.70059108E+03</pdfrwt>
<pdfrwt beam="2">  1       -1 0.70108916E-01 0.70059108E+03</pdfrwt>
<totfact> 0.86742003E+00</totfact>
</mgrwt>
</event>
<event>
 4    1  0.1043382E-007  0.8308832E+03  0.7818608E-02  0.9647616E-01
          1   -1    0    0  501    0  0.00000000000E+00  0.00000000000E+00  0.12441280067E+04  0.12441280067E+04  0.50400000000E-02 0. -1.
         -1   -1    0    0    0  501 -0.00000000000E+00 -0.00000000000E+00 -0.68335886087E+03  0.68335886088E+03  0.50400000000E-02 0.  1.
    8880023    1    1    2    0    0 -0.28861674278E+03  0.41624165881E+03 -0.32789072229E+03  0.89324088284E+03  0.65864270000E+03 0.  0.
    8880022    1    1    2    0    0  0.28861674278E+03 -0.41624165881E+03  0.88865986812E+03  0.10342459847E+04  0.15294330000E+03 0.  0.
<mgrwt>
<rscale>  0 0.74223212E+03</rscale>
<asrwt>0</asrwt>
<pdfrwt beam="1">  1        1 0.19140431E+00 0.83088323E+03</pdfrwt>
<pdfrwt beam="2">  1       -1 0.10513213E+00 0.83088323E+03</pdfrwt>
<totfact> 0.86277476E+00</totfact>
</mgrwt>
</event>
<event>
 4    1  0.1043382E-007  0.7718893E+03  0.7818608E-02  0.9775246E-01
         -1   -1    0    0    0  501 -0.00000000000E+00  0.00000000000E+00  0.14965363986E+04  0.14965363986E+04  0.50400000000E-02 0.  1.
          1   -1    0    0  501    0  0.00000000000E+00 -0.00000000000E+00 -0.54231378061E+03  0.54231378064E+03  0.50400000000E-02 0. -1.
    8880023    1    1    2    0    0 -0.39504536208E+03  0.77085133908E+02  0.12828671004E+04  0.14971844107E+04  0.65864270000E+03 0.  1.
    8880022    1    1    2    0    0  0.39504536208E+03 -0.77085133908E+02 -0.32864448244E+03  0.54166576856E+03  0.15294330000E+03 0.  0.
<mgrwt>
<rscale>  0 0.66708077E+03</rscale>
<asrwt>0</asrwt>
<pdfrwt beam="1">  1        1 0.83432890E-01 0.77188935E+03</pdfrwt>
<pdfrwt beam="2">  1       -1 0.23023637E+00 0.77188935E+03</pdfrwt>
<totfact> 0.38568816E+00</totfact>
</mgrwt>
</event>
<event>
 4    1  0.1043382E-007  0.7116338E+03  0.7818608E-02  0.9951983E-01
         -1   -1    0    0    0  501 -0.00000000000E+00  0.00000000000E+00  0.25732859721E+03  0.25732859726E+03  0.50400000000E-02 0.  1.
          1   -1    0    0  501    0  0.00000000000E+00 -0.00000000000E+00 -0.10895248429E+04  0.10895248429E+04  0.50400000000E-02 0. -1.
    8880023    1    1    2    0    0  0.22893249650E+03  0.14213509557E+03 -0.73274421932E+03  0.10214385789E+04  0.65864270000E+03 0. -1.
    8880022    1    1    2    0    0 -0.22893249650E+03 -0.14213509557E+03 -0.99452026373E+02  0.32541486124E+03  0.15294330000E+03 0.  1.
<mgrwt>
<rscale>  0 0.57806765E+03</rscale>
<asrwt>0</asrwt>
<pdfrwt beam="1">  1        1 0.16761920E+00 0.71163381E+03</pdfrwt>
<pdfrwt beam="2">  1       -1 0.39589016E-01 0.71163381E+03</pdfrwt>
<totfact> 0.82122770E+01</totfact>
</mgrwt>
</event>
<event>
 4    1  0.1043382E-007  0.6897210E+03  0.7818608E-02  0.1004285E+00
          1   -1    0    0  501    0  0.00000000000E+00  0.00000000000E+00  0.28435158559E+04  0.28435158559E+04  0.50400000000E-02 0. -1.
         -1   -1    0    0    0  501 -0.00000000000E+00 -0.00000000000E+00 -0.10371554269E+03  0.10371554281E+03  0.50400000000E-02 0.  1.
    8880023    1    1    2    0    0 -0.28932712058E+02 -0.20265168661E+03  0.25117784321E+04  0.26047544810E+04  0.65864270000E+03 0.  0.
    8880022    1    1    2    0    0  0.28932712058E+02  0.20265168661E+03  0.22802188112E+03  0.34247691776E+03  0.15294330000E+03 0.  0.
<mgrwt>
<rscale>  0 0.53810407E+03</rscale>
<asrwt>0</asrwt>
<pdfrwt beam="1">  1        1 0.43746395E+00 0.68972097E+03</pdfrwt>
<pdfrwt beam="2">  1       -1 0.15956238E-01 0.68972097E+03</pdfrwt>
<totfact> 0.24526506E+01</totfact>
</mgrwt>
</event>
<event>
 4    1  0.1043382E-007  0.6616721E+03  0.7818608E-02  0.1022505E+00
         -1   -1    0    0    0  501 -0.00000000000E+00  0.00000000000E+00  0.19128706433E+04  0.19128706433E+04  0.50400000000E-02 0.  1.
          1   -1    0    0  501    0  0.00000000000E+00 -0.00000000000E+00 -0.12921657353E+03  0.12921657363E+03  0.50400000000E-02 0. -1.
    8880023    1    1    2    0    0  0.36344088884E+02  0.51757450369E+02  0.17530676298E+04  0.18737812165E+04  0.65864270000E+03 0.  1.
    8880022    1    1    2    0    0 -0.36344088884E+02 -0.51757450369E+02  0.30586440026E+02  0.16830600047E+03  0.15294330000E+03 0.  0.
<mgrwt>
<rscale>  0 0.46793318E+03</rscale>
<asrwt>0</asrwt>
<pdfrwt beam="1">  1        1 0.19879473E-01 0.66167207E+03</pdfrwt>
<pdfrwt beam="2">  1       -1 0.29428779E+00 0.66167207E+03</pdfrwt>
<totfact> 0.10012689E+01</totfact>
</mgrwt>
</event>
<event>
 4    1  0.1043382E-007  0.1068827E+04  0.7818608E-02  0.9296584E-01
         -1   -1    0    0    0  501 -0.00000000000E+00  0.00000000000E+00  0.50003159983E+03  0.50003159985E+03  0.50400000000E-02 0.  1.
          1   -1    0    0  501    0  0.00000000000E+00 -0.00000000000E+00 -0.24610260062E+04  0.24610260062E+04  0.50400000000E-02 0. -1.
    8880023    1    1    2    0    0  0.74397264459E+03  0.39380849697E+03 -0.32885449134E+03  0.11182736297E+04  0.65864270000E+03 0.  0.
    8880022    1    1    2    0    0 -0.74397264459E+03 -0.39380849697E+03 -0.16321399151E+04  0.18427839764E+04  0.15294330000E+03 0.  0.
<mgrwt>
<rscale>  0 0.10109794E+04</rscale>
<asrwt>0</asrwt>
<pdfrwt beam="1">  1        1 0.37861938E+00 0.10688268E+04</pdfrwt>
<pdfrwt beam="2">  1       -1 0.76927940E-01 0.10688268E+04</pdfrwt>
<totfact> 0.24643376E+00</totfact>
</mgrwt>
</event>
<event>
 4    1  0.1043382E-007  0.8311499E+03  0.7818608E-02  0.9647099E-01
          1   -1    0    0  501    0  0.00000000000E+00  0.00000000000E+00  0.48164580709E+03  0.48164580712E+03  0.50400000000E-02 0. -1.
         -1   -1    0    0    0  501 -0.00000000000E+00 -0.00000000000E+00 -0.13987787140E+04  0.13987787140E+04  0.50400000000E-02 0.  1.
    8880023    1    1    2    0    0 -0.23278974765E+03 -0.45034310902E+03 -0.10454480559E+04  0.13355792101E+04  0.65864270000E+03 0.  1.
    8880022    1    1    2    0    0  0.23278974765E+03  0.45034310902E+03  0.12831514905E+03  0.54484531102E+03  0.15294330000E+03 0.  0.
<mgrwt>
<rscale>  0 0.74255762E+03</rscale>
<asrwt>0</asrwt>
<pdfrwt beam="1">  1        1 0.74099355E-01 0.83114992E+03</pdfrwt>
<pdfrwt beam="2">  1       -1 0.21519672E+00 0.83114992E+03</pdfrwt>
<totfact> 0.56706446E+00</totfact>
</mgrwt>
</event>
<event>
 4    1  0.1043382E-007  0.6940484E+03  0.7818608E-02  0.1002285E+00
          1   -1    0    0  501    0  0.00000000000E+00  0.00000000000E+00  0.11947305508E+04  0.11947305508E+04  0.50400000000E-02 0. -1.
         -1   -1    0    0    0  501 -0.00000000000E+00 -0.00000000000E+00 -0.51650357792E+03  0.51650357794E+03  0.50400000000E-02 0.  1.
    8880023    1    1    2    0    0 -0.77585166292E+01  0.21870700467E+03 -0.25588382008E+03  0.73971594826E+03  0.65864270000E+03 0.  1.
    8880022    1    1    2    0    0  0.77585166292E+01 -0.21870700467E+03  0.93411079297E+03  0.97151818049E+03  0.15294330000E+03 0.  0.
<mgrwt>
<rscale>  0 0.54659641E+03</rscale>
<asrwt>0</asrwt>
<pdfrwt beam="1">  1        1 0.18380470E+00 0.69404838E+03</pdfrwt>
<pdfrwt beam="2">  1       -1 0.79462090E-01 0.69404838E+03</pdfrwt>
<totfact> 0.17734877E+01</totfact>
</mgrwt>
</event>
<event>
 4    1  0.1043382E-007  0.9369979E+03  0.7818608E-02  0.9469073E-01
          1   -1    0    0  501    0  0.00000000000E+00  0.00000000000E+00  0.16249998188E+04  0.16249998189E+04  0.50400000000E-02 0. -1.
         -1   -1    0    0    0  501 -0.00000000000E+00 -0.00000000000E+00 -0.84547163006E+03  0.84547163008E+03  0.50400000000E-02 0.  1.
    8880023    1    1    2    0    0 -0.10295026688E+03  0.65844973717E+03 -0.46835507666E+03  0.10475311441E+04  0.65864270000E+03 0.  1.
    8880022    1    1    2    0    0  0.10295026688E+03 -0.65844973717E+03  0.12478832654E+04  0.14229403048E+04  0.15294330000E+03 0.  0.
<mgrwt>
<rscale>  0 0.86602824E+03</rscale>
<asrwt>0</asrwt>
<pdfrwt beam="1">  1        1 0.24999997E+00 0.93699788E+03</pdfrwt>
<pdfrwt beam="2">  1       -1 0.13007256E+00 0.93699788E+03</pdfrwt>
<totfact> 0.27584590E+00</totfact>
</mgrwt>
</event>
<event>
 4    1  0.1043382E-007  0.6658309E+03  0.7818608E-02  0.1018846E+00
          1   -1    0    0  501    0  0.00000000000E+00  0.00000000000E+00  0.88220432368E+03  0.88220432370E+03  0.50400000000E-02 0. -1.
         -1   -1    0    0    0  501 -0.00000000000E+00 -0.00000000000E+00 -0.44902439708E+03  0.44902439711E+03  0.50400000000E-02 0.  1.
    8880023    1    1    2    0    0 -0.68325819120E+02  0.69657616225E+02 -0.18167219616E+03  0.69017069930E+03  0.65864270000E+03 0.  1.
    8880022    1    1    2    0    0  0.68325819120E+02 -0.69657616225E+02  0.61485212276E+03  0.64105802150E+03  0.15294330000E+03 0.  0.
<mgrwt>
<rscale>  0 0.48105272E+03</rscale>
<asrwt>0</asrwt>
<pdfrwt beam="1">  1        1 0.13572374E+00 0.66583091E+03</pdfrwt>
<pdfrwt beam="2">  1       -1 0.69080677E-01 0.66583091E+03</pdfrwt>
<totfact> 0.41247806E+01</totfact>
</mgrwt>
</event>
<event>
 4    1  0.1043382E-007  0.7385815E+03  0.7818608E-02  0.9864098E-01
         -1   -1    0    0    0  501 -0.00000000000E+00  0.00000000000E+00  0.27907379242E+03  0.27907379247E+03  0.50400000000E-02 0.  1.
          1   -1    0    0  501    0  0.00000000000E+00 -0.00000000000E+00 -0.21478752844E+04  0.21478752844E+04  0.50400000000E-02 0. -1.
    8880023    1    1    2    0    0  0.28612013098E+03  0.17270697287E+03 -0.26990462183E+03  0.78635306255E+03  0.65864270000E+03 0.  1.
    8880022    1    1    2    0    0 -0.28612013098E+03 -0.17270697287E+03 -0.15988968702E+04  0.16405960144E+04  0.15294330000E+03 0.  0.
<mgrwt>
<rscale>  0 0.62033222E+03</rscale>
<asrwt>0</asrwt>
<pdfrwt beam="1">  1        1 0.33044234E+00 0.73858150E+03</pdfrwt>
<pdfrwt beam="2">  1       -1 0.42934431E-01 0.73858150E+03</pdfrwt>
<totfact> 0.13243383E+01</totfact>
</mgrwt>
</event>
<event>
 4    1  0.1043382E-007  0.1136121E+04  0.7818608E-02  0.9221866E-01
          1   -1    0    0  501    0  0.00000000000E+00  0.00000000000E+00  0.24206837651E+04  0.24206837651E+04  0.50400000000E-02 0. -1.
         -1   -1    0    0    0  501 -0.00000000000E+00 -0.00000000000E+00 -0.81917121269E+03  0.81917121271E+03  0.50400000000E-02 0.  1.
    8880023    1    1    2    0    0  0.77558869901E+03  0.50539476954E+03 -0.25078725763E+03  0.11634715974E+04  0.65864270000E+03 0.  1.
    8880022    1    1    2    0    0 -0.77558869901E+03 -0.50539476954E+03  0.18522998100E+04  0.20763833804E+04  0.15294330000E+03 0.  0.
<mgrwt>
<rscale>  0 0.10830555E+04</rscale>
<asrwt>0</asrwt>
<pdfrwt beam="1">  1        1 0.37241289E+00 0.11361214E+04</pdfrwt>
<pdfrwt beam="2">  1       -1 0.12602634E+00 0.11361214E+04</pdfrwt>
<totfact> 0.83978969E-01</totfact>
</mgrwt>
</event>
<event>
 4    1  0.1043382E-007  0.7402790E+03  0.7818608E-02  0.9859135E-01
          1   -1    0    0  501    0  0.00000000000E+00  0.00000000000E+00  0.24456658530E+04  0.24456658530E+04  0.50400000000E-02 0. -1.
         -1   -1    0    0    0  501 -0.00000000000E+00 -0.00000000000E+00 -0.18202055235E+03  0.18202055242E+03  0.50400000000E-02 0.  1.
    8880023    1    1    2    0    0 -0.31984631887E+03  0.10909206428E+03  0.69368701455E+03  0.10145021570E+04  0.65864270000E+03 0.  0.
    8880022    1    1    2    0    0  0.31984631887E+03 -0.10909206428E+03  0.15699582861E+04  0.16131842484E+04  0.15294330000E+03 0.  0.
<mgrwt>
<rscale>  0 0.62283305E+03</rscale>
<asrwt>0</asrwt>
<pdfrwt beam="1">  1        1 0.37625629E+00 0.74027897E+03</pdfrwt>
<pdfrwt beam="2">  1       -1 0.28003161E-01 0.74027897E+03</pdfrwt>
<totfact> 0.17845693E+01</totfact>
</mgrwt>
</event>
<event>
 4    1  0.1043382E-007  0.6650579E+03  0.7818608E-02  0.1019485E+00
         -1   -1    0    0    0  501 -0.00000000000E+00  0.00000000000E+00  0.59264311808E+03  0.59264311810E+03  0.50400000000E-02 0.  1.
          1   -1    0    0  501    0  0.00000000000E+00 -0.00000000000E+00 -0.64644594628E+03  0.64644594630E+03  0.50400000000E-02 0. -1.
    8880023    1    1    2    0    0  0.87738219204E+02 -0.28173556733E+02  0.38281866485E+03  0.76736697924E+03  0.65864270000E+03 0.  1.
    8880022    1    1    2    0    0 -0.87738219204E+02  0.28173556733E+02 -0.43662149305E+03  0.47172208515E+03  0.15294330000E+03 0.  0.
<mgrwt>
<rscale>  0 0.47872945E+03</rscale>
<asrwt>0</asrwt>
<pdfrwt beam="1">  1        1 0.99453222E-01 0.66505786E+03</pdfrwt>
<pdfrwt beam="2">  1       -1 0.91175864E-01 0.66505786E+03</pdfrwt>
<totfact> 0.37209530E+01</totfact>
</mgrwt>
</event>
<event>
 4    1  0.1043382E-007  0.7217949E+03  0.7818608E-02  0.9916559E-01
         -1   -1    0    0    0  501 -0.00000000000E+00  0.00000000000E+00  0.63406043663E+03  0.63406043665E+03  0.50400000000E-02 0.  1.
          1   -1    0    0  501    0  0.00000000000E+00 -0.00000000000E+00 -0.48965215834E+03  0.48965215837E+03  0.50400000000E-02 0. -1.
    8880023    1    1    2    0    0 -0.27977641380E+03  0.94354663051E+02  0.26659432180E+03  0.76945460090E+03  0.65864270000E+03 0.  1.
    8880022    1    1    2    0    0  0.27977641380E+03 -0.94354663051E+02 -0.12218604351E+03  0.35425799413E+03  0.15294330000E+03 0.  0.
<mgrwt>
<rscale>  0 0.59465444E+03</rscale>
<asrwt>0</asrwt>
<pdfrwt beam="1">  1        1 0.75331102E-01 0.72179488E+03</pdfrwt>
<pdfrwt beam="2">  1       -1 0.97547759E-01 0.72179488E+03</pdfrwt>
<totfact> 0.47122038E+01</totfact>
</mgrwt>
</event>
<event>
 4    1  0.1043382E-007  0.8603779E+03  0.7818608E-02  0.9592892E-01
         -1   -1    0    0    0  501 -0.00000000000E+00  0.00000000000E+00  0.36452479100E+03  0.36452479104E+03  0.50400000000E-02 0.  1.
          1   -1    0    0  501    0  0.00000000000E+00 -0.00000000000E+00 -0.25235309478E+04  0.25235309478E+04  0.50400000000E-02 0. -1.
    8880023    1    1    2    0    0 -0.53093436344E+03 -0.15668002875E+03 -0.25211241281E+03  0.89655496465E+03  0.65864270000E+03 0.  0.
    8880022    1    1    2    0    0  0.53093436344E+03  0.15668002875E+03 -0.19068937440E+04  0.19915007741E+04  0.15294330000E+03 0.  0.
<mgrwt>
<rscale>  0 0.77768454E+03</rscale>
<asrwt>0</asrwt>
<pdfrwt beam="1">  1        1 0.38823552E+00 0.86037790E+03</pdfrwt>
<pdfrwt beam="2">  1       -1 0.56080739E-01 0.86037790E+03</pdfrwt>
<totfact> 0.43651150E+00</totfact>
</mgrwt>
</event>
<event>
 4    1  0.1043382E-007  0.6880118E+03  0.7818608E-02  0.1005112E+00
         -1   -1    0    0    0  501 -0.00000000000E+00  0.00000000000E+00  0.30077230381E+04  0.30077230381E+04  0.50400000000E-02 0.  1.
          1   -1    0    0  501    0  0.00000000000E+00 -0.00000000000E+00 -0.97167834808E+02  0.97167834939E+02  0.50400000000E-02 0. -1.
    8880023    1    1    2    0    0 -0.19527852228E+03  0.37634903609E+02  0.26703470359E+04  0.27575557266E+04  0.65864270000E+03 0.  1.
    8880022    1    1    2    0    0  0.19527852228E+03 -0.37634903609E+02  0.24020816747E+03  0.34733514646E+03  0.15294330000E+03 0.  0.
<mgrwt>
<rscale>  0 0.53464348E+03</rscale>
<asrwt>0</asrwt>
<pdfrwt beam="1">  1        1 0.14948900E-01 0.68801184E+03</pdfrwt>
<pdfrwt beam="2">  1       -1 0.46272656E+00 0.68801184E+03</pdfrwt>
<totfact> 0.11021081E+00</totfact>
</mgrwt>
</event>
<event>
 4    1  0.1043382E-007  0.7002198E+03  0.7818608E-02  0.9996291E-01
          1   -1    0    0  501    0  0.00000000000E+00  0.00000000000E+00  0.50502431804E+03  0.50502431806E+03  0.50400000000E-02 0. -1.
         -1   -1    0    0    0  501 -0.00000000000E+00 -0.00000000000E+00 -0.48356373354E+03  0.48356373357E+03  0.50400000000E-02 0.  1.
    8880023    1    1    2    0    0 -0.20510412271E+03  0.12012419167E+03 -0.31910564989E+02  0.70094651222E+03  0.65864270000E+03 0. -1.
    8880022    1    1    2    0    0  0.20510412271E+03 -0.12012419167E+03  0.53371149485E+02  0.28764153940E+03  0.15294330000E+03 0.  1.
<mgrwt>
<rscale>  0 0.55813180E+03</rscale>
<asrwt>0</asrwt>
<pdfrwt beam="1">  1        1 0.77696049E-01 0.70021977E+03</pdfrwt>
<pdfrwt beam="2">  1       -1 0.74394421E-01 0.70021977E+03</pdfrwt>
<totfact> 0.81297697E+01</totfact>
</mgrwt>
</event>
<event>
 4    1  0.1043382E-007  0.7864625E+03  0.7818608E-02  0.9740870E-01
         -1   -1    0    0    0  501 -0.00000000000E+00  0.00000000000E+00  0.19187527646E+04  0.19187527646E+04  0.50400000000E-02 0.  1.
          1   -1    0    0  501    0  0.00000000000E+00 -0.00000000000E+00 -0.52328178059E+03  0.52328178061E+03  0.50400000000E-02 0. -1.
    8880023    1    1    2    0    0 -0.62275148146E+02  0.42524681416E+03  0.17138838319E+04  0.18857149951E+04  0.65864270000E+03 0.  1.
    8880022    1    1    2    0    0  0.62275148146E+02 -0.42524681416E+03 -0.31841284798E+03  0.55631955009E+03  0.15294330000E+03 0.  0.
<mgrwt>
<rscale>  0 0.68634701E+03</rscale>
<asrwt>0</asrwt>
<pdfrwt beam="1">  1        1 0.80504889E-01 0.78646249E+03</pdfrwt>
<pdfrwt beam="2">  1       -1 0.29519274E+00 0.78646249E+03</pdfrwt>
<totfact> 0.15442794E+00</totfact>
</mgrwt>
</event>
<event>
 4    1  0.1043382E-007  0.7100170E+03  0.7818608E-02  0.9957938E-01
          1   -1    0    0  501    0  0.00000000000E+00  0.00000000000E+00  0.32563766327E+03  0.32563766331E+03  0.50400000000E-02 0. -1.
         -1   -1    0    0    0  501 -0.00000000000E+00 -0.00000000000E+00 -0.93725113222E+03  0.93725113223E+03  0.50400000000E-02 0.  1.
    8880023    1    1    2    0    0 -0.18192793455E+03  0.19291495685E+03 -0.63943813024E+03  0.95551309914E+03  0.65864270000E+03 0.  0.
    8880022    1    1    2    0    0  0.18192793455E+03 -0.19291495685E+03  0.27824661296E+02  0.30737569640E+03  0.15294330000E+03 0.  0.
<mgrwt>
<rscale>  0 0.57533695E+03</rscale>
<asrwt>0</asrwt>
<pdfrwt beam="1">  1        1 0.50098102E-01 0.71001701E+03</pdfrwt>
<pdfrwt beam="2">  1       -1 0.14419248E+00 0.71001701E+03</pdfrwt>
<totfact> 0.31351606E+01</totfact>
</mgrwt>
</event>
<event>
 4    1  0.1043382E-007  0.8862960E+03  0.7818608E-02  0.9548399E-01
         -1   -1    0    0    0  501 -0.00000000000E+00  0.00000000000E+00  0.43338319946E+03  0.43338319949E+03  0.50400000000E-02 0.  1.
          1   -1    0    0  501    0  0.00000000000E+00 -0.00000000000E+00 -0.18689203345E+04  0.18689203345E+04  0.50400000000E-02 0. -1.
    8880023    1    1    2    0    0 -0.30115876724E+03  0.51089516854E+03 -0.17862739482E+03  0.90411748615E+03  0.65864270000E+03 0.  1.
    8880022    1    1    2    0    0  0.30115876724E+03 -0.51089516854E+03 -0.12569097402E+04  0.13981860478E+04  0.15294330000E+03 0.  0.
<mgrwt>
<rscale>  0 0.80807710E+03</rscale>
<asrwt>0</asrwt>
<pdfrwt beam="1">  1        1 0.28752620E+00 0.88629605E+03</pdfrwt>
<pdfrwt beam="2">  1       -1 0.66674340E-01 0.88629605E+03</pdfrwt>
<totfact> 0.85375181E+00</totfact>
</mgrwt>
</event>
<event>
 4    1  0.1043382E-007  0.7526229E+03  0.7818608E-02  0.9824595E-01
         -1   -1    0    0    0  501 -0.00000000000E+00  0.00000000000E+00  0.99927821162E+03  0.99927821163E+03  0.50400000000E-02 0.  1.
          1   -1    0    0  501    0  0.00000000000E+00 -0.00000000000E+00 -0.60273740122E+03  0.60273740124E+03  0.50400000000E-02 0. -1.
    8880023    1    1    2    0    0 -0.33143876380E+03 -0.15092825495E+03  0.75685567061E+03  0.10673667152E+04  0.65864270000E+03 0.  1.
    8880022    1    1    2    0    0  0.33143876380E+03  0.15092825495E+03 -0.36031486021E+03  0.53464889769E+03  0.15294330000E+03 0.  0.
<mgrwt>
<rscale>  0 0.64059201E+03</rscale>
<asrwt>0</asrwt>
<pdfrwt beam="1">  1        1 0.92728832E-01 0.75262288E+03</pdfrwt>
<pdfrwt beam="2">  1       -1 0.15373511E+00 0.75262288E+03</pdfrwt>
<totfact> 0.11429628E+01</totfact>
</mgrwt>
</event>
<event>
 4    1  0.1043382E-007  0.1267062E+04  0.7818608E-02  0.9094539E-01
          1   -1    0    0  501    0  0.00000000000E+00  0.00000000000E+00  0.14465701138E+04  0.14465701138E+04  0.50400000000E-02 0. -1.
         -1   -1    0    0    0  501 -0.00000000000E+00 -0.00000000000E+00 -0.99248927659E+03  0.99248927660E+03  0.50400000000E-02 0.  1.
    8880023    1    1    2    0    0 -0.26649318856E+03  0.10491029682E+04  0.32699653870E+02  0.12674837794E+04  0.65864270000E+03 0. -1.
    8880022    1    1    2    0    0  0.26649318856E+03 -0.10491029682E+04  0.42138118336E+03  0.11715756110E+04  0.15294330000E+03 0.  1.
<mgrwt>
<rscale>  0 0.12211545E+04</rscale>
<asrwt>0</asrwt>
<pdfrwt beam="1">  1        1 0.22254925E+00 0.12670619E+04</pdfrwt>
<pdfrwt beam="2">  1       -1 0.15269066E+00 0.12670619E+04</pdfrwt>
<totfact> 0.23073382E+00</totfact>
</mgrwt>
</event>
<event>
 4    1  0.1043382E-007  0.8501796E+03  0.7818608E-02  0.9611277E-01
         -1   -1    0    0    0  501 -0.00000000000E+00  0.00000000000E+00  0.10126522096E+04  0.10126522096E+04  0.50400000000E-02 0.  1.
          1   -1    0    0  501    0  0.00000000000E+00 -0.00000000000E+00 -0.12136576655E+04  0.12136576655E+04  0.50400000000E-02 0. -1.
    8880023    1    1    2    0    0  0.16276519277E+02  0.53733620415E+03  0.74310460584E+03  0.11291633110E+04  0.65864270000E+03 0.  1.
    8880022    1    1    2    0    0 -0.16276519277E+02 -0.53733620415E+03 -0.94411006181E+03  0.10971465641E+04  0.15294330000E+03 0.  0.
<mgrwt>
<rscale>  0 0.76554299E+03</rscale>
<asrwt>0</asrwt>
<pdfrwt beam="1">  1        1 0.18671656E+00 0.85017959E+03</pdfrwt>
<pdfrwt beam="2">  1       -1 0.15579265E+00 0.85017959E+03</pdfrwt>
<totfact> 0.33658837E+00</totfact>
</mgrwt>
</event>
<event>
 4    1  0.1043382E-007  0.9608610E+03  0.7818608E-02  0.9434657E-01
          1   -1    0    0  501    0  0.00000000000E+00  0.00000000000E+00  0.16157045305E+04  0.16157045306E+04  0.50400000000E-02 0. -1.
         -1   -1    0    0    0  501 -0.00000000000E+00 -0.00000000000E+00 -0.52464060541E+03  0.52464060543E+03  0.50400000000E-02 0.  1.
    8880023    1    1    2    0    0  0.42438646622E+03 -0.55618320711E+03  0.17349263044E+03  0.97639824439E+03  0.65864270000E+03 0.  0.
    8880022    1    1    2    0    0 -0.42438646622E+03  0.55618320711E+03  0.91757129470E+03  0.11639468916E+04  0.15294330000E+03 0.  0.
<mgrwt>
<rscale>  0 0.89277631E+03</rscale>
<asrwt>0</asrwt>
<pdfrwt beam="1">  1        1 0.24856993E+00 0.96086099E+03</pdfrwt>
<pdfrwt beam="2">  1       -1 0.80713940E-01 0.96086099E+03</pdfrwt>
<totfact> 0.84274111E+00</totfact>
</mgrwt>
</event>
<event>
 4    1  0.1043382E-007  0.7419634E+03  0.7818608E-02  0.9854264E-01
          1   -1    0    0  501    0  0.00000000000E+00  0.00000000000E+00  0.11906877162E+04  0.11906877162E+04  0.50400000000E-02 0. -1.
         -1   -1    0    0    0  501 -0.00000000000E+00 -0.00000000000E+00 -0.31780221366E+03  0.31780221370E+03  0.50400000000E-02 0.  1.
    8880023    1    1    2    0    0 -0.25914419080E+03  0.22258431674E+03  0.25214242550E+03  0.78363607541E+03  0.65864270000E+03 0.  1.
    8880022    1    1    2    0    0  0.25914419080E+03 -0.22258431674E+03  0.62074307702E+03  0.72485385449E+03  0.15294330000E+03 0. -1.
<mgrwt>
<rscale>  0 0.62529967E+03</rscale>
<asrwt>0</asrwt>
<pdfrwt beam="1">  1        1 0.18318273E+00 0.74196341E+03</pdfrwt>
<pdfrwt beam="2">  1       -1 0.48892648E-01 0.74196341E+03</pdfrwt>
<totfact> 0.46685545E+01</totfact>
</mgrwt>
</event>
<event>
 4    1  0.1043382E-007  0.8855799E+03  0.7818608E-02  0.9549589E-01
         -1   -1    0    0    0  501 -0.00000000000E+00  0.00000000000E+00  0.36594349834E+03  0.36594349838E+03  0.50400000000E-02 0.  1.
          1   -1    0    0  501    0  0.00000000000E+00 -0.00000000000E+00 -0.16024575725E+04  0.16024575725E+04  0.50400000000E-02 0. -1.
    8880023    1    1    2    0    0  0.59196212765E+03 -0.47404903031E+01 -0.52192704514E+03  0.10279395311E+04  0.65864270000E+03 0.  0.
    8880022    1    1    2    0    0 -0.59196212765E+03  0.47404903031E+01 -0.71458702903E+03  0.94046153983E+03  0.15294330000E+03 0.  0.
<mgrwt>
<rscale>  0 0.80724539E+03</rscale>
<asrwt>0</asrwt>
<pdfrwt beam="1">  1        1 0.24653193E+00 0.88557995E+03</pdfrwt>
<pdfrwt beam="2">  1       -1 0.56299001E-01 0.88557995E+03</pdfrwt>
<totfact> 0.18083238E+01</totfact>
</mgrwt>
</event>
<event>
 4    1  0.1043382E-007  0.8028083E+03  0.7818608E-02  0.9704757E-01
          1   -1    0    0  501    0  0.00000000000E+00  0.00000000000E+00  0.22618530723E+04  0.22618530723E+04  0.50400000000E-02 0. -1.
         -1   -1    0    0    0  501 -0.00000000000E+00 -0.00000000000E+00 -0.22436245290E+03  0.22436245296E+03  0.50400000000E-02 0.  1.
    8880023    1    1    2    0    0 -0.34543384348E+03  0.30226872995E+03  0.17451031548E+04  0.19209076377E+04  0.65864270000E+03 0. -1.
    8880022    1    1    2    0    0  0.34543384348E+03 -0.30226872995E+03  0.29238746464E+03  0.56530788763E+03  0.15294330000E+03 0.  0.
<mgrwt>
<rscale>  0 0.70734293E+03</rscale>
<asrwt>0</asrwt>
<pdfrwt beam="1">  1        1 0.34797741E+00 0.80280828E+03</pdfrwt>
<pdfrwt beam="2">  1       -1 0.34517299E-01 0.80280828E+03</pdfrwt>
<totfact> 0.16322884E+01</totfact>
</mgrwt>
</event>
<event>
 4    1  0.1043382E-007  0.9350634E+03  0.7818608E-02  0.9471938E-01
          1   -1    0    0  501    0  0.00000000000E+00  0.00000000000E+00  0.16102126177E+04  0.16102126177E+04  0.50400000000E-02 0. -1.
         -1   -1    0    0    0  501 -0.00000000000E+00 -0.00000000000E+00 -0.43326453134E+03  0.43326453137E+03  0.50400000000E-02 0.  1.
    8880023    1    1    2    0    0  0.20503547702E+03 -0.63126372055E+03  0.41958481429E+03  0.10248878253E+04  0.65864270000E+03 0.  0.
    8880022    1    1    2    0    0 -0.20503547702E+03  0.63126372055E+03  0.75736327210E+03  0.10185893239E+04  0.15294330000E+03 0.  0.
<mgrwt>
<rscale>  0 0.86384692E+03</rscale>
<asrwt>0</asrwt>
<pdfrwt beam="1">  1        1 0.24772502E+00 0.93506344E+03</pdfrwt>
<pdfrwt beam="2">  1       -1 0.66656082E-01 0.93506344E+03</pdfrwt>
<totfact> 0.12698501E+01</totfact>
</mgrwt>
</event>
<event>
 4    1  0.1043382E-007  0.7633632E+03  0.7818608E-02  0.9796477E-01
          1   -1    0    0  501    0  0.00000000000E+00  0.00000000000E+00  0.69509227692E+03  0.69509227694E+03  0.50400000000E-02 0. -1.
         -1   -1    0    0    0  501 -0.00000000000E+00 -0.00000000000E+00 -0.58750792649E+03  0.58750792651E+03  0.50400000000E-02 0.  1.
    8880023    1    1    2    0    0  0.33766224525E+02 -0.38441253968E+03  0.30613630710E+03  0.82246142972E+03  0.65864270000E+03 0.  0.
    8880022    1    1    2    0    0 -0.33766224525E+02  0.38441253968E+03 -0.19855195667E+03  0.46013877374E+03  0.15294330000E+03 0.  0.
<mgrwt>
<rscale>  0 0.65551946E+03</rscale>
<asrwt>0</asrwt>
<pdfrwt beam="1">  1        1 0.10693727E+00 0.76336319E+03</pdfrwt>
<pdfrwt beam="2">  1       -1 0.90385835E-01 0.76336319E+03</pdfrwt>
<totfact> 0.33706521E+01</totfact>
</mgrwt>
</event>
<event>
 4    1  0.1043382E-007  0.6587047E+03  0.7818608E-02  0.1025524E+00
          1   -1    0    0  501    0  0.00000000000E+00  0.00000000000E+00  0.26690086384E+04  0.26690086384E+04  0.50400000000E-02 0. -1.
         -1   -1    0    0    0  501 -0.00000000000E+00 -0.00000000000E+00 -0.14572563053E+03  0.14572563061E+03  0.50400000000E-02 0.  1.
    8880023    1    1    2    0    0 -0.80427370426E+01 -0.41284029770E+01  0.61775750484E+03  0.90305939471E+03  0.65864270000E+03 0.  1.
    8880022    1    1    2    0    0  0.80427370426E+01  0.41284029770E+01  0.19055255030E+04  0.19116748743E+04  0.15294330000E+03 0.  0.
<mgrwt>
<rscale>  0 0.45744623E+03</rscale>
<asrwt>0</asrwt>
<pdfrwt beam="1">  1        1 0.41061666E+00 0.65870474E+03</pdfrwt>
<pdfrwt beam="2">  1       -1 0.22419331E-01 0.65870474E+03</pdfrwt>
<totfact> 0.18572967E+01</totfact>
</mgrwt>
</event>
<event>
 4    1  0.1043382E-007  0.7453215E+03  0.7818608E-02  0.9844708E-01
         -1   -1    0    0    0  501 -0.00000000000E+00  0.00000000000E+00  0.26751238982E+03  0.26751238987E+03  0.50400000000E-02 0.  1.
          1   -1    0    0  501    0  0.00000000000E+00 -0.00000000000E+00 -0.13393866488E+04  0.13393866488E+04  0.50400000000E-02 0. -1.
    8880023    1    1    2    0    0 -0.18333966425E+03 -0.29678363208E+03 -0.42986614353E+03  0.86040052556E+03  0.65864270000E+03 0. -1.
    8880022    1    1    2    0    0  0.18333966425E+03  0.29678363208E+03 -0.64200811541E+03  0.74649851308E+03  0.15294330000E+03 0.  0.
<mgrwt>
<rscale>  0 0.63017444E+03</rscale>
<asrwt>0</asrwt>
<pdfrwt beam="1">  1        1 0.20605948E+00 0.74532152E+03</pdfrwt>
<pdfrwt beam="2">  1       -1 0.41155753E-01 0.74532152E+03</pdfrwt>
<totfact> 0.50338452E+01</totfact>
</mgrwt>
</event>
<event>
 4    1  0.1043382E-007  0.7697880E+03  0.7818608E-02  0.9780396E-01
          1   -1    0    0  501    0  0.00000000000E+00  0.00000000000E+00  0.10358820225E+04  0.10358820225E+04  0.50400000000E-02 0. -1.
         -1   -1    0    0    0  501 -0.00000000000E+00 -0.00000000000E+00 -0.35076109290E+03  0.35076109293E+03  0.50400000000E-02 0.  1.
    8880023    1    1    2    0    0  0.38679096466E+03 -0.95687511904E+02  0.35831348717E+03  0.84909487787E+03  0.65864270000E+03 0.  1.
    8880022    1    1    2    0    0 -0.38679096466E+03  0.95687511904E+02  0.32680744243E+03  0.53754823758E+03  0.15294330000E+03 0. -1.
<mgrwt>
<rscale>  0 0.66425294E+03</rscale>
<asrwt>0</asrwt>
<pdfrwt beam="1">  1        1 0.15936646E+00 0.76978799E+03</pdfrwt>
<pdfrwt beam="2">  1       -1 0.53963246E-01 0.76978799E+03</pdfrwt>
<totfact> 0.50289842E+01</totfact>
</mgrwt>
</event>
<event>
 4    1  0.1043382E-007  0.6660869E+03  0.7818608E-02  0.1018638E+00
          1   -1    0    0  501    0  0.00000000000E+00  0.00000000000E+00  0.68204014880E+03  0.68204014882E+03  0.50400000000E-02 0. -1.
         -1   -1    0    0    0  501 -0.00000000000E+00 -0.00000000000E+00 -0.73715365188E+03  0.73715365190E+03  0.50400000000E-02 0.  1.
    8880023    1    1    2    0    0 -0.63217907654E+02  0.76583324130E+02 -0.56766743232E+03  0.87516742933E+03  0.65864270000E+03 0.  1.
    8880022    1    1    2    0    0  0.63217907654E+02 -0.76583324130E+02  0.51255392924E+03  0.54402637140E+03  0.15294330000E+03 0.  0.
<mgrwt>
<rscale>  0 0.48181162E+03</rscale>
<asrwt>0</asrwt>
<pdfrwt beam="1">  1        1 0.10492925E+00 0.66608687E+03</pdfrwt>
<pdfrwt beam="2">  1       -1 0.11340825E+00 0.66608687E+03</pdfrwt>
<totfact> 0.20855578E+01</totfact>
</mgrwt>
</event>
<event>
 4    1  0.1043382E-007  0.9269672E+03  0.7818608E-02  0.9484058E-01
         -1   -1    0    0    0  501 -0.00000000000E+00  0.00000000000E+00  0.93144290624E+03  0.93144290626E+03  0.50400000000E-02 0.  1.
          1   -1    0    0  501    0  0.00000000000E+00 -0.00000000000E+00 -0.79633241587E+03  0.79633241588E+03  0.50400000000E-02 0. -1.
    8880023    1    1    2    0    0 -0.65064573496E+03 -0.46022238489E+02  0.39705547520E+03  0.10084250966E+04  0.65864270000E+03 0.  0.
    8880022    1    1    2    0    0  0.65064573496E+03  0.46022238489E+02 -0.26194498483E+03  0.71935022551E+03  0.15294330000E+03 0.  0.
<mgrwt>
<rscale>  0 0.85469441E+03</rscale>
<asrwt>0</asrwt>
<pdfrwt beam="1">  1        1 0.12251268E+00 0.92696717E+03</pdfrwt>
<pdfrwt beam="2">  1       -1 0.14329891E+00 0.92696717E+03</pdfrwt>
<totfact> 0.88680075E+00</totfact>
</mgrwt>
</event>
<event>
 4    1  0.1043382E-007  0.8220703E+03  0.7818608E-02  0.9664963E-01
          1   -1    0    0  501    0  0.00000000000E+00  0.00000000000E+00  0.11555565603E+04  0.11555565603E+04  0.50400000000E-02 0. -1.
         -1   -1    0    0    0  501 -0.00000000000E+00 -0.00000000000E+00 -0.46627040100E+03  0.46627040102E+03  0.50400000000E-02 0.  1.
    8880023    1    1    2    0    0 -0.48086053565E+03 -0.10374233359E+03  0.73752805980E+03  0.11044216458E+04  0.65864270000E+03 0.  0.
    8880022    1    1    2    0    0  0.48086053565E+03  0.10374233359E+03 -0.48241900504E+02  0.51740531550E+03  0.15294330000E+03 0.  0.
<mgrwt>
<rscale>  0 0.73141764E+03</rscale>
<asrwt>0</asrwt>
<pdfrwt beam="1">  1        1 0.17777793E+00 0.82207027E+03</pdfrwt>
<pdfrwt beam="2">  1       -1 0.71733909E-01 0.82207027E+03</pdfrwt>
<totfact> 0.23085397E+01</totfact>
</mgrwt>
</event>
<event>
 4    1  0.1043382E-007  0.1305923E+04  0.7818608E-02  0.9060461E-01
          1   -1    0    0  501    0  0.00000000000E+00  0.00000000000E+00  0.23798248548E+04  0.23798248548E+04  0.50400000000E-02 0. -1.
         -1   -1    0    0    0  501 -0.00000000000E+00 -0.00000000000E+00 -0.80114160138E+03  0.80114160139E+03  0.50400000000E-02 0.  1.
    8880023    1    1    2    0    0 -0.30113325089E+03 -0.10867126978E+04  0.92585149271E+02  0.13092012598E+04  0.65864270000E+03 0.  0.
    8880022    1    1    2    0    0  0.30113325089E+03  0.10867126978E+04  0.14860981042E+04  0.18717651965E+04  0.15294330000E+03 0.  0.
<mgrwt>
<rscale>  0 0.12617483E+04</rscale>
<asrwt>0</asrwt>
<pdfrwt beam="1">  1        1 0.36612690E+00 0.13059234E+04</pdfrwt>
<pdfrwt beam="2">  1       -1 0.12325255E+00 0.13059234E+04</pdfrwt>
<totfact> 0.92608149E-01</totfact>
</mgrwt>
</event>
<event>
 4    1  0.1043382E-007  0.7510687E+03  0.7818608E-02  0.9828804E-01
         -1   -1    0    0    0  501 -0.00000000000E+00  0.00000000000E+00  0.31114297367E+03  0.31114297371E+03  0.50400000000E-02 0.  1.
          1   -1    0    0  501    0  0.00000000000E+00 -0.00000000000E+00 -0.11156906107E+04  0.11156906107E+04  0.50400000000E-02 0. -1.
    8880023    1    1    2    0    0 -0.30086029215E+03  0.19944173009E+03 -0.35616290852E+03  0.83123771736E+03  0.65864270000E+03 0.  1.
    8880022    1    1    2    0    0  0.30086029215E+03 -0.19944173009E+03 -0.44838472854E+03  0.59559586709E+03  0.15294330000E+03 0.  0.
<mgrwt>
<rscale>  0 0.63839410E+03</rscale>
<asrwt>0</asrwt>
<pdfrwt beam="1">  1        1 0.17164471E+00 0.75106866E+03</pdfrwt>
<pdfrwt beam="2">  1       -1 0.47868150E-01 0.75106866E+03</pdfrwt>
<totfact> 0.55096052E+01</totfact>
</mgrwt>
</event>
<event>
 4    1  0.1043382E-007  0.7833895E+03  0.7818608E-02  0.9747935E-01
          1   -1    0    0  501    0  0.00000000000E+00  0.00000000000E+00  0.15731336879E+04  0.15731336879E+04  0.50400000000E-02 0. -1.
         -1   -1    0    0    0  501 -0.00000000000E+00 -0.00000000000E+00 -0.40677724180E+03  0.40677724183E+03  0.50400000000E-02 0.  1.
    8880023    1    1    2    0    0 -0.31758095438E+03 -0.28112481529E+03  0.60555280262E+02  0.78572639804E+03  0.65864270000E+03 0.  1.
    8880022    1    1    2    0    0  0.31758095438E+03  0.28112481529E+03  0.11058011658E+04  0.11941845317E+04  0.15294330000E+03 0.  0.
<mgrwt>
<rscale>  0 0.68233123E+03</rscale>
<asrwt>0</asrwt>
<pdfrwt beam="1">  1        1 0.24202057E+00 0.78338945E+03</pdfrwt>
<pdfrwt beam="2">  1       -1 0.62581114E-01 0.78338945E+03</pdfrwt>
<totfact> 0.15567256E+01</totfact>
</mgrwt>
</event>
<event>
 4    1  0.1043382E-007  0.8414214E+03  0.7818608E-02  0.9627506E-01
          1   -1    0    0  501    0  0.00000000000E+00  0.00000000000E+00  0.29960820135E+04  0.29960820135E+04  0.50400000000E-02 0. -1.
         -1   -1    0    0    0  501 -0.00000000000E+00 -0.00000000000E+00 -0.16103495808E+03  0.16103495816E+03  0.50400000000E-02 0.  1.
    8880023    1    1    2    0    0 -0.50724873835E+03  0.12991695586E+03  0.16305639416E+04  0.18348647558E+04  0.65864270000E+03 0.  0.
    8880022    1    1    2    0    0  0.50724873835E+03 -0.12991695586E+03  0.12044831137E+04  0.13222522158E+04  0.15294330000E+03 0. -1.
<mgrwt>
<rscale>  0 0.75502101E+03</rscale>
<asrwt>0</asrwt>
<pdfrwt beam="1">  1        1 0.46093570E+00 0.84142136E+03</pdfrwt>
<pdfrwt beam="2">  1       -1 0.24774609E-01 0.84142136E+03</pdfrwt>
<totfact> 0.89636669E+00</totfact>
</mgrwt>
</event>
<event>
 4    1  0.1043382E-007  0.7071365E+03  0.7818608E-02  0.9968792E-01
         -1   -1    0    0    0  501 -0.00000000000E+00  0.00000000000E+00  0.82534768336E+03  0.82534768338E+03  0.50400000000E-02 0.  1.
          1   -1    0    0  501    0  0.00000000000E+00 -0.00000000000E+00 -0.12555145691E+04  0.12555145691E+04  0.50400000000E-02 0. -1.
    8880023    1    1    2    0    0 -0.22873697430E+03  0.11794588801E+03  0.64968687117E+03  0.96027864328E+03  0.65864270000E+03 0.  1.
    8880022    1    1    2    0    0  0.22873697430E+03 -0.11794588801E+03 -0.10798537569E+04  0.11205836092E+04  0.15294330000E+03 0.  0.
<mgrwt>
<rscale>  0 0.57040087E+03</rscale>
<asrwt>0</asrwt>
<pdfrwt beam="1">  1        1 0.19315609E+00 0.70713651E+03</pdfrwt>
<pdfrwt beam="2">  1       -1 0.12697657E+00 0.70713651E+03</pdfrwt>
<totfact> 0.54790444E+00</totfact>
</mgrwt>
</event>
<event>
 4    1  0.1043382E-007  0.1005563E+04  0.7818608E-02  0.9374316E-01
          1   -1    0    0  501    0  0.00000000000E+00  0.00000000000E+00  0.16094346562E+04  0.16094346562E+04  0.50400000000E-02 0. -1.
         -1   -1    0    0    0  501 -0.00000000000E+00 -0.00000000000E+00 -0.61671013456E+03  0.61671013458E+03  0.50400000000E-02 0.  1.
    8880023    1    1    2    0    0 -0.68910268055E+03  0.32013130009E+03  0.51521167514E+02  0.10068819149E+04  0.65864270000E+03 0.  0.
    8880022    1    1    2    0    0  0.68910268055E+03 -0.32013130009E+03  0.94120335417E+03  0.12192628759E+04  0.15294330000E+03 0.  0.
<mgrwt>
<rscale>  0 0.94219889E+03</rscale>
<asrwt>0</asrwt>
<pdfrwt beam="1">  1        1 0.24760533E+00 0.10055629E+04</pdfrwt>
<pdfrwt beam="2">  1       -1 0.94878482E-01 0.10055629E+04</pdfrwt>
<totfact> 0.59389900E+00</totfact>
</mgrwt>
</event>
<event>
 4    1  0.1043382E-007  0.6641383E+03  0.7818608E-02  0.1020268E+00
          1   -1    0    0  501    0  0.00000000000E+00  0.00000000000E+00  0.51707661826E+03  0.51707661829E+03  0.50400000000E-02 0. -1.
         -1   -1    0    0    0  501 -0.00000000000E+00 -0.00000000000E+00 -0.44910499929E+03  0.44910499932E+03  0.50400000000E-02 0.  1.
    8880023    1    1    2    0    0  0.78802712403E+01  0.84896026853E+02 -0.15567674566E+03  0.68213993392E+03  0.65864270000E+03 0.  1.
    8880022    1    1    2    0    0 -0.78802712403E+01 -0.84896026853E+02  0.22364836463E+03  0.28404168368E+03  0.15294330000E+03 0.  0.
<mgrwt>
<rscale>  0 0.47590177E+03</rscale>
<asrwt>0</asrwt>
<pdfrwt beam="1">  1        1 0.79550249E-01 0.66413827E+03</pdfrwt>
<pdfrwt beam="2">  1       -1 0.69093077E-01 0.66413827E+03</pdfrwt>
<totfact> 0.91873004E+01</totfact>
</mgrwt>
</event>
<event>
 4    1  0.1043382E-007  0.8642226E+03  0.7818608E-02  0.9586096E-01
          1   -1    0    0  501    0  0.00000000000E+00  0.00000000000E+00  0.59693943136E+03  0.59693943138E+03  0.50400000000E-02 0. -1.
         -1   -1    0    0    0  501 -0.00000000000E+00 -0.00000000000E+00 -0.10576716786E+04  0.10576716786E+04  0.50400000000E-02 0.  1.
    8880023    1    1    2    0    0  0.54328356854E+03 -0.13384116623E+03 -0.60737624076E+03  0.10563080032E+04  0.65864270000E+03 0.  1.
    8880022    1    1    2    0    0 -0.54328356854E+03  0.13384116623E+03  0.14664399356E+03  0.59830310670E+03  0.15294330000E+03 0. -1.
<mgrwt>
<rscale>  0 0.78223319E+03</rscale>
<asrwt>0</asrwt>
<pdfrwt beam="1">  1        1 0.91836836E-01 0.86422260E+03</pdfrwt>
<pdfrwt beam="2">  1       -1 0.16271872E+00 0.86422260E+03</pdfrwt>
<totfact> 0.97789429E+00</totfact>
</mgrwt>
</event>
<event>
 4    1  0.1043382E-007  0.8368982E+03  0.7818608E-02  0.9636057E-01
         -1   -1    0    0    0  501 -0.00000000000E+00  0.00000000000E+00  0.14170052576E+04  0.14170052576E+04  0.50400000000E-02 0.  1.
          1   -1    0    0  501    0  0.00000000000E+00 -0.00000000000E+00 -0.10528225586E+04  0.10528225586E+04  0.50400000000E-02 0. -1.
    8880023    1    1    2    0    0  0.49943143915E+03 -0.13098320625E+03  0.12075467776E+04  0.14692065168E+04  0.65864270000E+03 0.  1.
    8880022    1    1    2    0    0 -0.49943143915E+03  0.13098320625E+03 -0.84336407859E+03  0.10006212994E+04  0.15294330000E+03 0.  0.
<mgrwt>
<rscale>  0 0.74954977E+03</rscale>
<asrwt>0</asrwt>
<pdfrwt beam="1">  1        1 0.16197270E+00 0.83689818E+03</pdfrwt>
<pdfrwt beam="2">  1       -1 0.21800081E+00 0.83689818E+03</pdfrwt>
<totfact> 0.16108560E+00</totfact>
</mgrwt>
</event>
<event>
 4    1  0.1043382E-007  0.1050222E+04  0.7818608E-02  0.9318615E-01
         -1   -1    0    0    0  501 -0.00000000000E+00  0.00000000000E+00  0.10056886714E+04  0.10056886714E+04  0.50400000000E-02 0.  1.
          1   -1    0    0  501    0  0.00000000000E+00 -0.00000000000E+00 -0.11546409411E+04  0.11546409411E+04  0.50400000000E-02 0. -1.
    8880023    1    1    2    0    0 -0.81615386892E+03 -0.55212007479E+02  0.44222200849E+03  0.11395288564E+04  0.65864270000E+03 0.  0.
    8880022    1    1    2    0    0  0.81615386892E+03  0.55212007479E+02 -0.59117427813E+03  0.10208007561E+04  0.15294330000E+03 0.  0.
<mgrwt>
<rscale>  0 0.99087055E+03</rscale>
<asrwt>0</asrwt>
<pdfrwt beam="1">  1        1 0.17763707E+00 0.10502217E+04</pdfrwt>
<pdfrwt beam="2">  1       -1 0.15472133E+00 0.10502217E+04</pdfrwt>
<totfact> 0.36908044E+00</totfact>
</mgrwt>
</event>
<event>
 4    1  0.1043382E-007  0.9033294E+03  0.7818608E-02  0.9520708E-01
          1   -1    0    0  501    0  0.00000000000E+00  0.00000000000E+00  0.81245653333E+03  0.81245653334E+03  0.50400000000E-02 0. -1.
         -1   -1    0    0    0  501 -0.00000000000E+00 -0.00000000000E+00 -0.93072641607E+03  0.93072641608E+03  0.50400000000E-02 0.  1.
    8880023    1    1    2    0    0  0.12147853360E+03 -0.60616561147E+03 -0.46720773744E+03  0.10169990456E+04  0.65864270000E+03 0.  0.
    8880022    1    1    2    0    0 -0.12147853360E+03  0.60616561147E+03  0.34893785470E+03  0.72618390378E+03  0.15294330000E+03 0.  0.
<mgrwt>
<rscale>  0 0.82774182E+03</rscale>
<asrwt>0</asrwt>
<pdfrwt beam="1">  1        1 0.12499331E+00 0.90332939E+03</pdfrwt>
<pdfrwt beam="2">  1       -1 0.14318868E+00 0.90332939E+03</pdfrwt>
<totfact> 0.86263976E+00</totfact>
</mgrwt>
</event>
<event>
 4    1  0.1043382E-007  0.6668974E+03  0.7818608E-02  0.1017992E+00
         -1   -1    0    0    0  501 -0.00000000000E+00  0.00000000000E+00  0.82023207038E+03  0.82023207040E+03  0.50400000000E-02 0.  1.
          1   -1    0    0  501    0  0.00000000000E+00 -0.00000000000E+00 -0.57390920050E+03  0.57390920053E+03  0.50400000000E-02 0. -1.
    8880023    1    1    2    0    0 -0.10323025939E+03 -0.16893543606E+02  0.66160255873E+03  0.93939875998E+03  0.65864270000E+03 0.  1.
    8880022    1    1    2    0    0  0.10323025939E+03  0.16893543606E+02 -0.41527968885E+03  0.45474251094E+03  0.15294330000E+03 0.  0.
<mgrwt>
<rscale>  0 0.48418246E+03</rscale>
<asrwt>0</asrwt>
<pdfrwt beam="1">  1        1 0.88293723E-01 0.66689736E+03</pdfrwt>
<pdfrwt beam="2">  1       -1 0.12618955E+00 0.66689736E+03</pdfrwt>
<totfact> 0.20674716E+01</totfact>
</mgrwt>
</event>
<event>
 4    1  0.1043382E-007  0.8816965E+03  0.7818608E-02  0.9556077E-01
         -1   -1    0    0    0  501 -0.00000000000E+00  0.00000000000E+00  0.13440230263E+04  0.13440230263E+04  0.50400000000E-02 0.  1.
          1   -1    0    0  501    0  0.00000000000E+00 -0.00000000000E+00 -0.47966069173E+03  0.47966069176E+03  0.50400000000E-02 0. -1.
    8880023    1    1    2    0    0  0.67539482659E+02 -0.58225155805E+03  0.83943488013E+03  0.12173904808E+04  0.65864270000E+03 0.  0.
    8880022    1    1    2    0    0 -0.67539482659E+02  0.58225155805E+03  0.24927454471E+02  0.60629323728E+03  0.15294330000E+03 0.  0.
<mgrwt>
<rscale>  0 0.80272754E+03</rscale>
<asrwt>0</asrwt>
<pdfrwt beam="1">  1        1 0.73793954E-01 0.88169647E+03</pdfrwt>
<pdfrwt beam="2">  1       -1 0.20677277E+00 0.88169647E+03</pdfrwt>
<totfact> 0.64595174E+00</totfact>
</mgrwt>
</event>
<event>
 4    1  0.1043382E-007  0.7629917E+03  0.7818608E-02  0.9797423E-01
         -1   -1    0    0    0  501 -0.00000000000E+00  0.00000000000E+00  0.25738381475E+03  0.25738381480E+03  0.50400000000E-02 0.  1.
          1   -1    0    0  501    0  0.00000000000E+00 -0.00000000000E+00 -0.18097916490E+04  0.18097916490E+04  0.50400000000E-02 0. -1.
    8880023    1    1    2    0    0  0.17278727460E+03  0.34422484240E+03 -0.44157417014E+03  0.88155779072E+03  0.65864270000E+03 0.  1.
    8880022    1    1    2    0    0 -0.17278727460E+03 -0.34422484240E+03 -0.11108336641E+04  0.11856176730E+04  0.15294330000E+03 0.  0.
<mgrwt>
<rscale>  0 0.65501029E+03</rscale>
<asrwt>0</asrwt>
<pdfrwt beam="1">  1        1 0.27842948E+00 0.76299174E+03</pdfrwt>
<pdfrwt beam="2">  1       -1 0.39597511E-01 0.76299174E+03</pdfrwt>
<totfact> 0.25759057E+01</totfact>
</mgrwt>
</event>
<event>
 4    1  0.1043382E-007  0.1333143E+04  0.7818608E-02  0.9037454E-01
         -1   -1    0    0    0  501 -0.00000000000E+00  0.00000000000E+00  0.12720836145E+04  0.12720836145E+04  0.50400000000E-02 0.  1.
          1   -1    0    0  501    0  0.00000000000E+00 -0.00000000000E+00 -0.18585759769E+04  0.18585759769E+04  0.50400000000E-02 0. -1.
    8880023    1    1    2    0    0 -0.65683236484E+03  0.95500380997E+03  0.60266986130E+03  0.14630386873E+04  0.65864270000E+03 0.  0.
    8880022    1    1    2    0    0  0.65683236484E+03 -0.95500380997E+03 -0.11891622237E+04  0.16676209041E+04  0.15294330000E+03 0.  0.
<mgrwt>
<rscale>  0 0.12900985E+04</rscale>
<asrwt>0</asrwt>
<pdfrwt beam="1">  1        1 0.28593477E+00 0.13331434E+04</pdfrwt>
<pdfrwt beam="2">  1       -1 0.19570517E+00 0.13331434E+04</pdfrwt>
<totfact> 0.57777250E-01</totfact>
</mgrwt>
</event>
<event>
 4    1  0.1043382E-007  0.7243289E+03  0.7818608E-02  0.9908202E-01
          1   -1    0    0  501    0  0.00000000000E+00  0.00000000000E+00  0.10812514147E+04  0.10812514148E+04  0.50400000000E-02 0. -1.
         -1   -1    0    0    0  501 -0.00000000000E+00 -0.00000000000E+00 -0.37110491059E+03  0.37110491062E+03  0.50400000000E-02 0.  1.
    8880023    1    1    2    0    0  0.17283910408E+03  0.24691868003E+03  0.82269918559E+03  0.10961233264E+04  0.65864270000E+03 0. -1.
    8880022    1    1    2    0    0 -0.17283910408E+03 -0.24691868003E+03 -0.11255268144E+03  0.35623299898E+03  0.15294330000E+03 0.  0.
<mgrwt>
<rscale>  0 0.59865446E+03</rscale>
<asrwt>0</asrwt>
<pdfrwt beam="1">  1        1 0.16634637E+00 0.72432893E+03</pdfrwt>
<pdfrwt beam="2">  1       -1 0.57093063E-01 0.72432893E+03</pdfrwt>
<totfact> 0.41854211E+01</totfact>
</mgrwt>
</event>
<event>
 4    1  0.1043382E-007  0.6982562E+03  0.7818608E-02  0.1000451E+00
         -1   -1    0    0    0  501 -0.00000000000E+00  0.00000000000E+00  0.40666331866E+03  0.40666331869E+03  0.50400000000E-02 0.  1.
          1   -1    0    0  501    0  0.00000000000E+00 -0.00000000000E+00 -0.11517623801E+04  0.11517623801E+04  0.50400000000E-02 0. -1.
    8880023    1    1    2    0    0 -0.81144805166E+02 -0.21717964193E+03  0.65732087070E+02  0.70134327530E+03  0.65864270000E+03 0.  1.
    8880022    1    1    2    0    0  0.81144805166E+02  0.21717964193E+03 -0.81083114850E+03  0.85708242350E+03  0.15294330000E+03 0. -1.
<mgrwt>
<rscale>  0 0.55452770E+03</rscale>
<asrwt>0</asrwt>
<pdfrwt beam="1">  1        1 0.17719421E+00 0.69825617E+03</pdfrwt>
<pdfrwt beam="2">  1       -1 0.62563588E-01 0.69825617E+03</pdfrwt>
<totfact> 0.31089133E+01</totfact>
</mgrwt>
</event>
<event>
 4    1  0.1043382E-007  0.8950215E+03  0.7818608E-02  0.9534071E-01
          1   -1    0    0  501    0  0.00000000000E+00  0.00000000000E+00  0.13320982434E+04  0.13320982434E+04  0.50400000000E-02 0. -1.
         -1   -1    0    0    0  501 -0.00000000000E+00 -0.00000000000E+00 -0.48207065258E+03  0.48207065261E+03  0.50400000000E-02 0.  1.
    8880023    1    1    2    0    0  0.30328855761E+03 -0.52466109516E+03  0.77637230859E+03  0.11848279967E+04  0.65864270000E+03 0.  0.
    8880022    1    1    2    0    0 -0.30328855761E+03  0.52466109516E+03  0.73655282233E+02  0.62934089933E+03  0.15294330000E+03 0.  0.
<mgrwt>
<rscale>  0 0.81817810E+03</rscale>
<asrwt>0</asrwt>
<pdfrwt beam="1">  1        1 0.20493819E+00 0.89502146E+03</pdfrwt>
<pdfrwt beam="2">  1       -1 0.74164716E-01 0.89502146E+03</pdfrwt>
<totfact> 0.15951543E+01</totfact>
</mgrwt>
</event>
<event>
 4    1  0.1043382E-007  0.8631223E+03  0.7818608E-02  0.9588033E-01
         -1   -1    0    0    0  501 -0.00000000000E+00  0.00000000000E+00  0.13988461964E+04  0.13988461964E+04  0.50400000000E-02 0.  1.
          1   -1    0    0  501    0  0.00000000000E+00 -0.00000000000E+00 -0.70035973606E+03  0.70035973608E+03  0.50400000000E-02 0. -1.
    8880023    1    1    2    0    0 -0.17669297200E+02  0.55754617395E+03  0.10977036367E+04  0.13964001648E+04  0.65864270000E+03 0.  0.
    8880022    1    1    2    0    0  0.17669297200E+02 -0.55754617395E+03 -0.39921717632E+03  0.70280576765E+03  0.15294330000E+03 0. -1.
<mgrwt>
<rscale>  0 0.78093300E+03</rscale>
<asrwt>0</asrwt>
<pdfrwt beam="1">  1        1 0.10774765E+00 0.86312232E+03</pdfrwt>
<pdfrwt beam="2">  1       -1 0.21520710E+00 0.86312232E+03</pdfrwt>
<totfact> 0.32996851E+00</totfact>
</mgrwt>
</event>
<event>
 4    1  0.1043382E-007  0.6818872E+03  0.7818608E-02  0.1008276E+00
          1   -1    0    0  501    0  0.00000000000E+00  0.00000000000E+00  0.10795239400E+04  0.10795239400E+04  0.50400000000E-02 0. -1.
         -1   -1    0    0    0  501 -0.00000000000E+00 -0.00000000000E+00 -0.19775019191E+03  0.19775019198E+03  0.50400000000E-02 0.  1.
    8880023    1    1    2    0    0  0.12756719125E+03 -0.12201046961E+03  0.57669775621E+03  0.89305680181E+03  0.65864270000E+03 0.  1.
    8880022    1    1    2    0    0 -0.12756719125E+03  0.12201046961E+03  0.30507599188E+03  0.38421733019E+03  0.15294330000E+03 0.  1.
<mgrwt>
<rscale>  0 0.52165735E+03</rscale>
<asrwt>0</asrwt>
<pdfrwt beam="1">  1        1 0.16608061E+00 0.68188720E+03</pdfrwt>
<pdfrwt beam="2">  1       -1 0.30423106E-01 0.68188720E+03</pdfrwt>
<totfact> 0.13376622E+02</totfact>
</mgrwt>
</event>
<event>
 4    1  0.1043382E-007  0.1307031E+04  0.7818608E-02  0.9059512E-01
          1   -1    0    0  501    0  0.00000000000E+00  0.00000000000E+00  0.22649280137E+04  0.22649280137E+04  0.50400000000E-02 0. -1.
         -1   -1    0    0    0  501 -0.00000000000E+00 -0.00000000000E+00 -0.84646967542E+03  0.84646967543E+03  0.50400000000E-02 0.  1.
    8880023    1    1    2    0    0 -0.28520880265E+03  0.10923254626E+04  0.14749519237E+04  0.19707390393E+04  0.65864270000E+03 0.  1.
    8880022    1    1    2    0    0  0.28520880265E+03 -0.10923254626E+04 -0.56493585458E+02  0.11406586499E+04  0.15294330000E+03 0.  1.
<mgrwt>
<rscale>  0 0.12629028E+04</rscale>
<asrwt>0</asrwt>
<pdfrwt beam="1">  1        1 0.34845046E+00 0.13070307E+04</pdfrwt>
<pdfrwt beam="2">  1       -1 0.13022611E+00 0.13070307E+04</pdfrwt>
<totfact> 0.96605196E-01</totfact>
</mgrwt>
</event>
<event>
 4    1  0.1043382E-007  0.6739873E+03  0.7818608E-02  0.1012952E+00
         -1   -1    0    0    0  501 -0.00000000000E+00  0.00000000000E+00  0.27366690945E+03  0.27366690949E+03  0.50400000000E-02 0.  1.
          1   -1    0    0  501    0  0.00000000000E+00 -0.00000000000E+00 -0.20836411350E+04  0.20836411350E+04  0.50400000000E-02 0. -1.
    8880023    1    1    2    0    0  0.70586402632E+02 -0.12436351923E+03 -0.15818553953E+03  0.69230166570E+03  0.65864270000E+03 0.  1.
    8880022    1    1    2    0    0 -0.70586402632E+02  0.12436351923E+03 -0.16517886860E+04  0.16650063788E+04  0.15294330000E+03 0.  0.
<mgrwt>
<rscale>  0 0.50317967E+03</rscale>
<asrwt>0</asrwt>
<pdfrwt beam="1">  1        1 0.32056016E+00 0.67398734E+03</pdfrwt>
<pdfrwt beam="2">  1       -1 0.42102603E-01 0.67398734E+03</pdfrwt>
<totfact> 0.15313070E+01</totfact>
</mgrwt>
</event>
<event>
 4    1  0.1043382E-007  0.7139728E+03  0.7818608E-02  0.9943534E-01
          1   -1    0    0  501    0  0.00000000000E+00  0.00000000000E+00  0.63636865667E+03  0.63636865669E+03  0.50400000000E-02 0. -1.
         -1   -1    0    0    0  501 -0.00000000000E+00 -0.00000000000E+00 -0.70495556977E+03  0.70495556978E+03  0.50400000000E-02 0.  1.
    8880023    1    1    2    0    0  0.19371163338E+03  0.19601727207E+03 -0.45197863600E+03  0.84500997717E+03  0.65864270000E+03 0.  1.
    8880022    1    1    2    0    0 -0.19371163338E+03 -0.19601727207E+03  0.38339172290E+03  0.49631424930E+03  0.15294330000E+03 0.  0.
<mgrwt>
<rscale>  0 0.58197057E+03</rscale>
<asrwt>0</asrwt>
<pdfrwt beam="1">  1        1 0.97902870E-01 0.71397281E+03</pdfrwt>
<pdfrwt beam="2">  1       -1 0.10845470E+00 0.71397281E+03</pdfrwt>
<totfact> 0.25527125E+01</totfact>
</mgrwt>
</event>
<event>
 4    1  0.1043382E-007  0.6946245E+03  0.7818608E-02  0.1002028E+00
          1   -1    0    0  501    0  0.00000000000E+00  0.00000000000E+00  0.19405426111E+04  0.19405426111E+04  0.50400000000E-02 0. -1.
         -1   -1    0    0    0  501 -0.00000000000E+00 -0.00000000000E+00 -0.14809918079E+03  0.14809918087E+03  0.50400000000E-02 0.  1.
    8880023    1    1    2    0    0 -0.13620650452E+03 -0.17361118248E+03  0.79507873167E+03  0.10557714953E+04  0.65864270000E+03 0.  0.
    8880022    1    1    2    0    0  0.13620650452E+03  0.17361118248E+03  0.99736469862E+03  0.10328702966E+04  0.15294330000E+03 0.  0.
<mgrwt>
<rscale>  0 0.54770031E+03</rscale>
<asrwt>0</asrwt>
<pdfrwt beam="1">  1        1 0.29854501E+00 0.69462455E+03</pdfrwt>
<pdfrwt beam="2">  1       -1 0.22784490E-01 0.69462455E+03</pdfrwt>
<totfact> 0.55750121E+01</totfact>
</mgrwt>
</event>
<event>
 4    1  0.1043382E-007  0.1344738E+04  0.7818608E-02  0.9027858E-01
         -1   -1    0    0    0  501 -0.00000000000E+00  0.00000000000E+00  0.13047750876E+04  0.13047750876E+04  0.50400000000E-02 0.  1.
          1   -1    0    0  501    0  0.00000000000E+00 -0.00000000000E+00 -0.14681882989E+04  0.14681882989E+04  0.50400000000E-02 0. -1.
    8880023    1    1    2    0    0  0.11672904108E+04 -0.10927987937E+03 -0.65101614478E+03  0.14940352145E+04  0.65864270000E+03 0. -1.
    8880022    1    1    2    0    0 -0.11672904108E+04  0.10927987937E+03  0.48760293351E+03  0.12789281720E+04  0.15294330000E+03 0.  0.
<mgrwt>
<rscale>  0 0.13021550E+04</rscale>
<asrwt>0</asrwt>
<pdfrwt beam="1">  1        1 0.22587512E+00 0.13447376E+04</pdfrwt>
<pdfrwt beam="2">  1       -1 0.20073463E+00 0.13447376E+04</pdfrwt>
<totfact> 0.98652161E-01</totfact>
</mgrwt>
</event>
<event>
 4    1  0.1043382E-007  0.6792999E+03  0.7818608E-02  0.1009722E+00
          1   -1    0    0  501    0  0.00000000000E+00  0.00000000000E+00  0.40055311051E+04  0.40055311052E+04  0.50400000000E-02 0. -1.
         -1   -1    0    0    0  501 -0.00000000000E+00 -0.00000000000E+00 -0.60882886324E+02  0.60882886533E+02  0.50400000000E-02 0.  1.
    8880023    1    1    2    0    0 -0.15831607672E+03  0.50736379884E+02  0.35247112827E+04  0.35895735113E+04  0.65864270000E+03 0. -1.
    8880022    1    1    2    0    0  0.15831607672E+03 -0.50736379884E+02  0.41993693609E+03  0.47684048035E+03  0.15294330000E+03 0.  0.
<mgrwt>
<rscale>  0 0.51585087E+03</rscale>
<asrwt>0</asrwt>
<pdfrwt beam="1">  1        1 0.61623568E+00 0.67929991E+03</pdfrwt>
<pdfrwt beam="2">  1       -1 0.93665960E-02 0.67929991E+03</pdfrwt>
<totfact> 0.73796978E+00</totfact>
</mgrwt>
</event>
<event>
 4    1  0.1043382E-007  0.6729990E+03  0.7818608E-02  0.1013598E+00
          1   -1    0    0  501    0  0.00000000000E+00  0.00000000000E+00  0.58729919709E+03  0.58729919712E+03  0.50400000000E-02 0. -1.
         -1   -1    0    0    0  501 -0.00000000000E+00 -0.00000000000E+00 -0.34247790023E+03  0.34247790026E+03  0.50400000000E-02 0.  1.
    8880023    1    1    2    0    0  0.11620994163E+03 -0.74918142358E+02  0.10618706156E+03  0.68132472206E+03  0.65864270000E+03 0.  1.
    8880022    1    1    2    0    0 -0.11620994163E+03  0.74918142358E+02  0.13863423531E+03  0.24845237532E+03  0.15294330000E+03 0.  1.
<mgrwt>
<rscale>  0 0.50069252E+03</rscale>
<asrwt>0</asrwt>
<pdfrwt beam="1">  1        1 0.90353721E-01 0.67299902E+03</pdfrwt>
<pdfrwt beam="2">  1       -1 0.52688909E-01 0.67299902E+03</pdfrwt>
<totfact> 0.13100232E+02</totfact>
</mgrwt>
</event>
<event>
 4    1  0.1043382E-007  0.6676744E+03  0.7818608E-02  0.1017388E+00
         -1   -1    0    0    0  501 -0.00000000000E+00  0.00000000000E+00  0.11931670489E+03  0.11931670499E+03  0.50400000000E-02 0.  1.
          1   -1    0    0  501    0  0.00000000000E+00 -0.00000000000E+00 -0.17279327571E+04  0.17279327571E+04  0.50400000000E-02 0. -1.
    8880023    1    1    2    0    0  0.48491666411E+02 -0.98119882877E+02 -0.94207626295E+03  0.11546847382E+04  0.65864270000E+03 0.  1.
    8880022    1    1    2    0    0 -0.48491666411E+02  0.98119882877E+02 -0.66653978929E+03  0.69256472394E+03  0.15294330000E+03 0.  0.
<mgrwt>
<rscale>  0 0.48641155E+03</rscale>
<asrwt>0</asrwt>
<pdfrwt beam="1">  1        1 0.26583579E+00 0.66767444E+03</pdfrwt>
<pdfrwt beam="2">  1       -1 0.18356417E-01 0.66767444E+03</pdfrwt>
<totfact> 0.11119926E+02</totfact>
</mgrwt>
</event>
<event>
 4    1  0.1043382E-007  0.9620075E+03  0.7818608E-02  0.9433044E-01
         -1   -1    0    0    0  501 -0.00000000000E+00  0.00000000000E+00  0.86029964228E+03  0.86029964230E+03  0.50400000000E-02 0.  1.
          1   -1    0    0  501    0  0.00000000000E+00 -0.00000000000E+00 -0.94304615903E+03  0.94304615904E+03  0.50400000000E-02 0. -1.
    8880023    1    1    2    0    0 -0.55965196153E+03  0.42241913049E+03  0.27627029508E+03  0.10008914637E+04  0.65864270000E+03 0.  0.
    8880022    1    1    2    0    0  0.55965196153E+03 -0.42241913049E+03 -0.35901681182E+03  0.80245433766E+03  0.15294330000E+03 0.  0.
<mgrwt>
<rscale>  0 0.89405442E+03</rscale>
<asrwt>0</asrwt>
<pdfrwt beam="1">  1        1 0.14508402E+00 0.96200751E+03</pdfrwt>
<pdfrwt beam="2">  1       -1 0.13235379E+00 0.96200751E+03</pdfrwt>
<totfact> 0.81875435E+00</totfact>
</mgrwt>
</event>
<event>
 4    1  0.1043382E-007  0.8892537E+03  0.7818608E-02  0.9543508E-01
         -1   -1    0    0    0  501 -0.00000000000E+00  0.00000000000E+00  0.24555440797E+03  0.24555440802E+03  0.50400000000E-02 0.  1.
          1   -1    0    0  501    0  0.00000000000E+00 -0.00000000000E+00 -0.38444562378E+04  0.38444562378E+04  0.50400000000E-02 0. -1.
    8880023    1    1    2    0    0 -0.50551687397E+03  0.31845660678E+03 -0.71542472862E+03  0.11413170764E+04  0.65864270000E+03 0.  1.
    8880022    1    1    2    0    0  0.50551687397E+03 -0.31845660678E+03 -0.28834771012E+04  0.29486935694E+04  0.15294330000E+03 0.  0.
<mgrwt>
<rscale>  0 0.81150779E+03</rscale>
<asrwt>0</asrwt>
<pdfrwt beam="1">  1        1 0.59145476E+00 0.88925369E+03</pdfrwt>
<pdfrwt beam="2">  1       -1 0.37777604E-01 0.88925369E+03</pdfrwt>
<totfact> 0.94501882E-01</totfact>
</mgrwt>
</event>
<event>
 4    1  0.1043382E-007  0.6601219E+03  0.7818608E-02  0.1024032E+00
         -1   -1    0    0    0  501 -0.00000000000E+00  0.00000000000E+00  0.41282370332E+03  0.41282370335E+03  0.50400000000E-02 0.  1.
          1   -1    0    0  501    0  0.00000000000E+00 -0.00000000000E+00 -0.11629551705E+04  0.11629551705E+04  0.50400000000E-02 0. -1.
    8880023    1    1    2    0    0  0.23978676738E+02 -0.37091653111E+02  0.13724320393E+03  0.67423784450E+03  0.65864270000E+03 0.  1.
    8880022    1    1    2    0    0 -0.23978676738E+02  0.37091653111E+02 -0.88737467112E+03  0.90154102937E+03  0.15294330000E+03 0.  0.
<mgrwt>
<rscale>  0 0.46259309E+03</rscale>
<asrwt>0</asrwt>
<pdfrwt beam="1">  1        1 0.17891618E+00 0.66012194E+03</pdfrwt>
<pdfrwt beam="2">  1       -1 0.63511339E-01 0.66012194E+03</pdfrwt>
<totfact> 0.29753690E+01</totfact>
</mgrwt>
</event>
<event>
 4    1  0.1043382E-007  0.9746506E+03  0.7818608E-02  0.9415501E-01
         -1   -1    0    0    0  501 -0.00000000000E+00  0.00000000000E+00  0.81073438462E+03  0.81073438463E+03  0.50400000000E-02 0.  1.
          1   -1    0    0  501    0  0.00000000000E+00 -0.00000000000E+00 -0.10275491242E+04  0.10275491242E+04  0.50400000000E-02 0. -1.
    8880023    1    1    2    0    0 -0.65016793081E+03  0.30563922097E+03  0.19823518394E+03  0.99460598533E+03  0.65864270000E+03 0.  0.
    8880022    1    1    2    0    0  0.65016793081E+03 -0.30563922097E+03 -0.41504992353E+03  0.84367752351E+03  0.15294330000E+03 0.  1.
<mgrwt>
<rscale>  0 0.90810948E+03</rscale>
<asrwt>0</asrwt>
<pdfrwt beam="1">  1        1 0.15808448E+00 0.97465064E+03</pdfrwt>
<pdfrwt beam="2">  1       -1 0.12472837E+00 0.97465064E+03</pdfrwt>
<totfact> 0.81465570E+00</totfact>
</mgrwt>
</event>
<event>
 4    1  0.1043382E-007  0.1079364E+04  0.7818608E-02  0.9284387E-01
          1   -1    0    0  501    0  0.00000000000E+00  0.00000000000E+00  0.16190621812E+04  0.16190621812E+04  0.50400000000E-02 0. -1.
         -1   -1    0    0    0  501 -0.00000000000E+00 -0.00000000000E+00 -0.10268127227E+04  0.10268127228E+04  0.50400000000E-02 0.  1.
    8880023    1    1    2    0    0  0.85491567771E+03  0.18301643451E+02 -0.54953554561E+03  0.12112040655E+04  0.65864270000E+03 0.  0.
    8880022    1    1    2    0    0 -0.85491567771E+03 -0.18301643451E+02  0.11417850041E+04  0.14346708385E+04  0.15294330000E+03 0.  0.
<mgrwt>
<rscale>  0 0.10223297E+04</rscale>
<asrwt>0</asrwt>
<pdfrwt beam="1">  1        1 0.24908649E+00 0.10793637E+04</pdfrwt>
<pdfrwt beam="2">  1       -1 0.15797119E+00 0.10793637E+04</pdfrwt>
<totfact> 0.16326704E+00</totfact>
</mgrwt>
</event>
<event>
 4    1  0.1043382E-007  0.7982191E+03  0.7818608E-02  0.9714660E-01
         -1   -1    0    0    0  501 -0.00000000000E+00  0.00000000000E+00  0.74012938409E+03  0.74012938411E+03  0.50400000000E-02 0.  1.
          1   -1    0    0  501    0  0.00000000000E+00 -0.00000000000E+00 -0.10639166387E+04  0.10639166388E+04  0.50400000000E-02 0. -1.
    8880023    1    1    2    0    0 -0.14601786481E+03 -0.42664071082E+03  0.43437547682E+03  0.90875506827E+03  0.65864270000E+03 0.  0.
    8880022    1    1    2    0    0  0.14601786481E+03  0.42664071082E+03 -0.75816273147E+03  0.89529095460E+03  0.15294330000E+03 0.  0.
<mgrwt>
<rscale>  0 0.70150609E+03</rscale>
<asrwt>0</asrwt>
<pdfrwt beam="1">  1        1 0.16367948E+00 0.79821909E+03</pdfrwt>
<pdfrwt beam="2">  1       -1 0.11386606E+00 0.79821909E+03</pdfrwt>
<totfact> 0.97443688E+00</totfact>
</mgrwt>
</event>
<event>
 4    1  0.1043382E-007  0.6826142E+03  0.7818608E-02  0.1007882E+00
         -1   -1    0    0    0  501 -0.00000000000E+00  0.00000000000E+00  0.19424469524E+03  0.19424469531E+03  0.50400000000E-02 0.  1.
          1   -1    0    0  501    0  0.00000000000E+00 -0.00000000000E+00 -0.21406884454E+04  0.21406884454E+04  0.50400000000E-02 0. -1.
    8880023    1    1    2    0    0  0.17903231029E+03 -0.99660847527E+01 -0.44443173975E+03  0.81454384077E+03  0.65864270000E+03 0.  1.
    8880022    1    1    2    0    0 -0.17903231029E+03  0.99660847527E+01 -0.15020120104E+04  0.15203892999E+04  0.15294330000E+03 0.  0.
<mgrwt>
<rscale>  0 0.52325173E+03</rscale>
<asrwt>0</asrwt>
<pdfrwt beam="1">  1        1 0.32933667E+00 0.68261416E+03</pdfrwt>
<pdfrwt beam="2">  1       -1 0.29883801E-01 0.68261416E+03</pdfrwt>
<totfact> 0.25809092E+01</totfact>
</mgrwt>
</event>
<event>
 4    1  0.1043382E-007  0.8449735E+03  0.7818608E-02  0.9620873E-01
         -1   -1    0    0    0  501 -0.00000000000E+00  0.00000000000E+00  0.57159272247E+03  0.57159272249E+03  0.50400000000E-02 0.  1.
          1   -1    0    0  501    0  0.00000000000E+00 -0.00000000000E+00 -0.14962760679E+04  0.14962760679E+04  0.50400000000E-02 0. -1.
    8880023    1    1    2    0    0  0.15532383116E+03  0.50600841121E+03 -0.11874913950E+04  0.14574347410E+04  0.65864270000E+03 0.  1.
    8880022    1    1    2    0    0 -0.15532383116E+03 -0.50600841121E+03  0.26280804958E+03  0.61043404941E+03  0.15294330000E+03 0.  0.
<mgrwt>
<rscale>  0 0.75929962E+03</rscale>
<asrwt>0</asrwt>
<pdfrwt beam="1">  1        1 0.23019632E+00 0.84497350E+03</pdfrwt>
<pdfrwt beam="2">  1       -1 0.87937342E-01 0.84497350E+03</pdfrwt>
<totfact> 0.85752373E+00</totfact>
</mgrwt>
</event>
<event>
 4    1  0.1043382E-007  0.1281078E+04  0.7818608E-02  0.9082075E-01
         -1   -1    0    0    0  501 -0.00000000000E+00  0.00000000000E+00  0.13023552177E+04  0.13023552178E+04  0.50400000000E-02 0.  1.
          1   -1    0    0  501    0  0.00000000000E+00 -0.00000000000E+00 -0.14477560187E+04  0.14477560187E+04  0.50400000000E-02 0. -1.
    8880023    1    1    2    0    0 -0.71653984087E+03 -0.83301994145E+03  0.59891680107E+03  0.14141651627E+04  0.65864270000E+03 0.  1.
    8880022    1    1    2    0    0  0.71653984087E+03  0.83301994145E+03 -0.74431760199E+03  0.13359460738E+04  0.15294330000E+03 0. -1.
<mgrwt>
<rscale>  0 0.12358128E+04</rscale>
<asrwt>0</asrwt>
<pdfrwt beam="1">  1        1 0.22273170E+00 0.12810784E+04</pdfrwt>
<pdfrwt beam="2">  1       -1 0.20036234E+00 0.12810784E+04</pdfrwt>
<totfact> 0.10328634E+00</totfact>
</mgrwt>
</event>
<event>
 4    1  0.1043382E-007  0.8617421E+03  0.7818608E-02  0.9590472E-01
         -1   -1    0    0    0  501 -0.00000000000E+00  0.00000000000E+00  0.31459663287E+03  0.31459663291E+03  0.50400000000E-02 0.  1.
          1   -1    0    0  501    0  0.00000000000E+00 -0.00000000000E+00 -0.31585118345E+04  0.31585118345E+04  0.50400000000E-02 0. -1.
    8880023    1    1    2    0    0  0.92922215846E+01 -0.55561040259E+03 -0.37846685607E+03  0.94118894610E+03  0.65864270000E+03 0.  1.
    8880022    1    1    2    0    0 -0.92922215846E+01  0.55561040259E+03 -0.24654483456E+04  0.25319195213E+04  0.15294330000E+03 0.  0.
<mgrwt>
<rscale>  0 0.77930026E+03</rscale>
<asrwt>0</asrwt>
<pdfrwt beam="1">  1        1 0.48592488E+00 0.86174211E+03</pdfrwt>
<pdfrwt beam="2">  1       -1 0.48399484E-01 0.86174211E+03</pdfrwt>
<totfact> 0.20564919E+00</totfact>
</mgrwt>
</event>
<event>
 4    1  0.1043382E-007  0.7316902E+03  0.7818608E-02  0.9884849E-01
          1   -1    0    0  501    0  0.00000000000E+00  0.00000000000E+00  0.13318476875E+04  0.13318476875E+04  0.50400000000E-02 0. -1.
         -1   -1    0    0    0  501 -0.00000000000E+00 -0.00000000000E+00 -0.52259813345E+03  0.52259813347E+03  0.50400000000E-02 0.  1.
    8880023    1    1    2    0    0 -0.28706031801E+03 -0.13840796151E+03 -0.22173176097E+03  0.76454925942E+03  0.65864270000E+03 0.  1.
    8880022    1    1    2    0    0  0.28706031801E+03  0.13840796151E+03  0.10309813150E+04  0.10898965616E+04  0.15294330000E+03 0.  0.
<mgrwt>
<rscale>  0 0.61001198E+03</rscale>
<asrwt>0</asrwt>
<pdfrwt beam="1">  1        1 0.20489964E+00 0.73169023E+03</pdfrwt>
<pdfrwt beam="2">  1       -1 0.80399714E-01 0.73169023E+03</pdfrwt>
<totfact> 0.13742895E+01</totfact>
</mgrwt>
</event>
<event>
 4    1  0.1043382E-007  0.6939995E+03  0.7818608E-02  0.1002307E+00
          1   -1    0    0  501    0  0.00000000000E+00  0.00000000000E+00  0.39587956205E+03  0.39587956208E+03  0.50400000000E-02 0. -1.
         -1   -1    0    0    0  501 -0.00000000000E+00 -0.00000000000E+00 -0.89661097116E+03  0.89661097117E+03  0.50400000000E-02 0.  1.
    8880023    1    1    2    0    0 -0.20859640437E+03 -0.65670841820E+02 -0.67951351033E+03  0.97127438778E+03  0.65864270000E+03 0.  0.
    8880022    1    1    2    0    0  0.20859640437E+03  0.65670841820E+02  0.17878210122E+03  0.32121614547E+03  0.15294330000E+03 0.  0.
<mgrwt>
<rscale>  0 0.54650251E+03</rscale>
<asrwt>0</asrwt>
<pdfrwt beam="1">  1        1 0.60904548E-01 0.69399951E+03</pdfrwt>
<pdfrwt beam="2">  1       -1 0.13794015E+00 0.69399951E+03</pdfrwt>
<totfact> 0.27291341E+01</totfact>
</mgrwt>
</event>
<event>
 4    1  0.1043382E-007  0.9399900E+03  0.7818608E-02  0.9464665E-01
         -1   -1    0    0    0  501 -0.00000000000E+00  0.00000000000E+00  0.20098479519E+04  0.20098479519E+04  0.50400000000E-02 0.  1.
          1   -1    0    0  501    0  0.00000000000E+00 -0.00000000000E+00 -0.42948835013E+03  0.42948835016E+03  0.50400000000E-02 0. -1.
    8880023    1    1    2    0    0 -0.62945899970E+03 -0.23141373498E+03  0.14668122994E+04  0.17421594293E+04  0.65864270000E+03 0.  0.
    8880022    1    1    2    0    0  0.62945899970E+03  0.23141373498E+03  0.11354730232E+03  0.69717687276E+03  0.15294330000E+03 0.  0.
<mgrwt>
<rscale>  0 0.86939816E+03</rscale>
<asrwt>0</asrwt>
<pdfrwt beam="1">  1        1 0.66075131E-01 0.93998998E+03</pdfrwt>
<pdfrwt beam="2">  1       -1 0.30920738E+00 0.93998998E+03</pdfrwt>
<totfact> 0.16067962E+00</totfact>
</mgrwt>
</event>
<event>
 4    1  0.1043382E-007  0.7592788E+03  0.7818608E-02  0.9806978E-01
         -1   -1    0    0    0  501 -0.00000000000E+00  0.00000000000E+00  0.45256967103E+03  0.45256967106E+03  0.50400000000E-02 0.  1.
          1   -1    0    0  501    0  0.00000000000E+00 -0.00000000000E+00 -0.86021593943E+03  0.86021593944E+03  0.50400000000E-02 0. -1.
    8880023    1    1    2    0    0  0.30641690439E+03 -0.22091343837E+03 -0.34242549346E+02  0.76005054108E+03  0.65864270000E+03 0.  1.
    8880022    1    1    2    0    0 -0.30641690439E+03  0.22091343837E+03 -0.37340371905E+03  0.55273506942E+03  0.15294330000E+03 0.  0.
<mgrwt>
<rscale>  0 0.64989394E+03</rscale>
<asrwt>0</asrwt>
<pdfrwt beam="1">  1        1 0.13234091E+00 0.75927878E+03</pdfrwt>
<pdfrwt beam="2">  1       -1 0.69626103E-01 0.75927878E+03</pdfrwt>
<totfact> 0.41912519E+01</totfact>
</mgrwt>
</event>
<event>
 4    1  0.1043382E-007  0.1337619E+04  0.7818608E-02  0.9033735E-01
         -1   -1    0    0    0  501 -0.00000000000E+00  0.00000000000E+00  0.20928114241E+04  0.20928114241E+04  0.50400000000E-02 0.  1.
          1   -1    0    0  501    0  0.00000000000E+00 -0.00000000000E+00 -0.15457397181E+04  0.15457397181E+04  0.50400000000E-02 0. -1.
    8880023    1    1    2    0    0 -0.11635533202E+04  0.39483370426E+02 -0.10187263287E+04  0.16813770560E+04  0.65864270000E+03 0. -1.
    8880022    1    1    2    0    0  0.11635533202E+04 -0.39483370426E+02  0.15657980346E+04  0.19571740862E+04  0.15294330000E+03 0.  0.
<mgrwt>
<rscale>  0 0.12947542E+04</rscale>
<asrwt>0</asrwt>
<pdfrwt beam="1">  1        1 0.23780611E+00 0.13376193E+04</pdfrwt>
<pdfrwt beam="2">  1       -1 0.32197099E+00 0.13376193E+04</pdfrwt>
<totfact> 0.13959241E-01</totfact>
</mgrwt>
</event>
<event>
 4    1  0.1043382E-007  0.8831888E+03  0.7818608E-02  0.9553576E-01
          1   -1    0    0  501    0  0.00000000000E+00  0.00000000000E+00  0.25767309038E+03  0.25767309043E+03  0.50400000000E-02 0. -1.
         -1   -1    0    0    0  501 -0.00000000000E+00 -0.00000000000E+00 -0.23278510467E+04  0.23278510467E+04  0.50400000000E-02 0.  1.
    8880023    1    1    2    0    0 -0.53570142823E+02 -0.58595427462E+03 -0.15565159540E+04  0.17896268587E+04  0.65864270000E+03 0.  0.
    8880022    1    1    2    0    0  0.53570142823E+02  0.58595427462E+03 -0.51366200234E+03  0.79589727843E+03  0.15294330000E+03 0.  0.
<mgrwt>
<rscale>  0 0.80446510E+03</rscale>
<asrwt>0</asrwt>
<pdfrwt beam="1">  1        1 0.39642015E-01 0.88318876E+03</pdfrwt>
<pdfrwt beam="2">  1       -1 0.35813092E+00 0.88318876E+03</pdfrwt>
<totfact> 0.15225061E+00</totfact>
</mgrwt>
</event>
<event>
 4    1  0.1043382E-007  0.6601888E+03  0.7818608E-02  0.1023964E+00
          1   -1    0    0  501    0  0.00000000000E+00  0.00000000000E+00  0.50413794522E+03  0.50413794525E+03  0.50400000000E-02 0. -1.
         -1   -1    0    0    0  501 -0.00000000000E+00 -0.00000000000E+00 -0.45604572204E+03  0.45604572207E+03  0.50400000000E-02 0.  1.
    8880023    1    1    2    0    0 -0.44421623483E+02 -0.81072971823E+01 -0.17776413642E+03  0.68370264250E+03  0.65864270000E+03 0.  1.
    8880022    1    1    2    0    0  0.44421623483E+02  0.81072971823E+01  0.22585635960E+03  0.27648102482E+03  0.15294330000E+03 0.  0.
<mgrwt>
<rscale>  0 0.46282926E+03</rscale>
<asrwt>0</asrwt>
<pdfrwt beam="1">  1        1 0.77559683E-01 0.66018877E+03</pdfrwt>
<pdfrwt beam="2">  1       -1 0.70160881E-01 0.66018877E+03</pdfrwt>
<totfact> 0.92233328E+01</totfact>
</mgrwt>
</event>
<event>
 4    1  0.1043382E-007  0.9011149E+03  0.7818608E-02  0.9524244E-01
         -1   -1    0    0    0  501 -0.00000000000E+00  0.00000000000E+00  0.13672800878E+04  0.13672800878E+04  0.50400000000E-02 0.  1.
          1   -1    0    0  501    0  0.00000000000E+00 -0.00000000000E+00 -0.59338932909E+03  0.59338932911E+03  0.50400000000E-02 0. -1.
    8880023    1    1    2    0    0  0.30586092605E+03 -0.53352318502E+03 -0.71708234023E+02  0.90396359005E+03  0.65864270000E+03 0. -1.
    8880022    1    1    2    0    0 -0.30586092605E+03  0.53352318502E+03  0.84559899276E+03  0.10567058269E+04  0.15294330000E+03 0.  0.
<mgrwt>
<rscale>  0 0.82519756E+03</rscale>
<asrwt>0</asrwt>
<pdfrwt beam="1">  1        1 0.91290668E-01 0.90111492E+03</pdfrwt>
<pdfrwt beam="2">  1       -1 0.21035078E+00 0.90111492E+03</pdfrwt>
<totfact> 0.45227839E+00</totfact>
</mgrwt>
</event>
<event>
 4    1  0.1043382E-007  0.9311492E+03  0.7818608E-02  0.9477771E-01
          1   -1    0    0  501    0  0.00000000000E+00  0.00000000000E+00  0.16851020789E+04  0.16851020789E+04  0.50400000000E-02 0. -1.
         -1   -1    0    0    0  501 -0.00000000000E+00 -0.00000000000E+00 -0.50624838194E+03  0.50624838196E+03  0.50400000000E-02 0.  1.
    8880023    1    1    2    0    0 -0.65232787223E+03  0.87732086929E+02  0.12505802581E+03  0.93950959977E+03  0.65864270000E+03 0.  1.
    8880022    1    1    2    0    0  0.65232787223E+03 -0.87732086929E+02  0.10537956711E+04  0.12518408611E+04  0.15294330000E+03 0.  0.
<mgrwt>
<rscale>  0 0.85942669E+03</rscale>
<asrwt>0</asrwt>
<pdfrwt beam="1">  1        1 0.25924647E+00 0.93114917E+03</pdfrwt>
<pdfrwt beam="2">  1       -1 0.77884368E-01 0.93114917E+03</pdfrwt>
<totfact> 0.81858716E+00</totfact>
</mgrwt>
</event>
<event>
 4    1  0.1043382E-007  0.1084956E+04  0.7818608E-02  0.9277993E-01
          1   -1    0    0  501    0  0.00000000000E+00  0.00000000000E+00  0.15831266209E+04  0.15831266209E+04  0.50400000000E-02 0. -1.
         -1   -1    0    0    0  501 -0.00000000000E+00 -0.00000000000E+00 -0.87154103609E+03  0.87154103611E+03  0.50400000000E-02 0.  1.
    8880023    1    1    2    0    0  0.61156820491E+03 -0.60770439089E+03  0.10557394003E+04  0.15138415318E+04  0.65864270000E+03 0. -1.
    8880022    1    1    2    0    0 -0.61156820491E+03  0.60770439089E+03 -0.34415381552E+03  0.94082612513E+03  0.15294330000E+03 0.  0.
<mgrwt>
<rscale>  0 0.10283436E+04</rscale>
<asrwt>0</asrwt>
<pdfrwt beam="1">  1        1 0.24355794E+00 0.10849565E+04</pdfrwt>
<pdfrwt beam="2">  1       -1 0.13408324E+00 0.10849565E+04</pdfrwt>
<totfact> 0.26738076E+00</totfact>
</mgrwt>
</event>
<event>
 4    1  0.1043382E-007  0.7072233E+03  0.7818608E-02  0.9968460E-01
         -1   -1    0    0    0  501 -0.00000000000E+00  0.00000000000E+00  0.72132566428E+03  0.72132566429E+03  0.50400000000E-02 0.  1.
          1   -1    0    0  501    0  0.00000000000E+00 -0.00000000000E+00 -0.67387318504E+03  0.67387318506E+03  0.50400000000E-02 0. -1.
    8880023    1    1    2    0    0 -0.24461872679E+03  0.80723612349E+02  0.49028752478E+03  0.86055022300E+03  0.65864270000E+03 0.  0.
    8880022    1    1    2    0    0  0.24461872679E+03 -0.80723612349E+02 -0.44283504554E+03  0.53464862635E+03  0.15294330000E+03 0.  0.
<mgrwt>
<rscale>  0 0.57055102E+03</rscale>
<asrwt>0</asrwt>
<pdfrwt beam="1">  1        1 0.10367280E+00 0.70722332E+03</pdfrwt>
<pdfrwt beam="2">  1       -1 0.11097318E+00 0.70722332E+03</pdfrwt>
<totfact> 0.22242326E+01</totfact>
</mgrwt>
</event>
<event>
 4    1  0.1043382E-007  0.6776652E+03  0.7818608E-02  0.1010676E+00
         -1   -1    0    0    0  501 -0.00000000000E+00  0.00000000000E+00  0.93355119720E+03  0.93355119721E+03  0.50400000000E-02 0.  1.
          1   -1    0    0  501    0  0.00000000000E+00 -0.00000000000E+00 -0.43235303586E+03  0.43235303589E+03  0.50400000000E-02 0. -1.
    8880023    1    1    2    0    0  0.11882413853E+03 -0.10630469342E+03  0.76488193695E+03  0.10218974741E+04  0.65864270000E+03 0.  0.
    8880022    1    1    2    0    0 -0.11882413853E+03  0.10630469342E+03 -0.26368377561E+03  0.34400675905E+03  0.15294330000E+03 0.  0.
<mgrwt>
<rscale>  0 0.51206684E+03</rscale>
<asrwt>0</asrwt>
<pdfrwt beam="1">  1        1 0.66515852E-01 0.67766516E+03</pdfrwt>
<pdfrwt beam="2">  1       -1 0.14362326E+00 0.67766516E+03</pdfrwt>
<totfact> 0.21890383E+01</totfact>
</mgrwt>
</event>
<event>
 4    1  0.1043382E-007  0.6684543E+03  0.7818608E-02  0.1016796E+00
         -1   -1    0    0    0  501 -0.00000000000E+00  0.00000000000E+00  0.14795623151E+03  0.14795623159E+03  0.50400000000E-02 0.  1.
          1   -1    0    0  501    0  0.00000000000E+00 -0.00000000000E+00 -0.12636891749E+04  0.12636891749E+04  0.50400000000E-02 0. -1.
    8880023    1    1    2    0    0 -0.91938029945E+02 -0.67589828262E+02 -0.79759248379E+03  0.10406656344E+04  0.65864270000E+03 0.  1.
    8880022    1    1    2    0    0  0.91938029945E+02  0.67589828262E+02 -0.31814045964E+03  0.37097977211E+03  0.15294330000E+03 0. -1.
<mgrwt>
<rscale>  0 0.48860772E+03</rscale>
<asrwt>0</asrwt>
<pdfrwt beam="1">  1        1 0.19441371E+00 0.66845433E+03</pdfrwt>
<pdfrwt beam="2">  1       -1 0.22762498E-01 0.66845433E+03</pdfrwt>
<totfact> 0.16161179E+02</totfact>
</mgrwt>
</event>
<event>
 4    1  0.1043382E-007  0.1199506E+04  0.7818608E-02  0.9157603E-01
          1   -1    0    0  501    0  0.00000000000E+00  0.00000000000E+00  0.20625169939E+04  0.20625169939E+04  0.50400000000E-02 0. -1.
         -1   -1    0    0    0  501 -0.00000000000E+00 -0.00000000000E+00 -0.75566023656E+03  0.75566023657E+03  0.50400000000E-02 0.  1.
    8880023    1    1    2    0    0 -0.31455960095E+03  0.95186978758E+03  0.13465106178E+04  0.18033038804E+04  0.65864270000E+03 0.  1.
    8880022    1    1    2    0    0  0.31455960095E+03 -0.95186978758E+03 -0.39653860411E+02  0.10148733501E+04  0.15294330000E+03 0.  0.
<mgrwt>
<rscale>  0 0.11501958E+04</rscale>
<asrwt>0</asrwt>
<pdfrwt beam="1">  1        1 0.31731031E+00 0.11995057E+04</pdfrwt>
<pdfrwt beam="2">  1       -1 0.11625542E+00 0.11995057E+04</pdfrwt>
<totfact> 0.17806520E+00</totfact>
</mgrwt>
</event>
<event>
 4    1  0.1043382E-007  0.8268998E+03  0.7818608E-02  0.9655395E-01
         -1   -1    0    0    0  501 -0.00000000000E+00  0.00000000000E+00  0.10920438863E+04  0.10920438863E+04  0.50400000000E-02 0.  1.
          1   -1    0    0  501    0  0.00000000000E+00 -0.00000000000E+00 -0.79546139966E+03  0.79546139968E+03  0.50400000000E-02 0. -1.
    8880023    1    1    2    0    0  0.23355848844E+03  0.44204474572E+03  0.80801124969E+03  0.11561338636E+04  0.65864270000E+03 0.  0.
    8880022    1    1    2    0    0 -0.23355848844E+03 -0.44204474572E+03 -0.51142876306E+03  0.73137142235E+03  0.15294330000E+03 0.  0.
<mgrwt>
<rscale>  0 0.73735822E+03</rscale>
<asrwt>0</asrwt>
<pdfrwt beam="1">  1        1 0.12237868E+00 0.82689983E+03</pdfrwt>
<pdfrwt beam="2">  1       -1 0.16800675E+00 0.82689983E+03</pdfrwt>
<totfact> 0.58136370E+00</totfact>
</mgrwt>
</event>
<event>
 4    1  0.1043382E-007  0.7023223E+03  0.7818608E-02  0.9987700E-01
         -1   -1    0    0    0  501 -0.00000000000E+00  0.00000000000E+00  0.48176310783E+03  0.48176310785E+03  0.50400000000E-02 0.  1.
          1   -1    0    0  501    0  0.00000000000E+00 -0.00000000000E+00 -0.12413900211E+04  0.12413900211E+04  0.50400000000E-02 0. -1.
    8880023    1    1    2    0    0  0.61854648874E+02  0.23583983749E+03  0.19270428645E+03  0.72827987396E+03  0.65864270000E+03 0.  0.
    8880022    1    1    2    0    0 -0.61854648874E+02 -0.23583983749E+03 -0.95233119976E+03  0.99487325504E+03  0.15294330000E+03 0.  0.
<mgrwt>
<rscale>  0 0.56192856E+03</rscale>
<asrwt>0</asrwt>
<pdfrwt beam="1">  1        1 0.19098308E+00 0.70232231E+03</pdfrwt>
<pdfrwt beam="2">  1       -1 0.74117402E-01 0.70232231E+03</pdfrwt>
<totfact> 0.18972310E+01</totfact>
</mgrwt>
</event>
<event>
 4    1  0.1043382E-007  0.6739113E+03  0.7818608E-02  0.1013001E+00
          1   -1    0    0  501    0  0.00000000000E+00  0.00000000000E+00  0.27210521339E+04  0.27210521339E+04  0.50400000000E-02 0. -1.
         -1   -1    0    0    0  501 -0.00000000000E+00 -0.00000000000E+00 -0.25891204839E+03  0.25891204844E+03  0.50400000000E-02 0.  1.
    8880023    1    1    2    0    0 -0.10438259570E+03 -0.97213409384E+02  0.19271717124E+03  0.70092530815E+03  0.65864270000E+03 0.  1.
    8880022    1    1    2    0    0  0.10438259570E+03  0.97213409384E+02  0.22694229143E+04  0.22790388742E+04  0.15294330000E+03 0.  0.
<mgrwt>
<rscale>  0 0.50298980E+03</rscale>
<asrwt>0</asrwt>
<pdfrwt beam="1">  1        1 0.41862341E+00 0.67391125E+03</pdfrwt>
<pdfrwt beam="2">  1       -1 0.39832623E-01 0.67391125E+03</pdfrwt>
<totfact> 0.62647784E+00</totfact>
</mgrwt>
</event>
<event>
 4    1  0.1043382E-007  0.7921066E+03  0.7818608E-02  0.9728130E-01
          1   -1    0    0  501    0  0.00000000000E+00  0.00000000000E+00  0.44493943084E+03  0.44493943086E+03  0.50400000000E-02 0. -1.
         -1   -1    0    0    0  501 -0.00000000000E+00 -0.00000000000E+00 -0.13734371731E+04  0.13734371731E+04  0.50400000000E-02 0.  1.
    8880023    1    1    2    0    0  0.32432318818E+03  0.29738393356E+03 -0.10702027328E+04  0.13314529019E+04  0.65864270000E+03 0.  1.
    8880022    1    1    2    0    0 -0.32432318818E+03 -0.29738393356E+03  0.14170499053E+03  0.48692370212E+03  0.15294330000E+03 0.  0.
<mgrwt>
<rscale>  0 0.69366345E+03</rscale>
<asrwt>0</asrwt>
<pdfrwt beam="1">  1        1 0.68452221E-01 0.79210665E+03</pdfrwt>
<pdfrwt beam="2">  1       -1 0.21129802E+00 0.79210665E+03</pdfrwt>
<totfact> 0.67401423E+00</totfact>
</mgrwt>
</event>
<event>
 4    1  0.1043382E-007  0.6674061E+03  0.7818608E-02  0.1017595E+00
         -1   -1    0    0    0  501 -0.00000000000E+00  0.00000000000E+00  0.42419811548E+03  0.42419811551E+03  0.50400000000E-02 0.  1.
          1   -1    0    0  501    0  0.00000000000E+00 -0.00000000000E+00 -0.14440311135E+04  0.14440311135E+04  0.50400000000E-02 0. -1.
    8880023    1    1    2    0    0 -0.23435381424E+02  0.10522134102E+03  0.14956172131E+03  0.68395881634E+03  0.65864270000E+03 0.  1.
    8880022    1    1    2    0    0  0.23435381424E+02 -0.10522134102E+03 -0.11693947193E+04  0.11842704126E+04  0.15294330000E+03 0.  0.
<mgrwt>
<rscale>  0 0.48564664E+03</rscale>
<asrwt>0</asrwt>
<pdfrwt beam="1">  1        1 0.22215863E+00 0.66740614E+03</pdfrwt>
<pdfrwt beam="2">  1       -1 0.65261249E-01 0.66740614E+03</pdfrwt>
<totfact> 0.17831931E+01</totfact>
</mgrwt>
</event>
<event>
 4    1  0.1043382E-007  0.6777328E+03  0.7818608E-02  0.1010636E+00
          1   -1    0    0  501    0  0.00000000000E+00  0.00000000000E+00  0.15657288270E+04  0.15657288270E+04  0.50400000000E-02 0. -1.
         -1   -1    0    0    0  501 -0.00000000000E+00 -0.00000000000E+00 -0.70412839206E+03  0.70412839208E+03  0.50400000000E-02 0.  1.
    8880023    1    1    2    0    0 -0.14756946670E+03 -0.61112996012E+02 -0.53027066784E+03  0.86052817108E+03  0.65864270000E+03 0.  1.
    8880022    1    1    2    0    0  0.14756946670E+03  0.61112996012E+02  0.13918711028E+04  0.14093290480E+04  0.15294330000E+03 0.  0.
<mgrwt>
<rscale>  0 0.51222532E+03</rscale>
<asrwt>0</asrwt>
<pdfrwt beam="1">  1        1 0.24088136E+00 0.67773280E+03</pdfrwt>
<pdfrwt beam="2">  1       -1 0.10832745E+00 0.67773280E+03</pdfrwt>
<totfact> 0.49255834E+00</totfact>
</mgrwt>
</event>
<event>
 4    1  0.1043382E-007  0.8772211E+03  0.7818608E-02  0.9563635E-01
         -1   -1    0    0    0  501 -0.00000000000E+00  0.00000000000E+00  0.83039763750E+03  0.83039763751E+03  0.50400000000E-02 0.  1.
          1   -1    0    0  501    0  0.00000000000E+00 -0.00000000000E+00 -0.73945318853E+03  0.73945318855E+03  0.50400000000E-02 0. -1.
    8880023    1    1    2    0    0 -0.24769147843E+03  0.52378968476E+03 -0.20597144407E+03  0.90107776822E+03  0.65864270000E+03 0.  0.
    8880022    1    1    2    0    0  0.24769147843E+03 -0.52378968476E+03  0.29691589304E+03  0.66877305784E+03  0.15294330000E+03 0.  0.
<mgrwt>
<rscale>  0 0.79750514E+03</rscale>
<asrwt>0</asrwt>
<pdfrwt beam="1">  1        1 0.11376203E+00 0.87722113E+03</pdfrwt>
<pdfrwt beam="2">  1       -1 0.12775348E+00 0.87722113E+03</pdfrwt>
<totfact> 0.13459447E+01</totfact>
</mgrwt>
</event>
<event>
 4    1  0.1043382E-007  0.6938590E+03  0.7818608E-02  0.1002370E+00
         -1   -1    0    0    0  501 -0.00000000000E+00  0.00000000000E+00  0.13105357978E+04  0.13105357978E+04  0.50400000000E-02 0.  1.
          1   -1    0    0  501    0  0.00000000000E+00 -0.00000000000E+00 -0.33590315014E+03  0.33590315018E+03  0.50400000000E-02 0. -1.
    8880023    1    1    2    0    0 -0.21063618094E+03 -0.57117908682E+02  0.11387288005E+04  0.13334704885E+04  0.65864270000E+03 0.  1.
    8880022    1    1    2    0    0  0.21063618094E+03  0.57117908682E+02 -0.16409615291E+03  0.31296845948E+03  0.15294330000E+03 0.  0.
<mgrwt>
<rscale>  0 0.54623219E+03</rscale>
<asrwt>0</asrwt>
<pdfrwt beam="1">  1        1 0.51677408E-01 0.69385896E+03</pdfrwt>
<pdfrwt beam="2">  1       -1 0.20162089E+00 0.69385896E+03</pdfrwt>
<totfact> 0.11506278E+01</totfact>
</mgrwt>
</event>
<event>
 4    1  0.1043382E-007  0.1696502E+04  0.7818608E-02  0.8782057E-01
         -1   -1    0    0    0  501 -0.00000000000E+00  0.00000000000E+00  0.81283030168E+03  0.81283030170E+03  0.50400000000E-02 0.  1.
          1   -1    0    0  501    0  0.00000000000E+00 -0.00000000000E+00 -0.40608024494E+04  0.40608024494E+04  0.50400000000E-02 0. -1.
    8880023    1    1    2    0    0  0.15558643505E+04  0.15361124197E+03 -0.60900358055E+03  0.18024998913E+04  0.65864270000E+03 0.  0.
    8880022    1    1    2    0    0 -0.15558643505E+04 -0.15361124197E+03 -0.26389685671E+04  0.30711328597E+04  0.15294330000E+03 0.  0.
<mgrwt>
<rscale>  0 0.16641883E+04</rscale>
<asrwt>0</asrwt>
<pdfrwt beam="1">  1        1 0.62473882E+00 0.16965024E+04</pdfrwt>
<pdfrwt beam="2">  1       -1 0.12505082E+00 0.16965024E+04</pdfrwt>
<totfact> 0.44602161E-02</totfact>
</mgrwt>
</event>
<event>
 4    1  0.1043382E-007  0.6934413E+03  0.7818608E-02  0.1002558E+00
          1   -1    0    0  501    0  0.00000000000E+00  0.00000000000E+00  0.54912662336E+03  0.54912662338E+03  0.50400000000E-02 0. -1.
         -1   -1    0    0    0  501 -0.00000000000E+00 -0.00000000000E+00 -0.67133116988E+03  0.67133116990E+03  0.50400000000E-02 0.  1.
    8880023    1    1    2    0    0 -0.66987593038E+01 -0.21680808632E+03 -0.42851296113E+03  0.81515899295E+03  0.65864270000E+03 0.  1.
    8880022    1    1    2    0    0  0.66987593038E+01  0.21680808632E+03  0.30630841461E+03  0.40529880033E+03  0.15294330000E+03 0. -1.
<mgrwt>
<rscale>  0 0.54542676E+03</rscale>
<asrwt>0</asrwt>
<pdfrwt beam="1">  1        1 0.84481019E-01 0.69344129E+03</pdfrwt>
<pdfrwt beam="2">  1       -1 0.10328172E+00 0.69344129E+03</pdfrwt>
<totfact> 0.35391864E+01</totfact>
</mgrwt>
</event>
<event>
 4    1  0.1043382E-007  0.6780894E+03  0.7818608E-02  0.1010426E+00
         -1   -1    0    0    0  501 -0.00000000000E+00  0.00000000000E+00  0.25495356585E+03  0.25495356590E+03  0.50400000000E-02 0.  1.
          1   -1    0    0  501    0  0.00000000000E+00 -0.00000000000E+00 -0.98587076147E+03  0.98587076148E+03  0.50400000000E-02 0. -1.
    8880023    1    1    2    0    0 -0.15988194870E+03 -0.20804273273E+02 -0.75789548317E+03  0.10169615651E+04  0.65864270000E+03 0.  0.
    8880022    1    1    2    0    0  0.15988194870E+03  0.20804273273E+02  0.26978287548E+02  0.22386276225E+03  0.15294330000E+03 0.  0.
<mgrwt>
<rscale>  0 0.51305803E+03</rscale>
<asrwt>0</asrwt>
<pdfrwt beam="1">  1        1 0.15167242E+00 0.67808942E+03</pdfrwt>
<pdfrwt beam="2">  1       -1 0.39223626E-01 0.67808942E+03</pdfrwt>
<totfact> 0.10047975E+02</totfact>
</mgrwt>
</event>
<event>
 4    1  0.1043382E-007  0.7671617E+03  0.7818608E-02  0.9786907E-01
         -1   -1    0    0    0  501 -0.00000000000E+00  0.00000000000E+00  0.15784320376E+04  0.15784320376E+04  0.50400000000E-02 0.  1.
          1   -1    0    0  501    0  0.00000000000E+00 -0.00000000000E+00 -0.87591555007E+03  0.87591555009E+03  0.50400000000E-02 0. -1.
    8880023    1    1    2    0    0  0.19732438880E+03 -0.34027926840E+03  0.14245668649E+04  0.16180011909E+04  0.65864270000E+03 0.  0.
    8880022    1    1    2    0    0 -0.19732438880E+03  0.34027926840E+03 -0.72205037738E+03  0.83634639679E+03  0.15294330000E+03 0.  0.
<mgrwt>
<rscale>  0 0.66069928E+03</rscale>
<asrwt>0</asrwt>
<pdfrwt beam="1">  1        1 0.13475624E+00 0.76716172E+03</pdfrwt>
<pdfrwt beam="2">  1       -1 0.24283570E+00 0.76716172E+03</pdfrwt>
<totfact> 0.15455292E+00</totfact>
</mgrwt>
</event>
<event>
 4    1  0.1043382E-007  0.6722248E+03  0.7818608E-02  0.1014116E+00
         -1   -1    0    0    0  501 -0.00000000000E+00  0.00000000000E+00  0.15726710830E+03  0.15726710838E+03  0.50400000000E-02 0.  1.
          1   -1    0    0  501    0  0.00000000000E+00 -0.00000000000E+00 -0.14435947912E+04  0.14435947912E+04  0.50400000000E-02 0. -1.
    8880023    1    1    2    0    0 -0.23079027689E+02  0.13245145697E+03 -0.65921432359E+03  0.94151460991E+03  0.65864270000E+03 0.  1.
    8880022    1    1    2    0    0  0.23079027689E+02 -0.13245145697E+03 -0.62711335933E+03  0.65934728970E+03  0.15294330000E+03 0.  0.
<mgrwt>
<rscale>  0 0.49871179E+03</rscale>
<asrwt>0</asrwt>
<pdfrwt beam="1">  1        1 0.22209150E+00 0.67222484E+03</pdfrwt>
<pdfrwt beam="2">  1       -1 0.24194941E-01 0.67222484E+03</pdfrwt>
<totfact> 0.10913129E+02</totfact>
</mgrwt>
</event>
<event>
 4    1  0.1043382E-007  0.6757454E+03  0.7818608E-02  0.1011841E+00
         -1   -1    0    0    0  501 -0.00000000000E+00  0.00000000000E+00  0.16374260899E+03  0.16374260907E+03  0.50400000000E-02 0.  1.
          1   -1    0    0  501    0  0.00000000000E+00 -0.00000000000E+00 -0.21369483605E+04  0.21369483605E+04  0.50400000000E-02 0. -1.
    8880023    1    1    2    0    0  0.10402736803E+03 -0.10954399118E+03 -0.57859470363E+03  0.88960868737E+03  0.65864270000E+03 0.  1.
    8880022    1    1    2    0    0 -0.10402736803E+03  0.10954399118E+03 -0.13946110479E+04  0.14110822822E+04  0.15294330000E+03 0.  0.
<mgrwt>
<rscale>  0 0.50749655E+03</rscale>
<asrwt>0</asrwt>
<pdfrwt beam="1">  1        1 0.32876127E+00 0.67574536E+03</pdfrwt>
<pdfrwt beam="2">  1       -1 0.25191172E-01 0.67574536E+03</pdfrwt>
<totfact> 0.34865283E+01</totfact>
</mgrwt>
</event>
<event>
 4    1  0.1043382E-007  0.9393103E+03  0.7818608E-02  0.9465664E-01
          1   -1    0    0  501    0  0.00000000000E+00  0.00000000000E+00  0.14808949943E+04  0.14808949943E+04  0.50400000000E-02 0. -1.
         -1   -1    0    0    0  501 -0.00000000000E+00 -0.00000000000E+00 -0.46713336658E+03  0.46713336660E+03  0.50400000000E-02 0.  1.
    8880023    1    1    2    0    0 -0.24420786923E+03  0.62358334136E+03  0.78455610580E+03  0.12238595330E+04  0.65864270000E+03 0.  0.
    8880022    1    1    2    0    0  0.24420786923E+03 -0.62358334136E+03  0.22920552188E+03  0.72416882790E+03  0.15294330000E+03 0.  0.
<mgrwt>
<rscale>  0 0.86863311E+03</rscale>
<asrwt>0</asrwt>
<pdfrwt beam="1">  1        1 0.22783000E+00 0.93931032E+03</pdfrwt>
<pdfrwt beam="2">  1       -1 0.71866673E-01 0.93931032E+03</pdfrwt>
<totfact> 0.13342341E+01</totfact>
</mgrwt>
</event>
<event>
 4    1  0.1043382E-007  0.1017098E+04  0.7818608E-02  0.9359523E-01
         -1   -1    0    0    0  501 -0.00000000000E+00  0.00000000000E+00  0.15986585104E+04  0.15986585104E+04  0.50400000000E-02 0.  1.
          1   -1    0    0  501    0  0.00000000000E+00 -0.00000000000E+00 -0.14462298779E+04  0.14462298779E+04  0.50400000000E-02 0. -1.
    8880023    1    1    2    0    0 -0.58290534697E+03  0.51078254285E+03  0.13006778466E+04  0.16511361290E+04  0.65864270000E+03 0.  0.
    8880022    1    1    2    0    0  0.58290534697E+03 -0.51078254285E+03 -0.11482492141E+04  0.13937522593E+04  0.15294330000E+03 0. -1.
<mgrwt>
<rscale>  0 0.95483005E+03</rscale>
<asrwt>0</asrwt>
<pdfrwt beam="1">  1        1 0.22249690E+00 0.10170977E+04</pdfrwt>
<pdfrwt beam="2">  1       -1 0.24594746E+00 0.10170977E+04</pdfrwt>
<totfact> 0.53240906E-01</totfact>
</mgrwt>
</event>
<event>
 4    1  0.1043382E-007  0.7272237E+03  0.7818608E-02  0.9898861E-01
         -1   -1    0    0    0  501 -0.00000000000E+00  0.00000000000E+00  0.16170526895E+03  0.16170526903E+03  0.50400000000E-02 0.  1.
          1   -1    0    0  501    0  0.00000000000E+00 -0.00000000000E+00 -0.21135490314E+04  0.21135490314E+04  0.50400000000E-02 0. -1.
    8880023    1    1    2    0    0  0.10673206630E+03 -0.28922715186E+03 -0.16993550375E+04  0.18484214425E+04  0.65864270000E+03 0. -1.
    8880022    1    1    2    0    0 -0.10673206630E+03  0.28922715186E+03 -0.25248872488E+03  0.42683285787E+03  0.15294330000E+03 0.  0.
<mgrwt>
<rscale>  0 0.60316531E+03</rscale>
<asrwt>0</asrwt>
<pdfrwt beam="1">  1        1 0.32516137E+00 0.72722368E+03</pdfrwt>
<pdfrwt beam="2">  1       -1 0.24877735E-01 0.72722368E+03</pdfrwt>
<totfact> 0.36662903E+01</totfact>
</mgrwt>
</event>
<event>
 4    1  0.1043382E-007  0.7209734E+03  0.7818608E-02  0.9919306E-01
         -1   -1    0    0    0  501 -0.00000000000E+00  0.00000000000E+00  0.72640347739E+03  0.72640347741E+03  0.50400000000E-02 0.  1.
          1   -1    0    0  501    0  0.00000000000E+00 -0.00000000000E+00 -0.57426870457E+03  0.57426870459E+03  0.50400000000E-02 0. -1.
    8880023    1    1    2    0    0 -0.29323560139E+03 -0.22999842006E+01  0.45473184681E+03  0.85239877207E+03  0.65864270000E+03 0.  1.
    8880022    1    1    2    0    0  0.29323560139E+03  0.22999842006E+01 -0.30259707399E+03  0.44827340993E+03  0.15294330000E+03 0.  0.
<mgrwt>
<rscale>  0 0.59334690E+03</rscale>
<asrwt>0</asrwt>
<pdfrwt beam="1">  1        1 0.88349032E-01 0.72097338E+03</pdfrwt>
<pdfrwt beam="2">  1       -1 0.11175438E+00 0.72097338E+03</pdfrwt>
<totfact> 0.27557201E+01</totfact>
</mgrwt>
</event>
<event>
 4    1  0.1201051E-007  0.9423731E+03  0.7818608E-02  0.9461173E-01
          1   -1    0    0  501    0  0.00000000000E+00  0.00000000000E+00  0.17065599205E+04  0.17065599206E+04  0.50400000000E-02 0. -1.
         -1   -1    0    0    0  501 -0.00000000000E+00 -0.00000000000E+00 -0.11955132834E+04  0.11955132834E+04  0.50400000000E-02 0.  1.
    8880023    1    1    2    0    0 -0.43770111338E+03 -0.51251790523E+03 -0.91742605106E+03  0.13151949031E+04  0.65864270000E+03 0.  0.
    8880022    1    1    2    0    0  0.43770111338E+03  0.51251790523E+03  0.14284726882E+04  0.15868783009E+04  0.15294330000E+03 0.  0.
<mgrwt>
<rscale>  0 0.87207878E+03</rscale>
<asrwt>0</asrwt>
<pdfrwt beam="1">  1        1 0.26254768E+00 0.94237311E+03</pdfrwt>
<pdfrwt beam="2">  1       -1 0.18392512E+00 0.94237311E+03</pdfrwt>
<totfact> 0.93663602E-01</totfact>
</mgrwt>
</event>
<event>
 4    1  0.1043382E-007  0.7865260E+03  0.7818608E-02  0.9740725E-01
          1   -1    0    0  501    0  0.00000000000E+00  0.00000000000E+00  0.24535539476E+04  0.24535539476E+04  0.50400000000E-02 0. -1.
         -1   -1    0    0    0  501 -0.00000000000E+00 -0.00000000000E+00 -0.79814979815E+03  0.79814979817E+03  0.50400000000E-02 0.  1.
    8880023    1    1    2    0    0 -0.22969540496E+03  0.36339091582E+03 -0.57551599927E+03  0.97459828055E+03  0.65864270000E+03 0.  0.
    8880022    1    1    2    0    0  0.22969540496E+03 -0.36339091582E+03  0.22309201488E+04  0.22771054653E+04  0.15294330000E+03 0.  0.
<mgrwt>
<rscale>  0 0.68642975E+03</rscale>
<asrwt>0</asrwt>
<pdfrwt beam="1">  1        1 0.37746984E+00 0.78652600E+03</pdfrwt>
<pdfrwt beam="2">  1       -1 0.12279228E+00 0.78652600E+03</pdfrwt>
<totfact> 0.90362331E-01</totfact>
</mgrwt>
</event>
<event>
 4    1  0.1043382E-007  0.8281589E+03  0.7818608E-02  0.9652925E-01
         -1   -1    0    0    0  501 -0.00000000000E+00  0.00000000000E+00  0.89225667418E+03  0.89225667420E+03  0.50400000000E-02 0.  1.
          1   -1    0    0  501    0  0.00000000000E+00 -0.00000000000E+00 -0.79032846971E+03  0.79032846973E+03  0.50400000000E-02 0. -1.
    8880023    1    1    2    0    0 -0.16299677835E+02  0.50176818725E+03  0.54863365728E+03  0.99340127310E+03  0.65864270000E+03 0.  0.
    8880022    1    1    2    0    0  0.16299677835E+02 -0.50176818725E+03 -0.44670545281E+03  0.68918387083E+03  0.15294330000E+03 0.  0.
<mgrwt>
<rscale>  0 0.73890125E+03</rscale>
<asrwt>0</asrwt>
<pdfrwt beam="1">  1        1 0.12158900E+00 0.82815892E+03</pdfrwt>
<pdfrwt beam="2">  1       -1 0.13727026E+00 0.82815892E+03</pdfrwt>
<totfact> 0.10156177E+01</totfact>
</mgrwt>
</event>
<event>
 4    1  0.1043382E-007  0.7544743E+03  0.7818608E-02  0.9819629E-01
          1   -1    0    0  501    0  0.00000000000E+00  0.00000000000E+00  0.53802613555E+03  0.53802613558E+03  0.50400000000E-02 0. -1.
         -1   -1    0    0    0  501 -0.00000000000E+00 -0.00000000000E+00 -0.85295288673E+03  0.85295288675E+03  0.50400000000E-02 0.  1.
    8880023    1    1    2    0    0  0.26252098815E+03  0.25788372055E+03 -0.54508350265E+03  0.93077790781E+03  0.65864270000E+03 0.  1.
    8880022    1    1    2    0    0 -0.26252098815E+03 -0.25788372055E+03  0.23015675146E+03  0.46020111452E+03  0.15294330000E+03 0.  0.
<mgrwt>
<rscale>  0 0.64319710E+03</rscale>
<asrwt>0</asrwt>
<pdfrwt beam="1">  1        1 0.82773252E-01 0.75447431E+03</pdfrwt>
<pdfrwt beam="2">  1       -1 0.13122352E+00 0.75447431E+03</pdfrwt>
<totfact> 0.20323992E+01</totfact>
</mgrwt>
</event>
<event>
 4    1  0.1043382E-007  0.7239509E+03  0.7818608E-02  0.9909437E-01
          1   -1    0    0  501    0  0.00000000000E+00  0.00000000000E+00  0.31225039040E+03  0.31225039044E+03  0.50400000000E-02 0. -1.
         -1   -1    0    0    0  501 -0.00000000000E+00 -0.00000000000E+00 -0.98576818627E+03  0.98576818628E+03  0.50400000000E-02 0.  1.
    8880023    1    1    2    0    0 -0.23839407759E+03  0.18292875081E+03 -0.62686002723E+03  0.95763164322E+03  0.65864270000E+03 0.  1.
    8880022    1    1    2    0    0  0.23839407759E+03 -0.18292875081E+03 -0.46657768644E+02  0.34038693349E+03  0.15294330000E+03 0. -1.
<mgrwt>
<rscale>  0 0.59806081E+03</rscale>
<asrwt>0</asrwt>
<pdfrwt beam="1">  1        1 0.48038522E-01 0.72395088E+03</pdfrwt>
<pdfrwt beam="2">  1       -1 0.15165664E+00 0.72395088E+03</pdfrwt>
<totfact> 0.28905288E+01</totfact>
</mgrwt>
</event>
<event>
 4    1  0.1043382E-007  0.8963484E+03  0.7818608E-02  0.9531919E-01
          1   -1    0    0  501    0  0.00000000000E+00  0.00000000000E+00  0.20586116287E+04  0.20586116287E+04  0.50400000000E-02 0. -1.
         -1   -1    0    0    0  501 -0.00000000000E+00 -0.00000000000E+00 -0.78588750134E+03  0.78588750135E+03  0.50400000000E-02 0.  1.
    8880023    1    1    2    0    0 -0.47963795390E+03  0.37360100317E+03 -0.45595621526E+03  0.10056523022E+04  0.65864270000E+03 0.  0.
    8880022    1    1    2    0    0  0.47963795390E+03 -0.37360100317E+03  0.17286803426E+04  0.18388468279E+04  0.15294330000E+03 0.  0.
<mgrwt>
<rscale>  0 0.81970907E+03</rscale>
<asrwt>0</asrwt>
<pdfrwt beam="1">  1        1 0.31670948E+00 0.89634842E+03</pdfrwt>
<pdfrwt beam="2">  1       -1 0.12090577E+00 0.89634842E+03</pdfrwt>
<totfact> 0.16992916E+00</totfact>
</mgrwt>
</event>
<event>
 4    1  0.1043382E-007  0.8623972E+03  0.7818608E-02  0.9589313E-01
          1   -1    0    0  501    0  0.00000000000E+00  0.00000000000E+00  0.23765320926E+04  0.23765320926E+04  0.50400000000E-02 0. -1.
         -1   -1    0    0    0  501 -0.00000000000E+00 -0.00000000000E+00 -0.31927184372E+03  0.31927184376E+03  0.50400000000E-02 0.  1.
    8880023    1    1    2    0    0  0.52521963621E+03  0.18456176843E+03  0.41900608994E+03  0.95879873920E+03  0.65864270000E+03 0.  0.
    8880022    1    1    2    0    0 -0.52521963621E+03 -0.18456176843E+03  0.16382541590E+04  0.17370051972E+04  0.15294330000E+03 0.  0.
<mgrwt>
<rscale>  0 0.78007544E+03</rscale>
<asrwt>0</asrwt>
<pdfrwt beam="1">  1        1 0.36562031E+00 0.86239719E+03</pdfrwt>
<pdfrwt beam="2">  1       -1 0.49118747E-01 0.86239719E+03</pdfrwt>
<totfact> 0.70894231E+00</totfact>
</mgrwt>
</event>
<event>
 4    1  0.1043382E-007  0.1119291E+04  0.7818608E-02  0.9239876E-01
          1   -1    0    0  501    0  0.00000000000E+00  0.00000000000E+00  0.94509497778E+03  0.94509497779E+03  0.50400000000E-02 0. -1.
         -1   -1    0    0    0  501 -0.00000000000E+00 -0.00000000000E+00 -0.13452457776E+04  0.13452457777E+04  0.50400000000E-02 0.  1.
    8880023    1    1    2    0    0 -0.36995976301E+03 -0.82591235230E+03 -0.70547640831E+03  0.13230678777E+04  0.65864270000E+03 0.  0.
    8880022    1    1    2    0    0  0.36995976301E+03  0.82591235230E+03  0.30532560844E+03  0.96727287779E+03  0.15294330000E+03 0.  0.
<mgrwt>
<rscale>  0 0.10651150E+04</rscale>
<asrwt>0</asrwt>
<pdfrwt beam="1">  1        1 0.14539923E+00 0.11192907E+04</pdfrwt>
<pdfrwt beam="2">  1       -1 0.20696089E+00 0.11192907E+04</pdfrwt>
<totfact> 0.22330209E+00</totfact>
</mgrwt>
</event>
<event>
 4    1  0.1043382E-007  0.8115742E+03  0.7818608E-02  0.9686307E-01
         -1   -1    0    0    0  501 -0.00000000000E+00  0.00000000000E+00  0.16152165319E+04  0.16152165319E+04  0.50400000000E-02 0.  1.
          1   -1    0    0  501    0  0.00000000000E+00 -0.00000000000E+00 -0.27491043118E+03  0.27491043123E+03  0.50400000000E-02 0. -1.
    8880023    1    1    2    0    0 -0.33077201218E+03  0.33975325627E+03  0.65537641410E+03  0.10431542789E+04  0.65864270000E+03 0.  0.
    8880022    1    1    2    0    0  0.33077201218E+03 -0.33975325627E+03  0.68492968657E+03  0.84697268418E+03  0.15294330000E+03 0.  0.
<mgrwt>
<rscale>  0 0.71837933E+03</rscale>
<asrwt>0</asrwt>
<pdfrwt beam="1">  1        1 0.42293912E-01 0.81157415E+03</pdfrwt>
<pdfrwt beam="2">  1       -1 0.24849485E+00 0.81157415E+03</pdfrwt>
<totfact> 0.72102452E+00</totfact>
</mgrwt>
</event>
<event>
 4    1  0.1043382E-007  0.6637710E+03  0.7818608E-02  0.1020588E+00
         -1   -1    0    0    0  501 -0.00000000000E+00  0.00000000000E+00  0.93190715004E+03  0.93190715005E+03  0.50400000000E-02 0.  1.
          1   -1    0    0  501    0  0.00000000000E+00 -0.00000000000E+00 -0.51480060067E+03  0.51480060069E+03  0.50400000000E-02 0. -1.
    8880023    1    1    2    0    0  0.66978800140E+02 -0.47912436282E+02  0.79209297119E+03  0.10334424234E+04  0.65864270000E+03 0.  1.
    8880022    1    1    2    0    0 -0.66978800140E+02  0.47912436282E+02 -0.37498642182E+03  0.41326532734E+03  0.15294330000E+03 0.  0.
<mgrwt>
<rscale>  0 0.47475197E+03</rscale>
<asrwt>0</asrwt>
<pdfrwt beam="1">  1        1 0.79200094E-01 0.66377102E+03</pdfrwt>
<pdfrwt beam="2">  1       -1 0.14337033E+00 0.66377102E+03</pdfrwt>
<totfact> 0.17386030E+01</totfact>
</mgrwt>
</event>
<event>
 4    1  0.1043382E-007  0.7664655E+03  0.7818608E-02  0.9788648E-01
          1   -1    0    0  501    0  0.00000000000E+00  0.00000000000E+00  0.71605042935E+03  0.71605042937E+03  0.50400000000E-02 0. -1.
         -1   -1    0    0    0  501 -0.00000000000E+00 -0.00000000000E+00 -0.10118506383E+04  0.10118506383E+04  0.50400000000E-02 0.  1.
    8880023    1    1    2    0    0  0.37962910278E+03  0.97677460595E+02 -0.77512748893E+03  0.10900880572E+04  0.65864270000E+03 0.  0.
    8880022    1    1    2    0    0 -0.37962910278E+03 -0.97677460595E+02  0.47932728001E+03  0.63781301050E+03  0.15294330000E+03 0. -1.
<mgrwt>
<rscale>  0 0.65975348E+03</rscale>
<asrwt>0</asrwt>
<pdfrwt beam="1">  1        1 0.11016160E+00 0.76646549E+03</pdfrwt>
<pdfrwt beam="2">  1       -1 0.15566933E+00 0.76646549E+03</pdfrwt>
<totfact> 0.85441492E+00</totfact>
</mgrwt>
</event>
<event>
 4    1  0.1043382E-007  0.6827537E+03  0.7818608E-02  0.1007807E+00
          1   -1    0    0  501    0  0.00000000000E+00  0.00000000000E+00  0.51815215678E+03  0.51815215680E+03  0.50400000000E-02 0. -1.
         -1   -1    0    0    0  501 -0.00000000000E+00 -0.00000000000E+00 -0.46550803624E+03  0.46550803626E+03  0.50400000000E-02 0.  1.
    8880023    1    1    2    0    0  0.17295237142E+03  0.49294482079E+02 -0.11732204716E+03  0.69276051977E+03  0.65864270000E+03 0.  1.
    8880022    1    1    2    0    0 -0.17295237142E+03 -0.49294482079E+02  0.16996616770E+03  0.29089967329E+03  0.15294330000E+03 0.  0.
<mgrwt>
<rscale>  0 0.52355609E+03</rscale>
<asrwt>0</asrwt>
<pdfrwt beam="1">  1        1 0.79715716E-01 0.68275374E+03</pdfrwt>
<pdfrwt beam="2">  1       -1 0.71616622E-01 0.68275374E+03</pdfrwt>
<totfact> 0.85006059E+01</totfact>
</mgrwt>
</event>
<event>
 4    1  0.1043382E-007  0.8489217E+03  0.7818608E-02  0.9613582E-01
          1   -1    0    0  501    0  0.00000000000E+00  0.00000000000E+00  0.70215077170E+03  0.70215077172E+03  0.50400000000E-02 0. -1.
         -1   -1    0    0    0  501 -0.00000000000E+00 -0.00000000000E+00 -0.17472606642E+04  0.17472606642E+04  0.50400000000E-02 0.  1.
    8880023    1    1    2    0    0  0.31051033743E+03 -0.43639569606E+03 -0.15044520774E+04  0.17274386046E+04  0.65864270000E+03 0.  1.
    8880022    1    1    2    0    0 -0.31051033743E+03  0.43639569606E+03  0.45934218497E+03  0.72197283127E+03  0.15294330000E+03 0.  0.
<mgrwt>
<rscale>  0 0.76403741E+03</rscale>
<asrwt>0</asrwt>
<pdfrwt beam="1">  1        1 0.10802320E+00 0.84892172E+03</pdfrwt>
<pdfrwt beam="2">  1       -1 0.26880933E+00 0.84892172E+03</pdfrwt>
<totfact> 0.14726603E+00</totfact>
</mgrwt>
</event>
<event>
 4    1  0.1043382E-007  0.6763414E+03  0.7818608E-02  0.1011474E+00
         -1   -1    0    0    0  501 -0.00000000000E+00  0.00000000000E+00  0.45592567904E+03  0.45592567907E+03  0.50400000000E-02 0.  1.
          1   -1    0    0  501    0  0.00000000000E+00 -0.00000000000E+00 -0.58637597482E+03  0.58637597484E+03  0.50400000000E-02 0. -1.
    8880023    1    1    2    0    0 -0.11039092523E+03  0.10696413435E+03  0.14503227369E+03  0.69171674050E+03  0.65864270000E+03 0.  0.
    8880022    1    1    2    0    0  0.11039092523E+03 -0.10696413435E+03 -0.27548256948E+03  0.35058491341E+03  0.15294330000E+03 0.  0.
<mgrwt>
<rscale>  0 0.50893089E+03</rscale>
<asrwt>0</asrwt>
<pdfrwt beam="1">  1        1 0.90211688E-01 0.67634140E+03</pdfrwt>
<pdfrwt beam="2">  1       -1 0.70142413E-01 0.67634140E+03</pdfrwt>
<totfact> 0.74616579E+01</totfact>
</mgrwt>
</event>
<event>
 4    1  0.1060547E-007  0.7220298E+03  0.7818608E-02  0.9915777E-01
         -1   -1    0    0    0  501 -0.00000000000E+00  0.00000000000E+00  0.99000114005E+03  0.99000114006E+03  0.50400000000E-02 0.  1.
          1   -1    0    0  501    0  0.00000000000E+00 -0.00000000000E+00 -0.10565397229E+04  0.10565397230E+04  0.50400000000E-02 0. -1.
    8880023    1    1    2    0    0 -0.29922867917E+02  0.29431531898E+03  0.82410975773E+03  0.10956660002E+04  0.65864270000E+03 0.  1.
    8880022    1    1    2    0    0  0.29922867917E+02 -0.29431531898E+03 -0.89064834062E+03  0.95087486279E+03  0.15294330000E+03 0.  0.
<mgrwt>
<rscale>  0 0.59502742E+03</rscale>
<asrwt>0</asrwt>
<pdfrwt beam="1">  1        1 0.16254457E+00 0.72202984E+03</pdfrwt>
<pdfrwt beam="2">  1       -1 0.15230787E+00 0.72202984E+03</pdfrwt>
<totfact> 0.47719223E+00</totfact>
</mgrwt>
</event>
<event>
 4    1  0.1043382E-007  0.7585610E+03  0.7818608E-02  0.9808847E-01
         -1   -1    0    0    0  501 -0.00000000000E+00  0.00000000000E+00  0.76884888264E+03  0.76884888266E+03  0.50400000000E-02 0.  1.
          1   -1    0    0  501    0  0.00000000000E+00 -0.00000000000E+00 -0.16895378318E+04  0.16895378318E+04  0.50400000000E-02 0. -1.
    8880023    1    1    2    0    0 -0.15894324354E+03 -0.34108883104E+03  0.54720147671E+03  0.93533106851E+03  0.65864270000E+03 0.  1.
    8880022    1    1    2    0    0  0.15894324354E+03  0.34108883104E+03 -0.14678904259E+04  0.15230556460E+04  0.15294330000E+03 0.  0.
<mgrwt>
<rscale>  0 0.64889901E+03</rscale>
<asrwt>0</asrwt>
<pdfrwt beam="1">  1        1 0.25992890E+00 0.75856097E+03</pdfrwt>
<pdfrwt beam="2">  1       -1 0.11828444E+00 0.75856097E+03</pdfrwt>
<totfact> 0.32478511E+00</totfact>
</mgrwt>
</event>
<event>
 4    1  0.1043382E-007  0.7557360E+03  0.7818608E-02  0.9816274E-01
         -1   -1    0    0    0  501 -0.00000000000E+00  0.00000000000E+00  0.54919172822E+03  0.54919172824E+03  0.50400000000E-02 0.  1.
          1   -1    0    0  501    0  0.00000000000E+00 -0.00000000000E+00 -0.77902264642E+03  0.77902264644E+03  0.50400000000E-02 0. -1.
    8880023    1    1    2    0    0  0.16047242349E+03  0.33402898243E+03  0.15615938783E+03  0.77170118600E+03  0.65864270000E+03 0.  0.
    8880022    1    1    2    0    0 -0.16047242349E+03 -0.33402898243E+03 -0.38599030604E+03  0.55651318868E+03  0.15294330000E+03 0.  0.
<mgrwt>
<rscale>  0 0.64496449E+03</rscale>
<asrwt>0</asrwt>
<pdfrwt beam="1">  1        1 0.11984964E+00 0.75573604E+03</pdfrwt>
<pdfrwt beam="2">  1       -1 0.84491035E-01 0.75573604E+03</pdfrwt>
<totfact> 0.32777569E+01</totfact>
</mgrwt>
</event>
<event>
 4    1  0.1043382E-007  0.6872627E+03  0.7818608E-02  0.1005482E+00
         -1   -1    0    0    0  501 -0.00000000000E+00  0.00000000000E+00  0.29948458089E+03  0.29948458093E+03  0.50400000000E-02 0.  1.
          1   -1    0    0  501    0  0.00000000000E+00 -0.00000000000E+00 -0.11404417779E+04  0.11404417779E+04  0.50400000000E-02 0. -1.
    8880023    1    1    2    0    0  0.19555295805E+03 -0.16700141162E+02 -0.14713397378E+03  0.70283601688E+03  0.65864270000E+03 0.  1.
    8880022    1    1    2    0    0 -0.19555295805E+03  0.16700141162E+02 -0.69382322321E+03  0.73709034195E+03  0.15294330000E+03 0.  0.
<mgrwt>
<rscale>  0 0.53310593E+03</rscale>
<asrwt>0</asrwt>
<pdfrwt beam="1">  1        1 0.17545258E+00 0.68726273E+03</pdfrwt>
<pdfrwt beam="2">  1       -1 0.46074552E-01 0.68726273E+03</pdfrwt>
<totfact> 0.57108662E+01</totfact>
</mgrwt>
</event>
<event>
 4    1  0.1043382E-007  0.9190728E+03  0.7818608E-02  0.9496082E-01
         -1   -1    0    0    0  501 -0.00000000000E+00  0.00000000000E+00  0.56842954894E+03  0.56842954896E+03  0.50400000000E-02 0.  1.
          1   -1    0    0  501    0  0.00000000000E+00 -0.00000000000E+00 -0.26481357176E+04  0.26481357176E+04  0.50400000000E-02 0. -1.
    8880023    1    1    2    0    0  0.62097874826E+03 -0.15896537159E+03  0.11390606882E+03  0.92610441848E+03  0.65864270000E+03 0.  1.
    8880022    1    1    2    0    0 -0.62097874826E+03  0.15896537159E+03 -0.21936122375E+04  0.22904608481E+04  0.15294330000E+03 0.  0.
<mgrwt>
<rscale>  0 0.84573284E+03</rscale>
<asrwt>0</asrwt>
<pdfrwt beam="1">  1        1 0.40740549E+00 0.91907279E+03</pdfrwt>
<pdfrwt beam="2">  1       -1 0.87450701E-01 0.91907279E+03</pdfrwt>
<totfact> 0.14216805E+00</totfact>
</mgrwt>
</event>
<event>
 4    1  0.1043382E-007  0.8356663E+03  0.7818608E-02  0.9638407E-01
         -1   -1    0    0    0  501 -0.00000000000E+00  0.00000000000E+00  0.62605017169E+03  0.62605017171E+03  0.50400000000E-02 0.  1.
          1   -1    0    0  501    0  0.00000000000E+00 -0.00000000000E+00 -0.88565995681E+03  0.88565995682E+03  0.50400000000E-02 0. -1.
    8880023    1    1    2    0    0 -0.48299541088E+03 -0.17675789010E+03  0.13386671855E+03  0.84632052040E+03  0.65864270000E+03 0.  0.
    8880022    1    1    2    0    0  0.48299541088E+03  0.17675789010E+03 -0.39347650367E+03  0.66538960813E+03  0.15294330000E+03 0.  0.
<mgrwt>
<rscale>  0 0.74805504E+03</rscale>
<asrwt>0</asrwt>
<pdfrwt beam="1">  1        1 0.13625538E+00 0.83566628E+03</pdfrwt>
<pdfrwt beam="2">  1       -1 0.96315411E-01 0.83566628E+03</pdfrwt>
<totfact> 0.19768211E+01</totfact>
</mgrwt>
</event>
<event>
 4    1  0.1043382E-007  0.6882681E+03  0.7818608E-02  0.1004987E+00
          1   -1    0    0  501    0  0.00000000000E+00  0.00000000000E+00  0.51895796636E+03  0.51895796639E+03  0.50400000000E-02 0. -1.
         -1   -1    0    0    0  501 -0.00000000000E+00 -0.00000000000E+00 -0.10961890902E+04  0.10961890902E+04  0.50400000000E-02 0.  1.
    8880023    1    1    2    0    0  0.19334247283E+03 -0.50213734541E+02 -0.94529608616E+03  0.11693150250E+04  0.65864270000E+03 0.  1.
    8880022    1    1    2    0    0 -0.19334247283E+03  0.50213734541E+02  0.36806496230E+03  0.44583203162E+03  0.15294330000E+03 0.  0.
<mgrwt>
<rscale>  0 0.53516643E+03</rscale>
<asrwt>0</asrwt>
<pdfrwt beam="1">  1        1 0.79839687E-01 0.68826807E+03</pdfrwt>
<pdfrwt beam="2">  1       -1 0.16864448E+00 0.68826807E+03</pdfrwt>
<totfact> 0.11002465E+01</totfact>
</mgrwt>
</event>
<event>
 4    1  0.1043382E-007  0.1129540E+04  0.7818608E-02  0.9228858E-01
         -1   -1    0    0    0  501 -0.00000000000E+00  0.00000000000E+00  0.75468472108E+03  0.75468472110E+03  0.50400000000E-02 0.  1.
          1   -1    0    0  501    0  0.00000000000E+00 -0.00000000000E+00 -0.24758664305E+04  0.24758664305E+04  0.50400000000E-02 0. -1.
    8880023    1    1    2    0    0  0.76712247133E+03  0.50356094004E+03  0.15137649021E+03  0.11396383437E+04  0.65864270000E+03 0.  0.
    8880022    1    1    2    0    0 -0.76712247133E+03 -0.50356094004E+03 -0.18725581996E+04  0.20909128079E+04  0.15294330000E+03 0.  0.
<mgrwt>
<rscale>  0 0.10760464E+04</rscale>
<asrwt>0</asrwt>
<pdfrwt beam="1">  1        1 0.38090252E+00 0.11295400E+04</pdfrwt>
<pdfrwt beam="2">  1       -1 0.11610534E+00 0.11295400E+04</pdfrwt>
<totfact> 0.94285388E-01</totfact>
</mgrwt>
</event>
<event>
 4    1  0.1043382E-007  0.7336756E+03  0.7818608E-02  0.9878768E-01
          1   -1    0    0  501    0  0.00000000000E+00  0.00000000000E+00  0.86402504252E+03  0.86402504253E+03  0.50400000000E-02 0. -1.
         -1   -1    0    0    0  501 -0.00000000000E+00 -0.00000000000E+00 -0.37389030995E+03  0.37389030999E+03  0.50400000000E-02 0.  1.
    8880023    1    1    2    0    0  0.68334684683E+02 -0.31591140973E+03  0.15930618601E+03  0.75077181293E+03  0.65864270000E+03 0.  1.
    8880022    1    1    2    0    0 -0.68334684683E+02  0.31591140973E+03  0.33082854655E+03  0.48714353958E+03  0.15294330000E+03 0.  0.
<mgrwt>
<rscale>  0 0.61301406E+03</rscale>
<asrwt>0</asrwt>
<pdfrwt beam="1">  1        1 0.13292693E+00 0.73367558E+03</pdfrwt>
<pdfrwt beam="2">  1       -1 0.57521586E-01 0.73367558E+03</pdfrwt>
<totfact> 0.61066507E+01</totfact>
</mgrwt>
</event>
<event>
 4    1  0.1043382E-007  0.7627865E+03  0.7818608E-02  0.9797946E-01
         -1   -1    0    0    0  501 -0.00000000000E+00  0.00000000000E+00  0.34903733601E+03  0.34903733604E+03  0.50400000000E-02 0.  1.
          1   -1    0    0  501    0  0.00000000000E+00 -0.00000000000E+00 -0.23985627117E+04  0.23985627117E+04  0.50400000000E-02 0. -1.
    8880023    1    1    2    0    0  0.43173525915E+02 -0.38232064194E+03 -0.11759042101E+03  0.77179708471E+03  0.65864270000E+03 0.  1.
    8880022    1    1    2    0    0 -0.43173525915E+02  0.38232064194E+03 -0.19319349547E+04  0.19758029631E+04  0.15294330000E+03 0.  0.
<mgrwt>
<rscale>  0 0.65472875E+03</rscale>
<asrwt>0</asrwt>
<pdfrwt beam="1">  1        1 0.36900964E+00 0.76278649E+03</pdfrwt>
<pdfrwt beam="2">  1       -1 0.53698053E-01 0.76278649E+03</pdfrwt>
<totfact> 0.58712559E+00</totfact>
</mgrwt>
</event>
<event>
 4    1  0.1043382E-007  0.6996250E+03  0.7818608E-02  0.9998761E-01
         -1   -1    0    0    0  501 -0.00000000000E+00  0.00000000000E+00  0.56835803158E+03  0.56835803161E+03  0.50400000000E-02 0.  1.
          1   -1    0    0  501    0  0.00000000000E+00 -0.00000000000E+00 -0.72722651726E+03  0.72722651728E+03  0.50400000000E-02 0. -1.
    8880023    1    1    2    0    0 -0.12563865282E+03  0.19969926021E+03  0.29693908518E+03  0.76003150736E+03  0.65864270000E+03 0.  1.
    8880022    1    1    2    0    0  0.12563865282E+03 -0.19969926021E+03 -0.45580757086E+03  0.53555304152E+03  0.15294330000E+03 0.  0.
<mgrwt>
<rscale>  0 0.55704615E+03</rscale>
<asrwt>0</asrwt>
<pdfrwt beam="1">  1        1 0.11188100E+00 0.69962495E+03</pdfrwt>
<pdfrwt beam="2">  1       -1 0.87439696E-01 0.69962495E+03</pdfrwt>
<totfact> 0.34059982E+01</totfact>
</mgrwt>
</event>
<event>
 4    1  0.1043382E-007  0.7132307E+03  0.7818608E-02  0.9946194E-01
          1   -1    0    0  501    0  0.00000000000E+00  0.00000000000E+00  0.19673461543E+04  0.19673461543E+04  0.50400000000E-02 0. -1.
         -1   -1    0    0    0  501 -0.00000000000E+00 -0.00000000000E+00 -0.17390655676E+03  0.17390655683E+03  0.50400000000E-02 0.  1.
    8880023    1    1    2    0    0  0.24838892838E+03 -0.11485120606E+03  0.68339438757E+03  0.98778841586E+03  0.65864270000E+03 0.  0.
    8880022    1    1    2    0    0 -0.24838892838E+03  0.11485120606E+03  0.11100452100E+04  0.11534642953E+04  0.15294330000E+03 0.  0.
<mgrwt>
<rscale>  0 0.58073822E+03</rscale>
<asrwt>0</asrwt>
<pdfrwt beam="1">  1        1 0.30266861E+00 0.71323072E+03</pdfrwt>
<pdfrwt beam="2">  1       -1 0.26754858E-01 0.71323072E+03</pdfrwt>
<totfact> 0.40613436E+01</totfact>
</mgrwt>
</event>
<event>
 4    1  0.1043382E-007  0.9289551E+03  0.7818608E-02  0.9481062E-01
         -1   -1    0    0    0  501 -0.00000000000E+00  0.00000000000E+00  0.12741911549E+04  0.12741911549E+04  0.50400000000E-02 0.  1.
          1   -1    0    0  501    0  0.00000000000E+00 -0.00000000000E+00 -0.91318483417E+03  0.91318483419E+03  0.50400000000E-02 0. -1.
    8880023    1    1    2    0    0  0.36094648894E+03  0.54668551512E+03  0.92394219154E+03  0.13102010532E+04  0.65864270000E+03 0.  1.
    8880022    1    1    2    0    0 -0.36094648894E+03 -0.54668551512E+03 -0.56293587086E+03  0.87717493582E+03  0.15294330000E+03 0.  0.
<mgrwt>
<rscale>  0 0.85694522E+03</rscale>
<asrwt>0</asrwt>
<pdfrwt beam="1">  1        1 0.14048997E+00 0.92895513E+03</pdfrwt>
<pdfrwt beam="2">  1       -1 0.19602941E+00 0.92895513E+03</pdfrwt>
<totfact> 0.28834280E+00</totfact>
</mgrwt>
</event>
<event>
 4    1  0.1043382E-007  0.8401981E+03  0.7818608E-02  0.9629807E-01
          1   -1    0    0  501    0  0.00000000000E+00  0.00000000000E+00  0.12927507376E+04  0.12927507376E+04  0.50400000000E-02 0. -1.
         -1   -1    0    0    0  501 -0.00000000000E+00 -0.00000000000E+00 -0.48454767902E+03  0.48454767904E+03  0.50400000000E-02 0.  1.
    8880023    1    1    2    0    0 -0.26252349904E+03  0.45078169254E+03  0.46469819014E+02  0.84148224712E+03  0.65864270000E+03 0.  0.
    8880022    1    1    2    0    0  0.26252349904E+03 -0.45078169254E+03  0.76173323956E+03  0.93581616952E+03  0.15294330000E+03 0.  0.
<mgrwt>
<rscale>  0 0.75354400E+03</rscale>
<asrwt>0</asrwt>
<pdfrwt beam="1">  1        1 0.19888473E+00 0.84019815E+03</pdfrwt>
<pdfrwt beam="2">  1       -1 0.74545798E-01 0.84019815E+03</pdfrwt>
<totfact> 0.16933349E+01</totfact>
</mgrwt>
</event>
<event>
 4    1  0.1043382E-007  0.7789713E+03  0.7818608E-02  0.9758259E-01
         -1   -1    0    0    0  501 -0.00000000000E+00  0.00000000000E+00  0.58717258001E+03  0.58717258003E+03  0.50400000000E-02 0.  1.
          1   -1    0    0  501    0  0.00000000000E+00 -0.00000000000E+00 -0.63733391821E+03  0.63733391823E+03  0.50400000000E-02 0. -1.
    8880023    1    1    2    0    0 -0.82113637102E+02  0.40772956523E+03 -0.41839705641E+01  0.77898251561E+03  0.65864270000E+03 0.  1.
    8880022    1    1    2    0    0  0.82113637102E+02 -0.40772956523E+03 -0.45977367631E+02  0.44552398264E+03  0.15294330000E+03 0. -1.
<mgrwt>
<rscale>  0 0.67651527E+03</rscale>
<asrwt>0</asrwt>
<pdfrwt beam="1">  1        1 0.98051372E-01 0.77897128E+03</pdfrwt>
<pdfrwt beam="2">  1       -1 0.90334243E-01 0.77897128E+03</pdfrwt>
<totfact> 0.38341041E+01</totfact>
</mgrwt>
</event>
<event>
 4    1  0.1043382E-007  0.7975814E+03  0.7818608E-02  0.9716050E-01
          1   -1    0    0  501    0  0.00000000000E+00  0.00000000000E+00  0.17832554295E+04  0.17832554295E+04  0.50400000000E-02 0. -1.
         -1   -1    0    0    0  501 -0.00000000000E+00 -0.00000000000E+00 -0.23086961376E+03  0.23086961382E+03  0.50400000000E-02 0.  1.
    8880023    1    1    2    0    0  0.12975839956E+03  0.43068392021E+03  0.84462618357E+03  0.11616925056E+04  0.65864270000E+03 0.  0.
    8880022    1    1    2    0    0 -0.12975839956E+03 -0.43068392021E+03  0.70775963213E+03  0.85243253767E+03  0.15294330000E+03 0.  1.
<mgrwt>
<rscale>  0 0.70069162E+03</rscale>
<asrwt>0</asrwt>
<pdfrwt beam="1">  1        1 0.27434698E+00 0.79758140E+03</pdfrwt>
<pdfrwt beam="2">  1       -1 0.35518403E-01 0.79758140E+03</pdfrwt>
<totfact> 0.32504159E+01</totfact>
</mgrwt>
</event>
<event>
 4    1  0.1060352E-007  0.7120383E+03  0.7818608E-02  0.9950508E-01
         -1   -1    0    0    0  501 -0.00000000000E+00  0.00000000000E+00  0.68924882863E+03  0.68924882865E+03  0.50400000000E-02 0.  1.
          1   -1    0    0  501    0  0.00000000000E+00 -0.00000000000E+00 -0.15435011500E+04  0.15435011501E+04  0.50400000000E-02 0. -1.
    8880023    1    1    2    0    0  0.20638034748E+03 -0.17491582153E+03  0.48264921123E+03  0.86020280156E+03  0.65864270000E+03 0.  1.
    8880022    1    1    2    0    0 -0.20638034748E+03  0.17491582153E+03 -0.13369015327E+04  0.13725471771E+04  0.15294330000E+03 0.  0.
<mgrwt>
<rscale>  0 0.57874661E+03</rscale>
<asrwt>0</asrwt>
<pdfrwt beam="1">  1        1 0.23746171E+00 0.71203834E+03</pdfrwt>
<pdfrwt beam="2">  1       -1 0.10603828E+00 0.71203834E+03</pdfrwt>
<totfact> 0.53269639E+00</totfact>
</mgrwt>
</event>
<event>
 4    1  0.1043382E-007  0.8756556E+03  0.7818608E-02  0.9566300E-01
          1   -1    0    0  501    0  0.00000000000E+00  0.00000000000E+00  0.10664433948E+04  0.10664433948E+04  0.50400000000E-02 0. -1.
         -1   -1    0    0    0  501 -0.00000000000E+00 -0.00000000000E+00 -0.51639494387E+03  0.51639494389E+03  0.50400000000E-02 0.  1.
    8880023    1    1    2    0    0  0.26906839246E+03  0.51045541425E+03  0.42318622698E+03  0.97255299019E+03  0.65864270000E+03 0. -1.
    8880022    1    1    2    0    0 -0.26906839246E+03 -0.51045541425E+03  0.12686222399E+03  0.61028534855E+03  0.15294330000E+03 0.  0.
<mgrwt>
<rscale>  0 0.79567412E+03</rscale>
<asrwt>0</asrwt>
<pdfrwt beam="1">  1        1 0.16406821E+00 0.87565560E+03</pdfrwt>
<pdfrwt beam="2">  1       -1 0.79445377E-01 0.87565560E+03</pdfrwt>
<totfact> 0.21605064E+01</totfact>
</mgrwt>
</event>
<event>
 4    1  0.1043382E-007  0.8817559E+03  0.7818608E-02  0.9555978E-01
          1   -1    0    0  501    0  0.00000000000E+00  0.00000000000E+00  0.18663783717E+04  0.18663783717E+04  0.50400000000E-02 0. -1.
         -1   -1    0    0    0  501 -0.00000000000E+00 -0.00000000000E+00 -0.42468403471E+03  0.42468403474E+03  0.50400000000E-02 0.  1.
    8880023    1    1    2    0    0 -0.57929300150E+03 -0.90016136841E+02  0.19224971543E+03  0.90247074514E+03  0.65864270000E+03 0.  0.
    8880022    1    1    2    0    0  0.57929300150E+03  0.90016136841E+02  0.12494446216E+04  0.13885916613E+04  0.15294330000E+03 0.  0.
<mgrwt>
<rscale>  0 0.80279679E+03</rscale>
<asrwt>0</asrwt>
<pdfrwt beam="1">  1        1 0.28713514E+00 0.88175591E+03</pdfrwt>
<pdfrwt beam="2">  1       -1 0.65336004E-01 0.88175591E+03</pdfrwt>
<totfact> 0.89352991E+00</totfact>
</mgrwt>
</event>
<event>
 4    1  0.1043382E-007  0.8319690E+03  0.7818608E-02  0.9645513E-01
          1   -1    0    0  501    0  0.00000000000E+00  0.00000000000E+00  0.51036539509E+03  0.51036539512E+03  0.50400000000E-02 0. -1.
         -1   -1    0    0    0  501 -0.00000000000E+00 -0.00000000000E+00 -0.16960701287E+04  0.16960701287E+04  0.50400000000E-02 0.  1.
    8880023    1    1    2    0    0 -0.52862848144E+01 -0.50826599590E+03 -0.14044083372E+04  0.16323404214E+04  0.65864270000E+03 0.  1.
    8880022    1    1    2    0    0  0.52862848144E+01  0.50826599590E+03  0.21870360361E+03  0.57409510243E+03  0.15294330000E+03 0.  0.
<mgrwt>
<rscale>  0 0.74355674E+03</rscale>
<asrwt>0</asrwt>
<pdfrwt beam="1">  1        1 0.78517754E-01 0.83196903E+03</pdfrwt>
<pdfrwt beam="2">  1       -1 0.26093386E+00 0.83196903E+03</pdfrwt>
<totfact> 0.26307001E+00</totfact>
</mgrwt>
</event>
<event>
 4    1  0.1043382E-007  0.7615413E+03  0.7818608E-02  0.9801133E-01
          1   -1    0    0  501    0  0.00000000000E+00  0.00000000000E+00  0.12187208979E+04  0.12187208979E+04  0.50400000000E-02 0. -1.
         -1   -1    0    0    0  501 -0.00000000000E+00 -0.00000000000E+00 -0.75594596445E+03  0.75594596447E+03  0.50400000000E-02 0.  1.
    8880023    1    1    2    0    0 -0.37977989212E+03 -0.43614070379E+02 -0.51122090708E+03  0.91721969870E+03  0.65864270000E+03 0.  0.
    8880022    1    1    2    0    0  0.37977989212E+03  0.43614070379E+02  0.97399584052E+03  0.10574471637E+04  0.15294330000E+03 0.  0.
<mgrwt>
<rscale>  0 0.65301752E+03</rscale>
<asrwt>0</asrwt>
<pdfrwt beam="1">  1        1 0.18749552E+00 0.76154131E+03</pdfrwt>
<pdfrwt beam="2">  1       -1 0.11629938E+00 0.76154131E+03</pdfrwt>
<totfact> 0.71578665E+00</totfact>
</mgrwt>
</event>
<event>
 4    1  0.1043382E-007  0.7241448E+03  0.7818608E-02  0.9908803E-01
          1   -1    0    0  501    0  0.00000000000E+00  0.00000000000E+00  0.12349055030E+04  0.12349055030E+04  0.50400000000E-02 0. -1.
         -1   -1    0    0    0  501 -0.00000000000E+00 -0.00000000000E+00 -0.50077596340E+03  0.50077596342E+03  0.50400000000E-02 0.  1.
    8880023    1    1    2    0    0  0.17826631675E+03 -0.24248014878E+03 -0.19264835157E+03  0.74933243348E+03  0.65864270000E+03 0.  1.
    8880022    1    1    2    0    0 -0.17826631675E+03  0.24248014878E+03  0.92677789112E+03  0.98634903291E+03  0.15294330000E+03 0.  0.
<mgrwt>
<rscale>  0 0.59836548E+03</rscale>
<asrwt>0</asrwt>
<pdfrwt beam="1">  1        1 0.18998546E+00 0.72414481E+03</pdfrwt>
<pdfrwt beam="2">  1       -1 0.77042457E-01 0.72414481E+03</pdfrwt>
<totfact> 0.17635700E+01</totfact>
</mgrwt>
</event>
<event>
 4    1  0.1043382E-007  0.6806038E+03  0.7818608E-02  0.1008984E+00
          1   -1    0    0  501    0  0.00000000000E+00  0.00000000000E+00  0.14664325648E+04  0.14664325648E+04  0.50400000000E-02 0. -1.
         -1   -1    0    0    0  501 -0.00000000000E+00 -0.00000000000E+00 -0.39432837086E+03  0.39432837090E+03  0.50400000000E-02 0.  1.
    8880023    1    1    2    0    0  0.67636546463E+02  0.15759626211E+03 -0.80614828302E+02  0.68536139449E+03  0.65864270000E+03 0.  1.
    8880022    1    1    2    0    0 -0.67636546463E+02 -0.15759626211E+03  0.11527190222E+04  0.11753995412E+04  0.15294330000E+03 0.  0.
<mgrwt>
<rscale>  0 0.51880365E+03</rscale>
<asrwt>0</asrwt>
<pdfrwt beam="1">  1        1 0.22560501E+00 0.68060377E+03</pdfrwt>
<pdfrwt beam="2">  1       -1 0.60665904E-01 0.68060377E+03</pdfrwt>
<totfact> 0.19862791E+01</totfact>
</mgrwt>
</event>
<event>
 4    1  0.1043382E-007  0.6702060E+03  0.7818608E-02  0.1015516E+00
          1   -1    0    0  501    0  0.00000000000E+00  0.00000000000E+00  0.83360885041E+03  0.83360885043E+03  0.50400000000E-02 0. -1.
         -1   -1    0    0    0  501 -0.00000000000E+00 -0.00000000000E+00 -0.53373500896E+03  0.53373500898E+03  0.50400000000E-02 0.  1.
    8880023    1    1    2    0    0  0.11362141844E+03  0.49557978047E+02 -0.30125427646E+03  0.73479940478E+03  0.65864270000E+03 0.  1.
    8880022    1    1    2    0    0 -0.11362141844E+03 -0.49557978047E+02  0.60112811792E+03  0.63254445463E+03  0.15294330000E+03 0.  0.
<mgrwt>
<rscale>  0 0.49340170E+03</rscale>
<asrwt>0</asrwt>
<pdfrwt beam="1">  1        1 0.12824751E+00 0.67020596E+03</pdfrwt>
<pdfrwt beam="2">  1       -1 0.82113079E-01 0.67020596E+03</pdfrwt>
<totfact> 0.31567042E+01</totfact>
</mgrwt>
</event>
<event>
 4    1  0.1043382E-007  0.8502784E+03  0.7818608E-02  0.9611096E-01
         -1   -1    0    0    0  501 -0.00000000000E+00  0.00000000000E+00  0.59586181833E+03  0.59586181835E+03  0.50400000000E-02 0.  1.
          1   -1    0    0  501    0  0.00000000000E+00 -0.00000000000E+00 -0.24265011369E+04  0.24265011369E+04  0.50400000000E-02 0. -1.
    8880023    1    1    2    0    0 -0.32932278418E+03  0.42509963572E+03  0.23520240561E+03  0.88220948439E+03  0.65864270000E+03 0.  1.
    8880022    1    1    2    0    0  0.32932278418E+03 -0.42509963572E+03 -0.20658417242E+04  0.21401534709E+04  0.15294330000E+03 0.  0.
<mgrwt>
<rscale>  0 0.76566122E+03</rscale>
<asrwt>0</asrwt>
<pdfrwt beam="1">  1        1 0.37330786E+00 0.85027843E+03</pdfrwt>
<pdfrwt beam="2">  1       -1 0.91671050E-01 0.85027843E+03</pdfrwt>
<totfact> 0.18418124E+00</totfact>
</mgrwt>
</event>
<event>
 4    1  0.1043382E-007  0.7036134E+03  0.7818608E-02  0.9982529E-01
         -1   -1    0    0    0  501 -0.00000000000E+00  0.00000000000E+00  0.24251783485E+03  0.24251783491E+03  0.50400000000E-02 0.  1.
          1   -1    0    0  501    0  0.00000000000E+00 -0.00000000000E+00 -0.13616743737E+04  0.13616743737E+04  0.50400000000E-02 0. -1.
    8880023    1    1    2    0    0 -0.15511199276E+03  0.19287791384E+03 -0.35827122292E+03  0.78957589590E+03  0.65864270000E+03 0.  1.
    8880022    1    1    2    0    0  0.15511199276E+03 -0.19287791384E+03 -0.76088531594E+03  0.81461631273E+03  0.15294330000E+03 0.  0.
<mgrwt>
<rscale>  0 0.56422984E+03</rscale>
<asrwt>0</asrwt>
<pdfrwt beam="1">  1        1 0.20948836E+00 0.70361341E+03</pdfrwt>
<pdfrwt beam="2">  1       -1 0.37310437E-01 0.70361341E+03</pdfrwt>
<totfact> 0.58269464E+01</totfact>
</mgrwt>
</event>
<event>
 4    1  0.1043382E-007  0.6628725E+03  0.7818608E-02  0.1021389E+00
         -1   -1    0    0    0  501 -0.00000000000E+00  0.00000000000E+00  0.89359874062E+02  0.89359874204E+02  0.50400000000E-02 0.  1.
          1   -1    0    0  501    0  0.00000000000E+00 -0.00000000000E+00 -0.21527849331E+04  0.21527849331E+04  0.50400000000E-02 0. -1.
    8880023    1    1    2    0    0 -0.40625104848E+02  0.62763880739E+02 -0.12915989779E+04  0.14517671404E+04  0.65864270000E+03 0.  1.
    8880022    1    1    2    0    0  0.40625104848E+02 -0.62763880739E+02 -0.77182608111E+03  0.79037766692E+03  0.15294330000E+03 0.  0.
<mgrwt>
<rscale>  0 0.47188625E+03</rscale>
<asrwt>0</asrwt>
<pdfrwt beam="1">  1        1 0.33119764E+00 0.66287247E+03</pdfrwt>
<pdfrwt beam="2">  1       -1 0.13747675E-01 0.66287247E+03</pdfrwt>
<totfact> 0.92813093E+01</totfact>
</mgrwt>
</event>
<event>
 4    1  0.1043382E-007  0.8307919E+03  0.7818608E-02  0.9647794E-01
          1   -1    0    0  501    0  0.00000000000E+00  0.00000000000E+00  0.25013331226E+04  0.25013331226E+04  0.50400000000E-02 0. -1.
         -1   -1    0    0    0  501 -0.00000000000E+00 -0.00000000000E+00 -0.78421973771E+03  0.78421973773E+03  0.50400000000E-02 0.  1.
    8880023    1    1    2    0    0  0.37909523328E+03  0.33569591946E+03 -0.52441412440E+03  0.98245881663E+03  0.65864270000E+03 0.  1.
    8880022    1    1    2    0    0 -0.37909523328E+03 -0.33569591946E+03  0.22415275092E+04  0.23030940437E+04  0.15294330000E+03 0.  0.
<mgrwt>
<rscale>  0 0.74212060E+03</rscale>
<asrwt>0</asrwt>
<pdfrwt beam="1">  1        1 0.38482048E+00 0.83079188E+03</pdfrwt>
<pdfrwt beam="2">  1       -1 0.12064919E+00 0.83079188E+03</pdfrwt>
<totfact> 0.86733330E-01</totfact>
</mgrwt>
</event>
<event>
 4    1  0.1043382E-007  0.1193775E+04  0.7818608E-02  0.9163197E-01
          1   -1    0    0  501    0  0.00000000000E+00  0.00000000000E+00  0.14024932002E+04  0.14024932003E+04  0.50400000000E-02 0. -1.
         -1   -1    0    0    0  501 -0.00000000000E+00 -0.00000000000E+00 -0.12567597525E+04  0.12567597525E+04  0.50400000000E-02 0.  1.
    8880023    1    1    2    0    0 -0.57821720300E+03  0.81052724371E+03 -0.66473531929E+03  0.13663721300E+04  0.65864270000E+03 0.  0.
    8880022    1    1    2    0    0  0.57821720300E+03 -0.81052724371E+03  0.81046876702E+03  0.12928808228E+04  0.15294330000E+03 0.  0.
<mgrwt>
<rscale>  0 0.11441506E+04</rscale>
<asrwt>0</asrwt>
<pdfrwt beam="1">  1        1 0.21576818E+00 0.11937754E+04</pdfrwt>
<pdfrwt beam="2">  1       -1 0.19334766E+00 0.11937754E+04</pdfrwt>
<totfact> 0.12561162E+00</totfact>
</mgrwt>
</event>
<event>
 4    1  0.1043382E-007  0.8668277E+03  0.7818608E-02  0.9581532E-01
         -1   -1    0    0    0  501 -0.00000000000E+00  0.00000000000E+00  0.41520578234E+03  0.41520578237E+03  0.50400000000E-02 0.  1.
          1   -1    0    0  501    0  0.00000000000E+00 -0.00000000000E+00 -0.16717743973E+04  0.16717743973E+04  0.50400000000E-02 0. -1.
    8880023    1    1    2    0    0 -0.44112181619E+03 -0.35070152156E+03 -0.21531201408E+03  0.89316822806E+03  0.65864270000E+03 0.  1.
    8880022    1    1    2    0    0  0.44112181619E+03  0.35070152156E+03 -0.10412566009E+04  0.11938119516E+04  0.15294330000E+03 0.  0.
<mgrwt>
<rscale>  0 0.78530681E+03</rscale>
<asrwt>0</asrwt>
<pdfrwt beam="1">  1        1 0.25719606E+00 0.86682768E+03</pdfrwt>
<pdfrwt beam="2">  1       -1 0.63877813E-01 0.86682768E+03</pdfrwt>
<totfact> 0.12670178E+01</totfact>
</mgrwt>
</event>
<event>
 4    1  0.1043382E-007  0.7480163E+03  0.7818608E-02  0.9837183E-01
          1   -1    0    0  501    0  0.00000000000E+00  0.00000000000E+00  0.92905642575E+03  0.92905642577E+03  0.50400000000E-02 0. -1.
         -1   -1    0    0    0  501 -0.00000000000E+00 -0.00000000000E+00 -0.49842324383E+03  0.49842324386E+03  0.50400000000E-02 0.  1.
    8880023    1    1    2    0    0 -0.15005359977E+03 -0.32125092331E+03  0.64334505194E+03  0.98662115356E+03  0.65864270000E+03 0.  0.
    8880022    1    1    2    0    0  0.15005359977E+03  0.32125092331E+03 -0.21271187002E+03  0.44085851607E+03  0.15294330000E+03 0.  0.
<mgrwt>
<rscale>  0 0.63404725E+03</rscale>
<asrwt>0</asrwt>
<pdfrwt beam="1">  1        1 0.14293176E+00 0.74801634E+03</pdfrwt>
<pdfrwt beam="2">  1       -1 0.76680500E-01 0.74801634E+03</pdfrwt>
<totfact> 0.30189314E+01</totfact>
</mgrwt>
</event>
<event>
 4    1  0.1043382E-007  0.7376961E+03  0.7818608E-02  0.9866710E-01
          1   -1    0    0  501    0  0.00000000000E+00  0.00000000000E+00  0.79494519254E+03  0.79494519255E+03  0.50400000000E-02 0. -1.
         -1   -1    0    0    0  501 -0.00000000000E+00 -0.00000000000E+00 -0.11059391705E+04  0.11059391705E+04  0.50400000000E-02 0.  1.
    8880023    1    1    2    0    0  0.20281045843E+03 -0.26316025479E+03 -0.92686110035E+03  0.11845957569E+04  0.65864270000E+03 0.  1.
    8880022    1    1    2    0    0 -0.20281045843E+03  0.26316025479E+03  0.61586712241E+03  0.71628860610E+03  0.15294330000E+03 0.  0.
<mgrwt>
<rscale>  0 0.61902165E+03</rscale>
<asrwt>0</asrwt>
<pdfrwt beam="1">  1        1 0.12229926E+00 0.73769615E+03</pdfrwt>
<pdfrwt beam="2">  1       -1 0.17014449E+00 0.73769615E+03</pdfrwt>
<totfact> 0.56840570E+00</totfact>
</mgrwt>
</event>
<event>
 4    1  0.2025050E-007  0.6834466E+03  0.7818608E-02  0.1007438E+00
          1   -1    0    0  501    0  0.00000000000E+00  0.00000000000E+00  0.30198068579E+04  0.30198068579E+04  0.50400000000E-02 0. -1.
         -1   -1    0    0    0  501 -0.00000000000E+00 -0.00000000000E+00 -0.11016609084E+04  0.11016609084E+04  0.50400000000E-02 0.  1.
    8880023    1    1    2    0    0  0.12611249403E+03  0.13185094712E+03 -0.99032807770E+03  0.12032659478E+04  0.65864270000E+03 0.  1.
    8880022    1    1    2    0    0 -0.12611249403E+03 -0.13185094712E+03  0.29084740273E+04  0.29182018185E+04  0.15294330000E+03 0.  0.
<mgrwt>
<rscale>  0 0.52505866E+03</rscale>
<asrwt>0</asrwt>
<pdfrwt beam="1">  1        1 0.46458568E+00 0.68344659E+03</pdfrwt>
<pdfrwt beam="2">  1       -1 0.16948629E+00 0.68344659E+03</pdfrwt>
<totfact> 0.15943883E-01</totfact>
</mgrwt>
</event>
<event>
 4    1  0.1043382E-007  0.8198698E+03  0.7818608E-02  0.9669374E-01
         -1   -1    0    0    0  501 -0.00000000000E+00  0.00000000000E+00  0.10181456525E+04  0.10181456525E+04  0.50400000000E-02 0.  1.
          1   -1    0    0  501    0  0.00000000000E+00 -0.00000000000E+00 -0.48648784466E+03  0.48648784469E+03  0.50400000000E-02 0. -1.
    8880023    1    1    2    0    0  0.73992429400E+02 -0.48259852763E+03  0.55894610368E+03  0.99227373822E+03  0.65864270000E+03 0.  0.
    8880022    1    1    2    0    0 -0.73992429400E+02  0.48259852763E+03 -0.27288295872E+02  0.51235975894E+03  0.15294330000E+03 0.  0.
<mgrwt>
<rscale>  0 0.72869903E+03</rscale>
<asrwt>0</asrwt>
<pdfrwt beam="1">  1        1 0.74844285E-01 0.81986976E+03</pdfrwt>
<pdfrwt beam="2">  1       -1 0.15663779E+00 0.81986976E+03</pdfrwt>
<totfact> 0.14557029E+01</totfact>
</mgrwt>
</event>
<event>
 4    1  0.1043382E-007  0.7228807E+03  0.7818608E-02  0.9912956E-01
          1   -1    0    0  501    0  0.00000000000E+00  0.00000000000E+00  0.13230331225E+04  0.13230331225E+04  0.50400000000E-02 0. -1.
         -1   -1    0    0    0  501 -0.00000000000E+00 -0.00000000000E+00 -0.42115287669E+03  0.42115287672E+03  0.50400000000E-02 0.  1.
    8880023    1    1    2    0    0 -0.18455057450E+03  0.23385338772E+03 -0.60306556353E+02  0.72539189994E+03  0.65864270000E+03 0.  1.
    8880022    1    1    2    0    0  0.18455057450E+03 -0.23385338772E+03  0.96218680217E+03  0.10187940993E+04  0.15294330000E+03 0. -1.
<mgrwt>
<rscale>  0 0.59637450E+03</rscale>
<asrwt>0</asrwt>
<pdfrwt beam="1">  1        1 0.20354356E+00 0.72288071E+03</pdfrwt>
<pdfrwt beam="2">  1       -1 0.64792750E-01 0.72288071E+03</pdfrwt>
<totfact> 0.21784196E+01</totfact>
</mgrwt>
</event>
<event>
 4    1  0.1043382E-007  0.6989077E+03  0.7818608E-02  0.1000176E+00
         -1   -1    0    0    0  501 -0.00000000000E+00  0.00000000000E+00  0.72794540995E+03  0.72794540997E+03  0.50400000000E-02 0.  1.
          1   -1    0    0  501    0  0.00000000000E+00 -0.00000000000E+00 -0.11537768928E+04  0.11537768929E+04  0.50400000000E-02 0. -1.
    8880023    1    1    2    0    0 -0.22113159864E+03 -0.75911807623E+02  0.53559202767E+03  0.88052871209E+03  0.65864270000E+03 0.  1.
    8880022    1    1    2    0    0  0.22113159864E+03  0.75911807623E+02 -0.96142351056E+03  0.10011935907E+04  0.15294330000E+03 0.  0.
<mgrwt>
<rscale>  0 0.55573005E+03</rscale>
<asrwt>0</asrwt>
<pdfrwt beam="1">  1        1 0.17750414E+00 0.69890771E+03</pdfrwt>
<pdfrwt beam="2">  1       -1 0.11199160E+00 0.69890771E+03</pdfrwt>
<totfact> 0.88141379E+00</totfact>
</mgrwt>
</event>
<event>
 4    1  0.1043382E-007  0.7643143E+03  0.7818608E-02  0.9794063E-01
          1   -1    0    0  501    0  0.00000000000E+00  0.00000000000E+00  0.72904563416E+03  0.72904563418E+03  0.50400000000E-02 0. -1.
         -1   -1    0    0    0  501 -0.00000000000E+00 -0.00000000000E+00 -0.62544625070E+03  0.62544625072E+03  0.50400000000E-02 0.  1.
    8880023    1    1    2    0    0  0.38626672075E+03 -0.34120669069E+02 -0.25385949253E+03  0.80537013095E+03  0.65864270000E+03 0.  0.
    8880022    1    1    2    0    0 -0.38626672075E+03  0.34120669069E+02  0.35745887599E+03  0.54912175395E+03  0.15294330000E+03 0.  0.
<mgrwt>
<rscale>  0 0.65682105E+03</rscale>
<asrwt>0</asrwt>
<pdfrwt beam="1">  1        1 0.11216087E+00 0.76431434E+03</pdfrwt>
<pdfrwt beam="2">  1       -1 0.96222500E-01 0.76431434E+03</pdfrwt>
<totfact> 0.27267776E+01</totfact>
</mgrwt>
</event>
<event>
 4    1  0.1043382E-007  0.6638780E+03  0.7818608E-02  0.1020494E+00
          1   -1    0    0  501    0  0.00000000000E+00  0.00000000000E+00  0.14678200176E+04  0.14678200177E+04  0.50400000000E-02 0. -1.
         -1   -1    0    0    0  501 -0.00000000000E+00 -0.00000000000E+00 -0.19736263300E+03  0.19736263306E+03  0.50400000000E-02 0.  1.
    8880023    1    1    2    0    0 -0.31336997212E+02 -0.77082666329E+02  0.39483518149E+03  0.77241748533E+03  0.65864270000E+03 0.  1.
    8880022    1    1    2    0    0  0.31336997212E+02  0.77082666329E+02  0.87562220316E+03  0.89276516539E+03  0.15294330000E+03 0.  0.
<mgrwt>
<rscale>  0 0.47508804E+03</rscale>
<asrwt>0</asrwt>
<pdfrwt beam="1">  1        1 0.22581847E+00 0.66387796E+03</pdfrwt>
<pdfrwt beam="2">  1       -1 0.30363481E-01 0.66387796E+03</pdfrwt>
<totfact> 0.71162388E+01</totfact>
</mgrwt>
</event>
<event>
 4    1  0.1043382E-007  0.7142426E+03  0.7818608E-02  0.9942572E-01
         -1   -1    0    0    0  501 -0.00000000000E+00  0.00000000000E+00  0.19794983665E+03  0.19794983671E+03  0.50400000000E-02 0.  1.
          1   -1    0    0  501    0  0.00000000000E+00 -0.00000000000E+00 -0.25103409623E+04  0.25103409623E+04  0.50400000000E-02 0. -1.
    8880023    1    1    2    0    0 -0.27130897752E+03  0.52188661084E+02 -0.50799858609E+03  0.87647303858E+03  0.65864270000E+03 0.  1.
    8880022    1    1    2    0    0  0.27130897752E+03 -0.52188661084E+02 -0.18043925396E+04  0.18318177604E+04  0.15294330000E+03 0.  0.
<mgrwt>
<rscale>  0 0.58241719E+03</rscale>
<asrwt>0</asrwt>
<pdfrwt beam="1">  1        1 0.38620628E+00 0.71424255E+03</pdfrwt>
<pdfrwt beam="2">  1       -1 0.30453823E-01 0.71424255E+03</pdfrwt>
<totfact> 0.13994563E+01</totfact>
</mgrwt>
</event>
<event>
 4    1  0.1043382E-007  0.1083662E+04  0.7818608E-02  0.9279469E-01
          1   -1    0    0  501    0  0.00000000000E+00  0.00000000000E+00  0.25849651655E+04  0.25849651656E+04  0.50400000000E-02 0. -1.
         -1   -1    0    0    0  501 -0.00000000000E+00 -0.00000000000E+00 -0.48352884793E+03  0.48352884795E+03  0.50400000000E-02 0.  1.
    8880023    1    1    2    0    0 -0.19653788536E+03  0.83778580635E+03  0.39895332833E+03  0.11547667133E+04  0.65864270000E+03 0.  0.
    8880022    1    1    2    0    0  0.19653788536E+03 -0.83778580635E+03  0.17024829893E+04  0.19137273002E+04  0.15294330000E+03 0.  0.
<mgrwt>
<rscale>  0 0.10269519E+04</rscale>
<asrwt>0</asrwt>
<pdfrwt beam="1">  1        1 0.39768695E+00 0.10836616E+04</pdfrwt>
<pdfrwt beam="2">  1       -1 0.74389053E-01 0.10836616E+04</pdfrwt>
<totfact> 0.21678715E+00</totfact>
</mgrwt>
</event>
<event>
 4    1  0.1043382E-007  0.7406389E+03  0.7818608E-02  0.9858090E-01
         -1   -1    0    0    0  501 -0.00000000000E+00  0.00000000000E+00  0.46792811612E+03  0.46792811615E+03  0.50400000000E-02 0.  1.
          1   -1    0    0  501    0  0.00000000000E+00 -0.00000000000E+00 -0.11188354102E+04  0.11188354102E+04  0.50400000000E-02 0. -1.
    8880023    1    1    2    0    0  0.31535014692E+03  0.12365293145E+03  0.10150915548E+03  0.74756275825E+03  0.65864270000E+03 0.  1.
    8880022    1    1    2    0    0 -0.31535014692E+03 -0.12365293145E+03 -0.75241644952E+03  0.83920076808E+03  0.15294330000E+03 0. -1.
<mgrwt>
<rscale>  0 0.62336135E+03</rscale>
<asrwt>0</asrwt>
<pdfrwt beam="1">  1        1 0.17212852E+00 0.74063889E+03</pdfrwt>
<pdfrwt beam="2">  1       -1 0.71988941E-01 0.74063889E+03</pdfrwt>
<totfact> 0.24621731E+01</totfact>
</mgrwt>
</event>
<event>
 4    1  0.1043382E-007  0.7230958E+03  0.7818608E-02  0.9912247E-01
          1   -1    0    0  501    0  0.00000000000E+00  0.00000000000E+00  0.11632934019E+04  0.11632934019E+04  0.50400000000E-02 0. -1.
         -1   -1    0    0    0  501 -0.00000000000E+00 -0.00000000000E+00 -0.12184627220E+04  0.12184627220E+04  0.50400000000E-02 0.  1.
    8880023    1    1    2    0    0 -0.11697699179E+03 -0.27454266607E+03 -0.10820989699E+04  0.13014628996E+04  0.65864270000E+03 0.  1.
    8880022    1    1    2    0    0  0.11697699179E+03  0.27454266607E+03  0.10269296497E+04  0.10802932244E+04  0.15294330000E+03 0.  0.
<mgrwt>
<rscale>  0 0.59671409E+03</rscale>
<asrwt>0</asrwt>
<pdfrwt beam="1">  1        1 0.17896821E+00 0.72309577E+03</pdfrwt>
<pdfrwt beam="2">  1       -1 0.18745580E+00 0.72309577E+03</pdfrwt>
<totfact> 0.21965511E+00</totfact>
</mgrwt>
</event>
<event>
 4    1  0.1043382E-007  0.7548238E+03  0.7818608E-02  0.9818697E-01
          1   -1    0    0  501    0  0.00000000000E+00  0.00000000000E+00  0.19985193070E+04  0.19985193070E+04  0.50400000000E-02 0. -1.
         -1   -1    0    0    0  501 -0.00000000000E+00 -0.00000000000E+00 -0.20643432434E+03  0.20643432440E+03  0.50400000000E-02 0.  1.
    8880023    1    1    2    0    0  0.19755786286E+03 -0.31131916178E+03  0.65345269026E+03  0.99837836232E+03  0.65864270000E+03 0.  0.
    8880022    1    1    2    0    0 -0.19755786286E+03  0.31131916178E+03  0.11386322924E+04  0.12065752691E+04  0.15294330000E+03 0.  0.
<mgrwt>
<rscale>  0 0.64368726E+03</rscale>
<asrwt>0</asrwt>
<pdfrwt beam="1">  1        1 0.30746450E+00 0.75482378E+03</pdfrwt>
<pdfrwt beam="2">  1       -1 0.31759127E-01 0.75482378E+03</pdfrwt>
<totfact> 0.28588320E+01</totfact>
</mgrwt>
</event>
<event>
 4    1  0.1043382E-007  0.7143789E+03  0.7818608E-02  0.9942086E-01
          1   -1    0    0  501    0  0.00000000000E+00  0.00000000000E+00  0.71203315774E+03  0.71203315776E+03  0.50400000000E-02 0. -1.
         -1   -1    0    0    0  501 -0.00000000000E+00 -0.00000000000E+00 -0.25360135101E+04  0.25360135101E+04  0.50400000000E-02 0.  1.
    8880023    1    1    2    0    0  0.27122488297E+03 -0.54443669067E+02 -0.24471505904E+04  0.25492907384E+04  0.65864270000E+03 0.  1.
    8880022    1    1    2    0    0 -0.27122488297E+03  0.54443669067E+02  0.62317023812E+03  0.69875592944E+03  0.15294330000E+03 0.  0.
<mgrwt>
<rscale>  0 0.58264272E+03</rscale>
<asrwt>0</asrwt>
<pdfrwt beam="1">  1        1 0.10954356E+00 0.71437893E+03</pdfrwt>
<pdfrwt beam="2">  1       -1 0.39015592E+00 0.71437893E+03</pdfrwt>
<totfact> 0.24041425E-01</totfact>
</mgrwt>
</event>
<event>
 4    1  0.1043382E-007  0.8264862E+03  0.7818608E-02  0.9656208E-01
          1   -1    0    0  501    0  0.00000000000E+00  0.00000000000E+00  0.32993596401E+04  0.32993596401E+04  0.50400000000E-02 0. -1.
         -1   -1    0    0    0  501 -0.00000000000E+00 -0.00000000000E+00 -0.44281057622E+03  0.44281057625E+03  0.50400000000E-02 0.  1.
    8880023    1    1    2    0    0 -0.40848604464E+03  0.28706868819E+03 -0.11909038016E+02  0.82657202460E+03  0.65864270000E+03 0.  1.
    8880022    1    1    2    0    0  0.40848604464E+03 -0.28706868819E+03  0.28684581019E+04  0.29155981918E+04  0.15294330000E+03 0.  0.
<mgrwt>
<rscale>  0 0.73685084E+03</rscale>
<asrwt>0</asrwt>
<pdfrwt beam="1">  1        1 0.50759377E+00 0.82648623E+03</pdfrwt>
<pdfrwt beam="2">  1       -1 0.68124707E-01 0.82648623E+03</pdfrwt>
<totfact> 0.83381917E-01</totfact>
</mgrwt>
</event>
<event>
 4    1  0.1043382E-007  0.8736032E+03  0.7818608E-02  0.9569810E-01
         -1   -1    0    0    0  501 -0.00000000000E+00  0.00000000000E+00  0.15172947285E+04  0.15172947285E+04  0.50400000000E-02 0.  1.
          1   -1    0    0  501    0  0.00000000000E+00 -0.00000000000E+00 -0.10125963829E+04  0.10125963829E+04  0.50400000000E-02 0. -1.
    8880023    1    1    2    0    0 -0.32902734906E+03  0.47022684395E+03  0.12821792285E+04  0.15515044510E+04  0.65864270000E+03 0.  0.
    8880022    1    1    2    0    0  0.32902734906E+03 -0.47022684395E+03 -0.77748088283E+03  0.97838666046E+03  0.15294330000E+03 0.  0.
<mgrwt>
<rscale>  0 0.79327026E+03</rscale>
<asrwt>0</asrwt>
<pdfrwt beam="1">  1        1 0.15578406E+00 0.87360316E+03</pdfrwt>
<pdfrwt beam="2">  1       -1 0.23342996E+00 0.87360316E+03</pdfrwt>
<totfact> 0.13594818E+00</totfact>
</mgrwt>
</event>
<event>
 4    1  0.1043382E-007  0.7244819E+03  0.7818608E-02  0.9907703E-01
         -1   -1    0    0    0  501 -0.00000000000E+00  0.00000000000E+00  0.19600055737E+03  0.19600055744E+03  0.50400000000E-02 0.  1.
          1   -1    0    0  501    0  0.00000000000E+00 -0.00000000000E+00 -0.15109979593E+04  0.15109979593E+04  0.50400000000E-02 0. -1.
    8880023    1    1    2    0    0 -0.16854968473E+03 -0.25030947104E+03 -0.71320544675E+03  0.10166297473E+04  0.65864270000E+03 0.  1.
    8880022    1    1    2    0    0  0.16854968473E+03  0.25030947104E+03 -0.60179195515E+03  0.69036876944E+03  0.15294330000E+03 0.  0.
<mgrwt>
<rscale>  0 0.59889437E+03</rscale>
<asrwt>0</asrwt>
<pdfrwt beam="1">  1        1 0.23246122E+00 0.72448191E+03</pdfrwt>
<pdfrwt beam="2">  1       -1 0.30153933E-01 0.72448191E+03</pdfrwt>
<totfact> 0.66844873E+01</totfact>
</mgrwt>
</event>
<event>
 4    1  0.1043382E-007  0.1370470E+04  0.7818608E-02  0.9006975E-01
         -1   -1    0    0    0  501 -0.00000000000E+00  0.00000000000E+00  0.68871778416E+03  0.68871778418E+03  0.50400000000E-02 0.  1.
          1   -1    0    0  501    0  0.00000000000E+00 -0.00000000000E+00 -0.35224321710E+04  0.35224321710E+04  0.50400000000E-02 0. -1.
    8880023    1    1    2    0    0 -0.11989946875E+04 -0.82390911810E+02 -0.30034296313E+03  0.14029941642E+04  0.65864270000E+03 0.  0.
    8880022    1    1    2    0    0  0.11989946875E+04  0.82390911810E+02 -0.25333714237E+04  0.28081557910E+04  0.15294330000E+03 0.  0.
<mgrwt>
<rscale>  0 0.13288753E+04</rscale>
<asrwt>0</asrwt>
<pdfrwt beam="1">  1        1 0.54191263E+00 0.13704695E+04</pdfrwt>
<pdfrwt beam="2">  1       -1 0.10595658E+00 0.13704695E+04</pdfrwt>
<totfact> 0.19577262E-01</totfact>
</mgrwt>
</event>
<event>
 4    1  0.1043382E-007  0.1430149E+04  0.7818608E-02  0.8960603E-01
         -1   -1    0    0    0  501 -0.00000000000E+00  0.00000000000E+00  0.11094660264E+04  0.11094660264E+04  0.50400000000E-02 0.  1.
          1   -1    0    0  501    0  0.00000000000E+00 -0.00000000000E+00 -0.34870550724E+04  0.34870550724E+04  0.50400000000E-02 0. -1.
    8880023    1    1    2    0    0 -0.86538611168E+03  0.92877459559E+03  0.44503589917E+03  0.14977925522E+04  0.65864270000E+03 0.  0.
    8880022    1    1    2    0    0  0.86538611168E+03 -0.92877459559E+03 -0.28226249451E+04  0.30987285466E+04  0.15294330000E+03 0.  0.
<mgrwt>
<rscale>  0 0.13906651E+04</rscale>
<asrwt>0</asrwt>
<pdfrwt beam="1">  1        1 0.53647001E+00 0.14301488E+04</pdfrwt>
<pdfrwt beam="2">  1       -1 0.17068708E+00 0.14301488E+04</pdfrwt>
<totfact> 0.59952267E-02</totfact>
</mgrwt>
</event>
<event>
 4    1  0.1043382E-007  0.6988926E+03  0.7818608E-02  0.1000183E+00
          1   -1    0    0  501    0  0.00000000000E+00  0.00000000000E+00  0.12689310306E+04  0.12689310306E+04  0.50400000000E-02 0. -1.
         -1   -1    0    0    0  501 -0.00000000000E+00 -0.00000000000E+00 -0.11790875476E+04  0.11790875476E+04  0.50400000000E-02 0.  1.
    8880023    1    1    2    0    0  0.22353828727E+03 -0.68346762474E+02 -0.10572672903E+04  0.12673850935E+04  0.65864270000E+03 0.  1.
    8880022    1    1    2    0    0 -0.22353828727E+03  0.68346762474E+02  0.11471107733E+04  0.11806334846E+04  0.15294330000E+03 0.  0.
<mgrwt>
<rscale>  0 0.55570221E+03</rscale>
<asrwt>0</asrwt>
<pdfrwt beam="1">  1        1 0.19522016E+00 0.69889259E+03</pdfrwt>
<pdfrwt beam="2">  1       -1 0.18139808E+00 0.69889259E+03</pdfrwt>
<totfact> 0.20437248E+00</totfact>
</mgrwt>
</event>
<event>
 4    1  0.1043382E-007  0.6761444E+03  0.7818608E-02  0.1011594E+00
         -1   -1    0    0    0  501 -0.00000000000E+00  0.00000000000E+00  0.56797882624E+03  0.56797882627E+03  0.50400000000E-02 0.  1.
          1   -1    0    0  501    0  0.00000000000E+00 -0.00000000000E+00 -0.40039844386E+03  0.40039844389E+03  0.50400000000E-02 0. -1.
    8880023    1    1    2    0    0 -0.90417399456E+01  0.15257557900E+03  0.27132586688E+03  0.72855266980E+03  0.65864270000E+03 0.  1.
    8880022    1    1    2    0    0  0.90417399456E+01 -0.15257557900E+03 -0.10374548450E+03  0.23982460036E+03  0.15294330000E+03 0.  0.
<mgrwt>
<rscale>  0 0.50845843E+03</rscale>
<asrwt>0</asrwt>
<pdfrwt beam="1">  1        1 0.61599761E-01 0.67614441E+03</pdfrwt>
<pdfrwt beam="2">  1       -1 0.87381358E-01 0.67614441E+03</pdfrwt>
<totfact> 0.79095408E+01</totfact>
</mgrwt>
</event>
<event>
 4    1  0.1043382E-007  0.1012265E+04  0.7818608E-02  0.9365684E-01
         -1   -1    0    0    0  501 -0.00000000000E+00  0.00000000000E+00  0.12195633678E+04  0.12195633679E+04  0.50400000000E-02 0.  1.
          1   -1    0    0  501    0  0.00000000000E+00 -0.00000000000E+00 -0.18582645699E+04  0.18582645700E+04  0.50400000000E-02 0. -1.
    8880023    1    1    2    0    0  0.93539052419E+01 -0.76862385787E+03  0.89776001175E+03  0.13530163988E+04  0.65864270000E+03 0.  0.
    8880022    1    1    2    0    0 -0.93539052419E+01  0.76862385787E+03 -0.15364612139E+04  0.17248115390E+04  0.15294330000E+03 0.  0.
<mgrwt>
<rscale>  0 0.94954344E+03</rscale>
<asrwt>0</asrwt>
<pdfrwt beam="1">  1        1 0.28588686E+00 0.10122650E+04</pdfrwt>
<pdfrwt beam="2">  1       -1 0.18762513E+00 0.10122650E+04</pdfrwt>
<totfact> 0.68864407E-01</totfact>
</mgrwt>
</event>
<event>
 4    1  0.1043382E-007  0.7095749E+03  0.7818608E-02  0.9959583E-01
         -1   -1    0    0    0  501 -0.00000000000E+00  0.00000000000E+00  0.32453068440E+03  0.32453068444E+03  0.50400000000E-02 0.  1.
          1   -1    0    0  501    0  0.00000000000E+00 -0.00000000000E+00 -0.81726734292E+03  0.81726734294E+03  0.50400000000E-02 0. -1.
    8880023    1    1    2    0    0 -0.42508247704E+02  0.26053659766E+03 -0.43196734818E+03  0.83071792204E+03  0.65864270000E+03 0. -1.
    8880022    1    1    2    0    0  0.42508247704E+02 -0.26053659766E+03 -0.60769310343E+02  0.31108010534E+03  0.15294330000E+03 0.  0.
<mgrwt>
<rscale>  0 0.57458528E+03</rscale>
<asrwt>0</asrwt>
<pdfrwt beam="1">  1        1 0.12573344E+00 0.70957486E+03</pdfrwt>
<pdfrwt beam="2">  1       -1 0.49927798E-01 0.70957486E+03</pdfrwt>
<totfact> 0.87933923E+01</totfact>
</mgrwt>
</event>
<event>
 4    1  0.1043382E-007  0.6702398E+03  0.7818608E-02  0.1015492E+00
          1   -1    0    0  501    0  0.00000000000E+00  0.00000000000E+00  0.11835020095E+04  0.11835020095E+04  0.50400000000E-02 0. -1.
         -1   -1    0    0    0  501 -0.00000000000E+00 -0.00000000000E+00 -0.26396562296E+03  0.26396562301E+03  0.50400000000E-02 0.  1.
    8880023    1    1    2    0    0 -0.12373617308E+03  0.10029188679E+02  0.19704558729E+03  0.69860460554E+03  0.65864270000E+03 0.  0.
    8880022    1    1    2    0    0  0.12373617308E+03 -0.10029188679E+02  0.72249079921E+03  0.74886302693E+03  0.15294330000E+03 0. -1.
<mgrwt>
<rscale>  0 0.49349263E+03</rscale>
<asrwt>0</asrwt>
<pdfrwt beam="1">  1        1 0.18207723E+00 0.67023983E+03</pdfrwt>
<pdfrwt beam="2">  1       -1 0.40610097E-01 0.67023983E+03</pdfrwt>
<totfact> 0.67142459E+01</totfact>
</mgrwt>
</event>
<event>
 4    1  0.1043382E-007  0.7582310E+03  0.7818608E-02  0.9809709E-01
          1   -1    0    0  501    0  0.00000000000E+00  0.00000000000E+00  0.16077548527E+04  0.16077548527E+04  0.50400000000E-02 0. -1.
         -1   -1    0    0    0  501 -0.00000000000E+00 -0.00000000000E+00 -0.36609771037E+03  0.36609771041E+03  0.50400000000E-02 0.  1.
    8880023    1    1    2    0    0  0.12047247146E+03  0.35579557111E+03  0.10309356968E+03  0.76520755039E+03  0.65864270000E+03 0.  0.
    8880022    1    1    2    0    0 -0.12047247146E+03 -0.35579557111E+03  0.11385635726E+04  0.12086450127E+04  0.15294330000E+03 0.  0.
<mgrwt>
<rscale>  0 0.64844106E+03</rscale>
<asrwt>0</asrwt>
<pdfrwt beam="1">  1        1 0.24734689E+00 0.75823104E+03</pdfrwt>
<pdfrwt beam="2">  1       -1 0.56322726E-01 0.75823104E+03</pdfrwt>
<totfact> 0.18204652E+01</totfact>
</mgrwt>
</event>
<event>
 4    1  0.1043382E-007  0.9575266E+03  0.7818608E-02  0.9439367E-01
         -1   -1    0    0    0  501 -0.00000000000E+00  0.00000000000E+00  0.77318410261E+03  0.77318410263E+03  0.50400000000E-02 0.  1.
          1   -1    0    0  501    0  0.00000000000E+00 -0.00000000000E+00 -0.10986416026E+04  0.10986416026E+04  0.50400000000E-02 0. -1.
    8880023    1    1    2    0    0  0.68809786723E+03 -0.97818060099E+02  0.21116335241E+03  0.98053414802E+03  0.65864270000E+03 0.  0.
    8880022    1    1    2    0    0 -0.68809786723E+03  0.97818060099E+02 -0.53662085242E+03  0.89129155726E+03  0.15294330000E+03 0.  0.
<mgrwt>
<rscale>  0 0.88905578E+03</rscale>
<asrwt>0</asrwt>
<pdfrwt beam="1">  1        1 0.16902178E+00 0.95752663E+03</pdfrwt>
<pdfrwt beam="2">  1       -1 0.11895140E+00 0.95752663E+03</pdfrwt>
<totfact> 0.80993137E+00</totfact>
</mgrwt>
</event>
<event>
 4    1  0.1043382E-007  0.6593203E+03  0.7818608E-02  0.1024864E+00
         -1   -1    0    0    0  501 -0.00000000000E+00  0.00000000000E+00  0.24464227609E+03  0.24464227614E+03  0.50400000000E-02 0.  1.
          1   -1    0    0  501    0  0.00000000000E+00 -0.00000000000E+00 -0.12208723216E+04  0.12208723216E+04  0.50400000000E-02 0. -1.
    8880023    1    1    2    0    0 -0.10676539734E+02 -0.27911099276E+02 -0.22251236171E+03  0.69585557075E+03  0.65864270000E+03 0.  1.
    8880022    1    1    2    0    0  0.10676539734E+02  0.27911099276E+02 -0.75371768377E+03  0.76965902698E+03  0.15294330000E+03 0.  0.
<mgrwt>
<rscale>  0 0.45971519E+03</rscale>
<asrwt>0</asrwt>
<pdfrwt beam="1">  1        1 0.18782651E+00 0.65932027E+03</pdfrwt>
<pdfrwt beam="2">  1       -1 0.37637274E-01 0.65932027E+03</pdfrwt>
<totfact> 0.72485320E+01</totfact>
</mgrwt>
</event>
<event>
 4    1  0.1043382E-007  0.6653821E+03  0.7818608E-02  0.1019215E+00
         -1   -1    0    0    0  501 -0.00000000000E+00  0.00000000000E+00  0.80611904514E+03  0.80611904515E+03  0.50400000000E-02 0.  1.
          1   -1    0    0  501    0  0.00000000000E+00 -0.00000000000E+00 -0.70363031266E+03  0.70363031268E+03  0.50400000000E-02 0. -1.
    8880023    1    1    2    0    0  0.93495861457E+02 -0.13478368477E+02  0.65200252979E+03  0.93157965180E+03  0.65864270000E+03 0.  1.
    8880022    1    1    2    0    0 -0.93495861457E+02  0.13478368477E+02 -0.54951379731E+03  0.57816970603E+03  0.15294330000E+03 0.  0.
<mgrwt>
<rscale>  0 0.47970972E+03</rscale>
<asrwt>0</asrwt>
<pdfrwt beam="1">  1        1 0.10825082E+00 0.66538211E+03</pdfrwt>
<pdfrwt beam="2">  1       -1 0.12401832E+00 0.66538211E+03</pdfrwt>
<totfact> 0.16030630E+01</totfact>
</mgrwt>
</event>
<event>
 4    1  0.1043382E-007  0.7959837E+03  0.7818608E-02  0.9719548E-01
          1   -1    0    0  501    0  0.00000000000E+00  0.00000000000E+00  0.18158607971E+04  0.18158607971E+04  0.50400000000E-02 0. -1.
         -1   -1    0    0    0  501 -0.00000000000E+00 -0.00000000000E+00 -0.54420019467E+03  0.54420019470E+03  0.50400000000E-02 0.  1.
    8880023    1    1    2    0    0 -0.10166700740E+03 -0.43525126019E+03 -0.19472663971E+03  0.81945622846E+03  0.65864270000E+03 0.  1.
    8880022    1    1    2    0    0  0.10166700740E+03  0.43525126019E+03  0.14663872421E+04  0.15406047633E+04  0.15294330000E+03 0.  0.
<mgrwt>
<rscale>  0 0.69864728E+03</rscale>
<asrwt>0</asrwt>
<pdfrwt beam="1">  1        1 0.27936321E+00 0.79598370E+03</pdfrwt>
<pdfrwt beam="2">  1       -1 0.83723105E-01 0.79598370E+03</pdfrwt>
<totfact> 0.58369420E+00</totfact>
</mgrwt>
</event>
<event>
 4    1  0.1345696E-007  0.8234877E+03  0.7818608E-02  0.9662139E-01
         -1   -1    0    0    0  501 -0.00000000000E+00  0.00000000000E+00  0.82602392551E+03  0.82602392553E+03  0.50400000000E-02 0.  1.
          1   -1    0    0  501    0  0.00000000000E+00 -0.00000000000E+00 -0.23977638986E+04  0.23977638986E+04  0.50400000000E-02 0. -1.
    8880023    1    1    2    0    0 -0.48386220215E+03 -0.10099094930E+03  0.58224264976E+03  0.10085328512E+04  0.65864270000E+03 0.  1.
    8880022    1    1    2    0    0  0.48386220215E+03  0.10099094930E+03 -0.21539826229E+04  0.22152549730E+04  0.15294330000E+03 0.  0.
<mgrwt>
<rscale>  0 0.73316482E+03</rscale>
<asrwt>0</asrwt>
<pdfrwt beam="1">  1        1 0.36888675E+00 0.82348771E+03</pdfrwt>
<pdfrwt beam="2">  1       -1 0.12708060E+00 0.82348771E+03</pdfrwt>
<totfact> 0.89871375E-01</totfact>
</mgrwt>
</event>
<event>
 4    1  0.1043382E-007  0.9910259E+03  0.7818608E-02  0.9393394E-01
         -1   -1    0    0    0  501 -0.00000000000E+00  0.00000000000E+00  0.81763304820E+03  0.81763304821E+03  0.50400000000E-02 0.  1.
          1   -1    0    0  501    0  0.00000000000E+00 -0.00000000000E+00 -0.11132654204E+04  0.11132654204E+04  0.50400000000E-02 0. -1.
    8880023    1    1    2    0    0  0.30991190611E+03  0.67251521947E+03  0.22070113057E+03  0.10153035533E+04  0.65864270000E+03 0.  0.
    8880022    1    1    2    0    0 -0.30991190611E+03 -0.67251521947E+03 -0.51633350281E+03  0.91559491539E+03  0.15294330000E+03 0.  0.
<mgrwt>
<rscale>  0 0.92621345E+03</rscale>
<asrwt>0</asrwt>
<pdfrwt beam="1">  1        1 0.17127160E+00 0.99102589E+03</pdfrwt>
<pdfrwt beam="2">  1       -1 0.12578970E+00 0.99102589E+03</pdfrwt>
<totfact> 0.68526009E+00</totfact>
</mgrwt>
</event>
<event>
 4    1  0.1043382E-007  0.6765110E+03  0.7818608E-02  0.1011370E+00
         -1   -1    0    0    0  501 -0.00000000000E+00  0.00000000000E+00  0.24089876836E+03  0.24089876841E+03  0.50400000000E-02 0.  1.
          1   -1    0    0  501    0  0.00000000000E+00 -0.00000000000E+00 -0.95280655344E+03  0.95280655345E+03  0.50400000000E-02 0. -1.
    8880023    1    1    2    0    0  0.87088592640E+02 -0.12756361361E+03 -0.32639088239E+03  0.75113122213E+03  0.65864270000E+03 0.  1.
    8880022    1    1    2    0    0 -0.87088592640E+02  0.12756361361E+03 -0.38551690269E+03  0.44257409974E+03  0.15294330000E+03 0.  0.
<mgrwt>
<rscale>  0 0.50933638E+03</rscale>
<asrwt>0</asrwt>
<pdfrwt beam="1">  1        1 0.14658562E+00 0.67651098E+03</pdfrwt>
<pdfrwt beam="2">  1       -1 0.37061349E-01 0.67651098E+03</pdfrwt>
<totfact> 0.11814109E+02</totfact>
</mgrwt>
</event>
<event>
 4    1  0.1043382E-007  0.8099148E+03  0.7818608E-02  0.9689754E-01
         -1   -1    0    0    0  501 -0.00000000000E+00  0.00000000000E+00  0.61866645883E+03  0.61866645885E+03  0.50400000000E-02 0.  1.
          1   -1    0    0  501    0  0.00000000000E+00 -0.00000000000E+00 -0.76591095164E+03  0.76591095165E+03  0.50400000000E-02 0. -1.
    8880023    1    1    2    0    0 -0.25267095184E+03 -0.39788088474E+03  0.12450742896E+03  0.81942913938E+03  0.65864270000E+03 0.  0.
    8880022    1    1    2    0    0  0.25267095184E+03  0.39788088474E+03 -0.27175192177E+03  0.56514827112E+03  0.15294330000E+03 0.  1.
<mgrwt>
<rscale>  0 0.71630100E+03</rscale>
<asrwt>0</asrwt>
<pdfrwt beam="1">  1        1 0.11783245E+00 0.80991482E+03</pdfrwt>
<pdfrwt beam="2">  1       -1 0.95179455E-01 0.80991482E+03</pdfrwt>
<totfact> 0.25764573E+01</totfact>
</mgrwt>
</event>
<event>
 4    1  0.1043382E-007  0.7209504E+03  0.7818608E-02  0.9919383E-01
         -1   -1    0    0    0  501 -0.00000000000E+00  0.00000000000E+00  0.16909472568E+04  0.16909472568E+04  0.50400000000E-02 0.  1.
          1   -1    0    0  501    0  0.00000000000E+00 -0.00000000000E+00 -0.24954078682E+03  0.24954078687E+03  0.50400000000E-02 0. -1.
    8880023    1    1    2    0    0 -0.29224015947E+03 -0.23556287503E+02  0.14393345106E+04  0.16097991332E+04  0.65864270000E+03 0.  1.
    8880022    1    1    2    0    0  0.29224015947E+03  0.23556287503E+02  0.20719593545E+01  0.33068891049E+03  0.15294330000E+03 0.  0.
<mgrwt>
<rscale>  0 0.59331018E+03</rscale>
<asrwt>0</asrwt>
<pdfrwt beam="1">  1        1 0.38390891E-01 0.72095036E+03</pdfrwt>
<pdfrwt beam="2">  1       -1 0.26014573E+00 0.72095036E+03</pdfrwt>
<totfact> 0.69550513E+00</totfact>
</mgrwt>
</event>
<event>
 4    1  0.1043382E-007  0.7789005E+03  0.7818608E-02  0.9758426E-01
          1   -1    0    0  501    0  0.00000000000E+00  0.00000000000E+00  0.15667661750E+04  0.15667661750E+04  0.50400000000E-02 0. -1.
         -1   -1    0    0    0  501 -0.00000000000E+00 -0.00000000000E+00 -0.25691210119E+03  0.25691210124E+03  0.50400000000E-02 0.  1.
    8880023    1    1    2    0    0 -0.35899246256E+03 -0.20976218251E+03  0.10588992239E+04  0.13145164640E+04  0.65864270000E+03 0.  0.
    8880022    1    1    2    0    0  0.35899246256E+03  0.20976218251E+03  0.25095484989E+03  0.50916181228E+03  0.15294330000E+03 0.  0.
<mgrwt>
<rscale>  0 0.67642166E+03</rscale>
<asrwt>0</asrwt>
<pdfrwt beam="1">  1        1 0.24104095E+00 0.77890049E+03</pdfrwt>
<pdfrwt beam="2">  1       -1 0.39524938E-01 0.77890049E+03</pdfrwt>
<totfact> 0.37623725E+01</totfact>
</mgrwt>
</event>
<event>
 4    1  0.1043382E-007  0.6822027E+03  0.7818608E-02  0.1008104E+00
          1   -1    0    0  501    0  0.00000000000E+00  0.00000000000E+00  0.76002400330E+03  0.76002400332E+03  0.50400000000E-02 0. -1.
         -1   -1    0    0    0  501 -0.00000000000E+00 -0.00000000000E+00 -0.85977332527E+03  0.85977332528E+03  0.50400000000E-02 0.  1.
    8880023    1    1    2    0    0  0.16967545547E+03  0.52920851969E+02 -0.69874141202E+03  0.97654500352E+03  0.65864270000E+03 0.  1.
    8880022    1    1    2    0    0 -0.16967545547E+03 -0.52920851969E+02  0.59899209005E+03  0.64325232508E+03  0.15294330000E+03 0.  0.
<mgrwt>
<rscale>  0 0.52235131E+03</rscale>
<asrwt>0</asrwt>
<pdfrwt beam="1">  1        1 0.11692677E+00 0.68220274E+03</pdfrwt>
<pdfrwt beam="2">  1       -1 0.13227282E+00 0.68220274E+03</pdfrwt>
<totfact> 0.12099247E+01</totfact>
</mgrwt>
</event>
<event>
 4    1  0.1043382E-007  0.8947889E+03  0.7818608E-02  0.9534449E-01
          1   -1    0    0  501    0  0.00000000000E+00  0.00000000000E+00  0.21066619255E+04  0.21066619255E+04  0.50400000000E-02 0. -1.
         -1   -1    0    0    0  501 -0.00000000000E+00 -0.00000000000E+00 -0.39714757405E+03  0.39714757409E+03  0.50400000000E-02 0.  1.
    8880023    1    1    2    0    0 -0.26685644434E+03  0.54371368697E+03  0.27006550830E+03  0.93465636483E+03  0.65864270000E+03 0.  0.
    8880022    1    1    2    0    0  0.26685644434E+03 -0.54371368697E+03  0.14394488431E+04  0.15691531347E+04  0.15294330000E+03 0.  0.
<mgrwt>
<rscale>  0 0.81790963E+03</rscale>
<asrwt>0</asrwt>
<pdfrwt beam="1">  1        1 0.32410182E+00 0.89478888E+03</pdfrwt>
<pdfrwt beam="2">  1       -1 0.61099629E-01 0.89478888E+03</pdfrwt>
<totfact> 0.70349598E+00</totfact>
</mgrwt>
</event>
<event>
 4    1  0.1043382E-007  0.8271582E+03  0.7818608E-02  0.9654887E-01
         -1   -1    0    0    0  501 -0.00000000000E+00  0.00000000000E+00  0.40211215438E+03  0.40211215441E+03  0.50400000000E-02 0.  1.
          1   -1    0    0  501    0  0.00000000000E+00 -0.00000000000E+00 -0.16600995488E+04  0.16600995489E+04  0.50400000000E-02 0. -1.
    8880023    1    1    2    0    0  0.49757252440E+03 -0.52934742245E+02 -0.15520039053E+03  0.84159246162E+03  0.65864270000E+03 0.  1.
    8880022    1    1    2    0    0 -0.49757252440E+03  0.52934742245E+02 -0.11027870039E+04  0.12206192416E+04  0.15294330000E+03 0.  0.
<mgrwt>
<rscale>  0 0.73767506E+03</rscale>
<asrwt>0</asrwt>
<pdfrwt beam="1">  1        1 0.25539993E+00 0.82715821E+03</pdfrwt>
<pdfrwt beam="2">  1       -1 0.61863409E-01 0.82715821E+03</pdfrwt>
<totfact> 0.13825841E+01</totfact>
</mgrwt>
</event>
<event>
 4    1  0.1043382E-007  0.6926397E+03  0.7818608E-02  0.1002922E+00
          1   -1    0    0  501    0  0.00000000000E+00  0.00000000000E+00  0.71633794106E+03  0.71633794107E+03  0.50400000000E-02 0. -1.
         -1   -1    0    0    0  501 -0.00000000000E+00 -0.00000000000E+00 -0.39902691984E+03  0.39902691987E+03  0.50400000000E-02 0.  1.
    8880023    1    1    2    0    0  0.21151782068E+03 -0.34637297676E+02 -0.13231805518E+02  0.69276606282E+03  0.65864270000E+03 0.  1.
    8880022    1    1    2    0    0 -0.21151782068E+03  0.34637297676E+02  0.33054282674E+03  0.42259879813E+03  0.15294330000E+03 0.  0.
<mgrwt>
<rscale>  0 0.54387188E+03</rscale>
<asrwt>0</asrwt>
<pdfrwt beam="1">  1        1 0.11020584E+00 0.69263969E+03</pdfrwt>
<pdfrwt beam="2">  1       -1 0.61388757E-01 0.69263969E+03</pdfrwt>
<totfact> 0.72570590E+01</totfact>
</mgrwt>
</event>
<event>
 4    1  0.1043382E-007  0.9200734E+03  0.7818608E-02  0.9494547E-01
          1   -1    0    0  501    0  0.00000000000E+00  0.00000000000E+00  0.10703530380E+04  0.10703530380E+04  0.50400000000E-02 0. -1.
         -1   -1    0    0    0  501 -0.00000000000E+00 -0.00000000000E+00 -0.60472732291E+03  0.60472732293E+03  0.50400000000E-02 0.  1.
    8880023    1    1    2    0    0  0.31534565557E+03 -0.55971592103E+03  0.42486524198E+03  0.10134325211E+04  0.65864270000E+03 0. -1.
    8880022    1    1    2    0    0 -0.31534565557E+03  0.55971592103E+03  0.40760473098E+02  0.66164783981E+03  0.15294330000E+03 0.  0.
<mgrwt>
<rscale>  0 0.84687079E+03</rscale>
<asrwt>0</asrwt>
<pdfrwt beam="1">  1        1 0.16466970E+00 0.92007337E+03</pdfrwt>
<pdfrwt beam="2">  1       -1 0.93034973E-01 0.92007337E+03</pdfrwt>
<totfact> 0.15147707E+01</totfact>
</mgrwt>
</event>
<event>
 4    1  0.1043382E-007  0.9149059E+03  0.7818608E-02  0.9502514E-01
          1   -1    0    0  501    0  0.00000000000E+00  0.00000000000E+00  0.11955424531E+04  0.11955424531E+04  0.50400000000E-02 0. -1.
         -1   -1    0    0    0  501 -0.00000000000E+00 -0.00000000000E+00 -0.59401075631E+03  0.59401075634E+03  0.50400000000E-02 0.  1.
    8880023    1    1    2    0    0 -0.62779743427E+03  0.95461874524E+02  0.20166946237E+02  0.91512813308E+03  0.65864270000E+03 0. -1.
    8880022    1    1    2    0    0  0.62779743427E+03 -0.95461874524E+02  0.58136475051E+03  0.87442507633E+03  0.15294330000E+03 0.  0.
<mgrwt>
<rscale>  0 0.84098700E+03</rscale>
<asrwt>0</asrwt>
<pdfrwt beam="1">  1        1 0.18392961E+00 0.91490589E+03</pdfrwt>
<pdfrwt beam="2">  1       -1 0.91386269E-01 0.91490589E+03</pdfrwt>
<totfact> 0.12730777E+01</totfact>
</mgrwt>
</event>
<event>
 4    1  0.1043382E-007  0.8462126E+03  0.7818608E-02  0.9618575E-01
          1   -1    0    0  501    0  0.00000000000E+00  0.00000000000E+00  0.14390132893E+04  0.14390132893E+04  0.50400000000E-02 0. -1.
         -1   -1    0    0    0  501 -0.00000000000E+00 -0.00000000000E+00 -0.88467668018E+03  0.88467668020E+03  0.50400000000E-02 0.  1.
    8880023    1    1    2    0    0 -0.44134655379E+03  0.29576799336E+03 -0.60435011488E+03  0.10398628535E+04  0.65864270000E+03 0.  0.
    8880022    1    1    2    0    0  0.44134655379E+03 -0.29576799336E+03  0.11586867240E+04  0.12838271161E+04  0.15294330000E+03 0.  0.
<mgrwt>
<rscale>  0 0.76078846E+03</rscale>
<asrwt>0</asrwt>
<pdfrwt beam="1">  1        1 0.22138666E+00 0.84621256E+03</pdfrwt>
<pdfrwt beam="2">  1       -1 0.13610411E+00 0.84621256E+03</pdfrwt>
<totfact> 0.33414776E+00</totfact>
</mgrwt>
</event>
<event>
 4    1  0.1043382E-007  0.7393974E+03  0.7818608E-02  0.9861706E-01
          1   -1    0    0  501    0  0.00000000000E+00  0.00000000000E+00  0.28029185297E+04  0.28029185297E+04  0.50400000000E-02 0. -1.
         -1   -1    0    0    0  501 -0.00000000000E+00 -0.00000000000E+00 -0.11817784160E+03  0.11817784171E+03  0.50400000000E-02 0.  1.
    8880023    1    1    2    0    0  0.21767543434E+03  0.25596048284E+03  0.21305053344E+04  0.22551633089E+04  0.65864270000E+03 0.  1.
    8880022    1    1    2    0    0 -0.21767543434E+03 -0.25596048284E+03  0.55423535371E+03  0.66593306256E+03  0.15294330000E+03 0.  0.
<mgrwt>
<rscale>  0 0.62153625E+03</rscale>
<asrwt>0</asrwt>
<pdfrwt beam="1">  1        1 0.43121824E+00 0.73939744E+03</pdfrwt>
<pdfrwt beam="2">  1       -1 0.18181206E-01 0.73939744E+03</pdfrwt>
<totfact> 0.20977353E+01</totfact>
</mgrwt>
</event>
<event>
 4    1  0.1043382E-007  0.1002212E+04  0.7818608E-02  0.9378669E-01
          1   -1    0    0  501    0  0.00000000000E+00  0.00000000000E+00  0.11874344375E+04  0.11874344375E+04  0.50400000000E-02 0. -1.
         -1   -1    0    0    0  501 -0.00000000000E+00 -0.00000000000E+00 -0.11989169776E+04  0.11989169776E+04  0.50400000000E-02 0.  1.
    8880023    1    1    2    0    0  0.75533600434E+01  0.75535536446E+03 -0.80102937101E+03  0.12829953388E+04  0.65864270000E+03 0.  0.
    8880022    1    1    2    0    0 -0.75533600434E+01 -0.75535536446E+03  0.78954683096E+03  0.11033560763E+04  0.15294330000E+03 0.  0.
<mgrwt>
<rscale>  0 0.93852095E+03</rscale>
<asrwt>0</asrwt>
<pdfrwt beam="1">  1        1 0.18268222E+00 0.10022120E+04</pdfrwt>
<pdfrwt beam="2">  1       -1 0.18444877E+00 0.10022120E+04</pdfrwt>
<totfact> 0.21194465E+00</totfact>
</mgrwt>
</event>
<event>
 4    1  0.1056243E-007  0.7151301E+03  0.7818608E-02  0.9939422E-01
         -1   -1    0    0    0  501 -0.00000000000E+00  0.00000000000E+00  0.40281352738E+03  0.40281352741E+03  0.50400000000E-02 0.  1.
          1   -1    0    0  501    0  0.00000000000E+00 -0.00000000000E+00 -0.25992273716E+04  0.25992273716E+04  0.50400000000E-02 0. -1.
    8880023    1    1    2    0    0  0.26879432884E+03  0.73146437307E+02  0.65304107292E+02  0.71810558082E+03  0.65864270000E+03 0.  1.
    8880022    1    1    2    0    0 -0.26879432884E+03 -0.73146437307E+02 -0.22617179515E+04  0.22839353182E+04  0.15294330000E+03 0.  0.
<mgrwt>
<rscale>  0 0.58388173E+03</rscale>
<asrwt>0</asrwt>
<pdfrwt beam="1">  1        1 0.39988112E+00 0.71513006E+03</pdfrwt>
<pdfrwt beam="2">  1       -1 0.61971313E-01 0.71513006E+03</pdfrwt>
<totfact> 0.32666387E+00</totfact>
</mgrwt>
</event>
<event>
 4    1  0.1043382E-007  0.1131812E+04  0.7818608E-02  0.9226437E-01
         -1   -1    0    0    0  501 -0.00000000000E+00  0.00000000000E+00  0.14069012305E+04  0.14069012305E+04  0.50400000000E-02 0.  1.
          1   -1    0    0  501    0  0.00000000000E+00 -0.00000000000E+00 -0.88380477367E+03  0.88380477369E+03  0.50400000000E-02 0. -1.
    8880023    1    1    2    0    0  0.92033020579E+03 -0.13450292434E+02  0.71416604112E+03  0.13382944140E+04  0.65864270000E+03 0.  1.
    8880022    1    1    2    0    0 -0.92033020579E+03  0.13450292434E+02 -0.19106958428E+03  0.95241159018E+03  0.15294330000E+03 0.  0.
<mgrwt>
<rscale>  0 0.10784670E+04</rscale>
<asrwt>0</asrwt>
<pdfrwt beam="1">  1        1 0.13596997E+00 0.11318122E+04</pdfrwt>
<pdfrwt beam="2">  1       -1 0.21644634E+00 0.11318122E+04</pdfrwt>
<totfact> 0.21587193E+00</totfact>
</mgrwt>
</event>
<event>
 4    1  0.1043382E-007  0.7703615E+03  0.7818608E-02  0.9778985E-01
         -1   -1    0    0    0  501 -0.00000000000E+00  0.00000000000E+00  0.25113672050E+03  0.25113672055E+03  0.50400000000E-02 0.  1.
          1   -1    0    0  501    0  0.00000000000E+00 -0.00000000000E+00 -0.15215253028E+04  0.15215253028E+04  0.50400000000E-02 0. -1.
    8880023    1    1    2    0    0  0.10075776146E+02  0.39943105441E+03 -0.10155821167E+04  0.12747015064E+04  0.65864270000E+03 0.  0.
    8880022    1    1    2    0    0 -0.10075776146E+02 -0.39943105441E+03 -0.25480646563E+03  0.49796051694E+03  0.15294330000E+03 0.  0.
<mgrwt>
<rscale>  0 0.66502612E+03</rscale>
<asrwt>0</asrwt>
<pdfrwt beam="1">  1        1 0.23408081E+00 0.77036154E+03</pdfrwt>
<pdfrwt beam="2">  1       -1 0.38636420E-01 0.77036154E+03</pdfrwt>
<totfact> 0.42133807E+01</totfact>
</mgrwt>
</event>
<event>
 4    1  0.1043382E-007  0.7145191E+03  0.7818608E-02  0.9941588E-01
         -1   -1    0    0    0  501 -0.00000000000E+00  0.00000000000E+00  0.78688088916E+03  0.78688088918E+03  0.50400000000E-02 0.  1.
          1   -1    0    0  501    0  0.00000000000E+00 -0.00000000000E+00 -0.39964443247E+03  0.39964443250E+03  0.50400000000E-02 0. -1.
    8880023    1    1    2    0    0 -0.16343609585E+03  0.22364237082E+03  0.47520040206E+03  0.85811007210E+03  0.65864270000E+03 0.  1.
    8880022    1    1    2    0    0  0.16343609585E+03 -0.22364237082E+03 -0.87963945375E+02  0.32841524958E+03  0.15294330000E+03 0.  0.
<mgrwt>
<rscale>  0 0.58287426E+03</rscale>
<asrwt>0</asrwt>
<pdfrwt beam="1">  1        1 0.61483760E-01 0.71451905E+03</pdfrwt>
<pdfrwt beam="2">  1       -1 0.12105860E+00 0.71451905E+03</pdfrwt>
<totfact> 0.37322176E+01</totfact>
</mgrwt>
</event>
<event>
 4    1  0.1043382E-007  0.7784936E+03  0.7818608E-02  0.9759388E-01
         -1   -1    0    0    0  501 -0.00000000000E+00  0.00000000000E+00  0.45264135928E+03  0.45264135931E+03  0.50400000000E-02 0.  1.
          1   -1    0    0  501    0  0.00000000000E+00 -0.00000000000E+00 -0.17671212515E+04  0.17671212516E+04  0.50400000000E-02 0. -1.
    8880023    1    1    2    0    0 -0.15416031946E+03  0.38532663815E+03  0.55189643119E+02  0.78044738780E+03  0.65864270000E+03 0.  1.
    8880022    1    1    2    0    0  0.15416031946E+03 -0.38532663815E+03 -0.13696695354E+04  0.14393152231E+04  0.15294330000E+03 0.  0.
<mgrwt>
<rscale>  0 0.67588331E+03</rscale>
<asrwt>0</asrwt>
<pdfrwt beam="1">  1        1 0.27186480E+00 0.77849356E+03</pdfrwt>
<pdfrwt beam="2">  1       -1 0.69637133E-01 0.77849356E+03</pdfrwt>
<totfact> 0.92868901E+00</totfact>
</mgrwt>
</event>
<event>
 4    1  0.1043382E-007  0.7497347E+03  0.7818608E-02  0.9832447E-01
         -1   -1    0    0    0  501 -0.00000000000E+00  0.00000000000E+00  0.10379855383E+04  0.10379855383E+04  0.50400000000E-02 0.  1.
          1   -1    0    0  501    0  0.00000000000E+00 -0.00000000000E+00 -0.60548138677E+03  0.60548138679E+03  0.50400000000E-02 0. -1.
    8880023    1    1    2    0    0  0.64798696406E+02 -0.35226847372E+03  0.80814863788E+03  0.11023639942E+04  0.65864270000E+03 0.  1.
    8880022    1    1    2    0    0 -0.64798696406E+02  0.35226847372E+03 -0.37564448635E+03  0.54110293085E+03  0.15294330000E+03 0.  0.
<mgrwt>
<rscale>  0 0.63649947E+03</rscale>
<asrwt>0</asrwt>
<pdfrwt beam="1">  1        1 0.93150983E-01 0.74973472E+03</pdfrwt>
<pdfrwt beam="2">  1       -1 0.15969008E+00 0.74973472E+03</pdfrwt>
<totfact> 0.10233707E+01</totfact>
</mgrwt>
</event>
<event>
 4    1  0.1043382E-007  0.7046536E+03  0.7818608E-02  0.9978418E-01
         -1   -1    0    0    0  501 -0.00000000000E+00  0.00000000000E+00  0.10687301121E+03  0.10687301133E+03  0.50400000000E-02 0.  1.
          1   -1    0    0  501    0  0.00000000000E+00 -0.00000000000E+00 -0.25689060121E+04  0.25689060121E+04  0.50400000000E-02 0. -1.
    8880023    1    1    2    0    0  0.23205661880E+03 -0.94213734880E+02 -0.13161142732E+04  0.14928809358E+04  0.65864270000E+03 0.  1.
    8880022    1    1    2    0    0 -0.23205661880E+03  0.94213734880E+02 -0.11459187277E+04  0.11828980876E+04  0.15294330000E+03 0.  0.
<mgrwt>
<rscale>  0 0.56606799E+03</rscale>
<asrwt>0</asrwt>
<pdfrwt beam="1">  1        1 0.39521626E+00 0.70465361E+03</pdfrwt>
<pdfrwt beam="2">  1       -1 0.16442004E-01 0.70465361E+03</pdfrwt>
<totfact> 0.36128678E+01</totfact>
</mgrwt>
</event>
<event>
 4    1  0.1051268E-007  0.6739636E+03  0.7818608E-02  0.1012968E+00
         -1   -1    0    0    0  501 -0.00000000000E+00  0.00000000000E+00  0.11772716245E+04  0.11772716245E+04  0.50400000000E-02 0.  1.
          1   -1    0    0  501    0  0.00000000000E+00 -0.00000000000E+00 -0.13625899395E+04  0.13625899396E+04  0.50400000000E-02 0. -1.
    8880023    1    1    2    0    0 -0.13823395754E+03 -0.36167329235E+02  0.10714447884E+04  0.12657886251E+04  0.65864270000E+03 0.  1.
    8880022    1    1    2    0    0  0.13823395754E+03  0.36167329235E+02 -0.12567631034E+04  0.12740729390E+04  0.15294330000E+03 0.  0.
<mgrwt>
<rscale>  0 0.50312042E+03</rscale>
<asrwt>0</asrwt>
<pdfrwt beam="1">  1        1 0.20962922E+00 0.67396358E+03</pdfrwt>
<pdfrwt beam="2">  1       -1 0.18111871E+00 0.67396358E+03</pdfrwt>
<totfact> 0.17733348E+00</totfact>
</mgrwt>
</event>
<event>
 4    1  0.1043382E-007  0.7613516E+03  0.7818608E-02  0.9801621E-01
          1   -1    0    0  501    0  0.00000000000E+00  0.00000000000E+00  0.19808881375E+04  0.19808881375E+04  0.50400000000E-02 0. -1.
         -1   -1    0    0    0  501 -0.00000000000E+00 -0.00000000000E+00 -0.42744409521E+03  0.42744409524E+03  0.50400000000E-02 0.  1.
    8880023    1    1    2    0    0  0.35699033162E+03  0.13566111697E+03 -0.40233891108E+02  0.76241393468E+03  0.65864270000E+03 0.  0.
    8880022    1    1    2    0    0 -0.35699033162E+03 -0.13566111697E+03  0.15936779334E+04  0.16459182981E+04  0.15294330000E+03 0.  0.
<mgrwt>
<rscale>  0 0.65275631E+03</rscale>
<asrwt>0</asrwt>
<pdfrwt beam="1">  1        1 0.30475202E+00 0.76135159E+03</pdfrwt>
<pdfrwt beam="2">  1       -1 0.65760631E-01 0.76135159E+03</pdfrwt>
<totfact> 0.75230360E+00</totfact>
</mgrwt>
</event>
<event>
 4    1  0.1043382E-007  0.7530263E+03  0.7818608E-02  0.9823508E-01
         -1   -1    0    0    0  501 -0.00000000000E+00  0.00000000000E+00  0.59402589474E+03  0.59402589476E+03  0.50400000000E-02 0.  1.
          1   -1    0    0  501    0  0.00000000000E+00 -0.00000000000E+00 -0.72281761213E+03  0.72281761214E+03  0.50400000000E-02 0. -1.
    8880023    1    1    2    0    0  0.33483081675E+03 -0.14535016570E+03  0.22507804494E+03  0.78594445039E+03  0.65864270000E+03 0.  1.
    8880022    1    1    2    0    0 -0.33483081675E+03  0.14535016570E+03 -0.35386976232E+03  0.53089905652E+03  0.15294330000E+03 0.  0.
<mgrwt>
<rscale>  0 0.64116080E+03</rscale>
<asrwt>0</asrwt>
<pdfrwt beam="1">  1        1 0.11120271E+00 0.75302626E+03</pdfrwt>
<pdfrwt beam="2">  1       -1 0.91388599E-01 0.75302626E+03</pdfrwt>
<totfact> 0.31029411E+01</totfact>
</mgrwt>
</event>
<event>
 4    1  0.1043382E-007  0.7062525E+03  0.7818608E-02  0.9972189E-01
          1   -1    0    0  501    0  0.00000000000E+00  0.00000000000E+00  0.20722732481E+04  0.20722732481E+04  0.50400000000E-02 0. -1.
         -1   -1    0    0    0  501 -0.00000000000E+00 -0.00000000000E+00 -0.19406286929E+03  0.19406286936E+03  0.50400000000E-02 0.  1.
    8880023    1    1    2    0    0  0.17698146706E+03 -0.18346634039E+03  0.52277662333E+03  0.87868534864E+03  0.65864270000E+03 0.  0.
    8880022    1    1    2    0    0 -0.17698146706E+03  0.18346634039E+03  0.13554337555E+04  0.13876507689E+04  0.15294330000E+03 0. -1.
<mgrwt>
<rscale>  0 0.56886674E+03</rscale>
<asrwt>0</asrwt>
<pdfrwt beam="1">  1        1 0.31881128E+00 0.70625246E+03</pdfrwt>
<pdfrwt beam="2">  1       -1 0.29855825E-01 0.70625246E+03</pdfrwt>
<totfact> 0.28621373E+01</totfact>
</mgrwt>
</event>
<event>
 4    1  0.1043382E-007  0.9782890E+03  0.7818608E-02  0.9410530E-01
          1   -1    0    0  501    0  0.00000000000E+00  0.00000000000E+00  0.15399814584E+04  0.15399814584E+04  0.50400000000E-02 0. -1.
         -1   -1    0    0    0  501 -0.00000000000E+00 -0.00000000000E+00 -0.55054492618E+03  0.55054492620E+03  0.50400000000E-02 0.  1.
    8880023    1    1    2    0    0 -0.69418829116E+03 -0.20332695095E+03  0.18082454060E+03  0.99486026824E+03  0.65864270000E+03 0.  1.
    8880022    1    1    2    0    0  0.69418829116E+03  0.20332695095E+03  0.80861199164E+03  0.10956661164E+04  0.15294330000E+03 0.  0.
<mgrwt>
<rscale>  0 0.91214138E+03</rscale>
<asrwt>0</asrwt>
<pdfrwt beam="1">  1        1 0.23692022E+00 0.97828904E+03</pdfrwt>
<pdfrwt beam="2">  1       -1 0.84699221E-01 0.97828904E+03</pdfrwt>
<totfact> 0.85413281E+00</totfact>
</mgrwt>
</event>
<event>
 4    1  0.1043382E-007  0.8580192E+03  0.7818608E-02  0.9597097E-01
         -1   -1    0    0    0  501 -0.00000000000E+00  0.00000000000E+00  0.69908337183E+03  0.69908337185E+03  0.50400000000E-02 0.  1.
          1   -1    0    0  501    0  0.00000000000E+00 -0.00000000000E+00 -0.21917641704E+04  0.21917641704E+04  0.50400000000E-02 0. -1.
    8880023    1    1    2    0    0  0.46352569565E+03  0.29585591645E+03  0.37611302269E+03  0.93683403329E+03  0.65864270000E+03 0.  1.
    8880022    1    1    2    0    0 -0.46352569565E+03 -0.29585591645E+03 -0.18687938212E+04  0.19540135089E+04  0.15294330000E+03 0.  0.
<mgrwt>
<rscale>  0 0.77488644E+03</rscale>
<asrwt>0</asrwt>
<pdfrwt beam="1">  1        1 0.33719448E+00 0.85801923E+03</pdfrwt>
<pdfrwt beam="2">  1       -1 0.10755129E+00 0.85801923E+03</pdfrwt>
<totfact> 0.18420035E+00</totfact>
</mgrwt>
</event>
<event>
 4    1  0.1043382E-007  0.7908227E+03  0.7818608E-02  0.9731002E-01
         -1   -1    0    0    0  501 -0.00000000000E+00  0.00000000000E+00  0.10586957188E+04  0.10586957188E+04  0.50400000000E-02 0.  1.
          1   -1    0    0  501    0  0.00000000000E+00 -0.00000000000E+00 -0.43354513448E+03  0.43354513451E+03  0.50400000000E-02 0. -1.
    8880023    1    1    2    0    0 -0.43623516157E+03 -0.35906065993E+02  0.65609044633E+03  0.10275481701E+04  0.65864270000E+03 0.  0.
    8880022    1    1    2    0    0  0.43623516157E+03  0.35906065993E+02 -0.30939862054E+02  0.46469268322E+03  0.15294330000E+03 0.  1.
<mgrwt>
<rscale>  0 0.69200561E+03</rscale>
<asrwt>0</asrwt>
<pdfrwt beam="1">  1        1 0.66699252E-01 0.79082272E+03</pdfrwt>
<pdfrwt beam="2">  1       -1 0.16287626E+00 0.79082272E+03</pdfrwt>
<totfact> 0.15315646E+01</totfact>
</mgrwt>
</event>
<event>
 4    1  0.1254693E-007  0.7534145E+03  0.7818608E-02  0.9822465E-01
          1   -1    0    0  501    0  0.00000000000E+00  0.00000000000E+00  0.10588307972E+04  0.10588307973E+04  0.50400000000E-02 0. -1.
         -1   -1    0    0    0  501 -0.00000000000E+00 -0.00000000000E+00 -0.17793706799E+04  0.17793706799E+04  0.50400000000E-02 0.  1.
    8880023    1    1    2    0    0 -0.30114151960E+03 -0.20769449008E+03 -0.16575550252E+04  0.18207476716E+04  0.65864270000E+03 0.  1.
    8880022    1    1    2    0    0  0.30114151960E+03  0.20769449008E+03  0.93701514252E+03  0.10174538055E+04  0.15294330000E+03 0.  0.
<mgrwt>
<rscale>  0 0.64170761E+03</rscale>
<asrwt>0</asrwt>
<pdfrwt beam="1">  1        1 0.16289705E+00 0.75341451E+03</pdfrwt>
<pdfrwt beam="2">  1       -1 0.27374934E+00 0.75341451E+03</pdfrwt>
<totfact> 0.70339115E-01</totfact>
</mgrwt>
</event>
<event>
 4    1  0.1043382E-007  0.6672811E+03  0.7818608E-02  0.1017692E+00
          1   -1    0    0  501    0  0.00000000000E+00  0.00000000000E+00  0.19372116399E+04  0.19372116399E+04  0.50400000000E-02 0. -1.
         -1   -1    0    0    0  501 -0.00000000000E+00 -0.00000000000E+00 -0.30678507467E+03  0.30678507471E+03  0.50400000000E-02 0.  1.
    8880023    1    1    2    0    0 -0.10448785971E+03 -0.23154862590E+02  0.68312327620E+02  0.67076869400E+03  0.65864270000E+03 0.  1.
    8880022    1    1    2    0    0  0.10448785971E+03  0.23154862590E+02  0.15621142376E+04  0.15732280206E+04  0.15294330000E+03 0.  0.
<mgrwt>
<rscale>  0 0.48528847E+03</rscale>
<asrwt>0</asrwt>
<pdfrwt beam="1">  1        1 0.29803256E+00 0.66728110E+03</pdfrwt>
<pdfrwt beam="2">  1       -1 0.47197703E-01 0.66728110E+03</pdfrwt>
<totfact> 0.15537109E+01</totfact>
</mgrwt>
</event>
<event>
 4    1  0.1043382E-007  0.7532767E+03  0.7818608E-02  0.9822835E-01
          1   -1    0    0  501    0  0.00000000000E+00  0.00000000000E+00  0.16077602366E+04  0.16077602366E+04  0.50400000000E-02 0. -1.
         -1   -1    0    0    0  501 -0.00000000000E+00 -0.00000000000E+00 -0.57678031628E+03  0.57678031630E+03  0.50400000000E-02 0.  1.
    8880023    1    1    2    0    0 -0.36542506908E+03  0.89499708785E+01 -0.28866347789E+03  0.80669225410E+03  0.65864270000E+03 0.  1.
    8880022    1    1    2    0    0  0.36542506908E+03 -0.89499708785E+01  0.13196433982E+04  0.13778482988E+04  0.15294330000E+03 0.  0.
<mgrwt>
<rscale>  0 0.64151359E+03</rscale>
<asrwt>0</asrwt>
<pdfrwt beam="1">  1        1 0.24734773E+00 0.75327670E+03</pdfrwt>
<pdfrwt beam="2">  1       -1 0.88735432E-01 0.75327670E+03</pdfrwt>
<totfact> 0.71520193E+00</totfact>
</mgrwt>
</event>
<event>
 4    1  0.1043382E-007  0.8918997E+03  0.7818608E-02  0.9539162E-01
         -1   -1    0    0    0  501 -0.00000000000E+00  0.00000000000E+00  0.14625508909E+04  0.14625508910E+04  0.50400000000E-02 0.  1.
          1   -1    0    0  501    0  0.00000000000E+00 -0.00000000000E+00 -0.61240890545E+03  0.61240890547E+03  0.50400000000E-02 0. -1.
    8880023    1    1    2    0    0 -0.53006144110E+03 -0.28409464147E+03 -0.14359819449E+03  0.90338560116E+03  0.65864270000E+03 0. -1.
    8880022    1    1    2    0    0  0.53006144110E+03  0.28409464147E+03  0.99374018000E+03  0.11715741953E+04  0.15294330000E+03 0.  0.
<mgrwt>
<rscale>  0 0.81457109E+03</rscale>
<asrwt>0</asrwt>
<pdfrwt beam="1">  1        1 0.94216755E-01 0.89189972E+03</pdfrwt>
<pdfrwt beam="2">  1       -1 0.22500783E+00 0.89189972E+03</pdfrwt>
<totfact> 0.34526050E+00</totfact>
</mgrwt>
</event>
<event>
 4    1  0.1043382E-007  0.7574602E+03  0.7818608E-02  0.9811728E-01
         -1   -1    0    0    0  501 -0.00000000000E+00  0.00000000000E+00  0.61447777222E+03  0.61447777224E+03  0.50400000000E-02 0.  1.
          1   -1    0    0  501    0  0.00000000000E+00 -0.00000000000E+00 -0.12295453300E+04  0.12295453300E+04  0.50400000000E-02 0. -1.
    8880023    1    1    2    0    0 -0.13967166686E+02  0.37381901693E+03  0.32235156072E+03  0.82319892743E+03  0.65864270000E+03 0.  1.
    8880022    1    1    2    0    0  0.13967166686E+02 -0.37381901693E+03 -0.93741911848E+03  0.10208241748E+04  0.15294330000E+03 0.  0.
<mgrwt>
<rscale>  0 0.64736951E+03</rscale>
<asrwt>0</asrwt>
<pdfrwt beam="1">  1        1 0.18916082E+00 0.75746019E+03</pdfrwt>
<pdfrwt beam="2">  1       -1 0.94535042E-01 0.75746019E+03</pdfrwt>
<totfact> 0.11374583E+01</totfact>
</mgrwt>
</event>
<event>
 4    1  0.1043382E-007  0.7637355E+03  0.7818608E-02  0.9795531E-01
          1   -1    0    0  501    0  0.00000000000E+00  0.00000000000E+00  0.14500046301E+04  0.14500046301E+04  0.50400000000E-02 0. -1.
         -1   -1    0    0    0  501 -0.00000000000E+00 -0.00000000000E+00 -0.53233779693E+03  0.53233779695E+03  0.50400000000E-02 0.  1.
    8880023    1    1    2    0    0 -0.78014357010E+02  0.37867601821E+03  0.12399473020E+04  0.14562833806E+04  0.65864270000E+03 0. -1.
    8880022    1    1    2    0    0  0.78014357010E+02 -0.37867601821E+03 -0.32228046887E+03  0.52605904640E+03  0.15294330000E+03 0.  0.
<mgrwt>
<rscale>  0 0.65602936E+03</rscale>
<asrwt>0</asrwt>
<pdfrwt beam="1">  1        1 0.22307763E+00 0.76373554E+03</pdfrwt>
<pdfrwt beam="2">  1       -1 0.81898123E-01 0.76373554E+03</pdfrwt>
<totfact> 0.10885350E+01</totfact>
</mgrwt>
</event>
<event>
 4    1  0.1043382E-007  0.1077088E+04  0.7818608E-02  0.9287005E-01
         -1   -1    0    0    0  501 -0.00000000000E+00  0.00000000000E+00  0.98732422171E+03  0.98732422172E+03  0.50400000000E-02 0.  1.
          1   -1    0    0  501    0  0.00000000000E+00 -0.00000000000E+00 -0.14223491732E+04  0.14223491733E+04  0.50400000000E-02 0. -1.
    8880023    1    1    2    0    0 -0.84799839857E+03  0.84892289204E+02  0.45383672560E+03  0.11687968021E+04  0.65864270000E+03 0.  0.
    8880022    1    1    2    0    0  0.84799839857E+03 -0.84892289204E+02 -0.88886167713E+03  0.12408765929E+04  0.15294330000E+03 0.  0.
<mgrwt>
<rscale>  0 0.10198804E+04</rscale>
<asrwt>0</asrwt>
<pdfrwt beam="1">  1        1 0.21882295E+00 0.10770878E+04</pdfrwt>
<pdfrwt beam="2">  1       -1 0.15189603E+00 0.10770878E+04</pdfrwt>
<totfact> 0.24865400E+00</totfact>
</mgrwt>
</event>
<event>
 4    1  0.1043382E-007  0.8009539E+03  0.7818608E-02  0.9708737E-01
          1   -1    0    0  501    0  0.00000000000E+00  0.00000000000E+00  0.37263525995E+03  0.37263525999E+03  0.50400000000E-02 0. -1.
         -1   -1    0    0    0  501 -0.00000000000E+00 -0.00000000000E+00 -0.16360238436E+04  0.16360238437E+04  0.50400000000E-02 0.  1.
    8880023    1    1    2    0    0 -0.11619276458E+03 -0.44069957354E+03 -0.12995637296E+04  0.15265624672E+04  0.65864270000E+03 0.  0.
    8880022    1    1    2    0    0  0.11619276458E+03  0.44069957354E+03  0.36175145938E+02  0.48209663643E+03  0.15294330000E+03 0.  0.
<mgrwt>
<rscale>  0 0.70498945E+03</rscale>
<asrwt>0</asrwt>
<pdfrwt beam="1">  1        1 0.57328502E-01 0.80095386E+03</pdfrwt>
<pdfrwt beam="2">  1       -1 0.25169597E+00 0.80095386E+03</pdfrwt>
<totfact> 0.46283426E+00</totfact>
</mgrwt>
</event>
<event>
 4    1  0.1043382E-007  0.6692604E+03  0.7818608E-02  0.1016199E+00
         -1   -1    0    0    0  501 -0.00000000000E+00  0.00000000000E+00  0.44386196865E+03  0.44386196868E+03  0.50400000000E-02 0.  1.
          1   -1    0    0  501    0  0.00000000000E+00 -0.00000000000E+00 -0.16441331982E+04  0.16441331982E+04  0.50400000000E-02 0. -1.
    8880023    1    1    2    0    0  0.75747298091E+02 -0.91442126330E+02  0.18093184521E+03  0.69328627169E+03  0.65864270000E+03 0.  1.
    8880022    1    1    2    0    0 -0.75747298091E+02  0.91442126330E+02 -0.13812030748E+04  0.13947088952E+04  0.15294330000E+03 0.  0.
<mgrwt>
<rscale>  0 0.49083689E+03</rscale>
<asrwt>0</asrwt>
<pdfrwt beam="1">  1        1 0.25294357E+00 0.66926043E+03</pdfrwt>
<pdfrwt beam="2">  1       -1 0.68286457E-01 0.66926043E+03</pdfrwt>
<totfact> 0.11895112E+01</totfact>
</mgrwt>
</event>
<event>
 4    1  0.1043382E-007  0.7896264E+03  0.7818608E-02  0.9733692E-01
          1   -1    0    0  501    0  0.00000000000E+00  0.00000000000E+00  0.78839023994E+03  0.78839023996E+03  0.50400000000E-02 0. -1.
         -1   -1    0    0    0  501 -0.00000000000E+00 -0.00000000000E+00 -0.73165882120E+03  0.73165882122E+03  0.50400000000E-02 0.  1.
    8880023    1    1    2    0    0  0.30890010161E+03 -0.30705111250E+03 -0.38733753546E+03  0.87951135928E+03  0.65864270000E+03 0.  0.
    8880022    1    1    2    0    0 -0.30890010161E+03  0.30705111250E+03  0.44406895420E+03  0.64053770190E+03  0.15294330000E+03 0.  0.
<mgrwt>
<rscale>  0 0.69045752E+03</rscale>
<asrwt>0</asrwt>
<pdfrwt beam="1">  1        1 0.12129081E+00 0.78962641E+03</pdfrwt>
<pdfrwt beam="2">  1       -1 0.11256290E+00 0.78962641E+03</pdfrwt>
<totfact> 0.16739696E+01</totfact>
</mgrwt>
</event>
<event>
 4    1  0.1043382E-007  0.7071763E+03  0.7818608E-02  0.9968640E-01
          1   -1    0    0  501    0  0.00000000000E+00  0.00000000000E+00  0.97905471463E+03  0.97905471464E+03  0.50400000000E-02 0. -1.
         -1   -1    0    0    0  501 -0.00000000000E+00 -0.00000000000E+00 -0.17408377004E+04  0.17408377004E+04  0.50400000000E-02 0.  1.
    8880023    1    1    2    0    0  0.21675677991E+03 -0.13894125067E+03 -0.16432430583E+04  0.17889511251E+04  0.65864270000E+03 0.  1.
    8880022    1    1    2    0    0 -0.21675677991E+03  0.13894125067E+03  0.88146007260E+03  0.93094128997E+03  0.15294330000E+03 0.  0.
<mgrwt>
<rscale>  0 0.57046977E+03</rscale>
<asrwt>0</asrwt>
<pdfrwt beam="1">  1        1 0.15062380E+00 0.70717634E+03</pdfrwt>
<pdfrwt beam="2">  1       -1 0.26782118E+00 0.70717634E+03</pdfrwt>
<totfact> 0.89264924E-01</totfact>
</mgrwt>
</event>
<event>
 4    1  0.1043382E-007  0.7264459E+03  0.7818608E-02  0.9901349E-01
          1   -1    0    0  501    0  0.00000000000E+00  0.00000000000E+00  0.71874294646E+03  0.71874294648E+03  0.50400000000E-02 0. -1.
         -1   -1    0    0    0  501 -0.00000000000E+00 -0.00000000000E+00 -0.42370774888E+03  0.42370774891E+03  0.50400000000E-02 0.  1.
    8880023    1    1    2    0    0 -0.14152190754E+03 -0.27181804425E+03  0.33055239305E+03  0.79811564971E+03  0.65864270000E+03 0.  0.
    8880022    1    1    2    0    0  0.14152190754E+03  0.27181804425E+03 -0.35517195475E+02  0.34433504568E+03  0.15294330000E+03 0.  0.
<mgrwt>
<rscale>  0 0.60195928E+03</rscale>
<asrwt>0</asrwt>
<pdfrwt beam="1">  1        1 0.11057584E+00 0.72644594E+03</pdfrwt>
<pdfrwt beam="2">  1       -1 0.65185808E-01 0.72644594E+03</pdfrwt>
<totfact> 0.63869803E+01</totfact>
</mgrwt>
</event>
<event>
 4    1  0.1043382E-007  0.7138700E+03  0.7818608E-02  0.9943901E-01
         -1   -1    0    0    0  501 -0.00000000000E+00  0.00000000000E+00  0.12380730877E+04  0.12380730878E+04  0.50400000000E-02 0.  1.
          1   -1    0    0  501    0  0.00000000000E+00 -0.00000000000E+00 -0.26960152341E+03  0.26960152345E+03  0.50400000000E-02 0. -1.
    8880023    1    1    2    0    0  0.19230904968E+03 -0.19702142021E+03  0.95515252908E+03  0.11924457097E+04  0.65864270000E+03 0.  0.
    8880022    1    1    2    0    0 -0.19230904968E+03  0.19702142021E+03  0.13319035265E+02  0.31522890147E+03  0.15294330000E+03 0.  0.
<mgrwt>
<rscale>  0 0.58180020E+03</rscale>
<asrwt>0</asrwt>
<pdfrwt beam="1">  1        1 0.41477158E-01 0.71387003E+03</pdfrwt>
<pdfrwt beam="2">  1       -1 0.19047278E+00 0.71387003E+03</pdfrwt>
<totfact> 0.18216593E+01</totfact>
</mgrwt>
</event>
<event>
 4    1  0.1043382E-007  0.7531910E+03  0.7818608E-02  0.9823065E-01
         -1   -1    0    0    0  501 -0.00000000000E+00  0.00000000000E+00  0.44788539719E+03  0.44788539722E+03  0.50400000000E-02 0.  1.
          1   -1    0    0  501    0  0.00000000000E+00 -0.00000000000E+00 -0.17812536485E+04  0.17812536485E+04  0.50400000000E-02 0. -1.
    8880023    1    1    2    0    0 -0.23588073100E+03  0.27901028040E+03  0.83635881462E+02  0.75782031034E+03  0.65864270000E+03 0.  1.
    8880022    1    1    2    0    0  0.23588073100E+03 -0.27901028040E+03 -0.14170041327E+04  0.14713187354E+04  0.15294330000E+03 0.  0.
<mgrwt>
<rscale>  0 0.64139287E+03</rscale>
<asrwt>0</asrwt>
<pdfrwt beam="1">  1        1 0.27403902E+00 0.75319099E+03</pdfrwt>
<pdfrwt beam="2">  1       -1 0.68905447E-01 0.75319099E+03</pdfrwt>
<totfact> 0.93201047E+00</totfact>
</mgrwt>
</event>
<event>
 4    1  0.1043382E-007  0.7520403E+03  0.7818608E-02  0.9826168E-01
         -1   -1    0    0    0  501 -0.00000000000E+00  0.00000000000E+00  0.52660775743E+03  0.52660775745E+03  0.50400000000E-02 0.  1.
          1   -1    0    0  501    0  0.00000000000E+00 -0.00000000000E+00 -0.73322941371E+03  0.73322941373E+03  0.50400000000E-02 0. -1.
    8880023    1    1    2    0    0  0.34344229675E+03  0.11748117169E+03  0.10268870793E+03  0.75901884950E+03  0.65864270000E+03 0. -1.
    8880022    1    1    2    0    0 -0.34344229675E+03 -0.11748117169E+03 -0.30931036422E+03  0.50081832168E+03  0.15294330000E+03 0.  0.
<mgrwt>
<rscale>  0 0.63976938E+03</rscale>
<asrwt>0</asrwt>
<pdfrwt beam="1">  1        1 0.11280453E+00 0.75204032E+03</pdfrwt>
<pdfrwt beam="2">  1       -1 0.81016578E-01 0.75204032E+03</pdfrwt>
<totfact> 0.39428108E+01</totfact>
</mgrwt>
</event>
<event>
 4    1  0.1043382E-007  0.6749256E+03  0.7818608E-02  0.1012353E+00
          1   -1    0    0  501    0  0.00000000000E+00  0.00000000000E+00  0.63297111181E+03  0.63297111183E+03  0.50400000000E-02 0. -1.
         -1   -1    0    0    0  501 -0.00000000000E+00 -0.00000000000E+00 -0.32257255861E+03  0.32257255865E+03  0.50400000000E-02 0.  1.
    8880023    1    1    2    0    0  0.13664280773E+03 -0.55164019772E+02  0.15531233072E+03  0.69256512497E+03  0.65864270000E+03 0.  1.
    8880022    1    1    2    0    0 -0.13664280773E+03  0.55164019772E+02  0.15508622248E+03  0.26297854551E+03  0.15294330000E+03 0. -1.
<mgrwt>
<rscale>  0 0.50550002E+03</rscale>
<asrwt>0</asrwt>
<pdfrwt beam="1">  1        1 0.97380170E-01 0.67492558E+03</pdfrwt>
<pdfrwt beam="2">  1       -1 0.49626548E-01 0.67492558E+03</pdfrwt>
<totfact> 0.13174546E+02</totfact>
</mgrwt>
</event>
<event>
 4    1  0.1043382E-007  0.8147526E+03  0.7818608E-02  0.9679761E-01
         -1   -1    0    0    0  501 -0.00000000000E+00  0.00000000000E+00  0.33292864055E+03  0.33292864059E+03  0.50400000000E-02 0.  1.
          1   -1    0    0  501    0  0.00000000000E+00 -0.00000000000E+00 -0.34389586435E+04  0.34389586435E+04  0.50400000000E-02 0. -1.
    8880023    1    1    2    0    0  0.19484554928E+03 -0.43823151940E+03 -0.22227867892E+03  0.84452925943E+03  0.65864270000E+03 0.  0.
    8880022    1    1    2    0    0 -0.19484554928E+03  0.43823151940E+03 -0.28837513240E+04  0.29273580246E+04  0.15294330000E+03 0. -1.
<mgrwt>
<rscale>  0 0.72234699E+03</rscale>
<asrwt>0</asrwt>
<pdfrwt beam="1">  1        1 0.52907054E+00 0.81475264E+03</pdfrwt>
<pdfrwt beam="2">  1       -1 0.51219793E-01 0.81475264E+03</pdfrwt>
<totfact> 0.11485197E+00</totfact>
</mgrwt>
</event>
<event>
 4    1  0.1043382E-007  0.9061305E+03  0.7818608E-02  0.9516261E-01
         -1   -1    0    0    0  501 -0.00000000000E+00  0.00000000000E+00  0.52653326186E+03  0.52653326188E+03  0.50400000000E-02 0.  1.
          1   -1    0    0  501    0  0.00000000000E+00 -0.00000000000E+00 -0.15274740601E+04  0.15274740601E+04  0.50400000000E-02 0. -1.
    8880023    1    1    2    0    0 -0.29787592697E+03  0.54638102032E+03 -0.50272587355E+02  0.90752400879E+03  0.65864270000E+03 0.  0.
    8880022    1    1    2    0    0  0.29787592697E+03 -0.54638102032E+03 -0.95066821086E+03  0.11464833132E+04  0.15294330000E+03 0.  0.
<mgrwt>
<rscale>  0 0.83095511E+03</rscale>
<asrwt>0</asrwt>
<pdfrwt beam="1">  1        1 0.23499601E+00 0.90613051E+03</pdfrwt>
<pdfrwt beam="2">  1       -1 0.81005117E-01 0.90613051E+03</pdfrwt>
<totfact> 0.96725834E+00</totfact>
</mgrwt>
</event>
<event>
 4    1  0.1184563E-007  0.6659665E+03  0.7818608E-02  0.1018736E+00
         -1   -1    0    0    0  501 -0.00000000000E+00  0.00000000000E+00  0.85724679276E+03  0.85724679277E+03  0.50400000000E-02 0.  1.
          1   -1    0    0  501    0  0.00000000000E+00 -0.00000000000E+00 -0.11653676210E+04  0.11653676211E+04  0.50400000000E-02 0. -1.
    8880023    1    1    2    0    0 -0.98284069711E+02 -0.64308421665E+01  0.71869247396E+03  0.97981130453E+03  0.65864270000E+03 0.  1.
    8880022    1    1    2    0    0  0.98284069711E+02  0.64308421665E+01 -0.10268133022E+04  0.10428031093E+04  0.15294330000E+03 0.  0.
<mgrwt>
<rscale>  0 0.48145522E+03</rscale>
<asrwt>0</asrwt>
<pdfrwt beam="1">  1        1 0.17928733E+00 0.66596646E+03</pdfrwt>
<pdfrwt beam="2">  1       -1 0.13188412E+00 0.66596646E+03</pdfrwt>
<totfact> 0.58271476E+00</totfact>
</mgrwt>
</event>
<event>
 4    1  0.1043382E-007  0.7137367E+03  0.7818608E-02  0.9944378E-01
          1   -1    0    0  501    0  0.00000000000E+00  0.00000000000E+00  0.11955299136E+04  0.11955299136E+04  0.50400000000E-02 0. -1.
         -1   -1    0    0    0  501 -0.00000000000E+00 -0.00000000000E+00 -0.29226008209E+03  0.29226008213E+03  0.50400000000E-02 0.  1.
    8880023    1    1    2    0    0  0.17522271434E+03  0.21191224580E+03  0.23886386275E+03  0.75264596639E+03  0.65864270000E+03 0.  0.
    8880022    1    1    2    0    0 -0.17522271434E+03 -0.21191224580E+03  0.66440596879E+03  0.73514402937E+03  0.15294330000E+03 0.  0.
<mgrwt>
<rscale>  0 0.58157897E+03</rscale>
<asrwt>0</asrwt>
<pdfrwt beam="1">  1        1 0.18392768E+00 0.71373665E+03</pdfrwt>
<pdfrwt beam="2">  1       -1 0.44963090E-01 0.71373665E+03</pdfrwt>
<totfact> 0.54326612E+01</totfact>
</mgrwt>
</event>
<event>
 4    1  0.1043382E-007  0.7503383E+03  0.7818608E-02  0.9830795E-01
          1   -1    0    0  501    0  0.00000000000E+00  0.00000000000E+00  0.30723208431E+04  0.30723208431E+04  0.50400000000E-02 0. -1.
         -1   -1    0    0    0  501 -0.00000000000E+00 -0.00000000000E+00 -0.33689687316E+03  0.33689687320E+03  0.50400000000E-02 0.  1.
    8880023    1    1    2    0    0 -0.13554251824E+03  0.33290472519E+03  0.11411879441E+03  0.75896682128E+03  0.65864270000E+03 0.  0.
    8880022    1    1    2    0    0  0.13554251824E+03 -0.33290472519E+03  0.26213051755E+04  0.26502508950E+04  0.15294330000E+03 0.  0.
<mgrwt>
<rscale>  0 0.63735768E+03</rscale>
<asrwt>0</asrwt>
<pdfrwt beam="1">  1        1 0.47266473E+00 0.75033828E+03</pdfrwt>
<pdfrwt beam="2">  1       -1 0.51830290E-01 0.75033828E+03</pdfrwt>
<totfact> 0.21323033E+00</totfact>
</mgrwt>
</event>
<event>
 4    1  0.1043382E-007  0.6834670E+03  0.7818608E-02  0.1007427E+00
         -1   -1    0    0    0  501 -0.00000000000E+00  0.00000000000E+00  0.60755258745E+03  0.60755258747E+03  0.50400000000E-02 0.  1.
          1   -1    0    0  501    0  0.00000000000E+00 -0.00000000000E+00 -0.10167614688E+04  0.10167614688E+04  0.50400000000E-02 0. -1.
    8880023    1    1    2    0    0 -0.12483441337E+03  0.13316630751E+03  0.39238569279E+03  0.78809493996E+03  0.65864270000E+03 0.  1.
    8880022    1    1    2    0    0  0.12483441337E+03 -0.13316630751E+03 -0.80159457412E+03  0.83621911632E+03  0.15294330000E+03 0.  0.
<mgrwt>
<rscale>  0 0.52510266E+03</rscale>
<asrwt>0</asrwt>
<pdfrwt beam="1">  1        1 0.15642484E+00 0.68346697E+03</pdfrwt>
<pdfrwt beam="2">  1       -1 0.93469628E-01 0.68346697E+03</pdfrwt>
<totfact> 0.16943992E+01</totfact>
</mgrwt>
</event>
<event>
 4    1  0.1043382E-007  0.6787939E+03  0.7818608E-02  0.1010014E+00
          1   -1    0    0  501    0  0.00000000000E+00  0.00000000000E+00  0.67693696497E+03  0.67693696499E+03  0.50400000000E-02 0. -1.
         -1   -1    0    0    0  501 -0.00000000000E+00 -0.00000000000E+00 -0.95914740058E+03  0.95914740059E+03  0.50400000000E-02 0.  1.
    8880023    1    1    2    0    0  0.63144620352E+02  0.15153784697E+03 -0.81341611148E+03  0.10594370858E+04  0.65864270000E+03 0.  1.
    8880022    1    1    2    0    0 -0.63144620352E+02 -0.15153784697E+03  0.53120567588E+03  0.57664727975E+03  0.15294330000E+03 0.  0.
<mgrwt>
<rscale>  0 0.51468964E+03</rscale>
<asrwt>0</asrwt>
<pdfrwt beam="1">  1        1 0.10414415E+00 0.67879391E+03</pdfrwt>
<pdfrwt beam="2">  1       -1 0.14756114E+00 0.67879391E+03</pdfrwt>
<totfact> 0.10870523E+01</totfact>
</mgrwt>
</event>
<event>
 4    1  0.1043382E-007  0.7221520E+03  0.7818608E-02  0.9915371E-01
          1   -1    0    0  501    0  0.00000000000E+00  0.00000000000E+00  0.80435145183E+03  0.80435145185E+03  0.50400000000E-02 0. -1.
         -1   -1    0    0    0  501 -0.00000000000E+00 -0.00000000000E+00 -0.99526123775E+03  0.99526123777E+03  0.50400000000E-02 0.  1.
    8880023    1    1    2    0    0 -0.26585701762E+03 -0.13043504001E+03 -0.81695488940E+03  0.10903755092E+04  0.65864270000E+03 0.  1.
    8880022    1    1    2    0    0  0.26585701762E+03  0.13043504001E+03  0.62604510348E+03  0.70923718041E+03  0.15294330000E+03 0.  0.
<mgrwt>
<rscale>  0 0.59522112E+03</rscale>
<asrwt>0</asrwt>
<pdfrwt beam="1">  1        1 0.12374638E+00 0.72215196E+03</pdfrwt>
<pdfrwt beam="2">  1       -1 0.15311711E+00 0.72215196E+03</pdfrwt>
<totfact> 0.74999750E+00</totfact>
</mgrwt>
</event>
<event>
 4    1  0.1043382E-007  0.7942573E+03  0.7818608E-02  0.9723353E-01
          1   -1    0    0  501    0  0.00000000000E+00  0.00000000000E+00  0.67311375917E+03  0.67311375919E+03  0.50400000000E-02 0. -1.
         -1   -1    0    0    0  501 -0.00000000000E+00 -0.00000000000E+00 -0.10126414457E+04  0.10126414457E+04  0.50400000000E-02 0.  1.
    8880023    1    1    2    0    0  0.19295355487E+03 -0.39975419854E+03 -0.72721028691E+03  0.10768841633E+04  0.65864270000E+03 0.  1.
    8880022    1    1    2    0    0 -0.19295355487E+03  0.39975419854E+03  0.38768260039E+03  0.60887104156E+03  0.15294330000E+03 0.  0.
<mgrwt>
<rscale>  0 0.69643215E+03</rscale>
<asrwt>0</asrwt>
<pdfrwt beam="1">  1        1 0.10355596E+00 0.79425733E+03</pdfrwt>
<pdfrwt beam="2">  1       -1 0.15579099E+00 0.79425733E+03</pdfrwt>
<totfact> 0.93270841E+00</totfact>
</mgrwt>
</event>
<event>
 4    1  0.1043382E-007  0.7104876E+03  0.7818608E-02  0.9956195E-01
          1   -1    0    0  501    0  0.00000000000E+00  0.00000000000E+00  0.21370899191E+04  0.21370899191E+04  0.50400000000E-02 0. -1.
         -1   -1    0    0    0  501 -0.00000000000E+00 -0.00000000000E+00 -0.13230284519E+03  0.13230284528E+03  0.50400000000E-02 0.  1.
    8880023    1    1    2    0    0 -0.22885092537E+03 -0.13641711217E+03  0.16708957286E+04  0.18156775916E+04  0.65864270000E+03 0.  1.
    8880022    1    1    2    0    0  0.22885092537E+03  0.13641711217E+03  0.33389134534E+03  0.45371517282E+03  0.15294330000E+03 0. -1.
<mgrwt>
<rscale>  0 0.57613455E+03</rscale>
<asrwt>0</asrwt>
<pdfrwt beam="1">  1        1 0.32878306E+00 0.71048757E+03</pdfrwt>
<pdfrwt beam="2">  1       -1 0.20354284E-01 0.71048757E+03</pdfrwt>
<totfact> 0.49690487E+01</totfact>
</mgrwt>
</event>
<event>
 4    1  0.1043382E-007  0.8793862E+03  0.7818608E-02  0.9559968E-01
         -1   -1    0    0    0  501 -0.00000000000E+00  0.00000000000E+00  0.10172481961E+04  0.10172481961E+04  0.50400000000E-02 0.  1.
          1   -1    0    0  501    0  0.00000000000E+00 -0.00000000000E+00 -0.13362899472E+04  0.13362899473E+04  0.50400000000E-02 0. -1.
    8880023    1    1    2    0    0 -0.32204755600E+03  0.48558746102E+03  0.73061861241E+03  0.11432950510E+04  0.65864270000E+03 0.  1.
    8880022    1    1    2    0    0  0.32204755600E+03 -0.48558746102E+03 -0.10496603636E+04  0.12102430923E+04  0.15294330000E+03 0.  0.
<mgrwt>
<rscale>  0 0.80003375E+03</rscale>
<asrwt>0</asrwt>
<pdfrwt beam="1">  1        1 0.20558307E+00 0.87938616E+03</pdfrwt>
<pdfrwt beam="2">  1       -1 0.15649972E+00 0.87938616E+03</pdfrwt>
<totfact> 0.27052797E+00</totfact>
</mgrwt>
</event>
<event>
 4    1  0.1043382E-007  0.8003703E+03  0.7818608E-02  0.9709996E-01
          1   -1    0    0  501    0  0.00000000000E+00  0.00000000000E+00  0.63767276184E+03  0.63767276186E+03  0.50400000000E-02 0. -1.
         -1   -1    0    0    0  501 -0.00000000000E+00 -0.00000000000E+00 -0.18978870044E+04  0.18978870044E+04  0.50400000000E-02 0.  1.
    8880023    1    1    2    0    0 -0.31636990641E+03 -0.32663823862E+03 -0.17036267510E+04  0.18822690482E+04  0.65864270000E+03 0.  0.
    8880022    1    1    2    0    0  0.31636990641E+03  0.32663823862E+03  0.44341250850E+03  0.65329071807E+03  0.15294330000E+03 0.  0.
<mgrwt>
<rscale>  0 0.70424747E+03</rscale>
<asrwt>0</asrwt>
<pdfrwt beam="1">  1        1 0.98103503E-01 0.80037033E+03</pdfrwt>
<pdfrwt beam="2">  1       -1 0.29198261E+00 0.80037033E+03</pdfrwt>
<totfact> 0.12182155E+00</totfact>
</mgrwt>
</event>
<event>
 4    1  0.1043382E-007  0.8380493E+03  0.7818608E-02  0.9633870E-01
         -1   -1    0    0    0  501 -0.00000000000E+00  0.00000000000E+00  0.32792792093E+03  0.32792792097E+03  0.50400000000E-02 0.  1.
          1   -1    0    0  501    0  0.00000000000E+00 -0.00000000000E+00 -0.16157430429E+04  0.16157430429E+04  0.50400000000E-02 0. -1.
    8880023    1    1    2    0    0  0.50572500038E+03 -0.11295400383E+03 -0.46239842882E+03  0.95715144895E+03  0.65864270000E+03 0.  1.
    8880022    1    1    2    0    0 -0.50572500038E+03  0.11295400383E+03 -0.82541669315E+03  0.98651951493E+03  0.15294330000E+03 0.  1.
<mgrwt>
<rscale>  0 0.75094464E+03</rscale>
<asrwt>0</asrwt>
<pdfrwt beam="1">  1        1 0.24857585E+00 0.83804928E+03</pdfrwt>
<pdfrwt beam="2">  1       -1 0.50450450E-01 0.83804928E+03</pdfrwt>
<totfact> 0.21992980E+01</totfact>
</mgrwt>
</event>
<event>
 4    1  0.1043382E-007  0.7526405E+03  0.7818608E-02  0.9824547E-01
         -1   -1    0    0    0  501 -0.00000000000E+00  0.00000000000E+00  0.13367026608E+04  0.13367026608E+04  0.50400000000E-02 0.  1.
          1   -1    0    0  501    0  0.00000000000E+00 -0.00000000000E+00 -0.76416044607E+03  0.76416044608E+03  0.50400000000E-02 0. -1.
    8880023    1    1    2    0    0 -0.36070721335E+03  0.50475862295E+02  0.11660837586E+04  0.13878829362E+04  0.65864270000E+03 0.  1.
    8880022    1    1    2    0    0  0.36070721335E+03 -0.50475862295E+02 -0.59354154385E+03  0.71298017064E+03  0.15294330000E+03 0.  0.
<mgrwt>
<rscale>  0 0.64061686E+03</rscale>
<asrwt>0</asrwt>
<pdfrwt beam="1">  1        1 0.11756315E+00 0.75264049E+03</pdfrwt>
<pdfrwt beam="2">  1       -1 0.20564656E+00 0.75264049E+03</pdfrwt>
<totfact> 0.34011277E+00</totfact>
</mgrwt>
</event>
<event>
 4    1  0.1043382E-007  0.6998147E+03  0.7818608E-02  0.9997971E-01
         -1   -1    0    0    0  501 -0.00000000000E+00  0.00000000000E+00  0.26996746327E+03  0.26996746332E+03  0.50400000000E-02 0.  1.
          1   -1    0    0  501    0  0.00000000000E+00 -0.00000000000E+00 -0.89315757390E+03  0.89315757391E+03  0.50400000000E-02 0. -1.
    8880023    1    1    2    0    0 -0.21102297768E+03  0.10676958916E+03 -0.42534200357E+03  0.81893618100E+03  0.65864270000E+03 0.  0.
    8880022    1    1    2    0    0  0.21102297768E+03 -0.10676958916E+03 -0.19784810705E+03  0.34418885624E+03  0.15294330000E+03 0.  1.
<mgrwt>
<rscale>  0 0.55739309E+03</rscale>
<asrwt>0</asrwt>
<pdfrwt beam="1">  1        1 0.13740886E+00 0.69981472E+03</pdfrwt>
<pdfrwt beam="2">  1       -1 0.41533456E-01 0.69981472E+03</pdfrwt>
<totfact> 0.10711429E+02</totfact>
</mgrwt>
</event>
<event>
 4    1  0.1043382E-007  0.7648855E+03  0.7818608E-02  0.9792620E-01
         -1   -1    0    0    0  501 -0.00000000000E+00  0.00000000000E+00  0.35667587634E+03  0.35667587637E+03  0.50400000000E-02 0.  1.
          1   -1    0    0  501    0  0.00000000000E+00 -0.00000000000E+00 -0.10768930968E+04  0.10768930968E+04  0.50400000000E-02 0. -1.
    8880023    1    1    2    0    0 -0.18911456574E+03  0.33981661952E+03 -0.25048355130E+03  0.80485518549E+03  0.65864270000E+03 0.  0.
    8880022    1    1    2    0    0  0.18911456574E+03 -0.33981661952E+03 -0.46973366916E+03  0.62871378769E+03  0.15294330000E+03 0.  0.
<mgrwt>
<rscale>  0 0.65760119E+03</rscale>
<asrwt>0</asrwt>
<pdfrwt beam="1">  1        1 0.16567586E+00 0.76488552E+03</pdfrwt>
<pdfrwt beam="2">  1       -1 0.54873212E-01 0.76488552E+03</pdfrwt>
<totfact> 0.45350061E+01</totfact>
</mgrwt>
</event>
<event>
 4    1  0.1043382E-007  0.1274018E+04  0.7818608E-02  0.9088328E-01
         -1   -1    0    0    0  501 -0.00000000000E+00  0.00000000000E+00  0.29305530367E+04  0.29305530367E+04  0.50400000000E-02 0.  1.
          1   -1    0    0  501    0  0.00000000000E+00 -0.00000000000E+00 -0.75793126625E+03  0.75793126627E+03  0.50400000000E-02 0. -1.
    8880023    1    1    2    0    0  0.10781181694E+04 -0.16423450302E+03  0.22488124087E+04  0.25846236118E+04  0.65864270000E+03 0.  0.
    8880022    1    1    2    0    0 -0.10781181694E+04  0.16423450302E+03 -0.76190638242E+02  0.11038606911E+04  0.15294330000E+03 0.  0.
<mgrwt>
<rscale>  0 0.12284317E+04</rscale>
<asrwt>0</asrwt>
<pdfrwt beam="1">  1        1 0.11660481E+00 0.12740180E+04</pdfrwt>
<pdfrwt beam="2">  1       -1 0.45085431E+00 0.12740180E+04</pdfrwt>
<totfact> 0.75615467E-02</totfact>
</mgrwt>
</event>
<event>
 4    1  0.1043382E-007  0.8653267E+03  0.7818608E-02  0.9584158E-01
         -1   -1    0    0    0  501 -0.00000000000E+00  0.00000000000E+00  0.66486062095E+03  0.66486062097E+03  0.50400000000E-02 0.  1.
          1   -1    0    0  501    0  0.00000000000E+00 -0.00000000000E+00 -0.84899481057E+03  0.84899481059E+03  0.50400000000E-02 0. -1.
    8880023    1    1    2    0    0 -0.34361774265E+03  0.44374199590E+03  0.91513933425E+02  0.87015235348E+03  0.65864270000E+03 0.  0.
    8880022    1    1    2    0    0  0.34361774265E+03 -0.44374199590E+03 -0.27564812304E+03  0.64370307809E+03  0.15294330000E+03 0.  0.
<mgrwt>
<rscale>  0 0.78353671E+03</rscale>
<asrwt>0</asrwt>
<pdfrwt beam="1">  1        1 0.13061459E+00 0.86532671E+03</pdfrwt>
<pdfrwt beam="2">  1       -1 0.10228625E+00 0.86532671E+03</pdfrwt>
<totfact> 0.18432703E+01</totfact>
</mgrwt>
</event>
<event>
 4    1  0.1043382E-007  0.6773815E+03  0.7818608E-02  0.1010845E+00
          1   -1    0    0  501    0  0.00000000000E+00  0.00000000000E+00  0.17250419327E+04  0.17250419327E+04  0.50400000000E-02 0. -1.
         -1   -1    0    0    0  501 -0.00000000000E+00 -0.00000000000E+00 -0.16135499890E+03  0.16135499898E+03  0.50400000000E-02 0.  1.
    8880023    1    1    2    0    0 -0.12349401688E+03  0.98917984480E+02  0.62299930611E+03  0.92031183929E+03  0.65864270000E+03 0.  1.
    8880022    1    1    2    0    0  0.12349401688E+03 -0.98917984480E+02  0.94068762770E+03  0.96608509242E+03  0.15294330000E+03 0.  0.
<mgrwt>
<rscale>  0 0.51140054E+03</rscale>
<asrwt>0</asrwt>
<pdfrwt beam="1">  1        1 0.26539107E+00 0.67738154E+03</pdfrwt>
<pdfrwt beam="2">  1       -1 0.24823846E-01 0.67738154E+03</pdfrwt>
<totfact> 0.67312579E+01</totfact>
</mgrwt>
</event>
<event>
 4    1  0.1043382E-007  0.8604392E+03  0.7818608E-02  0.9592783E-01
         -1   -1    0    0    0  501 -0.00000000000E+00  0.00000000000E+00  0.22842053423E+03  0.22842053429E+03  0.50400000000E-02 0.  1.
          1   -1    0    0  501    0  0.00000000000E+00 -0.00000000000E+00 -0.29428558986E+04  0.29428558986E+04  0.50400000000E-02 0. -1.
    8880023    1    1    2    0    0 -0.16475420116E+03 -0.52858444314E+03 -0.23201779201E+04  0.24745870862E+04  0.65864270000E+03 0. -1.
    8880022    1    1    2    0    0  0.16475420116E+03  0.52858444314E+03 -0.39425744428E+03  0.69668934663E+03  0.15294330000E+03 0.  0.
<mgrwt>
<rscale>  0 0.77775721E+03</rscale>
<asrwt>0</asrwt>
<pdfrwt beam="1">  1        1 0.45274703E+00 0.86043923E+03</pdfrwt>
<pdfrwt beam="2">  1       -1 0.35141623E-01 0.86043923E+03</pdfrwt>
<totfact> 0.53016820E+00</totfact>
</mgrwt>
</event>
<event>
 4    1  0.1480858E-007  0.8722964E+03  0.7818608E-02  0.9572054E-01
          1   -1    0    0  501    0  0.00000000000E+00  0.00000000000E+00  0.16055263253E+04  0.16055263253E+04  0.50400000000E-02 0. -1.
         -1   -1    0    0    0  501 -0.00000000000E+00 -0.00000000000E+00 -0.17571182128E+04  0.17571182128E+04  0.50400000000E-02 0.  1.
    8880023    1    1    2    0    0  0.32934804806E+03  0.46756879776E+03 -0.15864520966E+04  0.18104505457E+04  0.65864270000E+03 0.  0.
    8880022    1    1    2    0    0 -0.32934804806E+03 -0.46756879776E+03  0.14348602091E+04  0.15521939924E+04  0.15294330000E+03 0.  0.
<mgrwt>
<rscale>  0 0.79173768E+03</rscale>
<asrwt>0</asrwt>
<pdfrwt beam="1">  1        1 0.24700405E+00 0.87229635E+03</pdfrwt>
<pdfrwt beam="2">  1       -1 0.27032588E+00 0.87229635E+03</pdfrwt>
<totfact> 0.29562448E-01</totfact>
</mgrwt>
</event>
<event>
 4    1  0.1043382E-007  0.7099325E+03  0.7818608E-02  0.9958252E-01
         -1   -1    0    0    0  501 -0.00000000000E+00  0.00000000000E+00  0.10402515455E+04  0.10402515455E+04  0.50400000000E-02 0.  1.
          1   -1    0    0  501    0  0.00000000000E+00 -0.00000000000E+00 -0.94805078769E+03  0.94805078771E+03  0.50400000000E-02 0. -1.
    8880023    1    1    2    0    0  0.98251759516E+02 -0.24604996312E+03  0.88731496470E+03  0.11363679182E+04  0.65864270000E+03 0.  0.
    8880022    1    1    2    0    0 -0.98251759516E+02  0.24604996312E+03 -0.79511420687E+03  0.85193441507E+03  0.15294330000E+03 0.  0.
<mgrwt>
<rscale>  0 0.57519349E+03</rscale>
<asrwt>0</asrwt>
<pdfrwt beam="1">  1        1 0.14585397E+00 0.70993253E+03</pdfrwt>
<pdfrwt beam="2">  1       -1 0.16003870E+00 0.70993253E+03</pdfrwt>
<totfact> 0.50661354E+00</totfact>
</mgrwt>
</event>
<event>
 4    1  0.1043382E-007  0.6793215E+03  0.7818608E-02  0.1009710E+00
          1   -1    0    0  501    0  0.00000000000E+00  0.00000000000E+00  0.50045384129E+03  0.50045384132E+03  0.50400000000E-02 0. -1.
         -1   -1    0    0    0  501 -0.00000000000E+00 -0.00000000000E+00 -0.64495750983E+03  0.64495750985E+03  0.50400000000E-02 0.  1.
    8880023    1    1    2    0    0 -0.12741123651E+03 -0.10692952479E+03 -0.41258811198E+03  0.79479978791E+03  0.65864270000E+03 0.  1.
    8880022    1    1    2    0    0  0.12741123651E+03  0.10692952479E+03  0.26808444344E+03  0.35061156326E+03  0.15294330000E+03 0.  0.
<mgrwt>
<rscale>  0 0.51590031E+03</rscale>
<asrwt>0</asrwt>
<pdfrwt beam="1">  1        1 0.76992898E-01 0.67932154E+03</pdfrwt>
<pdfrwt beam="2">  1       -1 0.99224233E-01 0.67932154E+03</pdfrwt>
<totfact> 0.44178719E+01</totfact>
</mgrwt>
</event>
<event>
 4    1  0.1043382E-007  0.6692997E+03  0.7818608E-02  0.1016170E+00
          1   -1    0    0  501    0  0.00000000000E+00  0.00000000000E+00  0.67604487188E+03  0.67604487190E+03  0.50400000000E-02 0. -1.
         -1   -1    0    0    0  501 -0.00000000000E+00 -0.00000000000E+00 -0.47772449295E+03  0.47772449298E+03  0.50400000000E-02 0.  1.
    8880023    1    1    2    0    0  0.33282536565E+02 -0.11421089860E+03 -0.21027985682E+03  0.70155518746E+03  0.65864270000E+03 0.  1.
    8880022    1    1    2    0    0 -0.33282536565E+02  0.11421089860E+03  0.40860023575E+03  0.45221417743E+03  0.15294330000E+03 0.  0.
<mgrwt>
<rscale>  0 0.49094441E+03</rscale>
<asrwt>0</asrwt>
<pdfrwt beam="1">  1        1 0.10400690E+00 0.66929968E+03</pdfrwt>
<pdfrwt beam="2">  1       -1 0.73496076E-01 0.66929968E+03</pdfrwt>
<totfact> 0.55139026E+01</totfact>
</mgrwt>
</event>
<event>
 4    1  0.1043382E-007  0.7402981E+03  0.7818608E-02  0.9859080E-01
          1   -1    0    0  501    0  0.00000000000E+00  0.00000000000E+00  0.38835231507E+03  0.38835231510E+03  0.50400000000E-02 0. -1.
         -1   -1    0    0    0  501 -0.00000000000E+00 -0.00000000000E+00 -0.12039818220E+04  0.12039818220E+04  0.50400000000E-02 0.  1.
    8880023    1    1    2    0    0 -0.30806079658E+03  0.13903093760E+03 -0.94410691645E+03  0.11997412771E+04  0.65864270000E+03 0.  1.
    8880022    1    1    2    0    0  0.30806079658E+03 -0.13903093760E+03  0.12847740949E+03  0.39259286005E+03  0.15294330000E+03 0.  0.
<mgrwt>
<rscale>  0 0.62286114E+03</rscale>
<asrwt>0</asrwt>
<pdfrwt beam="1">  1        1 0.59746511E-01 0.74029809E+03</pdfrwt>
<pdfrwt beam="2">  1       -1 0.18522797E+00 0.74029809E+03</pdfrwt>
<totfact> 0.12282474E+01</totfact>
</mgrwt>
</event>
<event>
 4    1  0.1043382E-007  0.8327352E+03  0.7818608E-02  0.9644034E-01
         -1   -1    0    0    0  501 -0.00000000000E+00  0.00000000000E+00  0.13213488815E+04  0.13213488816E+04  0.50400000000E-02 0.  1.
          1   -1    0    0  501    0  0.00000000000E+00 -0.00000000000E+00 -0.79684994759E+03  0.79684994760E+03  0.50400000000E-02 0. -1.
    8880023    1    1    2    0    0  0.39340918354E+03 -0.32383167497E+03  0.10702459943E+04  0.13560510441E+04  0.65864270000E+03 0.  1.
    8880022    1    1    2    0    0 -0.39340918354E+03  0.32383167497E+03 -0.54574706038E+03  0.76214778511E+03  0.15294330000E+03 0.  0.
<mgrwt>
<rscale>  0 0.74449047E+03</rscale>
<asrwt>0</asrwt>
<pdfrwt beam="1">  1        1 0.12259230E+00 0.83273522E+03</pdfrwt>
<pdfrwt beam="2">  1       -1 0.20328444E+00 0.83273522E+03</pdfrwt>
<totfact> 0.32630355E+00</totfact>
</mgrwt>
</event>
<event>
 4    1  0.1043382E-007  0.7495727E+03  0.7818608E-02  0.9832891E-01
         -1   -1    0    0    0  501 -0.00000000000E+00  0.00000000000E+00  0.94575843523E+03  0.94575843525E+03  0.50400000000E-02 0.  1.
          1   -1    0    0  501    0  0.00000000000E+00 -0.00000000000E+00 -0.82896122994E+03  0.82896122995E+03  0.50400000000E-02 0. -1.
    8880023    1    1    2    0    0  0.25821943105E+03  0.24773336126E+03  0.73139299684E+03  0.10472798169E+04  0.65864270000E+03 0.  1.
    8880022    1    1    2    0    0 -0.25821943105E+03 -0.24773336126E+03 -0.61459579154E+03  0.72743984827E+03  0.15294330000E+03 0.  0.
<mgrwt>
<rscale>  0 0.63626888E+03</rscale>
<asrwt>0</asrwt>
<pdfrwt beam="1">  1        1 0.12753250E+00 0.74957274E+03</pdfrwt>
<pdfrwt beam="2">  1       -1 0.14550130E+00 0.74957274E+03</pdfrwt>
<totfact> 0.81587646E+00</totfact>
</mgrwt>
</event>
<event>
 4    1  0.1043382E-007  0.7024504E+03  0.7818608E-02  0.9987184E-01
          1   -1    0    0  501    0  0.00000000000E+00  0.00000000000E+00  0.10579494937E+04  0.10579494937E+04  0.50400000000E-02 0. -1.
         -1   -1    0    0    0  501 -0.00000000000E+00 -0.00000000000E+00 -0.41297069976E+03  0.41297069980E+03  0.50400000000E-02 0.  1.
    8880023    1    1    2    0    0  0.39430623431E+02 -0.24098056657E+03 -0.64265530062E+02  0.70538406003E+03  0.65864270000E+03 0.  1.
    8880022    1    1    2    0    0 -0.39430623431E+02  0.24098056657E+03  0.70924432403E+03  0.76553613351E+03  0.15294330000E+03 0.  0.
<mgrwt>
<rscale>  0 0.56215792E+03</rscale>
<asrwt>0</asrwt>
<pdfrwt beam="1">  1        1 0.16276146E+00 0.70245044E+03</pdfrwt>
<pdfrwt beam="2">  1       -1 0.63533955E-01 0.70245044E+03</pdfrwt>
<totfact> 0.35387950E+01</totfact>
</mgrwt>
</event>
<event>
 4    1  0.1043382E-007  0.1598678E+04  0.7818608E-02  0.8842926E-01
          1   -1    0    0  501    0  0.00000000000E+00  0.00000000000E+00  0.18437625606E+04  0.18437625606E+04  0.50400000000E-02 0. -1.
         -1   -1    0    0    0  501 -0.00000000000E+00 -0.00000000000E+00 -0.15088812124E+04  0.15088812124E+04  0.50400000000E-02 0.  1.
    8880023    1    1    2    0    0  0.14473981420E+04  0.16431753471E+03 -0.48942728504E+03  0.16719183315E+04  0.65864270000E+03 0.  0.
    8880022    1    1    2    0    0 -0.14473981420E+04 -0.16431753471E+03  0.82430863328E+03  0.16807254415E+04  0.15294330000E+03 0.  0.
<mgrwt>
<rscale>  0 0.15640770E+04</rscale>
<asrwt>0</asrwt>
<pdfrwt beam="1">  1        1 0.28365578E+00 0.15986782E+04</pdfrwt>
<pdfrwt beam="2">  1       -1 0.23213557E+00 0.15986782E+04</pdfrwt>
<totfact> 0.32470727E-01</totfact>
</mgrwt>
</event>
<event>
 4    1  0.1043382E-007  0.9205272E+03  0.7818608E-02  0.9493851E-01
          1   -1    0    0  501    0  0.00000000000E+00  0.00000000000E+00  0.26467823891E+04  0.26467823892E+04  0.50400000000E-02 0. -1.
         -1   -1    0    0    0  501 -0.00000000000E+00 -0.00000000000E+00 -0.96099770375E+03  0.96099770377E+03  0.50400000000E-02 0.  1.
    8880023    1    1    2    0    0  0.24300498859E+03  0.59540638662E+03 -0.68444662448E+03  0.11470996372E+04  0.65864270000E+03 0.  0.
    8880022    1    1    2    0    0 -0.24300498859E+03 -0.59540638662E+03  0.23702313099E+04  0.24606804557E+04  0.15294330000E+03 0.  0.
<mgrwt>
<rscale>  0 0.84738677E+03</rscale>
<asrwt>0</asrwt>
<pdfrwt beam="1">  1        1 0.40719729E+00 0.92052724E+03</pdfrwt>
<pdfrwt beam="2">  1       -1 0.14784580E+00 0.92052724E+03</pdfrwt>
<totfact> 0.40221214E-01</totfact>
</mgrwt>
</event>
<event>
 4    1  0.1043382E-007  0.8379642E+03  0.7818608E-02  0.9634031E-01
          1   -1    0    0  501    0  0.00000000000E+00  0.00000000000E+00  0.20939095122E+04  0.20939095122E+04  0.50400000000E-02 0. -1.
         -1   -1    0    0    0  501 -0.00000000000E+00 -0.00000000000E+00 -0.29379659111E+03  0.29379659115E+03  0.50400000000E-02 0.  1.
    8880023    1    1    2    0    0  0.51796851817E+03 -0.90802766343E+01  0.49024584170E+03  0.97083728235E+03  0.65864270000E+03 0.  1.
    8880022    1    1    2    0    0 -0.51796851817E+03  0.90802766343E+01  0.13098670793E+04  0.14168688210E+04  0.15294330000E+03 0.  0.
<mgrwt>
<rscale>  0 0.75084164E+03</rscale>
<asrwt>0</asrwt>
<pdfrwt beam="1">  1        1 0.32213994E+00 0.83796423E+03</pdfrwt>
<pdfrwt beam="2">  1       -1 0.45199474E-01 0.83796423E+03</pdfrwt>
<totfact> 0.12900323E+01</totfact>
</mgrwt>
</event>
<event>
 4    1  0.1526946E-007  0.7953564E+03  0.7818608E-02  0.9720928E-01
          1   -1    0    0  501    0  0.00000000000E+00  0.00000000000E+00  0.15135977747E+04  0.15135977747E+04  0.50400000000E-02 0. -1.
         -1   -1    0    0    0  501 -0.00000000000E+00 -0.00000000000E+00 -0.17947007162E+04  0.17947007162E+04  0.50400000000E-02 0.  1.
    8880023    1    1    2    0    0 -0.25486827042E+02  0.44512024741E+03 -0.16656046579E+04  0.18457601945E+04  0.65864270000E+03 0.  1.
    8880022    1    1    2    0    0  0.25486827042E+02 -0.44512024741E+03  0.13845017163E+04  0.14625382964E+04  0.15294330000E+03 0.  0.
<mgrwt>
<rscale>  0 0.69784314E+03</rscale>
<asrwt>0</asrwt>
<pdfrwt beam="1">  1        1 0.23286119E+00 0.79535641E+03</pdfrwt>
<pdfrwt beam="2">  1       -1 0.27610780E+00 0.79535641E+03</pdfrwt>
<totfact> 0.31890826E-01</totfact>
</mgrwt>
</event>
<event>
 4    1  0.1043382E-007  0.8151731E+03  0.7818608E-02  0.9678901E-01
         -1   -1    0    0    0  501 -0.00000000000E+00  0.00000000000E+00  0.60430423597E+03  0.60430423599E+03  0.50400000000E-02 0.  1.
          1   -1    0    0  501    0  0.00000000000E+00 -0.00000000000E+00 -0.89763141759E+03  0.89763141760E+03  0.50400000000E-02 0. -1.
    8880023    1    1    2    0    0  0.14371738470E+03  0.45830370120E+03  0.15212050738E+03  0.82924533416E+03  0.65864270000E+03 0.  1.
    8880022    1    1    2    0    0 -0.14371738470E+03 -0.45830370120E+03 -0.44544768900E+03  0.67269031943E+03  0.15294330000E+03 0. -1.
<mgrwt>
<rscale>  0 0.72287055E+03</rscale>
<asrwt>0</asrwt>
<pdfrwt beam="1">  1        1 0.13809714E+00 0.81517310E+03</pdfrwt>
<pdfrwt beam="2">  1       -1 0.92969882E-01 0.81517310E+03</pdfrwt>
<totfact> 0.20964536E+01</totfact>
</mgrwt>
</event>
<event>
 4    1  0.1043382E-007  0.8276432E+03  0.7818608E-02  0.9653936E-01
          1   -1    0    0  501    0  0.00000000000E+00  0.00000000000E+00  0.25147352808E+04  0.25147352808E+04  0.50400000000E-02 0. -1.
         -1   -1    0    0    0  501 -0.00000000000E+00 -0.00000000000E+00 -0.85203286971E+03  0.85203286972E+03  0.50400000000E-02 0.  1.
    8880023    1    1    2    0    0 -0.49979253248E+03 -0.37288842657E+02 -0.61400907446E+03  0.10305340281E+04  0.65864270000E+03 0.  0.
    8880022    1    1    2    0    0  0.49979253248E+03  0.37288842657E+02  0.22767114856E+04  0.23362341224E+04  0.15294330000E+03 0.  0.
<mgrwt>
<rscale>  0 0.73826949E+03</rscale>
<asrwt>0</asrwt>
<pdfrwt beam="1">  1        1 0.38688235E+00 0.82764318E+03</pdfrwt>
<pdfrwt beam="2">  1       -1 0.13108198E+00 0.82764318E+03</pdfrwt>
<totfact> 0.69121183E-01</totfact>
</mgrwt>
</event>
<event>
 4    1  0.1043382E-007  0.8932320E+03  0.7818608E-02  0.9536985E-01
          1   -1    0    0  501    0  0.00000000000E+00  0.00000000000E+00  0.10808508972E+04  0.10808508972E+04  0.50400000000E-02 0. -1.
         -1   -1    0    0    0  501 -0.00000000000E+00 -0.00000000000E+00 -0.71851099671E+03  0.71851099673E+03  0.50400000000E-02 0.  1.
    8880023    1    1    2    0    0 -0.55693899647E+02  0.60079228477E+03 -0.24860380049E+03  0.92718241775E+03  0.65864270000E+03 0.  0.
    8880022    1    1    2    0    0  0.55693899647E+02 -0.60079228477E+03  0.61094370095E+03  0.87217947617E+03  0.15294330000E+03 0.  0.
<mgrwt>
<rscale>  0 0.81611138E+03</rscale>
<asrwt>0</asrwt>
<pdfrwt beam="1">  1        1 0.16628475E+00 0.89323199E+03</pdfrwt>
<pdfrwt beam="2">  1       -1 0.11054015E+00 0.89323199E+03</pdfrwt>
<totfact> 0.10033531E+01</totfact>
</mgrwt>
</event>
<event>
 4    1  0.1043382E-007  0.7438072E+03  0.7818608E-02  0.9848992E-01
         -1   -1    0    0    0  501 -0.00000000000E+00  0.00000000000E+00  0.14526601698E+04  0.14526601698E+04  0.50400000000E-02 0.  1.
          1   -1    0    0  501    0  0.00000000000E+00 -0.00000000000E+00 -0.24803577319E+03  0.24803577324E+03  0.50400000000E-02 0. -1.
    8880023    1    1    2    0    0 -0.34437022417E+03  0.29122943470E+02  0.10623862217E+04  0.12968861505E+04  0.65864270000E+03 0.  0.
    8880022    1    1    2    0    0  0.34437022417E+03 -0.29122943470E+02  0.14223817497E+03  0.40380979256E+03  0.15294330000E+03 0.  1.
<mgrwt>
<rscale>  0 0.62798313E+03</rscale>
<asrwt>0</asrwt>
<pdfrwt beam="1">  1        1 0.38159350E-01 0.74380724E+03</pdfrwt>
<pdfrwt beam="2">  1       -1 0.22348618E+00 0.74380724E+03</pdfrwt>
<totfact> 0.12092334E+01</totfact>
</mgrwt>
</event>
<event>
 4    1  0.1043382E-007  0.7903650E+03  0.7818608E-02  0.9732030E-01
         -1   -1    0    0    0  501 -0.00000000000E+00  0.00000000000E+00  0.14203281556E+04  0.14203281556E+04  0.50400000000E-02 0.  1.
          1   -1    0    0  501    0  0.00000000000E+00 -0.00000000000E+00 -0.63737423807E+03  0.63737423809E+03  0.50400000000E-02 0. -1.
    8880023    1    1    2    0    0 -0.43504164639E+03 -0.40067760791E+02  0.11985093261E+04  0.14356536736E+04  0.65864270000E+03 0.  1.
    8880022    1    1    2    0    0  0.43504164639E+03  0.40067760791E+02 -0.41555540857E+03  0.62204872008E+03  0.15294330000E+03 0.  0.
<mgrwt>
<rscale>  0 0.69141372E+03</rscale>
<asrwt>0</asrwt>
<pdfrwt beam="1">  1        1 0.98057576E-01 0.79036502E+03</pdfrwt>
<pdfrwt beam="2">  1       -1 0.21851202E+00 0.79036502E+03</pdfrwt>
<totfact> 0.36474158E+00</totfact>
</mgrwt>
</event>
<event>
 4    1  0.1043382E-007  0.9061546E+03  0.7818608E-02  0.9516223E-01
         -1   -1    0    0    0  501 -0.00000000000E+00  0.00000000000E+00  0.89345937454E+03  0.89345937456E+03  0.50400000000E-02 0.  1.
          1   -1    0    0  501    0  0.00000000000E+00 -0.00000000000E+00 -0.75143278776E+03  0.75143278778E+03  0.50400000000E-02 0. -1.
    8880023    1    1    2    0    0  0.50844340379E+03 -0.35887496009E+03  0.34960300382E+03  0.97125609310E+03  0.65864270000E+03 0.  0.
    8880022    1    1    2    0    0 -0.50844340379E+03  0.35887496009E+03 -0.20757641704E+03  0.67363606923E+03  0.15294330000E+03 0.  0.
<mgrwt>
<rscale>  0 0.83098271E+03</rscale>
<asrwt>0</asrwt>
<pdfrwt beam="1">  1        1 0.11560504E+00 0.90615459E+03</pdfrwt>
<pdfrwt beam="2">  1       -1 0.13745529E+00 0.90615459E+03</pdfrwt>
<totfact> 0.10863491E+01</totfact>
</mgrwt>
</event>
<event>
 4    1  0.1043382E-007  0.6679790E+03  0.7818608E-02  0.1017155E+00
          1   -1    0    0  501    0  0.00000000000E+00  0.00000000000E+00  0.68438655893E+03  0.68438655895E+03  0.50400000000E-02 0. -1.
         -1   -1    0    0    0  501 -0.00000000000E+00 -0.00000000000E+00 -0.45329096331E+03  0.45329096334E+03  0.50400000000E-02 0.  1.
    8880023    1    1    2    0    0  0.20859672003E+02  0.10931863319E+03 -0.17428393488E+03  0.69034106476E+03  0.65864270000E+03 0.  1.
    8880022    1    1    2    0    0 -0.20859672003E+02 -0.10931863319E+03  0.40537953049E+03  0.44733645753E+03  0.15294330000E+03 0.  0.
<mgrwt>
<rscale>  0 0.48727384E+03</rscale>
<asrwt>0</asrwt>
<pdfrwt beam="1">  1        1 0.10529024E+00 0.66797896E+03</pdfrwt>
<pdfrwt beam="2">  1       -1 0.69737071E-01 0.66797896E+03</pdfrwt>
<totfact> 0.60311774E+01</totfact>
</mgrwt>
</event>
<event>
 4    1  0.1043382E-007  0.6760514E+03  0.7818608E-02  0.1011652E+00
         -1   -1    0    0    0  501 -0.00000000000E+00  0.00000000000E+00  0.19974753607E+03  0.19974753614E+03  0.50400000000E-02 0.  1.
          1   -1    0    0  501    0  0.00000000000E+00 -0.00000000000E+00 -0.20531657323E+04  0.20531657323E+04  0.50400000000E-02 0. -1.
    8880023    1    1    2    0    0  0.56813560980E+02 -0.14144777060E+03 -0.40414315812E+03  0.78764024214E+03  0.65864270000E+03 0.  1.
    8880022    1    1    2    0    0 -0.56813560980E+02  0.14144777060E+03 -0.14492750381E+04  0.14652730263E+04  0.15294330000E+03 0.  0.
<mgrwt>
<rscale>  0 0.50823474E+03</rscale>
<asrwt>0</asrwt>
<pdfrwt beam="1">  1        1 0.31587164E+00 0.67605137E+03</pdfrwt>
<pdfrwt beam="2">  1       -1 0.30730392E-01 0.67605137E+03</pdfrwt>
<totfact> 0.28150943E+01</totfact>
</mgrwt>
</event>
<event>
 4    1  0.1043382E-007  0.7072520E+03  0.7818608E-02  0.9968350E-01
         -1   -1    0    0    0  501 -0.00000000000E+00  0.00000000000E+00  0.14954118411E+04  0.14954118411E+04  0.50400000000E-02 0.  1.
          1   -1    0    0  501    0  0.00000000000E+00 -0.00000000000E+00 -0.34429955722E+03  0.34429955726E+03  0.50400000000E-02 0. -1.
    8880023    1    1    2    0    0  0.60128303981E+02  0.25055892494E+03  0.13186988543E+04  0.14963863346E+04  0.65864270000E+03 0.  1.
    8880022    1    1    2    0    0 -0.60128303981E+02 -0.25055892494E+03 -0.16758657042E+03  0.34332506376E+03  0.15294330000E+03 0.  0.
<mgrwt>
<rscale>  0 0.57060060E+03</rscale>
<asrwt>0</asrwt>
<pdfrwt beam="1">  1        1 0.52969163E-01 0.70725200E+03</pdfrwt>
<pdfrwt beam="2">  1       -1 0.23006336E+00 0.70725200E+03</pdfrwt>
<totfact> 0.71871621E+00</totfact>
</mgrwt>
</event>
<event>
 4    1  0.1043382E-007  0.9794037E+03  0.7818608E-02  0.9409014E-01
         -1   -1    0    0    0  501 -0.00000000000E+00  0.00000000000E+00  0.13349785158E+04  0.13349785158E+04  0.50400000000E-02 0.  1.
          1   -1    0    0  501    0  0.00000000000E+00 -0.00000000000E+00 -0.63837628209E+03  0.63837628211E+03  0.50400000000E-02 0. -1.
    8880023    1    1    2    0    0 -0.61728717309E+03 -0.37997089838E+03  0.74560359357E+03  0.12309168382E+04  0.65864270000E+03 0.  0.
    8880022    1    1    2    0    0  0.61728717309E+03  0.37997089838E+03 -0.49001359857E+02  0.74243795967E+03  0.15294330000E+03 0.  0.
<mgrwt>
<rscale>  0 0.91337547E+03</rscale>
<asrwt>0</asrwt>
<pdfrwt beam="1">  1        1 0.98211738E-01 0.97940367E+03</pdfrwt>
<pdfrwt beam="2">  1       -1 0.20538130E+00 0.97940367E+03</pdfrwt>
<totfact> 0.43532776E+00</totfact>
</mgrwt>
</event>
<event>
 4    1  0.1043382E-007  0.8210499E+03  0.7818608E-02  0.9667004E-01
         -1   -1    0    0    0  501 -0.00000000000E+00  0.00000000000E+00  0.36014920709E+03  0.36014920713E+03  0.50400000000E-02 0.  1.
          1   -1    0    0  501    0  0.00000000000E+00 -0.00000000000E+00 -0.27310921155E+04  0.27310921155E+04  0.50400000000E-02 0. -1.
    8880023    1    1    2    0    0  0.30649201661E+03 -0.38259040330E+03 -0.17950880485E+03  0.84044416247E+03  0.65864270000E+03 0.  1.
    8880022    1    1    2    0    0 -0.30649201661E+03  0.38259040330E+03 -0.21914341035E+04  0.22507971601E+04  0.15294330000E+03 0.  0.
<mgrwt>
<rscale>  0 0.73015801E+03</rscale>
<asrwt>0</asrwt>
<pdfrwt beam="1">  1        1 0.42016800E+00 0.82104992E+03</pdfrwt>
<pdfrwt beam="2">  1       -1 0.55407572E-01 0.82104992E+03</pdfrwt>
<totfact> 0.32323714E+00</totfact>
</mgrwt>
</event>
<event>
 4    1  0.1043382E-007  0.1119026E+04  0.7818608E-02  0.9240163E-01
          1   -1    0    0  501    0  0.00000000000E+00  0.00000000000E+00  0.14640365920E+04  0.14640365920E+04  0.50400000000E-02 0. -1.
         -1   -1    0    0    0  501 -0.00000000000E+00 -0.00000000000E+00 -0.10528550185E+04  0.10528550185E+04  0.50400000000E-02 0.  1.
    8880023    1    1    2    0    0  0.69786959085E+03 -0.57566255675E+03 -0.49834681504E+03  0.12249771832E+04  0.65864270000E+03 0.  0.
    8880022    1    1    2    0    0 -0.69786959085E+03  0.57566255675E+03  0.90952838852E+03  0.12919144274E+04  0.15294330000E+03 0.  0.
<mgrwt>
<rscale>  0 0.10648327E+04</rscale>
<asrwt>0</asrwt>
<pdfrwt beam="1">  1        1 0.22523640E+00 0.11190262E+04</pdfrwt>
<pdfrwt beam="2">  1       -1 0.16197770E+00 0.11190262E+04</pdfrwt>
<totfact> 0.19369186E+00</totfact>
</mgrwt>
</event>
<event>
 4    1  0.1043382E-007  0.7930708E+03  0.7818608E-02  0.9725984E-01
         -1   -1    0    0    0  501 -0.00000000000E+00  0.00000000000E+00  0.15769575068E+04  0.15769575068E+04  0.50400000000E-02 0.  1.
          1   -1    0    0  501    0  0.00000000000E+00 -0.00000000000E+00 -0.10600621450E+04  0.10600621450E+04  0.50400000000E-02 0. -1.
    8880023    1    1    2    0    0  0.16165159817E+03  0.41112028431E+03  0.14163850212E+04  0.16233015314E+04  0.65864270000E+03 0.  0.
    8880022    1    1    2    0    0 -0.16165159817E+03 -0.41112028431E+03 -0.89948965932E+03  0.10137181204E+04  0.15294330000E+03 0.  0.
<mgrwt>
<rscale>  0 0.69490596E+03</rscale>
<asrwt>0</asrwt>
<pdfrwt beam="1">  1        1 0.16308649E+00 0.79307083E+03</pdfrwt>
<pdfrwt beam="2">  1       -1 0.24260884E+00 0.79307083E+03</pdfrwt>
<totfact> 0.11046223E+00</totfact>
</mgrwt>
</event>
<event>
 4    1  0.1043382E-007  0.1121902E+04  0.7818608E-02  0.9237054E-01
          1   -1    0    0  501    0  0.00000000000E+00  0.00000000000E+00  0.17116129577E+04  0.17116129577E+04  0.50400000000E-02 0. -1.
         -1   -1    0    0    0  501 -0.00000000000E+00 -0.00000000000E+00 -0.63146928521E+03  0.63146928523E+03  0.50400000000E-02 0.  1.
    8880023    1    1    2    0    0  0.33203231801E+03  0.84534568197E+03  0.80844031030E+03  0.13828379239E+04  0.65864270000E+03 0.  0.
    8880022    1    1    2    0    0 -0.33203231801E+03 -0.84534568197E+03  0.27170336224E+03  0.96024431907E+03  0.15294330000E+03 0.  0.
<mgrwt>
<rscale>  0 0.10679024E+04</rscale>
<asrwt>0</asrwt>
<pdfrwt beam="1">  1        1 0.26332507E+00 0.11219024E+04</pdfrwt>
<pdfrwt beam="2">  1       -1 0.97149122E-01 0.11219024E+04</pdfrwt>
<totfact> 0.47324696E+00</totfact>
</mgrwt>
</event>
<event>
 4    1  0.1043382E-007  0.8756184E+03  0.7818608E-02  0.9566363E-01
         -1   -1    0    0    0  501 -0.00000000000E+00  0.00000000000E+00  0.91203154536E+03  0.91203154537E+03  0.50400000000E-02 0.  1.
          1   -1    0    0  501    0  0.00000000000E+00 -0.00000000000E+00 -0.10260537192E+04  0.10260537192E+04  0.50400000000E-02 0. -1.
    8880023    1    1    2    0    0  0.56186625478E+03  0.13116315447E+03  0.55873804635E+03  0.10386991249E+04  0.65864270000E+03 0.  0.
    8880022    1    1    2    0    0 -0.56186625478E+03 -0.13116315447E+03 -0.67276022017E+03  0.89938613966E+03  0.15294330000E+03 0. -1.
<mgrwt>
<rscale>  0 0.79563063E+03</rscale>
<asrwt>0</asrwt>
<pdfrwt beam="1">  1        1 0.15785442E+00 0.87561845E+03</pdfrwt>
<pdfrwt beam="2">  1       -1 0.14031255E+00 0.87561845E+03</pdfrwt>
<totfact> 0.61229330E+00</totfact>
</mgrwt>
</event>
<event>
 4    1  0.1043382E-007  0.9190114E+03  0.7818608E-02  0.9496176E-01
         -1   -1    0    0    0  501 -0.00000000000E+00  0.00000000000E+00  0.17317826295E+04  0.17317826295E+04  0.50400000000E-02 0.  1.
          1   -1    0    0  501    0  0.00000000000E+00 -0.00000000000E+00 -0.70151173322E+03  0.70151173324E+03  0.50400000000E-02 0. -1.
    8880023    1    1    2    0    0 -0.49303374279E+03 -0.40949910622E+03  0.14022996681E+04  0.16766115695E+04  0.65864270000E+03 0.  0.
    8880022    1    1    2    0    0  0.49303374279E+03  0.40949910622E+03 -0.37202877182E+03  0.75668279325E+03  0.15294330000E+03 0.  0.
<mgrwt>
<rscale>  0 0.84566302E+03</rscale>
<asrwt>0</asrwt>
<pdfrwt beam="1">  1        1 0.10792488E+00 0.91901142E+03</pdfrwt>
<pdfrwt beam="2">  1       -1 0.26642809E+00 0.91901142E+03</pdfrwt>
<totfact> 0.15114517E+00</totfact>
</mgrwt>
</event>
<event>
 4    1  0.1043382E-007  0.6597827E+03  0.7818608E-02  0.1024380E+00
         -1   -1    0    0    0  501 -0.00000000000E+00  0.00000000000E+00  0.32844040315E+03  0.32844040318E+03  0.50400000000E-02 0.  1.
          1   -1    0    0  501    0  0.00000000000E+00 -0.00000000000E+00 -0.11835411453E+04  0.11835411453E+04  0.50400000000E-02 0. -1.
    8880023    1    1    2    0    0  0.29533671509E+02  0.25114991369E+02 -0.17881925838E+02  0.66002497686E+03  0.65864270000E+03 0.  1.
    8880022    1    1    2    0    0 -0.29533671509E+02 -0.25114991369E+02 -0.83721881632E+03  0.85195657164E+03  0.15294330000E+03 0.  0.
<mgrwt>
<rscale>  0 0.46138551E+03</rscale>
<asrwt>0</asrwt>
<pdfrwt beam="1">  1        1 0.18208325E+00 0.65978270E+03</pdfrwt>
<pdfrwt beam="2">  1       -1 0.50529293E-01 0.65978270E+03</pdfrwt>
<totfact> 0.44808635E+01</totfact>
</mgrwt>
</event>
<event>
 4    1  0.1043382E-007  0.8270078E+03  0.7818608E-02  0.9655183E-01
         -1   -1    0    0    0  501 -0.00000000000E+00  0.00000000000E+00  0.20346352025E+04  0.20346352025E+04  0.50400000000E-02 0.  1.
          1   -1    0    0  501    0  0.00000000000E+00 -0.00000000000E+00 -0.27821533572E+03  0.27821533577E+03  0.50400000000E-02 0. -1.
    8880023    1    1    2    0    0  0.48907022783E+03  0.10460365656E+03  0.15376555437E+04  0.17459457008E+04  0.65864270000E+03 0.  0.
    8880022    1    1    2    0    0 -0.48907022783E+03 -0.10460365656E+03  0.21876432308E+03  0.56690483751E+03  0.15294330000E+03 0.  0.
<mgrwt>
<rscale>  0 0.73749057E+03</rscale>
<asrwt>0</asrwt>
<pdfrwt beam="1">  1        1 0.42802359E-01 0.82700775E+03</pdfrwt>
<pdfrwt beam="2">  1       -1 0.31302080E+00 0.82700775E+03</pdfrwt>
<totfact> 0.27312193E+00</totfact>
</mgrwt>
</event>
<event>
 4    1  0.1043382E-007  0.6690331E+03  0.7818608E-02  0.1016366E+00
          1   -1    0    0  501    0  0.00000000000E+00  0.00000000000E+00  0.92153476366E+03  0.92153476368E+03  0.50400000000E-02 0. -1.
         -1   -1    0    0    0  501 -0.00000000000E+00 -0.00000000000E+00 -0.27898057172E+03  0.27898057176E+03  0.50400000000E-02 0.  1.
    8880023    1    1    2    0    0  0.52838869151E+02 -0.10489557058E+03  0.17024215137E+03  0.69035325971E+03  0.65864270000E+03 0.  1.
    8880022    1    1    2    0    0 -0.52838869151E+02  0.10489557058E+03  0.47231204058E+03  0.51016207573E+03  0.15294330000E+03 0.  0.
<mgrwt>
<rscale>  0 0.49021219E+03</rscale>
<asrwt>0</asrwt>
<pdfrwt beam="1">  1        1 0.14177458E+00 0.66903306E+03</pdfrwt>
<pdfrwt beam="2">  1       -1 0.42920087E-01 0.66903306E+03</pdfrwt>
<totfact> 0.95916848E+01</totfact>
</mgrwt>
</event>
<event>
 4    1  0.1043382E-007  0.6999097E+03  0.7818608E-02  0.9997576E-01
         -1   -1    0    0    0  501 -0.00000000000E+00  0.00000000000E+00  0.17522789373E+03  0.17522789380E+03  0.50400000000E-02 0.  1.
          1   -1    0    0  501    0  0.00000000000E+00 -0.00000000000E+00 -0.21297422399E+04  0.21297422399E+04  0.50400000000E-02 0. -1.
    8880023    1    1    2    0    0  0.19095145094E+03  0.14000311663E+03 -0.60136974771E+03  0.92277793049E+03  0.65864270000E+03 0.  0.
    8880022    1    1    2    0    0 -0.19095145094E+03 -0.14000311663E+03 -0.13531445985E+04  0.13821922032E+04  0.15294330000E+03 0.  0.
<mgrwt>
<rscale>  0 0.55756645E+03</rscale>
<asrwt>0</asrwt>
<pdfrwt beam="1">  1        1 0.32765263E+00 0.69990966E+03</pdfrwt>
<pdfrwt beam="2">  1       -1 0.26958139E-01 0.69990966E+03</pdfrwt>
<totfact> 0.31286359E+01</totfact>
</mgrwt>
</event>
<event>
 4    1  0.1043382E-007  0.8961896E+03  0.7818608E-02  0.9532176E-01
          1   -1    0    0  501    0  0.00000000000E+00  0.00000000000E+00  0.14201208831E+04  0.14201208831E+04  0.50400000000E-02 0. -1.
         -1   -1    0    0    0  501 -0.00000000000E+00 -0.00000000000E+00 -0.51217886954E+03  0.51217886956E+03  0.50400000000E-02 0.  1.
    8880023    1    1    2    0    0 -0.24923547223E+03 -0.55428081444E+03  0.88299666360E+02  0.90052905518E+03  0.65864270000E+03 0.  1.
    8880022    1    1    2    0    0  0.24923547223E+03  0.55428081444E+03  0.81964234718E+03  0.10317706975E+04  0.15294330000E+03 0.  0.
<mgrwt>
<rscale>  0 0.81952587E+03</rscale>
<asrwt>0</asrwt>
<pdfrwt beam="1">  1        1 0.21848013E+00 0.89618957E+03</pdfrwt>
<pdfrwt beam="2">  1       -1 0.78796750E-01 0.89618957E+03</pdfrwt>
<totfact> 0.12183059E+01</totfact>
</mgrwt>
</event>
<event>
 4    1  0.1043382E-007  0.7559071E+03  0.7818608E-02  0.9815821E-01
         -1   -1    0    0    0  501 -0.00000000000E+00  0.00000000000E+00  0.60060784870E+03  0.60060784872E+03  0.50400000000E-02 0.  1.
          1   -1    0    0  501    0  0.00000000000E+00 -0.00000000000E+00 -0.24396200032E+04  0.24396200032E+04  0.50400000000E-02 0. -1.
    8880023    1    1    2    0    0 -0.32845455434E+03 -0.17234537225E+03  0.33693529125E+03  0.82759949152E+03  0.65864270000E+03 0.  0.
    8880022    1    1    2    0    0  0.32845455434E+03  0.17234537225E+03 -0.21759474458E+04  0.22126283604E+04  0.15294330000E+03 0.  0.
<mgrwt>
<rscale>  0 0.64520360E+03</rscale>
<asrwt>0</asrwt>
<pdfrwt beam="1">  1        1 0.37532615E+00 0.75590709E+03</pdfrwt>
<pdfrwt beam="2">  1       -1 0.92401209E-01 0.75590709E+03</pdfrwt>
<totfact> 0.18051270E+00</totfact>
</mgrwt>
</event>
<event>
 4    1  0.1043382E-007  0.1264011E+04  0.7818608E-02  0.9097279E-01
          1   -1    0    0  501    0  0.00000000000E+00  0.00000000000E+00  0.72223218351E+03  0.72223218352E+03  0.50400000000E-02 0. -1.
         -1   -1    0    0    0  501 -0.00000000000E+00 -0.00000000000E+00 -0.33895447963E+04  0.33895447963E+04  0.50400000000E-02 0.  1.
    8880023    1    1    2    0    0  0.13358866238E+03  0.10705453175E+04 -0.27422724420E+04  0.30195664523E+04  0.65864270000E+03 0.  0.
    8880022    1    1    2    0    0 -0.13358866238E+03 -0.10705453175E+04  0.74959829195E+02  0.10922105275E+04  0.15294330000E+03 0.  0.
<mgrwt>
<rscale>  0 0.12179610E+04</rscale>
<asrwt>0</asrwt>
<pdfrwt beam="1">  1        1 0.11111265E+00 0.12640108E+04</pdfrwt>
<pdfrwt beam="2">  1       -1 0.52146842E+00 0.12640108E+04</pdfrwt>
<totfact> 0.27591028E-02</totfact>
</mgrwt>
</event>
<event>
 4    1  0.1043382E-007  0.1103194E+04  0.7818608E-02  0.9257508E-01
         -1   -1    0    0    0  501 -0.00000000000E+00  0.00000000000E+00  0.18223332564E+04  0.18223332564E+04  0.50400000000E-02 0.  1.
          1   -1    0    0  501    0  0.00000000000E+00 -0.00000000000E+00 -0.14814866454E+04  0.14814866454E+04  0.50400000000E-02 0. -1.
    8880023    1    1    2    0    0 -0.58138879449E+03 -0.66724363181E+03  0.14845832205E+04  0.18496011839E+04  0.65864270000E+03 0.  1.
    8880022    1    1    2    0    0  0.58138879449E+03  0.66724363181E+03 -0.11437366096E+04  0.14542187179E+04  0.15294330000E+03 0.  0.
<mgrwt>
<rscale>  0 0.10479064E+04</rscale>
<asrwt>0</asrwt>
<pdfrwt beam="1">  1        1 0.22792102E+00 0.11031941E+04</pdfrwt>
<pdfrwt beam="2">  1       -1 0.28035896E+00 0.11031941E+04</pdfrwt>
<totfact> 0.29745409E-01</totfact>
</mgrwt>
</event>
<event>
 4    1  0.1043382E-007  0.1288968E+04  0.7818608E-02  0.9075146E-01
         -1   -1    0    0    0  501 -0.00000000000E+00  0.00000000000E+00  0.16397382409E+04  0.16397382409E+04  0.50400000000E-02 0.  1.
          1   -1    0    0  501    0  0.00000000000E+00 -0.00000000000E+00 -0.12232812660E+04  0.12232812660E+04  0.50400000000E-02 0. -1.
    8880023    1    1    2    0    0 -0.87484434810E+03 -0.67990852164E+03 -0.53403100257E+03  0.13952159507E+04  0.65864270000E+03 0.  0.
    8880022    1    1    2    0    0  0.87484434810E+03  0.67990852164E+03  0.95048797749E+03  0.14678035562E+04  0.15294330000E+03 0.  0.
<mgrwt>
<rscale>  0 0.12440551E+04</rscale>
<asrwt>0</asrwt>
<pdfrwt beam="1">  1        1 0.18819712E+00 0.12889680E+04</pdfrwt>
<pdfrwt beam="2">  1       -1 0.25226742E+00 0.12889680E+04</pdfrwt>
<totfact> 0.67202557E-01</totfact>
</mgrwt>
</event>
<event>
 4    1  0.1043382E-007  0.6696899E+03  0.7818608E-02  0.1015886E+00
         -1   -1    0    0    0  501 -0.00000000000E+00  0.00000000000E+00  0.16492023411E+03  0.16492023419E+03  0.50400000000E-02 0.  1.
          1   -1    0    0  501    0  0.00000000000E+00 -0.00000000000E+00 -0.14879058116E+04  0.14879058116E+04  0.50400000000E-02 0. -1.
    8880023    1    1    2    0    0  0.88816168538E+02 -0.82377430763E+02 -0.58413640957E+03  0.88865060859E+03  0.65864270000E+03 0.  0.
    8880022    1    1    2    0    0 -0.88816168538E+02  0.82377430763E+02 -0.73884916794E+03  0.76417543724E+03  0.15294330000E+03 0.  0.
<mgrwt>
<rscale>  0 0.49200835E+03</rscale>
<asrwt>0</asrwt>
<pdfrwt beam="1">  1        1 0.22890858E+00 0.66968990E+03</pdfrwt>
<pdfrwt beam="2">  1       -1 0.25372345E-01 0.66968990E+03</pdfrwt>
<totfact> 0.93886564E+01</totfact>
</mgrwt>
</event>
<event>
 4    1  0.1043382E-007  0.8015596E+03  0.7818608E-02  0.9707434E-01
          1   -1    0    0  501    0  0.00000000000E+00  0.00000000000E+00  0.34091568630E+03  0.34091568633E+03  0.50400000000E-02 0. -1.
         -1   -1    0    0    0  501 -0.00000000000E+00 -0.00000000000E+00 -0.16527068136E+04  0.16527068136E+04  0.50400000000E-02 0.  1.
    8880023    1    1    2    0    0  0.10328795606E+03 -0.44499351254E+03 -0.26995480523E+03  0.84579751194E+03  0.65864270000E+03 0.  0.
    8880022    1    1    2    0    0 -0.10328795606E+03  0.44499351254E+03 -0.10418363220E+04  0.11478249880E+04  0.15294330000E+03 0.  0.
<mgrwt>
<rscale>  0 0.70575899E+03</rscale>
<asrwt>0</asrwt>
<pdfrwt beam="1">  1        1 0.52448568E-01 0.80155963E+03</pdfrwt>
<pdfrwt beam="2">  1       -1 0.25426258E+00 0.80155963E+03</pdfrwt>
<totfact> 0.50071115E+00</totfact>
</mgrwt>
</event>
<event>
 4    1  0.1043382E-007  0.6853821E+03  0.7818608E-02  0.1006430E+00
          1   -1    0    0  501    0  0.00000000000E+00  0.00000000000E+00  0.22229169054E+04  0.22229169054E+04  0.50400000000E-02 0. -1.
         -1   -1    0    0    0  501 -0.00000000000E+00 -0.00000000000E+00 -0.10623386076E+03  0.10623386088E+03  0.50400000000E-02 0.  1.
    8880023    1    1    2    0    0 -0.14769132191E+03  0.11885135338E+03  0.12132478954E+04  0.13934557878E+04  0.65864270000E+03 0.  0.
    8880022    1    1    2    0    0  0.14769132191E+03 -0.11885135338E+03  0.90343514926E+03  0.93569497845E+03  0.15294330000E+03 0.  0.
<mgrwt>
<rscale>  0 0.52918664E+03</rscale>
<asrwt>0</asrwt>
<pdfrwt beam="1">  1        1 0.34198718E+00 0.68538207E+03</pdfrwt>
<pdfrwt beam="2">  1       -1 0.16343673E-01 0.68538207E+03</pdfrwt>
<totfact> 0.62734562E+01</totfact>
</mgrwt>
</event>
<event>
 4    1  0.1043382E-007  0.7105847E+03  0.7818608E-02  0.9955836E-01
          1   -1    0    0  501    0  0.00000000000E+00  0.00000000000E+00  0.54084843934E+03  0.54084843936E+03  0.50400000000E-02 0. -1.
         -1   -1    0    0    0  501 -0.00000000000E+00 -0.00000000000E+00 -0.16064579830E+04  0.16064579830E+04  0.50400000000E-02 0.  1.
    8880023    1    1    2    0    0 -0.23614097149E+03 -0.12392707751E+03 -0.14738804953E+04  0.16362317683E+04  0.65864270000E+03 0.  1.
    8880022    1    1    2    0    0  0.23614097149E+03  0.12392707751E+03  0.40827095169E+03  0.51107465401E+03  0.15294330000E+03 0.  0.
<mgrwt>
<rscale>  0 0.57629899E+03</rscale>
<asrwt>0</asrwt>
<pdfrwt beam="1">  1        1 0.83207453E-01 0.71058475E+03</pdfrwt>
<pdfrwt beam="2">  1       -1 0.24714738E+00 0.71058475E+03</pdfrwt>
<totfact> 0.30341366E+00</totfact>
</mgrwt>
</event>
<event>
 4    1  0.1043382E-007  0.1148996E+04  0.7818608E-02  0.9208371E-01
          1   -1    0    0  501    0  0.00000000000E+00  0.00000000000E+00  0.24337116640E+04  0.24337116640E+04  0.50400000000E-02 0. -1.
         -1   -1    0    0    0  501 -0.00000000000E+00 -0.00000000000E+00 -0.85900676926E+03  0.85900676927E+03  0.50400000000E-02 0.  1.
    8880023    1    1    2    0    0 -0.73482203197E+03  0.58857247424E+03 -0.30157595755E+03  0.11879138186E+04  0.65864270000E+03 0. -1.
    8880022    1    1    2    0    0  0.73482203197E+03 -0.58857247424E+03  0.18762808523E+04  0.21048046146E+04  0.15294330000E+03 0.  0.
<mgrwt>
<rscale>  0 0.10967444E+04</rscale>
<asrwt>0</asrwt>
<pdfrwt beam="1">  1        1 0.37441718E+00 0.11489957E+04</pdfrwt>
<pdfrwt beam="2">  1       -1 0.13215489E+00 0.11489957E+04</pdfrwt>
<totfact> 0.72826159E-01</totfact>
</mgrwt>
</event>
<event>
 4    1  0.1043382E-007  0.8558088E+03  0.7818608E-02  0.9601063E-01
          1   -1    0    0  501    0  0.00000000000E+00  0.00000000000E+00  0.32445223360E+03  0.32445223364E+03  0.50400000000E-02 0. -1.
         -1   -1    0    0    0  501 -0.00000000000E+00 -0.00000000000E+00 -0.30514135738E+04  0.30514135738E+04  0.50400000000E-02 0.  1.
    8880023    1    1    2    0    0 -0.50520315956E+03  0.20825067691E+03 -0.26720715950E+04  0.28057753638E+04  0.65864270000E+03 0.  1.
    8880022    1    1    2    0    0  0.50520315956E+03 -0.20825067691E+03 -0.54889745238E+02  0.57009044371E+03  0.15294330000E+03 0.  0.
<mgrwt>
<rscale>  0 0.77225889E+03</rscale>
<asrwt>0</asrwt>
<pdfrwt beam="1">  1        1 0.49915730E-01 0.85580885E+03</pdfrwt>
<pdfrwt beam="2">  1       -1 0.46944822E+00 0.85580885E+03</pdfrwt>
<totfact> 0.19770597E-01</totfact>
</mgrwt>
</event>
<event>
 4    1  0.1112722E-007  0.7422649E+03  0.7818608E-02  0.9853398E-01
          1   -1    0    0  501    0  0.00000000000E+00  0.00000000000E+00  0.17617707059E+04  0.17617707059E+04  0.50400000000E-02 0. -1.
         -1   -1    0    0    0  501 -0.00000000000E+00 -0.00000000000E+00 -0.57694427027E+03  0.57694427029E+03  0.50400000000E-02 0.  1.
    8880023    1    1    2    0    0  0.34009703547E+03 -0.38483394658E+02 -0.30497133588E+03  0.80247410374E+03  0.65864270000E+03 0.  1.
    8880022    1    1    2    0    0 -0.34009703547E+03  0.38483394658E+02  0.14897977715E+04  0.15362408725E+04  0.15294330000E+03 0.  0.
<mgrwt>
<rscale>  0 0.62573961E+03</rscale>
<asrwt>0</asrwt>
<pdfrwt beam="1">  1        1 0.27104164E+00 0.74226489E+03</pdfrwt>
<pdfrwt beam="2">  1       -1 0.88760658E-01 0.74226489E+03</pdfrwt>
<totfact> 0.56385427E+00</totfact>
</mgrwt>
</event>
<event>
 4    1  0.1043382E-007  0.1038130E+04  0.7818608E-02  0.9333288E-01
         -1   -1    0    0    0  501 -0.00000000000E+00  0.00000000000E+00  0.38419709958E+03  0.38419709962E+03  0.50400000000E-02 0.  1.
          1   -1    0    0  501    0  0.00000000000E+00 -0.00000000000E+00 -0.22612549002E+04  0.22612549002E+04  0.50400000000E-02 0. -1.
    8880023    1    1    2    0    0  0.75181241527E+03  0.28050429569E+03 -0.91946287677E+03  0.13867684578E+04  0.65864270000E+03 0.  1.
    8880022    1    1    2    0    0 -0.75181241527E+03 -0.28050429569E+03 -0.95759492384E+03  0.12586835420E+04  0.15294330000E+03 0. -1.
<mgrwt>
<rscale>  0 0.97775213E+03</rscale>
<asrwt>0</asrwt>
<pdfrwt beam="1">  1        1 0.34788536E+00 0.10381304E+04</pdfrwt>
<pdfrwt beam="2">  1       -1 0.59107247E-01 0.10381304E+04</pdfrwt>
<totfact> 0.57979782E+00</totfact>
</mgrwt>
</event>
<event>
 4    1  0.1043382E-007  0.6907460E+03  0.7818608E-02  0.1003800E+00
          1   -1    0    0  501    0  0.00000000000E+00  0.00000000000E+00  0.12396501628E+04  0.12396501628E+04  0.50400000000E-02 0. -1.
         -1   -1    0    0    0  501 -0.00000000000E+00 -0.00000000000E+00 -0.38910491449E+03  0.38910491452E+03  0.50400000000E-02 0.  1.
    8880023    1    1    2    0    0  0.22564946028E+02 -0.20690733986E+03 -0.49369755450E+02  0.69250805273E+03  0.65864270000E+03 0.  1.
    8880022    1    1    2    0    0 -0.22564946028E+02  0.20690733986E+03  0.89991500375E+03  0.93624702460E+03  0.15294330000E+03 0.  0.
<mgrwt>
<rscale>  0 0.54014934E+03</rscale>
<asrwt>0</asrwt>
<pdfrwt beam="1">  1        1 0.19071541E+00 0.69074600E+03</pdfrwt>
<pdfrwt beam="2">  1       -1 0.59862294E-01 0.69074600E+03</pdfrwt>
<totfact> 0.29331580E+01</totfact>
</mgrwt>
</event>
<event>
 4    1  0.1043382E-007  0.8924991E+03  0.7818608E-02  0.9538182E-01
         -1   -1    0    0    0  501 -0.00000000000E+00  0.00000000000E+00  0.18118717344E+04  0.18118717344E+04  0.50400000000E-02 0.  1.
          1   -1    0    0  501    0  0.00000000000E+00 -0.00000000000E+00 -0.53531833359E+03  0.53531833362E+03  0.50400000000E-02 0. -1.
    8880023    1    1    2    0    0 -0.39710505025E+03  0.45282665517E+03  0.14494447010E+04  0.17021881647E+04  0.65864270000E+03 0.  0.
    8880022    1    1    2    0    0  0.39710505025E+03 -0.45282665517E+03 -0.17289130020E+03  0.64500190330E+03  0.15294330000E+03 0.  0.
<mgrwt>
<rscale>  0 0.81526421E+03</rscale>
<asrwt>0</asrwt>
<pdfrwt beam="1">  1        1 0.82356668E-01 0.89249908E+03</pdfrwt>
<pdfrwt beam="2">  1       -1 0.27874949E+00 0.89249908E+03</pdfrwt>
<totfact> 0.18753179E+00</totfact>
</mgrwt>
</event>
<event>
 4    1  0.1043382E-007  0.7938609E+03  0.7818608E-02  0.9724231E-01
         -1   -1    0    0    0  501 -0.00000000000E+00  0.00000000000E+00  0.10516528113E+04  0.10516528113E+04  0.50400000000E-02 0.  1.
          1   -1    0    0  501    0  0.00000000000E+00 -0.00000000000E+00 -0.64867147487E+03  0.64867147488E+03  0.50400000000E-02 0. -1.
    8880023    1    1    2    0    0  0.22760778291E+03 -0.38026246469E+03  0.76922307443E+03  0.11054045365E+04  0.65864270000E+03 0.  1.
    8880022    1    1    2    0    0 -0.22760778291E+03  0.38026246469E+03 -0.36624173798E+03  0.59491974967E+03  0.15294330000E+03 0.  0.
<mgrwt>
<rscale>  0 0.69592251E+03</rscale>
<asrwt>0</asrwt>
<pdfrwt beam="1">  1        1 0.99795613E-01 0.79386085E+03</pdfrwt>
<pdfrwt beam="2">  1       -1 0.16179274E+00 0.79386085E+03</pdfrwt>
<totfact> 0.88752914E+00</totfact>
</mgrwt>
</event>
<event>
 4    1  0.1043382E-007  0.6984752E+03  0.7818608E-02  0.1000359E+00
          1   -1    0    0  501    0  0.00000000000E+00  0.00000000000E+00  0.13038130675E+04  0.13038130675E+04  0.50400000000E-02 0. -1.
         -1   -1    0    0    0  501 -0.00000000000E+00 -0.00000000000E+00 -0.22282259282E+03  0.22282259287E+03  0.50400000000E-02 0.  1.
    8880023    1    1    2    0    0 -0.23243918866E+03  0.54297278148E+01  0.43399415807E+03  0.82232511446E+03  0.65864270000E+03 0.  0.
    8880022    1    1    2    0    0  0.23243918866E+03 -0.54297278148E+01  0.64699631657E+03  0.70431054588E+03  0.15294330000E+03 0.  0.
<mgrwt>
<rscale>  0 0.55493270E+03</rscale>
<asrwt>0</asrwt>
<pdfrwt beam="1">  1        1 0.20058663E+00 0.69847524E+03</pdfrwt>
<pdfrwt beam="2">  1       -1 0.34280399E-01 0.69847524E+03</pdfrwt>
<totfact> 0.74455945E+01</totfact>
</mgrwt>
</event>
<event>
 4    1  0.1043382E-007  0.9335800E+03  0.7818608E-02  0.9474143E-01
          1   -1    0    0  501    0  0.00000000000E+00  0.00000000000E+00  0.20937554577E+04  0.20937554577E+04  0.50400000000E-02 0. -1.
         -1   -1    0    0    0  501 -0.00000000000E+00 -0.00000000000E+00 -0.36647278594E+03  0.36647278597E+03  0.50400000000E-02 0.  1.
    8880023    1    1    2    0    0 -0.19594231572E+03 -0.63195575018E+03  0.50360465861E+03  0.10607494142E+04  0.65864270000E+03 0.  0.
    8880022    1    1    2    0    0  0.19594231572E+03  0.63195575018E+03  0.12236780132E+04  0.13994788295E+04  0.15294330000E+03 0.  0.
<mgrwt>
<rscale>  0 0.86217278E+03</rscale>
<asrwt>0</asrwt>
<pdfrwt beam="1">  1        1 0.32211623E+00 0.93358003E+03</pdfrwt>
<pdfrwt beam="2">  1       -1 0.56380428E-01 0.93358003E+03</pdfrwt>
<totfact> 0.83639824E+00</totfact>
</mgrwt>
</event>
<event>
 4    1  0.1043382E-007  0.9571806E+03  0.7818608E-02  0.9439857E-01
         -1   -1    0    0    0  501 -0.00000000000E+00  0.00000000000E+00  0.12313710864E+04  0.12313710864E+04  0.50400000000E-02 0.  1.
          1   -1    0    0  501    0  0.00000000000E+00 -0.00000000000E+00 -0.11695053027E+04  0.11695053027E+04  0.50400000000E-02 0. -1.
    8880023    1    1    2    0    0 -0.49232862381E+03 -0.48989486102E+03  0.89157106704E+03  0.13080877732E+04  0.65864270000E+03 0.  0.
    8880022    1    1    2    0    0  0.49232862381E+03  0.48989486102E+03 -0.82970528331E+03  0.10927886158E+04  0.15294330000E+03 0.  0.
<mgrwt>
<rscale>  0 0.88866934E+03</rscale>
<asrwt>0</asrwt>
<pdfrwt beam="1">  1        1 0.17992389E+00 0.95718058E+03</pdfrwt>
<pdfrwt beam="2">  1       -1 0.18944170E+00 0.95718058E+03</pdfrwt>
<totfact> 0.20269827E+00</totfact>
</mgrwt>
</event>
<event>
 4    1  0.1043382E-007  0.9308492E+03  0.7818608E-02  0.9478220E-01
          1   -1    0    0  501    0  0.00000000000E+00  0.00000000000E+00  0.12030482214E+04  0.12030482214E+04  0.50400000000E-02 0. -1.
         -1   -1    0    0    0  501 -0.00000000000E+00 -0.00000000000E+00 -0.10835190078E+04  0.10835190078E+04  0.50400000000E-02 0.  1.
    8880023    1    1    2    0    0 -0.12730396328E+03  0.64534000453E+03 -0.74306625911E+03  0.11910615820E+04  0.65864270000E+03 0.  0.
    8880022    1    1    2    0    0  0.12730396328E+03 -0.64534000453E+03  0.86259547272E+03  0.10955056472E+04  0.15294330000E+03 0.  0.
<mgrwt>
<rscale>  0 0.85908759E+03</rscale>
<asrwt>0</asrwt>
<pdfrwt beam="1">  1        1 0.18508434E+00 0.93084920E+03</pdfrwt>
<pdfrwt beam="2">  1       -1 0.16669523E+00 0.93084920E+03</pdfrwt>
<totfact> 0.28034703E+00</totfact>
</mgrwt>
</event>
<event>
 4    1  0.1043382E-007  0.8049774E+03  0.7818608E-02  0.9700135E-01
         -1   -1    0    0    0  501 -0.00000000000E+00  0.00000000000E+00  0.27331332199E+04  0.27331332199E+04  0.50400000000E-02 0.  1.
          1   -1    0    0  501    0  0.00000000000E+00 -0.00000000000E+00 -0.10117268644E+04  0.10117268644E+04  0.50400000000E-02 0. -1.
    8880023    1    1    2    0    0 -0.46127734345E+03  0.37438907689E+02  0.26100275291E+04  0.27313425944E+04  0.65864270000E+03 0.  1.
    8880022    1    1    2    0    0  0.46127734345E+03 -0.37438907689E+02 -0.88862117349E+03  0.10135174899E+04  0.15294330000E+03 0.  0.
<mgrwt>
<rscale>  0 0.71008731E+03</rscale>
<asrwt>0</asrwt>
<pdfrwt beam="1">  1        1 0.15565028E+00 0.80497743E+03</pdfrwt>
<pdfrwt beam="2">  1       -1 0.42048204E+00 0.80497743E+03</pdfrwt>
<totfact> 0.82047701E-02</totfact>
</mgrwt>
</event>
<event>
 4    1  0.1043382E-007  0.6669608E+03  0.7818608E-02  0.1017942E+00
         -1   -1    0    0    0  501 -0.00000000000E+00  0.00000000000E+00  0.15707126630E+04  0.15707126630E+04  0.50400000000E-02 0.  1.
          1   -1    0    0  501    0  0.00000000000E+00 -0.00000000000E+00 -0.13577841725E+03  0.13577841734E+03  0.50400000000E-02 0. -1.
    8880023    1    1    2    0    0 -0.37393857396E+02 -0.98123081924E+02  0.13428786716E+04  0.14993864655E+04  0.65864270000E+03 0.  1.
    8880022    1    1    2    0    0  0.37393857396E+02  0.98123081924E+02  0.92055574136E+02  0.20710461492E+03  0.15294330000E+03 0. -1.
<mgrwt>
<rscale>  0 0.48436590E+03</rscale>
<asrwt>0</asrwt>
<pdfrwt beam="1">  1        1 0.20888987E-01 0.66696075E+03</pdfrwt>
<pdfrwt beam="2">  1       -1 0.24164811E+00 0.66696075E+03</pdfrwt>
<totfact> 0.20351642E+01</totfact>
</mgrwt>
</event>
<event>
 4    1  0.1043382E-007  0.7767178E+03  0.7818608E-02  0.9763604E-01
          1   -1    0    0  501    0  0.00000000000E+00  0.00000000000E+00  0.44823621448E+03  0.44823621451E+03  0.50400000000E-02 0. -1.
         -1   -1    0    0    0  501 -0.00000000000E+00 -0.00000000000E+00 -0.12887284650E+04  0.12887284650E+04  0.50400000000E-02 0.  1.
    8880023    1    1    2    0    0 -0.12798303340E+03  0.39128073528E+03 -0.10030956565E+04  0.12686573111E+04  0.65864270000E+03 0.  1.
    8880022    1    1    2    0    0  0.12798303340E+03 -0.39128073528E+03  0.16260340601E+03  0.46830736841E+03  0.15294330000E+03 0.  1.
<mgrwt>
<rscale>  0 0.67352862E+03</rscale>
<asrwt>0</asrwt>
<pdfrwt beam="1">  1        1 0.68959418E-01 0.77671776E+03</pdfrwt>
<pdfrwt beam="2">  1       -1 0.19826592E+00 0.77671776E+03</pdfrwt>
<totfact> 0.81971863E+00</totfact>
</mgrwt>
</event>
<event>
 4    1  0.1043382E-007  0.7673265E+03  0.7818608E-02  0.9786496E-01
         -1   -1    0    0    0  501 -0.00000000000E+00  0.00000000000E+00  0.37496729311E+03  0.37496729315E+03  0.50400000000E-02 0.  1.
          1   -1    0    0  501    0  0.00000000000E+00 -0.00000000000E+00 -0.10739982367E+04  0.10739982367E+04  0.50400000000E-02 0. -1.
    8880023    1    1    2    0    0 -0.19779924565E+03  0.34037510107E+03 -0.19564734718E+03  0.79187615302E+03  0.65864270000E+03 0.  1.
    8880022    1    1    2    0    0  0.19779924565E+03 -0.34037510107E+03 -0.50338359644E+03  0.65708937687E+03  0.15294330000E+03 0.  0.
<mgrwt>
<rscale>  0 0.66092290E+03</rscale>
<asrwt>0</asrwt>
<pdfrwt beam="1">  1        1 0.16523050E+00 0.76732650E+03</pdfrwt>
<pdfrwt beam="2">  1       -1 0.57687277E-01 0.76732650E+03</pdfrwt>
<totfact> 0.41349417E+01</totfact>
</mgrwt>
</event>
<event>
 4    1  0.1043382E-007  0.7818555E+03  0.7818608E-02  0.9751496E-01
         -1   -1    0    0    0  501 -0.00000000000E+00  0.00000000000E+00  0.53640801256E+03  0.53640801258E+03  0.50400000000E-02 0.  1.
          1   -1    0    0  501    0  0.00000000000E+00 -0.00000000000E+00 -0.30925830226E+04  0.30925830226E+04  0.50400000000E-02 0. -1.
    8880023    1    1    2    0    0  0.38967033981E+03  0.16014010852E+03  0.22369115329E+03  0.81322553231E+03  0.65864270000E+03 0.  1.
    8880022    1    1    2    0    0 -0.38967033981E+03 -0.16014010852E+03 -0.27798661633E+04  0.28157655029E+04  0.15294330000E+03 0.  0.
<mgrwt>
<rscale>  0 0.68031778E+03</rscale>
<asrwt>0</asrwt>
<pdfrwt beam="1">  1        1 0.47578200E+00 0.78185551E+03</pdfrwt>
<pdfrwt beam="2">  1       -1 0.82524311E-01 0.78185551E+03</pdfrwt>
<totfact> 0.80143248E-01</totfact>
</mgrwt>
</event>
<event>
 4    1  0.1043382E-007  0.6627349E+03  0.7818608E-02  0.1021514E+00
          1   -1    0    0  501    0  0.00000000000E+00  0.00000000000E+00  0.10979854186E+04  0.10979854186E+04  0.50400000000E-02 0. -1.
         -1   -1    0    0    0  501 -0.00000000000E+00 -0.00000000000E+00 -0.36751105627E+03  0.36751105630E+03  0.50400000000E-02 0.  1.
    8880023    1    1    2    0    0 -0.29341231449E+02 -0.67426809135E+02 -0.52056208148E+02  0.66477615595E+03  0.65864270000E+03 0.  1.
    8880022    1    1    2    0    0  0.29341231449E+02  0.67426809135E+02  0.78253057049E+03  0.80072031898E+03  0.15294330000E+03 0.  0.
<mgrwt>
<rscale>  0 0.47144053E+03</rscale>
<asrwt>0</asrwt>
<pdfrwt beam="1">  1        1 0.16892083E+00 0.66273486E+03</pdfrwt>
<pdfrwt beam="2">  1       -1 0.56540162E-01 0.66273486E+03</pdfrwt>
<totfact> 0.41734260E+01</totfact>
</mgrwt>
</event>
<event>
 4    1  0.1043382E-007  0.6649680E+03  0.7818608E-02  0.1019560E+00
          1   -1    0    0  501    0  0.00000000000E+00  0.00000000000E+00  0.61583531022E+03  0.61583531024E+03  0.50400000000E-02 0. -1.
         -1   -1    0    0    0  501 -0.00000000000E+00 -0.00000000000E+00 -0.78883430661E+03  0.78883430662E+03  0.50400000000E-02 0.  1.
    8880023    1    1    2    0    0 -0.61573335052E+02  0.67682449158E+02 -0.62884568676E+03  0.91522089876E+03  0.65864270000E+03 0.  0.
    8880022    1    1    2    0    0  0.61573335052E+02 -0.67682449158E+02  0.45584669037E+03  0.48944871810E+03  0.15294330000E+03 0. -1.
<mgrwt>
<rscale>  0 0.47845618E+03</rscale>
<asrwt>0</asrwt>
<pdfrwt beam="1">  1        1 0.94743894E-01 0.66496797E+03</pdfrwt>
<pdfrwt beam="2">  1       -1 0.12135912E+00 0.66496797E+03</pdfrwt>
<totfact> 0.20583866E+01</totfact>
</mgrwt>
</event>
<event>
 4    1  0.1043382E-007  0.9324927E+03  0.7818608E-02  0.9475764E-01
         -1   -1    0    0    0  501 -0.00000000000E+00  0.00000000000E+00  0.11847388439E+04  0.11847388439E+04  0.50400000000E-02 0.  1.
          1   -1    0    0  501    0  0.00000000000E+00 -0.00000000000E+00 -0.59236462284E+03  0.59236462286E+03  0.50400000000E-02 0. -1.
    8880023    1    1    2    0    0 -0.20457755295E+03  0.62759891215E+03  0.58243787905E+03  0.10994437043E+04  0.65864270000E+03 0. -1.
    8880022    1    1    2    0    0  0.20457755295E+03 -0.62759891215E+03  0.99363419680E+01  0.67765976242E+03  0.15294330000E+03 0.  0.
<mgrwt>
<rscale>  0 0.86094483E+03</rscale>
<asrwt>0</asrwt>
<pdfrwt beam="1">  1        1 0.91133019E-01 0.93249267E+03</pdfrwt>
<pdfrwt beam="2">  1       -1 0.18226751E+00 0.93249267E+03</pdfrwt>
<totfact> 0.70676690E+00</totfact>
</mgrwt>
</event>
<event>
 4    1  0.1043382E-007  0.1001952E+04  0.7818608E-02  0.9379008E-01
         -1   -1    0    0    0  501 -0.00000000000E+00  0.00000000000E+00  0.38929996727E+03  0.38929996730E+03  0.50400000000E-02 0.  1.
          1   -1    0    0  501    0  0.00000000000E+00 -0.00000000000E+00 -0.25389277818E+04  0.25389277818E+04  0.50400000000E-02 0. -1.
    8880023    1    1    2    0    0  0.71423911887E+03 -0.24486846232E+03 -0.18455767901E+04  0.21000147564E+04  0.65864270000E+03 0.  0.
    8880022    1    1    2    0    0 -0.71423911887E+03  0.24486846232E+03 -0.30405102440E+03  0.82821299266E+03  0.15294330000E+03 0.  0.
<mgrwt>
<rscale>  0 0.93823562E+03</rscale>
<asrwt>0</asrwt>
<pdfrwt beam="1">  1        1 0.39060426E+00 0.10019522E+04</pdfrwt>
<pdfrwt beam="2">  1       -1 0.59892304E-01 0.10019522E+04</pdfrwt>
<totfact> 0.36668332E+00</totfact>
</mgrwt>
</event>
<event>
 4    1  0.1043382E-007  0.7077560E+03  0.7818608E-02  0.9966430E-01
         -1   -1    0    0    0  501 -0.00000000000E+00  0.00000000000E+00  0.16124888449E+03  0.16124888457E+03  0.50400000000E-02 0.  1.
          1   -1    0    0  501    0  0.00000000000E+00 -0.00000000000E+00 -0.50719306138E+04  0.50719306138E+04  0.50400000000E-02 0. -1.
    8880023    1    1    2    0    0  0.96117342055E+02  0.24056136693E+03 -0.64706791317E+03  0.95896579982E+03  0.65864270000E+03 0.  1.
    8880022    1    1    2    0    0 -0.96117342055E+02 -0.24056136693E+03 -0.42636138161E+04  0.42742136986E+04  0.15294330000E+03 0.  0.
<mgrwt>
<rscale>  0 0.57147036E+03</rscale>
<asrwt>0</asrwt>
<pdfrwt beam="1">  1        1 0.78029690E+00 0.70775598E+03</pdfrwt>
<pdfrwt beam="2">  1       -1 0.24807525E-01 0.70775598E+03</pdfrwt>
<totfact> 0.11710359E-01</totfact>
</mgrwt>
</event>
<event>
 4    1  0.1043382E-007  0.7875149E+03  0.7818608E-02  0.9738471E-01
         -1   -1    0    0    0  501 -0.00000000000E+00  0.00000000000E+00  0.20272915430E+03  0.20272915437E+03  0.50400000000E-02 0.  1.
          1   -1    0    0  501    0  0.00000000000E+00 -0.00000000000E+00 -0.24227653994E+04  0.24227653994E+04  0.50400000000E-02 0. -1.
    8880023    1    1    2    0    0  0.23869807356E+03  0.35971203871E+03 -0.19271717652E+04  0.20818671283E+04  0.65864270000E+03 0. -1.
    8880022    1    1    2    0    0 -0.23869807356E+03 -0.35971203871E+03 -0.29286447990E+03  0.54362742546E+03  0.15294330000E+03 0.  0.
<mgrwt>
<rscale>  0 0.68771695E+03</rscale>
<asrwt>0</asrwt>
<pdfrwt beam="1">  1        1 0.37273312E+00 0.78751491E+03</pdfrwt>
<pdfrwt beam="2">  1       -1 0.31189102E-01 0.78751491E+03</pdfrwt>
<totfact> 0.15227327E+01</totfact>
</mgrwt>
</event>
<event>
 4    1  0.1043382E-007  0.9814617E+03  0.7818608E-02  0.9406224E-01
         -1   -1    0    0    0  501 -0.00000000000E+00  0.00000000000E+00  0.73103498360E+03  0.73103498362E+03  0.50400000000E-02 0.  1.
          1   -1    0    0  501    0  0.00000000000E+00 -0.00000000000E+00 -0.27922733674E+04  0.27922733674E+04  0.50400000000E-02 0. -1.
    8880023    1    1    2    0    0  0.51137177626E+03  0.51764443864E+03  0.31712930178E+03  0.10314252560E+04  0.65864270000E+03 0.  0.
    8880022    1    1    2    0    0 -0.51137177626E+03 -0.51764443864E+03 -0.23783676856E+04  0.24918830950E+04  0.15294330000E+03 0.  0.
<mgrwt>
<rscale>  0 0.91565271E+03</rscale>
<asrwt>0</asrwt>
<pdfrwt beam="1">  1        1 0.42958051E+00 0.98146170E+03</pdfrwt>
<pdfrwt beam="2">  1       -1 0.11246692E+00 0.98146170E+03</pdfrwt>
<totfact> 0.62760463E-01</totfact>
</mgrwt>
</event>
<event>
 4    1  0.1043382E-007  0.7636457E+03  0.7818608E-02  0.9795759E-01
          1   -1    0    0  501    0  0.00000000000E+00  0.00000000000E+00  0.62334249781E+03  0.62334249784E+03  0.50400000000E-02 0. -1.
         -1   -1    0    0    0  501 -0.00000000000E+00 -0.00000000000E+00 -0.16259269617E+04  0.16259269617E+04  0.50400000000E-02 0.  1.
    8880023    1    1    2    0    0  0.38420789193E+03 -0.41580142536E+02 -0.14498784810E+04  0.16386892410E+04  0.65864270000E+03 0.  1.
    8880022    1    1    2    0    0 -0.38420789193E+03  0.41580142536E+02  0.44729401716E+03  0.61058021855E+03  0.15294330000E+03 0.  0.
<mgrwt>
<rscale>  0 0.65590643E+03</rscale>
<asrwt>0</asrwt>
<pdfrwt beam="1">  1        1 0.95898846E-01 0.76364574E+03</pdfrwt>
<pdfrwt beam="2">  1       -1 0.25014261E+00 0.76364574E+03</pdfrwt>
<totfact> 0.23497162E+00</totfact>
</mgrwt>
</event>
<event>
 4    1  0.1043382E-007  0.7741094E+03  0.7818608E-02  0.9769860E-01
         -1   -1    0    0    0  501 -0.00000000000E+00  0.00000000000E+00  0.25935043141E+03  0.25935043146E+03  0.50400000000E-02 0.  1.
          1   -1    0    0  501    0  0.00000000000E+00 -0.00000000000E+00 -0.18368149695E+04  0.18368149695E+04  0.50400000000E-02 0. -1.
    8880023    1    1    2    0    0  0.10901310569E+03 -0.39185626631E+03 -0.46786661779E+03  0.90451344322E+03  0.65864270000E+03 0.  0.
    8880022    1    1    2    0    0 -0.10901310569E+03  0.39185626631E+03 -0.11095979203E+04  0.11916519578E+04  0.15294330000E+03 0.  0.
<mgrwt>
<rscale>  0 0.67005389E+03</rscale>
<asrwt>0</asrwt>
<pdfrwt beam="1">  1        1 0.28258691E+00 0.77410942E+03</pdfrwt>
<pdfrwt beam="2">  1       -1 0.39900068E-01 0.77410942E+03</pdfrwt>
<totfact> 0.24332868E+01</totfact>
</mgrwt>
</event>
<event>
 4    1  0.1090541E-007  0.8347456E+03  0.7818608E-02  0.9640169E-01
          1   -1    0    0  501    0  0.00000000000E+00  0.00000000000E+00  0.10903539438E+04  0.10903539438E+04  0.50400000000E-02 0. -1.
         -1   -1    0    0    0  501 -0.00000000000E+00 -0.00000000000E+00 -0.19909724539E+04  0.19909724539E+04  0.50400000000E-02 0.  1.
    8880023    1    1    2    0    0 -0.32908796186E+03  0.39330786005E+03 -0.18285879560E+04  0.20101079769E+04  0.65864270000E+03 0.  1.
    8880022    1    1    2    0    0  0.32908796186E+03 -0.39330786005E+03  0.92796944599E+03  0.10712184208E+04  0.15294330000E+03 0.  0.
<mgrwt>
<rscale>  0 0.74693659E+03</rscale>
<asrwt>0</asrwt>
<pdfrwt beam="1">  1        1 0.16774676E+00 0.83474557E+03</pdfrwt>
<pdfrwt beam="2">  1       -1 0.30630345E+00 0.83474557E+03</pdfrwt>
<totfact> 0.40542225E-01</totfact>
</mgrwt>
</event>
<event>
 4    1  0.1043382E-007  0.9432360E+03  0.7818608E-02  0.9459914E-01
          1   -1    0    0  501    0  0.00000000000E+00  0.00000000000E+00  0.15574216464E+04  0.15574216464E+04  0.50400000000E-02 0. -1.
         -1   -1    0    0    0  501 -0.00000000000E+00 -0.00000000000E+00 -0.63205564238E+03  0.63205564240E+03  0.50400000000E-02 0.  1.
    8880023    1    1    2    0    0  0.13921563685E+03  0.66068364463E+03  0.11258338311E+04  0.14687395594E+04  0.65864270000E+03 0.  0.
    8880022    1    1    2    0    0 -0.13921563685E+03 -0.66068364463E+03 -0.20046782712E+03  0.72073772938E+03  0.15294330000E+03 0.  0.
<mgrwt>
<rscale>  0 0.87304860E+03</rscale>
<asrwt>0</asrwt>
<pdfrwt beam="1">  1        1 0.23960333E+00 0.94323596E+03</pdfrwt>
<pdfrwt beam="2">  1       -1 0.97239331E-01 0.94323596E+03</pdfrwt>
<totfact> 0.61449237E+00</totfact>
</mgrwt>
</event>
<event>
 4    1  0.1043382E-007  0.7781663E+03  0.7818608E-02  0.9760162E-01
         -1   -1    0    0    0  501 -0.00000000000E+00  0.00000000000E+00  0.84887735615E+03  0.84887735617E+03  0.50400000000E-02 0.  1.
          1   -1    0    0  501    0  0.00000000000E+00 -0.00000000000E+00 -0.59900170436E+03  0.59900170438E+03  0.50400000000E-02 0. -1.
    8880023    1    1    2    0    0 -0.41434318465E+03 -0.72336262736E+01  0.51457324523E+03  0.93291394619E+03  0.65864270000E+03 0.  1.
    8880022    1    1    2    0    0  0.41434318465E+03  0.72336262736E+01 -0.26469759344E+03  0.51496511436E+03  0.15294330000E+03 0.  0.
<mgrwt>
<rscale>  0 0.67545003E+03</rscale>
<asrwt>0</asrwt>
<pdfrwt beam="1">  1        1 0.92154109E-01 0.77816631E+03</pdfrwt>
<pdfrwt beam="2">  1       -1 0.13059652E+00 0.77816631E+03</pdfrwt>
<totfact> 0.17621135E+01</totfact>
</mgrwt>
</event>
<event>
 4    1  0.1043382E-007  0.8526285E+03  0.7818608E-02  0.9606813E-01
          1   -1    0    0  501    0  0.00000000000E+00  0.00000000000E+00  0.63233534315E+03  0.63233534317E+03  0.50400000000E-02 0. -1.
         -1   -1    0    0    0  501 -0.00000000000E+00 -0.00000000000E+00 -0.14965947895E+04  0.14965947895E+04  0.50400000000E-02 0.  1.
    8880023    1    1    2    0    0  0.16005476893E+03 -0.51725002289E+03 -0.12012583529E+04  0.14730909517E+04  0.65864270000E+03 0.  1.
    8880022    1    1    2    0    0 -0.16005476893E+03  0.51725002289E+03  0.33699890658E+03  0.65583918097E+03  0.15294330000E+03 0.  0.
<mgrwt>
<rscale>  0 0.76846895E+03</rscale>
<asrwt>0</asrwt>
<pdfrwt beam="1">  1        1 0.97282361E-01 0.85262848E+03</pdfrwt>
<pdfrwt beam="2">  1       -1 0.23024535E+00 0.85262848E+03</pdfrwt>
<totfact> 0.30591298E+00</totfact>
</mgrwt>
</event>
<event>
 4    1  0.1043382E-007  0.9575431E+03  0.7818608E-02  0.9439343E-01
         -1   -1    0    0    0  501 -0.00000000000E+00  0.00000000000E+00  0.59065536564E+03  0.59065536566E+03  0.50400000000E-02 0.  1.
          1   -1    0    0  501    0  0.00000000000E+00 -0.00000000000E+00 -0.14200937219E+04  0.14200937219E+04  0.50400000000E-02 0. -1.
    8880023    1    1    2    0    0 -0.48381397277E+03  0.49900169583E+03 -0.87568643819E+03  0.12975806707E+04  0.65864270000E+03 0. -1.
    8880022    1    1    2    0    0  0.48381397277E+03 -0.49900169583E+03  0.46248081953E+02  0.71316841685E+03  0.15294330000E+03 0.  0.
<mgrwt>
<rscale>  0 0.88907420E+03</rscale>
<asrwt>0</asrwt>
<pdfrwt beam="1">  1        1 0.21847596E+00 0.95754314E+03</pdfrwt>
<pdfrwt beam="2">  1       -1 0.90870057E-01 0.95754314E+03</pdfrwt>
<totfact> 0.88817578E+00</totfact>
</mgrwt>
</event>
<event>
 4    1  0.1043382E-007  0.1009382E+04  0.7818608E-02  0.9369385E-01
          1   -1    0    0  501    0  0.00000000000E+00  0.00000000000E+00  0.76298097267E+03  0.76298097268E+03  0.50400000000E-02 0. -1.
         -1   -1    0    0    0  501 -0.00000000000E+00 -0.00000000000E+00 -0.15745676919E+04  0.15745676919E+04  0.50400000000E-02 0.  1.
    8880023    1    1    2    0    0 -0.60106749494E+03 -0.47303271347E+03 -0.11118900273E+04  0.15017162583E+04  0.65864270000E+03 0.  0.
    8880022    1    1    2    0    0  0.60106749494E+03  0.47303271347E+03  0.30030330807E+03  0.83583240625E+03  0.15294330000E+03 0.  0.
<mgrwt>
<rscale>  0 0.94638614E+03</rscale>
<asrwt>0</asrwt>
<pdfrwt beam="1">  1        1 0.11738169E+00 0.10093821E+04</pdfrwt>
<pdfrwt beam="2">  1       -1 0.24224118E+00 0.10093821E+04</pdfrwt>
<totfact> 0.18797784E+00</totfact>
</mgrwt>
</event>
<event>
 4    1  0.1043382E-007  0.6681927E+03  0.7818608E-02  0.1016993E+00
         -1   -1    0    0    0  501 -0.00000000000E+00  0.00000000000E+00  0.29131795882E+03  0.29131795886E+03  0.50400000000E-02 0.  1.
          1   -1    0    0  501    0  0.00000000000E+00 -0.00000000000E+00 -0.17361107076E+04  0.17361107076E+04  0.50400000000E-02 0. -1.
    8880023    1    1    2    0    0  0.40260602485E+02 -0.10512086545E+03 -0.10757848149E+03  0.67679734663E+03  0.65864270000E+03 0.  1.
    8880022    1    1    2    0    0 -0.40260602485E+02  0.10512086545E+03 -0.13372142672E+04  0.13506313198E+04  0.15294330000E+03 0.  0.
<mgrwt>
<rscale>  0 0.48787547E+03</rscale>
<asrwt>0</asrwt>
<pdfrwt beam="1">  1        1 0.26709395E+00 0.66819273E+03</pdfrwt>
<pdfrwt beam="2">  1       -1 0.44818149E-01 0.66819273E+03</pdfrwt>
<totfact> 0.23299383E+01</totfact>
</mgrwt>
</event>
<event>
 4    1  0.1043382E-007  0.7392637E+03  0.7818608E-02  0.9862097E-01
          1   -1    0    0  501    0  0.00000000000E+00  0.00000000000E+00  0.16912354918E+04  0.16912354918E+04  0.50400000000E-02 0. -1.
         -1   -1    0    0    0  501 -0.00000000000E+00 -0.00000000000E+00 -0.24699922191E+03  0.24699922196E+03  0.50400000000E-02 0.  1.
    8880023    1    1    2    0    0 -0.31923763019E+03 -0.10386490533E+03  0.42146558319E+03  0.85096652529E+03  0.65864270000E+03 0.  0.
    8880022    1    1    2    0    0  0.31923763019E+03  0.10386490533E+03  0.10227706867E+04  0.10872681885E+04  0.15294330000E+03 0.  0.
<mgrwt>
<rscale>  0 0.62133912E+03</rscale>
<asrwt>0</asrwt>
<pdfrwt beam="1">  1        1 0.26019006E+00 0.73926368E+03</pdfrwt>
<pdfrwt beam="2">  1       -1 0.37999882E-01 0.73926368E+03</pdfrwt>
<totfact> 0.33434608E+01</totfact>
</mgrwt>
</event>
<event>
 4    1  0.1043382E-007  0.1131279E+04  0.7818608E-02  0.9227005E-01
         -1   -1    0    0    0  501 -0.00000000000E+00  0.00000000000E+00  0.16187520332E+04  0.16187520333E+04  0.50400000000E-02 0.  1.
          1   -1    0    0  501    0  0.00000000000E+00 -0.00000000000E+00 -0.96168378089E+03  0.96168378091E+03  0.50400000000E-02 0. -1.
    8880023    1    1    2    0    0  0.87466964141E+03  0.28449027606E+03  0.10732410421E+04  0.15593711038E+04  0.65864270000E+03 0.  0.
    8880022    1    1    2    0    0 -0.87466964141E+03 -0.28449027606E+03 -0.41617278972E+03  0.10210647103E+04  0.15294330000E+03 0.  0.
<mgrwt>
<rscale>  0 0.10778990E+04</rscale>
<asrwt>0</asrwt>
<pdfrwt beam="1">  1        1 0.14795135E+00 0.11312789E+04</pdfrwt>
<pdfrwt beam="2">  1       -1 0.24903877E+00 0.11312789E+04</pdfrwt>
<totfact> 0.11367748E+00</totfact>
</mgrwt>
</event>
<event>
 4    1  0.1043382E-007  0.1066297E+04  0.7818608E-02  0.9299542E-01
          1   -1    0    0  501    0  0.00000000000E+00  0.00000000000E+00  0.31416492908E+04  0.31416492908E+04  0.50400000000E-02 0. -1.
         -1   -1    0    0    0  501 -0.00000000000E+00 -0.00000000000E+00 -0.59635363808E+03  0.59635363810E+03  0.50400000000E-02 0.  1.
    8880023    1    1    2    0    0  0.66541915035E+03  0.51029102430E+03  0.13301012295E+02  0.10663801847E+04  0.65864270000E+03 0.  1.
    8880022    1    1    2    0    0 -0.66541915035E+03 -0.51029102430E+03  0.25319946404E+04  0.26716227442E+04  0.15294330000E+03 0.  0.
<mgrwt>
<rscale>  0 0.10082506E+04</rscale>
<asrwt>0</asrwt>
<pdfrwt beam="1">  1        1 0.48333067E+00 0.10662972E+04</pdfrwt>
<pdfrwt beam="2">  1       -1 0.91746712E-01 0.10662972E+04</pdfrwt>
<totfact> 0.55467179E-01</totfact>
</mgrwt>
</event>
<event>
 4    1  0.1043382E-007  0.7976402E+03  0.7818608E-02  0.9715922E-01
         -1   -1    0    0    0  501 -0.00000000000E+00  0.00000000000E+00  0.30292007156E+03  0.30292007160E+03  0.50400000000E-02 0.  1.
          1   -1    0    0  501    0  0.00000000000E+00 -0.00000000000E+00 -0.29596590387E+04  0.29596590387E+04  0.50400000000E-02 0. -1.
    8880023    1    1    2    0    0  0.41726240427E+03 -0.16826108121E+03 -0.29018196424E+03  0.84878471010E+03  0.65864270000E+03 0.  1.
    8880022    1    1    2    0    0 -0.41726240427E+03  0.16826108121E+03 -0.23665570029E+04  0.24137944002E+04  0.15294330000E+03 0.  0.
<mgrwt>
<rscale>  0 0.70076678E+03</rscale>
<asrwt>0</asrwt>
<pdfrwt beam="1">  1        1 0.45533214E+00 0.79764021E+03</pdfrwt>
<pdfrwt beam="2">  1       -1 0.46603090E-01 0.79764021E+03</pdfrwt>
<totfact> 0.31124523E+00</totfact>
</mgrwt>
</event>
<event>
 4    1  0.1043382E-007  0.8242747E+03  0.7818608E-02  0.9660577E-01
          1   -1    0    0  501    0  0.00000000000E+00  0.00000000000E+00  0.18591611202E+04  0.18591611202E+04  0.50400000000E-02 0. -1.
         -1   -1    0    0    0  501 -0.00000000000E+00 -0.00000000000E+00 -0.37616410343E+03  0.37616410346E+03  0.50400000000E-02 0.  1.
    8880023    1    1    2    0    0 -0.10525164089E+03  0.48429390461E+03  0.19529586365E+03  0.84709454878E+03  0.65864270000E+03 0.  1.
    8880022    1    1    2    0    0  0.10525164089E+03 -0.48429390461E+03  0.12877011532E+04  0.13882306749E+04  0.15294330000E+03 0.  0.
<mgrwt>
<rscale>  0 0.73413350E+03</rscale>
<asrwt>0</asrwt>
<pdfrwt beam="1">  1        1 0.28602478E+00 0.82427465E+03</pdfrwt>
<pdfrwt beam="2">  1       -1 0.57871401E-01 0.82427465E+03</pdfrwt>
<totfact> 0.11589022E+01</totfact>
</mgrwt>
</event>
<event>
 4    1  0.1043382E-007  0.9805309E+03  0.7818608E-02  0.9407484E-01
          1   -1    0    0  501    0  0.00000000000E+00  0.00000000000E+00  0.13496205886E+04  0.13496205886E+04  0.50400000000E-02 0. -1.
         -1   -1    0    0    0  501 -0.00000000000E+00 -0.00000000000E+00 -0.10394571395E+04  0.10394571395E+04  0.50400000000E-02 0.  1.
    8880023    1    1    2    0    0  0.36269155977E+02  0.72547586815E+03 -0.64927176393E+03  0.11760079577E+04  0.65864270000E+03 0.  1.
    8880022    1    1    2    0    0 -0.36269155977E+02 -0.72547586815E+03  0.95943521300E+03  0.12130697704E+04  0.15294330000E+03 0.  0.
<mgrwt>
<rscale>  0 0.91462301E+03</rscale>
<asrwt>0</asrwt>
<pdfrwt beam="1">  1        1 0.20763394E+00 0.98053092E+03</pdfrwt>
<pdfrwt beam="2">  1       -1 0.15991648E+00 0.98053092E+03</pdfrwt>
<totfact> 0.24579070E+00</totfact>
</mgrwt>
</event>
<event>
 4    1  0.1043382E-007  0.7676246E+03  0.7818608E-02  0.9785754E-01
         -1   -1    0    0    0  501 -0.00000000000E+00  0.00000000000E+00  0.93094251383E+03  0.93094251384E+03  0.50400000000E-02 0.  1.
          1   -1    0    0  501    0  0.00000000000E+00 -0.00000000000E+00 -0.66866353716E+03  0.66866353718E+03  0.50400000000E-02 0. -1.
    8880023    1    1    2    0    0  0.36296296256E+03  0.15393245151E+03  0.66502108837E+03  0.10156281633E+04  0.65864270000E+03 0.  1.
    8880022    1    1    2    0    0 -0.36296296256E+03 -0.15393245151E+03 -0.40274211170E+03  0.58397788774E+03  0.15294330000E+03 0.  0.
<mgrwt>
<rscale>  0 0.66132721E+03</rscale>
<asrwt>0</asrwt>
<pdfrwt beam="1">  1        1 0.10287131E+00 0.76762459E+03</pdfrwt>
<pdfrwt beam="2">  1       -1 0.14322192E+00 0.76762459E+03</pdfrwt>
<totfact> 0.11842123E+01</totfact>
</mgrwt>
</event>
<event>
 4    1  0.1043382E-007  0.6641449E+03  0.7818608E-02  0.1020262E+00
         -1   -1    0    0    0  501 -0.00000000000E+00  0.00000000000E+00  0.45552033518E+03  0.45552033521E+03  0.50400000000E-02 0.  1.
          1   -1    0    0  501    0  0.00000000000E+00 -0.00000000000E+00 -0.48709749124E+03  0.48709749127E+03  0.50400000000E-02 0. -1.
    8880023    1    1    2    0    0 -0.80599293324E+02  0.27964640918E+02  0.15990862771E+03  0.68312461726E+03  0.65864270000E+03 0.  1.
    8880022    1    1    2    0    0  0.80599293324E+02 -0.27964640918E+02 -0.19148578377E+03  0.25949320922E+03  0.15294330000E+03 0.  0.
<mgrwt>
<rscale>  0 0.47592248E+03</rscale>
<asrwt>0</asrwt>
<pdfrwt beam="1">  1        1 0.74938076E-01 0.66414492E+03</pdfrwt>
<pdfrwt beam="2">  1       -1 0.70080051E-01 0.66414492E+03</pdfrwt>
<totfact> 0.96872900E+01</totfact>
</mgrwt>
</event>
<event>
 4    1  0.1043382E-007  0.8015394E+03  0.7818608E-02  0.9707477E-01
          1   -1    0    0  501    0  0.00000000000E+00  0.00000000000E+00  0.17053006321E+04  0.17053006321E+04  0.50400000000E-02 0. -1.
         -1   -1    0    0    0  501 -0.00000000000E+00 -0.00000000000E+00 -0.32430075627E+03  0.32430075631E+03  0.50400000000E-02 0.  1.
    8880023    1    1    2    0    0  0.85746015884E+01 -0.45670739679E+03  0.31757426594E+03  0.86215937664E+03  0.65864270000E+03 0.  0.
    8880022    1    1    2    0    0 -0.85746015884E+01  0.45670739679E+03  0.10634256098E+04  0.11674420117E+04  0.15294330000E+03 0.  0.
<mgrwt>
<rscale>  0 0.70573329E+03</rscale>
<asrwt>0</asrwt>
<pdfrwt beam="1">  1        1 0.26235394E+00 0.80153938E+03</pdfrwt>
<pdfrwt beam="2">  1       -1 0.49892424E-01 0.80153938E+03</pdfrwt>
<totfact> 0.19625345E+01</totfact>
</mgrwt>
</event>
<event>
 4    1  0.1043382E-007  0.6936598E+03  0.7818608E-02  0.1002459E+00
          1   -1    0    0  501    0  0.00000000000E+00  0.00000000000E+00  0.30542602170E+03  0.30542602174E+03  0.50400000000E-02 0. -1.
         -1   -1    0    0    0  501 -0.00000000000E+00 -0.00000000000E+00 -0.10252825938E+04  0.10252825938E+04  0.50400000000E-02 0.  1.
    8880023    1    1    2    0    0 -0.11391471190E+03 -0.18541094099E+03 -0.79425773061E+03  0.10545185288E+04  0.65864270000E+03 0.  1.
    8880022    1    1    2    0    0  0.11391471190E+03  0.18541094099E+03  0.74401158518E+02  0.27619008677E+03  0.15294330000E+03 0.  0.
<mgrwt>
<rscale>  0 0.54584862E+03</rscale>
<asrwt>0</asrwt>
<pdfrwt beam="1">  1        1 0.46988619E-01 0.69365985E+03</pdfrwt>
<pdfrwt beam="2">  1       -1 0.15773578E+00 0.69365985E+03</pdfrwt>
<totfact> 0.26807993E+01</totfact>
</mgrwt>
</event>
<event>
 4    1  0.1043382E-007  0.7633405E+03  0.7818608E-02  0.9796535E-01
          1   -1    0    0  501    0  0.00000000000E+00  0.00000000000E+00  0.15063477205E+04  0.15063477205E+04  0.50400000000E-02 0. -1.
         -1   -1    0    0    0  501 -0.00000000000E+00 -0.00000000000E+00 -0.66848856223E+03  0.66848856225E+03  0.50400000000E-02 0.  1.
    8880023    1    1    2    0    0 -0.11349817939E+03 -0.36877724060E+03 -0.40526716724E+03  0.86425122101E+03  0.65864270000E+03 0.  0.
    8880022    1    1    2    0    0  0.11349817939E+03  0.36877724060E+03  0.12431263255E+04  0.13105850618E+04  0.15294330000E+03 0.  0.
<mgrwt>
<rscale>  0 0.65548835E+03</rscale>
<asrwt>0</asrwt>
<pdfrwt beam="1">  1        1 0.23174580E+00 0.76334049E+03</pdfrwt>
<pdfrwt beam="2">  1       -1 0.10284439E+00 0.76334049E+03</pdfrwt>
<totfact> 0.60104577E+00</totfact>
</mgrwt>
</event>
<event>
 4    1  0.1043382E-007  0.6714036E+03  0.7818608E-02  0.1014676E+00
         -1   -1    0    0    0  501 -0.00000000000E+00  0.00000000000E+00  0.76905441792E+02  0.76905441958E+02  0.50400000000E-02 0.  1.
          1   -1    0    0  501    0  0.00000000000E+00 -0.00000000000E+00 -0.35381517351E+04  0.35381517351E+04  0.50400000000E-02 0. -1.
    8880023    1    1    2    0    0 -0.33265318871E+02  0.12596026919E+03 -0.14982782160E+04  0.16418344587E+04  0.65864270000E+03 0.  1.
    8880022    1    1    2    0    0  0.33265318871E+02 -0.12596026919E+03 -0.19629680773E+04  0.19732227184E+04  0.15294330000E+03 0.  0.
<mgrwt>
<rscale>  0 0.49657782E+03</rscale>
<asrwt>0</asrwt>
<pdfrwt beam="1">  1        1 0.54433091E+00 0.67140359E+03</pdfrwt>
<pdfrwt beam="2">  1       -1 0.11831609E-01 0.67140359E+03</pdfrwt>
<totfact> 0.12282749E+01</totfact>
</mgrwt>
</event>
<event>
 4    1  0.1043382E-007  0.8067096E+03  0.7818608E-02  0.9696472E-01
          1   -1    0    0  501    0  0.00000000000E+00  0.00000000000E+00  0.71977553283E+03  0.71977553285E+03  0.50400000000E-02 0. -1.
         -1   -1    0    0    0  501 -0.00000000000E+00 -0.00000000000E+00 -0.76301436708E+03  0.76301436709E+03  0.50400000000E-02 0.  1.
    8880023    1    1    2    0    0  0.39270862656E+03  0.25049973245E+03  0.32491487076E+03  0.86968388558E+03  0.65864270000E+03 0. -1.
    8880022    1    1    2    0    0 -0.39270862656E+03 -0.25049973245E+03 -0.36815370500E+03  0.61310601437E+03  0.15294330000E+03 0.  1.
<mgrwt>
<rscale>  0 0.71227239E+03</rscale>
<asrwt>0</asrwt>
<pdfrwt beam="1">  1        1 0.11073470E+00 0.80670961E+03</pdfrwt>
<pdfrwt beam="2">  1       -1 0.11738683E+00 0.80670961E+03</pdfrwt>
<totfact> 0.17414592E+01</totfact>
</mgrwt>
</event>
<event>
 4    1  0.1043382E-007  0.6856249E+03  0.7818608E-02  0.1006305E+00
         -1   -1    0    0    0  501 -0.00000000000E+00  0.00000000000E+00  0.76670544703E+03  0.76670544705E+03  0.50400000000E-02 0.  1.
          1   -1    0    0  501    0  0.00000000000E+00 -0.00000000000E+00 -0.10775122573E+04  0.10775122573E+04  0.50400000000E-02 0. -1.
    8880023    1    1    2    0    0 -0.11422432116E+03  0.15239462101E+03  0.59392138476E+03  0.90709654040E+03  0.65864270000E+03 0.  1.
    8880022    1    1    2    0    0  0.11422432116E+03 -0.15239462101E+03 -0.90472819505E+03  0.93712116398E+03  0.15294330000E+03 0.  0.
<mgrwt>
<rscale>  0 0.52969766E+03</rscale>
<asrwt>0</asrwt>
<pdfrwt beam="1">  1        1 0.16577112E+00 0.68562491E+03</pdfrwt>
<pdfrwt beam="2">  1       -1 0.11795468E+00 0.68562491E+03</pdfrwt>
<totfact> 0.88877048E+00</totfact>
</mgrwt>
</event>
<event>
 4    1  0.1043382E-007  0.6655611E+03  0.7818608E-02  0.1019067E+00
         -1   -1    0    0    0  501 -0.00000000000E+00  0.00000000000E+00  0.68635178526E+03  0.68635178528E+03  0.50400000000E-02 0.  1.
          1   -1    0    0  501    0  0.00000000000E+00 -0.00000000000E+00 -0.45160707211E+03  0.45160707214E+03  0.50400000000E-02 0. -1.
    8880023    1    1    2    0    0 -0.83036459470E+02  0.47605909138E+02  0.48921501601E+03  0.82601629181E+03  0.65864270000E+03 0.  0.
    8880022    1    1    2    0    0  0.83036459470E+02 -0.47605909138E+02 -0.25447030286E+03  0.31194256561E+03  0.15294330000E+03 0. -1.
<mgrwt>
<rscale>  0 0.48024724E+03</rscale>
<asrwt>0</asrwt>
<pdfrwt beam="1">  1        1 0.69478011E-01 0.66556110E+03</pdfrwt>
<pdfrwt beam="2">  1       -1 0.10559258E+00 0.66556110E+03</pdfrwt>
<totfact> 0.44086025E+01</totfact>
</mgrwt>
</event>
<event>
 4    1  0.1143209E-007  0.1312436E+04  0.7818608E-02  0.9054895E-01
         -1   -1    0    0    0  501 -0.00000000000E+00  0.00000000000E+00  0.12087116062E+04  0.12087116062E+04  0.50400000000E-02 0.  1.
          1   -1    0    0  501    0  0.00000000000E+00 -0.00000000000E+00 -0.31032034282E+04  0.31032034282E+04  0.50400000000E-02 0. -1.
    8880023    1    1    2    0    0  0.17744546699E+03  0.11212449406E+04  0.69159271022E+03  0.14835052388E+04  0.65864270000E+03 0.  0.
    8880022    1    1    2    0    0 -0.17744546699E+03 -0.11212449406E+04 -0.25860845322E+04  0.28284097955E+04  0.15294330000E+03 0.  0.
<mgrwt>
<rscale>  0 0.12685368E+04</rscale>
<asrwt>0</asrwt>
<pdfrwt beam="1">  1        1 0.47741591E+00 0.13124356E+04</pdfrwt>
<pdfrwt beam="2">  1       -1 0.18595563E+00 0.13124356E+04</pdfrwt>
<totfact> 0.92364351E-02</totfact>
</mgrwt>
</event>
<event>
 4    1  0.1043382E-007  0.7611515E+03  0.7818608E-02  0.9802136E-01
         -1   -1    0    0    0  501 -0.00000000000E+00  0.00000000000E+00  0.59353305667E+03  0.59353305669E+03  0.50400000000E-02 0.  1.
          1   -1    0    0  501    0  0.00000000000E+00 -0.00000000000E+00 -0.11306582045E+04  0.11306582045E+04  0.50400000000E-02 0. -1.
    8880023    1    1    2    0    0  0.36130696739E+03  0.12246895812E+03 -0.89803619092E+03  0.11772088077E+04  0.65864270000E+03 0.  0.
    8880022    1    1    2    0    0 -0.36130696739E+03 -0.12246895812E+03  0.36091104311E+03  0.54698245351E+03  0.15294330000E+03 0.  0.
<mgrwt>
<rscale>  0 0.65248066E+03</rscale>
<asrwt>0</asrwt>
<pdfrwt beam="1">  1        1 0.17394742E+00 0.76115148E+03</pdfrwt>
<pdfrwt beam="2">  1       -1 0.91312778E-01 0.76115148E+03</pdfrwt>
<totfact> 0.14495753E+01</totfact>
</mgrwt>
</event>
<event>
 4    1  0.1043382E-007  0.6615661E+03  0.7818608E-02  0.1022606E+00
         -1   -1    0    0    0  501 -0.00000000000E+00  0.00000000000E+00  0.60728766229E+02  0.60728766438E+02  0.50400000000E-02 0.  1.
          1   -1    0    0  501    0  0.00000000000E+00 -0.00000000000E+00 -0.37610058654E+04  0.37610058654E+04  0.50400000000E-02 0. -1.
    8880023    1    1    2    0    0 -0.59871157329E+02 -0.16581941528E+02 -0.18615268020E+04  0.19755889646E+04  0.65864270000E+03 0.  1.
    8880022    1    1    2    0    0  0.59871157329E+02  0.16581941528E+02 -0.18387502972E+04  0.18461456673E+04  0.15294330000E+03 0.  0.
<mgrwt>
<rscale>  0 0.46757694E+03</rscale>
<asrwt>0</asrwt>
<pdfrwt beam="1">  1        1 0.57861611E+00 0.66156611E+03</pdfrwt>
<pdfrwt beam="2">  1       -1 0.93428901E-02 0.66156611E+03</pdfrwt>
<totfact> 0.11905062E+01</totfact>
</mgrwt>
</event>
<event>
 4    1  0.1043382E-007  0.6605397E+03  0.7818608E-02  0.1023610E+00
         -1   -1    0    0    0  501 -0.00000000000E+00  0.00000000000E+00  0.45612270636E+03  0.45612270639E+03  0.50400000000E-02 0.  1.
          1   -1    0    0  501    0  0.00000000000E+00 -0.00000000000E+00 -0.16164861775E+04  0.16164861775E+04  0.50400000000E-02 0. -1.
    8880023    1    1    2    0    0  0.11751735186E+02 -0.48625134297E+02  0.20977757340E+03  0.69305075105E+03  0.65864270000E+03 0.  1.
    8880022    1    1    2    0    0 -0.11751735186E+02  0.48625134297E+02 -0.13701410446E+04  0.13795581329E+04  0.15294330000E+03 0.  0.
<mgrwt>
<rscale>  0 0.46406031E+03</rscale>
<asrwt>0</asrwt>
<pdfrwt beam="1">  1        1 0.24869018E+00 0.66053971E+03</pdfrwt>
<pdfrwt beam="2">  1       -1 0.70172725E-01 0.66053971E+03</pdfrwt>
<totfact> 0.11763702E+01</totfact>
</mgrwt>
</event>
<event>
 4    1  0.1043382E-007  0.8063074E+03  0.7818608E-02  0.9697321E-01
          1   -1    0    0  501    0  0.00000000000E+00  0.00000000000E+00  0.28617131570E+04  0.28617131570E+04  0.50400000000E-02 0. -1.
         -1   -1    0    0    0  501 -0.00000000000E+00 -0.00000000000E+00 -0.55424921060E+03  0.55424921062E+03  0.50400000000E-02 0.  1.
    8880023    1    1    2    0    0 -0.14919067294E+02 -0.46486423997E+03 -0.22459415753E+03  0.83700303586E+03  0.65864270000E+03 0.  0.
    8880022    1    1    2    0    0  0.14919067294E+02  0.46486423997E+03  0.25320581039E+04  0.25789593317E+04  0.15294330000E+03 0.  0.
<mgrwt>
<rscale>  0 0.71176546E+03</rscale>
<asrwt>0</asrwt>
<pdfrwt beam="1">  1        1 0.44026356E+00 0.80630735E+03</pdfrwt>
<pdfrwt beam="2">  1       -1 0.85269109E-01 0.80630735E+03</pdfrwt>
<totfact> 0.10872591E+00</totfact>
</mgrwt>
</event>
<event>
 4    1  0.1043382E-007  0.7462796E+03  0.7818608E-02  0.9842019E-01
          1   -1    0    0  501    0  0.00000000000E+00  0.00000000000E+00  0.14607427990E+04  0.14607427990E+04  0.50400000000E-02 0. -1.
         -1   -1    0    0    0  501 -0.00000000000E+00 -0.00000000000E+00 -0.46093671659E+03  0.46093671662E+03  0.50400000000E-02 0.  1.
    8880023    1    1    2    0    0  0.13260179558E+03  0.32486882137E+03 -0.10390557352E+03  0.75347830875E+03  0.65864270000E+03 0.  1.
    8880022    1    1    2    0    0 -0.13260179558E+03 -0.32486882137E+03  0.11037116559E+04  0.11682012069E+04  0.15294330000E+03 0.  0.
<mgrwt>
<rscale>  0 0.63155517E+03</rscale>
<asrwt>0</asrwt>
<pdfrwt beam="1">  1        1 0.22472966E+00 0.74627957E+03</pdfrwt>
<pdfrwt beam="2">  1       -1 0.70913341E-01 0.74627957E+03</pdfrwt>
<totfact> 0.14504628E+01</totfact>
</mgrwt>
</event>
<event>
 4    1  0.1043382E-007  0.7226759E+03  0.7818608E-02  0.9913633E-01
         -1   -1    0    0    0  501 -0.00000000000E+00  0.00000000000E+00  0.28886314441E+03  0.28886314445E+03  0.50400000000E-02 0.  1.
          1   -1    0    0  501    0  0.00000000000E+00 -0.00000000000E+00 -0.13471050920E+04  0.13471050920E+04  0.50400000000E-02 0. -1.
    8880023    1    1    2    0    0  0.75639656107E+02 -0.28762641644E+03 -0.25577561099E+03  0.76660399324E+03  0.65864270000E+03 0.  1.
    8880022    1    1    2    0    0 -0.75639656107E+02  0.28762641644E+03 -0.80246633663E+03  0.86936424325E+03  0.15294330000E+03 0.  1.
<mgrwt>
<rscale>  0 0.59605083E+03</rscale>
<asrwt>0</asrwt>
<pdfrwt beam="1">  1        1 0.20724693E+00 0.72267594E+03</pdfrwt>
<pdfrwt beam="2">  1       -1 0.44440485E-01 0.72267594E+03</pdfrwt>
<totfact> 0.43272554E+01</totfact>
</mgrwt>
</event>
<event>
 4    1  0.1043382E-007  0.6631610E+03  0.7818608E-02  0.1021129E+00
          1   -1    0    0  501    0  0.00000000000E+00  0.00000000000E+00  0.27136966251E+03  0.27136966256E+03  0.50400000000E-02 0. -1.
         -1   -1    0    0    0  501 -0.00000000000E+00 -0.00000000000E+00 -0.80470274032E+03  0.80470274034E+03  0.50400000000E-02 0.  1.
    8880023    1    1    2    0    0 -0.40580917909E+02 -0.65768620087E+02 -0.59795334982E+03  0.89293378092E+03  0.65864270000E+03 0.  1.
    8880022    1    1    2    0    0  0.40580917909E+02  0.65768620087E+02  0.64620272016E+02  0.18313862197E+03  0.15294330000E+03 0.  0.
<mgrwt>
<rscale>  0 0.47281484E+03</rscale>
<asrwt>0</asrwt>
<pdfrwt beam="1">  1        1 0.41749179E-01 0.66316101E+03</pdfrwt>
<pdfrwt beam="2">  1       -1 0.12380042E+00 0.66316101E+03</pdfrwt>
<totfact> 0.58765933E+01</totfact>
</mgrwt>
</event>
<event>
 4    1  0.1043382E-007  0.6734126E+03  0.7818608E-02  0.1013326E+00
         -1   -1    0    0    0  501 -0.00000000000E+00  0.00000000000E+00  0.26526287035E+03  0.26526287040E+03  0.50400000000E-02 0.  1.
          1   -1    0    0  501    0  0.00000000000E+00 -0.00000000000E+00 -0.13271296572E+04  0.13271296572E+04  0.50400000000E-02 0. -1.
    8880023    1    1    2    0    0 -0.10199831472E+03 -0.96284071194E+02 -0.19506564657E+03  0.70109563635E+03  0.65864270000E+03 0.  1.
    8880022    1    1    2    0    0  0.10199831472E+03  0.96284071194E+02 -0.86680114025E+03  0.89129689123E+03  0.15294330000E+03 0.  0.
<mgrwt>
<rscale>  0 0.50173875E+03</rscale>
<asrwt>0</asrwt>
<pdfrwt beam="1">  1        1 0.20417379E+00 0.67341257E+03</pdfrwt>
<pdfrwt beam="2">  1       -1 0.40809673E-01 0.67341257E+03</pdfrwt>
<totfact> 0.52561428E+01</totfact>
</mgrwt>
</event>
<event>
 4    1  0.1043382E-007  0.1002770E+04  0.7818608E-02  0.9377943E-01
          1   -1    0    0  501    0  0.00000000000E+00  0.00000000000E+00  0.13049916008E+04  0.13049916008E+04  0.50400000000E-02 0. -1.
         -1   -1    0    0    0  501 -0.00000000000E+00 -0.00000000000E+00 -0.12001059357E+04  0.12001059357E+04  0.50400000000E-02 0.  1.
    8880023    1    1    2    0    0  0.25725310179E+03  0.71102567038E+03 -0.82381979621E+03  0.12977773019E+04  0.65864270000E+03 0.  1.
    8880022    1    1    2    0    0 -0.25725310179E+03 -0.71102567038E+03  0.92870546131E+03  0.12073202347E+04  0.15294330000E+03 0.  0.
<mgrwt>
<rscale>  0 0.93913320E+03</rscale>
<asrwt>0</asrwt>
<pdfrwt beam="1">  1        1 0.20076794E+00 0.10027696E+04</pdfrwt>
<pdfrwt beam="2">  1       -1 0.18463168E+00 0.10027696E+04</pdfrwt>
<totfact> 0.17379394E+00</totfact>
</mgrwt>
</event>
<event>
 4    1  0.1043382E-007  0.6631445E+03  0.7818608E-02  0.1021144E+00
         -1   -1    0    0    0  501 -0.00000000000E+00  0.00000000000E+00  0.88759822363E+03  0.88759822365E+03  0.50400000000E-02 0.  1.
          1   -1    0    0  501    0  0.00000000000E+00 -0.00000000000E+00 -0.76517229405E+03  0.76517229407E+03  0.50400000000E-02 0. -1.
    8880023    1    1    2    0    0  0.47120693871E+02  0.61074736554E+02  0.75064713835E+03  0.10016146044E+04  0.65864270000E+03 0.  0.
    8880022    1    1    2    0    0 -0.47120693871E+02 -0.61074736554E+02 -0.62822120877E+03  0.65115591328E+03  0.15294330000E+03 0.  0.
<mgrwt>
<rscale>  0 0.47276206E+03</rscale>
<asrwt>0</asrwt>
<pdfrwt beam="1">  1        1 0.11771882E+00 0.66314455E+03</pdfrwt>
<pdfrwt beam="2">  1       -1 0.13655357E+00 0.66314455E+03</pdfrwt>
<totfact> 0.11071168E+01</totfact>
</mgrwt>
</event>
<event>
 4    1  0.1043382E-007  0.6709233E+03  0.7818608E-02  0.1015009E+00
          1   -1    0    0  501    0  0.00000000000E+00  0.00000000000E+00  0.14342295077E+04  0.14342295077E+04  0.50400000000E-02 0. -1.
         -1   -1    0    0    0  501 -0.00000000000E+00 -0.00000000000E+00 -0.44944937827E+03  0.44944937830E+03  0.50400000000E-02 0.  1.
    8880023    1    1    2    0    0 -0.11724904716E+03 -0.50799371387E+02 -0.18586313859E+03  0.69619194748E+03  0.65864270000E+03 0.  1.
    8880022    1    1    2    0    0  0.11724904716E+03  0.50799371387E+02  0.11706432680E+04  0.11874869385E+04  0.15294330000E+03 0.  0.
<mgrwt>
<rscale>  0 0.49531358E+03</rscale>
<asrwt>0</asrwt>
<pdfrwt beam="1">  1        1 0.22065070E+00 0.67092334E+03</pdfrwt>
<pdfrwt beam="2">  1       -1 0.69146057E-01 0.67092334E+03</pdfrwt>
<totfact> 0.16104991E+01</totfact>
</mgrwt>
</event>
<event>
 4    1  0.1043382E-007  0.6599815E+03  0.7818608E-02  0.1024175E+00
          1   -1    0    0  501    0  0.00000000000E+00  0.00000000000E+00  0.84390219551E+03  0.84390219552E+03  0.50400000000E-02 0. -1.
         -1   -1    0    0    0  501 -0.00000000000E+00 -0.00000000000E+00 -0.26500119947E+03  0.26500119952E+03  0.50400000000E-02 0.  1.
    8880023    1    1    2    0    0 -0.15150856839E+02 -0.39190176352E+02  0.18675523826E+03  0.68589586940E+03  0.65864270000E+03 0.  1.
    8880022    1    1    2    0    0  0.15150856839E+02  0.39190176352E+02  0.39214575778E+03  0.42300752563E+03  0.15294330000E+03 0.  0.
<mgrwt>
<rscale>  0 0.46209508E+03</rscale>
<asrwt>0</asrwt>
<pdfrwt beam="1">  1        1 0.12983111E+00 0.65998153E+03</pdfrwt>
<pdfrwt beam="2">  1       -1 0.40769415E-01 0.65998153E+03</pdfrwt>
<totfact> 0.12208823E+02</totfact>
</mgrwt>
</event>
<event>
 4    1  0.1043382E-007  0.9110991E+03  0.7818608E-02  0.9508444E-01
         -1   -1    0    0    0  501 -0.00000000000E+00  0.00000000000E+00  0.13028376078E+04  0.13028376078E+04  0.50400000000E-02 0.  1.
          1   -1    0    0  501    0  0.00000000000E+00 -0.00000000000E+00 -0.57578056266E+03  0.57578056268E+03  0.50400000000E-02 0. -1.
    8880023    1    1    2    0    0  0.29597957037E+03 -0.55559650127E+03  0.81800969841E+03  0.12244351560E+04  0.65864270000E+03 0.  1.
    8880022    1    1    2    0    0 -0.29597957037E+03  0.55559650127E+03 -0.90952653266E+02  0.65418301449E+03  0.15294330000E+03 0.  0.
<mgrwt>
<rscale>  0 0.83664148E+03</rscale>
<asrwt>0</asrwt>
<pdfrwt beam="1">  1        1 0.88581627E-01 0.91109911E+03</pdfrwt>
<pdfrwt beam="2">  1       -1 0.20043655E+00 0.91109911E+03</pdfrwt>
<totfact> 0.55092787E+00</totfact>
</mgrwt>
</event>
<event>
 4    1  0.1043382E-007  0.1140950E+04  0.7818608E-02  0.9216777E-01
         -1   -1    0    0    0  501 -0.00000000000E+00  0.00000000000E+00  0.61167627438E+03  0.61167627440E+03  0.50400000000E-02 0.  1.
          1   -1    0    0  501    0  0.00000000000E+00 -0.00000000000E+00 -0.28549606813E+04  0.28549606814E+04  0.50400000000E-02 0. -1.
    8880023    1    1    2    0    0  0.68364861912E+03  0.63291409726E+03 -0.12536520460E+03  0.11478163310E+04  0.65864270000E+03 0.  0.
    8880022    1    1    2    0    0 -0.68364861912E+03 -0.63291409726E+03 -0.21179192024E+04  0.23188206247E+04  0.15294330000E+03 0.  0.
<mgrwt>
<rscale>  0 0.10881924E+04</rscale>
<asrwt>0</asrwt>
<pdfrwt beam="1">  1        1 0.43922471E+00 0.11409496E+04</pdfrwt>
<pdfrwt beam="2">  1       -1 0.94104044E-01 0.11409496E+04</pdfrwt>
<totfact> 0.83515107E-01</totfact>
</mgrwt>
</event>
<event>
 4    1  0.1043382E-007  0.6672684E+03  0.7818608E-02  0.1017702E+00
          1   -1    0    0  501    0  0.00000000000E+00  0.00000000000E+00  0.12684145480E+04  0.12684145481E+04  0.50400000000E-02 0. -1.
         -1   -1    0    0    0  501 -0.00000000000E+00 -0.00000000000E+00 -0.14401921915E+03  0.14401921924E+03  0.50400000000E-02 0.  1.
    8880023    1    1    2    0    0 -0.53484232511E+02 -0.92608442174E+02  0.90505775117E+03  0.11244450302E+04  0.65864270000E+03 0.  1.
    8880022    1    1    2    0    0  0.53484232511E+02  0.92608442174E+02  0.21933757772E+03  0.28798873711E+03  0.15294330000E+03 0.  1.
<mgrwt>
<rscale>  0 0.48525198E+03</rscale>
<asrwt>0</asrwt>
<pdfrwt beam="1">  1        1 0.19514070E+00 0.66726838E+03</pdfrwt>
<pdfrwt beam="2">  1       -1 0.22156803E-01 0.66726838E+03</pdfrwt>
<totfact> 0.16782758E+02</totfact>
</mgrwt>
</event>
<event>
 4    1  0.1043382E-007  0.8304981E+03  0.7818608E-02  0.9648364E-01
         -1   -1    0    0    0  501 -0.00000000000E+00  0.00000000000E+00  0.14298926438E+03  0.14298926447E+03  0.50400000000E-02 0.  1.
          1   -1    0    0  501    0  0.00000000000E+00 -0.00000000000E+00 -0.33239709736E+04  0.33239709736E+04  0.50400000000E-02 0. -1.
    8880023    1    1    2    0    0 -0.46581200333E+03 -0.19732217352E+03 -0.22196943341E+04  0.23699725749E+04  0.65864270000E+03 0.  1.
    8880022    1    1    2    0    0  0.46581200333E+03  0.19732217352E+03 -0.96128737516E+03  0.10969876632E+04  0.15294330000E+03 0.  0.
<mgrwt>
<rscale>  0 0.74176186E+03</rscale>
<asrwt>0</asrwt>
<pdfrwt beam="1">  1        1 0.51138009E+00 0.83049808E+03</pdfrwt>
<pdfrwt beam="2">  1       -1 0.21998351E-01 0.83049808E+03</pdfrwt>
<totfact> 0.63083339E+00</totfact>
</mgrwt>
</event>
<event>
 4    1  0.1043382E-007  0.7105665E+03  0.7818608E-02  0.9955903E-01
          1   -1    0    0  501    0  0.00000000000E+00  0.00000000000E+00  0.14083590942E+04  0.14083590942E+04  0.50400000000E-02 0. -1.
         -1   -1    0    0    0  501 -0.00000000000E+00 -0.00000000000E+00 -0.18764180535E+03  0.18764180541E+03  0.50400000000E-02 0.  1.
    8880023    1    1    2    0    0 -0.24130592746E+03 -0.11342816987E+03  0.95041197639E+03  0.11866708185E+04  0.65864270000E+03 0.  0.
    8880022    1    1    2    0    0  0.24130592746E+03  0.11342816987E+03  0.27030531245E+03  0.40933008111E+03  0.15294330000E+03 0.  1.
<mgrwt>
<rscale>  0 0.57626807E+03</rscale>
<asrwt>0</asrwt>
<pdfrwt beam="1">  1        1 0.21667063E+00 0.71056647E+03</pdfrwt>
<pdfrwt beam="2">  1       -1 0.28867970E-01 0.71056647E+03</pdfrwt>
<totfact> 0.84950786E+01</totfact>
</mgrwt>
</event>
<event>
 4    1  0.1043382E-007  0.7088979E+03  0.7818608E-02  0.9962117E-01
         -1   -1    0    0    0  501 -0.00000000000E+00  0.00000000000E+00  0.42436784653E+03  0.42436784656E+03  0.50400000000E-02 0.  1.
          1   -1    0    0  501    0  0.00000000000E+00 -0.00000000000E+00 -0.60410076226E+03  0.60410076228E+03  0.50400000000E-02 0. -1.
    8880023    1    1    2    0    0  0.53034976666E+02  0.25673582872E+03 -0.11567838606E+03  0.71827410489E+03  0.65864270000E+03 0.  0.
    8880022    1    1    2    0    0 -0.53034976666E+02 -0.25673582872E+03 -0.64054529675E+02  0.31019450395E+03  0.15294330000E+03 0.  1.
<mgrwt>
<rscale>  0 0.57343027E+03</rscale>
<asrwt>0</asrwt>
<pdfrwt beam="1">  1        1 0.92938579E-01 0.70889788E+03</pdfrwt>
<pdfrwt beam="2">  1       -1 0.65287361E-01 0.70889788E+03</pdfrwt>
<totfact> 0.82464733E+01</totfact>
</mgrwt>
</event>
<event>
 4    1  0.1043382E-007  0.8671439E+03  0.7818608E-02  0.9580980E-01
         -1   -1    0    0    0  501 -0.00000000000E+00  0.00000000000E+00  0.38960514484E+03  0.38960514487E+03  0.50400000000E-02 0.  1.
          1   -1    0    0  501    0  0.00000000000E+00 -0.00000000000E+00 -0.23115883165E+04  0.23115883165E+04  0.50400000000E-02 0. -1.
    8880023    1    1    2    0    0  0.36509577512E+03  0.42992246542E+03 -0.19309575119E+04  0.21167275145E+04  0.65864270000E+03 0. -1.
    8880022    1    1    2    0    0 -0.36509577512E+03 -0.42992246542E+03  0.89743403057E+01  0.58446594689E+03  0.15294330000E+03 0.  0.
<mgrwt>
<rscale>  0 0.78567940E+03</rscale>
<asrwt>0</asrwt>
<pdfrwt beam="1">  1        1 0.35562896E+00 0.86714385E+03</pdfrwt>
<pdfrwt beam="2">  1       -1 0.59939254E-01 0.86714385E+03</pdfrwt>
<totfact> 0.53366654E+00</totfact>
</mgrwt>
</event>
<event>
 4    1  0.1043382E-007  0.7639549E+03  0.7818608E-02  0.9794974E-01
         -1   -1    0    0    0  501 -0.00000000000E+00  0.00000000000E+00  0.84838473313E+03  0.84838473314E+03  0.50400000000E-02 0.  1.
          1   -1    0    0  501    0  0.00000000000E+00 -0.00000000000E+00 -0.90761041363E+03  0.90761041364E+03  0.50400000000E-02 0. -1.
    8880023    1    1    2    0    0 -0.23446196626E+03 -0.30796825546E+03  0.60340182387E+03  0.97350954145E+03  0.65864270000E+03 0.  0.
    8880022    1    1    2    0    0  0.23446196626E+03  0.30796825546E+03 -0.66262750436E+03  0.78248560533E+03  0.15294330000E+03 0.  0.
<mgrwt>
<rscale>  0 0.65632952E+03</rscale>
<asrwt>0</asrwt>
<pdfrwt beam="1">  1        1 0.13963237E+00 0.76395488E+03</pdfrwt>
<pdfrwt beam="2">  1       -1 0.13052073E+00 0.76395488E+03</pdfrwt>
<totfact> 0.92778932E+00</totfact>
</mgrwt>
</event>
<event>
 4    1  0.1043382E-007  0.1005766E+04  0.7818608E-02  0.9374052E-01
          1   -1    0    0  501    0  0.00000000000E+00  0.00000000000E+00  0.30134927008E+04  0.30134927008E+04  0.50400000000E-02 0. -1.
         -1   -1    0    0    0  501 -0.00000000000E+00 -0.00000000000E+00 -0.43605637771E+03  0.43605637774E+03  0.50400000000E-02 0.  1.
    8880023    1    1    2    0    0  0.10851466366E+03  0.75231649858E+03  0.30883702903E+03  0.10521150427E+04  0.65864270000E+03 0.  1.
    8880022    1    1    2    0    0 -0.10851466366E+03 -0.75231649858E+03  0.22685992940E+04  0.23974340358E+04  0.15294330000E+03 0.  0.
<mgrwt>
<rscale>  0 0.94242196E+03</rscale>
<asrwt>0</asrwt>
<pdfrwt beam="1">  1        1 0.46361426E+00 0.10057663E+04</pdfrwt>
<pdfrwt beam="2">  1       -1 0.67085597E-01 0.10057663E+04</pdfrwt>
<totfact> 0.13514643E+00</totfact>
</mgrwt>
</event>
<event>
 4    1  0.1043382E-007  0.6697106E+03  0.7818608E-02  0.1015871E+00
         -1   -1    0    0    0  501 -0.00000000000E+00  0.00000000000E+00  0.50352422169E+03  0.50352422171E+03  0.50400000000E-02 0.  1.
          1   -1    0    0  501    0  0.00000000000E+00 -0.00000000000E+00 -0.67074906465E+03  0.67074906467E+03  0.50400000000E-02 0. -1.
    8880023    1    1    2    0    0 -0.11574350602E+03  0.36132884988E+02  0.24904558836E+03  0.71451805849E+03  0.65864270000E+03 0.  0.
    8880022    1    1    2    0    0  0.11574350602E+03 -0.36132884988E+02 -0.41627043132E+03  0.45975522789E+03  0.15294330000E+03 0. -1.
<mgrwt>
<rscale>  0 0.49206467E+03</rscale>
<asrwt>0</asrwt>
<pdfrwt beam="1">  1        1 0.10319216E+00 0.66971065E+03</pdfrwt>
<pdfrwt beam="2">  1       -1 0.77465264E-01 0.66971065E+03</pdfrwt>
<totfact> 0.49995364E+01</totfact>
</mgrwt>
</event>
<event>
 4    1  0.1043382E-007  0.7231845E+03  0.7818608E-02  0.9911954E-01
          1   -1    0    0  501    0  0.00000000000E+00  0.00000000000E+00  0.46132872778E+03  0.46132872780E+03  0.50400000000E-02 0. -1.
         -1   -1    0    0    0  501 -0.00000000000E+00 -0.00000000000E+00 -0.84214616966E+03  0.84214616967E+03  0.50400000000E-02 0.  1.
    8880023    1    1    2    0    0 -0.23598864921E+02  0.29770567841E+03 -0.56772172760E+03  0.91940401546E+03  0.65864270000E+03 0.  1.
    8880022    1    1    2    0    0  0.23598864921E+02 -0.29770567841E+03  0.18690428571E+03  0.38407088202E+03  0.15294330000E+03 0.  0.
<mgrwt>
<rscale>  0 0.59685404E+03</rscale>
<asrwt>0</asrwt>
<pdfrwt beam="1">  1        1 0.70973651E-01 0.72318447E+03</pdfrwt>
<pdfrwt beam="2">  1       -1 0.12956095E+00 0.72318447E+03</pdfrwt>
<totfact> 0.26009756E+01</totfact>
</mgrwt>
</event>
<event>
 4    1  0.1043382E-007  0.7234122E+03  0.7818608E-02  0.9911205E-01
         -1   -1    0    0    0  501 -0.00000000000E+00  0.00000000000E+00  0.33613830530E+03  0.33613830534E+03  0.50400000000E-02 0.  1.
          1   -1    0    0  501    0  0.00000000000E+00 -0.00000000000E+00 -0.17068428909E+04  0.17068428909E+04  0.50400000000E-02 0. -1.
    8880023    1    1    2    0    0  0.22075566694E+03  0.20194534450E+03 -0.10204092061E+03  0.73057343395E+03  0.65864270000E+03 0.  1.
    8880022    1    1    2    0    0 -0.22075566694E+03 -0.20194534450E+03 -0.12686636650E+04  0.13124077623E+04  0.15294330000E+03 0.  0.
<mgrwt>
<rscale>  0 0.59721307E+03</rscale>
<asrwt>0</asrwt>
<pdfrwt beam="1">  1        1 0.26259121E+00 0.72341219E+03</pdfrwt>
<pdfrwt beam="2">  1       -1 0.51713587E-01 0.72341219E+03</pdfrwt>
<totfact> 0.18481140E+01</totfact>
</mgrwt>
</event>
<event>
 4    1  0.1043382E-007  0.7763609E+03  0.7818608E-02  0.9764456E-01
          1   -1    0    0  501    0  0.00000000000E+00  0.00000000000E+00  0.41867871814E+03  0.41867871817E+03  0.50400000000E-02 0. -1.
         -1   -1    0    0    0  501 -0.00000000000E+00 -0.00000000000E+00 -0.12414647391E+04  0.12414647391E+04  0.50400000000E-02 0.  1.
    8880023    1    1    2    0    0 -0.15440625649E+02  0.41071600407E+03 -0.92723199965E+03  0.12093367754E+04  0.65864270000E+03 0.  0.
    8880022    1    1    2    0    0  0.15440625649E+02 -0.41071600407E+03  0.10444597871E+03  0.45080668185E+03  0.15294330000E+03 0.  0.
<mgrwt>
<rscale>  0 0.67305437E+03</rscale>
<asrwt>0</asrwt>
<pdfrwt beam="1">  1        1 0.64412111E-01 0.77636091E+03</pdfrwt>
<pdfrwt beam="2">  1       -1 0.19099457E+00 0.77636091E+03</pdfrwt>
<totfact> 0.10086215E+01</totfact>
</mgrwt>
</event>
<event>
 4    1  0.1043382E-007  0.6854246E+03  0.7818608E-02  0.1006408E+00
          1   -1    0    0  501    0  0.00000000000E+00  0.00000000000E+00  0.11156736493E+04  0.11156736493E+04  0.50400000000E-02 0. -1.
         -1   -1    0    0    0  501 -0.00000000000E+00 -0.00000000000E+00 -0.34625433480E+03  0.34625433483E+03  0.50400000000E-02 0.  1.
    8880023    1    1    2    0    0  0.12450550215E+03 -0.14316092010E+03  0.32983248326E+02  0.68621772787E+03  0.65864270000E+03 0.  1.
    8880022    1    1    2    0    0 -0.12450550215E+03  0.14316092010E+03  0.73643606614E+03  0.77571025624E+03  0.15294330000E+03 0.  0.
<mgrwt>
<rscale>  0 0.52927624E+03</rscale>
<asrwt>0</asrwt>
<pdfrwt beam="1">  1        1 0.17164210E+00 0.68542459E+03</pdfrwt>
<pdfrwt beam="2">  1       -1 0.53269897E-01 0.68542459E+03</pdfrwt>
<totfact> 0.45297361E+01</totfact>
</mgrwt>
</event>
<event>
 4    1  0.1043382E-007  0.6776385E+03  0.7818608E-02  0.1010692E+00
          1   -1    0    0  501    0  0.00000000000E+00  0.00000000000E+00  0.45123714096E+03  0.45123714099E+03  0.50400000000E-02 0. -1.
         -1   -1    0    0    0  501 -0.00000000000E+00 -0.00000000000E+00 -0.85874259156E+03  0.85874259157E+03  0.50400000000E-02 0.  1.
    8880023    1    1    2    0    0  0.10242519719E+03 -0.12203583451E+03 -0.67948046228E+03  0.95962887139E+03  0.65864270000E+03 0.  1.
    8880022    1    1    2    0    0 -0.10242519719E+03  0.12203583451E+03  0.27197501168E+03  0.35035086116E+03  0.15294330000E+03 0.  0.
<mgrwt>
<rscale>  0 0.51200423E+03</rscale>
<asrwt>0</asrwt>
<pdfrwt beam="1">  1        1 0.69421099E-01 0.67763845E+03</pdfrwt>
<pdfrwt beam="2">  1       -1 0.13211424E+00 0.67763845E+03</pdfrwt>
<totfact> 0.25636287E+01</totfact>
</mgrwt>
</event>
<event>
 4    1  0.1043382E-007  0.7294396E+03  0.7818608E-02  0.9891851E-01
         -1   -1    0    0    0  501 -0.00000000000E+00  0.00000000000E+00  0.29164303363E+03  0.29164303367E+03  0.50400000000E-02 0.  1.
          1   -1    0    0  501    0  0.00000000000E+00 -0.00000000000E+00 -0.27565666531E+04  0.27565666531E+04  0.50400000000E-02 0. -1.
    8880023    1    1    2    0    0  0.60505046102E+02 -0.30758903232E+03 -0.19969041011E+03  0.75627927352E+03  0.65864270000E+03 0.  1.
    8880022    1    1    2    0    0 -0.60505046102E+02  0.30758903232E+03 -0.22652332093E+04  0.22919304132E+04  0.15294330000E+03 0.  0.
<mgrwt>
<rscale>  0 0.60657853E+03</rscale>
<asrwt>0</asrwt>
<pdfrwt beam="1">  1        1 0.42408716E+00 0.72943957E+03</pdfrwt>
<pdfrwt beam="2">  1       -1 0.44868161E-01 0.72943957E+03</pdfrwt>
<totfact> 0.47057964E+00</totfact>
</mgrwt>
</event>
<event>
 4    1  0.1043382E-007  0.6728853E+03  0.7818608E-02  0.1013674E+00
         -1   -1    0    0    0  501 -0.00000000000E+00  0.00000000000E+00  0.41305228625E+03  0.41305228628E+03  0.50400000000E-02 0.  1.
          1   -1    0    0  501    0  0.00000000000E+00 -0.00000000000E+00 -0.63844736108E+03  0.63844736110E+03  0.50400000000E-02 0. -1.
    8880023    1    1    2    0    0  0.13718344254E+03  0.12044018888E+02  0.85876251506E+02  0.67834304900E+03  0.65864270000E+03 0.  1.
    8880022    1    1    2    0    0 -0.13718344254E+03 -0.12044018888E+02 -0.31127132634E+03  0.37315659838E+03  0.15294330000E+03 0.  0.
<mgrwt>
<rscale>  0 0.50040327E+03</rscale>
<asrwt>0</asrwt>
<pdfrwt beam="1">  1        1 0.98222670E-01 0.67288525E+03</pdfrwt>
<pdfrwt beam="2">  1       -1 0.63546506E-01 0.67288525E+03</pdfrwt>
<totfact> 0.80579086E+01</totfact>
</mgrwt>
</event>
<event>
 4    1  0.1043382E-007  0.6751348E+03  0.7818608E-02  0.1012221E+00
         -1   -1    0    0    0  501 -0.00000000000E+00  0.00000000000E+00  0.48496788134E+03  0.48496788137E+03  0.50400000000E-02 0.  1.
          1   -1    0    0  501    0  0.00000000000E+00 -0.00000000000E+00 -0.13325066593E+04  0.13325066593E+04  0.50400000000E-02 0. -1.
    8880023    1    1    2    0    0 -0.14280284972E+03  0.40051958901E+02  0.23447003958E+03  0.71469099548E+03  0.65864270000E+03 0.  1.
    8880022    1    1    2    0    0  0.14280284972E+03 -0.40051958901E+02 -0.10820088176E+04  0.11027835452E+04  0.15294330000E+03 0.  0.
<mgrwt>
<rscale>  0 0.50601229E+03</rscale>
<asrwt>0</asrwt>
<pdfrwt beam="1">  1        1 0.20500102E+00 0.67513482E+03</pdfrwt>
<pdfrwt beam="2">  1       -1 0.74610444E-01 0.67513482E+03</pdfrwt>
<totfact> 0.16194853E+01</totfact>
</mgrwt>
</event>
<event>
 4    1  0.1043382E-007  0.8069543E+03  0.7818608E-02  0.9695956E-01
          1   -1    0    0  501    0  0.00000000000E+00  0.00000000000E+00  0.16029483746E+04  0.16029483746E+04  0.50400000000E-02 0. -1.
         -1   -1    0    0    0  501 -0.00000000000E+00 -0.00000000000E+00 -0.43477325020E+03  0.43477325023E+03  0.50400000000E-02 0.  1.
    8880023    1    1    2    0    0 -0.44575073128E+03 -0.13664280468E+03  0.40555634032E+02  0.80797273235E+03  0.65864270000E+03 0.  1.
    8880022    1    1    2    0    0  0.44575073128E+03  0.13664280468E+03  0.11276194904E+04  0.12297488925E+04  0.15294330000E+03 0.  0.
<mgrwt>
<rscale>  0 0.71258056E+03</rscale>
<asrwt>0</asrwt>
<pdfrwt beam="1">  1        1 0.24660744E+00 0.80695426E+03</pdfrwt>
<pdfrwt beam="2">  1       -1 0.66888192E-01 0.80695426E+03</pdfrwt>
<totfact> 0.12957346E+01</totfact>
</mgrwt>
</event>
<event>
 4    1  0.1043382E-007  0.7264268E+03  0.7818608E-02  0.9901411E-01
          1   -1    0    0  501    0  0.00000000000E+00  0.00000000000E+00  0.45799711196E+03  0.45799711199E+03  0.50400000000E-02 0. -1.
         -1   -1    0    0    0  501 -0.00000000000E+00 -0.00000000000E+00 -0.63741316988E+03  0.63741316990E+03  0.50400000000E-02 0.  1.
    8880023    1    1    2    0    0 -0.13419482129E+02  0.30611365400E+03 -0.19647498081E+03  0.75252792374E+03  0.65864270000E+03 0.  1.
    8880022    1    1    2    0    0  0.13419482129E+02 -0.30611365400E+03  0.17058922892E+02  0.34288235815E+03  0.15294330000E+03 0.  0.
<mgrwt>
<rscale>  0 0.60192950E+03</rscale>
<asrwt>0</asrwt>
<pdfrwt beam="1">  1        1 0.70461094E-01 0.72642677E+03</pdfrwt>
<pdfrwt beam="2">  1       -1 0.98063564E-01 0.72642677E+03</pdfrwt>
<totfact> 0.50971167E+01</totfact>
</mgrwt>
</event>
<event>
 4    1  0.1043382E-007  0.7276743E+03  0.7818608E-02  0.9897426E-01
          1   -1    0    0  501    0  0.00000000000E+00  0.00000000000E+00  0.19545709569E+04  0.19545709569E+04  0.50400000000E-02 0. -1.
         -1   -1    0    0    0  501 -0.00000000000E+00 -0.00000000000E+00 -0.48327272423E+03  0.48327272425E+03  0.50400000000E-02 0.  1.
    8880023    1    1    2    0    0 -0.22155764884E+03 -0.21589794391E+03 -0.18103667472E+03  0.74985611807E+03  0.65864270000E+03 0.  1.
    8880022    1    1    2    0    0  0.22155764884E+03  0.21589794391E+03  0.16523349074E+04  0.16879875631E+04  0.15294330000E+03 0.  0.
<mgrwt>
<rscale>  0 0.60386217E+03</rscale>
<asrwt>0</asrwt>
<pdfrwt beam="1">  1        1 0.30070323E+00 0.72767432E+03</pdfrwt>
<pdfrwt beam="2">  1       -1 0.74349649E-01 0.72767432E+03</pdfrwt>
<totfact> 0.61282701E+00</totfact>
</mgrwt>
</event>
<event>
 4    1  0.1457885E-007  0.8789649E+03  0.7818608E-02  0.9560680E-01
         -1   -1    0    0    0  501 -0.00000000000E+00  0.00000000000E+00  0.12396804008E+04  0.12396804008E+04  0.50400000000E-02 0.  1.
          1   -1    0    0  501    0  0.00000000000E+00 -0.00000000000E+00 -0.23595154370E+04  0.23595154370E+04  0.50400000000E-02 0. -1.
    8880023    1    1    2    0    0  0.36481522792E+03  0.45351838729E+03  0.10373389311E+04  0.13596511841E+04  0.65864270000E+03 0.  0.
    8880022    1    1    2    0    0 -0.36481522792E+03 -0.45351838729E+03 -0.21571739673E+04  0.22395446538E+04  0.15294330000E+03 0. -1.
<mgrwt>
<rscale>  0 0.79954206E+03</rscale>
<asrwt>0</asrwt>
<pdfrwt beam="1">  1        1 0.36300237E+00 0.87896489E+03</pdfrwt>
<pdfrwt beam="2">  1       -1 0.19072006E+00 0.87896489E+03</pdfrwt>
<totfact> 0.30822369E-01</totfact>
</mgrwt>
</event>
<event>
 4    1  0.1043382E-007  0.8333501E+03  0.7818608E-02  0.9642849E-01
         -1   -1    0    0    0  501 -0.00000000000E+00  0.00000000000E+00  0.20577511158E+04  0.20577511158E+04  0.50400000000E-02 0.  1.
          1   -1    0    0  501    0  0.00000000000E+00 -0.00000000000E+00 -0.35707621470E+03  0.35707621474E+03  0.50400000000E-02 0. -1.
    8880023    1    1    2    0    0  0.29149680877E+03 -0.41915595760E+03  0.16870906269E+04  0.18816873003E+04  0.65864270000E+03 0.  0.
    8880022    1    1    2    0    0 -0.29149680877E+03  0.41915595760E+03  0.13584274129E+02  0.53314003023E+03  0.15294330000E+03 0.  0.
<mgrwt>
<rscale>  0 0.74523916E+03</rscale>
<asrwt>0</asrwt>
<pdfrwt beam="1">  1        1 0.54934803E-01 0.83335005E+03</pdfrwt>
<pdfrwt beam="2">  1       -1 0.31657709E+00 0.83335005E+03</pdfrwt>
<totfact> 0.18692824E+00</totfact>
</mgrwt>
</event>
<event>
 4    1  0.1043382E-007  0.6895258E+03  0.7818608E-02  0.1004379E+00
          1   -1    0    0  501    0  0.00000000000E+00  0.00000000000E+00  0.54945518598E+03  0.54945518600E+03  0.50400000000E-02 0. -1.
         -1   -1    0    0    0  501 -0.00000000000E+00 -0.00000000000E+00 -0.13409086417E+04  0.13409086417E+04  0.50400000000E-02 0.  1.
    8880023    1    1    2    0    0  0.13731197669E+03 -0.15093402638E+03 -0.12143941599E+04  0.13964952707E+04  0.65864270000E+03 0.  1.
    8880022    1    1    2    0    0 -0.13731197669E+03  0.15093402638E+03  0.42294070422E+03  0.49386855697E+03  0.15294330000E+03 0.  0.
<mgrwt>
<rscale>  0 0.53771219E+03</rscale>
<asrwt>0</asrwt>
<pdfrwt beam="1">  1        1 0.84531568E-01 0.68952583E+03</pdfrwt>
<pdfrwt beam="2">  1       -1 0.20629364E+00 0.68952583E+03</pdfrwt>
<totfact> 0.55315890E+00</totfact>
</mgrwt>
</event>
<event>
 4    1  0.1043382E-007  0.7118638E+03  0.7818608E-02  0.9951144E-01
          1   -1    0    0  501    0  0.00000000000E+00  0.00000000000E+00  0.33326955993E+04  0.33326955993E+04  0.50400000000E-02 0. -1.
         -1   -1    0    0    0  501 -0.00000000000E+00 -0.00000000000E+00 -0.10769914775E+03  0.10769914787E+03  0.50400000000E-02 0.  1.
    8880023    1    1    2    0    0 -0.22098824261E+03 -0.15525471151E+03  0.29189861027E+04  0.30045348896E+04  0.65864270000E+03 0.  0.
    8880022    1    1    2    0    0  0.22098824261E+03  0.15525471151E+03  0.30601034884E+03  0.43585985756E+03  0.15294330000E+03 0.  0.
<mgrwt>
<rscale>  0 0.57845383E+03</rscale>
<asrwt>0</asrwt>
<pdfrwt beam="1">  1        1 0.51272232E+00 0.71186378E+03</pdfrwt>
<pdfrwt beam="2">  1       -1 0.16569102E-01 0.71186378E+03</pdfrwt>
<totfact> 0.10151111E+01</totfact>
</mgrwt>
</event>
<event>
 4    1  0.1100933E-007  0.7079731E+03  0.7818608E-02  0.9965606E-01
          1   -1    0    0  501    0  0.00000000000E+00  0.00000000000E+00  0.12715704673E+04  0.12715704673E+04  0.50400000000E-02 0. -1.
         -1   -1    0    0    0  501 -0.00000000000E+00 -0.00000000000E+00 -0.87200819825E+03  0.87200819827E+03  0.50400000000E-02 0.  1.
    8880023    1    1    2    0    0 -0.17907069509E+03 -0.18801424460E+03 -0.70471467337E+03  0.99892374440E+03  0.65864270000E+03 0.  0.
    8880022    1    1    2    0    0  0.17907069509E+03  0.18801424460E+03  0.11042769424E+04  0.11446549211E+04  0.15294330000E+03 0.  0.
<mgrwt>
<rscale>  0 0.57184413E+03</rscale>
<asrwt>0</asrwt>
<pdfrwt beam="1">  1        1 0.19562623E+00 0.70797308E+03</pdfrwt>
<pdfrwt beam="2">  1       -1 0.13415511E+00 0.70797308E+03</pdfrwt>
<totfact> 0.46460761E+00</totfact>
</mgrwt>
</event>
<event>
 4    1  0.1043382E-007  0.1041475E+04  0.7818608E-02  0.9329200E-01
          1   -1    0    0  501    0  0.00000000000E+00  0.00000000000E+00  0.22417262460E+04  0.22417262460E+04  0.50400000000E-02 0. -1.
         -1   -1    0    0    0  501 -0.00000000000E+00 -0.00000000000E+00 -0.84749893509E+03  0.84749893510E+03  0.50400000000E-02 0.  1.
    8880023    1    1    2    0    0 -0.80091955671E+03 -0.96893777153E+02 -0.40030024642E+03  0.11157558129E+04  0.65864270000E+03 0.  1.
    8880022    1    1    2    0    0  0.80091955671E+03  0.96893777153E+02  0.17945275573E+04  0.19734693682E+04  0.15294330000E+03 0.  0.
<mgrwt>
<rscale>  0 0.98138523E+03</rscale>
<asrwt>0</asrwt>
<pdfrwt beam="1">  1        1 0.34488096E+00 0.10414753E+04</pdfrwt>
<pdfrwt beam="2">  1       -1 0.13038445E+00 0.10414753E+04</pdfrwt>
<totfact> 0.10349281E+00</totfact>
</mgrwt>
</event>
<event>
 4    1  0.1043382E-007  0.6608086E+03  0.7818608E-02  0.1023343E+00
         -1   -1    0    0    0  501 -0.00000000000E+00  0.00000000000E+00  0.89503954022E+03  0.89503954023E+03  0.50400000000E-02 0.  1.
          1   -1    0    0  501    0  0.00000000000E+00 -0.00000000000E+00 -0.62007128361E+03  0.62007128363E+03  0.50400000000E-02 0. -1.
    8880023    1    1    2    0    0  0.37868913170E+02 -0.37732608485E+02  0.75801835295E+03  0.10056141576E+04  0.65864270000E+03 0.  1.
    8880022    1    1    2    0    0 -0.37868913170E+02  0.37732608485E+02 -0.48305009634E+03  0.50949666625E+03  0.15294330000E+03 0.  0.
<mgrwt>
<rscale>  0 0.46499342E+03</rscale>
<asrwt>0</asrwt>
<pdfrwt beam="1">  1        1 0.95395583E-01 0.66080860E+03</pdfrwt>
<pdfrwt beam="2">  1       -1 0.13769839E+00 0.66080860E+03</pdfrwt>
<totfact> 0.14858006E+01</totfact>
</mgrwt>
</event>
<event>
 4    1  0.1043382E-007  0.7788867E+03  0.7818608E-02  0.9758459E-01
         -1   -1    0    0    0  501 -0.00000000000E+00  0.00000000000E+00  0.83785038752E+03  0.83785038753E+03  0.50400000000E-02 0.  1.
          1   -1    0    0  501    0  0.00000000000E+00 -0.00000000000E+00 -0.17740309816E+04  0.17740309816E+04  0.50400000000E-02 0. -1.
    8880023    1    1    2    0    0 -0.47751236893E+01  0.41572999866E+03  0.61896039108E+03  0.99487507034E+03  0.65864270000E+03 0.  1.
    8880022    1    1    2    0    0  0.47751236893E+01 -0.41572999866E+03 -0.15551409851E+04  0.16170062988E+04  0.15294330000E+03 0.  0.
<mgrwt>
<rscale>  0 0.67640339E+03</rscale>
<asrwt>0</asrwt>
<pdfrwt beam="1">  1        1 0.27292784E+00 0.77888667E+03</pdfrwt>
<pdfrwt beam="2">  1       -1 0.12890006E+00 0.77888667E+03</pdfrwt>
<totfact> 0.22963166E+00</totfact>
</mgrwt>
</event>
<event>
 4    1  0.1043382E-007  0.7167100E+03  0.7818608E-02  0.9933880E-01
          1   -1    0    0  501    0  0.00000000000E+00  0.00000000000E+00  0.14904156639E+04  0.14904156639E+04  0.50400000000E-02 0. -1.
         -1   -1    0    0    0  501 -0.00000000000E+00 -0.00000000000E+00 -0.37534175987E+03  0.37534175990E+03  0.50400000000E-02 0.  1.
    8880023    1    1    2    0    0 -0.23272722539E+03 -0.16031534246E+03  0.11975754164E+02  0.71681001348E+03  0.65864270000E+03 0.  0.
    8880022    1    1    2    0    0  0.23272722539E+03  0.16031534246E+03  0.11030981499E+04  0.11489474104E+04  0.15294330000E+03 0.  0.
<mgrwt>
<rscale>  0 0.58647063E+03</rscale>
<asrwt>0</asrwt>
<pdfrwt beam="1">  1        1 0.22929472E+00 0.71670997E+03</pdfrwt>
<pdfrwt beam="2">  1       -1 0.57744885E-01 0.71670997E+03</pdfrwt>
<totfact> 0.20961805E+01</totfact>
</mgrwt>
</event>
<event>
 4    1  0.1043382E-007  0.7755498E+03  0.7818608E-02  0.9766396E-01
         -1   -1    0    0    0  501 -0.00000000000E+00  0.00000000000E+00  0.16296906278E+03  0.16296906286E+03  0.50400000000E-02 0.  1.
          1   -1    0    0  501    0  0.00000000000E+00 -0.00000000000E+00 -0.29849015611E+04  0.29849015611E+04  0.50400000000E-02 0. -1.
    8880023    1    1    2    0    0 -0.20672592534E+03  0.35345665061E+03 -0.95395380728E+03  0.12294329119E+04  0.65864270000E+03 0.  0.
    8880022    1    1    2    0    0  0.20672592534E+03 -0.35345665061E+03 -0.18679786910E+04  0.19184377121E+04  0.15294330000E+03 0.  0.
<mgrwt>
<rscale>  0 0.67197505E+03</rscale>
<asrwt>0</asrwt>
<pdfrwt beam="1">  1        1 0.45921559E+00 0.77554975E+03</pdfrwt>
<pdfrwt beam="2">  1       -1 0.25072166E-01 0.77554975E+03</pdfrwt>
<totfact> 0.90398385E+00</totfact>
</mgrwt>
</event>
<event>
 4    1  0.1043382E-007  0.6989019E+03  0.7818608E-02  0.1000179E+00
         -1   -1    0    0    0  501 -0.00000000000E+00  0.00000000000E+00  0.26613065702E+03  0.26613065707E+03  0.50400000000E-02 0.  1.
          1   -1    0    0  501    0  0.00000000000E+00 -0.00000000000E+00 -0.23174358947E+04  0.23174358947E+04  0.50400000000E-02 0. -1.
    8880023    1    1    2    0    0 -0.11938969952E+03 -0.20099674269E+03 -0.22238007291E+03  0.73342804283E+03  0.65864270000E+03 0.  1.
    8880022    1    1    2    0    0  0.11938969952E+03  0.20099674269E+03 -0.18289251648E+04  0.18501385090E+04  0.15294330000E+03 0.  0.
<mgrwt>
<rscale>  0 0.55571926E+03</rscale>
<asrwt>0</asrwt>
<pdfrwt beam="1">  1        1 0.35652859E+00 0.69890185E+03</pdfrwt>
<pdfrwt beam="2">  1       -1 0.40943180E-01 0.69890185E+03</pdfrwt>
<totfact> 0.11187170E+01</totfact>
</mgrwt>
</event>
<event>
 4    1  0.1043382E-007  0.1137838E+04  0.7818608E-02  0.9220053E-01
          1   -1    0    0  501    0  0.00000000000E+00  0.00000000000E+00  0.11575845824E+04  0.11575845824E+04  0.50400000000E-02 0. -1.
         -1   -1    0    0    0  501 -0.00000000000E+00 -0.00000000000E+00 -0.17025493706E+04  0.17025493706E+04  0.50400000000E-02 0.  1.
    8880023    1    1    2    0    0  0.92478954528E+03 -0.75032131976E+02 -0.12458997028E+04  0.16872882977E+04  0.65864270000E+03 0.  0.
    8880022    1    1    2    0    0 -0.92478954528E+03  0.75032131976E+02  0.70093491455E+03  0.11728456554E+04  0.15294330000E+03 0.  0.
<mgrwt>
<rscale>  0 0.10848825E+04</rscale>
<asrwt>0</asrwt>
<pdfrwt beam="1">  1        1 0.17808994E+00 0.11378382E+04</pdfrwt>
<pdfrwt beam="2">  1       -1 0.26193067E+00 0.11378382E+04</pdfrwt>
<totfact> 0.66275256E-01</totfact>
</mgrwt>
</event>
<event>
 4    1  0.1043382E-007  0.6691067E+03  0.7818608E-02  0.1016312E+00
         -1   -1    0    0    0  501 -0.00000000000E+00  0.00000000000E+00  0.40507025912E+03  0.40507025915E+03  0.50400000000E-02 0.  1.
          1   -1    0    0  501    0  0.00000000000E+00 -0.00000000000E+00 -0.21825955170E+04  0.21825955170E+04  0.50400000000E-02 0. -1.
    8880023    1    1    2    0    0  0.47993946028E+02 -0.10765745106E+03  0.12047706799E+03  0.67986651322E+03  0.65864270000E+03 0.  1.
    8880022    1    1    2    0    0 -0.47993946028E+02  0.10765745106E+03 -0.18980023259E+04  0.19077992630E+04  0.15294330000E+03 0.  0.
<mgrwt>
<rscale>  0 0.49041482E+03</rscale>
<asrwt>0</asrwt>
<pdfrwt beam="1">  1        1 0.33578392E+00 0.66910668E+03</pdfrwt>
<pdfrwt beam="2">  1       -1 0.62318503E-01 0.66910668E+03</pdfrwt>
<totfact> 0.62423803E+00</totfact>
</mgrwt>
</event>
<event>
 4    1  0.1043382E-007  0.6948139E+03  0.7818608E-02  0.1001944E+00
          1   -1    0    0  501    0  0.00000000000E+00  0.00000000000E+00  0.18843567526E+03  0.18843567533E+03  0.50400000000E-02 0. -1.
         -1   -1    0    0    0  501 -0.00000000000E+00 -0.00000000000E+00 -0.12336300087E+04  0.12336300087E+04  0.50400000000E-02 0.  1.
    8880023    1    1    2    0    0 -0.20873627003E+03 -0.73384968882E+02 -0.73287879285E+03  0.10098899521E+04  0.65864270000E+03 0.  0.
    8880022    1    1    2    0    0  0.20873627003E+03  0.73384968882E+02 -0.31231554056E+03  0.41217573191E+03  0.15294330000E+03 0.  1.
<mgrwt>
<rscale>  0 0.54806186E+03</rscale>
<asrwt>0</asrwt>
<pdfrwt beam="1">  1        1 0.28990105E-01 0.69481392E+03</pdfrwt>
<pdfrwt beam="2">  1       -1 0.18978923E+00 0.69481392E+03</pdfrwt>
<totfact> 0.29336733E+01</totfact>
</mgrwt>
</event>
<event>
 4    1  0.1043382E-007  0.7833436E+03  0.7818608E-02  0.9748041E-01
          1   -1    0    0  501    0  0.00000000000E+00  0.00000000000E+00  0.98108560855E+03  0.98108560856E+03  0.50400000000E-02 0. -1.
         -1   -1    0    0    0  501 -0.00000000000E+00 -0.00000000000E+00 -0.12405264437E+04  0.12405264438E+04  0.50400000000E-02 0.  1.
    8880023    1    1    2    0    0 -0.36087841531E+03 -0.22267425990E+03 -0.10509283750E+04  0.13107546347E+04  0.65864270000E+03 0.  1.
    8880022    1    1    2    0    0  0.36087841531E+03  0.22267425990E+03  0.79148753978E+03  0.91085741766E+03  0.15294330000E+03 0.  0.
<mgrwt>
<rscale>  0 0.68227119E+03</rscale>
<asrwt>0</asrwt>
<pdfrwt beam="1">  1        1 0.15093625E+00 0.78334364E+03</pdfrwt>
<pdfrwt beam="2">  1       -1 0.19085022E+00 0.78334364E+03</pdfrwt>
<totfact> 0.28249682E+00</totfact>
</mgrwt>
</event>
<event>
 4    1  0.1043382E-007  0.1097805E+04  0.7818608E-02  0.9263504E-01
          1   -1    0    0  501    0  0.00000000000E+00  0.00000000000E+00  0.90619654346E+03  0.90619654347E+03  0.50400000000E-02 0. -1.
         -1   -1    0    0    0  501 -0.00000000000E+00 -0.00000000000E+00 -0.12469002878E+04  0.12469002878E+04  0.50400000000E-02 0.  1.
    8880023    1    1    2    0    0  0.22438050245E+03  0.84912797861E+03 -0.56379595639E+03  0.12341154811E+04  0.65864270000E+03 0.  1.
    8880022    1    1    2    0    0 -0.22438050245E+03 -0.84912797861E+03  0.22309221205E+03  0.91898135020E+03  0.15294330000E+03 0. -1.
<mgrwt>
<rscale>  0 0.10421328E+04</rscale>
<asrwt>0</asrwt>
<pdfrwt beam="1">  1        1 0.13941485E+00 0.10978047E+04</pdfrwt>
<pdfrwt beam="2">  1       -1 0.19183081E+00 0.10978047E+04</pdfrwt>
<totfact> 0.30618156E+00</totfact>
</mgrwt>
</event>
<event>
 4    1  0.1043382E-007  0.6650445E+03  0.7818608E-02  0.1019496E+00
          1   -1    0    0  501    0  0.00000000000E+00  0.00000000000E+00  0.10285680702E+04  0.10285680702E+04  0.50400000000E-02 0. -1.
         -1   -1    0    0    0  501 -0.00000000000E+00 -0.00000000000E+00 -0.43742952115E+03  0.43742952118E+03  0.50400000000E-02 0.  1.
    8880023    1    1    2    0    0  0.54416786230E+02  0.74248164533E+02 -0.16817842253E+03  0.68597971153E+03  0.65864270000E+03 0.  1.
    8880022    1    1    2    0    0 -0.54416786230E+02 -0.74248164533E+02  0.75931697157E+03  0.78001787986E+03  0.15294330000E+03 0.  0.
<mgrwt>
<rscale>  0 0.47868888E+03</rscale>
<asrwt>0</asrwt>
<pdfrwt beam="1">  1        1 0.15824124E+00 0.66504450E+03</pdfrwt>
<pdfrwt beam="2">  1       -1 0.67296850E-01 0.66504450E+03</pdfrwt>
<totfact> 0.33338170E+01</totfact>
</mgrwt>
</event>
<event>
 4    1  0.1043382E-007  0.7010114E+03  0.7818608E-02  0.9993031E-01
          1   -1    0    0  501    0  0.00000000000E+00  0.00000000000E+00  0.13454005341E+04  0.13454005341E+04  0.50400000000E-02 0. -1.
         -1   -1    0    0    0  501 -0.00000000000E+00 -0.00000000000E+00 -0.61460493283E+03  0.61460493285E+03  0.50400000000E-02 0.  1.
    8880023    1    1    2    0    0 -0.65656701217E+02 -0.23085915713E+03 -0.39099242263E+03  0.80267803861E+03  0.65864270000E+03 0.  1.
    8880022    1    1    2    0    0  0.65656701217E+02  0.23085915713E+03  0.11217880239E+04  0.11573274284E+04  0.15294330000E+03 0.  0.
<mgrwt>
<rscale>  0 0.55956863E+03</rscale>
<asrwt>0</asrwt>
<pdfrwt beam="1">  1        1 0.20698470E+00 0.70101138E+03</pdfrwt>
<pdfrwt beam="2">  1       -1 0.94554606E-01 0.70101138E+03</pdfrwt>
<totfact> 0.94898522E+00</totfact>
</mgrwt>
</event>
<event>
 4    1  0.1043382E-007  0.9460149E+03  0.7818608E-02  0.9455871E-01
          1   -1    0    0  501    0  0.00000000000E+00  0.00000000000E+00  0.39986658518E+04  0.39986658518E+04  0.50400000000E-02 0. -1.
         -1   -1    0    0    0  501 -0.00000000000E+00 -0.00000000000E+00 -0.21753732361E+03  0.21753732367E+03  0.50400000000E-02 0.  1.
    8880023    1    1    2    0    0 -0.27402171512E+03  0.62132610824E+03  0.11225655359E+04  0.14680250754E+04  0.65864270000E+03 0.  0.
    8880022    1    1    2    0    0  0.27402171512E+03 -0.62132610824E+03  0.26585629922E+04  0.27481781001E+04  0.15294330000E+03 0.  0.
<mgrwt>
<rscale>  0 0.87616942E+03</rscale>
<asrwt>0</asrwt>
<pdfrwt beam="1">  1        1 0.61517932E+00 0.94601493E+03</pdfrwt>
<pdfrwt beam="2">  1       -1 0.33467283E-01 0.94601493E+03</pdfrwt>
<totfact> 0.85952393E-01</totfact>
</mgrwt>
</event>
<event>
 4    1  0.1043382E-007  0.1015395E+04  0.7818608E-02  0.9361688E-01
         -1   -1    0    0    0  501 -0.00000000000E+00  0.00000000000E+00  0.40716753498E+03  0.40716753501E+03  0.50400000000E-02 0.  1.
          1   -1    0    0  501    0  0.00000000000E+00 -0.00000000000E+00 -0.25776610602E+04  0.25776610602E+04  0.50400000000E-02 0. -1.
    8880023    1    1    2    0    0 -0.25652026792E+03 -0.72898098893E+03 -0.48702334436E+03  0.11261517990E+04  0.65864270000E+03 0.  0.
    8880022    1    1    2    0    0  0.25652026792E+03  0.72898098893E+03 -0.16834701809E+04  0.18586767963E+04  0.15294330000E+03 0.  0.
<mgrwt>
<rscale>  0 0.95296788E+03</rscale>
<asrwt>0</asrwt>
<pdfrwt beam="1">  1        1 0.39656323E+00 0.10153946E+04</pdfrwt>
<pdfrwt beam="2">  1       -1 0.62641160E-01 0.10153946E+04</pdfrwt>
<totfact> 0.31472323E+00</totfact>
</mgrwt>
</event>
<event>
 4    1  0.1043382E-007  0.7152839E+03  0.7818608E-02  0.9938879E-01
         -1   -1    0    0    0  501 -0.00000000000E+00  0.00000000000E+00  0.84123946727E+03  0.84123946728E+03  0.50400000000E-02 0.  1.
          1   -1    0    0  501    0  0.00000000000E+00 -0.00000000000E+00 -0.45150032014E+03  0.45150032017E+03  0.50400000000E-02 0. -1.
    8880023    1    1    2    0    0 -0.19330692608E+03  0.20113011471E+03  0.58101610360E+03  0.92152634776E+03  0.65864270000E+03 0.  1.
    8880022    1    1    2    0    0  0.19330692608E+03 -0.20113011471E+03 -0.19127695647E+03  0.37121343969E+03  0.15294330000E+03 0.  0.
<mgrwt>
<rscale>  0 0.58413488E+03</rscale>
<asrwt>0</asrwt>
<pdfrwt beam="1">  1        1 0.69461588E-01 0.71528393E+03</pdfrwt>
<pdfrwt beam="2">  1       -1 0.12942146E+00 0.71528393E+03</pdfrwt>
<totfact> 0.26871374E+01</totfact>
</mgrwt>
</event>
<event>
 4    1  0.1043382E-007  0.6729883E+03  0.7818608E-02  0.1013605E+00
         -1   -1    0    0    0  501 -0.00000000000E+00  0.00000000000E+00  0.98599381793E+03  0.98599381795E+03  0.50400000000E-02 0.  1.
          1   -1    0    0  501    0  0.00000000000E+00 -0.00000000000E+00 -0.79860372562E+03  0.79860372563E+03  0.50400000000E-02 0. -1.
    8880023    1    1    2    0    0  0.13110304617E+03  0.43761426578E+02  0.85373449571E+03  0.10870951507E+04  0.65864270000E+03 0.  1.
    8880022    1    1    2    0    0 -0.13110304617E+03 -0.43761426578E+02 -0.66634440339E+03  0.69750239291E+03  0.15294330000E+03 0.  0.
<mgrwt>
<rscale>  0 0.50066533E+03</rscale>
<asrwt>0</asrwt>
<pdfrwt beam="1">  1        1 0.12286211E+00 0.67298832E+03</pdfrwt>
<pdfrwt beam="2">  1       -1 0.15169136E+00 0.67298832E+03</pdfrwt>
<totfact> 0.78384351E+00</totfact>
</mgrwt>
</event>
<event>
 4    1  0.1043382E-007  0.7813197E+03  0.7818608E-02  0.9752746E-01
          1   -1    0    0  501    0  0.00000000000E+00  0.00000000000E+00  0.61901864359E+03  0.61901864361E+03  0.50400000000E-02 0. -1.
         -1   -1    0    0    0  501 -0.00000000000E+00 -0.00000000000E+00 -0.69754317827E+03  0.69754317829E+03  0.50400000000E-02 0.  1.
    8880023    1    1    2    0    0  0.41988811206E+03 -0.18552735705E+02 -0.27465456133E+03  0.82818812173E+03  0.65864270000E+03 0.  0.
    8880022    1    1    2    0    0 -0.41988811206E+03  0.18552735705E+02  0.19613002665E+03  0.48837370017E+03  0.15294330000E+03 0.  1.
<mgrwt>
<rscale>  0 0.67961302E+03</rscale>
<asrwt>0</asrwt>
<pdfrwt beam="1">  1        1 0.95233638E-01 0.78131968E+03</pdfrwt>
<pdfrwt beam="2">  1       -1 0.10731433E+00 0.78131968E+03</pdfrwt>
<totfact> 0.27052745E+01</totfact>
</mgrwt>
</event>
<event>
 4    1  0.1043382E-007  0.8655052E+03  0.7818608E-02  0.9583845E-01
         -1   -1    0    0    0  501 -0.00000000000E+00  0.00000000000E+00  0.44314026011E+03  0.44314026014E+03  0.50400000000E-02 0.  1.
          1   -1    0    0  501    0  0.00000000000E+00 -0.00000000000E+00 -0.11826590931E+04  0.11826590932E+04  0.50400000000E-02 0. -1.
    8880023    1    1    2    0    0  0.54280339961E+02 -0.55887621646E+03 -0.46099991549E+03  0.98062230700E+03  0.65864270000E+03 0.  0.
    8880022    1    1    2    0    0 -0.54280339961E+02  0.55887621646E+03 -0.27851891754E+03  0.64517704630E+03  0.15294330000E+03 0.  1.
<mgrwt>
<rscale>  0 0.78374727E+03</rscale>
<asrwt>0</asrwt>
<pdfrwt beam="1">  1        1 0.18194755E+00 0.86550516E+03</pdfrwt>
<pdfrwt beam="2">  1       -1 0.68175425E-01 0.86550516E+03</pdfrwt>
<totfact> 0.24364959E+01</totfact>
</mgrwt>
</event>
<event>
 4    1  0.1043382E-007  0.6754102E+03  0.7818608E-02  0.1012049E+00
          1   -1    0    0  501    0  0.00000000000E+00  0.00000000000E+00  0.55090245050E+03  0.55090245053E+03  0.50400000000E-02 0. -1.
         -1   -1    0    0    0  501 -0.00000000000E+00 -0.00000000000E+00 -0.14702069421E+04  0.14702069421E+04  0.50400000000E-02 0.  1.
    8880023    1    1    2    0    0  0.29040177426E+02 -0.14671546734E+03 -0.13671003715E+04  0.15248417598E+04  0.65864270000E+03 0.  1.
    8880022    1    1    2    0    0 -0.29040177426E+02  0.14671546734E+03  0.44779587997E+03  0.49626763283E+03  0.15294330000E+03 0.  0.
<mgrwt>
<rscale>  0 0.50668374E+03</rscale>
<asrwt>0</asrwt>
<pdfrwt beam="1">  1        1 0.84754223E-01 0.67541022E+03</pdfrwt>
<pdfrwt beam="2">  1       -1 0.22618568E+00 0.67541022E+03</pdfrwt>
<totfact> 0.40722213E+00</totfact>
</mgrwt>
</event>
<event>
 4    1  0.1172010E-007  0.7611921E+03  0.7818608E-02  0.9802031E-01
          1   -1    0    0  501    0  0.00000000000E+00  0.00000000000E+00  0.11768367746E+04  0.11768367746E+04  0.50400000000E-02 0. -1.
         -1   -1    0    0    0  501 -0.00000000000E+00 -0.00000000000E+00 -0.16275846895E+04  0.16275846895E+04  0.50400000000E-02 0.  1.
    8880023    1    1    2    0    0 -0.36533299218E+03  0.11015885906E+03 -0.14974903444E+04  0.16798484179E+04  0.65864270000E+03 0.  1.
    8880022    1    1    2    0    0  0.36533299218E+03 -0.11015885906E+03  0.10467424295E+04  0.11245730461E+04  0.15294330000E+03 0.  0.
<mgrwt>
<rscale>  0 0.65253659E+03</rscale>
<asrwt>0</asrwt>
<pdfrwt beam="1">  1        1 0.18105181E+00 0.76119208E+03</pdfrwt>
<pdfrwt beam="2">  1       -1 0.25039764E+00 0.76119208E+03</pdfrwt>
<totfact> 0.81051927E-01</totfact>
</mgrwt>
</event>
<event>
 4    1  0.1043382E-007  0.8188372E+03  0.7818608E-02  0.9671455E-01
         -1   -1    0    0    0  501 -0.00000000000E+00  0.00000000000E+00  0.11360937412E+04  0.11360937412E+04  0.50400000000E-02 0.  1.
          1   -1    0    0  501    0  0.00000000000E+00 -0.00000000000E+00 -0.46308973024E+03  0.46308973026E+03  0.50400000000E-02 0. -1.
    8880023    1    1    2    0    0 -0.38545216029E+03  0.29683455587E+03  0.71555616912E+03  0.10874350366E+04  0.65864270000E+03 0.  1.
    8880022    1    1    2    0    0  0.38545216029E+03 -0.29683455587E+03 -0.42552158128E+02  0.51174843489E+03  0.15294330000E+03 0. -1.
<mgrwt>
<rscale>  0 0.72742070E+03</rscale>
<asrwt>0</asrwt>
<pdfrwt beam="1">  1        1 0.71244574E-01 0.81883718E+03</pdfrwt>
<pdfrwt beam="2">  1       -1 0.17478365E+00 0.81883718E+03</pdfrwt>
<totfact> 0.11420910E+01</totfact>
</mgrwt>
</event>
<event>
 4    1  0.1043382E-007  0.7747793E+03  0.7818608E-02  0.9768246E-01
         -1   -1    0    0    0  501 -0.00000000000E+00  0.00000000000E+00  0.96074230430E+03  0.96074230432E+03  0.50400000000E-02 0.  1.
          1   -1    0    0  501    0  0.00000000000E+00 -0.00000000000E+00 -0.75148295307E+03  0.75148295309E+03  0.50400000000E-02 0. -1.
    8880023    1    1    2    0    0 -0.96506044235E+01 -0.40789659971E+03  0.70828387536E+03  0.10497375980E+04  0.65864270000E+03 0.  1.
    8880022    1    1    2    0    0  0.96506044235E+01  0.40789659971E+03 -0.49902452412E+03  0.66248765944E+03  0.15294330000E+03 0. -1.
<mgrwt>
<rscale>  0 0.67094815E+03</rscale>
<asrwt>0</asrwt>
<pdfrwt beam="1">  1        1 0.11561276E+00 0.77477931E+03</pdfrwt>
<pdfrwt beam="2">  1       -1 0.14780651E+00 0.77477931E+03</pdfrwt>
<totfact> 0.91130530E+00</totfact>
</mgrwt>
</event>
<event>
 4    1  0.1043382E-007  0.7498477E+03  0.7818608E-02  0.9832137E-01
         -1   -1    0    0    0  501 -0.00000000000E+00  0.00000000000E+00  0.59532868606E+03  0.59532868608E+03  0.50400000000E-02 0.  1.
          1   -1    0    0  501    0  0.00000000000E+00 -0.00000000000E+00 -0.55272790729E+03  0.55272790731E+03  0.50400000000E-02 0. -1.
    8880023    1    1    2    0    0  0.21976585703E+03 -0.28313296171E+03  0.91123181499E+02  0.75536411511E+03  0.65864270000E+03 0.  0.
    8880022    1    1    2    0    0 -0.21976585703E+03  0.28313296171E+03 -0.48522402729E+02  0.39269247829E+03  0.15294330000E+03 0.  1.
<mgrwt>
<rscale>  0 0.63666018E+03</rscale>
<asrwt>0</asrwt>
<pdfrwt beam="1">  1        1 0.85035063E-01 0.74984766E+03</pdfrwt>
<pdfrwt beam="2">  1       -1 0.91589028E-01 0.74984766E+03</pdfrwt>
<totfact> 0.45746282E+01</totfact>
</mgrwt>
</event>
<event>
 4    1  0.1043382E-007  0.6901067E+03  0.7818608E-02  0.1004102E+00
         -1   -1    0    0    0  501 -0.00000000000E+00  0.00000000000E+00  0.27641506057E+04  0.27641506057E+04  0.50400000000E-02 0.  1.
          1   -1    0    0  501    0  0.00000000000E+00 -0.00000000000E+00 -0.15245067624E+03  0.15245067632E+03  0.50400000000E-02 0. -1.
    8880023    1    1    2    0    0 -0.20589327510E+03  0.67102125994E+01  0.25644919708E+04  0.26557233181E+04  0.65864270000E+03 0.  1.
    8880022    1    1    2    0    0  0.20589327510E+03 -0.67102125994E+01  0.47207958647E+02  0.26087796392E+03  0.15294330000E+03 0.  0.
<mgrwt>
<rscale>  0 0.53887634E+03</rscale>
<asrwt>0</asrwt>
<pdfrwt beam="1">  1        1 0.23453952E-01 0.69010671E+03</pdfrwt>
<pdfrwt beam="2">  1       -1 0.42525391E+00 0.69010671E+03</pdfrwt>
<totfact> 0.10973818E+00</totfact>
</mgrwt>
</event>
<event>
 4    1  0.1043382E-007  0.6598332E+03  0.7818608E-02  0.1024328E+00
          1   -1    0    0  501    0  0.00000000000E+00  0.00000000000E+00  0.25474694472E+03  0.25474694477E+03  0.50400000000E-02 0. -1.
         -1   -1    0    0    0  501 -0.00000000000E+00 -0.00000000000E+00 -0.95589192745E+03  0.95589192746E+03  0.50400000000E-02 0.  1.
    8880023    1    1    2    0    0  0.28174466638E+02  0.27852821606E+02 -0.79005171816E+03  0.10293500395E+04  0.65864270000E+03 0.  0.
    8880022    1    1    2    0    0 -0.28174466638E+02 -0.27852821606E+02  0.88906735433E+02  0.18128883270E+03  0.15294330000E+03 0. -1.
<mgrwt>
<rscale>  0 0.46156605E+03</rscale>
<asrwt>0</asrwt>
<pdfrwt beam="1">  1        1 0.39191838E-01 0.65983315E+03</pdfrwt>
<pdfrwt beam="2">  1       -1 0.14706029E+00 0.65983315E+03</pdfrwt>
<totfact> 0.41084127E+01</totfact>
</mgrwt>
</event>
<event>
 4    1  0.1043382E-007  0.7326312E+03  0.7818608E-02  0.9881956E-01
         -1   -1    0    0    0  501 -0.00000000000E+00  0.00000000000E+00  0.40369910685E+03  0.40369910688E+03  0.50400000000E-02 0.  1.
          1   -1    0    0  501    0  0.00000000000E+00 -0.00000000000E+00 -0.17297979253E+04  0.17297979253E+04  0.50400000000E-02 0. -1.
    8880023    1    1    2    0    0  0.32083996894E+03 -0.20655053859E+00  0.28359746876E+02  0.73317993006E+03  0.65864270000E+03 0.  1.
    8880022    1    1    2    0    0 -0.32083996894E+03  0.20655053859E+00 -0.13544585653E+04  0.14003171021E+04  0.15294330000E+03 0.  0.
<mgrwt>
<rscale>  0 0.61143793E+03</rscale>
<asrwt>0</asrwt>
<pdfrwt beam="1">  1        1 0.26612275E+00 0.73263124E+03</pdfrwt>
<pdfrwt beam="2">  1       -1 0.62107556E-01 0.73263124E+03</pdfrwt>
<totfact> 0.12475487E+01</totfact>
</mgrwt>
</event>
<event>
 4    1  0.1043382E-007  0.8984145E+03  0.7818608E-02  0.9528582E-01
          1   -1    0    0  501    0  0.00000000000E+00  0.00000000000E+00  0.17158357748E+04  0.17158357748E+04  0.50400000000E-02 0. -1.
         -1   -1    0    0    0  501 -0.00000000000E+00 -0.00000000000E+00 -0.55918827828E+03  0.55918827831E+03  0.50400000000E-02 0.  1.
    8880023    1    1    2    0    0 -0.27235786072E+02 -0.61040687000E+03 -0.64788543047E+02  0.90074752098E+03  0.65864270000E+03 0.  0.
    8880022    1    1    2    0    0  0.27235786072E+02  0.61040687000E+03  0.12214360395E+04  0.13742765321E+04  0.15294330000E+03 0.  0.
<mgrwt>
<rscale>  0 0.82209012E+03</rscale>
<asrwt>0</asrwt>
<pdfrwt beam="1">  1        1 0.26397474E+00 0.89841446E+03</pdfrwt>
<pdfrwt beam="2">  1       -1 0.86028965E-01 0.89841446E+03</pdfrwt>
<totfact> 0.63307851E+00</totfact>
</mgrwt>
</event>
<event>
 4    1  0.1043382E-007  0.8153106E+03  0.7818608E-02  0.9678620E-01
          1   -1    0    0  501    0  0.00000000000E+00  0.00000000000E+00  0.16113568085E+04  0.16113568085E+04  0.50400000000E-02 0. -1.
         -1   -1    0    0    0  501 -0.00000000000E+00 -0.00000000000E+00 -0.49045979361E+03  0.49045979364E+03  0.50400000000E-02 0.  1.
    8880023    1    1    2    0    0  0.19020530601E+02  0.48016592273E+03 -0.60234925273E+02  0.81753259655E+03  0.65864270000E+03 0.  1.
    8880022    1    1    2    0    0 -0.19020530601E+02 -0.48016592273E+03  0.11811319401E+04  0.12842840056E+04  0.15294330000E+03 0.  0.
<mgrwt>
<rscale>  0 0.72304165E+03</rscale>
<asrwt>0</asrwt>
<pdfrwt beam="1">  1        1 0.24790104E+00 0.81531055E+03</pdfrwt>
<pdfrwt beam="2">  1       -1 0.75455354E-01 0.81531055E+03</pdfrwt>
<totfact> 0.99680547E+00</totfact>
</mgrwt>
</event>
<event>
 4    1  0.1043382E-007  0.1133407E+04  0.7818608E-02  0.9224742E-01
          1   -1    0    0  501    0  0.00000000000E+00  0.00000000000E+00  0.27612142973E+04  0.27612142973E+04  0.50400000000E-02 0. -1.
         -1   -1    0    0    0  501 -0.00000000000E+00 -0.00000000000E+00 -0.68417128198E+03  0.68417128200E+03  0.50400000000E-02 0.  1.
    8880023    1    1    2    0    0 -0.92088684913E+03  0.52620689311E+02 -0.36790291237E+02  0.11340040818E+04  0.65864270000E+03 0.  1.
    8880022    1    1    2    0    0  0.92088684913E+03 -0.52620689311E+02  0.21138333065E+04  0.23113814974E+04  0.15294330000E+03 0.  0.
<mgrwt>
<rscale>  0 0.10801657E+04</rscale>
<asrwt>0</asrwt>
<pdfrwt beam="1">  1        1 0.42480221E+00 0.11334071E+04</pdfrwt>
<pdfrwt beam="2">  1       -1 0.10525712E+00 0.11334071E+04</pdfrwt>
<totfact> 0.75336785E-01</totfact>
</mgrwt>
</event>
<event>
 4    1  0.1043382E-007  0.7879926E+03  0.7818608E-02  0.9737386E-01
          1   -1    0    0  501    0  0.00000000000E+00  0.00000000000E+00  0.27159480104E+04  0.27159480105E+04  0.50400000000E-02 0. -1.
         -1   -1    0    0    0  501 -0.00000000000E+00 -0.00000000000E+00 -0.32615101651E+03  0.32615101654E+03  0.50400000000E-02 0.  1.
    8880023    1    1    2    0    0  0.26884760476E+03  0.33888516742E+03  0.21132912453E+03  0.81583846221E+03  0.65864270000E+03 0.  0.
    8880022    1    1    2    0    0 -0.26884760476E+03 -0.33888516742E+03  0.21784678694E+04  0.22262605648E+04  0.15294330000E+03 0. -1.
<mgrwt>
<rscale>  0 0.68833793E+03</rscale>
<asrwt>0</asrwt>
<pdfrwt beam="1">  1        1 0.41783815E+00 0.78799264E+03</pdfrwt>
<pdfrwt beam="2">  1       -1 0.50177081E-01 0.78799264E+03</pdfrwt>
<totfact> 0.40288778E+00</totfact>
</mgrwt>
</event>
<event>
 4    1  0.1043382E-007  0.7969988E+03  0.7818608E-02  0.9717323E-01
          1   -1    0    0  501    0  0.00000000000E+00  0.00000000000E+00  0.16653746567E+04  0.16653746567E+04  0.50400000000E-02 0. -1.
         -1   -1    0    0    0  501 -0.00000000000E+00 -0.00000000000E+00 -0.27894111783E+03  0.27894111788E+03  0.50400000000E-02 0.  1.
    8880023    1    1    2    0    0 -0.27708142187E+03 -0.35301941975E+03  0.50517871365E+03  0.94361674638E+03  0.65864270000E+03 0.  0.
    8880022    1    1    2    0    0  0.27708142187E+03  0.35301941975E+03  0.88125482522E+03  0.10006990282E+04  0.15294330000E+03 0.  1.
<mgrwt>
<rscale>  0 0.69994674E+03</rscale>
<asrwt>0</asrwt>
<pdfrwt beam="1">  1        1 0.25621149E+00 0.79699876E+03</pdfrwt>
<pdfrwt beam="2">  1       -1 0.42914018E-01 0.79699876E+03</pdfrwt>
<totfact> 0.27688955E+01</totfact>
</mgrwt>
</event>
<event>
 4    1  0.1043382E-007  0.8755220E+03  0.7818608E-02  0.9566528E-01
         -1   -1    0    0    0  501 -0.00000000000E+00  0.00000000000E+00  0.32181524154E+03  0.32181524158E+03  0.50400000000E-02 0.  1.
          1   -1    0    0  501    0  0.00000000000E+00 -0.00000000000E+00 -0.20014795684E+04  0.20014795684E+04  0.50400000000E-02 0. -1.
    8880023    1    1    2    0    0 -0.57299994533E+03  0.66329630604E+02 -0.51791431905E+03  0.10172384211E+04  0.65864270000E+03 0.  0.
    8880022    1    1    2    0    0  0.57299994533E+03 -0.66329630604E+02 -0.11617500078E+04  0.13060563888E+04  0.15294330000E+03 0.  0.
<mgrwt>
<rscale>  0 0.79551775E+03</rscale>
<asrwt>0</asrwt>
<pdfrwt beam="1">  1        1 0.30791993E+00 0.87552199E+03</pdfrwt>
<pdfrwt beam="2">  1       -1 0.49510038E-01 0.87552199E+03</pdfrwt>
<totfact> 0.12477380E+01</totfact>
</mgrwt>
</event>
<event>
 4    1  0.1043382E-007  0.1022175E+04  0.7818608E-02  0.9353104E-01
         -1   -1    0    0    0  501 -0.00000000000E+00  0.00000000000E+00  0.12570017626E+04  0.12570017627E+04  0.50400000000E-02 0.  1.
          1   -1    0    0  501    0  0.00000000000E+00 -0.00000000000E+00 -0.19255415411E+04  0.19255415411E+04  0.50400000000E-02 0. -1.
    8880023    1    1    2    0    0  0.78166724812E+03  0.52754912648E+01 -0.16361909716E+04  0.19292388705E+04  0.65864270000E+03 0. -1.
    8880022    1    1    2    0    0 -0.78166724812E+03 -0.52754912648E+01  0.96765119321E+03  0.12533044332E+04  0.15294330000E+03 0.  0.
<mgrwt>
<rscale>  0 0.96037605E+03</rscale>
<asrwt>0</asrwt>
<pdfrwt beam="1">  1        1 0.29623716E+00 0.10221750E+04</pdfrwt>
<pdfrwt beam="2">  1       -1 0.19338489E+00 0.10221750E+04</pdfrwt>
<totfact> 0.56442089E-01</totfact>
</mgrwt>
</event>
<event>
 4    1  0.1043382E-007  0.6816556E+03  0.7818608E-02  0.1008402E+00
          1   -1    0    0  501    0  0.00000000000E+00  0.00000000000E+00  0.15180537757E+04  0.15180537757E+04  0.50400000000E-02 0. -1.
         -1   -1    0    0    0  501 -0.00000000000E+00 -0.00000000000E+00 -0.36746348405E+03  0.36746348409E+03  0.50400000000E-02 0.  1.
    8880023    1    1    2    0    0  0.17504801605E+03 -0.14223380920E+02 -0.29864384411E+02  0.68230946073E+03  0.65864270000E+03 0.  1.
    8880022    1    1    2    0    0 -0.17504801605E+03  0.14223380920E+02  0.11804546760E+04  0.12032077990E+04  0.15294330000E+03 0.  0.
<mgrwt>
<rscale>  0 0.52114607E+03</rscale>
<asrwt>0</asrwt>
<pdfrwt beam="1">  1        1 0.23354673E+00 0.68165557E+03</pdfrwt>
<pdfrwt beam="2">  1       -1 0.56532844E-01 0.68165557E+03</pdfrwt>
<totfact> 0.21020191E+01</totfact>
</mgrwt>
</event>
<event>
 4    1  0.1043382E-007  0.9772176E+03  0.7818608E-02  0.9411990E-01
          1   -1    0    0  501    0  0.00000000000E+00  0.00000000000E+00  0.10722815628E+04  0.10722815628E+04  0.50400000000E-02 0. -1.
         -1   -1    0    0    0  501 -0.00000000000E+00 -0.00000000000E+00 -0.10628531415E+04  0.10628531416E+04  0.50400000000E-02 0.  1.
    8880023    1    1    2    0    0  0.70818278650E+03  0.14007589957E+03  0.63694398690E+03  0.11664698734E+04  0.65864270000E+03 0. -1.
    8880022    1    1    2    0    0 -0.70818278650E+03 -0.14007589957E+03 -0.62751556564E+03  0.96866483103E+03  0.15294330000E+03 0.  0.
<mgrwt>
<rscale>  0 0.91095469E+03</rscale>
<asrwt>0</asrwt>
<pdfrwt beam="1">  1        1 0.16496639E+00 0.97721764E+03</pdfrwt>
<pdfrwt beam="2">  1       -1 0.16351587E+00 0.97721764E+03</pdfrwt>
<totfact> 0.36800801E+00</totfact>
</mgrwt>
</event>
<event>
 4    1  0.1043382E-007  0.7308640E+03  0.7818608E-02  0.9887406E-01
         -1   -1    0    0    0  501 -0.00000000000E+00  0.00000000000E+00  0.26676986593E+03  0.26676986597E+03  0.50400000000E-02 0.  1.
          1   -1    0    0  501    0  0.00000000000E+00 -0.00000000000E+00 -0.17200233212E+04  0.17200233212E+04  0.50400000000E-02 0. -1.
    8880023    1    1    2    0    0 -0.31474178412E+03 -0.35911288670E+02 -0.31577610779E+03  0.79616378205E+03  0.65864270000E+03 0.  1.
    8880022    1    1    2    0    0  0.31474178412E+03  0.35911288670E+02 -0.11374773475E+04  0.11906294051E+04  0.15294330000E+03 0.  0.
<mgrwt>
<rscale>  0 0.60875538E+03</rscale>
<asrwt>0</asrwt>
<pdfrwt beam="1">  1        1 0.26461897E+00 0.73086402E+03</pdfrwt>
<pdfrwt beam="2">  1       -1 0.41041519E-01 0.73086402E+03</pdfrwt>
<totfact> 0.27836404E+01</totfact>
</mgrwt>
</event>
<event>
 4    1  0.1043382E-007  0.7452555E+03  0.7818608E-02  0.9844894E-01
         -1   -1    0    0    0  501 -0.00000000000E+00  0.00000000000E+00  0.37322995415E+03  0.37322995418E+03  0.50400000000E-02 0.  1.
          1   -1    0    0  501    0  0.00000000000E+00 -0.00000000000E+00 -0.25652604521E+04  0.25652604521E+04  0.50400000000E-02 0. -1.
    8880023    1    1    2    0    0 -0.13954507209E+02 -0.34842623710E+03 -0.32835954970E+02  0.74597853667E+03  0.65864270000E+03 0.  1.
    8880022    1    1    2    0    0  0.13954507209E+02  0.34842623710E+03 -0.21591945430E+04  0.21925118697E+04  0.15294330000E+03 0.  0.
<mgrwt>
<rscale>  0 0.63007916E+03</rscale>
<asrwt>0</asrwt>
<pdfrwt beam="1">  1        1 0.39465544E+00 0.74525551E+03</pdfrwt>
<pdfrwt beam="2">  1       -1 0.57419995E-01 0.74525551E+03</pdfrwt>
<totfact> 0.39817028E+00</totfact>
</mgrwt>
</event>
<event>
 4    1  0.1043382E-007  0.8117384E+03  0.7818608E-02  0.9685967E-01
         -1   -1    0    0    0  501 -0.00000000000E+00  0.00000000000E+00  0.65074543540E+03  0.65074543542E+03  0.50400000000E-02 0.  1.
          1   -1    0    0  501    0  0.00000000000E+00 -0.00000000000E+00 -0.13386502226E+04  0.13386502226E+04  0.50400000000E-02 0. -1.
    8880023    1    1    2    0    0 -0.37290728643E+03 -0.29334147477E+03  0.31397914002E+03  0.87034600689E+03  0.65864270000E+03 0.  0.
    8880022    1    1    2    0    0  0.37290728643E+03  0.29334147477E+03 -0.10018839272E+04  0.11190496511E+04  0.15294330000E+03 0.  0.
<mgrwt>
<rscale>  0 0.71858481E+03</rscale>
<asrwt>0</asrwt>
<pdfrwt beam="1">  1        1 0.20594619E+00 0.81173843E+03</pdfrwt>
<pdfrwt beam="2">  1       -1 0.10011468E+00 0.81173843E+03</pdfrwt>
<totfact> 0.82963361E+00</totfact>
</mgrwt>
</event>
<event>
 4    1  0.1043382E-007  0.7004973E+03  0.7818608E-02  0.9995144E-01
          1   -1    0    0  501    0  0.00000000000E+00  0.00000000000E+00  0.86321765035E+03  0.86321765036E+03  0.50400000000E-02 0. -1.
         -1   -1    0    0    0  501 -0.00000000000E+00 -0.00000000000E+00 -0.48081139735E+03  0.48081139737E+03  0.50400000000E-02 0.  1.
    8880023    1    1    2    0    0 -0.20549542820E+03  0.12106970891E+03 -0.17210059743E+03  0.72132868190E+03  0.65864270000E+03 0.  0.
    8880022    1    1    2    0    0  0.20549542820E+03 -0.12106970891E+03  0.55450685043E+03  0.62270036584E+03  0.15294330000E+03 0.  0.
<mgrwt>
<rscale>  0 0.55863655E+03</rscale>
<asrwt>0</asrwt>
<pdfrwt beam="1">  1        1 0.13280272E+00 0.70049729E+03</pdfrwt>
<pdfrwt beam="2">  1       -1 0.73970984E-01 0.70049729E+03</pdfrwt>
<totfact> 0.37012963E+01</totfact>
</mgrwt>
</event>
<event>
 4    1  0.1043382E-007  0.8833402E+03  0.7818608E-02  0.9553323E-01
         -1   -1    0    0    0  501 -0.00000000000E+00  0.00000000000E+00  0.39032046203E+03  0.39032046207E+03  0.50400000000E-02 0.  1.
          1   -1    0    0  501    0  0.00000000000E+00 -0.00000000000E+00 -0.24450937408E+04  0.24450937408E+04  0.50400000000E-02 0. -1.
    8880023    1    1    2    0    0  0.58766776458E+03 -0.33561015367E+02 -0.23119315495E+03  0.91309376541E+03  0.65864270000E+03 0.  1.
    8880022    1    1    2    0    0 -0.58766776458E+03  0.33561015367E+02 -0.18235801238E+04  0.19223204375E+04  0.15294330000E+03 0.  0.
<mgrwt>
<rscale>  0 0.80464135E+03</rscale>
<asrwt>0</asrwt>
<pdfrwt beam="1">  1        1 0.37616826E+00 0.88334022E+03</pdfrwt>
<pdfrwt beam="2">  1       -1 0.60049303E-01 0.88334022E+03</pdfrwt>
<totfact> 0.43041025E+00</totfact>
</mgrwt>
</event>
<event>
 4    1  0.1043382E-007  0.7022146E+03  0.7818608E-02  0.9988135E-01
          1   -1    0    0  501    0  0.00000000000E+00  0.00000000000E+00  0.25584840877E+04  0.25584840877E+04  0.50400000000E-02 0. -1.
         -1   -1    0    0    0  501 -0.00000000000E+00 -0.00000000000E+00 -0.16295917494E+03  0.16295917502E+03  0.50400000000E-02 0.  1.
    8880023    1    1    2    0    0 -0.18730167660E+03  0.15560588471E+03  0.66478056544E+03  0.96697389616E+03  0.65864270000E+03 0.  1.
    8880022    1    1    2    0    0  0.18730167660E+03 -0.15560588471E+03  0.17307443473E+04  0.17544693666E+04  0.15294330000E+03 0.  0.
<mgrwt>
<rscale>  0 0.56173551E+03</rscale>
<asrwt>0</asrwt>
<pdfrwt beam="1">  1        1 0.39361297E+00 0.70221458E+03</pdfrwt>
<pdfrwt beam="2">  1       -1 0.25070640E-01 0.70221458E+03</pdfrwt>
<totfact> 0.18178004E+01</totfact>
</mgrwt>
</event>
<event>
 4    1  0.1043382E-007  0.8740342E+03  0.7818608E-02  0.9569071E-01
          1   -1    0    0  501    0  0.00000000000E+00  0.00000000000E+00  0.12510786237E+04  0.12510786237E+04  0.50400000000E-02 0. -1.
         -1   -1    0    0    0  501 -0.00000000000E+00 -0.00000000000E+00 -0.11313214382E+04  0.11313214382E+04  0.50400000000E-02 0.  1.
    8880023    1    1    2    0    0  0.42078600381E+03 -0.39123479858E+03 -0.86651831414E+03  0.12307679406E+04  0.65864270000E+03 0.  1.
    8880022    1    1    2    0    0 -0.42078600381E+03  0.39123479858E+03  0.98627549967E+03  0.11516321213E+04  0.15294330000E+03 0.  0.
<mgrwt>
<rscale>  0 0.79377538E+03</rscale>
<asrwt>0</asrwt>
<pdfrwt beam="1">  1        1 0.19247363E+00 0.87403417E+03</pdfrwt>
<pdfrwt beam="2">  1       -1 0.17404945E+00 0.87403417E+03</pdfrwt>
<totfact> 0.23049215E+00</totfact>
</mgrwt>
</event>
<event>
 4    1  0.1043382E-007  0.7871533E+03  0.7818608E-02  0.9739294E-01
         -1   -1    0    0    0  501 -0.00000000000E+00  0.00000000000E+00  0.14350001012E+04  0.14350001012E+04  0.50400000000E-02 0.  1.
          1   -1    0    0  501    0  0.00000000000E+00 -0.00000000000E+00 -0.30946917625E+03  0.30946917630E+03  0.50400000000E-02 0. -1.
    8880023    1    1    2    0    0  0.38643901561E+03 -0.19095829432E+03  0.99523256117E+03  0.12688964654E+04  0.65864270000E+03 0.  1.
    8880022    1    1    2    0    0 -0.38643901561E+03  0.19095829432E+03  0.13029836379E+03  0.47557281207E+03  0.15294330000E+03 0.  0.
<mgrwt>
<rscale>  0 0.68724660E+03</rscale>
<asrwt>0</asrwt>
<pdfrwt beam="1">  1        1 0.47610642E-01 0.78715335E+03</pdfrwt>
<pdfrwt beam="2">  1       -1 0.22076925E+00 0.78715335E+03</pdfrwt>
<totfact> 0.94139553E+00</totfact>
</mgrwt>
</event>
<event>
 4    1  0.1043382E-007  0.9476446E+03  0.7818608E-02  0.9453511E-01
         -1   -1    0    0    0  501 -0.00000000000E+00  0.00000000000E+00  0.11689718616E+04  0.11689718616E+04  0.50400000000E-02 0.  1.
          1   -1    0    0  501    0  0.00000000000E+00 -0.00000000000E+00 -0.98504485948E+03  0.98504485949E+03  0.50400000000E-02 0. -1.
    8880023    1    1    2    0    0 -0.66586214374E+03 -0.14438741605E+03  0.78663252348E+03  0.12315928928E+04  0.65864270000E+03 0.  0.
    8880022    1    1    2    0    0  0.66586214374E+03  0.14438741605E+03 -0.60270552140E+03  0.92242382824E+03  0.15294330000E+03 0.  0.
<mgrwt>
<rscale>  0 0.87799774E+03</rscale>
<asrwt>0</asrwt>
<pdfrwt beam="1">  1        1 0.15154536E+00 0.94764462E+03</pdfrwt>
<pdfrwt beam="2">  1       -1 0.17984182E+00 0.94764462E+03</pdfrwt>
<totfact> 0.32759742E+00</totfact>
</mgrwt>
</event>
<event>
 4    1  0.1043382E-007  0.7938436E+03  0.7818608E-02  0.9724269E-01
         -1   -1    0    0    0  501 -0.00000000000E+00  0.00000000000E+00  0.60615312215E+03  0.60615312217E+03  0.50400000000E-02 0.  1.
          1   -1    0    0  501    0  0.00000000000E+00 -0.00000000000E+00 -0.79956469964E+03  0.79956469965E+03  0.50400000000E-02 0. -1.
    8880023    1    1    2    0    0 -0.43274457411E+03 -0.95443988606E+02 -0.40522912606E+03  0.89129022897E+03  0.65864270000E+03 0.  0.
    8880022    1    1    2    0    0  0.43274457411E+03  0.95443988606E+02  0.21181754857E+03  0.51442759285E+03  0.15294330000E+03 0.  0.
<mgrwt>
<rscale>  0 0.69590030E+03</rscale>
<asrwt>0</asrwt>
<pdfrwt beam="1">  1        1 0.12300995E+00 0.79384358E+03</pdfrwt>
<pdfrwt beam="2">  1       -1 0.93254326E-01 0.79384358E+03</pdfrwt>
<totfact> 0.25234316E+01</totfact>
</mgrwt>
</event>
<event>
 4    1  0.1043382E-007  0.7095413E+03  0.7818608E-02  0.9959708E-01
          1   -1    0    0  501    0  0.00000000000E+00  0.00000000000E+00  0.24435571716E+04  0.24435571716E+04  0.50400000000E-02 0. -1.
         -1   -1    0    0    0  501 -0.00000000000E+00 -0.00000000000E+00 -0.18954716459E+03  0.18954716466E+03  0.50400000000E-02 0.  1.
    8880023    1    1    2    0    0  0.11838808221E+03 -0.23584516983E+03  0.53864926221E+03  0.89083776081E+03  0.65864270000E+03 0.  0.
    8880022    1    1    2    0    0 -0.11838808221E+03  0.23584516983E+03  0.17153607448E+04  0.17422665754E+04  0.15294330000E+03 0.  0.
<mgrwt>
<rscale>  0 0.57452819E+03</rscale>
<asrwt>0</asrwt>
<pdfrwt beam="1">  1        1 0.37593189E+00 0.70954132E+03</pdfrwt>
<pdfrwt beam="2">  1       -1 0.29161101E-01 0.70954132E+03</pdfrwt>
<totfact> 0.16770439E+01</totfact>
</mgrwt>
</event>
<event>
 4    1  0.1043382E-007  0.7612851E+03  0.7818608E-02  0.9801792E-01
         -1   -1    0    0    0  501 -0.00000000000E+00  0.00000000000E+00  0.22687400666E+03  0.22687400671E+03  0.50400000000E-02 0.  1.
          1   -1    0    0  501    0  0.00000000000E+00 -0.00000000000E+00 -0.21379816850E+04  0.21379816851E+04  0.50400000000E-02 0. -1.
    8880023    1    1    2    0    0 -0.14157521052E+03 -0.35454380632E+03 -0.53989310082E+03  0.93329503235E+03  0.65864270000E+03 0.  1.
    8880022    1    1    2    0    0  0.14157521052E+03  0.35454380632E+03 -0.13712145776E+04  0.14315606594E+04  0.15294330000E+03 0.  0.
<mgrwt>
<rscale>  0 0.65266479E+03</rscale>
<asrwt>0</asrwt>
<pdfrwt beam="1">  1        1 0.32892025E+00 0.76128514E+03</pdfrwt>
<pdfrwt beam="2">  1       -1 0.34903695E-01 0.76128514E+03</pdfrwt>
<totfact> 0.19496314E+01</totfact>
</mgrwt>
</event>
<event>
 4    1  0.1043382E-007  0.7473170E+03  0.7818608E-02  0.9839124E-01
         -1   -1    0    0    0  501 -0.00000000000E+00  0.00000000000E+00  0.11441179172E+04  0.11441179172E+04  0.50400000000E-02 0.  1.
          1   -1    0    0  501    0  0.00000000000E+00 -0.00000000000E+00 -0.66597971387E+03  0.66597971389E+03  0.50400000000E-02 0. -1.
    8880023    1    1    2    0    0  0.28647922554E+03 -0.20640278232E+03  0.94520120389E+03  0.12049431428E+04  0.65864270000E+03 0.  1.
    8880022    1    1    2    0    0 -0.28647922554E+03  0.20640278232E+03 -0.46706300057E+03  0.60515448832E+03  0.15294330000E+03 0.  0.
<mgrwt>
<rscale>  0 0.63304540E+03</rscale>
<asrwt>0</asrwt>
<pdfrwt beam="1">  1        1 0.10245842E+00 0.74731698E+03</pdfrwt>
<pdfrwt beam="2">  1       -1 0.17601814E+00 0.74731698E+03</pdfrwt>
<totfact> 0.67526940E+00</totfact>
</mgrwt>
</event>
<event>
 4    1  0.1043382E-007  0.7602689E+03  0.7818608E-02  0.9804412E-01
          1   -1    0    0  501    0  0.00000000000E+00  0.00000000000E+00  0.64481245438E+03  0.64481245440E+03  0.50400000000E-02 0. -1.
         -1   -1    0    0    0  501 -0.00000000000E+00 -0.00000000000E+00 -0.77964615233E+03  0.77964615234E+03  0.50400000000E-02 0.  1.
    8880023    1    1    2    0    0 -0.10845737112E+03 -0.36391709901E+03 -0.47134456493E+03  0.89452476850E+03  0.65864270000E+03 0.  1.
    8880022    1    1    2    0    0  0.10845737112E+03  0.36391709901E+03  0.33651086698E+03  0.52993383824E+03  0.15294330000E+03 0.  0.
<mgrwt>
<rscale>  0 0.65126322E+03</rscale>
<asrwt>0</asrwt>
<pdfrwt beam="1">  1        1 0.99201916E-01 0.76026894E+03</pdfrwt>
<pdfrwt beam="2">  1       -1 0.11994556E+00 0.76026894E+03</pdfrwt>
<totfact> 0.19589569E+01</totfact>
</mgrwt>
</event>
<event>
 4    1  0.1043382E-007  0.9535500E+03  0.7818608E-02  0.9445025E-01
         -1   -1    0    0    0  501 -0.00000000000E+00  0.00000000000E+00  0.27226935882E+03  0.27226935887E+03  0.50400000000E-02 0.  1.
          1   -1    0    0  501    0  0.00000000000E+00 -0.00000000000E+00 -0.33955039364E+04  0.33955039364E+04  0.50400000000E-02 0. -1.
    8880023    1    1    2    0    0  0.61419067032E+03  0.31339632242E+03 -0.81658664757E+03  0.12554168207E+04  0.65864270000E+03 0.  0.
    8880022    1    1    2    0    0 -0.61419067032E+03 -0.31339632242E+03 -0.23066479300E+04  0.24123564746E+04  0.15294330000E+03 0.  0.
<mgrwt>
<rscale>  0 0.88461168E+03</rscale>
<asrwt>0</asrwt>
<pdfrwt beam="1">  1        1 0.52238519E+00 0.95355002E+03</pdfrwt>
<pdfrwt beam="2">  1       -1 0.41887596E-01 0.95355002E+03</pdfrwt>
<totfact> 0.17618293E+00</totfact>
</mgrwt>
</event>
<event>
 4    1  0.1043382E-007  0.9951743E+03  0.7818608E-02  0.9387899E-01
         -1   -1    0    0    0  501 -0.00000000000E+00  0.00000000000E+00  0.79625834385E+03  0.79625834386E+03  0.50400000000E-02 0.  1.
          1   -1    0    0  501    0  0.00000000000E+00 -0.00000000000E+00 -0.13217808819E+04  0.13217808819E+04  0.50400000000E-02 0. -1.
    8880023    1    1    2    0    0 -0.64705765025E+03  0.37131927664E+03  0.25523236762E+03  0.10273827795E+04  0.65864270000E+03 0.  0.
    8880022    1    1    2    0    0  0.64705765025E+03 -0.37131927664E+03 -0.78075490568E+03  0.10906564462E+04  0.15294330000E+03 0.  0.
<mgrwt>
<rscale>  0 0.93078307E+03</rscale>
<asrwt>0</asrwt>
<pdfrwt beam="1">  1        1 0.20335091E+00 0.99517426E+03</pdfrwt>
<pdfrwt beam="2">  1       -1 0.12250128E+00 0.99517426E+03</pdfrwt>
<totfact> 0.51589726E+00</totfact>
</mgrwt>
</event>
<event>
 4    1  0.1128067E-007  0.7687364E+03  0.7818608E-02  0.9782993E-01
          1   -1    0    0  501    0  0.00000000000E+00  0.00000000000E+00  0.11230080005E+04  0.11230080005E+04  0.50400000000E-02 0. -1.
         -1   -1    0    0    0  501 -0.00000000000E+00 -0.00000000000E+00 -0.90522771669E+03  0.90522771670E+03  0.50400000000E-02 0.  1.
    8880023    1    1    2    0    0 -0.16983015753E+03 -0.35819431769E+03 -0.68551760976E+03  0.10299951705E+04  0.65864270000E+03 0.  1.
    8880022    1    1    2    0    0  0.16983015753E+03  0.35819431769E+03  0.90329789355E+03  0.99824054673E+03  0.15294330000E+03 0.  0.
<mgrwt>
<rscale>  0 0.66283265E+03</rscale>
<asrwt>0</asrwt>
<pdfrwt beam="1">  1        1 0.17277046E+00 0.76873640E+03</pdfrwt>
<pdfrwt beam="2">  1       -1 0.13926580E+00 0.76873640E+03</pdfrwt>
<totfact> 0.53544584E+00</totfact>
</mgrwt>
</event>
<event>
 4    1  0.1043382E-007  0.1280909E+04  0.7818608E-02  0.9082224E-01
         -1   -1    0    0    0  501 -0.00000000000E+00  0.00000000000E+00  0.16196816383E+04  0.16196816384E+04  0.50400000000E-02 0.  1.
          1   -1    0    0  501    0  0.00000000000E+00 -0.00000000000E+00 -0.11541446124E+04  0.11541446124E+04  0.50400000000E-02 0. -1.
    8880023    1    1    2    0    0  0.79215221130E+03  0.76119214328E+03  0.91800016601E+03  0.15758975588E+04  0.65864270000E+03 0.  1.
    8880022    1    1    2    0    0 -0.79215221130E+03 -0.76119214328E+03 -0.45246314009E+03  0.11979286920E+04  0.15294330000E+03 0.  0.
<mgrwt>
<rscale>  0 0.12356362E+04</rscale>
<asrwt>0</asrwt>
<pdfrwt beam="1">  1        1 0.17756071E+00 0.12809094E+04</pdfrwt>
<pdfrwt beam="2">  1       -1 0.24918179E+00 0.12809094E+04</pdfrwt>
<totfact> 0.79232178E-01</totfact>
</mgrwt>
</event>
<event>
 4    1  0.1043382E-007  0.8045683E+03  0.7818608E-02  0.9701004E-01
          1   -1    0    0  501    0  0.00000000000E+00  0.00000000000E+00  0.70357305297E+03  0.70357305299E+03  0.50400000000E-02 0. -1.
         -1   -1    0    0    0  501 -0.00000000000E+00 -0.00000000000E+00 -0.83864487130E+03  0.83864487131E+03  0.50400000000E-02 0.  1.
    8880023    1    1    2    0    0  0.16508764298E+03  0.43158552747E+03 -0.48799803149E+03  0.94099536789E+03  0.65864270000E+03 0.  0.
    8880022    1    1    2    0    0 -0.16508764298E+03 -0.43158552747E+03  0.35292621317E+03  0.60122255641E+03  0.15294330000E+03 0.  0.
<mgrwt>
<rscale>  0 0.70957042E+03</rscale>
<asrwt>0</asrwt>
<pdfrwt beam="1">  1        1 0.10824201E+00 0.80456833E+03</pdfrwt>
<pdfrwt beam="2">  1       -1 0.12902229E+00 0.80456833E+03</pdfrwt>
<totfact> 0.14283127E+01</totfact>
</mgrwt>
</event>
<event>
 4    1  0.1043382E-007  0.7038836E+03  0.7818608E-02  0.9981457E-01
         -1   -1    0    0    0  501 -0.00000000000E+00  0.00000000000E+00  0.23927426489E+03  0.23927426495E+03  0.50400000000E-02 0.  1.
          1   -1    0    0  501    0  0.00000000000E+00 -0.00000000000E+00 -0.21195711113E+04  0.21195711113E+04  0.50400000000E-02 0. -1.
    8880023    1    1    2    0    0 -0.18529567297E+03  0.16524943925E+03 -0.32295270232E+03  0.77443561243E+03  0.65864270000E+03 0.  1.
    8880022    1    1    2    0    0  0.18529567297E+03 -0.16524943925E+03 -0.15573441441E+04  0.15844097638E+04  0.15294330000E+03 0.  0.
<mgrwt>
<rscale>  0 0.56470858E+03</rscale>
<asrwt>0</asrwt>
<pdfrwt beam="1">  1        1 0.32608785E+00 0.70388356E+03</pdfrwt>
<pdfrwt beam="2">  1       -1 0.36811427E-01 0.70388356E+03</pdfrwt>
<totfact> 0.18392312E+01</totfact>
</mgrwt>
</event>
<event>
 4    1  0.1043382E-007  0.1230491E+04  0.7818608E-02  0.9128038E-01
          1   -1    0    0  501    0  0.00000000000E+00  0.00000000000E+00  0.19440147282E+04  0.19440147282E+04  0.50400000000E-02 0. -1.
         -1   -1    0    0    0  501 -0.00000000000E+00 -0.00000000000E+00 -0.15854086849E+04  0.15854086849E+04  0.50400000000E-02 0.  1.
    8880023    1    1    2    0    0  0.99181736680E+03 -0.31079983559E+03 -0.11545435787E+04  0.16873290456E+04  0.65864270000E+03 0.  0.
    8880022    1    1    2    0    0 -0.99181736680E+03  0.31079983559E+03  0.15131496220E+04  0.18420943674E+04  0.15294330000E+03 0.  0.
<mgrwt>
<rscale>  0 0.11828094E+04</rscale>
<asrwt>0</asrwt>
<pdfrwt beam="1">  1        1 0.29907919E+00 0.12304911E+04</pdfrwt>
<pdfrwt beam="2">  1       -1 0.24390903E+00 0.12304911E+04</pdfrwt>
<totfact> 0.24304266E-01</totfact>
</mgrwt>
</event>
<event>
 4    1  0.1043382E-007  0.7215949E+03  0.7818608E-02  0.9917226E-01
          1   -1    0    0  501    0  0.00000000000E+00  0.00000000000E+00  0.85921550645E+03  0.85921550647E+03  0.50400000000E-02 0. -1.
         -1   -1    0    0    0  501 -0.00000000000E+00 -0.00000000000E+00 -0.38872282673E+03  0.38872282676E+03  0.50400000000E-02 0.  1.
    8880023    1    1    2    0    0 -0.10828021045E+03  0.27416120125E+03  0.66026865021E+02  0.72460935780E+03  0.65864270000E+03 0.  0.
    8880022    1    1    2    0    0  0.10828021045E+03 -0.27416120125E+03  0.40446581470E+03  0.52332897543E+03  0.15294330000E+03 0.  0.
<mgrwt>
<rscale>  0 0.59433661E+03</rscale>
<asrwt>0</asrwt>
<pdfrwt beam="1">  1        1 0.13218700E+00 0.72159488E+03</pdfrwt>
<pdfrwt beam="2">  1       -1 0.59803513E-01 0.72159488E+03</pdfrwt>
<totfact> 0.57170906E+01</totfact>
</mgrwt>
</event>
<event>
 4    1  0.1043382E-007  0.8490604E+03  0.7818608E-02  0.9613327E-01
          1   -1    0    0  501    0  0.00000000000E+00  0.00000000000E+00  0.23875632937E+04  0.23875632937E+04  0.50400000000E-02 0. -1.
         -1   -1    0    0    0  501 -0.00000000000E+00 -0.00000000000E+00 -0.77733620197E+03  0.77733620199E+03  0.50400000000E-02 0.  1.
    8880023    1    1    2    0    0  0.14046300713E+03  0.51707210008E+03 -0.49796453295E+03  0.98431310841E+03  0.65864270000E+03 0.  0.
    8880022    1    1    2    0    0 -0.14046300713E+03 -0.51707210008E+03  0.21081916247E+04  0.21805863873E+04  0.15294330000E+03 0.  0.
<mgrwt>
<rscale>  0 0.76420353E+03</rscale>
<asrwt>0</asrwt>
<pdfrwt beam="1">  1        1 0.36731742E+00 0.84906043E+03</pdfrwt>
<pdfrwt beam="2">  1       -1 0.11959019E+00 0.84906043E+03</pdfrwt>
<totfact> 0.10557666E+00</totfact>
</mgrwt>
</event>
<event>
 4    1  0.1043382E-007  0.9606385E+03  0.7818608E-02  0.9434970E-01
          1   -1    0    0  501    0  0.00000000000E+00  0.00000000000E+00  0.78290455470E+03  0.78290455471E+03  0.50400000000E-02 0. -1.
         -1   -1    0    0    0  501 -0.00000000000E+00 -0.00000000000E+00 -0.91107080004E+03  0.91107080005E+03  0.50400000000E-02 0.  1.
    8880023    1    1    2    0    0  0.18057101833E+03  0.67558135603E+03 -0.17569305302E+03  0.97657273995E+03  0.65864270000E+03 0.  0.
    8880022    1    1    2    0    0 -0.18057101833E+03 -0.67558135603E+03  0.47526807676E+02  0.71740261481E+03  0.15294330000E+03 0.  0.
<mgrwt>
<rscale>  0 0.89252818E+03</rscale>
<asrwt>0</asrwt>
<pdfrwt beam="1">  1        1 0.12044685E+00 0.96063847E+03</pdfrwt>
<pdfrwt beam="2">  1       -1 0.14016474E+00 0.96063847E+03</pdfrwt>
<totfact> 0.96235867E+00</totfact>
</mgrwt>
</event>
<event>
 4    1  0.1043382E-007  0.6716506E+03  0.7818608E-02  0.1014506E+00
         -1   -1    0    0    0  501 -0.00000000000E+00  0.00000000000E+00  0.25075090154E+03  0.25075090159E+03  0.50400000000E-02 0.  1.
          1   -1    0    0  501    0  0.00000000000E+00 -0.00000000000E+00 -0.22696428267E+04  0.22696428267E+04  0.50400000000E-02 0. -1.
    8880023    1    1    2    0    0 -0.12236189601E+03 -0.48290091930E+02 -0.21495104848E+03  0.70520814380E+03  0.65864270000E+03 0.  0.
    8880022    1    1    2    0    0  0.12236189601E+03  0.48290091930E+02 -0.18039408767E+04  0.18151855845E+04  0.15294330000E+03 0. -1.
<mgrwt>
<rscale>  0 0.49722340E+03</rscale>
<asrwt>0</asrwt>
<pdfrwt beam="1">  1        1 0.34917581E+00 0.67165063E+03</pdfrwt>
<pdfrwt beam="2">  1       -1 0.38577063E-01 0.67165063E+03</pdfrwt>
<totfact> 0.13484017E+01</totfact>
</mgrwt>
</event>
<event>
 4    1  0.1043382E-007  0.7537959E+03  0.7818608E-02  0.9821442E-01
          1   -1    0    0  501    0  0.00000000000E+00  0.00000000000E+00  0.78248452014E+03  0.78248452015E+03  0.50400000000E-02 0. -1.
         -1   -1    0    0    0  501 -0.00000000000E+00 -0.00000000000E+00 -0.53204614772E+03  0.53204614775E+03  0.50400000000E-02 0.  1.
    8880023    1    1    2    0    0  0.87711580535E+02  0.35595604835E+03 -0.12951927067E+03  0.76484212584E+03  0.65864270000E+03 0.  1.
    8880022    1    1    2    0    0 -0.87711580535E+02 -0.35595604835E+03  0.37995764308E+03  0.54968854206E+03  0.15294330000E+03 0.  0.
<mgrwt>
<rscale>  0 0.64224414E+03</rscale>
<asrwt>0</asrwt>
<pdfrwt beam="1">  1        1 0.12038223E+00 0.75379588E+03</pdfrwt>
<pdfrwt beam="2">  1       -1 0.81853254E-01 0.75379588E+03</pdfrwt>
<totfact> 0.34849565E+01</totfact>
</mgrwt>
</event>
<event>
 4    1  0.1043382E-007  0.9265469E+03  0.7818608E-02  0.9484693E-01
         -1   -1    0    0    0  501 -0.00000000000E+00  0.00000000000E+00  0.19853317900E+04  0.19853317900E+04  0.50400000000E-02 0.  1.
          1   -1    0    0  501    0  0.00000000000E+00 -0.00000000000E+00 -0.44006073740E+03  0.44006073743E+03  0.50400000000E-02 0. -1.
    8880023    1    1    2    0    0  0.36872824668E+03 -0.53732530033E+03  0.14888809784E+04  0.17536407193E+04  0.65864270000E+03 0.  0.
    8880022    1    1    2    0    0 -0.36872824668E+03  0.53732530033E+03  0.56390074221E+02  0.67175180816E+03  0.15294330000E+03 0.  0.
<mgrwt>
<rscale>  0 0.85421831E+03</rscale>
<asrwt>0</asrwt>
<pdfrwt beam="1">  1        1 0.67701651E-01 0.92654693E+03</pdfrwt>
<pdfrwt beam="2">  1       -1 0.30543566E+00 0.92654693E+03</pdfrwt>
<totfact> 0.16473662E+00</totfact>
</mgrwt>
</event>
<event>
 4    1  0.1043382E-007  0.6975285E+03  0.7818608E-02  0.1000761E+00
          1   -1    0    0  501    0  0.00000000000E+00  0.00000000000E+00  0.19836632639E+04  0.19836632639E+04  0.50400000000E-02 0. -1.
         -1   -1    0    0    0  501 -0.00000000000E+00 -0.00000000000E+00 -0.12887151614E+03  0.12887151624E+03  0.50400000000E-02 0.  1.
    8880023    1    1    2    0    0  0.18613136584E+03  0.13450249889E+03  0.10396719047E+04  0.12519838990E+04  0.65864270000E+03 0.  1.
    8880022    1    1    2    0    0 -0.18613136584E+03 -0.13450249889E+03  0.81511984304E+03  0.86055088118E+03  0.15294330000E+03 0. -1.
<mgrwt>
<rscale>  0 0.55317703E+03</rscale>
<asrwt>0</asrwt>
<pdfrwt beam="1">  1        1 0.30517895E+00 0.69752850E+03</pdfrwt>
<pdfrwt beam="2">  1       -1 0.19826388E-01 0.69752850E+03</pdfrwt>
<totfact> 0.65834211E+01</totfact>
</mgrwt>
</event>
<event>
 4    1  0.1043382E-007  0.7172377E+03  0.7818608E-02  0.9932046E-01
         -1   -1    0    0    0  501 -0.00000000000E+00  0.00000000000E+00  0.24222338388E+03  0.24222338394E+03  0.50400000000E-02 0.  1.
          1   -1    0    0  501    0  0.00000000000E+00 -0.00000000000E+00 -0.11739228124E+04  0.11739228124E+04  0.50400000000E-02 0. -1.
    8880023    1    1    2    0    0  0.33897478417E+00 -0.28393586276E+03 -0.78033824381E+03  0.10598856873E+04  0.65864270000E+03 0. -1.
    8880022    1    1    2    0    0 -0.33897478417E+00  0.28393586276E+03 -0.15136118468E+03  0.35626050905E+03  0.15294330000E+03 0.  0.
<mgrwt>
<rscale>  0 0.58733031E+03</rscale>
<asrwt>0</asrwt>
<pdfrwt beam="1">  1        1 0.18060351E+00 0.71723768E+03</pdfrwt>
<pdfrwt beam="2">  1       -1 0.37265137E-01 0.71723768E+03</pdfrwt>
<totfact> 0.79322179E+01</totfact>
</mgrwt>
</event>
<event>
 4    1  0.1043382E-007  0.8456767E+03  0.7818608E-02  0.9619568E-01
          1   -1    0    0  501    0  0.00000000000E+00  0.00000000000E+00  0.73565117676E+03  0.73565117677E+03  0.50400000000E-02 0. -1.
         -1   -1    0    0    0  501 -0.00000000000E+00 -0.00000000000E+00 -0.17397221492E+04  0.17397221492E+04  0.50400000000E-02 0.  1.
    8880023    1    1    2    0    0 -0.49912705960E+03  0.17953024016E+03 -0.15073366447E+04  0.17283613324E+04  0.65864270000E+03 0.  1.
    8880022    1    1    2    0    0  0.49912705960E+03 -0.17953024016E+03  0.50326567219E+03  0.74701199360E+03  0.15294330000E+03 0.  0.
<mgrwt>
<rscale>  0 0.76014484E+03</rscale>
<asrwt>0</asrwt>
<pdfrwt beam="1">  1        1 0.11317710E+00 0.84567673E+03</pdfrwt>
<pdfrwt beam="2">  1       -1 0.26764956E+00 0.84567673E+03</pdfrwt>
<totfact> 0.13956077E+00</totfact>
</mgrwt>
</event>
<event>
 4    1  0.1043382E-007  0.9927889E+03  0.7818608E-02  0.9391053E-01
         -1   -1    0    0    0  501 -0.00000000000E+00  0.00000000000E+00  0.57915021018E+03  0.57915021020E+03  0.50400000000E-02 0.  1.
          1   -1    0    0  501    0  0.00000000000E+00 -0.00000000000E+00 -0.13899718585E+04  0.13899718585E+04  0.50400000000E-02 0. -1.
    8880023    1    1    2    0    0 -0.36942025453E+03  0.64447515037E+03 -0.24413111684E+03  0.10223647844E+04  0.65864270000E+03 0.  0.
    8880022    1    1    2    0    0  0.36942025453E+03 -0.64447515037E+03 -0.56669053145E+03  0.94675728429E+03  0.15294330000E+03 0.  0.
<mgrwt>
<rscale>  0 0.92815625E+03</rscale>
<asrwt>0</asrwt>
<pdfrwt beam="1">  1        1 0.21384182E+00 0.99278887E+03</pdfrwt>
<pdfrwt beam="2">  1       -1 0.89100033E-01 0.99278887E+03</pdfrwt>
<totfact> 0.96985327E+00</totfact>
</mgrwt>
</event>
<event>
 4    1  0.1043382E-007  0.6901200E+03  0.7818608E-02  0.1004096E+00
         -1   -1    0    0    0  501 -0.00000000000E+00  0.00000000000E+00  0.89498935893E+02  0.89498936035E+02  0.50400000000E-02 0.  1.
          1   -1    0    0  501    0  0.00000000000E+00 -0.00000000000E+00 -0.33078399213E+04  0.33078399213E+04  0.50400000000E-02 0. -1.
    8880023    1    1    2    0    0  0.12814532382E+03 -0.16135125995E+03 -0.13986433945E+04  0.15596374593E+04  0.65864270000E+03 0.  0.
    8880022    1    1    2    0    0 -0.12814532382E+03  0.16135125995E+03 -0.18196975909E+04  0.18377013980E+04  0.15294330000E+03 0.  0.
<mgrwt>
<rscale>  0 0.53890295E+03</rscale>
<asrwt>0</asrwt>
<pdfrwt beam="1">  1        1 0.50889836E+00 0.69012003E+03</pdfrwt>
<pdfrwt beam="2">  1       -1 0.13769070E-01 0.69012003E+03</pdfrwt>
<totfact> 0.14372588E+01</totfact>
</mgrwt>
</event>
<event>
 4    1  0.1043382E-007  0.7655008E+03  0.7818608E-02  0.9791069E-01
          1   -1    0    0  501    0  0.00000000000E+00  0.00000000000E+00  0.71028905640E+03  0.71028905642E+03  0.50400000000E-02 0. -1.
         -1   -1    0    0    0  501 -0.00000000000E+00 -0.00000000000E+00 -0.61951738618E+03  0.61951738621E+03  0.50400000000E-02 0.  1.
    8880023    1    1    2    0    0 -0.27851042584E+03  0.27315428617E+03 -0.23311302241E+03  0.80020822842E+03  0.65864270000E+03 0.  1.
    8880022    1    1    2    0    0  0.27851042584E+03 -0.27315428617E+03  0.32388469262E+03  0.52959821420E+03  0.15294330000E+03 0.  0.
<mgrwt>
<rscale>  0 0.65844038E+03</rscale>
<asrwt>0</asrwt>
<pdfrwt beam="1">  1        1 0.10927524E+00 0.76550083E+03</pdfrwt>
<pdfrwt beam="2">  1       -1 0.95310367E-01 0.76550083E+03</pdfrwt>
<totfact> 0.28985783E+01</totfact>
</mgrwt>
</event>
<event>
 4    1  0.1043382E-007  0.7989850E+03  0.7818608E-02  0.9712995E-01
         -1   -1    0    0    0  501 -0.00000000000E+00  0.00000000000E+00  0.11258244184E+04  0.11258244184E+04  0.50400000000E-02 0.  1.
          1   -1    0    0  501    0  0.00000000000E+00 -0.00000000000E+00 -0.79461991065E+03  0.79461991066E+03  0.50400000000E-02 0. -1.
    8880023    1    1    2    0    0  0.23571679771E+03 -0.38601088813E+03  0.88295722214E+03  0.11907940531E+04  0.65864270000E+03 0.  1.
    8880022    1    1    2    0    0 -0.23571679771E+03  0.38601088813E+03 -0.55175271435E+03  0.72965027602E+03  0.15294330000E+03 0.  0.
<mgrwt>
<rscale>  0 0.70248318E+03</rscale>
<asrwt>0</asrwt>
<pdfrwt beam="1">  1        1 0.12224922E+00 0.79898499E+03</pdfrwt>
<pdfrwt beam="2">  1       -1 0.17320376E+00 0.79898499E+03</pdfrwt>
<totfact> 0.53561834E+00</totfact>
</mgrwt>
</event>
<event>
 4    1  0.1043382E-007  0.7633331E+03  0.7818608E-02  0.9796554E-01
          1   -1    0    0  501    0  0.00000000000E+00  0.00000000000E+00  0.94465025743E+03  0.94465025744E+03  0.50400000000E-02 0. -1.
         -1   -1    0    0    0  501 -0.00000000000E+00 -0.00000000000E+00 -0.65840429433E+03  0.65840429435E+03  0.50400000000E-02 0.  1.
    8880023    1    1    2    0    0  0.37620556429E+03  0.85654022351E+02 -0.35291028188E+03  0.84096558281E+03  0.65864270000E+03 0.  0.
    8880022    1    1    2    0    0 -0.37620556429E+03 -0.85654022351E+02  0.63915624497E+03  0.76208896898E+03  0.15294330000E+03 0. -1.
<mgrwt>
<rscale>  0 0.65547825E+03</rscale>
<asrwt>0</asrwt>
<pdfrwt beam="1">  1        1 0.14533081E+00 0.76333311E+03</pdfrwt>
<pdfrwt beam="2">  1       -1 0.10129297E+00 0.76333311E+03</pdfrwt>
<totfact> 0.15924966E+01</totfact>
</mgrwt>
</event>
<event>
 4    1  0.1043382E-007  0.7027354E+03  0.7818608E-02  0.9986037E-01
          1   -1    0    0  501    0  0.00000000000E+00  0.00000000000E+00  0.81903926773E+03  0.81903926775E+03  0.50400000000E-02 0. -1.
         -1   -1    0    0    0  501 -0.00000000000E+00 -0.00000000000E+00 -0.10941791186E+04  0.10941791186E+04  0.50400000000E-02 0.  1.
    8880023    1    1    2    0    0 -0.16283325029E+03 -0.18306338871E+03 -0.94853971616E+03  0.11804934015E+04  0.65864270000E+03 0.  0.
    8880022    1    1    2    0    0  0.16283325029E+03  0.18306338871E+03  0.67339986533E+03  0.73272498478E+03  0.15294330000E+03 0. -1.
<mgrwt>
<rscale>  0 0.56266733E+03</rscale>
<asrwt>0</asrwt>
<pdfrwt beam="1">  1        1 0.12600604E+00 0.70273543E+03</pdfrwt>
<pdfrwt beam="2">  1       -1 0.16833525E+00 0.70273543E+03</pdfrwt>
<totfact> 0.56168254E+00</totfact>
</mgrwt>
</event>
<event>
 4    1  0.1043382E-007  0.1101197E+04  0.7818608E-02  0.9259724E-01
         -1   -1    0    0    0  501 -0.00000000000E+00  0.00000000000E+00  0.22236141607E+04  0.22236141607E+04  0.50400000000E-02 0.  1.
          1   -1    0    0  501    0  0.00000000000E+00 -0.00000000000E+00 -0.60819231687E+03  0.60819231689E+03  0.50400000000E-02 0. -1.
    8880023    1    1    2    0    0  0.50679704047E+03  0.72248321873E+03  0.15921156048E+04  0.19358376861E+04  0.65864270000E+03 0.  0.
    8880022    1    1    2    0    0 -0.50679704047E+03 -0.72248321873E+03  0.23306239046E+02  0.89596879152E+03  0.15294330000E+03 0.  0.
<mgrwt>
<rscale>  0 0.10457679E+04</rscale>
<asrwt>0</asrwt>
<pdfrwt beam="1">  1        1 0.93568048E-01 0.11011973E+04</pdfrwt>
<pdfrwt beam="2">  1       -1 0.34209449E+00 0.11011973E+04</pdfrwt>
<totfact> 0.59159537E-01</totfact>
</mgrwt>
</event>
<event>
 4    1  0.1043382E-007  0.8217446E+03  0.7818608E-02  0.9665613E-01
         -1   -1    0    0    0  501 -0.00000000000E+00  0.00000000000E+00  0.76823899270E+03  0.76823899272E+03  0.50400000000E-02 0.  1.
          1   -1    0    0  501    0  0.00000000000E+00 -0.00000000000E+00 -0.91784122042E+03  0.91784122043E+03  0.50400000000E-02 0. -1.
    8880023    1    1    2    0    0  0.30330653733E+03  0.38659944196E+03  0.41629101526E+03  0.92117446760E+03  0.65864270000E+03 0.  1.
    8880022    1    1    2    0    0 -0.30330653733E+03 -0.38659944196E+03 -0.56589324298E+03  0.76490574555E+03  0.15294330000E+03 0.  0.
<mgrwt>
<rscale>  0 0.73101577E+03</rscale>
<asrwt>0</asrwt>
<pdfrwt beam="1">  1        1 0.14120634E+00 0.82174460E+03</pdfrwt>
<pdfrwt beam="2">  1       -1 0.11819061E+00 0.82174460E+03</pdfrwt>
<totfact> 0.11552437E+01</totfact>
</mgrwt>
</event>
<event>
 4    1  0.1043382E-007  0.9339390E+03  0.7818608E-02  0.9473609E-01
         -1   -1    0    0    0  501 -0.00000000000E+00  0.00000000000E+00  0.33677091114E+03  0.33677091118E+03  0.50400000000E-02 0.  1.
          1   -1    0    0  501    0  0.00000000000E+00 -0.00000000000E+00 -0.25545806333E+04  0.25545806333E+04  0.50400000000E-02 0. -1.
    8880023    1    1    2    0    0  0.60110952431E+03  0.27766749906E+03 -0.19477413601E+04  0.21600783579E+04  0.65864270000E+03 0.  0.
    8880022    1    1    2    0    0 -0.60110952431E+03 -0.27766749906E+03 -0.27006836212E+03  0.73127318663E+03  0.15294330000E+03 0.  0.
<mgrwt>
<rscale>  0 0.86257805E+03</rscale>
<asrwt>0</asrwt>
<pdfrwt beam="1">  1        1 0.39301239E+00 0.93393903E+03</pdfrwt>
<pdfrwt beam="2">  1       -1 0.51810911E-01 0.93393903E+03</pdfrwt>
<totfact> 0.47888347E+00</totfact>
</mgrwt>
</event>
<event>
 4    1  0.1043382E-007  0.8152290E+03  0.7818608E-02  0.9678786E-01
         -1   -1    0    0    0  501 -0.00000000000E+00  0.00000000000E+00  0.78990334939E+03  0.78990334941E+03  0.50400000000E-02 0.  1.
          1   -1    0    0  501    0  0.00000000000E+00 -0.00000000000E+00 -0.76729435724E+03  0.76729435725E+03  0.50400000000E-02 0. -1.
    8880023    1    1    2    0    0 -0.27162256150E+03  0.39624408374E+03  0.41831548693E+03  0.91628938807E+03  0.65864270000E+03 0.  0.
    8880022    1    1    2    0    0  0.27162256150E+03 -0.39624408374E+03 -0.39570649478E+03  0.64090831859E+03  0.15294330000E+03 0.  0.
<mgrwt>
<rscale>  0 0.72294019E+03</rscale>
<asrwt>0</asrwt>
<pdfrwt beam="1">  1        1 0.11804529E+00 0.81522905E+03</pdfrwt>
<pdfrwt beam="2">  1       -1 0.12152359E+00 0.81522905E+03</pdfrwt>
<totfact> 0.14481278E+01</totfact>
</mgrwt>
</event>
<event>
 4    1  0.1043382E-007  0.7693691E+03  0.7818608E-02  0.9781429E-01
         -1   -1    0    0    0  501 -0.00000000000E+00  0.00000000000E+00  0.29858134707E+03  0.29858134711E+03  0.50400000000E-02 0.  1.
          1   -1    0    0  501    0  0.00000000000E+00 -0.00000000000E+00 -0.15848384749E+04  0.15848384749E+04  0.50400000000E-02 0. -1.
    8880023    1    1    2    0    0  0.31862441591E+03 -0.23790150654E+03 -0.33116852690E+03  0.83761652604E+03  0.65864270000E+03 0.  1.
    8880022    1    1    2    0    0 -0.31862441591E+03  0.23790150654E+03 -0.95508860092E+03  0.10458032960E+04  0.15294330000E+03 0.  0.
<mgrwt>
<rscale>  0 0.66368763E+03</rscale>
<asrwt>0</asrwt>
<pdfrwt beam="1">  1        1 0.24382130E+00 0.76936913E+03</pdfrwt>
<pdfrwt beam="2">  1       -1 0.45935593E-01 0.76936913E+03</pdfrwt>
<totfact> 0.27765544E+01</totfact>
</mgrwt>
</event>
<event>
 4    1  0.1043382E-007  0.8555525E+03  0.7818608E-02  0.9601524E-01
         -1   -1    0    0    0  501 -0.00000000000E+00  0.00000000000E+00  0.21841784514E+03  0.21841784520E+03  0.50400000000E-02 0.  1.
          1   -1    0    0  501    0  0.00000000000E+00 -0.00000000000E+00 -0.29306375960E+04  0.29306375960E+04  0.50400000000E-02 0. -1.
    8880023    1    1    2    0    0 -0.48805276916E+03 -0.24487622260E+03 -0.86448758122E+03  0.12162684137E+04  0.65864270000E+03 0.  0.
    8880022    1    1    2    0    0  0.48805276916E+03  0.24487622260E+03 -0.18477321696E+04  0.19327870275E+04  0.15294330000E+03 0.  0.
<mgrwt>
<rscale>  0 0.77195382E+03</rscale>
<asrwt>0</asrwt>
<pdfrwt beam="1">  1        1 0.45086729E+00 0.85555250E+03</pdfrwt>
<pdfrwt beam="2">  1       -1 0.33602748E-01 0.85555250E+03</pdfrwt>
<totfact> 0.58628145E+00</totfact>
</mgrwt>
</event>
<event>
 4    1  0.1043382E-007  0.7265510E+03  0.7818608E-02  0.9901013E-01
         -1   -1    0    0    0  501 -0.00000000000E+00  0.00000000000E+00  0.42675848809E+03  0.42675848812E+03  0.50400000000E-02 0.  1.
          1   -1    0    0  501    0  0.00000000000E+00 -0.00000000000E+00 -0.14248081205E+04  0.14248081206E+04  0.50400000000E-02 0. -1.
    8880023    1    1    2    0    0 -0.29773712234E+03  0.73611851154E+02  0.69963401241E+02  0.72991176345E+03  0.65864270000E+03 0.  1.
    8880022    1    1    2    0    0  0.29773712234E+03 -0.73611851154E+02 -0.10680130337E+04  0.11216548452E+04  0.15294330000E+03 0. -1.
<mgrwt>
<rscale>  0 0.60212239E+03</rscale>
<asrwt>0</asrwt>
<pdfrwt beam="1">  1        1 0.21920125E+00 0.72655097E+03</pdfrwt>
<pdfrwt beam="2">  1       -1 0.65655153E-01 0.72655097E+03</pdfrwt>
<totfact> 0.18008347E+01</totfact>
</mgrwt>
</event>
<event>
 4    1  0.1043382E-007  0.8035940E+03  0.7818608E-02  0.9703078E-01
         -1   -1    0    0    0  501 -0.00000000000E+00  0.00000000000E+00  0.33693321083E+03  0.33693321087E+03  0.50400000000E-02 0.  1.
          1   -1    0    0  501    0  0.00000000000E+00 -0.00000000000E+00 -0.19803742046E+04  0.19803742046E+04  0.50400000000E-02 0. -1.
    8880023    1    1    2    0    0 -0.31665779498E+03  0.33418692168E+03 -0.24961397821E+03  0.84146919262E+03  0.65864270000E+03 0.  0.
    8880022    1    1    2    0    0  0.31665779498E+03 -0.33418692168E+03 -0.13938270156E+04  0.14758382229E+04  0.15294330000E+03 0.  0.
<mgrwt>
<rscale>  0 0.70833802E+03</rscale>
<asrwt>0</asrwt>
<pdfrwt beam="1">  1        1 0.30467295E+00 0.80359397E+03</pdfrwt>
<pdfrwt beam="2">  1       -1 0.51835880E-01 0.80359397E+03</pdfrwt>
<totfact> 0.11928083E+01</totfact>
</mgrwt>
</event>
<event>
 4    1  0.1043382E-007  0.7264057E+03  0.7818608E-02  0.9901479E-01
         -1   -1    0    0    0  501 -0.00000000000E+00  0.00000000000E+00  0.24573803681E+03  0.24573803686E+03  0.50400000000E-02 0.  1.
          1   -1    0    0  501    0  0.00000000000E+00 -0.00000000000E+00 -0.29270550585E+04  0.29270550585E+04  0.50400000000E-02 0. -1.
    8880023    1    1    2    0    0  0.21459221757E+03  0.21864400753E+03 -0.33204500471E+03  0.79869838693E+03  0.65864270000E+03 0.  1.
    8880022    1    1    2    0    0 -0.21459221757E+03 -0.21864400753E+03 -0.23492720170E+04  0.23740947085E+04  0.15294330000E+03 0.  0.
<mgrwt>
<rscale>  0 0.60189675E+03</rscale>
<asrwt>0</asrwt>
<pdfrwt beam="1">  1        1 0.45031614E+00 0.72640569E+03</pdfrwt>
<pdfrwt beam="2">  1       -1 0.37805854E-01 0.72640569E+03</pdfrwt>
<totfact> 0.48846669E+00</totfact>
</mgrwt>
</event>
<event>
 4    1  0.1043382E-007  0.7954405E+03  0.7818608E-02  0.9720743E-01
         -1   -1    0    0    0  501 -0.00000000000E+00  0.00000000000E+00  0.29998892734E+03  0.29998892738E+03  0.50400000000E-02 0.  1.
          1   -1    0    0  501    0  0.00000000000E+00 -0.00000000000E+00 -0.30536772614E+04  0.30536772614E+04  0.50400000000E-02 0. -1.
    8880023    1    1    2    0    0 -0.33067241783E+03 -0.29928436062E+03 -0.29217489351E+03  0.84740294494E+03  0.65864270000E+03 0.  1.
    8880022    1    1    2    0    0  0.33067241783E+03  0.29928436062E+03 -0.24615134406E+04  0.25062632439E+04  0.15294330000E+03 0.  0.
<mgrwt>
<rscale>  0 0.69795098E+03</rscale>
<asrwt>0</asrwt>
<pdfrwt beam="1">  1        1 0.46979648E+00 0.79544050E+03</pdfrwt>
<pdfrwt beam="2">  1       -1 0.46152145E-01 0.79544050E+03</pdfrwt>
<totfact> 0.27139685E+00</totfact>
</mgrwt>
</event>
<event>
 4    1  0.1043382E-007  0.9562180E+03  0.7818608E-02  0.9441224E-01
          1   -1    0    0  501    0  0.00000000000E+00  0.00000000000E+00  0.27705890246E+04  0.27705890246E+04  0.50400000000E-02 0. -1.
         -1   -1    0    0    0  501 -0.00000000000E+00 -0.00000000000E+00 -0.30518550928E+03  0.30518550933E+03  0.50400000000E-02 0.  1.
    8880023    1    1    2    0    0 -0.53662118181E+03 -0.43883972845E+03  0.73703079742E+03  0.12072974789E+04  0.65864270000E+03 0.  0.
    8880022    1    1    2    0    0  0.53662118181E+03  0.43883972845E+03  0.17283727179E+04  0.18684770550E+04  0.15294330000E+03 0.  0.
<mgrwt>
<rscale>  0 0.88759411E+03</rscale>
<asrwt>0</asrwt>
<pdfrwt beam="1">  1        1 0.42624448E+00 0.95621797E+03</pdfrwt>
<pdfrwt beam="2">  1       -1 0.46951615E-01 0.95621797E+03</pdfrwt>
<totfact> 0.40715450E+00</totfact>
</mgrwt>
</event>
<event>
 4    1  0.1043382E-007  0.7965839E+03  0.7818608E-02  0.9718232E-01
         -1   -1    0    0    0  501 -0.00000000000E+00  0.00000000000E+00  0.72860412069E+03  0.72860412071E+03  0.50400000000E-02 0.  1.
          1   -1    0    0  501    0  0.00000000000E+00 -0.00000000000E+00 -0.62146104209E+03  0.62146104211E+03  0.50400000000E-02 0. -1.
    8880023    1    1    2    0    0 -0.38555270353E+03 -0.22822102648E+03 -0.15110420983E+03  0.81078875955E+03  0.65864270000E+03 0. -1.
    8880022    1    1    2    0    0  0.38555270353E+03  0.22822102648E+03  0.25824728843E+03  0.53927640326E+03  0.15294330000E+03 0.  0.
<mgrwt>
<rscale>  0 0.69941592E+03</rscale>
<asrwt>0</asrwt>
<pdfrwt beam="1">  1        1 0.95609392E-01 0.79658391E+03</pdfrwt>
<pdfrwt beam="2">  1       -1 0.11209294E+00 0.79658391E+03</pdfrwt>
<totfact> 0.24237022E+01</totfact>
</mgrwt>
</event>
<event>
 4    1  0.1043382E-007  0.9036028E+03  0.7818608E-02  0.9520273E-01
          1   -1    0    0  501    0  0.00000000000E+00  0.00000000000E+00  0.17195720538E+04  0.17195720538E+04  0.50400000000E-02 0. -1.
         -1   -1    0    0    0  501 -0.00000000000E+00 -0.00000000000E+00 -0.46375431435E+03  0.46375431438E+03  0.50400000000E-02 0.  1.
    8880023    1    1    2    0    0  0.38264134694E+03  0.48607965520E+03  0.16285721957E+03  0.91816148461E+03  0.65864270000E+03 0. -1.
    8880022    1    1    2    0    0 -0.38264134694E+03 -0.48607965520E+03  0.10929605198E+04  0.12651648835E+04  0.15294330000E+03 0.  0.
<mgrwt>
<rscale>  0 0.82805572E+03</rscale>
<asrwt>0</asrwt>
<pdfrwt beam="1">  1        1 0.26454955E+00 0.90360281E+03</pdfrwt>
<pdfrwt beam="2">  1       -1 0.71346818E-01 0.90360281E+03</pdfrwt>
<totfact> 0.93491527E+00</totfact>
</mgrwt>
</event>
<event>
 4    1  0.1043382E-007  0.6608748E+03  0.7818608E-02  0.1023278E+00
          1   -1    0    0  501    0  0.00000000000E+00  0.00000000000E+00  0.96625870018E+02  0.96625870149E+02  0.50400000000E-02 0. -1.
         -1   -1    0    0    0  501 -0.00000000000E+00 -0.00000000000E+00 -0.17941932902E+04  0.17941932902E+04  0.50400000000E-02 0.  1.
    8880023    1    1    2    0    0  0.47870536703E+00 -0.54268704833E+02 -0.14656694332E+04  0.16077756109E+04  0.65864270000E+03 0.  1.
    8880022    1    1    2    0    0 -0.47870536703E+00  0.54268704833E+02 -0.23189798702E+03  0.28304354944E+03  0.15294330000E+03 0.  1.
<mgrwt>
<rscale>  0 0.46522189E+03</rscale>
<asrwt>0</asrwt>
<pdfrwt beam="1">  1        1 0.14865520E-01 0.66087482E+03</pdfrwt>
<pdfrwt beam="2">  1       -1 0.27602971E+00 0.66087482E+03</pdfrwt>
<totfact> 0.19293654E+01</totfact>
</mgrwt>
</event>
<event>
 4    1  0.1043382E-007  0.6866763E+03  0.7818608E-02  0.1005774E+00
          1   -1    0    0  501    0  0.00000000000E+00  0.00000000000E+00  0.18737849817E+03  0.18737849824E+03  0.50400000000E-02 0. -1.
         -1   -1    0    0    0  501 -0.00000000000E+00 -0.00000000000E+00 -0.14667202340E+04  0.14667202340E+04  0.50400000000E-02 0.  1.
    8880023    1    1    2    0    0 -0.19012290151E+02  0.19326831732E+03 -0.12198540938E+04  0.13998458223E+04  0.65864270000E+03 0.  1.
    8880022    1    1    2    0    0  0.19012290151E+02 -0.19326831732E+03 -0.59487641974E+02  0.25425290995E+03  0.15294330000E+03 0.  0.
<mgrwt>
<rscale>  0 0.53189304E+03</rscale>
<asrwt>0</asrwt>
<pdfrwt beam="1">  1        1 0.28827462E-01 0.68667628E+03</pdfrwt>
<pdfrwt beam="2">  1       -1 0.22564926E+00 0.68667628E+03</pdfrwt>
<totfact> 0.16938930E+01</totfact>
</mgrwt>
</event>
<event>
 4    1  0.1043382E-007  0.7470451E+03  0.7818608E-02  0.9839881E-01
          1   -1    0    0  501    0  0.00000000000E+00  0.00000000000E+00  0.79039279617E+03  0.79039279619E+03  0.50400000000E-02 0. -1.
         -1   -1    0    0    0  501 -0.00000000000E+00 -0.00000000000E+00 -0.10871845914E+04  0.10871845914E+04  0.50400000000E-02 0.  1.
    8880023    1    1    2    0    0  0.32528744870E+03  0.13584634763E+03 -0.89548437582E+03  0.11661769283E+04  0.65864270000E+03 0.  1.
    8880022    1    1    2    0    0 -0.32528744870E+03 -0.13584634763E+03  0.59869258059E+03  0.71140045932E+03  0.15294330000E+03 0.  0.
<mgrwt>
<rscale>  0 0.63265532E+03</rscale>
<asrwt>0</asrwt>
<pdfrwt beam="1">  1        1 0.12159889E+00 0.74704509E+03</pdfrwt>
<pdfrwt beam="2">  1       -1 0.16725917E+00 0.74704509E+03</pdfrwt>
<totfact> 0.60142934E+00</totfact>
</mgrwt>
</event>
<event>
 4    1  0.1043382E-007  0.7294383E+03  0.7818608E-02  0.9891855E-01
         -1   -1    0    0    0  501 -0.00000000000E+00  0.00000000000E+00  0.38320765584E+03  0.38320765588E+03  0.50400000000E-02 0.  1.
          1   -1    0    0  501    0  0.00000000000E+00 -0.00000000000E+00 -0.15694171044E+04  0.15694171044E+04  0.50400000000E-02 0. -1.
    8880023    1    1    2    0    0  0.25443694502E+03 -0.18311692823E+03 -0.13947780389E+02  0.72957159706E+03  0.65864270000E+03 0.  1.
    8880022    1    1    2    0    0 -0.25443694502E+03  0.18311692823E+03 -0.11722616682E+04  0.12230531632E+04  0.15294330000E+03 0.  0.
<mgrwt>
<rscale>  0 0.60657653E+03</rscale>
<asrwt>0</asrwt>
<pdfrwt beam="1">  1        1 0.24144878E+00 0.72943826E+03</pdfrwt>
<pdfrwt beam="2">  1       -1 0.58955025E-01 0.72943826E+03</pdfrwt>
<totfact> 0.17748893E+01</totfact>
</mgrwt>
</event>
<event>
 4    1  0.1043382E-007  0.9635234E+03  0.7818608E-02  0.9430918E-01
          1   -1    0    0  501    0  0.00000000000E+00  0.00000000000E+00  0.46979331507E+03  0.46979331509E+03  0.50400000000E-02 0. -1.
         -1   -1    0    0    0  501 -0.00000000000E+00 -0.00000000000E+00 -0.24525117639E+04  0.24525117639E+04  0.50400000000E-02 0.  1.
    8880023    1    1    2    0    0  0.69175932252E+03  0.12663431397E+03 -0.19806835398E+04  0.22026086127E+04  0.65864270000E+03 0.  1.
    8880022    1    1    2    0    0 -0.69175932252E+03 -0.12663431397E+03 -0.20349090913E+01  0.71969646633E+03  0.15294330000E+03 0.  0.
<mgrwt>
<rscale>  0 0.89574341E+03</rscale>
<asrwt>0</asrwt>
<pdfrwt beam="1">  1        1 0.72275896E-01 0.96352344E+03</pdfrwt>
<pdfrwt beam="2">  1       -1 0.37730949E+00 0.96352344E+03</pdfrwt>
<totfact> 0.50733779E-01</totfact>
</mgrwt>
</event>
<event>
 4    1  0.1043382E-007  0.7405600E+03  0.7818608E-02  0.9858319E-01
          1   -1    0    0  501    0  0.00000000000E+00  0.00000000000E+00  0.87271516145E+03  0.87271516146E+03  0.50400000000E-02 0. -1.
         -1   -1    0    0    0  501 -0.00000000000E+00 -0.00000000000E+00 -0.67996748128E+03  0.67996748129E+03  0.50400000000E-02 0.  1.
    8880023    1    1    2    0    0 -0.29322587784E+03 -0.16922607375E+03 -0.40862597851E+03  0.84581574592E+03  0.65864270000E+03 0.  1.
    8880022    1    1    2    0    0  0.29322587784E+03  0.16922607375E+03  0.60137365869E+03  0.70686689684E+03  0.15294330000E+03 0.  0.
<mgrwt>
<rscale>  0 0.62324558E+03</rscale>
<asrwt>0</asrwt>
<pdfrwt beam="1">  1        1 0.13426387E+00 0.74055998E+03</pdfrwt>
<pdfrwt beam="2">  1       -1 0.10461038E+00 0.74055998E+03</pdfrwt>
<totfact> 0.16955696E+01</totfact>
</mgrwt>
</event>
<event>
 4    1  0.1043382E-007  0.7702271E+03  0.7818608E-02  0.9779316E-01
         -1   -1    0    0    0  501 -0.00000000000E+00  0.00000000000E+00  0.67998303169E+03  0.67998303171E+03  0.50400000000E-02 0.  1.
          1   -1    0    0  501    0  0.00000000000E+00 -0.00000000000E+00 -0.12660632097E+04  0.12660632097E+04  0.50400000000E-02 0. -1.
    8880023    1    1    2    0    0  0.39927869049E+03  0.40119749636E+01  0.40242901615E+03  0.86902179945E+03  0.65864270000E+03 0.  1.
    8880022    1    1    2    0    0 -0.39927869049E+03 -0.40119749636E+01 -0.98850919413E+03  0.10770244419E+04  0.15294330000E+03 0.  0.
<mgrwt>
<rscale>  0 0.66484497E+03</rscale>
<asrwt>0</asrwt>
<pdfrwt beam="1">  1        1 0.19477895E+00 0.77022709E+03</pdfrwt>
<pdfrwt beam="2">  1       -1 0.10461277E+00 0.77022709E+03</pdfrwt>
<totfact> 0.84886758E+00</totfact>
</mgrwt>
</event>
<event>
 4    1  0.2379123E-007  0.6932847E+03  0.7818608E-02  0.1002629E+00
          1   -1    0    0  501    0  0.00000000000E+00  0.00000000000E+00  0.26711051988E+04  0.26711051988E+04  0.50400000000E-02 0. -1.
         -1   -1    0    0    0  501 -0.00000000000E+00 -0.00000000000E+00 -0.12185585160E+04  0.12185585160E+04  0.50400000000E-02 0.  1.
    8880023    1    1    2    0    0  0.10131452709E+03  0.19122970353E+03 -0.11125678798E+04  0.13108969931E+04  0.65864270000E+03 0.  1.
    8880022    1    1    2    0    0 -0.10131452709E+03 -0.19122970353E+03  0.25651145627E+04  0.25787667218E+04  0.15294330000E+03 0.  0.
<mgrwt>
<rscale>  0 0.54512391E+03</rscale>
<asrwt>0</asrwt>
<pdfrwt beam="1">  1        1 0.41093926E+00 0.69328467E+03</pdfrwt>
<pdfrwt beam="2">  1       -1 0.18747054E+00 0.69328467E+03</pdfrwt>
<totfact> 0.20800131E-01</totfact>
</mgrwt>
</event>
<event>
 4    1  0.1043382E-007  0.8334573E+03  0.7818608E-02  0.9642643E-01
         -1   -1    0    0    0  501 -0.00000000000E+00  0.00000000000E+00  0.66970519388E+03  0.66970519390E+03  0.50400000000E-02 0.  1.
          1   -1    0    0  501    0  0.00000000000E+00 -0.00000000000E+00 -0.90424356783E+03  0.90424356784E+03  0.50400000000E-02 0. -1.
    8880023    1    1    2    0    0  0.18522512208E+02 -0.51038983198E+03  0.23239033611E+03  0.86524929276E+03  0.65864270000E+03 0.  1.
    8880022    1    1    2    0    0 -0.18522512208E+02  0.51038983198E+03 -0.46692871006E+03  0.70869946898E+03  0.15294330000E+03 0.  0.
<mgrwt>
<rscale>  0 0.74536970E+03</rscale>
<asrwt>0</asrwt>
<pdfrwt beam="1">  1        1 0.13911440E+00 0.83345730E+03</pdfrwt>
<pdfrwt beam="2">  1       -1 0.10303157E+00 0.83345730E+03</pdfrwt>
<totfact> 0.16369833E+01</totfact>
</mgrwt>
</event>
<event>
 4    1  0.1043382E-007  0.1505297E+04  0.7818608E-02  0.8905905E-01
          1   -1    0    0  501    0  0.00000000000E+00  0.00000000000E+00  0.10301709525E+04  0.10301709525E+04  0.50400000000E-02 0. -1.
         -1   -1    0    0    0  501 -0.00000000000E+00 -0.00000000000E+00 -0.22471761450E+04  0.22471761450E+04  0.50400000000E-02 0.  1.
    8880023    1    1    2    0    0 -0.12670614121E+04 -0.47609113715E+03 -0.87556838648E+02  0.15078407738E+04  0.65864270000E+03 0. -1.
    8880022    1    1    2    0    0  0.12670614121E+04  0.47609113715E+03 -0.11294483539E+04  0.17695063238E+04  0.15294330000E+03 0.  0.
<mgrwt>
<rscale>  0 0.14681625E+04</rscale>
<asrwt>0</asrwt>
<pdfrwt beam="1">  1        1 0.15848784E+00 0.15052965E+04</pdfrwt>
<pdfrwt beam="2">  1       -1 0.34571941E+00 0.15052965E+04</pdfrwt>
<totfact> 0.22617349E-01</totfact>
</mgrwt>
</event>
<event>
 4    1  0.1043382E-007  0.1051444E+04  0.7818608E-02  0.9317148E-01
          1   -1    0    0  501    0  0.00000000000E+00  0.00000000000E+00  0.11172184299E+04  0.11172184299E+04  0.50400000000E-02 0. -1.
         -1   -1    0    0    0  501 -0.00000000000E+00 -0.00000000000E+00 -0.14090744447E+04  0.14090744447E+04  0.50400000000E-02 0.  1.
    8880023    1    1    2    0    0  0.79408231768E+03 -0.20287211945E+03 -0.98598917058E+03  0.14414259172E+04  0.65864270000E+03 0.  1.
    8880022    1    1    2    0    0 -0.79408231768E+03  0.20287211945E+03  0.69413315580E+03  0.10848669573E+04  0.15294330000E+03 0.  0.
<mgrwt>
<rscale>  0 0.99219415E+03</rscale>
<asrwt>0</asrwt>
<pdfrwt beam="1">  1        1 0.17187976E+00 0.10514438E+04</pdfrwt>
<pdfrwt beam="2">  1       -1 0.21678068E+00 0.10514438E+04</pdfrwt>
<totfact> 0.14216274E+00</totfact>
</mgrwt>
</event>
<event>
 4    1  0.1043382E-007  0.7141978E+03  0.7818608E-02  0.9942731E-01
          1   -1    0    0  501    0  0.00000000000E+00  0.00000000000E+00  0.29379279297E+04  0.29379279297E+04  0.50400000000E-02 0. -1.
         -1   -1    0    0    0  501 -0.00000000000E+00 -0.00000000000E+00 -0.14514662774E+03  0.14514662783E+03  0.50400000000E-02 0.  1.
    8880023    1    1    2    0    0 -0.26235201183E+03 -0.86253932665E+02  0.82961140916E+03  0.10946842538E+04  0.65864270000E+03 0.  0.
    8880022    1    1    2    0    0  0.26235201183E+03  0.86253932665E+02  0.19631698928E+04  0.19883903037E+04  0.15294330000E+03 0.  0.
<mgrwt>
<rscale>  0 0.58234317E+03</rscale>
<asrwt>0</asrwt>
<pdfrwt beam="1">  1        1 0.45198891E+00 0.71419782E+03</pdfrwt>
<pdfrwt beam="2">  1       -1 0.22330250E-01 0.71419782E+03</pdfrwt>
<totfact> 0.12004704E+01</totfact>
</mgrwt>
</event>
<event>
 4    1  0.1043382E-007  0.6673849E+03  0.7818608E-02  0.1017611E+00
          1   -1    0    0  501    0  0.00000000000E+00  0.00000000000E+00  0.19103591592E+04  0.19103591592E+04  0.50400000000E-02 0. -1.
         -1   -1    0    0    0  501 -0.00000000000E+00 -0.00000000000E+00 -0.97164562522E+02  0.97164562653E+02  0.50400000000E-02 0.  1.
    8880023    1    1    2    0    0 -0.42282111898E+02  0.99018473484E+02  0.15155781213E+04  0.16560131893E+04  0.65864270000E+03 0.  0.
    8880022    1    1    2    0    0  0.42282111898E+02 -0.99018473484E+02  0.29761647538E+03  0.35151053257E+03  0.15294330000E+03 0.  0.
<mgrwt>
<rscale>  0 0.48558595E+03</rscale>
<asrwt>0</asrwt>
<pdfrwt beam="1">  1        1 0.29390141E+00 0.66738493E+03</pdfrwt>
<pdfrwt beam="2">  1       -1 0.14948394E-01 0.66738493E+03</pdfrwt>
<totfact> 0.11754567E+02</totfact>
</mgrwt>
</event>
<event>
 4    1  0.1043382E-007  0.6703093E+03  0.7818608E-02  0.1015442E+00
          1   -1    0    0  501    0  0.00000000000E+00  0.00000000000E+00  0.74406260428E+03  0.74406260429E+03  0.50400000000E-02 0. -1.
         -1   -1    0    0    0  501 -0.00000000000E+00 -0.00000000000E+00 -0.43612464094E+03  0.43612464097E+03  0.50400000000E-02 0.  1.
    8880023    1    1    2    0    0  0.11987188055E+03  0.33690906028E+02 -0.14532008580E+03  0.68588080488E+03  0.65864270000E+03 0.  1.
    8880022    1    1    2    0    0 -0.11987188055E+03 -0.33690906028E+02  0.45325804913E+03  0.49430644039E+03  0.15294330000E+03 0.  0.
<mgrwt>
<rscale>  0 0.49367888E+03</rscale>
<asrwt>0</asrwt>
<pdfrwt beam="1">  1        1 0.11447117E+00 0.67030930E+03</pdfrwt>
<pdfrwt beam="2">  1       -1 0.67096099E-01 0.67030930E+03</pdfrwt>
<totfact> 0.57441429E+01</totfact>
</mgrwt>
</event>
<event>
 4    1  0.1043382E-007  0.7998681E+03  0.7818608E-02  0.9711081E-01
          1   -1    0    0  501    0  0.00000000000E+00  0.00000000000E+00  0.62059475618E+03  0.62059475620E+03  0.50400000000E-02 0. -1.
         -1   -1    0    0    0  501 -0.00000000000E+00 -0.00000000000E+00 -0.14618677585E+04  0.14618677585E+04  0.50400000000E-02 0.  1.
    8880023    1    1    2    0    0  0.12634683584E+03 -0.43590742198E+03 -0.12289291617E+04  0.14663068895E+04  0.65864270000E+03 0.  1.
    8880022    1    1    2    0    0 -0.12634683584E+03  0.43590742198E+03  0.38765615942E+03  0.61615562516E+03  0.15294330000E+03 0.  0.
<mgrwt>
<rscale>  0 0.70360834E+03</rscale>
<asrwt>0</asrwt>
<pdfrwt beam="1">  1        1 0.95476117E-01 0.79986812E+03</pdfrwt>
<pdfrwt beam="2">  1       -1 0.22490273E+00 0.79986812E+03</pdfrwt>
<totfact> 0.34352680E+00</totfact>
</mgrwt>
</event>
<event>
 4    1  0.1043382E-007  0.8494594E+03  0.7818608E-02  0.9612595E-01
          1   -1    0    0  501    0  0.00000000000E+00  0.00000000000E+00  0.12643663516E+04  0.12643663516E+04  0.50400000000E-02 0. -1.
         -1   -1    0    0    0  501 -0.00000000000E+00 -0.00000000000E+00 -0.10997396167E+04  0.10997396168E+04  0.50400000000E-02 0.  1.
    8880023    1    1    2    0    0  0.15606973556E+03 -0.51323805276E+03 -0.85287205754E+03  0.12037325342E+04  0.65864270000E+03 0.  0.
    8880022    1    1    2    0    0 -0.15606973556E+03  0.51323805276E+03  0.10174987924E+04  0.11603734342E+04  0.15294330000E+03 0.  0.
<mgrwt>
<rscale>  0 0.76468120E+03</rscale>
<asrwt>0</asrwt>
<pdfrwt beam="1">  1        1 0.19451790E+00 0.84945940E+03</pdfrwt>
<pdfrwt beam="2">  1       -1 0.16919071E+00 0.84945940E+03</pdfrwt>
<totfact> 0.24561254E+00</totfact>
</mgrwt>
</event>
<event>
 4    1  0.1043382E-007  0.9436680E+03  0.7818608E-02  0.9459284E-01
          1   -1    0    0  501    0  0.00000000000E+00  0.00000000000E+00  0.75197268573E+03  0.75197268575E+03  0.50400000000E-02 0. -1.
         -1   -1    0    0    0  501 -0.00000000000E+00 -0.00000000000E+00 -0.96222908701E+03  0.96222908702E+03  0.50400000000E-02 0.  1.
    8880023    1    1    2    0    0 -0.34724350899E+03  0.57975940599E+03  0.11153822290E+03  0.95023681511E+03  0.65864270000E+03 0.  0.
    8880022    1    1    2    0    0  0.34724350899E+03 -0.57975940599E+03 -0.32179462417E+03  0.76396495766E+03  0.15294330000E+03 0.  0.
<mgrwt>
<rscale>  0 0.87353401E+03</rscale>
<asrwt>0</asrwt>
<pdfrwt beam="1">  1        1 0.11568810E+00 0.94366797E+03</pdfrwt>
<pdfrwt beam="2">  1       -1 0.14803525E+00 0.94366797E+03</pdfrwt>
<totfact> 0.88896621E+00</totfact>
</mgrwt>
</event>
<event>
 4    1  0.1043382E-007  0.6749208E+03  0.7818608E-02  0.1012356E+00
         -1   -1    0    0    0  501 -0.00000000000E+00  0.00000000000E+00  0.93575783034E+03  0.93575783035E+03  0.50400000000E-02 0.  1.
          1   -1    0    0  501    0  0.00000000000E+00 -0.00000000000E+00 -0.13252311725E+04  0.13252311725E+04  0.50400000000E-02 0. -1.
    8880023    1    1    2    0    0 -0.14729812699E+03  0.33474598123E+01  0.80345046044E+03  0.10493096742E+04  0.65864270000E+03 0.  1.
    8880022    1    1    2    0    0  0.14729812699E+03 -0.33474598123E+01 -0.11929238026E+04  0.12116793287E+04  0.15294330000E+03 0.  0.
<mgrwt>
<rscale>  0 0.50548842E+03</rscale>
<asrwt>0</asrwt>
<pdfrwt beam="1">  1        1 0.20388172E+00 0.67492085E+03</pdfrwt>
<pdfrwt beam="2">  1       -1 0.14396274E+00 0.67492085E+03</pdfrwt>
<totfact> 0.35687335E+00</totfact>
</mgrwt>
</event>
<event>
 4    1  0.1043382E-007  0.8775588E+03  0.7818608E-02  0.9563062E-01
         -1   -1    0    0    0  501 -0.00000000000E+00  0.00000000000E+00  0.14204962863E+04  0.14204962863E+04  0.50400000000E-02 0.  1.
          1   -1    0    0  501    0  0.00000000000E+00 -0.00000000000E+00 -0.40281466678E+03  0.40281466681E+03  0.50400000000E-02 0. -1.
    8880023    1    1    2    0    0 -0.48022687500E+02 -0.57792135507E+03  0.79327476397E+03  0.11829599860E+04  0.65864270000E+03 0.  1.
    8880022    1    1    2    0    0  0.48022687500E+02  0.57792135507E+03  0.22440685551E+03  0.64035096703E+03  0.15294330000E+03 0. -1.
<mgrwt>
<rscale>  0 0.79789981E+03</rscale>
<asrwt>0</asrwt>
<pdfrwt beam="1">  1        1 0.61971488E-01 0.87755882E+03</pdfrwt>
<pdfrwt beam="2">  1       -1 0.21853789E+00 0.87755882E+03</pdfrwt>
<totfact> 0.68173703E+00</totfact>
</mgrwt>
</event>
<event>
 4    1  0.1043382E-007  0.6844734E+03  0.7818608E-02  0.1006899E+00
         -1   -1    0    0    0  501 -0.00000000000E+00  0.00000000000E+00  0.22807218806E+03  0.22807218811E+03  0.50400000000E-02 0.  1.
          1   -1    0    0  501    0  0.00000000000E+00 -0.00000000000E+00 -0.16365838688E+04  0.16365838688E+04  0.50400000000E-02 0. -1.
    8880023    1    1    2    0    0 -0.94602888663E+01 -0.18602170455E+03 -0.33060390688E+03  0.76013335747E+03  0.65864270000E+03 0.  1.
    8880022    1    1    2    0    0  0.94602888663E+01  0.18602170455E+03 -0.10779077739E+04  0.11045226995E+04  0.15294330000E+03 0.  0.
<mgrwt>
<rscale>  0 0.52726097E+03</rscale>
<asrwt>0</asrwt>
<pdfrwt beam="1">  1        1 0.25178213E+00 0.68447336E+03</pdfrwt>
<pdfrwt beam="2">  1       -1 0.35088030E-01 0.68447336E+03</pdfrwt>
<totfact> 0.42267850E+01</totfact>
</mgrwt>
</event>
<event>
 4    1  0.1043382E-007  0.8889112E+03  0.7818608E-02  0.9544072E-01
         -1   -1    0    0    0  501 -0.00000000000E+00  0.00000000000E+00  0.78866609272E+03  0.78866609273E+03  0.50400000000E-02 0.  1.
          1   -1    0    0  501    0  0.00000000000E+00 -0.00000000000E+00 -0.79020475041E+03  0.79020475042E+03  0.50400000000E-02 0. -1.
    8880023    1    1    2    0    0  0.12212266869E+03 -0.58432776853E+03  0.23393737691E+03  0.91917886718E+03  0.65864270000E+03 0.  1.
    8880022    1    1    2    0    0 -0.12212266869E+03  0.58432776853E+03 -0.23547603460E+03  0.65969197598E+03  0.15294330000E+03 0.  0.
<mgrwt>
<rscale>  0 0.81111087E+03</rscale>
<asrwt>0</asrwt>
<pdfrwt beam="1">  1        1 0.12156996E+00 0.88891118E+03</pdfrwt>
<pdfrwt beam="2">  1       -1 0.12133324E+00 0.88891118E+03</pdfrwt>
<totfact> 0.13765454E+01</totfact>
</mgrwt>
</event>
<event>
 4    1  0.1043382E-007  0.7914504E+03  0.7818608E-02  0.9729596E-01
          1   -1    0    0  501    0  0.00000000000E+00  0.00000000000E+00  0.13940795080E+04  0.13940795080E+04  0.50400000000E-02 0. -1.
         -1   -1    0    0    0  501 -0.00000000000E+00 -0.00000000000E+00 -0.38122825547E+03  0.38122825550E+03  0.50400000000E-02 0.  1.
    8880023    1    1    2    0    0 -0.39296168665E+02 -0.43708039513E+03  0.16503499757E+03  0.80847400537E+03  0.65864270000E+03 0.  1.
    8880022    1    1    2    0    0  0.39296168665E+02  0.43708039513E+03  0.84781625499E+03  0.96683375816E+03  0.15294330000E+03 0.  0.
<mgrwt>
<rscale>  0 0.69281650E+03</rscale>
<asrwt>0</asrwt>
<pdfrwt beam="1">  1        1 0.21447377E+00 0.79145036E+03</pdfrwt>
<pdfrwt beam="2">  1       -1 0.58650500E-01 0.79145036E+03</pdfrwt>
<totfact> 0.23472757E+01</totfact>
</mgrwt>
</event>
<event>
 4    1  0.1043382E-007  0.7780147E+03  0.7818608E-02  0.9760521E-01
          1   -1    0    0  501    0  0.00000000000E+00  0.00000000000E+00  0.96375439340E+03  0.96375439341E+03  0.50400000000E-02 0. -1.
         -1   -1    0    0    0  501 -0.00000000000E+00 -0.00000000000E+00 -0.99071892199E+03  0.99071892201E+03  0.50400000000E-02 0.  1.
    8880023    1    1    2    0    0 -0.41032561887E+03  0.55942448050E+02 -0.76715830195E+03  0.10926292773E+04  0.65864270000E+03 0.  1.
    8880022    1    1    2    0    0  0.41032561887E+03 -0.55942448050E+02  0.74019377336E+03  0.86184403817E+03  0.15294330000E+03 0.  0.
<mgrwt>
<rscale>  0 0.67524920E+03</rscale>
<asrwt>0</asrwt>
<pdfrwt beam="1">  1        1 0.14826991E+00 0.77801470E+03</pdfrwt>
<pdfrwt beam="2">  1       -1 0.15241829E+00 0.77801470E+03</pdfrwt>
<totfact> 0.55687539E+00</totfact>
</mgrwt>
</event>
<event>
 4    1  0.1043382E-007  0.7177445E+03  0.7818608E-02  0.9930293E-01
          1   -1    0    0  501    0  0.00000000000E+00  0.00000000000E+00  0.34800936814E+03  0.34800936818E+03  0.50400000000E-02 0. -1.
         -1   -1    0    0    0  501 -0.00000000000E+00 -0.00000000000E+00 -0.92495471578E+03  0.92495471580E+03  0.50400000000E-02 0.  1.
    8880023    1    1    2    0    0 -0.22355057613E+03  0.17712170729E+03 -0.61747687947E+03  0.94680244097E+03  0.65864270000E+03 0.  0.
    8880022    1    1    2    0    0  0.22355057613E+03 -0.17712170729E+03  0.40531531833E+02  0.32616164301E+03  0.15294330000E+03 0.  0.
<mgrwt>
<rscale>  0 0.58815360E+03</rscale>
<asrwt>0</asrwt>
<pdfrwt beam="1">  1        1 0.53539903E-01 0.71774450E+03</pdfrwt>
<pdfrwt beam="2">  1       -1 0.14230072E+00 0.71774450E+03</pdfrwt>
<totfact> 0.29741909E+01</totfact>
</mgrwt>
</event>
<event>
 4    1  0.1043382E-007  0.8247499E+03  0.7818608E-02  0.9659635E-01
         -1   -1    0    0    0  501 -0.00000000000E+00  0.00000000000E+00  0.47830690003E+03  0.47830690006E+03  0.50400000000E-02 0.  1.
          1   -1    0    0  501    0  0.00000000000E+00 -0.00000000000E+00 -0.10630365417E+04  0.10630365417E+04  0.50400000000E-02 0. -1.
    8880023    1    1    2    0    0  0.44444560952E+03 -0.22106612381E+03 -0.99838091495E+02  0.83077071548E+03  0.65864270000E+03 0.  0.
    8880022    1    1    2    0    0 -0.44444560952E+03  0.22106612381E+03 -0.48489155021E+03  0.71057272633E+03  0.15294330000E+03 0.  0.
<mgrwt>
<rscale>  0 0.73471800E+03</rscale>
<asrwt>0</asrwt>
<pdfrwt beam="1">  1        1 0.16354408E+00 0.82474986E+03</pdfrwt>
<pdfrwt beam="2">  1       -1 0.73585677E-01 0.82474986E+03</pdfrwt>
<totfact> 0.25664531E+01</totfact>
</mgrwt>
</event>
<event>
 4    1  0.1043382E-007  0.7004603E+03  0.7818608E-02  0.9995297E-01
          1   -1    0    0  501    0  0.00000000000E+00  0.00000000000E+00  0.21145750092E+03  0.21145750098E+03  0.50400000000E-02 0. -1.
         -1   -1    0    0    0  501 -0.00000000000E+00 -0.00000000000E+00 -0.16659676928E+04  0.16659676928E+04  0.50400000000E-02 0.  1.
    8880023    1    1    2    0    0  0.23497155431E+03  0.40284634788E+02 -0.14309650193E+04  0.15932060683E+04  0.65864270000E+03 0.  1.
    8880022    1    1    2    0    0 -0.23497155431E+03 -0.40284634788E+02 -0.23545172529E+02  0.28421912550E+03  0.15294330000E+03 0.  0.
<mgrwt>
<rscale>  0 0.55856941E+03</rscale>
<asrwt>0</asrwt>
<pdfrwt beam="1">  1        1 0.32531924E-01 0.70046034E+03</pdfrwt>
<pdfrwt beam="2">  1       -1 0.25630271E+00 0.70046034E+03</pdfrwt>
<totfact> 0.91450116E+00</totfact>
</mgrwt>
</event>
<event>
 4    1  0.1043382E-007  0.6593060E+03  0.7818608E-02  0.1024879E+00
         -1   -1    0    0    0  501 -0.00000000000E+00  0.00000000000E+00  0.64187126723E+03  0.64187126725E+03  0.50400000000E-02 0.  1.
          1   -1    0    0  501    0  0.00000000000E+00 -0.00000000000E+00 -0.27037426152E+03  0.27037426157E+03  0.50400000000E-02 0. -1.
    8880023    1    1    2    0    0  0.20502558925E+02  0.21303130254E+02  0.37089297447E+03  0.75646941977E+03  0.65864270000E+03 0.  1.
    8880022    1    1    2    0    0 -0.20502558925E+02 -0.21303130254E+02  0.60403124936E+00  0.15577610905E+03  0.15294330000E+03 0.  0.
<mgrwt>
<rscale>  0 0.45966312E+03</rscale>
<asrwt>0</asrwt>
<pdfrwt beam="1">  1        1 0.41596041E-01 0.65930599E+03</pdfrwt>
<pdfrwt beam="2">  1       -1 0.98749425E-01 0.65930599E+03</pdfrwt>
<totfact> 0.10067783E+02</totfact>
</mgrwt>
</event>
<event>
 4    1  0.1043382E-007  0.7752069E+03  0.7818608E-02  0.9767219E-01
          1   -1    0    0  501    0  0.00000000000E+00  0.00000000000E+00  0.77515528883E+03  0.77515528884E+03  0.50400000000E-02 0. -1.
         -1   -1    0    0    0  501 -0.00000000000E+00 -0.00000000000E+00 -0.62362737203E+03  0.62362737205E+03  0.50400000000E-02 0.  1.
    8880023    1    1    2    0    0  0.19764588104E+02  0.40834408414E+03 -0.24094519141E+03  0.81178834774E+03  0.65864270000E+03 0.  0.
    8880022    1    1    2    0    0 -0.19764588104E+02 -0.40834408414E+03  0.39247310821E+03  0.58699431315E+03  0.15294330000E+03 0.  0.
<mgrwt>
<rscale>  0 0.67151828E+03</rscale>
<asrwt>0</asrwt>
<pdfrwt beam="1">  1        1 0.11925466E+00 0.77520690E+03</pdfrwt>
<pdfrwt beam="2">  1       -1 0.95942673E-01 0.77520690E+03</pdfrwt>
<totfact> 0.24922357E+01</totfact>
</mgrwt>
</event>
<event>
 4    1  0.1043382E-007  0.7038438E+03  0.7818608E-02  0.9981614E-01
         -1   -1    0    0    0  501 -0.00000000000E+00  0.00000000000E+00  0.41965369534E+03  0.41965369538E+03  0.50400000000E-02 0.  1.
          1   -1    0    0  501    0  0.00000000000E+00 -0.00000000000E+00 -0.22078313535E+04  0.22078313535E+04  0.50400000000E-02 0. -1.
    8880023    1    1    2    0    0  0.13276228111E+03 -0.20966648960E+03  0.10531959462E+03  0.71167990236E+03  0.65864270000E+03 0.  1.
    8880022    1    1    2    0    0 -0.13276228111E+03  0.20966648960E+03 -0.18934972528E+04  0.19158051465E+04  0.15294330000E+03 0.  0.
<mgrwt>
<rscale>  0 0.56463814E+03</rscale>
<asrwt>0</asrwt>
<pdfrwt beam="1">  1        1 0.33966636E+00 0.70384378E+03</pdfrwt>
<pdfrwt beam="2">  1       -1 0.64562108E-01 0.70384378E+03</pdfrwt>
<totfact> 0.55580787E+00</totfact>
</mgrwt>
</event>
<event>
 4    1  0.1043382E-007  0.7237038E+03  0.7818608E-02  0.9910247E-01
          1   -1    0    0  501    0  0.00000000000E+00  0.00000000000E+00  0.16235160880E+04  0.16235160880E+04  0.50400000000E-02 0. -1.
         -1   -1    0    0    0  501 -0.00000000000E+00 -0.00000000000E+00 -0.45610312413E+03  0.45610312416E+03  0.50400000000E-02 0.  1.
    8880023    1    1    2    0    0 -0.21226593421E+03 -0.21184942561E+03 -0.13344834040E+03  0.73590466215E+03  0.65864270000E+03 0.  1.
    8880022    1    1    2    0    0  0.21226593421E+03  0.21184942561E+03  0.13008613042E+04  0.13437145500E+04  0.15294330000E+03 0.  0.
<mgrwt>
<rscale>  0 0.59767228E+03</rscale>
<asrwt>0</asrwt>
<pdfrwt beam="1">  1        1 0.24977171E+00 0.72370382E+03</pdfrwt>
<pdfrwt beam="2">  1       -1 0.70169712E-01 0.72370382E+03</pdfrwt>
<totfact> 0.11518425E+01</totfact>
</mgrwt>
</event>
<event>
 4    1  0.1043382E-007  0.1003944E+04  0.7818608E-02  0.9376416E-01
          1   -1    0    0  501    0  0.00000000000E+00  0.00000000000E+00  0.10038223762E+04  0.10038223762E+04  0.50400000000E-02 0. -1.
         -1   -1    0    0    0  501 -0.00000000000E+00 -0.00000000000E+00 -0.13593639678E+04  0.13593639678E+04  0.50400000000E-02 0.  1.
    8880023    1    1    2    0    0  0.63822525990E+03 -0.40836493812E+03 -0.95453280801E+03  0.13852929267E+04  0.65864270000E+03 0.  0.
    8880022    1    1    2    0    0 -0.63822525990E+03  0.40836493812E+03  0.59899121645E+03  0.97789341723E+03  0.15294330000E+03 0.  0.
<mgrwt>
<rscale>  0 0.94042249E+03</rscale>
<asrwt>0</asrwt>
<pdfrwt beam="1">  1        1 0.15443421E+00 0.10039440E+04</pdfrwt>
<pdfrwt beam="2">  1       -1 0.20913292E+00 0.10039440E+04</pdfrwt>
<totfact> 0.19667392E+00</totfact>
</mgrwt>
</event>
<event>
 4    1  0.1043382E-007  0.1076573E+04  0.7818608E-02  0.9287598E-01
          1   -1    0    0  501    0  0.00000000000E+00  0.00000000000E+00  0.28190237151E+04  0.28190237151E+04  0.50400000000E-02 0. -1.
         -1   -1    0    0    0  501 -0.00000000000E+00 -0.00000000000E+00 -0.40654088015E+03  0.40654088018E+03  0.50400000000E-02 0.  1.
    8880023    1    1    2    0    0 -0.42633450453E+03  0.73718294608E+03  0.19903809278E+04  0.22628800785E+04  0.65864270000E+03 0.  0.
    8880022    1    1    2    0    0  0.42633450453E+03 -0.73718294608E+03  0.42210190709E+03  0.96268451672E+03  0.15294330000E+03 0.  0.
<mgrwt>
<rscale>  0 0.10193265E+04</rscale>
<asrwt>0</asrwt>
<pdfrwt beam="1">  1        1 0.43369595E+00 0.10765733E+04</pdfrwt>
<pdfrwt beam="2">  1       -1 0.62544751E-01 0.10765733E+04</pdfrwt>
<totfact> 0.21222022E+00</totfact>
</mgrwt>
</event>
<event>
 4    1  0.1043382E-007  0.8943322E+03  0.7818608E-02  0.9535192E-01
         -1   -1    0    0    0  501 -0.00000000000E+00  0.00000000000E+00  0.74328196045E+03  0.74328196047E+03  0.50400000000E-02 0.  1.
          1   -1    0    0  501    0  0.00000000000E+00 -0.00000000000E+00 -0.12999137610E+04  0.12999137610E+04  0.50400000000E-02 0. -1.
    8880023    1    1    2    0    0  0.50089776681E+03  0.33929522190E+03  0.33488885552E+03  0.95497673910E+03  0.65864270000E+03 0.  0.
    8880022    1    1    2    0    0 -0.50089776681E+03 -0.33929522190E+03 -0.89152065605E+03  0.10882189824E+04  0.15294330000E+03 0.  0.
<mgrwt>
<rscale>  0 0.81738231E+03</rscale>
<asrwt>0</asrwt>
<pdfrwt beam="1">  1        1 0.19998673E+00 0.89433217E+03</pdfrwt>
<pdfrwt beam="2">  1       -1 0.11435107E+00 0.89433217E+03</pdfrwt>
<totfact> 0.64014145E+00</totfact>
</mgrwt>
</event>
<event>
 4    1  0.1043382E-007  0.7454170E+03  0.7818608E-02  0.9844440E-01
         -1   -1    0    0    0  501 -0.00000000000E+00  0.00000000000E+00  0.10136456664E+04  0.10136456664E+04  0.50400000000E-02 0.  1.
          1   -1    0    0  501    0  0.00000000000E+00 -0.00000000000E+00 -0.94987174171E+03  0.94987174172E+03  0.50400000000E-02 0. -1.
    8880023    1    1    2    0    0  0.28768846624E+03  0.19766536208E+03  0.82521446215E+03  0.11120365838E+04  0.65864270000E+03 0.  1.
    8880022    1    1    2    0    0 -0.28768846624E+03 -0.19766536208E+03 -0.76144053748E+03  0.85148082427E+03  0.15294330000E+03 0.  0.
<mgrwt>
<rscale>  0 0.63031220E+03</rscale>
<asrwt>0</asrwt>
<pdfrwt beam="1">  1        1 0.14613411E+00 0.74541697E+03</pdfrwt>
<pdfrwt beam="2">  1       -1 0.15594549E+00 0.74541697E+03</pdfrwt>
<totfact> 0.53928797E+00</totfact>
</mgrwt>
</event>
<event>
 4    1  0.1043382E-007  0.8978117E+03  0.7818608E-02  0.9529554E-01
         -1   -1    0    0    0  501 -0.00000000000E+00  0.00000000000E+00  0.41608863416E+03  0.41608863419E+03  0.50400000000E-02 0.  1.
          1   -1    0    0  501    0  0.00000000000E+00 -0.00000000000E+00 -0.23864267766E+04  0.23864267766E+04  0.50400000000E-02 0. -1.
    8880023    1    1    2    0    0  0.51495081553E+02  0.60795051195E+03 -0.19459251009E+03  0.91865772715E+03  0.65864270000E+03 0.  0.
    8880022    1    1    2    0    0 -0.51495081553E+02 -0.60795051195E+03 -0.17757456324E+04  0.18838576837E+04  0.15294330000E+03 0.  0.
<mgrwt>
<rscale>  0 0.82139574E+03</rscale>
<asrwt>0</asrwt>
<pdfrwt beam="1">  1        1 0.36714257E+00 0.89781166E+03</pdfrwt>
<pdfrwt beam="2">  1       -1 0.64013637E-01 0.89781166E+03</pdfrwt>
<totfact> 0.41456704E+00</totfact>
</mgrwt>
</event>
<event>
 4    1  0.1043382E-007  0.6595211E+03  0.7818608E-02  0.1024653E+00
         -1   -1    0    0    0  501 -0.00000000000E+00  0.00000000000E+00  0.52711887065E+03  0.52711887067E+03  0.50400000000E-02 0.  1.
          1   -1    0    0  501    0  0.00000000000E+00 -0.00000000000E+00 -0.15858807349E+04  0.15858807349E+04  0.50400000000E-02 0. -1.
    8880023    1    1    2    0    0  0.32964958126E+02 -0.84358164960E+01  0.31461129216E+03  0.73071767659E+03  0.65864270000E+03 0.  1.
    8880022    1    1    2    0    0 -0.32964958126E+02  0.84358164960E+01 -0.13733731564E+04  0.13822819290E+04  0.15294330000E+03 0.  0.
<mgrwt>
<rscale>  0 0.46044404E+03</rscale>
<asrwt>0</asrwt>
<pdfrwt beam="1">  1        1 0.24398165E+00 0.65952108E+03</pdfrwt>
<pdfrwt beam="2">  1       -1 0.81095211E-01 0.65952108E+03</pdfrwt>
<totfact> 0.91287382E+00</totfact>
</mgrwt>
</event>
<event>
 4    1  0.1043382E-007  0.9354464E+03  0.7818608E-02  0.9471370E-01
         -1   -1    0    0    0  501 -0.00000000000E+00  0.00000000000E+00  0.94517964888E+03  0.94517964890E+03  0.50400000000E-02 0.  1.
          1   -1    0    0  501    0  0.00000000000E+00 -0.00000000000E+00 -0.10916713910E+04  0.10916713910E+04  0.50400000000E-02 0. -1.
    8880023    1    1    2    0    0  0.49685589695E+03  0.44088990866E+03 -0.69217727857E+03  0.11636877954E+04  0.65864270000E+03 0. -1.
    8880022    1    1    2    0    0 -0.49685589695E+03 -0.44088990866E+03  0.54568553645E+03  0.87316324453E+03  0.15294330000E+03 0.  1.
<mgrwt>
<rscale>  0 0.86427888E+03</rscale>
<asrwt>0</asrwt>
<pdfrwt beam="1">  1        1 0.16794944E+00 0.93544636E+03</pdfrwt>
<pdfrwt beam="2">  1       -1 0.14541225E+00 0.93544636E+03</pdfrwt>
<totfact> 0.49301133E+00</totfact>
</mgrwt>
</event>
<event>
 4    1  0.1043382E-007  0.7973828E+03  0.7818608E-02  0.9716484E-01
          1   -1    0    0  501    0  0.00000000000E+00  0.00000000000E+00  0.13319812765E+04  0.13319812765E+04  0.50400000000E-02 0. -1.
         -1   -1    0    0    0  501 -0.00000000000E+00 -0.00000000000E+00 -0.60125344850E+03  0.60125344852E+03  0.50400000000E-02 0.  1.
    8880023    1    1    2    0    0 -0.44919918120E+03 -0.15138117718E+02 -0.25663098467E+03  0.83766266215E+03  0.65864270000E+03 0.  1.
    8880022    1    1    2    0    0  0.44919918120E+03  0.15138117718E+02  0.98735881266E+03  0.10955720629E+04  0.15294330000E+03 0.  0.
<mgrwt>
<rscale>  0 0.70043775E+03</rscale>
<asrwt>0</asrwt>
<pdfrwt beam="1">  1        1 0.20492019E+00 0.79738276E+03</pdfrwt>
<pdfrwt beam="2">  1       -1 0.92500532E-01 0.79738276E+03</pdfrwt>
<totfact> 0.10041133E+01</totfact>
</mgrwt>
</event>
<event>
 4    1  0.1043382E-007  0.7160656E+03  0.7818608E-02  0.9936131E-01
          1   -1    0    0  501    0  0.00000000000E+00  0.00000000000E+00  0.43702446549E+03  0.43702446552E+03  0.50400000000E-02 0. -1.
         -1   -1    0    0    0  501 -0.00000000000E+00 -0.00000000000E+00 -0.69404579455E+03  0.69404579457E+03  0.50400000000E-02 0.  1.
    8880023    1    1    2    0    0  0.27317947803E+03  0.65671291395E+02 -0.35126738278E+03  0.79758305286E+03  0.65864270000E+03 0.  1.
    8880022    1    1    2    0    0 -0.27317947803E+03 -0.65671291395E+02  0.94246053723E+02  0.33348720723E+03  0.15294330000E+03 0.  0.
<mgrwt>
<rscale>  0 0.58541753E+03</rscale>
<asrwt>0</asrwt>
<pdfrwt beam="1">  1        1 0.67234533E-01 0.71606561E+03</pdfrwt>
<pdfrwt beam="2">  1       -1 0.10677628E+00 0.71606561E+03</pdfrwt>
<totfact> 0.44682458E+01</totfact>
</mgrwt>
</event>
<event>
 4    1  0.1043382E-007  0.7236107E+03  0.7818608E-02  0.9910553E-01
         -1   -1    0    0    0  501 -0.00000000000E+00  0.00000000000E+00  0.46421417156E+03  0.46421417158E+03  0.50400000000E-02 0.  1.
          1   -1    0    0  501    0  0.00000000000E+00 -0.00000000000E+00 -0.80527989581E+03  0.80527989582E+03  0.50400000000E-02 0. -1.
    8880023    1    1    2    0    0 -0.76957771971E+02  0.28961987630E+03  0.82799871219E+02  0.72833247652E+03  0.65864270000E+03 0.  1.
    8880022    1    1    2    0    0  0.76957771971E+02 -0.28961987630E+03 -0.42386559547E+03  0.54116159089E+03  0.15294330000E+03 0.  0.
<mgrwt>
<rscale>  0 0.59752565E+03</rscale>
<asrwt>0</asrwt>
<pdfrwt beam="1">  1        1 0.12388921E+00 0.72361065E+03</pdfrwt>
<pdfrwt beam="2">  1       -1 0.71417565E-01 0.72361065E+03</pdfrwt>
<totfact> 0.44441155E+01</totfact>
</mgrwt>
</event>
<event>
 4    1  0.1043382E-007  0.1127149E+04  0.7818608E-02  0.9231415E-01
          1   -1    0    0  501    0  0.00000000000E+00  0.00000000000E+00  0.20657831855E+04  0.20657831855E+04  0.50400000000E-02 0. -1.
         -1   -1    0    0    0  501 -0.00000000000E+00 -0.00000000000E+00 -0.64513046139E+03  0.64513046141E+03  0.50400000000E-02 0.  1.
    8880023    1    1    2    0    0  0.52776626399E+03  0.74707192148E+03  0.14890506839E+03  0.11369417799E+04  0.65864270000E+03 0.  1.
    8880022    1    1    2    0    0 -0.52776626399E+03 -0.74707192148E+03  0.12717476557E+04  0.15739718670E+04  0.15294330000E+03 0.  0.
<mgrwt>
<rscale>  0 0.10734975E+04</rscale>
<asrwt>0</asrwt>
<pdfrwt beam="1">  1        1 0.31781279E+00 0.11271486E+04</pdfrwt>
<pdfrwt beam="2">  1       -1 0.99250841E-01 0.11271486E+04</pdfrwt>
<totfact> 0.25948023E+00</totfact>
</mgrwt>
</event>
<event>
 4    1  0.1043382E-007  0.8611655E+03  0.7818608E-02  0.9591494E-01
          1   -1    0    0  501    0  0.00000000000E+00  0.00000000000E+00  0.10019571081E+04  0.10019571081E+04  0.50400000000E-02 0. -1.
         -1   -1    0    0    0  501 -0.00000000000E+00 -0.00000000000E+00 -0.13143384990E+04  0.13143384991E+04  0.50400000000E-02 0.  1.
    8880023    1    1    2    0    0 -0.17597120944E+03 -0.52614632931E+03 -0.10645269869E+04  0.13692420306E+04  0.65864270000E+03 0.  0.
    8880022    1    1    2    0    0  0.17597120944E+03  0.52614632931E+03  0.75214559591E+03  0.94705357655E+03  0.15294330000E+03 0.  0.
<mgrwt>
<rscale>  0 0.77861759E+03</rscale>
<asrwt>0</asrwt>
<pdfrwt beam="1">  1        1 0.15414725E+00 0.86116551E+03</pdfrwt>
<pdfrwt beam="2">  1       -1 0.20220592E+00 0.86116551E+03</pdfrwt>
<totfact> 0.22441062E+00</totfact>
</mgrwt>
</event>
<event>
 4    1  0.1043382E-007  0.1046136E+04  0.7818608E-02  0.9323541E-01
          1   -1    0    0  501    0  0.00000000000E+00  0.00000000000E+00  0.16768634945E+04  0.16768634946E+04  0.50400000000E-02 0. -1.
         -1   -1    0    0    0  501 -0.00000000000E+00 -0.00000000000E+00 -0.11399793765E+04  0.11399793765E+04  0.50400000000E-02 0.  1.
    8880023    1    1    2    0    0 -0.48609208812E+03 -0.65138705299E+03 -0.74993896974E+03  0.12871710359E+04  0.65864270000E+03 0.  0.
    8880022    1    1    2    0    0  0.48609208812E+03  0.65138705299E+03  0.12868230878E+04  0.15296718352E+04  0.15294330000E+03 0.  0.
<mgrwt>
<rscale>  0 0.98644246E+03</rscale>
<asrwt>0</asrwt>
<pdfrwt beam="1">  1        1 0.25797900E+00 0.10461361E+04</pdfrwt>
<pdfrwt beam="2">  1       -1 0.17538144E+00 0.10461361E+04</pdfrwt>
<totfact> 0.11118432E+00</totfact>
</mgrwt>
</event>
<event>
 4    1  0.1043382E-007  0.6977574E+03  0.7818608E-02  0.1000663E+00
         -1   -1    0    0    0  501 -0.00000000000E+00  0.00000000000E+00  0.48450126499E+03  0.48450126502E+03  0.50400000000E-02 0.  1.
          1   -1    0    0  501    0  0.00000000000E+00 -0.00000000000E+00 -0.80525565848E+03  0.80525565849E+03  0.50400000000E-02 0. -1.
    8880023    1    1    2    0    0  0.21263363730E+03 -0.88555476215E+02  0.17745397004E+03  0.71996892560E+03  0.65864270000E+03 0.  0.
    8880022    1    1    2    0    0 -0.21263363730E+03  0.88555476215E+02 -0.49820836352E+03  0.56978799792E+03  0.15294330000E+03 0.  0.
<mgrwt>
<rscale>  0 0.55360274E+03</rscale>
<asrwt>0</asrwt>
<pdfrwt beam="1">  1        1 0.12388549E+00 0.69775737E+03</pdfrwt>
<pdfrwt beam="2">  1       -1 0.74538656E-01 0.69775737E+03</pdfrwt>
<totfact> 0.40790967E+01</totfact>
</mgrwt>
</event>
<event>
 4    1  0.1043382E-007  0.1025496E+04  0.7818608E-02  0.9348936E-01
         -1   -1    0    0    0  501 -0.00000000000E+00  0.00000000000E+00  0.11079080618E+04  0.11079080618E+04  0.50400000000E-02 0.  1.
          1   -1    0    0  501    0  0.00000000000E+00 -0.00000000000E+00 -0.78661862073E+03  0.78661862075E+03  0.50400000000E-02 0. -1.
    8880023    1    1    2    0    0 -0.73180433351E+03 -0.28687012259E+03  0.37512923335E+03  0.10919543020E+04  0.65864270000E+03 0.  0.
    8880022    1    1    2    0    0  0.73180433351E+03  0.28687012259E+03 -0.53839792258E+02  0.80257238055E+03  0.15294330000E+03 0.  0.
<mgrwt>
<rscale>  0 0.96399927E+03</rscale>
<asrwt>0</asrwt>
<pdfrwt beam="1">  1        1 0.12101825E+00 0.10254961E+04</pdfrwt>
<pdfrwt beam="2">  1       -1 0.17044739E+00 0.10254961E+04</pdfrwt>
<totfact> 0.55474240E+00</totfact>
</mgrwt>
</event>
<event>
 4    1  0.1043382E-007  0.7442640E+03  0.7818608E-02  0.9847696E-01
          1   -1    0    0  501    0  0.00000000000E+00  0.00000000000E+00  0.12740228374E+04  0.12740228374E+04  0.50400000000E-02 0. -1.
         -1   -1    0    0    0  501 -0.00000000000E+00 -0.00000000000E+00 -0.69824893769E+03  0.69824893771E+03  0.50400000000E-02 0.  1.
    8880023    1    1    2    0    0  0.34641902121E+03 -0.10608074075E+02 -0.45620648756E+03  0.87295660548E+03  0.65864270000E+03 0.  1.
    8880022    1    1    2    0    0 -0.34641902121E+03  0.10608074075E+02  0.10319803873E+04  0.10993151696E+04  0.15294330000E+03 0.  0.
<mgrwt>
<rscale>  0 0.62864526E+03</rscale>
<asrwt>0</asrwt>
<pdfrwt beam="1">  1        1 0.19600351E+00 0.74426398E+03</pdfrwt>
<pdfrwt beam="2">  1       -1 0.10742291E+00 0.74426398E+03</pdfrwt>
<totfact> 0.79071403E+00</totfact>
</mgrwt>
</event>
<event>
 4    1  0.1043382E-007  0.7143440E+03  0.7818608E-02  0.9942210E-01
          1   -1    0    0  501    0  0.00000000000E+00  0.00000000000E+00  0.86173865368E+03  0.86173865370E+03  0.50400000000E-02 0. -1.
         -1   -1    0    0    0  501 -0.00000000000E+00 -0.00000000000E+00 -0.50718904208E+03  0.50718904211E+03  0.50400000000E-02 0.  1.
    8880023    1    1    2    0    0  0.14439243140E+03  0.23585573777E+03 -0.19012662056E+03  0.73921271728E+03  0.65864270000E+03 0.  1.
    8880022    1    1    2    0    0 -0.14439243140E+03 -0.23585573777E+03  0.54467623216E+03  0.62971497852E+03  0.15294330000E+03 0.  0.
<mgrwt>
<rscale>  0 0.58258493E+03</rscale>
<asrwt>0</asrwt>
<pdfrwt beam="1">  1        1 0.13257518E+00 0.71434397E+03</pdfrwt>
<pdfrwt beam="2">  1       -1 0.78029084E-01 0.71434397E+03</pdfrwt>
<totfact> 0.33147527E+01</totfact>
</mgrwt>
</event>
<event>
 4    1  0.1043382E-007  0.6850217E+03  0.7818608E-02  0.1006615E+00
          1   -1    0    0  501    0  0.00000000000E+00  0.00000000000E+00  0.22823988054E+03  0.22823988060E+03  0.50400000000E-02 0. -1.
         -1   -1    0    0    0  501 -0.00000000000E+00 -0.00000000000E+00 -0.98596108033E+03  0.98596108034E+03  0.50400000000E-02 0.  1.
    8880023    1    1    2    0    0  0.17288272849E+03 -0.74538948273E+02 -0.66443006103E+03  0.95431755977E+03  0.65864270000E+03 0.  0.
    8880022    1    1    2    0    0 -0.17288272849E+03  0.74538948273E+02 -0.93291138754E+02  0.25988340117E+03  0.15294330000E+03 0.  0.
<mgrwt>
<rscale>  0 0.52842550E+03</rscale>
<asrwt>0</asrwt>
<pdfrwt beam="1">  1        1 0.35113828E-01 0.68502168E+03</pdfrwt>
<pdfrwt beam="2">  1       -1 0.15168632E+00 0.68502168E+03</pdfrwt>
<totfact> 0.43486283E+01</totfact>
</mgrwt>
</event>
<event>
 4    1  0.1043382E-007  0.1042377E+04  0.7818608E-02  0.9328102E-01
         -1   -1    0    0    0  501 -0.00000000000E+00  0.00000000000E+00  0.16991518416E+04  0.16991518416E+04  0.50400000000E-02 0.  1.
          1   -1    0    0  501    0  0.00000000000E+00 -0.00000000000E+00 -0.66432933291E+03  0.66432933293E+03  0.50400000000E-02 0. -1.
    8880023    1    1    2    0    0 -0.62749762611E+03  0.50890721025E+03  0.11280760341E+04  0.15359380080E+04  0.65864270000E+03 0.  0.
    8880022    1    1    2    0    0  0.62749762611E+03 -0.50890721025E+03 -0.93253525455E+02  0.82754316651E+03  0.15294330000E+03 0.  0.
<mgrwt>
<rscale>  0 0.98236423E+03</rscale>
<asrwt>0</asrwt>
<pdfrwt beam="1">  1        1 0.10220451E+00 0.10423771E+04</pdfrwt>
<pdfrwt beam="2">  1       -1 0.26140797E+00 0.10423771E+04</pdfrwt>
<totfact> 0.17388391E+00</totfact>
</mgrwt>
</event>
<event>
 4    1  0.1043382E-007  0.6918262E+03  0.7818608E-02  0.1003296E+00
          1   -1    0    0  501    0  0.00000000000E+00  0.00000000000E+00  0.22034985346E+04  0.22034985346E+04  0.50400000000E-02 0. -1.
         -1   -1    0    0    0  501 -0.00000000000E+00 -0.00000000000E+00 -0.13982146086E+03  0.13982146095E+03  0.50400000000E-02 0.  1.
    8880023    1    1    2    0    0  0.15326630011E+03  0.14602309365E+03  0.82158685984E+03  0.10740709833E+04  0.65864270000E+03 0.  1.
    8880022    1    1    2    0    0 -0.15326630011E+03 -0.14602309365E+03  0.12420902139E+04  0.12692490122E+04  0.15294330000E+03 0.  0.
<mgrwt>
<rscale>  0 0.54228145E+03</rscale>
<asrwt>0</asrwt>
<pdfrwt beam="1">  1        1 0.33899977E+00 0.69182621E+03</pdfrwt>
<pdfrwt beam="2">  1       -1 0.21510994E-01 0.69182621E+03</pdfrwt>
<totfact> 0.40996300E+01</totfact>
</mgrwt>
</event>
<event>
 4    1  0.1043382E-007  0.7430291E+03  0.7818608E-02  0.9851210E-01
          1   -1    0    0  501    0  0.00000000000E+00  0.00000000000E+00  0.25913531751E+04  0.25913531751E+04  0.50400000000E-02 0. -1.
         -1   -1    0    0    0  501 -0.00000000000E+00 -0.00000000000E+00 -0.20886617419E+03  0.20886617425E+03  0.50400000000E-02 0.  1.
    8880023    1    1    2    0    0  0.32434362275E+03  0.11438223169E+03  0.53706894345E+03  0.91680714266E+03  0.65864270000E+03 0.  1.
    8880022    1    1    2    0    0 -0.32434362275E+03 -0.11438223169E+03  0.18454180575E+04  0.18834122067E+04  0.15294330000E+03 0.  0.
<mgrwt>
<rscale>  0 0.62685277E+03</rscale>
<asrwt>0</asrwt>
<pdfrwt beam="1">  1        1 0.39866971E+00 0.74302913E+03</pdfrwt>
<pdfrwt beam="2">  1       -1 0.32133259E-01 0.74302913E+03</pdfrwt>
<totfact> 0.11158285E+01</totfact>
</mgrwt>
</event>
<event>
 4    1  0.1043382E-007  0.7332311E+03  0.7818608E-02  0.9880122E-01
         -1   -1    0    0    0  501 -0.00000000000E+00  0.00000000000E+00  0.63688808369E+03  0.63688808371E+03  0.50400000000E-02 0.  1.
          1   -1    0    0  501    0  0.00000000000E+00 -0.00000000000E+00 -0.80990585875E+03  0.80990585876E+03  0.50400000000E-02 0. -1.
    8880023    1    1    2    0    0  0.30011812295E+03 -0.11724678390E+03  0.35100000854E+03  0.81291383819E+03  0.65864270000E+03 0.  1.
    8880022    1    1    2    0    0 -0.30011812295E+03  0.11724678390E+03 -0.52401778361E+03  0.63388010428E+03  0.15294330000E+03 0.  0.
<mgrwt>
<rscale>  0 0.61234412E+03</rscale>
<asrwt>0</asrwt>
<pdfrwt beam="1">  1        1 0.12460090E+00 0.73323114E+03</pdfrwt>
<pdfrwt beam="2">  1       -1 0.97982782E-01 0.73323114E+03</pdfrwt>
<totfact> 0.22270230E+01</totfact>
</mgrwt>
</event>
<event>
 4    1  0.1043382E-007  0.1022216E+04  0.7818608E-02  0.9353052E-01
         -1   -1    0    0    0  501 -0.00000000000E+00  0.00000000000E+00  0.53950308041E+03  0.53950308043E+03  0.50400000000E-02 0.  1.
          1   -1    0    0  501    0  0.00000000000E+00 -0.00000000000E+00 -0.23401528868E+04  0.23401528868E+04  0.50400000000E-02 0. -1.
    8880023    1    1    2    0    0  0.30900328990E+03 -0.71807556910E+03 -0.13209578030E+03  0.10307157986E+04  0.65864270000E+03 0.  1.
    8880022    1    1    2    0    0 -0.30900328990E+03  0.71807556910E+03 -0.16685540261E+04  0.18489401686E+04  0.15294330000E+03 0.  0.
<mgrwt>
<rscale>  0 0.96042091E+03</rscale>
<asrwt>0</asrwt>
<pdfrwt beam="1">  1        1 0.36002351E+00 0.10222161E+04</pdfrwt>
<pdfrwt beam="2">  1       -1 0.83000475E-01 0.10222161E+04</pdfrwt>
<totfact> 0.25506339E+00</totfact>
</mgrwt>
</event>
<event>
 4    1  0.1043382E-007  0.6659355E+03  0.7818608E-02  0.1018761E+00
          1   -1    0    0  501    0  0.00000000000E+00  0.00000000000E+00  0.15727269037E+04  0.15727269037E+04  0.50400000000E-02 0. -1.
         -1   -1    0    0    0  501 -0.00000000000E+00 -0.00000000000E+00 -0.34086157761E+03  0.34086157764E+03  0.50400000000E-02 0.  1.
    8880023    1    1    2    0    0 -0.43800852792E+02  0.87985257574E+02 -0.24664458264E+01  0.66594009481E+03  0.65864270000E+03 0.  1.
    8880022    1    1    2    0    0  0.43800852792E+02 -0.87985257574E+02  0.12343317719E+04  0.12476483865E+04  0.15294330000E+03 0.  0.
<mgrwt>
<rscale>  0 0.48136350E+03</rscale>
<asrwt>0</asrwt>
<pdfrwt beam="1">  1        1 0.24195799E+00 0.66593553E+03</pdfrwt>
<pdfrwt beam="2">  1       -1 0.52440241E-01 0.66593553E+03</pdfrwt>
<totfact> 0.22350035E+01</totfact>
</mgrwt>
</event>
<event>
 4    1  0.1043382E-007  0.6775905E+03  0.7818608E-02  0.1010721E+00
         -1   -1    0    0    0  501 -0.00000000000E+00  0.00000000000E+00  0.15532958466E+03  0.15532958474E+03  0.50400000000E-02 0.  1.
          1   -1    0    0  501    0  0.00000000000E+00 -0.00000000000E+00 -0.14030962305E+04  0.14030962305E+04  0.50400000000E-02 0. -1.
    8880023    1    1    2    0    0 -0.24403029710E+01  0.15909951821E+03 -0.11029228866E+04  0.12944372182E+04  0.65864270000E+03 0. -1.
    8880022    1    1    2    0    0  0.24403029710E+01 -0.15909951821E+03 -0.14484375925E+03  0.26398859707E+03  0.15294330000E+03 0.  1.
<mgrwt>
<rscale>  0 0.51189162E+03</rscale>
<asrwt>0</asrwt>
<pdfrwt beam="1">  1        1 0.21586095E+00 0.67759045E+03</pdfrwt>
<pdfrwt beam="2">  1       -1 0.23896860E-01 0.67759045E+03</pdfrwt>
<totfact> 0.11879041E+02</totfact>
</mgrwt>
</event>
<event>
 4    1  0.1043382E-007  0.6836027E+03  0.7818608E-02  0.1007355E+00
          1   -1    0    0  501    0  0.00000000000E+00  0.00000000000E+00  0.26836470976E+04  0.26836470976E+04  0.50400000000E-02 0. -1.
         -1   -1    0    0    0  501 -0.00000000000E+00 -0.00000000000E+00 -0.29444366823E+03  0.29444366828E+03  0.50400000000E-02 0.  1.
    8880023    1    1    2    0    0 -0.15792999937E+03  0.92523540352E+02  0.11717053920E+03  0.69357164860E+03  0.65864270000E+03 0.  1.
    8880022    1    1    2    0    0  0.15792999937E+03 -0.92523540352E+02  0.22720328901E+04  0.22845191172E+04  0.15294330000E+03 0.  0.
<mgrwt>
<rscale>  0 0.52539543E+03</rscale>
<asrwt>0</asrwt>
<pdfrwt beam="1">  1        1 0.41286878E+00 0.68360273E+03</pdfrwt>
<pdfrwt beam="2">  1       -1 0.45299026E-01 0.68360273E+03</pdfrwt>
<totfact> 0.52418861E+00</totfact>
</mgrwt>
</event>
<event>
 4    1  0.1043382E-007  0.8864980E+03  0.7818608E-02  0.9548064E-01
         -1   -1    0    0    0  501 -0.00000000000E+00  0.00000000000E+00  0.11936057443E+04  0.11936057443E+04  0.50400000000E-02 0.  1.
          1   -1    0    0  501    0  0.00000000000E+00 -0.00000000000E+00 -0.12121354296E+04  0.12121354296E+04  0.50400000000E-02 0. -1.
    8880023    1    1    2    0    0  0.40991805732E+03  0.42899388770E+03  0.92467461744E+03  0.12809769412E+04  0.65864270000E+03 0.  0.
    8880022    1    1    2    0    0 -0.40991805732E+03 -0.42899388770E+03 -0.94320430279E+03  0.11247642327E+04  0.15294330000E+03 0.  0.
<mgrwt>
<rscale>  0 0.80831163E+03</rscale>
<asrwt>0</asrwt>
<pdfrwt beam="1">  1        1 0.18648237E+00 0.88649804E+03</pdfrwt>
<pdfrwt beam="2">  1       -1 0.18363165E+00 0.88649804E+03</pdfrwt>
<totfact> 0.20948650E+00</totfact>
</mgrwt>
</event>
<event>
 4    1  0.1043382E-007  0.1143188E+04  0.7818608E-02  0.9214430E-01
          1   -1    0    0  501    0  0.00000000000E+00  0.00000000000E+00  0.43240150811E+04  0.43240150811E+04  0.50400000000E-02 0. -1.
         -1   -1    0    0    0  501 -0.00000000000E+00 -0.00000000000E+00 -0.44479899798E+03  0.44479899801E+03  0.50400000000E-02 0.  1.
    8880023    1    1    2    0    0 -0.68906404420E+03  0.63107729766E+03  0.36067327433E+04  0.37835696241E+04  0.65864270000E+03 0.  0.
    8880022    1    1    2    0    0  0.68906404420E+03 -0.63107729766E+03  0.27248333983E+03  0.98524445501E+03  0.15294330000E+03 0.  0.
<mgrwt>
<rscale>  0 0.10905723E+04</rscale>
<asrwt>0</asrwt>
<pdfrwt beam="1">  1        1 0.66523308E+00 0.11431877E+04</pdfrwt>
<pdfrwt beam="2">  1       -1 0.68430616E-01 0.11431877E+04</pdfrwt>
<totfact> 0.10813628E-01</totfact>
</mgrwt>
</event>
<event>
 4    1  0.1043382E-007  0.6991488E+03  0.7818608E-02  0.1000075E+00
         -1   -1    0    0    0  501 -0.00000000000E+00  0.00000000000E+00  0.76759496642E+03  0.76759496643E+03  0.50400000000E-02 0.  1.
          1   -1    0    0  501    0  0.00000000000E+00 -0.00000000000E+00 -0.51687273185E+03  0.51687273187E+03  0.50400000000E-02 0. -1.
    8880023    1    1    2    0    0  0.79247154267E+02  0.22072315656E+03  0.53885475568E+03  0.88270803627E+03  0.65864270000E+03 0.  1.
    8880022    1    1    2    0    0 -0.79247154267E+02 -0.22072315656E+03 -0.28813252111E+03  0.40175966204E+03  0.15294330000E+03 0.  0.
<mgrwt>
<rscale>  0 0.55617328E+03</rscale>
<asrwt>0</asrwt>
<pdfrwt beam="1">  1        1 0.79518882E-01 0.69914879E+03</pdfrwt>
<pdfrwt beam="2">  1       -1 0.11809153E+00 0.69914879E+03</pdfrwt>
<totfact> 0.28058443E+01</totfact>
</mgrwt>
</event>
<event>
 4    1  0.1043382E-007  0.8092587E+03  0.7818608E-02  0.9691123E-01
         -1   -1    0    0    0  501 -0.00000000000E+00  0.00000000000E+00  0.40593667773E+03  0.40593667776E+03  0.50400000000E-02 0.  1.
          1   -1    0    0  501    0  0.00000000000E+00 -0.00000000000E+00 -0.15367787740E+04  0.15367787740E+04  0.50400000000E-02 0. -1.
    8880023    1    1    2    0    0  0.46349878776E+03  0.79109328817E+02 -0.12091107602E+03  0.81824147214E+03  0.65864270000E+03 0.  0.
    8880022    1    1    2    0    0 -0.46349878776E+03 -0.79109328817E+02 -0.10099310203E+04  0.11244739797E+04  0.15294330000E+03 0.  0.
<mgrwt>
<rscale>  0 0.71547783E+03</rscale>
<asrwt>0</asrwt>
<pdfrwt beam="1">  1        1 0.23642750E+00 0.80925868E+03</pdfrwt>
<pdfrwt beam="2">  1       -1 0.62451797E-01 0.80925868E+03</pdfrwt>
<totfact> 0.16494113E+01</totfact>
</mgrwt>
</event>
<event>
 4    1  0.1043382E-007  0.6799172E+03  0.7818608E-02  0.1009371E+00
         -1   -1    0    0    0  501 -0.00000000000E+00  0.00000000000E+00  0.78364927212E+03  0.78364927214E+03  0.50400000000E-02 0.  1.
          1   -1    0    0  501    0  0.00000000000E+00 -0.00000000000E+00 -0.95018979691E+03  0.95018979693E+03  0.50400000000E-02 0. -1.
    8880023    1    1    2    0    0  0.14686290008E+03 -0.83117416784E+02  0.61683646487E+03  0.91802758512E+03  0.65864270000E+03 0.  1.
    8880022    1    1    2    0    0 -0.14686290008E+03  0.83117416784E+02 -0.78337698966E+03  0.81581148394E+03  0.15294330000E+03 0.  0.
<mgrwt>
<rscale>  0 0.51725581E+03</rscale>
<asrwt>0</asrwt>
<pdfrwt beam="1">  1        1 0.14618305E+00 0.67991722E+03</pdfrwt>
<pdfrwt beam="2">  1       -1 0.12056143E+00 0.67991722E+03</pdfrwt>
<totfact> 0.10569634E+01</totfact>
</mgrwt>
</event>
<event>
 4    1  0.1043382E-007  0.7560093E+03  0.7818608E-02  0.9815551E-01
          1   -1    0    0  501    0  0.00000000000E+00  0.00000000000E+00  0.30036423285E+04  0.30036423285E+04  0.50400000000E-02 0. -1.
         -1   -1    0    0    0  501 -0.00000000000E+00 -0.00000000000E+00 -0.11152065492E+03  0.11152065504E+03  0.50400000000E-02 0.  1.
    8880023    1    1    2    0    0  0.41608972114E+02  0.36879336128E+03  0.18687998974E+04  0.20159273580E+04  0.65864270000E+03 0.  0.
    8880022    1    1    2    0    0 -0.41608972114E+02 -0.36879336128E+03  0.10233217762E+04  0.10992356256E+04  0.15294330000E+03 0. -1.
<mgrwt>
<rscale>  0 0.64534643E+03</rscale>
<asrwt>0</asrwt>
<pdfrwt beam="1">  1        1 0.46209884E+00 0.75600930E+03</pdfrwt>
<pdfrwt beam="2">  1       -1 0.17157023E-01 0.75600930E+03</pdfrwt>
<totfact> 0.16590050E+01</totfact>
</mgrwt>
</event>
<event>
 4    1  0.1043382E-007  0.7672792E+03  0.7818608E-02  0.9786614E-01
          1   -1    0    0  501    0  0.00000000000E+00  0.00000000000E+00  0.10287226492E+04  0.10287226492E+04  0.50400000000E-02 0. -1.
         -1   -1    0    0    0  501 -0.00000000000E+00 -0.00000000000E+00 -0.36733851892E+03  0.36733851896E+03  0.50400000000E-02 0.  1.
    8880023    1    1    2    0    0 -0.70257257407E+02  0.38726104606E+03  0.25113955718E+03  0.80733418326E+03  0.65864270000E+03 0.  0.
    8880022    1    1    2    0    0  0.70257257407E+02 -0.38726104606E+03  0.41024457313E+03  0.58872698495E+03  0.15294330000E+03 0.  1.
<mgrwt>
<rscale>  0 0.66085875E+03</rscale>
<asrwt>0</asrwt>
<pdfrwt beam="1">  1        1 0.15826502E+00 0.76727922E+03</pdfrwt>
<pdfrwt beam="2">  1       -1 0.56513618E-01 0.76727922E+03</pdfrwt>
<totfact> 0.46588451E+01</totfact>
</mgrwt>
</event>
<event>
 4    1  0.1043382E-007  0.8194422E+03  0.7818608E-02  0.9670235E-01
         -1   -1    0    0    0  501 -0.00000000000E+00  0.00000000000E+00  0.11748102119E+04  0.11748102119E+04  0.50400000000E-02 0.  1.
          1   -1    0    0  501    0  0.00000000000E+00 -0.00000000000E+00 -0.65851412383E+03  0.65851412385E+03  0.50400000000E-02 0. -1.
    8880023    1    1    2    0    0  0.45712570500E+03  0.16944446469E+03  0.88281652582E+03  0.12045125825E+04  0.65864270000E+03 0.  1.
    8880022    1    1    2    0    0 -0.45712570500E+03 -0.16944446469E+03 -0.36652043775E+03  0.62881175330E+03  0.15294330000E+03 0.  0.
<mgrwt>
<rscale>  0 0.72816994E+03</rscale>
<asrwt>0</asrwt>
<pdfrwt beam="1">  1        1 0.10130987E+00 0.81944221E+03</pdfrwt>
<pdfrwt beam="2">  1       -1 0.18074003E+00 0.81944221E+03</pdfrwt>
<totfact> 0.62908509E+00</totfact>
</mgrwt>
</event>
<event>
 4    1  0.1043382E-007  0.8404276E+03  0.7818608E-02  0.9629374E-01
          1   -1    0    0  501    0  0.00000000000E+00  0.00000000000E+00  0.49428407392E+04  0.49428407392E+04  0.50400000000E-02 0. -1.
         -1   -1    0    0    0  501 -0.00000000000E+00 -0.00000000000E+00 -0.20912990846E+03  0.20912990852E+03  0.50400000000E-02 0.  1.
    8880023    1    1    2    0    0 -0.23732540872E+03  0.46495705063E+03  0.73517196972E+03  0.11166003940E+04  0.65864270000E+03 0.  0.
    8880022    1    1    2    0    0  0.23732540872E+03 -0.46495705063E+03  0.39985388610E+04  0.40353702537E+04  0.15294330000E+03 0. -1.
<mgrwt>
<rscale>  0 0.75382125E+03</rscale>
<asrwt>0</asrwt>
<pdfrwt beam="1">  1        1 0.76043700E+00 0.84042764E+03</pdfrwt>
<pdfrwt beam="2">  1       -1 0.32173834E-01 0.84042764E+03</pdfrwt>
<totfact> 0.10448797E-01</totfact>
</mgrwt>
</event>
<event>
 4    1  0.1043382E-007  0.7645138E+03  0.7818608E-02  0.9793559E-01
         -1   -1    0    0    0  501 -0.00000000000E+00  0.00000000000E+00  0.79258530914E+03  0.79258530915E+03  0.50400000000E-02 0.  1.
          1   -1    0    0  501    0  0.00000000000E+00 -0.00000000000E+00 -0.97769652167E+03  0.97769652168E+03  0.50400000000E-02 0. -1.
    8880023    1    1    2    0    0  0.37944056839E+03  0.81829200658E+02  0.53841971473E+03  0.93508136464E+03  0.65864270000E+03 0.  0.
    8880022    1    1    2    0    0 -0.37944056839E+03 -0.81829200658E+02 -0.72353092726E+03  0.83520046619E+03  0.15294330000E+03 0.  0.
<mgrwt>
<rscale>  0 0.65709362E+03</rscale>
<asrwt>0</asrwt>
<pdfrwt beam="1">  1        1 0.15041485E+00 0.76451381E+03</pdfrwt>
<pdfrwt beam="2">  1       -1 0.12193620E+00 0.76451381E+03</pdfrwt>
<totfact> 0.96629173E+00</totfact>
</mgrwt>
</event>
<event>
 4    1  0.1043382E-007  0.9618313E+03  0.7818608E-02  0.9433292E-01
         -1   -1    0    0    0  501 -0.00000000000E+00  0.00000000000E+00  0.19307776173E+04  0.19307776173E+04  0.50400000000E-02 0.  1.
          1   -1    0    0  501    0  0.00000000000E+00 -0.00000000000E+00 -0.56323167620E+03  0.56323167623E+03  0.50400000000E-02 0. -1.
    8880023    1    1    2    0    0  0.13236413035E+03 -0.68832327127E+03  0.14827520472E+04  0.17673915889E+04  0.65864270000E+03 0.  1.
    8880022    1    1    2    0    0 -0.13236413035E+03  0.68832327127E+03 -0.11520610611E+03  0.72661770462E+03  0.15294330000E+03 0. -1.
<mgrwt>
<rscale>  0 0.89385800E+03</rscale>
<asrwt>0</asrwt>
<pdfrwt beam="1">  1        1 0.86651027E-01 0.96183127E+03</pdfrwt>
<pdfrwt beam="2">  1       -1 0.29704271E+00 0.96183127E+03</pdfrwt>
<totfact> 0.13192248E+00</totfact>
</mgrwt>
</event>
<event>
 4    1  0.1043382E-007  0.8132678E+03  0.7818608E-02  0.9682810E-01
          1   -1    0    0  501    0  0.00000000000E+00  0.00000000000E+00  0.89747427789E+03  0.89747427790E+03  0.50400000000E-02 0. -1.
         -1   -1    0    0    0  501 -0.00000000000E+00 -0.00000000000E+00 -0.11761226665E+04  0.11761226665E+04  0.50400000000E-02 0.  1.
    8880023    1    1    2    0    0 -0.46948403908E+03  0.84728836800E+02 -0.94060060229E+03  0.12434363426E+04  0.65864270000E+03 0.  0.
    8880022    1    1    2    0    0  0.46948403908E+03 -0.84728836800E+02  0.66195221365E+03  0.83016060187E+03  0.15294330000E+03 0.  0.
<mgrwt>
<rscale>  0 0.72049559E+03</rscale>
<asrwt>0</asrwt>
<pdfrwt beam="1">  1        1 0.13807297E+00 0.81326776E+03</pdfrwt>
<pdfrwt beam="2">  1       -1 0.18094195E+00 0.81326776E+03</pdfrwt>
<totfact> 0.38513562E+00</totfact>
</mgrwt>
</event>
<event>
 4    1  0.1043382E-007  0.8775834E+03  0.7818608E-02  0.9563020E-01
         -1   -1    0    0    0  501 -0.00000000000E+00  0.00000000000E+00  0.45611047087E+03  0.45611047090E+03  0.50400000000E-02 0.  1.
          1   -1    0    0  501    0  0.00000000000E+00 -0.00000000000E+00 -0.17373565447E+04  0.17373565447E+04  0.50400000000E-02 0. -1.
    8880023    1    1    2    0    0  0.53198900640E+03 -0.23093299650E+03 -0.13281070952E+04  0.15918608653E+04  0.65864270000E+03 0. -1.
    8880022    1    1    2    0    0 -0.53198900640E+03  0.23093299650E+03  0.46861021359E+02  0.60160615035E+03  0.15294330000E+03 0.  0.
<mgrwt>
<rscale>  0 0.79792849E+03</rscale>
<asrwt>0</asrwt>
<pdfrwt beam="1">  1        1 0.26728562E+00 0.87758336E+03</pdfrwt>
<pdfrwt beam="2">  1       -1 0.70170843E-01 0.87758336E+03</pdfrwt>
<totfact> 0.94420646E+00</totfact>
</mgrwt>
</event>
<event>
 4    1  0.1043382E-007  0.6732748E+03  0.7818608E-02  0.1013416E+00
          1   -1    0    0  501    0  0.00000000000E+00  0.00000000000E+00  0.20022372608E+03  0.20022372614E+03  0.50400000000E-02 0. -1.
         -1   -1    0    0    0  501 -0.00000000000E+00 -0.00000000000E+00 -0.22565353990E+04  0.22565353990E+04  0.50400000000E-02 0.  1.
    8880023    1    1    2    0    0  0.11931697385E+03  0.72471837537E+02 -0.21323868916E+04  0.22361513297E+04  0.65864270000E+03 0.  1.
    8880022    1    1    2    0    0 -0.11931697385E+03 -0.72471837537E+02  0.76075218724E+02  0.22060779543E+03  0.15294330000E+03 0.  0.
<mgrwt>
<rscale>  0 0.50139103E+03</rscale>
<asrwt>0</asrwt>
<pdfrwt beam="1">  1        1 0.30803652E-01 0.67327477E+03</pdfrwt>
<pdfrwt beam="2">  1       -1 0.34715927E+00 0.67327477E+03</pdfrwt>
<totfact> 0.25760019E+00</totfact>
</mgrwt>
</event>
<event>
 4    1  0.1043382E-007  0.8326017E+03  0.7818608E-02  0.9644291E-01
         -1   -1    0    0    0  501 -0.00000000000E+00  0.00000000000E+00  0.67297091029E+03  0.67297091031E+03  0.50400000000E-02 0.  1.
          1   -1    0    0  501    0  0.00000000000E+00 -0.00000000000E+00 -0.71161784044E+03  0.71161784046E+03  0.50400000000E-02 0. -1.
    8880023    1    1    2    0    0 -0.50921240966E+03 -0.10868884023E+02 -0.13693157762E+03  0.84378662824E+03  0.65864270000E+03 0.  1.
    8880022    1    1    2    0    0  0.50921240966E+03  0.10868884023E+02  0.98284647473E+02  0.54080212253E+03  0.15294330000E+03 0. -1.
<mgrwt>
<rscale>  0 0.74432783E+03</rscale>
<asrwt>0</asrwt>
<pdfrwt beam="1">  1        1 0.10947967E+00 0.83260172E+03</pdfrwt>
<pdfrwt beam="2">  1       -1 0.10353399E+00 0.83260172E+03</pdfrwt>
<totfact> 0.23777900E+01</totfact>
</mgrwt>
</event>
<event>
 4    1  0.1043382E-007  0.7487656E+03  0.7818608E-02  0.9835112E-01
          1   -1    0    0  501    0  0.00000000000E+00  0.00000000000E+00  0.65202012759E+03  0.65202012761E+03  0.50400000000E-02 0. -1.
         -1   -1    0    0    0  501 -0.00000000000E+00 -0.00000000000E+00 -0.88992416275E+03  0.88992416277E+03  0.50400000000E-02 0.  1.
    8880023    1    1    2    0    0 -0.58700572114E+02 -0.35127486068E+03 -0.63886055799E+03  0.98427272833E+03  0.65864270000E+03 0.  1.
    8880022    1    1    2    0    0  0.58700572114E+02  0.35127486068E+03  0.40095652283E+03  0.55767156205E+03  0.15294330000E+03 0.  0.
<mgrwt>
<rscale>  0 0.63511817E+03</rscale>
<asrwt>0</asrwt>
<pdfrwt beam="1">  1        1 0.10031079E+00 0.74876565E+03</pdfrwt>
<pdfrwt beam="2">  1       -1 0.13691141E+00 0.74876565E+03</pdfrwt>
<totfact> 0.13855757E+01</totfact>
</mgrwt>
</event>
<event>
 4    1  0.2149139E-007  0.7625777E+03  0.7818608E-02  0.9798479E-01
          1   -1    0    0  501    0  0.00000000000E+00  0.00000000000E+00  0.23772237005E+04  0.23772237005E+04  0.50400000000E-02 0. -1.
         -1   -1    0    0    0  501 -0.00000000000E+00 -0.00000000000E+00 -0.14587476580E+04  0.14587476580E+04  0.50400000000E-02 0.  1.
    8880023    1    1    2    0    0 -0.33246513426E+03 -0.19282497863E+03 -0.13389929015E+04  0.15409174976E+04  0.65864270000E+03 0.  1.
    8880022    1    1    2    0    0  0.33246513426E+03  0.19282497863E+03  0.22574689441E+04  0.22950538609E+04  0.15294330000E+03 0.  0.
<mgrwt>
<rscale>  0 0.65444219E+03</rscale>
<asrwt>0</asrwt>
<pdfrwt beam="1">  1        1 0.36572672E+00 0.76257770E+03</pdfrwt>
<pdfrwt beam="2">  1       -1 0.22442272E+00 0.76257770E+03</pdfrwt>
<totfact> 0.18212071E-01</totfact>
</mgrwt>
</event>
<event>
 4    1  0.1043382E-007  0.1142758E+04  0.7818608E-02  0.9214880E-01
         -1   -1    0    0    0  501 -0.00000000000E+00  0.00000000000E+00  0.19830246284E+04  0.19830246284E+04  0.50400000000E-02 0.  1.
          1   -1    0    0  501    0  0.00000000000E+00 -0.00000000000E+00 -0.22364178301E+04  0.22364178301E+04  0.50400000000E-02 0. -1.
    8880023    1    1    2    0    0  0.71198865163E+03  0.60428241341E+03 -0.19595557501E+04  0.22684254494E+04  0.65864270000E+03 0. -1.
    8880022    1    1    2    0    0 -0.71198865163E+03 -0.60428241341E+03  0.17061625485E+04  0.19510170091E+04  0.15294330000E+03 0.  0.
<mgrwt>
<rscale>  0 0.10901153E+04</rscale>
<asrwt>0</asrwt>
<pdfrwt beam="1">  1        1 0.34406428E+00 0.11427578E+04</pdfrwt>
<pdfrwt beam="2">  1       -1 0.30508071E+00 0.11427578E+04</pdfrwt>
<totfact> 0.62857795E-02</totfact>
</mgrwt>
</event>
<event>
 4    1  0.1043382E-007  0.7130496E+03  0.7818608E-02  0.9946846E-01
          1   -1    0    0  501    0  0.00000000000E+00  0.00000000000E+00  0.89032372366E+03  0.89032372367E+03  0.50400000000E-02 0. -1.
         -1   -1    0    0    0  501 -0.00000000000E+00 -0.00000000000E+00 -0.69206843750E+03  0.69206843752E+03  0.50400000000E-02 0.  1.
    8880023    1    1    2    0    0  0.27155235684E+03 -0.29812279499E+02 -0.46340212499E+03  0.85040060573E+03  0.65864270000E+03 0.  1.
    8880022    1    1    2    0    0 -0.27155235684E+03  0.29812279499E+02  0.66165741115E+03  0.73199155546E+03  0.15294330000E+03 0.  0.
<mgrwt>
<rscale>  0 0.58043652E+03</rscale>
<asrwt>0</asrwt>
<pdfrwt beam="1">  1        1 0.13697288E+00 0.71304955E+03</pdfrwt>
<pdfrwt beam="2">  1       -1 0.10647207E+00 0.71304955E+03</pdfrwt>
<totfact> 0.15796328E+01</totfact>
</mgrwt>
</event>
<event>
 4    1  0.1043382E-007  0.7068601E+03  0.7818608E-02  0.9969851E-01
          1   -1    0    0  501    0  0.00000000000E+00  0.00000000000E+00  0.64311269429E+03  0.64311269431E+03  0.50400000000E-02 0. -1.
         -1   -1    0    0    0  501 -0.00000000000E+00 -0.00000000000E+00 -0.94358385802E+03  0.94358385803E+03  0.50400000000E-02 0.  1.
    8880023    1    1    2    0    0  0.12241648645E+01 -0.25659198740E+03 -0.76044717284E+03  0.10382345860E+04  0.65864270000E+03 0.  1.
    8880022    1    1    2    0    0 -0.12241648645E+01  0.25659198740E+03  0.45997600911E+03  0.54846196637E+03  0.15294330000E+03 0.  0.
<mgrwt>
<rscale>  0 0.56992214E+03</rscale>
<asrwt>0</asrwt>
<pdfrwt beam="1">  1        1 0.98940414E-01 0.70686007E+03</pdfrwt>
<pdfrwt beam="2">  1       -1 0.14516675E+00 0.70686007E+03</pdfrwt>
<totfact> 0.12199036E+01</totfact>
</mgrwt>
</event>
<event>
 4    1  0.1043382E-007  0.6601212E+03  0.7818608E-02  0.1024033E+00
         -1   -1    0    0    0  501 -0.00000000000E+00  0.00000000000E+00  0.67127867979E+03  0.67127867981E+03  0.50400000000E-02 0.  1.
          1   -1    0    0  501    0  0.00000000000E+00 -0.00000000000E+00 -0.80734796133E+03  0.80734796135E+03  0.50400000000E-02 0. -1.
    8880023    1    1    2    0    0  0.74943357489E+01  0.43516282095E+02  0.49671419157E+03  0.82612651952E+03  0.65864270000E+03 0.  1.
    8880022    1    1    2    0    0 -0.74943357489E+01 -0.43516282095E+02 -0.63278347312E+03  0.65250012164E+03  0.15294330000E+03 0.  0.
<mgrwt>
<rscale>  0 0.46259058E+03</rscale>
<asrwt>0</asrwt>
<pdfrwt beam="1">  1        1 0.12420738E+00 0.66012123E+03</pdfrwt>
<pdfrwt beam="2">  1       -1 0.10327364E+00 0.66012123E+03</pdfrwt>
<totfact> 0.20031623E+01</totfact>
</mgrwt>
</event>
<event>
 4    1  0.1043382E-007  0.7533890E+03  0.7818608E-02  0.9822533E-01
          1   -1    0    0  501    0  0.00000000000E+00  0.00000000000E+00  0.33953689957E+03  0.33953689961E+03  0.50400000000E-02 0. -1.
         -1   -1    0    0    0  501 -0.00000000000E+00 -0.00000000000E+00 -0.11267941761E+04  0.11267941761E+04  0.50400000000E-02 0.  1.
    8880023    1    1    2    0    0  0.22056835576E+02  0.36510033306E+03 -0.75812551977E+03  0.10688074042E+04  0.65864270000E+03 0.  1.
    8880022    1    1    2    0    0 -0.22056835576E+02 -0.36510033306E+03 -0.29131756786E+02  0.39752367158E+03  0.15294330000E+03 0.  0.
<mgrwt>
<rscale>  0 0.64167168E+03</rscale>
<asrwt>0</asrwt>
<pdfrwt beam="1">  1        1 0.52236447E-01 0.75338899E+03</pdfrwt>
<pdfrwt beam="2">  1       -1 0.17335295E+00 0.75338899E+03</pdfrwt>
<totfact> 0.17788947E+01</totfact>
</mgrwt>
</event>
<event>
 4    1  0.1043382E-007  0.7146103E+03  0.7818608E-02  0.9941264E-01
          1   -1    0    0  501    0  0.00000000000E+00  0.00000000000E+00  0.46519555208E+04  0.46519555208E+04  0.50400000000E-02 0. -1.
         -1   -1    0    0    0  501 -0.00000000000E+00 -0.00000000000E+00 -0.92711799380E+02  0.92711799517E+02  0.50400000000E-02 0.  1.
    8880023    1    1    2    0    0 -0.13384259562E+03 -0.24278339766E+03  0.14217572337E+04  0.15912452534E+04  0.65864270000E+03 0.  1.
    8880022    1    1    2    0    0  0.13384259562E+03  0.24278339766E+03  0.31374864877E+04  0.31534220669E+04  0.15294330000E+03 0.  0.
<mgrwt>
<rscale>  0 0.58302488E+03</rscale>
<asrwt>0</asrwt>
<pdfrwt beam="1">  1        1 0.71568530E+00 0.71461026E+03</pdfrwt>
<pdfrwt beam="2">  1       -1 0.14263357E-01 0.71461026E+03</pdfrwt>
<totfact> 0.90788275E-01</totfact>
</mgrwt>
</event>
<event>
 4    1  0.1043382E-007  0.9304738E+03  0.7818608E-02  0.9478783E-01
          1   -1    0    0  501    0  0.00000000000E+00  0.00000000000E+00  0.54974405375E+03  0.54974405378E+03  0.50400000000E-02 0. -1.
         -1   -1    0    0    0  501 -0.00000000000E+00 -0.00000000000E+00 -0.14302941375E+04  0.14302941375E+04  0.50400000000E-02 0.  1.
    8880023    1    1    2    0    0  0.94851822458E+02  0.65036487194E+03 -0.91414897257E+03  0.13043963681E+04  0.65864270000E+03 0.  0.
    8880022    1    1    2    0    0 -0.94851822458E+02 -0.65036487194E+03  0.33598888809E+02  0.67564182317E+03  0.15294330000E+03 0.  0.
<mgrwt>
<rscale>  0 0.85866317E+03</rscale>
<asrwt>0</asrwt>
<pdfrwt beam="1">  1        1 0.84576008E-01 0.93047383E+03</pdfrwt>
<pdfrwt beam="2">  1       -1 0.22004525E+00 0.93047383E+03</pdfrwt>
<totfact> 0.43272875E+00</totfact>
</mgrwt>
</event>
<event>
 4    1  0.1043382E-007  0.7963073E+03  0.7818608E-02  0.9718838E-01
         -1   -1    0    0    0  501 -0.00000000000E+00  0.00000000000E+00  0.13672476717E+04  0.13672476718E+04  0.50400000000E-02 0.  1.
          1   -1    0    0  501    0  0.00000000000E+00 -0.00000000000E+00 -0.41249755165E+03  0.41249755168E+03  0.50400000000E-02 0. -1.
    8880023    1    1    2    0    0 -0.35030590004E+03 -0.27853342701E+03  0.10288565985E+04  0.13010192927E+04  0.65864270000E+03 0.  1.
    8880022    1    1    2    0    0  0.35030590004E+03  0.27853342701E+03 -0.74106478404E+02  0.47872593070E+03  0.15294330000E+03 0.  0.
<mgrwt>
<rscale>  0 0.69906177E+03</rscale>
<asrwt>0</asrwt>
<pdfrwt beam="1">  1        1 0.63461162E-01 0.79630729E+03</pdfrwt>
<pdfrwt beam="2">  1       -1 0.21034579E+00 0.79630729E+03</pdfrwt>
<totfact> 0.75668887E+00</totfact>
</mgrwt>
</event>
<event>
 4    1  0.1043382E-007  0.6750706E+03  0.7818608E-02  0.1012262E+00
          1   -1    0    0  501    0  0.00000000000E+00  0.00000000000E+00  0.94471459156E+02  0.94471459290E+02  0.50400000000E-02 0. -1.
         -1   -1    0    0    0  501 -0.00000000000E+00 -0.00000000000E+00 -0.31372492322E+04  0.31372492322E+04  0.50400000000E-02 0.  1.
    8880023    1    1    2    0    0 -0.46321738489E+02  0.14058579349E+03 -0.28948524259E+04  0.29725226395E+04  0.65864270000E+03 0.  1.
    8880022    1    1    2    0    0  0.46321738489E+02 -0.14058579349E+03 -0.14792534721E+03  0.25919805198E+03  0.15294330000E+03 0.  0.
<mgrwt>
<rscale>  0 0.50585520E+03</rscale>
<asrwt>0</asrwt>
<pdfrwt beam="1">  1        1 0.14534073E-01 0.67507057E+03</pdfrwt>
<pdfrwt beam="2">  1       -1 0.48265365E+00 0.67507057E+03</pdfrwt>
<totfact> 0.83835991E-01</totfact>
</mgrwt>
</event>
<event>
 4    1  0.1043382E-007  0.8001003E+03  0.7818608E-02  0.9710579E-01
         -1   -1    0    0    0  501 -0.00000000000E+00  0.00000000000E+00  0.57130038002E+03  0.57130038004E+03  0.50400000000E-02 0.  1.
          1   -1    0    0  501    0  0.00000000000E+00 -0.00000000000E+00 -0.23244450318E+04  0.23244450318E+04  0.50400000000E-02 0. -1.
    8880023    1    1    2    0    0  0.64147021266E+02 -0.44970592297E+03  0.24827152344E+03  0.83773457199E+03  0.65864270000E+03 0.  1.
    8880022    1    1    2    0    0 -0.64147021266E+02  0.44970592297E+03 -0.20014161753E+04  0.20580108399E+04  0.15294330000E+03 0.  0.
<mgrwt>
<rscale>  0 0.70390386E+03</rscale>
<asrwt>0</asrwt>
<pdfrwt beam="1">  1        1 0.35760692E+00 0.80010028E+03</pdfrwt>
<pdfrwt beam="2">  1       -1 0.87892367E-01 0.80010028E+03</pdfrwt>
<totfact> 0.23918673E+00</totfact>
</mgrwt>
</event>
<event>
 4    1  0.1043382E-007  0.6653147E+03  0.7818608E-02  0.1019271E+00
         -1   -1    0    0    0  501 -0.00000000000E+00  0.00000000000E+00  0.84804916233E+03  0.84804916235E+03  0.50400000000E-02 0.  1.
          1   -1    0    0  501    0  0.00000000000E+00 -0.00000000000E+00 -0.64815582787E+03  0.64815582789E+03  0.50400000000E-02 0. -1.
    8880023    1    1    2    0    0  0.67701873627E+00  0.93984008719E+02  0.69947245779E+03  0.96535246295E+03  0.65864270000E+03 0.  1.
    8880022    1    1    2    0    0 -0.67701873627E+00 -0.93984008719E+02 -0.49957912333E+03  0.53085252729E+03  0.15294330000E+03 0.  0.
<mgrwt>
<rscale>  0 0.47950665E+03</rscale>
<asrwt>0</asrwt>
<pdfrwt beam="1">  1        1 0.99716281E-01 0.66531471E+03</pdfrwt>
<pdfrwt beam="2">  1       -1 0.13046910E+00 0.66531471E+03</pdfrwt>
<totfact> 0.15966470E+01</totfact>
</mgrwt>
</event>
<event>
 4    1  0.1043382E-007  0.8278558E+03  0.7818608E-02  0.9653519E-01
          1   -1    0    0  501    0  0.00000000000E+00  0.00000000000E+00  0.40314682368E+04  0.40314682368E+04  0.50400000000E-02 0. -1.
         -1   -1    0    0    0  501 -0.00000000000E+00 -0.00000000000E+00 -0.20721088868E+03  0.20721088874E+03  0.50400000000E-02 0.  1.
    8880023    1    1    2    0    0  0.28418486118E+03  0.41324812416E+03  0.74066029373E+03  0.11108208336E+04  0.65864270000E+03 0.  1.
    8880022    1    1    2    0    0 -0.28418486118E+03 -0.41324812416E+03  0.30835970544E+04  0.31278582919E+04  0.15294330000E+03 0.  0.
<mgrwt>
<rscale>  0 0.73853000E+03</rscale>
<asrwt>0</asrwt>
<pdfrwt beam="1">  1        1 0.62022588E+00 0.82785582E+03</pdfrwt>
<pdfrwt beam="2">  1       -1 0.31878598E-01 0.82785582E+03</pdfrwt>
<totfact> 0.89767748E-01</totfact>
</mgrwt>
</event>
<event>
 4    1  0.1043382E-007  0.9613538E+03  0.7818608E-02  0.9433963E-01
          1   -1    0    0  501    0  0.00000000000E+00  0.00000000000E+00  0.17984703959E+04  0.17984703959E+04  0.50400000000E-02 0. -1.
         -1   -1    0    0    0  501 -0.00000000000E+00 -0.00000000000E+00 -0.85489049811E+03  0.85489049813E+03  0.50400000000E-02 0.  1.
    8880023    1    1    2    0    0 -0.83959408613E+02  0.69522783414E+03 -0.46875301783E+03  0.10695468768E+04  0.65864270000E+03 0.  0.
    8880022    1    1    2    0    0  0.83959408613E+02 -0.69522783414E+03  0.14123329156E+04  0.15838140173E+04  0.15294330000E+03 0.  0.
<mgrwt>
<rscale>  0 0.89332576E+03</rscale>
<asrwt>0</asrwt>
<pdfrwt beam="1">  1        1 0.27668775E+00 0.96135380E+03</pdfrwt>
<pdfrwt beam="2">  1       -1 0.13152162E+00 0.96135380E+03</pdfrwt>
<totfact> 0.20393116E+00</totfact>
</mgrwt>
</event>
<event>
 4    1  0.1043382E-007  0.9178390E+03  0.7818608E-02  0.9497980E-01
          1   -1    0    0  501    0  0.00000000000E+00  0.00000000000E+00  0.11399657175E+04  0.11399657175E+04  0.50400000000E-02 0. -1.
         -1   -1    0    0    0  501 -0.00000000000E+00 -0.00000000000E+00 -0.96566817166E+03  0.96566817167E+03  0.50400000000E-02 0.  1.
    8880023    1    1    2    0    0 -0.23808981181E+03 -0.59323812438E+03 -0.59497285188E+03  0.10938103727E+04  0.65864270000E+03 0.  0.
    8880022    1    1    2    0    0  0.23808981181E+03  0.59323812438E+03  0.76927039774E+03  0.10118235165E+04  0.15294330000E+03 0.  0.
<mgrwt>
<rscale>  0 0.84432878E+03</rscale>
<asrwt>0</asrwt>
<pdfrwt beam="1">  1        1 0.17537934E+00 0.91783900E+03</pdfrwt>
<pdfrwt beam="2">  1       -1 0.14856433E+00 0.91783900E+03</pdfrwt>
<totfact> 0.42942755E+00</totfact>
</mgrwt>
</event>
<event>
 4    1  0.1043382E-007  0.8782056E+03  0.7818608E-02  0.9561965E-01
         -1   -1    0    0    0  501 -0.00000000000E+00  0.00000000000E+00  0.70527060368E+03  0.70527060370E+03  0.50400000000E-02 0.  1.
          1   -1    0    0  501    0  0.00000000000E+00 -0.00000000000E+00 -0.26814715182E+04  0.26814715182E+04  0.50400000000E-02 0. -1.
    8880023    1    1    2    0    0 -0.39516689344E+02  0.57954576623E+03  0.37874299137E+03  0.95639496217E+03  0.65864270000E+03 0.  1.
    8880022    1    1    2    0    0  0.39516689344E+02 -0.57954576623E+03 -0.23549439058E+04  0.24303471597E+04  0.15294330000E+03 0.  0.
<mgrwt>
<rscale>  0 0.79865544E+03</rscale>
<asrwt>0</asrwt>
<pdfrwt beam="1">  1        1 0.41253407E+00 0.87820560E+03</pdfrwt>
<pdfrwt beam="2">  1       -1 0.10850317E+00 0.87820560E+03</pdfrwt>
<totfact> 0.83236674E-01</totfact>
</mgrwt>
</event>
<event>
 4    1  0.1043382E-007  0.7324908E+03  0.7818608E-02  0.9882387E-01
          1   -1    0    0  501    0  0.00000000000E+00  0.00000000000E+00  0.19167301705E+04  0.19167301705E+04  0.50400000000E-02 0. -1.
         -1   -1    0    0    0  501 -0.00000000000E+00 -0.00000000000E+00 -0.25699981412E+03  0.25699981417E+03  0.50400000000E-02 0.  1.
    8880023    1    1    2    0    0  0.32027650910E+03  0.12470452215E+02  0.34092426848E+03  0.80794314006E+03  0.65864270000E+03 0.  1.
    8880022    1    1    2    0    0 -0.32027650910E+03 -0.12470452215E+02  0.13188060879E+04  0.13657868446E+04  0.15294330000E+03 0.  0.
<mgrwt>
<rscale>  0 0.61122546E+03</rscale>
<asrwt>0</asrwt>
<pdfrwt beam="1">  1        1 0.29488156E+00 0.73249079E+03</pdfrwt>
<pdfrwt beam="2">  1       -1 0.39538433E-01 0.73249079E+03</pdfrwt>
<totfact> 0.21995443E+01</totfact>
</mgrwt>
</event>
<event>
 4    1  0.1043382E-007  0.7881296E+03  0.7818608E-02  0.9737076E-01
         -1   -1    0    0    0  501 -0.00000000000E+00  0.00000000000E+00  0.29046333894E+04  0.29046333894E+04  0.50400000000E-02 0.  1.
          1   -1    0    0  501    0  0.00000000000E+00 -0.00000000000E+00 -0.16758706397E+03  0.16758706405E+03  0.50400000000E-02 0. -1.
    8880023    1    1    2    0    0  0.17260477616E+03  0.39692022398E+03  0.23264841784E+04  0.24563543945E+04  0.65864270000E+03 0.  1.
    8880022    1    1    2    0    0 -0.17260477616E+03 -0.39692022398E+03  0.41056214708E+03  0.61586605897E+03  0.15294330000E+03 0.  0.
<mgrwt>
<rscale>  0 0.68851587E+03</rscale>
<asrwt>0</asrwt>
<pdfrwt beam="1">  1        1 0.25782626E-01 0.78812961E+03</pdfrwt>
<pdfrwt beam="2">  1       -1 0.44686666E+00 0.78812961E+03</pdfrwt>
<totfact> 0.67603559E-01</totfact>
</mgrwt>
</event>
<event>
 4    1  0.1043382E-007  0.7886195E+03  0.7818608E-02  0.9735966E-01
         -1   -1    0    0    0  501 -0.00000000000E+00  0.00000000000E+00  0.22592979512E+03  0.22592979518E+03  0.50400000000E-02 0.  1.
          1   -1    0    0  501    0  0.00000000000E+00 -0.00000000000E+00 -0.21529090306E+04  0.21529090306E+04  0.50400000000E-02 0. -1.
    8880023    1    1    2    0    0 -0.21175241290E+03 -0.37851212359E+03 -0.65131034396E+03  0.10228029539E+04  0.65864270000E+03 0.  0.
    8880022    1    1    2    0    0  0.21175241290E+03  0.37851212359E+03 -0.12756688915E+04  0.13560358719E+04  0.15294330000E+03 0.  0.
<mgrwt>
<rscale>  0 0.68915195E+03</rscale>
<asrwt>0</asrwt>
<pdfrwt beam="1">  1        1 0.33121676E+00 0.78861950E+03</pdfrwt>
<pdfrwt beam="2">  1       -1 0.34758431E-01 0.78861950E+03</pdfrwt>
<totfact> 0.19121988E+01</totfact>
</mgrwt>
</event>
<event>
 4    1  0.1043382E-007  0.6867556E+03  0.7818608E-02  0.1005734E+00
         -1   -1    0    0    0  501 -0.00000000000E+00  0.00000000000E+00  0.10193497001E+03  0.10193497013E+03  0.50400000000E-02 0.  1.
          1   -1    0    0  501    0  0.00000000000E+00 -0.00000000000E+00 -0.30108546883E+04  0.30108546883E+04  0.50400000000E-02 0. -1.
    8880023    1    1    2    0    0 -0.18531788451E+03 -0.58993930001E+02 -0.11724002549E+04  0.13587330739E+04  0.65864270000E+03 0.  0.
    8880022    1    1    2    0    0  0.18531788451E+03  0.58993930001E+02 -0.17365194634E+04  0.17540565846E+04  0.15294330000E+03 0.  0.
<mgrwt>
<rscale>  0 0.53205750E+03</rscale>
<asrwt>0</asrwt>
<pdfrwt beam="1">  1        1 0.46320835E+00 0.68675557E+03</pdfrwt>
<pdfrwt beam="2">  1       -1 0.15682305E-01 0.68675557E+03</pdfrwt>
<totfact> 0.19202646E+01</totfact>
</mgrwt>
</event>
<event>
 4    1  0.1043382E-007  0.6590868E+03  0.7818608E-02  0.1025112E+00
         -1   -1    0    0    0  501 -0.00000000000E+00  0.00000000000E+00  0.34861357015E+03  0.34861357019E+03  0.50400000000E-02 0.  1.
          1   -1    0    0  501    0  0.00000000000E+00 -0.00000000000E+00 -0.18665517781E+04  0.18665517781E+04  0.50400000000E-02 0. -1.
    8880023    1    1    2    0    0 -0.16803567541E+02  0.17403993471E+02  0.29742747187E+02  0.65975760408E+03  0.65864270000E+03 0.  1.
    8880022    1    1    2    0    0  0.16803567541E+02 -0.17403993471E+02 -0.15476809551E+04  0.15554077442E+04  0.15294330000E+03 0.  0.
<mgrwt>
<rscale>  0 0.45886099E+03</rscale>
<asrwt>0</asrwt>
<pdfrwt beam="1">  1        1 0.28716181E+00 0.65908684E+03</pdfrwt>
<pdfrwt beam="2">  1       -1 0.53632858E-01 0.65908684E+03</pdfrwt>
<totfact> 0.13614700E+01</totfact>
</mgrwt>
</event>
<event>
 4    1  0.1043382E-007  0.9828118E+03  0.7818608E-02  0.9404399E-01
         -1   -1    0    0    0  501 -0.00000000000E+00  0.00000000000E+00  0.12591461316E+04  0.12591461316E+04  0.50400000000E-02 0.  1.
          1   -1    0    0  501    0  0.00000000000E+00 -0.00000000000E+00 -0.74341697377E+03  0.74341697379E+03  0.50400000000E-02 0. -1.
    8880023    1    1    2    0    0 -0.64800004671E+03 -0.33496974831E+03  0.73319042215E+03  0.12261676860E+04  0.65864270000E+03 0.  0.
    8880022    1    1    2    0    0  0.64800004671E+03  0.33496974831E+03 -0.21746126430E+03  0.77639541942E+03  0.15294330000E+03 0.  0.
<mgrwt>
<rscale>  0 0.91714566E+03</rscale>
<asrwt>0</asrwt>
<pdfrwt beam="1">  1        1 0.11437184E+00 0.98281178E+03</pdfrwt>
<pdfrwt beam="2">  1       -1 0.19371479E+00 0.98281178E+03</pdfrwt>
<totfact> 0.41560929E+00</totfact>
</mgrwt>
</event>
<event>
 4    1  0.1043382E-007  0.1081930E+04  0.7818608E-02  0.9281447E-01
          1   -1    0    0  501    0  0.00000000000E+00  0.00000000000E+00  0.21086125010E+04  0.21086125010E+04  0.50400000000E-02 0. -1.
         -1   -1    0    0    0  501 -0.00000000000E+00 -0.00000000000E+00 -0.68279250216E+03  0.68279250218E+03  0.50400000000E-02 0.  1.
    8880023    1    1    2    0    0  0.28982842822E+02  0.85785855998E+03 -0.43585924855E+02  0.10828071173E+04  0.65864270000E+03 0.  0.
    8880022    1    1    2    0    0 -0.28982842822E+02 -0.85785855998E+03  0.14694059237E+04  0.17085978859E+04  0.15294330000E+03 0.  0.
<mgrwt>
<rscale>  0 0.10250897E+04</rscale>
<asrwt>0</asrwt>
<pdfrwt beam="1">  1        1 0.32440192E+00 0.10819295E+04</pdfrwt>
<pdfrwt beam="2">  1       -1 0.10504500E+00 0.10819295E+04</pdfrwt>
<totfact> 0.21409285E+00</totfact>
</mgrwt>
</event>
<event>
 4    1  0.1043382E-007  0.8789526E+03  0.7818608E-02  0.9560701E-01
         -1   -1    0    0    0  501 -0.00000000000E+00  0.00000000000E+00  0.29454728573E+03  0.29454728577E+03  0.50400000000E-02 0.  1.
          1   -1    0    0  501    0  0.00000000000E+00 -0.00000000000E+00 -0.20785123537E+04  0.20785123537E+04  0.50400000000E-02 0. -1.
    8880023    1    1    2    0    0 -0.15455335610E+03 -0.56112454399E+03 -0.66367747390E+03  0.11013743639E+04  0.65864270000E+03 0.  1.
    8880022    1    1    2    0    0  0.15455335610E+03  0.56112454399E+03 -0.11202875940E+04  0.12716852756E+04  0.15294330000E+03 0.  0.
<mgrwt>
<rscale>  0 0.79952773E+03</rscale>
<asrwt>0</asrwt>
<pdfrwt beam="1">  1        1 0.31977112E+00 0.87895262E+03</pdfrwt>
<pdfrwt beam="2">  1       -1 0.45314968E-01 0.87895262E+03</pdfrwt>
<totfact> 0.13077314E+01</totfact>
</mgrwt>
</event>
<event>
 4    1  0.1043382E-007  0.9319175E+03  0.7818608E-02  0.9476623E-01
         -1   -1    0    0    0  501 -0.00000000000E+00  0.00000000000E+00  0.17045271597E+04  0.17045271597E+04  0.50400000000E-02 0.  1.
          1   -1    0    0  501    0  0.00000000000E+00 -0.00000000000E+00 -0.68941681267E+03  0.68941681269E+03  0.50400000000E-02 0. -1.
    8880023    1    1    2    0    0 -0.28384236234E+03  0.59505756753E+03  0.13487426256E+04  0.16393830765E+04  0.65864270000E+03 0.  1.
    8880022    1    1    2    0    0  0.28384236234E+03 -0.59505756753E+03 -0.33363227851E+03  0.75456089589E+03  0.15294330000E+03 0.  0.
<mgrwt>
<rscale>  0 0.86029501E+03</rscale>
<asrwt>0</asrwt>
<pdfrwt beam="1">  1        1 0.10606413E+00 0.93191749E+03</pdfrwt>
<pdfrwt beam="2">  1       -1 0.26223495E+00 0.93191749E+03</pdfrwt>
<totfact> 0.16483157E+00</totfact>
</mgrwt>
</event>
<event>
 4    1  0.1043382E-007  0.1162740E+04  0.7818608E-02  0.9194221E-01
         -1   -1    0    0    0  501 -0.00000000000E+00  0.00000000000E+00  0.11516240755E+04  0.11516240755E+04  0.50400000000E-02 0.  1.
          1   -1    0    0  501    0  0.00000000000E+00 -0.00000000000E+00 -0.15979204583E+04  0.15979204583E+04  0.50400000000E-02 0. -1.
    8880023    1    1    2    0    0 -0.69057640147E+03  0.66427342516E+03  0.61181038486E+03  0.13138786485E+04  0.65864270000E+03 0.  1.
    8880022    1    1    2    0    0  0.69057640147E+03 -0.66427342516E+03 -0.10581067676E+04  0.14356658854E+04  0.15294330000E+03 0.  0.
<mgrwt>
<rscale>  0 0.11113281E+04</rscale>
<asrwt>0</asrwt>
<pdfrwt beam="1">  1        1 0.24583392E+00 0.11627404E+04</pdfrwt>
<pdfrwt beam="2">  1       -1 0.17717293E+00 0.11627404E+04</pdfrwt>
<totfact> 0.12026452E+00</totfact>
</mgrwt>
</event>
<event>
 4    1  0.1043382E-007  0.1024192E+04  0.7818608E-02  0.9350569E-01
         -1   -1    0    0    0  501 -0.00000000000E+00  0.00000000000E+00  0.22626378024E+04  0.22626378024E+04  0.50400000000E-02 0.  1.
          1   -1    0    0  501    0  0.00000000000E+00 -0.00000000000E+00 -0.39535401681E+03  0.39535401684E+03  0.50400000000E-02 0. -1.
    8880023    1    1    2    0    0 -0.49597328783E+03  0.60759392390E+03  0.13921621576E+04  0.17283187085E+04  0.65864270000E+03 0.  0.
    8880022    1    1    2    0    0  0.49597328783E+03 -0.60759392390E+03  0.47512162799E+03  0.92967311083E+03  0.15294330000E+03 0.  0.
<mgrwt>
<rscale>  0 0.96257739E+03</rscale>
<asrwt>0</asrwt>
<pdfrwt beam="1">  1        1 0.60823695E-01 0.10241924E+04</pdfrwt>
<pdfrwt beam="2">  1       -1 0.34809812E+00 0.10241924E+04</pdfrwt>
<totfact> 0.99187837E-01</totfact>
</mgrwt>
</event>
<event>
 4    1  0.1043382E-007  0.6665233E+03  0.7818608E-02  0.1018288E+00
          1   -1    0    0  501    0  0.00000000000E+00  0.00000000000E+00  0.63642835925E+03  0.63642835927E+03  0.50400000000E-02 0. -1.
         -1   -1    0    0    0  501 -0.00000000000E+00 -0.00000000000E+00 -0.30934614242E+03  0.30934614246E+03  0.50400000000E-02 0.  1.
    8880023    1    1    2    0    0  0.18764112807E+01  0.10217447963E+03  0.36209584496E+03  0.75852933523E+03  0.65864270000E+03 0. -1.
    8880022    1    1    2    0    0 -0.18764112807E+01 -0.10217447963E+03 -0.35013628137E+02  0.18724516650E+03  0.15294330000E+03 0.  0.
<mgrwt>
<rscale>  0 0.48309436E+03</rscale>
<asrwt>0</asrwt>
<pdfrwt beam="1">  1        1 0.97912055E-01 0.66652333E+03</pdfrwt>
<pdfrwt beam="2">  1       -1 0.47591714E-01 0.66652333E+03</pdfrwt>
<totfact> 0.14148920E+02</totfact>
</mgrwt>
</event>
<event>
 4    1  0.1043382E-007  0.7537475E+03  0.7818608E-02  0.9821572E-01
         -1   -1    0    0    0  501 -0.00000000000E+00  0.00000000000E+00  0.17170586392E+03  0.17170586399E+03  0.50400000000E-02 0.  1.
          1   -1    0    0  501    0  0.00000000000E+00 -0.00000000000E+00 -0.22929637659E+04  0.22929637660E+04  0.50400000000E-02 0. -1.
    8880023    1    1    2    0    0 -0.30022747601E+03 -0.21021078708E+03 -0.86597154026E+03  0.11480601148E+04  0.65864270000E+03 0.  1.
    8880022    1    1    2    0    0  0.30022747601E+03  0.21021078708E+03 -0.12552863618E+04  0.13166095152E+04  0.15294330000E+03 0.  0.
<mgrwt>
<rscale>  0 0.64217612E+03</rscale>
<asrwt>0</asrwt>
<pdfrwt beam="1">  1        1 0.35276364E+00 0.75374752E+03</pdfrwt>
<pdfrwt beam="2">  1       -1 0.26416288E-01 0.75374752E+03</pdfrwt>
<totfact> 0.24985568E+01</totfact>
</mgrwt>
</event>
<event>
 4    1  0.1043382E-007  0.8963935E+03  0.7818608E-02  0.9531846E-01
          1   -1    0    0  501    0  0.00000000000E+00  0.00000000000E+00  0.17924274411E+04  0.17924274411E+04  0.50400000000E-02 0. -1.
         -1   -1    0    0    0  501 -0.00000000000E+00 -0.00000000000E+00 -0.32372253161E+03  0.32372253165E+03  0.50400000000E-02 0.  1.
    8880023    1    1    2    0    0  0.58665272164E+03  0.15984248244E+03  0.87667863313E+03  0.12538288029E+04  0.65864270000E+03 0.  0.
    8880022    1    1    2    0    0 -0.58665272164E+03 -0.15984248244E+03  0.59202627633E+03  0.86232116979E+03  0.15294330000E+03 0.  1.
<mgrwt>
<rscale>  0 0.81976102E+03</rscale>
<asrwt>0</asrwt>
<pdfrwt beam="1">  1        1 0.27575807E+00 0.89639346E+03</pdfrwt>
<pdfrwt beam="2">  1       -1 0.49803467E-01 0.89639346E+03</pdfrwt>
<totfact> 0.17005152E+01</totfact>
</mgrwt>
</event>
<event>
 4    1  0.1043382E-007  0.6711319E+03  0.7818608E-02  0.1014864E+00
          1   -1    0    0  501    0  0.00000000000E+00  0.00000000000E+00  0.80611447446E+03  0.80611447447E+03  0.50400000000E-02 0. -1.
         -1   -1    0    0    0  501 -0.00000000000E+00 -0.00000000000E+00 -0.38247363115E+03  0.38247363118E+03  0.50400000000E-02 0.  1.
    8880023    1    1    2    0    0  0.54224989439E+02  0.11690797459E+03 -0.51465582363E+02  0.67310232241E+03  0.65864270000E+03 0.  1.
    8880022    1    1    2    0    0 -0.54224989439E+02 -0.11690797459E+03  0.47510642567E+03  0.51548578325E+03  0.15294330000E+03 0.  0.
<mgrwt>
<rscale>  0 0.49586414E+03</rscale>
<asrwt>0</asrwt>
<pdfrwt beam="1">  1        1 0.12401761E+00 0.67113190E+03</pdfrwt>
<pdfrwt beam="2">  1       -1 0.58842098E-01 0.67113190E+03</pdfrwt>
<totfact> 0.65765071E+01</totfact>
</mgrwt>
</event>
<event>
 4    1  0.1043382E-007  0.7064550E+03  0.7818608E-02  0.9971408E-01
          1   -1    0    0  501    0  0.00000000000E+00  0.00000000000E+00  0.53240669441E+03  0.53240669443E+03  0.50400000000E-02 0. -1.
         -1   -1    0    0    0  501 -0.00000000000E+00 -0.00000000000E+00 -0.54013381008E+03  0.54013381011E+03  0.50400000000E-02 0.  1.
    8880023    1    1    2    0    0  0.20237521153E+03 -0.15592522106E+03  0.16886193888E+03  0.72635594681E+03  0.65864270000E+03 0. -1.
    8880022    1    1    2    0    0 -0.20237521153E+03  0.15592522106E+03 -0.17658905456E+03  0.34618455773E+03  0.15294330000E+03 0.  0.
<mgrwt>
<rscale>  0 0.56921896E+03</rscale>
<asrwt>0</asrwt>
<pdfrwt beam="1">  1        1 0.81908722E-01 0.70645496E+03</pdfrwt>
<pdfrwt beam="2">  1       -1 0.83097509E-01 0.70645496E+03</pdfrwt>
<totfact> 0.59809463E+01</totfact>
</mgrwt>
</event>
<event>
 4    1  0.1043382E-007  0.8563698E+03  0.7818608E-02  0.9600054E-01
         -1   -1    0    0    0  501 -0.00000000000E+00  0.00000000000E+00  0.87198224409E+03  0.87198224411E+03  0.50400000000E-02 0.  1.
          1   -1    0    0  501    0  0.00000000000E+00 -0.00000000000E+00 -0.89654279640E+03  0.89654279642E+03  0.50400000000E-02 0. -1.
    8880023    1    1    2    0    0  0.43641744856E+03  0.33030120749E+03  0.50295169803E+03  0.99314132625E+03  0.65864270000E+03 0.  1.
    8880022    1    1    2    0    0 -0.43641744856E+03 -0.33030120749E+03 -0.52751225035E+03  0.77538371428E+03  0.15294330000E+03 0. -1.
<mgrwt>
<rscale>  0 0.77292624E+03</rscale>
<asrwt>0</asrwt>
<pdfrwt beam="1">  1        1 0.13792966E+00 0.85636983E+03</pdfrwt>
<pdfrwt beam="2">  1       -1 0.13415111E+00 0.85636983E+03</pdfrwt>
<totfact> 0.87320343E+00</totfact>
</mgrwt>
</event>
<event>
 4    1  0.1043382E-007  0.7121864E+03  0.7818608E-02  0.9949970E-01
         -1   -1    0    0    0  501 -0.00000000000E+00  0.00000000000E+00  0.14212087853E+03  0.14212087862E+03  0.50400000000E-02 0.  1.
          1   -1    0    0  501    0  0.00000000000E+00 -0.00000000000E+00 -0.22098836470E+04  0.22098836470E+04  0.50400000000E-02 0. -1.
    8880023    1    1    2    0    0 -0.26381193109E+03  0.61664892529E+02 -0.92358728584E+03  0.11662859747E+04  0.65864270000E+03 0.  1.
    8880022    1    1    2    0    0  0.26381193109E+03 -0.61664892529E+02 -0.11441754826E+04  0.11857185509E+04  0.15294330000E+03 0.  0.
<mgrwt>
<rscale>  0 0.57899473E+03</rscale>
<asrwt>0</asrwt>
<pdfrwt beam="1">  1        1 0.33998207E+00 0.71218642E+03</pdfrwt>
<pdfrwt beam="2">  1       -1 0.21864752E-01 0.71218642E+03</pdfrwt>
<totfact> 0.39389134E+01</totfact>
</mgrwt>
</event>
<event>
 4    1  0.1043382E-007  0.7254136E+03  0.7818608E-02  0.9904677E-01
         -1   -1    0    0    0  501 -0.00000000000E+00  0.00000000000E+00  0.27489370598E+03  0.27489370603E+03  0.50400000000E-02 0.  1.
          1   -1    0    0  501    0  0.00000000000E+00 -0.00000000000E+00 -0.11005381062E+04  0.11005381062E+04  0.50400000000E-02 0. -1.
    8880023    1    1    2    0    0  0.25777501472E+03 -0.16114189499E+03 -0.39313184269E+03  0.82509243151E+03  0.65864270000E+03 0.  0.
    8880022    1    1    2    0    0 -0.25777501472E+03  0.16114189499E+03 -0.43251255749E+03  0.55033938069E+03  0.15294330000E+03 0. -1.
<mgrwt>
<rscale>  0 0.60035177E+03</rscale>
<asrwt>0</asrwt>
<pdfrwt beam="1">  1        1 0.16931355E+00 0.72541359E+03</pdfrwt>
<pdfrwt beam="2">  1       -1 0.42291340E-01 0.72541359E+03</pdfrwt>
<totfact> 0.71341297E+01</totfact>
</mgrwt>
</event>
<event>
 4    1  0.1043382E-007  0.6745308E+03  0.7818608E-02  0.1012604E+00
         -1   -1    0    0    0  501 -0.00000000000E+00  0.00000000000E+00  0.26557145385E+03  0.26557145390E+03  0.50400000000E-02 0.  1.
          1   -1    0    0  501    0  0.00000000000E+00 -0.00000000000E+00 -0.10692394231E+04  0.10692394231E+04  0.50400000000E-02 0. -1.
    8880023    1    1    2    0    0  0.50680712268E+02 -0.13642976620E+03 -0.21271350143E+03  0.70727565747E+03  0.65864270000E+03 0.  1.
    8880022    1    1    2    0    0 -0.50680712268E+02  0.13642976620E+03 -0.59095446784E+03  0.62753521955E+03  0.15294330000E+03 0.  0.
<mgrwt>
<rscale>  0 0.50452845E+03</rscale>
<asrwt>0</asrwt>
<pdfrwt beam="1">  1        1 0.16449837E+00 0.67453082E+03</pdfrwt>
<pdfrwt beam="2">  1       -1 0.40857147E-01 0.67453082E+03</pdfrwt>
<totfact> 0.80595115E+01</totfact>
</mgrwt>
</event>
<event>
 4    1  0.1043382E-007  0.1768806E+04  0.7818608E-02  0.8739991E-01
          1   -1    0    0  501    0  0.00000000000E+00  0.00000000000E+00  0.28037026088E+04  0.28037026088E+04  0.50400000000E-02 0. -1.
         -1   -1    0    0    0  501 -0.00000000000E+00 -0.00000000000E+00 -0.14873523953E+04  0.14873523953E+04  0.50400000000E-02 0.  1.
    8880023    1    1    2    0    0  0.14239065142E+04  0.81691673079E+03 -0.49990416447E+03  0.18380906088E+04  0.65864270000E+03 0.  0.
    8880022    1    1    2    0    0 -0.14239065142E+04 -0.81691673079E+03  0.18162543779E+04  0.24529643953E+04  0.15294330000E+03 0.  0.
<mgrwt>
<rscale>  0 0.17379862E+04</rscale>
<asrwt>0</asrwt>
<pdfrwt beam="1">  1        1 0.43133886E+00 0.17688055E+04</pdfrwt>
<pdfrwt beam="2">  1       -1 0.22882345E+00 0.17688055E+04</pdfrwt>
<totfact> 0.72781485E-02</totfact>
</mgrwt>
</event>
<event>
 4    1  0.1043382E-007  0.1067302E+04  0.7818608E-02  0.9298366E-01
          1   -1    0    0  501    0  0.00000000000E+00  0.00000000000E+00  0.15899387402E+04  0.15899387402E+04  0.50400000000E-02 0. -1.
         -1   -1    0    0    0  501 -0.00000000000E+00 -0.00000000000E+00 -0.92787464651E+03  0.92787464652E+03  0.50400000000E-02 0.  1.
    8880023    1    1    2    0    0  0.70725468020E+03  0.45289499698E+03  0.11216598333E+04  0.15483068330E+04  0.65864270000E+03 0.  0.
    8880022    1    1    2    0    0 -0.70725468020E+03 -0.45289499698E+03 -0.45959573963E+03  0.96950655380E+03  0.15294330000E+03 0.  0.
<mgrwt>
<rscale>  0 0.10093346E+04</rscale>
<asrwt>0</asrwt>
<pdfrwt beam="1">  1        1 0.24460596E+00 0.10673019E+04</pdfrwt>
<pdfrwt beam="2">  1       -1 0.14274995E+00 0.10673019E+04</pdfrwt>
<totfact> 0.22518988E+00</totfact>
</mgrwt>
</event>
<event>
 4    1  0.1043382E-007  0.7754202E+03  0.7818608E-02  0.9766707E-01
          1   -1    0    0  501    0  0.00000000000E+00  0.00000000000E+00  0.81988417555E+03  0.81988417556E+03  0.50400000000E-02 0. -1.
         -1   -1    0    0    0  501 -0.00000000000E+00 -0.00000000000E+00 -0.76400072421E+03  0.76400072423E+03  0.50400000000E-02 0.  1.
    8880023    1    1    2    0    0 -0.40906633329E+03 -0.11445421248E+02 -0.46491460196E+03  0.90411396188E+03  0.65864270000E+03 0.  1.
    8880022    1    1    2    0    0  0.40906633329E+03  0.11445421248E+02  0.52079805329E+03  0.67977093791E+03  0.15294330000E+03 0.  0.
<mgrwt>
<rscale>  0 0.67180248E+03</rscale>
<asrwt>0</asrwt>
<pdfrwt beam="1">  1        1 0.12613603E+00 0.77542019E+03</pdfrwt>
<pdfrwt beam="2">  1       -1 0.11753857E+00 0.77542019E+03</pdfrwt>
<totfact> 0.14199063E+01</totfact>
</mgrwt>
</event>
<event>
 4    1  0.1043382E-007  0.7056002E+03  0.7818608E-02  0.9974717E-01
         -1   -1    0    0    0  501 -0.00000000000E+00  0.00000000000E+00  0.22965513481E+04  0.22965513482E+04  0.50400000000E-02 0.  1.
          1   -1    0    0  501    0  0.00000000000E+00 -0.00000000000E+00 -0.81310800575E+03  0.81310800576E+03  0.50400000000E-02 0. -1.
    8880023    1    1    2    0    0  0.12095205531E+03 -0.22233318055E+03  0.22128294946E+04  0.23226032854E+04  0.65864270000E+03 0.  0.
    8880022    1    1    2    0    0 -0.12095205531E+03  0.22233318055E+03 -0.72938615224E+03  0.78705606849E+03  0.15294330000E+03 0. -1.
<mgrwt>
<rscale>  0 0.56772880E+03</rscale>
<asrwt>0</asrwt>
<pdfrwt beam="1">  1        1 0.12509354E+00 0.70560020E+03</pdfrwt>
<pdfrwt beam="2">  1       -1 0.35331558E+00 0.70560020E+03</pdfrwt>
<totfact> 0.34407751E-01</totfact>
</mgrwt>
</event>
<event>
 4    1  0.1043382E-007  0.6967203E+03  0.7818608E-02  0.1001109E+00
          1   -1    0    0  501    0  0.00000000000E+00  0.00000000000E+00  0.11393763420E+04  0.11393763420E+04  0.50400000000E-02 0. -1.
         -1   -1    0    0    0  501 -0.00000000000E+00 -0.00000000000E+00 -0.53807679238E+03  0.53807679240E+03  0.50400000000E-02 0.  1.
    8880023    1    1    2    0    0 -0.38792634453E+02 -0.22383930733E+03 -0.28278585745E+03  0.75192217113E+03  0.65864270000E+03 0.  1.
    8880022    1    1    2    0    0  0.38792634453E+02  0.22383930733E+03  0.88408540704E+03  0.92553096326E+03  0.15294330000E+03 0.  0.
<mgrwt>
<rscale>  0 0.55166685E+03</rscale>
<asrwt>0</asrwt>
<pdfrwt beam="1">  1        1 0.17528867E+00 0.69672025E+03</pdfrwt>
<pdfrwt beam="2">  1       -1 0.82781044E-01 0.69672025E+03</pdfrwt>
<totfact> 0.17832625E+01</totfact>
</mgrwt>
</event>
<event>
 4    1  0.1043382E-007  0.7940694E+03  0.7818608E-02  0.9723769E-01
          1   -1    0    0  501    0  0.00000000000E+00  0.00000000000E+00  0.27326622316E+03  0.27326622320E+03  0.50400000000E-02 0. -1.
         -1   -1    0    0    0  501 -0.00000000000E+00 -0.00000000000E+00 -0.15097559829E+04  0.15097559829E+04  0.50400000000E-02 0.  1.
    8880023    1    1    2    0    0 -0.30291823149E+03  0.32400079759E+03 -0.61530183146E+03  0.10045608602E+04  0.65864270000E+03 0.  0.
    8880022    1    1    2    0    0  0.30291823149E+03 -0.32400079759E+03 -0.62118792829E+03  0.77846134591E+03  0.15294330000E+03 0.  0.
<mgrwt>
<rscale>  0 0.69619060E+03</rscale>
<asrwt>0</asrwt>
<pdfrwt beam="1">  1        1 0.42040958E-01 0.79406938E+03</pdfrwt>
<pdfrwt beam="2">  1       -1 0.23227015E+00 0.79406938E+03</pdfrwt>
<totfact> 0.92849297E+00</totfact>
</mgrwt>
</event>
<event>
 4    1  0.1043382E-007  0.7484640E+03  0.7818608E-02  0.9835944E-01
         -1   -1    0    0    0  501 -0.00000000000E+00  0.00000000000E+00  0.80315598989E+03  0.80315598991E+03  0.50400000000E-02 0.  1.
          1   -1    0    0  501    0  0.00000000000E+00 -0.00000000000E+00 -0.52465799059E+03  0.52465799062E+03  0.50400000000E-02 0. -1.
    8880023    1    1    2    0    0 -0.12393897989E+03 -0.33320762396E+03  0.48231829007E+03  0.89040964202E+03  0.65864270000E+03 0. -1.
    8880022    1    1    2    0    0  0.12393897989E+03  0.33320762396E+03 -0.20382029077E+03  0.43740433851E+03  0.15294330000E+03 0.  0.
<mgrwt>
<rscale>  0 0.63468739E+03</rscale>
<asrwt>0</asrwt>
<pdfrwt beam="1">  1        1 0.80716614E-01 0.74846403E+03</pdfrwt>
<pdfrwt beam="2">  1       -1 0.12356246E+00 0.74846403E+03</pdfrwt>
<totfact> 0.24475845E+01</totfact>
</mgrwt>
</event>
<event>
 4    1  0.1043382E-007  0.7036729E+03  0.7818608E-02  0.9982293E-01
          1   -1    0    0  501    0  0.00000000000E+00  0.00000000000E+00  0.12403426854E+04  0.12403426854E+04  0.50400000000E-02 0. -1.
         -1   -1    0    0    0  501 -0.00000000000E+00 -0.00000000000E+00 -0.24219943480E+03  0.24219943485E+03  0.50400000000E-02 0.  1.
    8880023    1    1    2    0    0  0.23454010513E+03  0.79600600529E+02  0.38101538603E+03  0.80020512818E+03  0.65864270000E+03 0.  1.
    8880022    1    1    2    0    0 -0.23454010513E+03 -0.79600600529E+02  0.61712786456E+03  0.68233699207E+03  0.15294330000E+03 0.  1.
<mgrwt>
<rscale>  0 0.56433531E+03</rscale>
<asrwt>0</asrwt>
<pdfrwt beam="1">  1        1 0.19082195E+00 0.70367288E+03</pdfrwt>
<pdfrwt beam="2">  1       -1 0.37261452E-01 0.70367288E+03</pdfrwt>
<totfact> 0.71140777E+01</totfact>
</mgrwt>
</event>
<event>
 4    1  0.1043382E-007  0.8002700E+03  0.7818608E-02  0.9710213E-01
          1   -1    0    0  501    0  0.00000000000E+00  0.00000000000E+00  0.27265347812E+04  0.27265347812E+04  0.50400000000E-02 0. -1.
         -1   -1    0    0    0  501 -0.00000000000E+00 -0.00000000000E+00 -0.39969365040E+03  0.39969365043E+03  0.50400000000E-02 0.  1.
    8880023    1    1    2    0    0 -0.14983509984E+03  0.42915186721E+03  0.52631465819E+02  0.80199885270E+03  0.65864270000E+03 0.  0.
    8880022    1    1    2    0    0  0.14983509984E+03 -0.42915186721E+03  0.22742096650E+04  0.23242295790E+04  0.15294330000E+03 0.  0.
<mgrwt>
<rscale>  0 0.70411984E+03</rscale>
<asrwt>0</asrwt>
<pdfrwt beam="1">  1        1 0.41946688E+00 0.80027001E+03</pdfrwt>
<pdfrwt beam="2">  1       -1 0.61491332E-01 0.80027001E+03</pdfrwt>
<totfact> 0.26643965E+00</totfact>
</mgrwt>
</event>
<event>
 4    1  0.1043382E-007  0.7137835E+03  0.7818608E-02  0.9944211E-01
          1   -1    0    0  501    0  0.00000000000E+00  0.00000000000E+00  0.26786296325E+03  0.26786296330E+03  0.50400000000E-02 0. -1.
         -1   -1    0    0    0  501 -0.00000000000E+00 -0.00000000000E+00 -0.18491770029E+04  0.18491770029E+04  0.50400000000E-02 0.  1.
    8880023    1    1    2    0    0 -0.13657354339E+02 -0.27475477256E+03 -0.16474346862E+04  0.17954186030E+04  0.65864270000E+03 0.  0.
    8880022    1    1    2    0    0  0.13657354339E+02  0.27475477256E+03  0.66120646541E+02  0.32162136323E+03  0.15294330000E+03 0.  0.
<mgrwt>
<rscale>  0 0.58165673E+03</rscale>
<asrwt>0</asrwt>
<pdfrwt beam="1">  1        1 0.41209688E-01 0.71378352E+03</pdfrwt>
<pdfrwt beam="2">  1       -1 0.28448876E+00 0.71378352E+03</pdfrwt>
<totfact> 0.44402430E+00</totfact>
</mgrwt>
</event>
<event>
 4    1  0.1043382E-007  0.9704225E+03  0.7818608E-02  0.9421320E-01
         -1   -1    0    0    0  501 -0.00000000000E+00  0.00000000000E+00  0.29578020085E+03  0.29578020089E+03  0.50400000000E-02 0.  1.
          1   -1    0    0  501    0  0.00000000000E+00 -0.00000000000E+00 -0.26208910029E+04  0.26208910029E+04  0.50400000000E-02 0. -1.
    8880023    1    1    2    0    0 -0.57517363001E+03 -0.42081451916E+03 -0.93771861586E+03  0.13494576588E+04  0.65864270000E+03 0.  0.
    8880022    1    1    2    0    0  0.57517363001E+03  0.42081451916E+03 -0.13873921862E+04  0.15672135450E+04  0.15294330000E+03 0.  0.
<mgrwt>
<rscale>  0 0.90341695E+03</rscale>
<asrwt>0</asrwt>
<pdfrwt beam="1">  1        1 0.40321398E+00 0.97042247E+03</pdfrwt>
<pdfrwt beam="2">  1       -1 0.45504648E-01 0.97042247E+03</pdfrwt>
<totfact> 0.54807720E+00</totfact>
</mgrwt>
</event>
<event>
 4    1  0.1043382E-007  0.9171837E+03  0.7818608E-02  0.9498991E-01
         -1   -1    0    0    0  501 -0.00000000000E+00  0.00000000000E+00  0.54046439411E+03  0.54046439413E+03  0.50400000000E-02 0.  1.
          1   -1    0    0  501    0  0.00000000000E+00 -0.00000000000E+00 -0.18913459875E+04  0.18913459875E+04  0.50400000000E-02 0. -1.
    8880023    1    1    2    0    0  0.79625589399E+01  0.63824161900E+03  0.14022011227E+02  0.91729089695E+03  0.65864270000E+03 0.  1.
    8880022    1    1    2    0    0 -0.79625589399E+01 -0.63824161900E+03 -0.13649036046E+04  0.15145194847E+04  0.15294330000E+03 0.  0.
<mgrwt>
<rscale>  0 0.84358267E+03</rscale>
<asrwt>0</asrwt>
<pdfrwt beam="1">  1        1 0.29097630E+00 0.91718372E+03</pdfrwt>
<pdfrwt beam="2">  1       -1 0.83148369E-01 0.91718372E+03</pdfrwt>
<totfact> 0.51780784E+00</totfact>
</mgrwt>
</event>
<event>
 4    1  0.1043382E-007  0.8894053E+03  0.7818608E-02  0.9543258E-01
         -1   -1    0    0    0  501 -0.00000000000E+00  0.00000000000E+00  0.52365263197E+03  0.52365263199E+03  0.50400000000E-02 0.  1.
          1   -1    0    0  501    0  0.00000000000E+00 -0.00000000000E+00 -0.17108659820E+04  0.17108659820E+04  0.50400000000E-02 0. -1.
    8880023    1    1    2    0    0  0.56741485273E+03 -0.18780809559E+03  0.80310875768E+01  0.88944151044E+03  0.65864270000E+03 0.  1.
    8880022    1    1    2    0    0 -0.56741485273E+03  0.18780809559E+03 -0.11952444376E+04  0.13450771036E+04  0.15294330000E+03 0.  0.
<mgrwt>
<rscale>  0 0.81168341E+03</rscale>
<asrwt>0</asrwt>
<pdfrwt beam="1">  1        1 0.26321015E+00 0.88940525E+03</pdfrwt>
<pdfrwt beam="2">  1       -1 0.80561944E-01 0.88940525E+03</pdfrwt>
<totfact> 0.73583201E+00</totfact>
</mgrwt>
</event>
<event>
 4    1  0.1043382E-007  0.7091448E+03  0.7818608E-02  0.9961190E-01
         -1   -1    0    0    0  501 -0.00000000000E+00  0.00000000000E+00  0.30123357357E+03  0.30123357362E+03  0.50400000000E-02 0.  1.
          1   -1    0    0  501    0  0.00000000000E+00 -0.00000000000E+00 -0.96392312801E+03  0.96392312802E+03  0.50400000000E-02 0. -1.
    8880023    1    1    2    0    0  0.24588459319E+03  0.92827630557E+02 -0.24870476726E+03  0.75149216209E+03  0.65864270000E+03 0.  1.
    8880022    1    1    2    0    0 -0.24588459319E+03 -0.92827630557E+02 -0.41398478718E+03  0.51366453955E+03  0.15294330000E+03 0.  0.
<mgrwt>
<rscale>  0 0.57385221E+03</rscale>
<asrwt>0</asrwt>
<pdfrwt beam="1">  1        1 0.14829586E+00 0.70914484E+03</pdfrwt>
<pdfrwt beam="2">  1       -1 0.46343627E-01 0.70914484E+03</pdfrwt>
<totfact> 0.76727546E+01</totfact>
</mgrwt>
</event>
<event>
 4    1  0.1043382E-007  0.1089544E+04  0.7818608E-02  0.9272788E-01
         -1   -1    0    0    0  501 -0.00000000000E+00  0.00000000000E+00  0.34043765997E+03  0.34043766000E+03  0.50400000000E-02 0.  1.
          1   -1    0    0  501    0  0.00000000000E+00 -0.00000000000E+00 -0.30421899400E+04  0.30421899400E+04  0.50400000000E-02 0. -1.
    8880023    1    1    2    0    0 -0.85784737133E+03  0.13188590777E+03 -0.10644529519E+04  0.15232092102E+04  0.65864270000E+03 0.  1.
    8880022    1    1    2    0    0  0.85784737133E+03 -0.13188590777E+03 -0.16372993282E+04  0.18594183898E+04  0.15294330000E+03 0. -1.
<mgrwt>
<rscale>  0 0.10332714E+04</rscale>
<asrwt>0</asrwt>
<pdfrwt beam="1">  1        1 0.46802920E+00 0.10895440E+04</pdfrwt>
<pdfrwt beam="2">  1       -1 0.52375027E-01 0.10895440E+04</pdfrwt>
<totfact> 0.20763255E+00</totfact>
</mgrwt>
</event>
<event>
 4    1  0.1043382E-007  0.9450208E+03  0.7818608E-02  0.9457315E-01
          1   -1    0    0  501    0  0.00000000000E+00  0.00000000000E+00  0.21202359156E+04  0.21202359157E+04  0.50400000000E-02 0. -1.
         -1   -1    0    0    0  501 -0.00000000000E+00 -0.00000000000E+00 -0.79139562671E+03  0.79139562673E+03  0.50400000000E-02 0.  1.
    8880023    1    1    2    0    0  0.29949931160E+03  0.60790974032E+03 -0.41678019732E+03  0.10328455979E+04  0.65864270000E+03 0.  0.
    8880022    1    1    2    0    0 -0.29949931160E+03 -0.60790974032E+03  0.17456204863E+04  0.18787859444E+04  0.15294330000E+03 0.  0.
<mgrwt>
<rscale>  0 0.87505345E+03</rscale>
<asrwt>0</asrwt>
<pdfrwt beam="1">  1        1 0.32619014E+00 0.94502079E+03</pdfrwt>
<pdfrwt beam="2">  1       -1 0.12175317E+00 0.94502079E+03</pdfrwt>
<totfact> 0.15063126E+00</totfact>
</mgrwt>
</event>
<event>
 4    1  0.1043382E-007  0.7343958E+03  0.7818608E-02  0.9876583E-01
         -1   -1    0    0    0  501 -0.00000000000E+00  0.00000000000E+00  0.52407130253E+03  0.52407130256E+03  0.50400000000E-02 0.  1.
          1   -1    0    0  501    0  0.00000000000E+00 -0.00000000000E+00 -0.99100448225E+03  0.99100448226E+03  0.50400000000E-02 0. -1.
    8880023    1    1    2    0    0  0.23949340160E+03  0.21947641524E+03  0.19692502812E+03  0.76033983140E+03  0.65864270000E+03 0.  0.
    8880022    1    1    2    0    0 -0.23949340160E+03 -0.21947641524E+03 -0.66385820783E+03  0.75473595342E+03  0.15294330000E+03 0.  0.
<mgrwt>
<rscale>  0 0.61409718E+03</rscale>
<asrwt>0</asrwt>
<pdfrwt beam="1">  1        1 0.15246223E+00 0.73439580E+03</pdfrwt>
<pdfrwt beam="2">  1       -1 0.80626355E-01 0.73439580E+03</pdfrwt>
<totfact> 0.24299930E+01</totfact>
</mgrwt>
</event>
<event>
 4    1  0.1043382E-007  0.6779264E+03  0.7818608E-02  0.1010522E+00
         -1   -1    0    0    0  501 -0.00000000000E+00  0.00000000000E+00  0.27116746949E+03  0.27116746954E+03  0.50400000000E-02 0.  1.
          1   -1    0    0  501    0  0.00000000000E+00 -0.00000000000E+00 -0.16982648820E+04  0.16982648820E+04  0.50400000000E-02 0. -1.
    8880023    1    1    2    0    0  0.13815576386E+03  0.81773800127E+02 -0.17813432276E+03  0.70093937875E+03  0.65864270000E+03 0.  1.
    8880022    1    1    2    0    0 -0.13815576386E+03 -0.81773800127E+02 -0.12489630897E+04  0.12684929728E+04  0.15294330000E+03 0.  0.
<mgrwt>
<rscale>  0 0.51267790E+03</rscale>
<asrwt>0</asrwt>
<pdfrwt beam="1">  1        1 0.26127151E+00 0.67792638E+03</pdfrwt>
<pdfrwt beam="2">  1       -1 0.41718073E-01 0.67792638E+03</pdfrwt>
<totfact> 0.28144130E+01</totfact>
</mgrwt>
</event>
<event>
 4    1  0.1043382E-007  0.7940245E+03  0.7818608E-02  0.9723868E-01
          1   -1    0    0  501    0  0.00000000000E+00  0.00000000000E+00  0.11924561102E+04  0.11924561102E+04  0.50400000000E-02 0. -1.
         -1   -1    0    0    0  501 -0.00000000000E+00 -0.00000000000E+00 -0.49343043935E+03  0.49343043937E+03  0.50400000000E-02 0.  1.
    8880023    1    1    2    0    0  0.29621345479E+03 -0.33003369535E+03 -0.57089276364E+02  0.79607414391E+03  0.65864270000E+03 0.  0.
    8880022    1    1    2    0    0 -0.29621345479E+03  0.33003369535E+03  0.75611494725E+03  0.88981240570E+03  0.15294330000E+03 0.  0.
<mgrwt>
<rscale>  0 0.69613287E+03</rscale>
<asrwt>0</asrwt>
<pdfrwt beam="1">  1        1 0.18345479E+00 0.79402447E+03</pdfrwt>
<pdfrwt beam="2">  1       -1 0.75912375E-01 0.79402447E+03</pdfrwt>
<totfact> 0.19349249E+01</totfact>
</mgrwt>
</event>
<event>
 4    1  0.1043382E-007  0.6912726E+03  0.7818608E-02  0.1003554E+00
          1   -1    0    0  501    0  0.00000000000E+00  0.00000000000E+00  0.26202146993E+03  0.26202146997E+03  0.50400000000E-02 0. -1.
         -1   -1    0    0    0  501 -0.00000000000E+00 -0.00000000000E+00 -0.11813401927E+04  0.11813401927E+04  0.50400000000E-02 0.  1.
    8880023    1    1    2    0    0 -0.69278056842E+00  0.20987393740E+03 -0.95741666325E+03  0.11808913679E+04  0.65864270000E+03 0.  0.
    8880022    1    1    2    0    0  0.69278056842E+00 -0.20987393740E+03  0.38097940469E+02  0.26247029475E+03  0.15294330000E+03 0.  0.
<mgrwt>
<rscale>  0 0.54119159E+03</rscale>
<asrwt>0</asrwt>
<pdfrwt beam="1">  1        1 0.40310996E-01 0.69127256E+03</pdfrwt>
<pdfrwt beam="2">  1       -1 0.18174464E+00 0.69127256E+03</pdfrwt>
<totfact> 0.21817715E+01</totfact>
</mgrwt>
</event>
<event>
 4    1  0.1043382E-007  0.9483081E+03  0.7818608E-02  0.9452552E-01
          1   -1    0    0  501    0  0.00000000000E+00  0.00000000000E+00  0.21886979891E+04  0.21886979891E+04  0.50400000000E-02 0. -1.
         -1   -1    0    0    0  501 -0.00000000000E+00 -0.00000000000E+00 -0.51159075657E+03  0.51159075660E+03  0.50400000000E-02 0.  1.
    8880023    1    1    2    0    0 -0.11650894239E+03 -0.67223790065E+03  0.73822695039E+02  0.95117723128E+03  0.65864270000E+03 0.  0.
    8880022    1    1    2    0    0  0.11650894239E+03  0.67223790065E+03  0.16032845375E+04  0.17491115144E+04  0.15294330000E+03 0.  0.
<mgrwt>
<rscale>  0 0.87874175E+03</rscale>
<asrwt>0</asrwt>
<pdfrwt beam="1">  1        1 0.33672277E+00 0.94830814E+03</pdfrwt>
<pdfrwt beam="2">  1       -1 0.78706270E-01 0.94830814E+03</pdfrwt>
<totfact> 0.36577246E+00</totfact>
</mgrwt>
</event>
<event>
 4    1  0.1043382E-007  0.6891068E+03  0.7818608E-02  0.1004580E+00
         -1   -1    0    0    0  501 -0.00000000000E+00  0.00000000000E+00  0.44589662196E+03  0.44589662199E+03  0.50400000000E-02 0.  1.
          1   -1    0    0  501    0  0.00000000000E+00 -0.00000000000E+00 -0.12610747690E+04  0.12610747690E+04  0.50400000000E-02 0. -1.
    8880023    1    1    2    0    0 -0.18817498572E+03  0.75153800543E+02  0.15314785457E+03  0.70591953551E+03  0.65864270000E+03 0.  1.
    8880022    1    1    2    0    0  0.18817498572E+03 -0.75153800543E+02 -0.96832600160E+03  0.10010518555E+04  0.15294330000E+03 0.  0.
<mgrwt>
<rscale>  0 0.53686784E+03</rscale>
<asrwt>0</asrwt>
<pdfrwt beam="1">  1        1 0.19401150E+00 0.68910676E+03</pdfrwt>
<pdfrwt beam="2">  1       -1 0.68599481E-01 0.68910676E+03</pdfrwt>
<totfact> 0.21570994E+01</totfact>
</mgrwt>
</event>
<event>
 4    1  0.1043382E-007  0.1146491E+04  0.7818608E-02  0.9210978E-01
          1   -1    0    0  501    0  0.00000000000E+00  0.00000000000E+00  0.14997644940E+04  0.14997644940E+04  0.50400000000E-02 0. -1.
         -1   -1    0    0    0  501 -0.00000000000E+00 -0.00000000000E+00 -0.84153120281E+03  0.84153120283E+03  0.50400000000E-02 0.  1.
    8880023    1    1    2    0    0 -0.91927647898E+03 -0.18857948828E+03 -0.62508691786E+02  0.11481938038E+04  0.65864270000E+03 0.  1.
    8880022    1    1    2    0    0  0.91927647898E+03  0.18857948828E+03  0.72074198298E+03  0.11931018931E+04  0.15294330000E+03 0.  0.
<mgrwt>
<rscale>  0 0.10940834E+04</rscale>
<asrwt>0</asrwt>
<pdfrwt beam="1">  1        1 0.23073300E+00 0.11464910E+04</pdfrwt>
<pdfrwt beam="2">  1       -1 0.12946634E+00 0.11464910E+04</pdfrwt>
<totfact> 0.33130221E+00</totfact>
</mgrwt>
</event>
<event>
 4    1  0.1043382E-007  0.7573165E+03  0.7818608E-02  0.9812105E-01
          1   -1    0    0  501    0  0.00000000000E+00  0.00000000000E+00  0.63150517314E+03  0.63150517316E+03  0.50400000000E-02 0. -1.
         -1   -1    0    0    0  501 -0.00000000000E+00 -0.00000000000E+00 -0.97204473475E+03  0.97204473477E+03  0.50400000000E-02 0.  1.
    8880023    1    1    2    0    0 -0.24559174123E+03 -0.28178503647E+03 -0.72321931863E+03  0.10471745314E+04  0.65864270000E+03 0.  1.
    8880022    1    1    2    0    0  0.24559174123E+03  0.28178503647E+03  0.38267975702E+03  0.55637537651E+03  0.15294330000E+03 0.  0.
<mgrwt>
<rscale>  0 0.64716954E+03</rscale>
<asrwt>0</asrwt>
<pdfrwt beam="1">  1        1 0.97154642E-01 0.75731652E+03</pdfrwt>
<pdfrwt beam="2">  1       -1 0.14954534E+00 0.75731652E+03</pdfrwt>
<totfact> 0.11502061E+01</totfact>
</mgrwt>
</event>
<event>
 4    1  0.1043382E-007  0.6780266E+03  0.7818608E-02  0.1010463E+00
         -1   -1    0    0    0  501 -0.00000000000E+00  0.00000000000E+00  0.14971992943E+03  0.14971992952E+03  0.50400000000E-02 0.  1.
          1   -1    0    0  501    0  0.00000000000E+00 -0.00000000000E+00 -0.22942136441E+04  0.22942136441E+04  0.50400000000E-02 0. -1.
    8880023    1    1    2    0    0  0.71830960688E+02 -0.14404901245E+03 -0.67140111415E+03  0.95420095748E+03  0.65864270000E+03 0.  1.
    8880022    1    1    2    0    0 -0.71830960688E+02  0.14404901245E+03 -0.14730926005E+04  0.14897326162E+04  0.15294330000E+03 0.  0.
<mgrwt>
<rscale>  0 0.51291157E+03</rscale>
<asrwt>0</asrwt>
<pdfrwt beam="1">  1        1 0.35295592E+00 0.67802656E+03</pdfrwt>
<pdfrwt beam="2">  1       -1 0.23033837E-01 0.67802656E+03</pdfrwt>
<totfact> 0.31824325E+01</totfact>
</mgrwt>
</event>
<event>
 4    1  0.1043382E-007  0.1022435E+04  0.7818608E-02  0.9352778E-01
         -1   -1    0    0    0  501 -0.00000000000E+00  0.00000000000E+00  0.14367007097E+04  0.14367007097E+04  0.50400000000E-02 0.  1.
          1   -1    0    0  501    0  0.00000000000E+00 -0.00000000000E+00 -0.90487301273E+03  0.90487301274E+03  0.50400000000E-02 0. -1.
    8880023    1    1    2    0    0  0.15291865769E+03 -0.76692767157E+03  0.98933954215E+03  0.14227315647E+04  0.65864270000E+03 0.  1.
    8880022    1    1    2    0    0 -0.15291865769E+03  0.76692767157E+03 -0.45751184520E+03  0.91884215772E+03  0.15294330000E+03 0.  0.
<mgrwt>
<rscale>  0 0.96065932E+03</rscale>
<asrwt>0</asrwt>
<pdfrwt beam="1">  1        1 0.13921123E+00 0.10224345E+04</pdfrwt>
<pdfrwt beam="2">  1       -1 0.22103088E+00 0.10224345E+04</pdfrwt>
<totfact> 0.19578845E+00</totfact>
</mgrwt>
</event>
<event>
 4    1  0.1043382E-007  0.7799801E+03  0.7818608E-02  0.9755884E-01
          1   -1    0    0  501    0  0.00000000000E+00  0.00000000000E+00  0.77699594003E+03  0.77699594005E+03  0.50400000000E-02 0. -1.
         -1   -1    0    0    0  501 -0.00000000000E+00 -0.00000000000E+00 -0.10413735167E+04  0.10413735167E+04  0.50400000000E-02 0.  1.
    8880023    1    1    2    0    0  0.40980144948E+03 -0.81372278416E+02 -0.80320094481E+03  0.11195984279E+04  0.65864270000E+03 0.  1.
    8880022    1    1    2    0    0 -0.40980144948E+03  0.81372278416E+02  0.53882336816E+03  0.69877102887E+03  0.15294330000E+03 0.  0.
<mgrwt>
<rscale>  0 0.67784774E+03</rscale>
<asrwt>0</asrwt>
<pdfrwt beam="1">  1        1 0.11953784E+00 0.77998005E+03</pdfrwt>
<pdfrwt beam="2">  1       -1 0.16021131E+00 0.77998005E+03</pdfrwt>
<totfact> 0.69410092E+00</totfact>
</mgrwt>
</event>
<event>
 4    1  0.1043382E-007  0.6863602E+03  0.7818608E-02  0.1005933E+00
          1   -1    0    0  501    0  0.00000000000E+00  0.00000000000E+00  0.44907334616E+03  0.44907334619E+03  0.50400000000E-02 0. -1.
         -1   -1    0    0    0  501 -0.00000000000E+00 -0.00000000000E+00 -0.58610835564E+03  0.58610835566E+03  0.50400000000E-02 0.  1.
    8880023    1    1    2    0    0  0.13767974995E+01 -0.19307576112E+03 -0.29013338611E+03  0.74516289031E+03  0.65864270000E+03 0.  1.
    8880022    1    1    2    0    0 -0.13767974995E+01  0.19307576112E+03  0.15309837662E+03  0.29001881154E+03  0.15294330000E+03 0.  0.
<mgrwt>
<rscale>  0 0.53123593E+03</rscale>
<asrwt>0</asrwt>
<pdfrwt beam="1">  1        1 0.69088207E-01 0.68636022E+03</pdfrwt>
<pdfrwt beam="2">  1       -1 0.90170517E-01 0.68636022E+03</pdfrwt>
<totfact> 0.63319679E+01</totfact>
</mgrwt>
</event>
<event>
 4    1  0.1043382E-007  0.6621580E+03  0.7818608E-02  0.1022047E+00
         -1   -1    0    0    0  501 -0.00000000000E+00  0.00000000000E+00  0.10807982629E+04  0.10807982629E+04  0.50400000000E-02 0.  1.
          1   -1    0    0  501    0  0.00000000000E+00 -0.00000000000E+00 -0.40120840267E+03  0.40120840270E+03  0.50400000000E-02 0. -1.
    8880023    1    1    2    0    0 -0.63732097865E+02  0.24107772730E+02  0.95356361277E+03  0.11609206411E+04  0.65864270000E+03 0.  1.
    8880022    1    1    2    0    0  0.63732097865E+02 -0.24107772730E+02 -0.27397375258E+03  0.32108602449E+03  0.15294330000E+03 0.  0.
<mgrwt>
<rscale>  0 0.46955129E+03</rscale>
<asrwt>0</asrwt>
<pdfrwt beam="1">  1        1 0.61724370E-01 0.66215797E+03</pdfrwt>
<pdfrwt beam="2">  1       -1 0.16627665E+00 0.66215797E+03</pdfrwt>
<totfact> 0.16261083E+01</totfact>
</mgrwt>
</event>
<event>
 4    1  0.1043382E-007  0.8465008E+03  0.7818608E-02  0.9618042E-01
         -1   -1    0    0    0  501 -0.00000000000E+00  0.00000000000E+00  0.39839879191E+03  0.39839879194E+03  0.50400000000E-02 0.  1.
          1   -1    0    0  501    0  0.00000000000E+00 -0.00000000000E+00 -0.14719963562E+04  0.14719963562E+04  0.50400000000E-02 0. -1.
    8880023    1    1    2    0    0 -0.50318256476E+03 -0.17193243051E+03 -0.25822014316E+03  0.88500921054E+03  0.65864270000E+03 0. -1.
    8880022    1    1    2    0    0  0.50318256476E+03  0.17193243051E+03 -0.81537742117E+03  0.98538593765E+03  0.15294330000E+03 0.  0.
<mgrwt>
<rscale>  0 0.76113459E+03</rscale>
<asrwt>0</asrwt>
<pdfrwt beam="1">  1        1 0.22646098E+00 0.84650083E+03</pdfrwt>
<pdfrwt beam="2">  1       -1 0.61292123E-01 0.84650083E+03</pdfrwt>
<totfact> 0.18880088E+01</totfact>
</mgrwt>
</event>
<event>
 4    1  0.1043382E-007  0.7658568E+03  0.7818608E-02  0.9790174E-01
          1   -1    0    0  501    0  0.00000000000E+00  0.00000000000E+00  0.15465629957E+04  0.15465629957E+04  0.50400000000E-02 0. -1.
         -1   -1    0    0    0  501 -0.00000000000E+00 -0.00000000000E+00 -0.28266909887E+03  0.28266909892E+03  0.50400000000E-02 0.  1.
    8880023    1    1    2    0    0  0.32670487423E+03 -0.21445353621E+03  0.38920746187E+03  0.85908035054E+03  0.65864270000E+03 0.  0.
    8880022    1    1    2    0    0 -0.32670487423E+03  0.21445353621E+03  0.87468643493E+03  0.97015174406E+03  0.15294330000E+03 0.  0.
<mgrwt>
<rscale>  0 0.65892525E+03</rscale>
<asrwt>0</asrwt>
<pdfrwt beam="1">  1        1 0.23793277E+00 0.76585678E+03</pdfrwt>
<pdfrwt beam="2">  1       -1 0.43487553E-01 0.76585678E+03</pdfrwt>
<totfact> 0.32648794E+01</totfact>
</mgrwt>
</event>
<event>
 4    1  0.1043382E-007  0.6954926E+03  0.7818608E-02  0.1001644E+00
          1   -1    0    0  501    0  0.00000000000E+00  0.00000000000E+00  0.12059599608E+04  0.12059599608E+04  0.50400000000E-02 0. -1.
         -1   -1    0    0    0  501 -0.00000000000E+00 -0.00000000000E+00 -0.39713501918E+03  0.39713501921E+03  0.50400000000E-02 0.  1.
    8880023    1    1    2    0    0  0.32520060296E+02  0.22100278111E+03 -0.55171253127E+02  0.69767747349E+03  0.65864270000E+03 0.  1.
    8880022    1    1    2    0    0 -0.32520060296E+02 -0.22100278111E+03  0.86399619471E+03  0.90541750649E+03  0.15294330000E+03 0.  0.
<mgrwt>
<rscale>  0 0.54935243E+03</rscale>
<asrwt>0</asrwt>
<pdfrwt beam="1">  1        1 0.18553230E+00 0.69549262E+03</pdfrwt>
<pdfrwt beam="2">  1       -1 0.61097696E-01 0.69549262E+03</pdfrwt>
<totfact> 0.29769874E+01</totfact>
</mgrwt>
</event>
<event>
 4    1  0.1043382E-007  0.9692023E+03  0.7818608E-02  0.9423008E-01
         -1   -1    0    0    0  501 -0.00000000000E+00  0.00000000000E+00  0.15016860236E+04  0.15016860236E+04  0.50400000000E-02 0.  1.
          1   -1    0    0  501    0  0.00000000000E+00 -0.00000000000E+00 -0.16292419298E+04  0.16292419298E+04  0.50400000000E-02 0. -1.
    8880023    1    1    2    0    0 -0.68008419026E+03  0.20743301778E+03  0.12448913839E+04  0.15776906309E+04  0.65864270000E+03 0.  1.
    8880022    1    1    2    0    0  0.68008419026E+03 -0.20743301778E+03 -0.13724472902E+04  0.15532373225E+04  0.15294330000E+03 0.  0.
<mgrwt>
<rscale>  0 0.90206138E+03</rscale>
<asrwt>0</asrwt>
<pdfrwt beam="1">  1        1 0.25065260E+00 0.96920234E+03</pdfrwt>
<pdfrwt beam="2">  1       -1 0.23102862E+00 0.96920234E+03</pdfrwt>
<totfact> 0.50299376E-01</totfact>
</mgrwt>
</event>
<event>
 4    1  0.1043382E-007  0.7164096E+03  0.7818608E-02  0.9934927E-01
         -1   -1    0    0    0  501 -0.00000000000E+00  0.00000000000E+00  0.62227115134E+03  0.62227115136E+03  0.50400000000E-02 0.  1.
          1   -1    0    0  501    0  0.00000000000E+00 -0.00000000000E+00 -0.13424216716E+04  0.13424216716E+04  0.50400000000E-02 0. -1.
    8880023    1    1    2    0    0 -0.23677946110E+03  0.15286585276E+03  0.38545690114E+03  0.81352302428E+03  0.65864270000E+03 0.  1.
    8880022    1    1    2    0    0  0.23677946110E+03 -0.15286585276E+03 -0.11056074214E+04  0.11511697987E+04  0.15294330000E+03 0.  0.
<mgrwt>
<rscale>  0 0.58598017E+03</rscale>
<asrwt>0</asrwt>
<pdfrwt beam="1">  1        1 0.20652641E+00 0.71640958E+03</pdfrwt>
<pdfrwt beam="2">  1       -1 0.95734024E-01 0.71640958E+03</pdfrwt>
<totfact> 0.92521055E+00</totfact>
</mgrwt>
</event>
<event>
 4    1  0.1043382E-007  0.8129766E+03  0.7818608E-02  0.9683410E-01
         -1   -1    0    0    0  501 -0.00000000000E+00  0.00000000000E+00  0.17620280665E+04  0.17620280665E+04  0.50400000000E-02 0.  1.
          1   -1    0    0  501    0  0.00000000000E+00 -0.00000000000E+00 -0.87367996647E+03  0.87367996649E+03  0.50400000000E-02 0. -1.
    8880023    1    1    2    0    0  0.13960300150E+02 -0.47636742534E+03  0.15829802065E+04  0.17795385228E+04  0.65864270000E+03 0.  1.
    8880022    1    1    2    0    0 -0.13960300150E+02  0.47636742534E+03 -0.69463210641E+03  0.85616951019E+03  0.15294330000E+03 0.  0.
<mgrwt>
<rscale>  0 0.72013218E+03</rscale>
<asrwt>0</asrwt>
<pdfrwt beam="1">  1        1 0.13441230E+00 0.81297664E+03</pdfrwt>
<pdfrwt beam="2">  1       -1 0.27108124E+00 0.81297664E+03</pdfrwt>
<totfact> 0.10126996E+00</totfact>
</mgrwt>
</event>
<event>
 4    1  0.1043382E-007  0.7399054E+03  0.7818608E-02  0.9860223E-01
         -1   -1    0    0    0  501 -0.00000000000E+00  0.00000000000E+00  0.78479168953E+03  0.78479168955E+03  0.50400000000E-02 0.  1.
          1   -1    0    0  501    0  0.00000000000E+00 -0.00000000000E+00 -0.10844706606E+04  0.10844706607E+04  0.50400000000E-02 0. -1.
    8880023    1    1    2    0    0  0.60019547906E+02  0.33173406330E+03  0.56350039556E+03  0.93004985724E+03  0.65864270000E+03 0.  1.
    8880022    1    1    2    0    0 -0.60019547906E+02 -0.33173406330E+03 -0.86317936667E+03  0.93921249297E+03  0.15294330000E+03 0.  0.
<mgrwt>
<rscale>  0 0.62228405E+03</rscale>
<asrwt>0</asrwt>
<pdfrwt beam="1">  1        1 0.16684164E+00 0.73990543E+03</pdfrwt>
<pdfrwt beam="2">  1       -1 0.12073718E+00 0.73990543E+03</pdfrwt>
<totfact> 0.82291053E+00</totfact>
</mgrwt>
</event>
<event>
 4    1  0.1043382E-007  0.1043179E+04  0.7818608E-02  0.9327126E-01
         -1   -1    0    0    0  501 -0.00000000000E+00  0.00000000000E+00  0.43657714365E+03  0.43657714368E+03  0.50400000000E-02 0.  1.
          1   -1    0    0  501    0  0.00000000000E+00 -0.00000000000E+00 -0.20001053722E+04  0.20001053722E+04  0.50400000000E-02 0. -1.
    8880023    1    1    2    0    0  0.12811573994E+03  0.79874818513E+03 -0.93538036058E+03  0.14011277355E+04  0.65864270000E+03 0.  0.
    8880022    1    1    2    0    0 -0.12811573994E+03 -0.79874818513E+03 -0.62814786797E+03  0.10355547804E+04  0.15294330000E+03 0. -1.
<mgrwt>
<rscale>  0 0.98323460E+03</rscale>
<asrwt>0</asrwt>
<pdfrwt beam="1">  1        1 0.30770851E+00 0.10431790E+04</pdfrwt>
<pdfrwt beam="2">  1       -1 0.67165715E-01 0.10431790E+04</pdfrwt>
<totfact> 0.67310784E+00</totfact>
</mgrwt>
</event>
<event>
 4    1  0.1043382E-007  0.7573051E+03  0.7818608E-02  0.9812135E-01
         -1   -1    0    0    0  501 -0.00000000000E+00  0.00000000000E+00  0.43372625595E+03  0.43372625598E+03  0.50400000000E-02 0.  1.
          1   -1    0    0  501    0  0.00000000000E+00 -0.00000000000E+00 -0.78652900024E+03  0.78652900025E+03  0.50400000000E-02 0. -1.
    8880023    1    1    2    0    0 -0.42616174842E+02  0.37132829405E+03 -0.29297385353E+03  0.81200044670E+03  0.65864270000E+03 0.  1.
    8880022    1    1    2    0    0  0.42616174842E+02 -0.37132829405E+03 -0.59828890752E+02  0.40825480953E+03  0.15294330000E+03 0.  0.
<mgrwt>
<rscale>  0 0.64715367E+03</rscale>
<asrwt>0</asrwt>
<pdfrwt beam="1">  1        1 0.12100446E+00 0.75730512E+03</pdfrwt>
<pdfrwt beam="2">  1       -1 0.66727117E-01 0.75730512E+03</pdfrwt>
<totfact> 0.52825403E+01</totfact>
</mgrwt>
</event>
<event>
 4    1  0.1043382E-007  0.7878523E+03  0.7818608E-02  0.9737705E-01
          1   -1    0    0  501    0  0.00000000000E+00  0.00000000000E+00  0.96616572468E+03  0.96616572470E+03  0.50400000000E-02 0. -1.
         -1   -1    0    0    0  501 -0.00000000000E+00 -0.00000000000E+00 -0.50783837475E+03  0.50783837478E+03  0.50400000000E-02 0.  1.
    8880023    1    1    2    0    0  0.39006897393E+03  0.18640607085E+03 -0.49947739184E+02  0.78943398115E+03  0.65864270000E+03 0. -1.
    8880022    1    1    2    0    0 -0.39006897393E+03 -0.18640607085E+03  0.50827508911E+03  0.68457011833E+03  0.15294330000E+03 0.  0.
<mgrwt>
<rscale>  0 0.68815556E+03</rscale>
<asrwt>0</asrwt>
<pdfrwt beam="1">  1        1 0.14864088E+00 0.78785229E+03</pdfrwt>
<pdfrwt beam="2">  1       -1 0.78128981E-01 0.78785229E+03</pdfrwt>
<totfact> 0.27002260E+01</totfact>
</mgrwt>
</event>
<event>
 4    1  0.1043382E-007  0.6896491E+03  0.7818608E-02  0.1004320E+00
          1   -1    0    0  501    0  0.00000000000E+00  0.00000000000E+00  0.18813649632E+04  0.18813649632E+04  0.50400000000E-02 0. -1.
         -1   -1    0    0    0  501 -0.00000000000E+00 -0.00000000000E+00 -0.13023689021E+03  0.13023689031E+03  0.50400000000E-02 0.  1.
    8880023    1    1    2    0    0 -0.86340256317E+02 -0.18534040156E+03  0.97277759058E+03  0.11924395797E+04  0.65864270000E+03 0.  1.
    8880022    1    1    2    0    0  0.86340256317E+02  0.18534040156E+03  0.77835048239E+03  0.81916227377E+03  0.15294330000E+03 0.  0.
<mgrwt>
<rscale>  0 0.53795988E+03</rscale>
<asrwt>0</asrwt>
<pdfrwt beam="1">  1        1 0.28944074E+00 0.68964912E+03</pdfrwt>
<pdfrwt beam="2">  1       -1 0.20036447E-01 0.68964912E+03</pdfrwt>
<totfact> 0.75766939E+01</totfact>
</mgrwt>
</event>
<event>
 4    1  0.1043382E-007  0.9695706E+03  0.7818608E-02  0.9422498E-01
         -1   -1    0    0    0  501 -0.00000000000E+00  0.00000000000E+00  0.21651089092E+04  0.21651089092E+04  0.50400000000E-02 0.  1.
          1   -1    0    0  501    0  0.00000000000E+00 -0.00000000000E+00 -0.73617003700E+03  0.73617003702E+03  0.50400000000E-02 0. -1.
    8880023    1    1    2    0    0 -0.69596213738E+03 -0.14796479382E+03 -0.30858763370E+03  0.10174936908E+04  0.65864270000E+03 0. -1.
    8880022    1    1    2    0    0  0.69596213738E+03  0.14796479382E+03  0.17375265059E+04  0.18837852555E+04  0.15294330000E+03 0.  0.
<mgrwt>
<rscale>  0 0.90247055E+03</rscale>
<asrwt>0</asrwt>
<pdfrwt beam="1">  1        1 0.11325693E+00 0.96957057E+03</pdfrwt>
<pdfrwt beam="2">  1       -1 0.33309368E+00 0.96957057E+03</pdfrwt>
<totfact> 0.51824797E-01</totfact>
</mgrwt>
</event>
<event>
 4    1  0.1043382E-007  0.6845183E+03  0.7818608E-02  0.1006875E+00
         -1   -1    0    0    0  501 -0.00000000000E+00  0.00000000000E+00  0.14940942604E+03  0.14940942612E+03  0.50400000000E-02 0.  1.
          1   -1    0    0  501    0  0.00000000000E+00 -0.00000000000E+00 -0.21835240028E+04  0.21835240029E+04  0.50400000000E-02 0. -1.
    8880023    1    1    2    0    0  0.55522864810E+02 -0.17796699239E+03 -0.70696552874E+03  0.98405564070E+03  0.65864270000E+03 0.  0.
    8880022    1    1    2    0    0 -0.55522864810E+02  0.17796699239E+03 -0.13271490481E+04  0.13488777883E+04  0.15294330000E+03 0. -1.
<mgrwt>
<rscale>  0 0.52735662E+03</rscale>
<asrwt>0</asrwt>
<pdfrwt beam="1">  1        1 0.33592675E+00 0.68451826E+03</pdfrwt>
<pdfrwt beam="2">  1       -1 0.22986067E-01 0.68451826E+03</pdfrwt>
<totfact> 0.37855778E+01</totfact>
</mgrwt>
</event>
<event>
 4    1  0.1043382E-007  0.1679643E+04  0.7818608E-02  0.8792208E-01
         -1   -1    0    0    0  501 -0.00000000000E+00  0.00000000000E+00  0.14835542392E+04  0.14835542392E+04  0.50400000000E-02 0.  1.
          1   -1    0    0  501    0  0.00000000000E+00 -0.00000000000E+00 -0.22425203717E+04  0.22425203717E+04  0.50400000000E-02 0. -1.
    8880023    1    1    2    0    0  0.13661940013E+04 -0.72173785716E+03 -0.12543098799E+04  0.20963050982E+04  0.65864270000E+03 0.  0.
    8880022    1    1    2    0    0 -0.13661940013E+04  0.72173785716E+03  0.49534374740E+03  0.16297695127E+04  0.15294330000E+03 0.  0.
<mgrwt>
<rscale>  0 0.16469582E+04</rscale>
<asrwt>0</asrwt>
<pdfrwt beam="1">  1        1 0.34500313E+00 0.16796434E+04</pdfrwt>
<pdfrwt beam="2">  1       -1 0.22823911E+00 0.16796434E+04</pdfrwt>
<totfact> 0.18267885E-01</totfact>
</mgrwt>
</event>
<event>
 4    1  0.1043382E-007  0.8651997E+03  0.7818608E-02  0.9584380E-01
          1   -1    0    0  501    0  0.00000000000E+00  0.00000000000E+00  0.12881276111E+04  0.12881276111E+04  0.50400000000E-02 0. -1.
         -1   -1    0    0    0  501 -0.00000000000E+00 -0.00000000000E+00 -0.48940809562E+03  0.48940809565E+03  0.50400000000E-02 0.  1.
    8880023    1    1    2    0    0 -0.40771703533E+03  0.38539222202E+03  0.82492396420E+03  0.11954371998E+04  0.65864270000E+03 0.  0.
    8880022    1    1    2    0    0  0.40771703533E+03 -0.38539222202E+03 -0.26204448692E+02  0.58209850698E+03  0.15294330000E+03 0.  0.
<mgrwt>
<rscale>  0 0.78338684E+03</rscale>
<asrwt>0</asrwt>
<pdfrwt beam="1">  1        1 0.19817348E+00 0.86519972E+03</pdfrwt>
<pdfrwt beam="2">  1       -1 0.75293553E-01 0.86519972E+03</pdfrwt>
<totfact> 0.16661635E+01</totfact>
</mgrwt>
</event>
<event>
 4    1  0.1043382E-007  0.7752754E+03  0.7818608E-02  0.9767054E-01
         -1   -1    0    0    0  501 -0.00000000000E+00  0.00000000000E+00  0.27798371899E+03  0.27798371904E+03  0.50400000000E-02 0.  1.
          1   -1    0    0  501    0  0.00000000000E+00 -0.00000000000E+00 -0.13374747680E+04  0.13374747680E+04  0.50400000000E-02 0. -1.
    8880023    1    1    2    0    0  0.18063478332E+03  0.36689623852E+03 -0.58938436526E+03  0.97387160913E+03  0.65864270000E+03 0.  0.
    8880022    1    1    2    0    0 -0.18063478332E+03 -0.36689623852E+03 -0.47010668372E+03  0.64158687789E+03  0.15294330000E+03 0.  0.
<mgrwt>
<rscale>  0 0.67160960E+03</rscale>
<asrwt>0</asrwt>
<pdfrwt beam="1">  1        1 0.20576534E+00 0.77527542E+03</pdfrwt>
<pdfrwt beam="2">  1       -1 0.42766727E-01 0.77527542E+03</pdfrwt>
<totfact> 0.46912268E+01</totfact>
</mgrwt>
</event>
<event>
 4    1  0.1043382E-007  0.1009296E+04  0.7818608E-02  0.9369495E-01
          1   -1    0    0  501    0  0.00000000000E+00  0.00000000000E+00  0.32850682667E+04  0.32850682667E+04  0.50400000000E-02 0. -1.
         -1   -1    0    0    0  501 -0.00000000000E+00 -0.00000000000E+00 -0.45910164279E+03  0.45910164282E+03  0.50400000000E-02 0.  1.
    8880023    1    1    2    0    0  0.76362193604E+03 -0.41836712227E+02  0.23216746439E+03  0.10356547250E+04  0.65864270000E+03 0.  0.
    8880022    1    1    2    0    0 -0.76362193604E+03  0.41836712227E+02  0.25937991596E+04  0.27085151845E+04  0.15294330000E+03 0.  0.
<mgrwt>
<rscale>  0 0.94629207E+03</rscale>
<asrwt>0</asrwt>
<pdfrwt beam="1">  1        1 0.50539515E+00 0.10092963E+04</pdfrwt>
<pdfrwt beam="2">  1       -1 0.70631018E-01 0.10092963E+04</pdfrwt>
<totfact> 0.76698429E-01</totfact>
</mgrwt>
</event>
<event>
 4    1  0.1043382E-007  0.1253756E+04  0.7818608E-02  0.9106560E-01
         -1   -1    0    0    0  501 -0.00000000000E+00  0.00000000000E+00  0.14320209171E+04  0.14320209171E+04  0.50400000000E-02 0.  1.
          1   -1    0    0  501    0  0.00000000000E+00 -0.00000000000E+00 -0.10577338039E+04  0.10577338039E+04  0.50400000000E-02 0. -1.
    8880023    1    1    2    0    0 -0.64762138971E+03  0.84775033163E+03  0.59798518977E+03  0.13890610435E+04  0.65864270000E+03 0.  0.
    8880022    1    1    2    0    0  0.64762138971E+03 -0.84775033163E+03 -0.22369807650E+03  0.11006936775E+04  0.15294330000E+03 0.  1.
<mgrwt>
<rscale>  0 0.12072203E+04</rscale>
<asrwt>0</asrwt>
<pdfrwt beam="1">  1        1 0.16272828E+00 0.12537561E+04</pdfrwt>
<pdfrwt beam="2">  1       -1 0.22031091E+00 0.12537561E+04</pdfrwt>
<totfact> 0.14578848E+00</totfact>
</mgrwt>
</event>
<event>
 4    1  0.1043382E-007  0.6688829E+03  0.7818608E-02  0.1016477E+00
         -1   -1    0    0    0  501 -0.00000000000E+00  0.00000000000E+00  0.10321328658E+03  0.10321328670E+03  0.50400000000E-02 0.  1.
          1   -1    0    0  501    0  0.00000000000E+00 -0.00000000000E+00 -0.20415647877E+04  0.20415647877E+04  0.50400000000E-02 0. -1.
    8880023    1    1    2    0    0  0.15647640462E+02 -0.11553900871E+03 -0.11234916016E+04  0.13075311454E+04  0.65864270000E+03 0.  1.
    8880022    1    1    2    0    0 -0.15647640462E+02  0.11553900871E+03 -0.81485989952E+03  0.83724692896E+03  0.15294330000E+03 0.  0.
<mgrwt>
<rscale>  0 0.48979787E+03</rscale>
<asrwt>0</asrwt>
<pdfrwt beam="1">  1        1 0.31408686E+00 0.66888289E+03</pdfrwt>
<pdfrwt beam="2">  1       -1 0.15878969E-01 0.66888289E+03</pdfrwt>
<totfact> 0.87103506E+01</totfact>
</mgrwt>
</event>
<event>
 4    1  0.1043382E-007  0.6667734E+03  0.7818608E-02  0.1018090E+00
         -1   -1    0    0    0  501 -0.00000000000E+00  0.00000000000E+00  0.15056965831E+04  0.15056965831E+04  0.50400000000E-02 0.  1.
          1   -1    0    0  501    0  0.00000000000E+00 -0.00000000000E+00 -0.12096827827E+03  0.12096827837E+03  0.50400000000E-02 0. -1.
    8880023    1    1    2    0    0  0.87537361138E+02  0.55800650746E+02  0.11276367427E+04  0.13100195922E+04  0.65864270000E+03 0.  1.
    8880022    1    1    2    0    0 -0.87537361138E+02 -0.55800650746E+02  0.25709156212E+03  0.31664526926E+03  0.15294330000E+03 0. -1.
<mgrwt>
<rscale>  0 0.48382284E+03</rscale>
<asrwt>0</asrwt>
<pdfrwt beam="1">  1        1 0.18610504E-01 0.66677336E+03</pdfrwt>
<pdfrwt beam="2">  1       -1 0.23164564E+00 0.66677336E+03</pdfrwt>
<totfact> 0.27545657E+01</totfact>
</mgrwt>
</event>
<event>
 4    1  0.1043382E-007  0.9185419E+03  0.7818608E-02  0.9496898E-01
         -1   -1    0    0    0  501 -0.00000000000E+00  0.00000000000E+00  0.14611149933E+04  0.14611149933E+04  0.50400000000E-02 0.  1.
          1   -1    0    0  501    0  0.00000000000E+00 -0.00000000000E+00 -0.52557007617E+03  0.52557007619E+03  0.50400000000E-02 0. -1.
    8880023    1    1    2    0    0  0.75534685426E+02  0.63576996224E+03  0.95910665898E+03  0.13280078024E+04  0.65864270000E+03 0.  1.
    8880022    1    1    2    0    0 -0.75534685426E+02 -0.63576996224E+03 -0.23561741807E+02  0.65867726717E+03  0.15294330000E+03 0.  0.
<mgrwt>
<rscale>  0 0.84512874E+03</rscale>
<asrwt>0</asrwt>
<pdfrwt beam="1">  1        1 0.80856935E-01 0.91854186E+03</pdfrwt>
<pdfrwt beam="2">  1       -1 0.22478692E+00 0.91854186E+03</pdfrwt>
<totfact> 0.42932444E+00</totfact>
</mgrwt>
</event>
<event>
 4    1  0.1043382E-007  0.9402020E+03  0.7818608E-02  0.9464354E-01
         -1   -1    0    0    0  501 -0.00000000000E+00  0.00000000000E+00  0.31674630186E+03  0.31674630190E+03  0.50400000000E-02 0.  1.
          1   -1    0    0  501    0  0.00000000000E+00 -0.00000000000E+00 -0.24201887995E+04  0.24201887995E+04  0.50400000000E-02 0. -1.
    8880023    1    1    2    0    0 -0.62498971612E+03 -0.24404398879E+03 -0.69441950978E+03  0.11688448467E+04  0.65864270000E+03 0.  0.
    8880022    1    1    2    0    0  0.62498971612E+03  0.24404398879E+03 -0.14090229879E+04  0.15680902548E+04  0.15294330000E+03 0.  0.
<mgrwt>
<rscale>  0 0.86963679E+03</rscale>
<asrwt>0</asrwt>
<pdfrwt beam="1">  1        1 0.37233673E+00 0.94020201E+03</pdfrwt>
<pdfrwt beam="2">  1       -1 0.48730202E-01 0.94020201E+03</pdfrwt>
<totfact> 0.66478802E+00</totfact>
</mgrwt>
</event>
<event>
 4    1  0.1043382E-007  0.6626363E+03  0.7818608E-02  0.1021604E+00
          1   -1    0    0  501    0  0.00000000000E+00  0.00000000000E+00  0.10451513341E+04  0.10451513341E+04  0.50400000000E-02 0. -1.
         -1   -1    0    0    0  501 -0.00000000000E+00 -0.00000000000E+00 -0.51658520775E+03  0.51658520777E+03  0.50400000000E-02 0.  1.
    8880023    1    1    2    0    0  0.71312725627E+02  0.13827797760E+02 -0.29182861596E+03  0.72405169718E+03  0.65864270000E+03 0.  1.
    8880022    1    1    2    0    0 -0.71312725627E+02 -0.13827797760E+02  0.82039474227E+03  0.83768484467E+03  0.15294330000E+03 0.  0.
<mgrwt>
<rscale>  0 0.47112029E+03</rscale>
<asrwt>0</asrwt>
<pdfrwt beam="1">  1        1 0.16079251E+00 0.66263634E+03</pdfrwt>
<pdfrwt beam="2">  1       -1 0.79474648E-01 0.66263634E+03</pdfrwt>
<totfact> 0.22972793E+01</totfact>
</mgrwt>
</event>
<event>
 4    1  0.1043382E-007  0.7146275E+03  0.7818608E-02  0.9941202E-01
          1   -1    0    0  501    0  0.00000000000E+00  0.00000000000E+00  0.85327511697E+03  0.85327511698E+03  0.50400000000E-02 0. -1.
         -1   -1    0    0    0  501 -0.00000000000E+00 -0.00000000000E+00 -0.80243861495E+03  0.80243861497E+03  0.50400000000E-02 0.  1.
    8880023    1    1    2    0    0 -0.15737663974E+03  0.22828678960E+03 -0.59923569625E+03  0.93261776252E+03  0.65864270000E+03 0.  1.
    8880022    1    1    2    0    0  0.15737663974E+03 -0.22828678960E+03  0.65007219827E+03  0.72309596944E+03  0.15294330000E+03 0.  0.
<mgrwt>
<rscale>  0 0.58305335E+03</rscale>
<asrwt>0</asrwt>
<pdfrwt beam="1">  1        1 0.13127309E+00 0.71462751E+03</pdfrwt>
<pdfrwt beam="2">  1       -1 0.12345210E+00 0.71462751E+03</pdfrwt>
<totfact> 0.11894188E+01</totfact>
</mgrwt>
</event>
<event>
 4    1  0.1122319E-007  0.7324292E+03  0.7818608E-02  0.9882576E-01
          1   -1    0    0  501    0  0.00000000000E+00  0.00000000000E+00  0.97346840981E+03  0.97346840982E+03  0.50400000000E-02 0. -1.
         -1   -1    0    0    0  501 -0.00000000000E+00 -0.00000000000E+00 -0.10645796696E+04  0.10645796696E+04  0.50400000000E-02 0.  1.
    8880023    1    1    2    0    0  0.22187654180E+03 -0.23111265006E+03 -0.89663694492E+03  0.11577608881E+04  0.65864270000E+03 0.  0.
    8880022    1    1    2    0    0 -0.22187654180E+03  0.23111265006E+03  0.80552568511E+03  0.88028719132E+03  0.15294330000E+03 0. -1.
<mgrwt>
<rscale>  0 0.61113217E+03</rscale>
<asrwt>0</asrwt>
<pdfrwt beam="1">  1        1 0.14976437E+00 0.73242915E+03</pdfrwt>
<pdfrwt beam="2">  1       -1 0.16378149E+00 0.73242915E+03</pdfrwt>
<totfact> 0.45190733E+00</totfact>
</mgrwt>
</event>
<event>
 4    1  0.1043382E-007  0.1273111E+04  0.7818608E-02  0.9089135E-01
         -1   -1    0    0    0  501 -0.00000000000E+00  0.00000000000E+00  0.58895865959E+03  0.58895865961E+03  0.50400000000E-02 0.  1.
          1   -1    0    0  501    0  0.00000000000E+00 -0.00000000000E+00 -0.27536837139E+04  0.27536837139E+04  0.50400000000E-02 0. -1.
    8880023    1    1    2    0    0  0.25401267292E+03 -0.10594711018E+04 -0.54558312115E+03  0.13850893841E+04  0.65864270000E+03 0. -1.
    8880022    1    1    2    0    0 -0.25401267292E+03  0.10594711018E+04 -0.16191419331E+04  0.19575529894E+04  0.15294330000E+03 0.  0.
<mgrwt>
<rscale>  0 0.12274831E+04</rscale>
<asrwt>0</asrwt>
<pdfrwt beam="1">  1        1 0.42364364E+00 0.12731110E+04</pdfrwt>
<pdfrwt beam="2">  1       -1 0.90609027E-01 0.12731110E+04</pdfrwt>
<totfact> 0.10533352E+00</totfact>
</mgrwt>
</event>
<event>
 4    1  0.1043382E-007  0.8894833E+03  0.7818608E-02  0.9543130E-01
         -1   -1    0    0    0  501 -0.00000000000E+00  0.00000000000E+00  0.64083004590E+03  0.64083004592E+03  0.50400000000E-02 0.  1.
          1   -1    0    0  501    0  0.00000000000E+00 -0.00000000000E+00 -0.88613617191E+03  0.88613617192E+03  0.50400000000E-02 0. -1.
    8880023    1    1    2    0    0 -0.49393280933E+03  0.33675010207E+03 -0.16584084518E+03  0.90481138563E+03  0.65864270000E+03 0. -1.
    8880022    1    1    2    0    0  0.49393280933E+03 -0.33675010207E+03 -0.79465280824E+02  0.62215483221E+03  0.15294330000E+03 0.  1.
<mgrwt>
<rscale>  0 0.81177378E+03</rscale>
<asrwt>0</asrwt>
<pdfrwt beam="1">  1        1 0.13632864E+00 0.88948325E+03</pdfrwt>
<pdfrwt beam="2">  1       -1 0.98589238E-01 0.88948325E+03</pdfrwt>
<totfact> 0.18631112E+01</totfact>
</mgrwt>
</event>
<event>
 4    1  0.1043382E-007  0.8932546E+03  0.7818608E-02  0.9536948E-01
          1   -1    0    0  501    0  0.00000000000E+00  0.00000000000E+00  0.15548405583E+04  0.15548405583E+04  0.50400000000E-02 0. -1.
         -1   -1    0    0    0  501 -0.00000000000E+00 -0.00000000000E+00 -0.57716887889E+03  0.57716887891E+03  0.50400000000E-02 0.  1.
    8880023    1    1    2    0    0 -0.16399095492E+03 -0.58068970062E+03 -0.88285402660E+02  0.89760686288E+03  0.65864270000E+03 0.  0.
    8880022    1    1    2    0    0  0.16399095492E+03  0.58068970062E+03  0.10659570821E+04  0.12344025744E+04  0.15294330000E+03 0.  0.
<mgrwt>
<rscale>  0 0.81613750E+03</rscale>
<asrwt>0</asrwt>
<pdfrwt beam="1">  1        1 0.23920624E+00 0.89325459E+03</pdfrwt>
<pdfrwt beam="2">  1       -1 0.88795212E-01 0.89325459E+03</pdfrwt>
<totfact> 0.76045798E+00</totfact>
</mgrwt>
</event>
<event>
 4    1  0.1043382E-007  0.7160210E+03  0.7818608E-02  0.9936287E-01
          1   -1    0    0  501    0  0.00000000000E+00  0.00000000000E+00  0.20200012939E+03  0.20200012945E+03  0.50400000000E-02 0. -1.
         -1   -1    0    0    0  501 -0.00000000000E+00 -0.00000000000E+00 -0.16038397238E+04  0.16038397238E+04  0.50400000000E-02 0.  1.
    8880023    1    1    2    0    0  0.30986539506E+02 -0.27913393422E+03 -0.12740326859E+04  0.14614531843E+04  0.65864270000E+03 0.  0.
    8880022    1    1    2    0    0 -0.30986539506E+02  0.27913393422E+03 -0.12780690845E+03  0.34438666891E+03  0.15294330000E+03 0.  0.
<mgrwt>
<rscale>  0 0.58534455E+03</rscale>
<asrwt>0</asrwt>
<pdfrwt beam="1">  1        1 0.31076944E-01 0.71602104E+03</pdfrwt>
<pdfrwt beam="2">  1       -1 0.24674456E+00 0.71602104E+03</pdfrwt>
<totfact> 0.11159435E+01</totfact>
</mgrwt>
</event>
<event>
 4    1  0.1043382E-007  0.9486295E+03  0.7818608E-02  0.9452089E-01
          1   -1    0    0  501    0  0.00000000000E+00  0.00000000000E+00  0.20750335245E+04  0.20750335245E+04  0.50400000000E-02 0. -1.
         -1   -1    0    0    0  501 -0.00000000000E+00 -0.00000000000E+00 -0.37016661743E+03  0.37016661747E+03  0.50400000000E-02 0.  1.
    8880023    1    1    2    0    0 -0.56517746426E+03 -0.38296500017E+03  0.13780639370E+04  0.16730087203E+04  0.65864270000E+03 0.  0.
    8880022    1    1    2    0    0  0.56517746426E+03  0.38296500017E+03  0.32680297008E+03  0.77219142169E+03  0.15294330000E+03 0.  0.
<mgrwt>
<rscale>  0 0.87910202E+03</rscale>
<asrwt>0</asrwt>
<pdfrwt beam="1">  1        1 0.31923593E+00 0.94862952E+03</pdfrwt>
<pdfrwt beam="2">  1       -1 0.56948710E-01 0.94862952E+03</pdfrwt>
<totfact> 0.84270725E+00</totfact>
</mgrwt>
</event>
<event>
 4    1  0.1043382E-007  0.7238472E+03  0.7818608E-02  0.9909777E-01
          1   -1    0    0  501    0  0.00000000000E+00  0.00000000000E+00  0.74142573959E+03  0.74142573961E+03  0.50400000000E-02 0. -1.
         -1   -1    0    0    0  501 -0.00000000000E+00 -0.00000000000E+00 -0.48535533297E+03  0.48535533299E+03  0.50400000000E-02 0.  1.
    8880023    1    1    2    0    0 -0.21551081848E+03 -0.20904458427E+03 -0.10669690783E+03  0.73166863230E+03  0.65864270000E+03 0.  0.
    8880022    1    1    2    0    0  0.21551081848E+03  0.20904458427E+03  0.36276731445E+03  0.49511244030E+03  0.15294330000E+03 0.  0.
<mgrwt>
<rscale>  0 0.59789782E+03</rscale>
<asrwt>0</asrwt>
<pdfrwt beam="1">  1        1 0.11406550E+00 0.72384719E+03</pdfrwt>
<pdfrwt beam="2">  1       -1 0.74670052E-01 0.72384719E+03</pdfrwt>
<totfact> 0.46144516E+01</totfact>
</mgrwt>
</event>
<event>
 4    1  0.1043382E-007  0.7109259E+03  0.7818608E-02  0.9954579E-01
         -1   -1    0    0    0  501 -0.00000000000E+00  0.00000000000E+00  0.38033643372E+03  0.38033643376E+03  0.50400000000E-02 0.  1.
          1   -1    0    0  501    0  0.00000000000E+00 -0.00000000000E+00 -0.13259095820E+04  0.13259095820E+04  0.50400000000E-02 0. -1.
    8880023    1    1    2    0    0  0.84709639337E+02 -0.25383016849E+03  0.82211185592E+00  0.71092640939E+03  0.65864270000E+03 0.  1.
    8880022    1    1    2    0    0 -0.84709639337E+02  0.25383016849E+03 -0.94639526014E+03  0.99531960639E+03  0.15294330000E+03 0.  0.
<mgrwt>
<rscale>  0 0.57687548E+03</rscale>
<asrwt>0</asrwt>
<pdfrwt beam="1">  1        1 0.20398609E+00 0.71092593E+03</pdfrwt>
<pdfrwt beam="2">  1       -1 0.58513298E-01 0.71092593E+03</pdfrwt>
<totfact> 0.26577726E+01</totfact>
</mgrwt>
</event>
<event>
 4    1  0.1043382E-007  0.1075846E+04  0.7818608E-02  0.9288437E-01
          1   -1    0    0  501    0  0.00000000000E+00  0.00000000000E+00  0.26480673028E+04  0.26480673028E+04  0.50400000000E-02 0. -1.
         -1   -1    0    0    0  501 -0.00000000000E+00 -0.00000000000E+00 -0.57332261901E+03  0.57332261903E+03  0.50400000000E-02 0.  1.
    8880023    1    1    2    0    0  0.83443702495E+03 -0.16537659280E+03  0.20969158051E+04  0.23567988175E+04  0.65864270000E+03 0. -1.
    8880022    1    1    2    0    0 -0.83443702495E+03  0.16537659280E+03 -0.22171121355E+02  0.86459110433E+03  0.15294330000E+03 0.  0.
<mgrwt>
<rscale>  0 0.10185435E+04</rscale>
<asrwt>0</asrwt>
<pdfrwt beam="1">  1        1 0.40739497E+00 0.10758461E+04</pdfrwt>
<pdfrwt beam="2">  1       -1 0.88203479E-01 0.10758461E+04</pdfrwt>
<totfact> 0.13613412E+00</totfact>
</mgrwt>
</event>
<event>
 4    1  0.1043382E-007  0.7430772E+03  0.7818608E-02  0.9851072E-01
          1   -1    0    0  501    0  0.00000000000E+00  0.00000000000E+00  0.33123792044E+03  0.33123792048E+03  0.50400000000E-02 0. -1.
         -1   -1    0    0    0  501 -0.00000000000E+00 -0.00000000000E+00 -0.10732385421E+04  0.10732385422E+04  0.50400000000E-02 0.  1.
    8880023    1    1    2    0    0 -0.10708546123E+03  0.32693451566E+03 -0.70814581451E+03  0.10264668404E+04  0.65864270000E+03 0.  1.
    8880022    1    1    2    0    0  0.10708546123E+03 -0.32693451566E+03 -0.33854807198E+02  0.37800962226E+03  0.15294330000E+03 0.  0.
<mgrwt>
<rscale>  0 0.62692264E+03</rscale>
<asrwt>0</asrwt>
<pdfrwt beam="1">  1        1 0.50959681E-01 0.74307717E+03</pdfrwt>
<pdfrwt beam="2">  1       -1 0.16511362E+00 0.74307717E+03</pdfrwt>
<totfact> 0.21134236E+01</totfact>
</mgrwt>
</event>
<event>
 4    1  0.1043382E-007  0.6636292E+03  0.7818608E-02  0.1020712E+00
          1   -1    0    0  501    0  0.00000000000E+00  0.00000000000E+00  0.16415624788E+03  0.16415624796E+03  0.50400000000E-02 0. -1.
         -1   -1    0    0    0  501 -0.00000000000E+00 -0.00000000000E+00 -0.13158127826E+04  0.13158127826E+04  0.50400000000E-02 0.  1.
    8880023    1    1    2    0    0  0.30369676722E+02  0.75307012804E+02 -0.11230339037E+04  0.13044572889E+04  0.65864270000E+03 0.  0.
    8880022    1    1    2    0    0 -0.30369676722E+02 -0.75307012804E+02 -0.28622631004E+02  0.17551174166E+03  0.15294330000E+03 0.  0.
<mgrwt>
<rscale>  0 0.47430458E+03</rscale>
<asrwt>0</asrwt>
<pdfrwt beam="1">  1        1 0.25254808E-01 0.66362917E+03</pdfrwt>
<pdfrwt beam="2">  1       -1 0.20243273E+00 0.66362917E+03</pdfrwt>
<totfact> 0.28828064E+01</totfact>
</mgrwt>
</event>
<event>
 4    1  0.1043382E-007  0.7009838E+03  0.7818608E-02  0.9993144E-01
          1   -1    0    0  501    0  0.00000000000E+00  0.00000000000E+00  0.13189011588E+04  0.13189011588E+04  0.50400000000E-02 0. -1.
         -1   -1    0    0    0  501 -0.00000000000E+00 -0.00000000000E+00 -0.19379644456E+03  0.19379644462E+03  0.50400000000E-02 0.  1.
    8880023    1    1    2    0    0  0.13442966460E+03  0.19873792104E+03  0.63422112673E+03  0.94531198016E+03  0.65864270000E+03 0.  0.
    8880022    1    1    2    0    0 -0.13442966460E+03 -0.19873792104E+03  0.49088358748E+03  0.56738562323E+03  0.15294330000E+03 0.  1.
<mgrwt>
<rscale>  0 0.55951874E+03</rscale>
<asrwt>0</asrwt>
<pdfrwt beam="1">  1        1 0.20290787E+00 0.70098381E+03</pdfrwt>
<pdfrwt beam="2">  1       -1 0.29814837E-01 0.70098381E+03</pdfrwt>
<totfact> 0.92817320E+01</totfact>
</mgrwt>
</event>
<event>
 4    1  0.1043382E-007  0.7062675E+03  0.7818608E-02  0.9972132E-01
         -1   -1    0    0    0  501 -0.00000000000E+00  0.00000000000E+00  0.10531243030E+04  0.10531243030E+04  0.50400000000E-02 0.  1.
          1   -1    0    0  501    0  0.00000000000E+00 -0.00000000000E+00 -0.59385707502E+03  0.59385707504E+03  0.50400000000E-02 0. -1.
    8880023    1    1    2    0    0  0.23320765589E+03 -0.10304239550E+03  0.88214871328E+03  0.11300442932E+04  0.65864270000E+03 0.  1.
    8880022    1    1    2    0    0 -0.23320765589E+03  0.10304239550E+03 -0.42288148531E+03  0.51693708483E+03  0.15294330000E+03 0.  0.
<mgrwt>
<rscale>  0 0.56889287E+03</rscale>
<asrwt>0</asrwt>
<pdfrwt beam="1">  1        1 0.91362628E-01 0.70626748E+03</pdfrwt>
<pdfrwt beam="2">  1       -1 0.16201912E+00 0.70626748E+03</pdfrwt>
<totfact> 0.10165050E+01</totfact>
</mgrwt>
</event>
<event>
 4    1  0.1043382E-007  0.1103115E+04  0.7818608E-02  0.9257596E-01
          1   -1    0    0  501    0  0.00000000000E+00  0.00000000000E+00  0.23825089859E+04  0.23825089859E+04  0.50400000000E-02 0. -1.
         -1   -1    0    0    0  501 -0.00000000000E+00 -0.00000000000E+00 -0.65974637494E+03  0.65974637495E+03  0.50400000000E-02 0.  1.
    8880023    1    1    2    0    0 -0.36388355395E+03 -0.80662321651E+03  0.41025889029E+01  0.11031225189E+04  0.65864270000E+03 0.  0.
    8880022    1    1    2    0    0  0.36388355395E+03  0.80662321651E+03  0.17186600221E+04  0.19391328419E+04  0.15294330000E+03 0.  0.
<mgrwt>
<rscale>  0 0.10478216E+04</rscale>
<asrwt>0</asrwt>
<pdfrwt beam="1">  1        1 0.36653984E+00 0.11031149E+04</pdfrwt>
<pdfrwt beam="2">  1       -1 0.10149944E+00 0.11031149E+04</pdfrwt>
<totfact> 0.15068687E+00</totfact>
</mgrwt>
</event>
<event>
 4    1  0.1043382E-007  0.7405565E+03  0.7818608E-02  0.9858329E-01
          1   -1    0    0  501    0  0.00000000000E+00  0.00000000000E+00  0.16134959920E+04  0.16134959920E+04  0.50400000000E-02 0. -1.
         -1   -1    0    0    0  501 -0.00000000000E+00 -0.00000000000E+00 -0.22881674649E+03  0.22881674654E+03  0.50400000000E-02 0.  1.
    8880023    1    1    2    0    0 -0.25932218855E+03  0.21763656502E+03  0.53084618479E+03  0.91116494121E+03  0.65864270000E+03 0.  1.
    8880022    1    1    2    0    0  0.25932218855E+03 -0.21763656502E+03  0.85383306073E+03  0.93114779735E+03  0.15294330000E+03 0.  0.
<mgrwt>
<rscale>  0 0.62324042E+03</rscale>
<asrwt>0</asrwt>
<pdfrwt beam="1">  1        1 0.24823016E+00 0.74055647E+03</pdfrwt>
<pdfrwt beam="2">  1       -1 0.35202576E-01 0.74055647E+03</pdfrwt>
<totfact> 0.43263241E+01</totfact>
</mgrwt>
</event>
<event>
 4    1  0.1043382E-007  0.6999216E+03  0.7818608E-02  0.9997527E-01
         -1   -1    0    0    0  501 -0.00000000000E+00  0.00000000000E+00  0.61306578946E+03  0.61306578948E+03  0.50400000000E-02 0.  1.
          1   -1    0    0  501    0  0.00000000000E+00 -0.00000000000E+00 -0.76739590466E+03  0.76739590468E+03  0.50400000000E-02 0. -1.
    8880023    1    1    2    0    0 -0.23631333496E+03  0.15362602853E+02  0.36513013310E+03  0.78943664864E+03  0.65864270000E+03 0.  1.
    8880022    1    1    2    0    0  0.23631333496E+03 -0.15362602853E+02 -0.51946024831E+03  0.59102504552E+03  0.15294330000E+03 0.  0.
<mgrwt>
<rscale>  0 0.55758819E+03</rscale>
<asrwt>0</asrwt>
<pdfrwt beam="1">  1        1 0.11806091E+00 0.69992157E+03</pdfrwt>
<pdfrwt beam="2">  1       -1 0.94317814E-01 0.69992157E+03</pdfrwt>
<totfact> 0.26525348E+01</totfact>
</mgrwt>
</event>
<event>
 4    1  0.1043382E-007  0.8960888E+03  0.7818608E-02  0.9532340E-01
         -1   -1    0    0    0  501 -0.00000000000E+00  0.00000000000E+00  0.43563356821E+03  0.43563356824E+03  0.50400000000E-02 0.  1.
          1   -1    0    0  501    0  0.00000000000E+00 -0.00000000000E+00 -0.28863694748E+04  0.28863694748E+04  0.50400000000E-02 0. -1.
    8880023    1    1    2    0    0 -0.39603126734E+03  0.46078641711E+03 -0.11469472837E+03  0.90339912214E+03  0.65864270000E+03 0.  1.
    8880022    1    1    2    0    0  0.39603126734E+03 -0.46078641711E+03 -0.23360411782E+04  0.24186039209E+04  0.15294330000E+03 0.  0.
<mgrwt>
<rscale>  0 0.81940961E+03</rscale>
<asrwt>0</asrwt>
<pdfrwt beam="1">  1        1 0.44405683E+00 0.89608878E+03</pdfrwt>
<pdfrwt beam="2">  1       -1 0.67020551E-01 0.89608878E+03</pdfrwt>
<totfact> 0.17006642E+00</totfact>
</mgrwt>
</event>
<event>
 4    1  0.1043382E-007  0.7659285E+03  0.7818608E-02  0.9789994E-01
          1   -1    0    0  501    0  0.00000000000E+00  0.00000000000E+00  0.99994636007E+03  0.99994636008E+03  0.50400000000E-02 0. -1.
         -1   -1    0    0    0  501 -0.00000000000E+00 -0.00000000000E+00 -0.17242053452E+04  0.17242053452E+04  0.50400000000E-02 0.  1.
    8880023    1    1    2    0    0  0.36482091969E+03 -0.14050588436E+03 -0.15884092309E+04  0.17634313988E+04  0.65864270000E+03 0.  1.
    8880022    1    1    2    0    0 -0.36482091969E+03  0.14050588436E+03  0.86415024582E+03  0.96072030651E+03  0.15294330000E+03 0.  0.
<mgrwt>
<rscale>  0 0.65902286E+03</rscale>
<asrwt>0</asrwt>
<pdfrwt beam="1">  1        1 0.15383790E+00 0.76592846E+03</pdfrwt>
<pdfrwt beam="2">  1       -1 0.26526236E+00 0.76592846E+03</pdfrwt>
<totfact> 0.88219664E-01</totfact>
</mgrwt>
</event>
<event>
 4    1  0.1043382E-007  0.8179680E+03  0.7818608E-02  0.9673213E-01
         -1   -1    0    0    0  501 -0.00000000000E+00  0.00000000000E+00  0.14994836499E+04  0.14994836499E+04  0.50400000000E-02 0.  1.
          1   -1    0    0  501    0  0.00000000000E+00 -0.00000000000E+00 -0.64738992400E+03  0.64738992401E+03  0.50400000000E-02 0. -1.
    8880023    1    1    2    0    0  0.48041223903E+03  0.66824010800E+02  0.12550054572E+04  0.14980354708E+04  0.65864270000E+03 0.  1.
    8880022    1    1    2    0    0 -0.48041223903E+03 -0.66824010800E+02 -0.40291173131E+03  0.64883810313E+03  0.15294330000E+03 0.  0.
<mgrwt>
<rscale>  0 0.72634326E+03</rscale>
<asrwt>0</asrwt>
<pdfrwt beam="1">  1        1 0.99598450E-01 0.81796795E+03</pdfrwt>
<pdfrwt beam="2">  1       -1 0.23068979E+00 0.81796795E+03</pdfrwt>
<totfact> 0.29499446E+00</totfact>
</mgrwt>
</event>
<event>
 4    1  0.1043382E-007  0.7952545E+03  0.7818608E-02  0.9721152E-01
         -1   -1    0    0    0  501 -0.00000000000E+00  0.00000000000E+00  0.38979497546E+03  0.38979497549E+03  0.50400000000E-02 0.  1.
          1   -1    0    0  501    0  0.00000000000E+00 -0.00000000000E+00 -0.12638081442E+04  0.12638081442E+04  0.50400000000E-02 0. -1.
    8880023    1    1    2    0    0  0.36182515566E+03  0.26019608276E+03 -0.18101584050E+03  0.81559572432E+03  0.65864270000E+03 0.  1.
    8880022    1    1    2    0    0 -0.36182515566E+03 -0.26019608276E+03 -0.69299732820E+03  0.83800739535E+03  0.15294330000E+03 0. -1.
<mgrwt>
<rscale>  0 0.69771236E+03</rscale>
<asrwt>0</asrwt>
<pdfrwt beam="1">  1        1 0.19443202E+00 0.79525446E+03</pdfrwt>
<pdfrwt beam="2">  1       -1 0.59968458E-01 0.79525446E+03</pdfrwt>
<totfact> 0.27742888E+01</totfact>
</mgrwt>
</event>
<event>
 4    1  0.1043382E-007  0.6891239E+03  0.7818608E-02  0.1004572E+00
         -1   -1    0    0    0  501 -0.00000000000E+00  0.00000000000E+00  0.40536738709E+03  0.40536738712E+03  0.50400000000E-02 0.  1.
          1   -1    0    0  501    0  0.00000000000E+00 -0.00000000000E+00 -0.14087650194E+04  0.14087650194E+04  0.50400000000E-02 0. -1.
    8880023    1    1    2    0    0  0.18953213639E+03 -0.71826669179E+02  0.86970047691E+02  0.69459016448E+03  0.65864270000E+03 0.  1.
    8880022    1    1    2    0    0 -0.18953213639E+03  0.71826669179E+02 -0.10903676800E+04  0.11195422420E+04  0.15294330000E+03 0.  0.
<mgrwt>
<rscale>  0 0.53690239E+03</rscale>
<asrwt>0</asrwt>
<pdfrwt beam="1">  1        1 0.21673308E+00 0.68912387E+03</pdfrwt>
<pdfrwt beam="2">  1       -1 0.62364214E-01 0.68912387E+03</pdfrwt>
<totfact> 0.20582091E+01</totfact>
</mgrwt>
</event>
<event>
 4    1  0.1043382E-007  0.7603102E+03  0.7818608E-02  0.9804305E-01
          1   -1    0    0  501    0  0.00000000000E+00  0.00000000000E+00  0.17198554166E+04  0.17198554166E+04  0.50400000000E-02 0. -1.
         -1   -1    0    0    0  501 -0.00000000000E+00 -0.00000000000E+00 -0.35099416520E+03  0.35099416524E+03  0.50400000000E-02 0.  1.
    8880023    1    1    2    0    0 -0.37757805885E+03  0.41184319663E+02  0.13678299744E+03  0.77251610557E+03  0.65864270000E+03 0.  1.
    8880022    1    1    2    0    0  0.37757805885E+03 -0.41184319663E+02  0.12320782539E+04  0.12983334763E+04  0.15294330000E+03 0.  0.
<mgrwt>
<rscale>  0 0.65132014E+03</rscale>
<asrwt>0</asrwt>
<pdfrwt beam="1">  1        1 0.26459314E+00 0.76031016E+03</pdfrwt>
<pdfrwt beam="2">  1       -1 0.53999102E-01 0.76031016E+03</pdfrwt>
<totfact> 0.16587227E+01</totfact>
</mgrwt>
</event>
<event>
 4    1  0.1043382E-007  0.8680849E+03  0.7818608E-02  0.9579341E-01
          1   -1    0    0  501    0  0.00000000000E+00  0.00000000000E+00  0.87419936851E+03  0.87419936853E+03  0.50400000000E-02 0. -1.
         -1   -1    0    0    0  501 -0.00000000000E+00 -0.00000000000E+00 -0.91186882906E+03  0.91186882907E+03  0.50400000000E-02 0.  1.
    8880023    1    1    2    0    0 -0.30439386267E+03  0.47655587855E+03 -0.53323195642E+03  0.10187775295E+04  0.65864270000E+03 0.  0.
    8880022    1    1    2    0    0  0.30439386267E+03 -0.47655587855E+03  0.49556249588E+03  0.76729066810E+03  0.15294330000E+03 0.  0.
<mgrwt>
<rscale>  0 0.78678773E+03</rscale>
<asrwt>0</asrwt>
<pdfrwt beam="1">  1        1 0.13449221E+00 0.86808487E+03</pdfrwt>
<pdfrwt beam="2">  1       -1 0.14028751E+00 0.86808487E+03</pdfrwt>
<totfact> 0.81042759E+00</totfact>
</mgrwt>
</event>
<event>
 4    1  0.1043382E-007  0.6819112E+03  0.7818608E-02  0.1008263E+00
         -1   -1    0    0    0  501 -0.00000000000E+00  0.00000000000E+00  0.16382201561E+03  0.16382201569E+03  0.50400000000E-02 0.  1.
          1   -1    0    0  501    0  0.00000000000E+00 -0.00000000000E+00 -0.20150349399E+04  0.20150349399E+04  0.50400000000E-02 0. -1.
    8880023    1    1    2    0    0  0.10822846115E+03 -0.13956813598E+03 -0.60711663727E+03  0.91301340729E+03  0.65864270000E+03 0.  1.
    8880022    1    1    2    0    0 -0.10822846115E+03  0.13956813598E+03 -0.12440962870E+04  0.12658435483E+04  0.15294330000E+03 0.  0.
<mgrwt>
<rscale>  0 0.52171022E+03</rscale>
<asrwt>0</asrwt>
<pdfrwt beam="1">  1        1 0.31000536E+00 0.68191119E+03</pdfrwt>
<pdfrwt beam="2">  1       -1 0.25203388E-01 0.68191119E+03</pdfrwt>
<totfact> 0.41978604E+01</totfact>
</mgrwt>
</event>
<event>
 4    1  0.1051519E-007  0.7861714E+03  0.7818608E-02  0.9741535E-01
          1   -1    0    0  501    0  0.00000000000E+00  0.00000000000E+00  0.16975354703E+04  0.16975354703E+04  0.50400000000E-02 0. -1.
         -1   -1    0    0    0  501 -0.00000000000E+00 -0.00000000000E+00 -0.73543347297E+03  0.73543347299E+03  0.50400000000E-02 0.  1.
    8880023    1    1    2    0    0  0.41498131170E+03  0.10975306132E+03 -0.47963594951E+03  0.92093217658E+03  0.65864270000E+03 0.  1.
    8880022    1    1    2    0    0 -0.41498131170E+03 -0.10975306132E+03  0.14417379468E+04  0.15120367667E+04  0.15294330000E+03 0.  0.
<mgrwt>
<rscale>  0 0.68596759E+03</rscale>
<asrwt>0</asrwt>
<pdfrwt beam="1">  1        1 0.26115930E+00 0.78617137E+03</pdfrwt>
<pdfrwt beam="2">  1       -1 0.11314361E+00 0.78617137E+03</pdfrwt>
<totfact> 0.35514093E+00</totfact>
</mgrwt>
</event>
<event>
 4    1  0.1043382E-007  0.6768040E+03  0.7818608E-02  0.1011192E+00
          1   -1    0    0  501    0  0.00000000000E+00  0.00000000000E+00  0.78487051866E+03  0.78487051868E+03  0.50400000000E-02 0. -1.
         -1   -1    0    0    0  501 -0.00000000000E+00 -0.00000000000E+00 -0.65268861025E+03  0.65268861027E+03  0.50400000000E-02 0.  1.
    8880023    1    1    2    0    0  0.66393788410E+02  0.14087342556E+03 -0.45204691889E+03  0.81388579071E+03  0.65864270000E+03 0.  1.
    8880022    1    1    2    0    0 -0.66393788410E+02 -0.14087342556E+03  0.58422882730E+03  0.62367333824E+03  0.15294330000E+03 0.  0.
<mgrwt>
<rscale>  0 0.51003442E+03</rscale>
<asrwt>0</asrwt>
<pdfrwt beam="1">  1        1 0.12074931E+00 0.67680401E+03</pdfrwt>
<pdfrwt beam="2">  1       -1 0.10041363E+00 0.67680401E+03</pdfrwt>
<totfact> 0.22295274E+01</totfact>
</mgrwt>
</event>
<event>
 4    1  0.1043382E-007  0.8719317E+03  0.7818608E-02  0.9572682E-01
          1   -1    0    0  501    0  0.00000000000E+00  0.00000000000E+00  0.15331268905E+04  0.15331268905E+04  0.50400000000E-02 0. -1.
         -1   -1    0    0    0  501 -0.00000000000E+00 -0.00000000000E+00 -0.38466393350E+03  0.38466393353E+03  0.50400000000E-02 0.  1.
    8880023    1    1    2    0    0  0.34557757698E+03  0.45500646826E+03  0.38794219251E+03  0.95433961400E+03  0.65864270000E+03 0.  0.
    8880022    1    1    2    0    0 -0.34557757698E+03 -0.45500646826E+03  0.76052076449E+03  0.96345121002E+03  0.15294330000E+03 0.  0.
<mgrwt>
<rscale>  0 0.79130979E+03</rscale>
<asrwt>0</asrwt>
<pdfrwt beam="1">  1        1 0.23586567E+00 0.87193174E+03</pdfrwt>
<pdfrwt beam="2">  1       -1 0.59179067E-01 0.87193174E+03</pdfrwt>
<totfact> 0.18316529E+01</totfact>
</mgrwt>
</event>
<event>
 4    1  0.1043382E-007  0.7385884E+03  0.7818608E-02  0.9864078E-01
         -1   -1    0    0    0  501 -0.00000000000E+00  0.00000000000E+00  0.43226095941E+03  0.43226095944E+03  0.50400000000E-02 0.  1.
          1   -1    0    0  501    0  0.00000000000E+00 -0.00000000000E+00 -0.10416217534E+04  0.10416217534E+04  0.50400000000E-02 0. -1.
    8880023    1    1    2    0    0 -0.31204878117E+03  0.11970017186E+03  0.26911948031E+02  0.73907850204E+03  0.65864270000E+03 0.  1.
    8880022    1    1    2    0    0  0.31204878117E+03 -0.11970017186E+03 -0.63627274199E+03  0.73480421079E+03  0.15294330000E+03 0. -1.
<mgrwt>
<rscale>  0 0.62034237E+03</rscale>
<asrwt>0</asrwt>
<pdfrwt beam="1">  1        1 0.16024950E+00 0.73858837E+03</pdfrwt>
<pdfrwt beam="2">  1       -1 0.66501686E-01 0.73858837E+03</pdfrwt>
<totfact> 0.33088162E+01</totfact>
</mgrwt>
</event>
<event>
 4    1  0.1043382E-007  0.6696266E+03  0.7818608E-02  0.1015932E+00
          1   -1    0    0  501    0  0.00000000000E+00  0.00000000000E+00  0.72467137484E+03  0.72467137486E+03  0.50400000000E-02 0. -1.
         -1   -1    0    0    0  501 -0.00000000000E+00 -0.00000000000E+00 -0.64885257026E+03  0.64885257028E+03  0.50400000000E-02 0.  1.
    8880023    1    1    2    0    0  0.10354817047E+03 -0.62187898160E+02 -0.45398455549E+03  0.80901281891E+03  0.65864270000E+03 0.  0.
    8880022    1    1    2    0    0 -0.10354817047E+03  0.62187898160E+02  0.52980336007E+03  0.56451112623E+03  0.15294330000E+03 0.  0.
<mgrwt>
<rscale>  0 0.49183634E+03</rscale>
<asrwt>0</asrwt>
<pdfrwt beam="1">  1        1 0.11148790E+00 0.66962659E+03</pdfrwt>
<pdfrwt beam="2">  1       -1 0.99823472E-01 0.66962659E+03</pdfrwt>
<totfact> 0.25596840E+01</totfact>
</mgrwt>
</event>
<event>
 4    1  0.1043382E-007  0.7479522E+03  0.7818608E-02  0.9837360E-01
          1   -1    0    0  501    0  0.00000000000E+00  0.00000000000E+00  0.36897249432E+04  0.36897249432E+04  0.50400000000E-02 0. -1.
         -1   -1    0    0    0  501 -0.00000000000E+00 -0.00000000000E+00 -0.12597396813E+03  0.12597396823E+03  0.50400000000E-02 0.  1.
    8880023    1    1    2    0    0  0.35422819312E+03 -0.12025271310E+02  0.11537671419E+04  0.13749949251E+04  0.65864270000E+03 0.  0.
    8880022    1    1    2    0    0 -0.35422819312E+03  0.12025271310E+02  0.24099838331E+04  0.24407039863E+04  0.15294330000E+03 0.  0.
<mgrwt>
<rscale>  0 0.63395539E+03</rscale>
<asrwt>0</asrwt>
<pdfrwt beam="1">  1        1 0.56764988E+00 0.74795216E+03</pdfrwt>
<pdfrwt beam="2">  1       -1 0.19380614E-01 0.74795216E+03</pdfrwt>
<totfact> 0.41164132E+00</totfact>
</mgrwt>
</event>
<event>
 4    1  0.1043382E-007  0.9244093E+03  0.7818608E-02  0.9487931E-01
          1   -1    0    0  501    0  0.00000000000E+00  0.00000000000E+00  0.87668713970E+03  0.87668713971E+03  0.50400000000E-02 0. -1.
         -1   -1    0    0    0  501 -0.00000000000E+00 -0.00000000000E+00 -0.10817007105E+04  0.10817007105E+04  0.50400000000E-02 0.  1.
    8880023    1    1    2    0    0 -0.63987590907E+03 -0.10621322897E+03 -0.67353268891E+03  0.11437564943E+04  0.65864270000E+03 0.  0.
    8880022    1    1    2    0    0  0.63987590907E+03  0.10621322897E+03  0.46851911809E+03  0.81463135592E+03  0.15294330000E+03 0.  0.
<mgrwt>
<rscale>  0 0.85179495E+03</rscale>
<asrwt>0</asrwt>
<pdfrwt beam="1">  1        1 0.13487495E+00 0.92440934E+03</pdfrwt>
<pdfrwt beam="2">  1       -1 0.16641549E+00 0.92440934E+03</pdfrwt>
<totfact> 0.50330372E+00</totfact>
</mgrwt>
</event>
<event>
 4    1  0.1096102E-007  0.9288233E+03  0.7818608E-02  0.9481261E-01
         -1   -1    0    0    0  501 -0.00000000000E+00  0.00000000000E+00  0.12376868632E+04  0.12376868632E+04  0.50400000000E-02 0.  1.
          1   -1    0    0  501    0  0.00000000000E+00 -0.00000000000E+00 -0.21080463903E+04  0.21080463903E+04  0.50400000000E-02 0. -1.
    8880023    1    1    2    0    0  0.18354834964E+03  0.62865931351E+03  0.99600976199E+03  0.13618913985E+04  0.65864270000E+03 0.  1.
    8880022    1    1    2    0    0 -0.18354834964E+03 -0.62865931351E+03 -0.18663692892E+04  0.19838418550E+04  0.15294330000E+03 0.  0.
<mgrwt>
<rscale>  0 0.85679605E+03</rscale>
<asrwt>0</asrwt>
<pdfrwt beam="1">  1        1 0.32431483E+00 0.92882331E+03</pdfrwt>
<pdfrwt beam="2">  1       -1 0.19041336E+00 0.92882331E+03</pdfrwt>
<totfact> 0.45355822E-01</totfact>
</mgrwt>
</event>
<event>
 4    1  0.1043382E-007  0.7082809E+03  0.7818608E-02  0.9964441E-01
         -1   -1    0    0    0  501 -0.00000000000E+00  0.00000000000E+00  0.13979063448E+03  0.13979063458E+03  0.50400000000E-02 0.  1.
          1   -1    0    0  501    0  0.00000000000E+00 -0.00000000000E+00 -0.27886494666E+04  0.27886494666E+04  0.50400000000E-02 0. -1.
    8880023    1    1    2    0    0  0.15274053456E+02 -0.26003513324E+03 -0.24866974014E+04  0.25855996866E+04  0.65864270000E+03 0.  0.
    8880022    1    1    2    0    0 -0.15274053456E+02  0.26003513324E+03 -0.16216143078E+03  0.34284041459E+03  0.15294330000E+03 0.  0.
<mgrwt>
<rscale>  0 0.57237309E+03</rscale>
<asrwt>0</asrwt>
<pdfrwt beam="1">  1        1 0.42902295E+00 0.70828086E+03</pdfrwt>
<pdfrwt beam="2">  1       -1 0.21506254E-01 0.70828086E+03</pdfrwt>
<totfact> 0.16310427E+01</totfact>
</mgrwt>
</event>
<event>
 4    1  0.1043382E-007  0.7395476E+03  0.7818608E-02  0.9861267E-01
          1   -1    0    0  501    0  0.00000000000E+00  0.00000000000E+00  0.42420838983E+03  0.42420838986E+03  0.50400000000E-02 0. -1.
         -1   -1    0    0    0  501 -0.00000000000E+00 -0.00000000000E+00 -0.10107438899E+04  0.10107438899E+04  0.50400000000E-02 0.  1.
    8880023    1    1    2    0    0 -0.44739156337E+02 -0.33334488455E+03 -0.72948512419E+03  0.10387873492E+04  0.65864270000E+03 0.  0.
    8880022    1    1    2    0    0  0.44739156337E+02  0.33334488455E+03  0.14294962412E+03  0.39616493057E+03  0.15294330000E+03 0.  0.
<mgrwt>
<rscale>  0 0.62175740E+03</rscale>
<asrwt>0</asrwt>
<pdfrwt beam="1">  1        1 0.65262830E-01 0.73954757E+03</pdfrwt>
<pdfrwt beam="2">  1       -1 0.15549906E+00 0.73954757E+03</pdfrwt>
<totfact> 0.18027042E+01</totfact>
</mgrwt>
</event>
<event>
 4    1  0.1043382E-007  0.6742963E+03  0.7818608E-02  0.1012754E+00
         -1   -1    0    0    0  501 -0.00000000000E+00  0.00000000000E+00  0.93367153205E+03  0.93367153206E+03  0.50400000000E-02 0.  1.
          1   -1    0    0  501    0  0.00000000000E+00 -0.00000000000E+00 -0.74515738173E+03  0.74515738175E+03  0.50400000000E-02 0. -1.
    8880023    1    1    2    0    0  0.46915489112E+02  0.13661728510E+03  0.79174381819E+03  0.10399681849E+04  0.65864270000E+03 0.  1.
    8880022    1    1    2    0    0 -0.46915489112E+02 -0.13661728510E+03 -0.60322966788E+03  0.63886072890E+03  0.15294330000E+03 0.  0.
<mgrwt>
<rscale>  0 0.50394814E+03</rscale>
<asrwt>0</asrwt>
<pdfrwt beam="1">  1        1 0.11463960E+00 0.67429634E+03</pdfrwt>
<pdfrwt beam="2">  1       -1 0.14364177E+00 0.67429634E+03</pdfrwt>
<totfact> 0.10097658E+01</totfact>
</mgrwt>
</event>
<event>
 4    1  0.1043382E-007  0.1043956E+04  0.7818608E-02  0.9326182E-01
          1   -1    0    0  501    0  0.00000000000E+00  0.00000000000E+00  0.16143205491E+04  0.16143205491E+04  0.50400000000E-02 0. -1.
         -1   -1    0    0    0  501 -0.00000000000E+00 -0.00000000000E+00 -0.58224380097E+03  0.58224380100E+03  0.50400000000E-02 0.  1.
    8880023    1    1    2    0    0  0.42134934910E+03  0.69173623640E+03  0.28025377918E+03  0.10809193688E+04  0.65864270000E+03 0.  0.
    8880022    1    1    2    0    0 -0.42134934910E+03 -0.69173623640E+03  0.75182296890E+03  0.11156449813E+04  0.15294330000E+03 0.  0.
<mgrwt>
<rscale>  0 0.98407787E+03</rscale>
<asrwt>0</asrwt>
<pdfrwt beam="1">  1        1 0.24835701E+00 0.10439562E+04</pdfrwt>
<pdfrwt beam="2">  1       -1 0.89575969E-01 0.10439562E+04</pdfrwt>
<totfact> 0.66696957E+00</totfact>
</mgrwt>
</event>
<event>
 4    1  0.1043382E-007  0.7130189E+03  0.7818608E-02  0.9946957E-01
         -1   -1    0    0    0  501 -0.00000000000E+00  0.00000000000E+00  0.84119238131E+03  0.84119238133E+03  0.50400000000E-02 0.  1.
          1   -1    0    0  501    0  0.00000000000E+00 -0.00000000000E+00 -0.84154803616E+03  0.84154803618E+03  0.50400000000E-02 0. -1.
    8880023    1    1    2    0    0 -0.21815421466E+03 -0.16430008666E+03  0.64755312395E+03  0.96318276275E+03  0.65864270000E+03 0.  1.
    8880022    1    1    2    0    0  0.21815421466E+03  0.16430008666E+03 -0.64790877880E+03  0.71955765475E+03  0.15294330000E+03 0. -1.
<mgrwt>
<rscale>  0 0.58038549E+03</rscale>
<asrwt>0</asrwt>
<pdfrwt beam="1">  1        1 0.12946893E+00 0.71301892E+03</pdfrwt>
<pdfrwt beam="2">  1       -1 0.12941421E+00 0.71301892E+03</pdfrwt>
<totfact> 0.10822023E+01</totfact>
</mgrwt>
</event>
<event>
 4    1  0.1043382E-007  0.6720156E+03  0.7818608E-02  0.1014257E+00
         -1   -1    0    0    0  501 -0.00000000000E+00  0.00000000000E+00  0.91228693375E+03  0.91228693376E+03  0.50400000000E-02 0.  1.
          1   -1    0    0  501    0  0.00000000000E+00 -0.00000000000E+00 -0.22242568182E+03  0.22242568187E+03  0.50400000000E-02 0. -1.
    8880023    1    1    2    0    0 -0.74468312846E+02 -0.11067646280E+03  0.63479655879E+03  0.92443046593E+03  0.65864270000E+03 0. -1.
    8880022    1    1    2    0    0  0.74468312846E+02  0.11067646280E+03  0.55064693145E+02  0.21028214970E+03  0.15294330000E+03 0.  0.
<mgrwt>
<rscale>  0 0.49817146E+03</rscale>
<asrwt>0</asrwt>
<pdfrwt beam="1">  1        1 0.34219336E-01 0.67201564E+03</pdfrwt>
<pdfrwt beam="2">  1       -1 0.14035183E+00 0.67201564E+03</pdfrwt>
<totfact> 0.55280128E+01</totfact>
</mgrwt>
</event>
<event>
 4    1  0.1043382E-007  0.8697509E+03  0.7818608E-02  0.9576448E-01
         -1   -1    0    0    0  501 -0.00000000000E+00  0.00000000000E+00  0.38705118127E+03  0.38705118130E+03  0.50400000000E-02 0.  1.
          1   -1    0    0  501    0  0.00000000000E+00 -0.00000000000E+00 -0.21506831972E+04  0.21506831972E+04  0.50400000000E-02 0. -1.
    8880023    1    1    2    0    0 -0.31349346850E+03  0.47368578767E+03 -0.23666696762E+03  0.90137552666E+03  0.65864270000E+03 0.  1.
    8880022    1    1    2    0    0  0.31349346850E+03 -0.47368578767E+03 -0.15269650483E+04  0.16363588518E+04  0.15294330000E+03 0.  0.
<mgrwt>
<rscale>  0 0.78874788E+03</rscale>
<asrwt>0</asrwt>
<pdfrwt beam="1">  1        1 0.33087433E+00 0.86975088E+03</pdfrwt>
<pdfrwt beam="2">  1       -1 0.59546337E-01 0.86975088E+03</pdfrwt>
<totfact> 0.69391691E+00</totfact>
</mgrwt>
</event>
<event>
 4    1  0.1043382E-007  0.7389879E+03  0.7818608E-02  0.9862905E-01
         -1   -1    0    0    0  501 -0.00000000000E+00  0.00000000000E+00  0.88372203589E+03  0.88372203591E+03  0.50400000000E-02 0.  1.
          1   -1    0    0  501    0  0.00000000000E+00 -0.00000000000E+00 -0.13654042150E+04  0.13654042150E+04  0.50400000000E-02 0. -1.
    8880023    1    1    2    0    0 -0.61550050784E+02 -0.32940014120E+03  0.69602230189E+03  0.10151601414E+04  0.65864270000E+03 0.  1.
    8880022    1    1    2    0    0  0.61550050784E+02  0.32940014120E+03 -0.11777044810E+04  0.12339661095E+04  0.15294330000E+03 0.  0.
<mgrwt>
<rscale>  0 0.62093232E+03</rscale>
<asrwt>0</asrwt>
<pdfrwt beam="1">  1        1 0.21006219E+00 0.73898787E+03</pdfrwt>
<pdfrwt beam="2">  1       -1 0.13595724E+00 0.73898787E+03</pdfrwt>
<totfact> 0.38362588E+00</totfact>
</mgrwt>
</event>
<event>
 4    1  0.1043382E-007  0.7153366E+03  0.7818608E-02  0.9938693E-01
         -1   -1    0    0    0  501 -0.00000000000E+00  0.00000000000E+00  0.33865021301E+03  0.33865021305E+03  0.50400000000E-02 0.  1.
          1   -1    0    0  501    0  0.00000000000E+00 -0.00000000000E+00 -0.17517098034E+04  0.17517098034E+04  0.50400000000E-02 0. -1.
    8880023    1    1    2    0    0  0.27645068333E+03 -0.38356611776E+02 -0.79953534680E+02  0.71979093072E+03  0.65864270000E+03 0.  1.
    8880022    1    1    2    0    0 -0.27645068333E+03  0.38356611776E+02 -0.13331060557E+04  0.13705690857E+04  0.15294330000E+03 0.  0.
<mgrwt>
<rscale>  0 0.58422145E+03</rscale>
<asrwt>0</asrwt>
<pdfrwt beam="1">  1        1 0.26949381E+00 0.71533658E+03</pdfrwt>
<pdfrwt beam="2">  1       -1 0.52100034E-01 0.71533658E+03</pdfrwt>
<totfact> 0.17019806E+01</totfact>
</mgrwt>
</event>
<event>
 4    1  0.1043382E-007  0.7498951E+03  0.7818608E-02  0.9832008E-01
          1   -1    0    0  501    0  0.00000000000E+00  0.00000000000E+00  0.18146232165E+04  0.18146232165E+04  0.50400000000E-02 0. -1.
         -1   -1    0    0    0  501 -0.00000000000E+00 -0.00000000000E+00 -0.20058338637E+03  0.20058338643E+03  0.50400000000E-02 0.  1.
    8880023    1    1    2    0    0 -0.35849304246E+03  0.38901857687E+01  0.71862816259E+03  0.10386380685E+04  0.65864270000E+03 0.  0.
    8880022    1    1    2    0    0  0.35849304246E+03 -0.38901857687E+01  0.89541166751E+03  0.97656853439E+03  0.15294330000E+03 0.  0.
<mgrwt>
<rscale>  0 0.63672761E+03</rscale>
<asrwt>0</asrwt>
<pdfrwt beam="1">  1        1 0.27917282E+00 0.74989506E+03</pdfrwt>
<pdfrwt beam="2">  1       -1 0.30858981E-01 0.74989506E+03</pdfrwt>
<totfact> 0.39933409E+01</totfact>
</mgrwt>
</event>
<event>
 4    1  0.1043382E-007  0.1045858E+04  0.7818608E-02  0.9323878E-01
          1   -1    0    0  501    0  0.00000000000E+00  0.00000000000E+00  0.14204561556E+04  0.14204561556E+04  0.50400000000E-02 0. -1.
         -1   -1    0    0    0  501 -0.00000000000E+00 -0.00000000000E+00 -0.10278028871E+04  0.10278028871E+04  0.50400000000E-02 0.  1.
    8880023    1    1    2    0    0 -0.35353289000E+03 -0.73145225135E+03 -0.56047632310E+03  0.11865714539E+04  0.65864270000E+03 0.  0.
    8880022    1    1    2    0    0  0.35353289000E+03  0.73145225135E+03  0.95312959159E+03  0.12616875888E+04  0.15294330000E+03 0.  0.
<mgrwt>
<rscale>  0 0.98614040E+03</rscale>
<asrwt>0</asrwt>
<pdfrwt beam="1">  1        1 0.21853172E+00 0.10458576E+04</pdfrwt>
<pdfrwt beam="2">  1       -1 0.15812352E+00 0.10458576E+04</pdfrwt>
<totfact> 0.22422708E+00</totfact>
</mgrwt>
</event>
<event>
 4    1  0.1043382E-007  0.8054635E+03  0.7818608E-02  0.9699105E-01
          1   -1    0    0  501    0  0.00000000000E+00  0.00000000000E+00  0.18200464621E+04  0.18200464621E+04  0.50400000000E-02 0. -1.
         -1   -1    0    0    0  501 -0.00000000000E+00 -0.00000000000E+00 -0.80437746911E+03  0.80437746912E+03  0.50400000000E-02 0.  1.
    8880023    1    1    2    0    0 -0.11969559838E+03  0.44792209873E+03 -0.55596420201E+03  0.97870712830E+03  0.65864270000E+03 0.  1.
    8880022    1    1    2    0    0  0.11969559838E+03 -0.44792209873E+03  0.15716331950E+04  0.16457168030E+04  0.15294330000E+03 0.  0.
<mgrwt>
<rscale>  0 0.71070104E+03</rscale>
<asrwt>0</asrwt>
<pdfrwt beam="1">  1        1 0.28000714E+00 0.80546350E+03</pdfrwt>
<pdfrwt beam="2">  1       -1 0.12375038E+00 0.80546350E+03</pdfrwt>
<totfact> 0.23560901E+00</totfact>
</mgrwt>
</event>
<event>
 4    1  0.1043382E-007  0.9403535E+03  0.7818608E-02  0.9464131E-01
         -1   -1    0    0    0  501 -0.00000000000E+00  0.00000000000E+00  0.55912736340E+03  0.55912736342E+03  0.50400000000E-02 0.  1.
          1   -1    0    0  501    0  0.00000000000E+00 -0.00000000000E+00 -0.17433603877E+04  0.17433603877E+04  0.50400000000E-02 0. -1.
    8880023    1    1    2    0    0  0.64058291761E+03 -0.20026966347E+03 -0.88822250364E+01  0.94039540228E+03  0.65864270000E+03 0.  0.
    8880022    1    1    2    0    0 -0.64058291761E+03  0.20026966347E+03 -0.11753507992E+04  0.13620923488E+04  0.15294330000E+03 0.  0.
<mgrwt>
<rscale>  0 0.86980721E+03</rscale>
<asrwt>0</asrwt>
<pdfrwt beam="1">  1        1 0.26820929E+00 0.94035345E+03</pdfrwt>
<pdfrwt beam="2">  1       -1 0.86019595E-01 0.94035345E+03</pdfrwt>
<totfact> 0.60333627E+00</totfact>
</mgrwt>
</event>
<event>
 4    1  0.1043382E-007  0.7518197E+03  0.7818608E-02  0.9826765E-01
          1   -1    0    0  501    0  0.00000000000E+00  0.00000000000E+00  0.98105919081E+03  0.98105919082E+03  0.50400000000E-02 0. -1.
         -1   -1    0    0    0  501 -0.00000000000E+00 -0.00000000000E+00 -0.39986304474E+03  0.39986304478E+03  0.50400000000E-02 0.  1.
    8880023    1    1    2    0    0  0.33823757997E+03  0.13045317920E+03  0.98602937565E+02  0.75825816054E+03  0.65864270000E+03 0.  0.
    8880022    1    1    2    0    0 -0.33823757997E+03 -0.13045317920E+03  0.48259320850E+03  0.62266407506E+03  0.15294330000E+03 0.  0.
<mgrwt>
<rscale>  0 0.63945750E+03</rscale>
<asrwt>0</asrwt>
<pdfrwt beam="1">  1        1 0.15093218E+00 0.75181972E+03</pdfrwt>
<pdfrwt beam="2">  1       -1 0.61517392E-01 0.75181972E+03</pdfrwt>
<totfact> 0.43002659E+01</totfact>
</mgrwt>
</event>
<event>
 4    1  0.1043382E-007  0.1023402E+04  0.7818608E-02  0.9351561E-01
         -1   -1    0    0    0  501 -0.00000000000E+00  0.00000000000E+00  0.91679770700E+03  0.91679770701E+03  0.50400000000E-02 0.  1.
          1   -1    0    0  501    0  0.00000000000E+00 -0.00000000000E+00 -0.10802663808E+04  0.10802663809E+04  0.50400000000E-02 0. -1.
    8880023    1    1    2    0    0 -0.67943309333E+03 -0.38975901415E+03  0.30972912531E+03  0.10692444785E+04  0.65864270000E+03 0.  1.
    8880022    1    1    2    0    0  0.67943309333E+03  0.38975901415E+03 -0.47319779916E+03  0.92781960939E+03  0.15294330000E+03 0.  0.
<mgrwt>
<rscale>  0 0.96171506E+03</rscale>
<asrwt>0</asrwt>
<pdfrwt beam="1">  1        1 0.16619483E+00 0.10234020E+04</pdfrwt>
<pdfrwt beam="2">  1       -1 0.14104580E+00 0.10234020E+04</pdfrwt>
<totfact> 0.53946174E+00</totfact>
</mgrwt>
</event>
<event>
 4    1  0.1043382E-007  0.7753859E+03  0.7818608E-02  0.9766789E-01
          1   -1    0    0  501    0  0.00000000000E+00  0.00000000000E+00  0.13551030972E+04  0.13551030972E+04  0.50400000000E-02 0. -1.
         -1   -1    0    0    0  501 -0.00000000000E+00 -0.00000000000E+00 -0.35601579869E+03  0.35601579873E+03  0.50400000000E-02 0.  1.
    8880023    1    1    2    0    0 -0.21221731228E+03  0.34982400633E+03  0.20052471954E+03  0.80089536923E+03  0.65864270000E+03 0.  0.
    8880022    1    1    2    0    0  0.21221731228E+03 -0.34982400633E+03  0.79856257894E+03  0.91022352669E+03  0.15294330000E+03 0.  0.
<mgrwt>
<rscale>  0 0.67175674E+03</rscale>
<asrwt>0</asrwt>
<pdfrwt beam="1">  1        1 0.20847740E+00 0.77538586E+03</pdfrwt>
<pdfrwt beam="2">  1       -1 0.54771661E-01 0.77538586E+03</pdfrwt>
<totfact> 0.28604378E+01</totfact>
</mgrwt>
</event>
<event>
 4    1  0.1043382E-007  0.9430254E+03  0.7818608E-02  0.9460221E-01
          1   -1    0    0  501    0  0.00000000000E+00  0.00000000000E+00  0.13584066656E+04  0.13584066656E+04  0.50400000000E-02 0. -1.
         -1   -1    0    0    0  501 -0.00000000000E+00 -0.00000000000E+00 -0.74474376853E+03  0.74474376855E+03  0.50400000000E-02 0.  1.
    8880023    1    1    2    0    0  0.48982631982E+03 -0.46428096303E+03  0.94576358812E+03  0.13355768818E+04  0.65864270000E+03 0.  0.
    8880022    1    1    2    0    0 -0.48982631982E+03  0.46428096303E+03 -0.33210069109E+03  0.76757355235E+03  0.15294330000E+03 0.  0.
<mgrwt>
<rscale>  0 0.87281193E+03</rscale>
<asrwt>0</asrwt>
<pdfrwt beam="1">  1        1 0.20898564E+00 0.94302537E+03</pdfrwt>
<pdfrwt beam="2">  1       -1 0.11457597E+00 0.94302537E+03</pdfrwt>
<totfact> 0.57569790E+00</totfact>
</mgrwt>
</event>
<event>
 4    1  0.1043382E-007  0.6600906E+03  0.7818608E-02  0.1024064E+00
         -1   -1    0    0    0  501 -0.00000000000E+00  0.00000000000E+00  0.41419670200E+03  0.41419670203E+03  0.50400000000E-02 0.  1.
          1   -1    0    0  501    0  0.00000000000E+00 -0.00000000000E+00 -0.29726590922E+04  0.29726590922E+04  0.50400000000E-02 0. -1.
    8880023    1    1    2    0    0 -0.43569779567E+02 -0.33331925897E+01  0.14737891729E+03  0.67634324673E+03  0.65864270000E+03 0.  1.
    8880022    1    1    2    0    0  0.43569779567E+02  0.33331925897E+01 -0.27058413075E+04  0.27105125475E+04  0.15294330000E+03 0.  0.
<mgrwt>
<rscale>  0 0.46248226E+03</rscale>
<asrwt>0</asrwt>
<pdfrwt beam="1">  1        1 0.45733215E+00 0.66009063E+03</pdfrwt>
<pdfrwt beam="2">  1       -1 0.63722572E-01 0.66009063E+03</pdfrwt>
<totfact> 0.17152450E+00</totfact>
</mgrwt>
</event>
<event>
 4    1  0.1043382E-007  0.7732438E+03  0.7818608E-02  0.9771954E-01
         -1   -1    0    0    0  501 -0.00000000000E+00  0.00000000000E+00  0.94317898382E+03  0.94317898383E+03  0.50400000000E-02 0.  1.
          1   -1    0    0  501    0  0.00000000000E+00 -0.00000000000E+00 -0.88672691007E+03  0.88672691009E+03  0.50400000000E-02 0. -1.
    8880023    1    1    2    0    0 -0.34947624462E+03  0.20484651252E+03  0.70746098314E+03  0.10480491344E+04  0.65864270000E+03 0.  0.
    8880022    1    1    2    0    0  0.34947624462E+03 -0.20484651252E+03 -0.65100890939E+03  0.78185675950E+03  0.15294330000E+03 0.  0.
<mgrwt>
<rscale>  0 0.66889636E+03</rscale>
<asrwt>0</asrwt>
<pdfrwt beam="1">  1        1 0.13641952E+00 0.77324378E+03</pdfrwt>
<pdfrwt beam="2">  1       -1 0.14510446E+00 0.77324378E+03</pdfrwt>
<totfact> 0.73306028E+00</totfact>
</mgrwt>
</event>
<event>
 4    1  0.1043382E-007  0.7337520E+03  0.7818608E-02  0.9878535E-01
         -1   -1    0    0    0  501 -0.00000000000E+00  0.00000000000E+00  0.18792410114E+04  0.18792410114E+04  0.50400000000E-02 0.  1.
          1   -1    0    0  501    0  0.00000000000E+00 -0.00000000000E+00 -0.22027566057E+03  0.22027566062E+03  0.50400000000E-02 0. -1.
    8880023    1    1    2    0    0 -0.31950268887E+03 -0.49998861275E+02  0.15667978301E+04  0.17301004309E+04  0.65864270000E+03 0.  1.
    8880022    1    1    2    0    0  0.31950268887E+03  0.49998861275E+02  0.92167520749E+02  0.36941624115E+03  0.15294330000E+03 0.  1.
<mgrwt>
<rscale>  0 0.61312920E+03</rscale>
<asrwt>0</asrwt>
<pdfrwt beam="1">  1        1 0.33888564E-01 0.73375204E+03</pdfrwt>
<pdfrwt beam="2">  1       -1 0.28911399E+00 0.73375204E+03</pdfrwt>
<totfact> 0.53272644E+00</totfact>
</mgrwt>
</event>
<event>
 4    1  0.1043382E-007  0.9174485E+03  0.7818608E-02  0.9498582E-01
          1   -1    0    0  501    0  0.00000000000E+00  0.00000000000E+00  0.44186731942E+04  0.44186731942E+04  0.50400000000E-02 0. -1.
         -1   -1    0    0    0  501 -0.00000000000E+00 -0.00000000000E+00 -0.40785225729E+03  0.40785225732E+03  0.50400000000E-02 0.  1.
    8880023    1    1    2    0    0  0.39343114049E+03  0.50310388211E+03  0.17387129170E+03  0.93377888755E+03  0.65864270000E+03 0.  0.
    8880022    1    1    2    0    0 -0.39343114049E+03 -0.50310388211E+03  0.38369496452E+04  0.38927465640E+04  0.15294330000E+03 0.  0.
<mgrwt>
<rscale>  0 0.84388420E+03</rscale>
<asrwt>0</asrwt>
<pdfrwt beam="1">  1        1 0.67979588E+00 0.91744852E+03</pdfrwt>
<pdfrwt beam="2">  1       -1 0.62746501E-01 0.91744852E+03</pdfrwt>
<totfact> 0.10931724E-01</totfact>
</mgrwt>
</event>
<event>
 4    1  0.1043382E-007  0.7750381E+03  0.7818608E-02  0.9767624E-01
          1   -1    0    0  501    0  0.00000000000E+00  0.00000000000E+00  0.11049433803E+04  0.11049433804E+04  0.50400000000E-02 0. -1.
         -1   -1    0    0    0  501 -0.00000000000E+00 -0.00000000000E+00 -0.64218774496E+03  0.64218774498E+03  0.50400000000E-02 0.  1.
    8880023    1    1    2    0    0  0.32158243400E+03  0.25190991639E+03 -0.32994292425E+03  0.84234577660E+03  0.65864270000E+03 0.  1.
    8880022    1    1    2    0    0 -0.32158243400E+03 -0.25190991639E+03  0.79269855963E+03  0.90478534873E+03  0.15294330000E+03 0.  0.
<mgrwt>
<rscale>  0 0.67129329E+03</rscale>
<asrwt>0</asrwt>
<pdfrwt beam="1">  1        1 0.16999129E+00 0.77503811E+03</pdfrwt>
<pdfrwt beam="2">  1       -1 0.98798115E-01 0.77503811E+03</pdfrwt>
<totfact> 0.12673990E+01</totfact>
</mgrwt>
</event>
<event>
 4    1  0.1043382E-007  0.9470394E+03  0.7818608E-02  0.9454387E-01
          1   -1    0    0  501    0  0.00000000000E+00  0.00000000000E+00  0.12878873309E+04  0.12878873309E+04  0.50400000000E-02 0. -1.
         -1   -1    0    0    0  501 -0.00000000000E+00 -0.00000000000E+00 -0.63020616774E+03  0.63020616776E+03  0.50400000000E-02 0.  1.
    8880023    1    1    2    0    0 -0.59241092465E+03  0.33484724255E+03 -0.17714545679E+02  0.94720504162E+03  0.65864270000E+03 0.  0.
    8880022    1    1    2    0    0  0.59241092465E+03 -0.33484724255E+03  0.67539570881E+03  0.97088845702E+03  0.15294330000E+03 0.  0.
<mgrwt>
<rscale>  0 0.87731889E+03</rscale>
<asrwt>0</asrwt>
<pdfrwt beam="1">  1        1 0.19813651E+00 0.94703938E+03</pdfrwt>
<pdfrwt beam="2">  1       -1 0.96954796E-01 0.94703938E+03</pdfrwt>
<totfact> 0.95312182E+00</totfact>
</mgrwt>
</event>
<event>
 4    1  0.1043382E-007  0.7454636E+03  0.7818608E-02  0.9844308E-01
          1   -1    0    0  501    0  0.00000000000E+00  0.00000000000E+00  0.42519505023E+04  0.42519505023E+04  0.50400000000E-02 0. -1.
         -1   -1    0    0    0  501 -0.00000000000E+00 -0.00000000000E+00 -0.91341114479E+02  0.91341114618E+02  0.50400000000E-02 0.  1.
    8880023    1    1    2    0    0  0.21660358365E+03  0.27384068470E+03  0.35181653804E+04  0.35962763636E+04  0.65864270000E+03 0. -1.
    8880022    1    1    2    0    0 -0.21660358365E+03 -0.27384068470E+03  0.64244400736E+03  0.74701525329E+03  0.15294330000E+03 0.  0.
<mgrwt>
<rscale>  0 0.63037954E+03</rscale>
<asrwt>0</asrwt>
<pdfrwt beam="1">  1        1 0.65414607E+00 0.74546364E+03</pdfrwt>
<pdfrwt beam="2">  1       -1 0.14052483E-01 0.74546364E+03</pdfrwt>
<totfact> 0.22965854E+00</totfact>
</mgrwt>
</event>
<event>
 4    1  0.1043382E-007  0.7827370E+03  0.7818608E-02  0.9749447E-01
          1   -1    0    0  501    0  0.00000000000E+00  0.00000000000E+00  0.81915263423E+03  0.81915263425E+03  0.50400000000E-02 0. -1.
         -1   -1    0    0    0  501 -0.00000000000E+00 -0.00000000000E+00 -0.11179317052E+04  0.11179317052E+04  0.50400000000E-02 0.  1.
    8880023    1    1    2    0    0 -0.40690636194E+03 -0.11530062838E+03 -0.89582091737E+03  0.11896101649E+04  0.65864270000E+03 0.  1.
    8880022    1    1    2    0    0  0.40690636194E+03  0.11530062838E+03  0.59704184637E+03  0.74747417455E+03  0.15294330000E+03 0.  0.
<mgrwt>
<rscale>  0 0.68147558E+03</rscale>
<asrwt>0</asrwt>
<pdfrwt beam="1">  1        1 0.12602348E+00 0.78273701E+03</pdfrwt>
<pdfrwt beam="2">  1       -1 0.17198949E+00 0.78273701E+03</pdfrwt>
<totfact> 0.52177639E+00</totfact>
</mgrwt>
</event>
<event>
 4    1  0.1043382E-007  0.8118292E+03  0.7818608E-02  0.9685779E-01
         -1   -1    0    0    0  501 -0.00000000000E+00  0.00000000000E+00  0.95825025781E+03  0.95825025782E+03  0.50400000000E-02 0.  1.
          1   -1    0    0  501    0  0.00000000000E+00 -0.00000000000E+00 -0.11382447454E+04  0.11382447454E+04  0.50400000000E-02 0. -1.
    8880023    1    1    2    0    0  0.27851463222E+03 -0.38429948301E+03  0.70857997588E+03  0.10775677619E+04  0.65864270000E+03 0.  1.
    8880022    1    1    2    0    0 -0.27851463222E+03  0.38429948301E+03 -0.88857446345E+03  0.10189272413E+04  0.15294330000E+03 0.  0.
<mgrwt>
<rscale>  0 0.71869838E+03</rscale>
<asrwt>0</asrwt>
<pdfrwt beam="1">  1        1 0.17511458E+00 0.81182923E+03</pdfrwt>
<pdfrwt beam="2">  1       -1 0.14742312E+00 0.81182923E+03</pdfrwt>
<totfact> 0.44620496E+00</totfact>
</mgrwt>
</event>
<event>
 4    1  0.1043382E-007  0.7911555E+03  0.7818608E-02  0.9730256E-01
         -1   -1    0    0    0  501 -0.00000000000E+00  0.00000000000E+00  0.83123444867E+03  0.83123444869E+03  0.50400000000E-02 0.  1.
          1   -1    0    0  501    0  0.00000000000E+00 -0.00000000000E+00 -0.71774865686E+03  0.71774865687E+03  0.50400000000E-02 0. -1.
    8880023    1    1    2    0    0  0.17693577715E+03  0.40101187083E+03 -0.37462202143E+03  0.87536772558E+03  0.65864270000E+03 0.  0.
    8880022    1    1    2    0    0 -0.17693577715E+03 -0.40101187083E+03  0.48810781324E+03  0.67361537998E+03  0.15294330000E+03 0.  0.
<mgrwt>
<rscale>  0 0.69243565E+03</rscale>
<asrwt>0</asrwt>
<pdfrwt beam="1">  1        1 0.11042287E+00 0.79115548E+03</pdfrwt>
<pdfrwt beam="2">  1       -1 0.12788222E+00 0.79115548E+03</pdfrwt>
<totfact> 0.14189200E+01</totfact>
</mgrwt>
</event>
<event>
 4    1  0.1043382E-007  0.7316165E+03  0.7818608E-02  0.9885077E-01
          1   -1    0    0  501    0  0.00000000000E+00  0.00000000000E+00  0.15138043302E+04  0.15138043302E+04  0.50400000000E-02 0. -1.
         -1   -1    0    0    0  501 -0.00000000000E+00 -0.00000000000E+00 -0.42072239761E+03  0.42072239764E+03  0.50400000000E-02 0.  1.
    8880023    1    1    2    0    0  0.23182762445E+03  0.21842261810E+03 -0.54634132281E+02  0.73365358462E+03  0.65864270000E+03 0.  0.
    8880022    1    1    2    0    0 -0.23182762445E+03 -0.21842261810E+03  0.11477160648E+04  0.12008731432E+04  0.15294330000E+03 0.  0.
<mgrwt>
<rscale>  0 0.60990000E+03</rscale>
<asrwt>0</asrwt>
<pdfrwt beam="1">  1        1 0.23289297E+00 0.73161649E+03</pdfrwt>
<pdfrwt beam="2">  1       -1 0.64726523E-01 0.73161649E+03</pdfrwt>
<totfact> 0.16086523E+01</totfact>
</mgrwt>
</event>
<event>
 4    1  0.1043382E-007  0.7079031E+03  0.7818608E-02  0.9965872E-01
          1   -1    0    0  501    0  0.00000000000E+00  0.00000000000E+00  0.39124806216E+03  0.39124806219E+03  0.50400000000E-02 0. -1.
         -1   -1    0    0    0  501 -0.00000000000E+00 -0.00000000000E+00 -0.77666855828E+03  0.77666855830E+03  0.50400000000E-02 0.  1.
    8880023    1    1    2    0    0  0.10995599716E+03  0.23500265892E+03 -0.47642216849E+03  0.85329060695E+03  0.65864270000E+03 0.  0.
    8880022    1    1    2    0    0 -0.10995599716E+03 -0.23500265892E+03  0.91001672365E+02  0.31462601354E+03  0.15294330000E+03 0.  0.
<mgrwt>
<rscale>  0 0.57172369E+03</rscale>
<asrwt>0</asrwt>
<pdfrwt beam="1">  1        1 0.60192010E-01 0.70790308E+03</pdfrwt>
<pdfrwt beam="2">  1       -1 0.11948747E+00 0.70790308E+03</pdfrwt>
<totfact> 0.39653132E+01</totfact>
</mgrwt>
</event>
<event>
 4    1  0.1043382E-007  0.9873325E+03  0.7818608E-02  0.9398321E-01
         -1   -1    0    0    0  501 -0.00000000000E+00  0.00000000000E+00  0.95726911775E+03  0.95726911777E+03  0.50400000000E-02 0.  1.
          1   -1    0    0  501    0  0.00000000000E+00 -0.00000000000E+00 -0.96671604543E+03  0.96671604544E+03  0.50400000000E-02 0. -1.
    8880023    1    1    2    0    0 -0.67359565182E+03  0.29543906772E+03  0.40361890133E+03  0.10666460372E+04  0.65864270000E+03 0.  0.
    8880022    1    1    2    0    0  0.67359565182E+03 -0.29543906772E+03 -0.41306582901E+03  0.85733912602E+03  0.15294330000E+03 0.  0.
<mgrwt>
<rscale>  0 0.92213953E+03</rscale>
<asrwt>0</asrwt>
<pdfrwt beam="1">  1        1 0.14872555E+00 0.98733254E+03</pdfrwt>
<pdfrwt beam="2">  1       -1 0.14727217E+00 0.98733254E+03</pdfrwt>
<totfact> 0.59148686E+00</totfact>
</mgrwt>
</event>
<event>
 4    1  0.1043382E-007  0.8214645E+03  0.7818608E-02  0.9666174E-01
         -1   -1    0    0    0  501 -0.00000000000E+00  0.00000000000E+00  0.15850335730E+04  0.15850335731E+04  0.50400000000E-02 0.  1.
          1   -1    0    0  501    0  0.00000000000E+00 -0.00000000000E+00 -0.91689635099E+03  0.91689635100E+03  0.50400000000E-02 0. -1.
    8880023    1    1    2    0    0  0.14399429460E+02 -0.49069988738E+03  0.13906390780E+04  0.16151411624E+04  0.65864270000E+03 0.  0.
    8880022    1    1    2    0    0 -0.14399429460E+02  0.49069988738E+03 -0.72250185589E+03  0.88678876167E+03  0.15294330000E+03 0.  0.
<mgrwt>
<rscale>  0 0.73067001E+03</rscale>
<asrwt>0</asrwt>
<pdfrwt beam="1">  1        1 0.14106098E+00 0.82146450E+03</pdfrwt>
<pdfrwt beam="2">  1       -1 0.24385132E+00 0.82146450E+03</pdfrwt>
<totfact> 0.13959742E+00</totfact>
</mgrwt>
</event>
<event>
 4    1  0.1043382E-007  0.6674283E+03  0.7818608E-02  0.1017578E+00
         -1   -1    0    0    0  501 -0.00000000000E+00  0.00000000000E+00  0.16843355982E+03  0.16843355989E+03  0.50400000000E-02 0.  1.
          1   -1    0    0  501    0  0.00000000000E+00 -0.00000000000E+00 -0.15519819412E+04  0.15519819412E+04  0.50400000000E-02 0. -1.
    8880023    1    1    2    0    0  0.48640934877E+02  0.96355487331E+02 -0.13802963155E+04  0.15331922402E+04  0.65864270000E+03 0. -1.
    8880022    1    1    2    0    0 -0.48640934877E+02 -0.96355487331E+02 -0.32520658852E+01  0.18722326093E+03  0.15294330000E+03 0.  0.
<mgrwt>
<rscale>  0 0.48570998E+03</rscale>
<asrwt>0</asrwt>
<pdfrwt beam="1">  1        1 0.23876644E+00 0.66742829E+03</pdfrwt>
<pdfrwt beam="2">  1       -1 0.25912856E-01 0.66742829E+03</pdfrwt>
<totfact> 0.81931425E+01</totfact>
</mgrwt>
</event>
<event>
 4    1  0.1043382E-007  0.8287847E+03  0.7818608E-02  0.9651702E-01
         -1   -1    0    0    0  501 -0.00000000000E+00  0.00000000000E+00  0.32128158069E+03  0.32128158073E+03  0.50400000000E-02 0.  1.
          1   -1    0    0  501    0  0.00000000000E+00 -0.00000000000E+00 -0.14470866215E+04  0.14470866215E+04  0.50400000000E-02 0. -1.
    8880023    1    1    2    0    0 -0.20002813750E+03  0.46158703241E+03 -0.78666348467E+03  0.11426825844E+04  0.65864270000E+03 0.  0.
    8880022    1    1    2    0    0  0.20002813750E+03 -0.46158703241E+03 -0.33914155616E+03  0.62568561787E+03  0.15294330000E+03 0.  0.
<mgrwt>
<rscale>  0 0.73966727E+03</rscale>
<asrwt>0</asrwt>
<pdfrwt beam="1">  1        1 0.22262871E+00 0.82878468E+03</pdfrwt>
<pdfrwt beam="2">  1       -1 0.49427936E-01 0.82878468E+03</pdfrwt>
<totfact> 0.29859455E+01</totfact>
</mgrwt>
</event>
<event>
 4    1  0.1043382E-007  0.7224003E+03  0.7818608E-02  0.9914546E-01
          1   -1    0    0  501    0  0.00000000000E+00  0.00000000000E+00  0.88242337032E+03  0.88242337034E+03  0.50400000000E-02 0. -1.
         -1   -1    0    0    0  501 -0.00000000000E+00 -0.00000000000E+00 -0.73411487283E+03  0.73411487285E+03  0.50400000000E-02 0.  1.
    8880023    1    1    2    0    0  0.25265853879E+02  0.29565799796E+03 -0.50600214820E+03  0.88198661859E+03  0.65864270000E+03 0.  1.
    8880022    1    1    2    0    0 -0.25265853879E+02 -0.29565799796E+03  0.65431064569E+03  0.73455162460E+03  0.15294330000E+03 0.  0.
<mgrwt>
<rscale>  0 0.59561465E+03</rscale>
<asrwt>0</asrwt>
<pdfrwt beam="1">  1        1 0.13575744E+00 0.72240032E+03</pdfrwt>
<pdfrwt beam="2">  1       -1 0.11294075E+00 0.72240032E+03</pdfrwt>
<totfact> 0.13939062E+01</totfact>
</mgrwt>
</event>
<event>
 4    1  0.1043382E-007  0.7338306E+03  0.7818608E-02  0.9878297E-01
         -1   -1    0    0    0  501 -0.00000000000E+00  0.00000000000E+00  0.25457772051E+03  0.25457772056E+03  0.50400000000E-02 0.  1.
          1   -1    0    0  501    0  0.00000000000E+00 -0.00000000000E+00 -0.26601347018E+04  0.26601347018E+04  0.50400000000E-02 0. -1.
    8880023    1    1    2    0    0  0.19967170286E+02  0.32295272765E+03 -0.32324774696E+03  0.80187060325E+03  0.65864270000E+03 0.  1.
    8880022    1    1    2    0    0 -0.19967170286E+02 -0.32295272765E+03 -0.20823092343E+04  0.21128418191E+04  0.15294330000E+03 0.  0.
<mgrwt>
<rscale>  0 0.61324747E+03</rscale>
<asrwt>0</asrwt>
<pdfrwt beam="1">  1        1 0.40925147E+00 0.73383061E+03</pdfrwt>
<pdfrwt beam="2">  1       -1 0.39165805E-01 0.73383061E+03</pdfrwt>
<totfact> 0.70383520E+00</totfact>
</mgrwt>
</event>
<event>
 4    1  0.1043382E-007  0.7276408E+03  0.7818608E-02  0.9897532E-01
         -1   -1    0    0    0  501 -0.00000000000E+00  0.00000000000E+00  0.60502952905E+03  0.60502952907E+03  0.50400000000E-02 0.  1.
          1   -1    0    0  501    0  0.00000000000E+00 -0.00000000000E+00 -0.93765543459E+03  0.93765543461E+03  0.50400000000E-02 0. -1.
    8880023    1    1    2    0    0 -0.16323643465E+03 -0.26268756799E+03  0.32741084713E+03  0.79790911829E+03  0.65864270000E+03 0. -1.
    8880022    1    1    2    0    0  0.16323643465E+03  0.26268756799E+03 -0.66003675267E+03  0.74477584538E+03  0.15294330000E+03 0.  0.
<mgrwt>
<rscale>  0 0.60381034E+03</rscale>
<asrwt>0</asrwt>
<pdfrwt beam="1">  1        1 0.14425468E+00 0.72764078E+03</pdfrwt>
<pdfrwt beam="2">  1       -1 0.93081466E-01 0.72764078E+03</pdfrwt>
<totfact> 0.19605603E+01</totfact>
</mgrwt>
</event>
<event>
 4    1  0.1043382E-007  0.1187974E+04  0.7818608E-02  0.9168902E-01
          1   -1    0    0  501    0  0.00000000000E+00  0.00000000000E+00  0.58661418246E+03  0.58661418249E+03  0.50400000000E-02 0. -1.
         -1   -1    0    0    0  501 -0.00000000000E+00 -0.00000000000E+00 -0.39434539071E+04  0.39434539071E+04  0.50400000000E-02 0.  1.
    8880023    1    1    2    0    0  0.18406042390E+02  0.98850071181E+03 -0.33231062687E+04  0.35290675708E+04  0.65864270000E+03 0.  0.
    8880022    1    1    2    0    0 -0.18406042390E+02 -0.98850071181E+03 -0.33733455944E+02  0.10010005188E+04  0.15294330000E+03 0.  0.
<mgrwt>
<rscale>  0 0.11380259E+04</rscale>
<asrwt>0</asrwt>
<pdfrwt beam="1">  1        1 0.90248338E-01 0.11879742E+04</pdfrwt>
<pdfrwt beam="2">  1       -1 0.60668520E+00 0.11879742E+04</pdfrwt>
<totfact> 0.14116292E-02</totfact>
</mgrwt>
</event>
<event>
 4    1  0.1043382E-007  0.7242502E+03  0.7818608E-02  0.9908458E-01
          1   -1    0    0  501    0  0.00000000000E+00  0.00000000000E+00  0.64705314236E+03  0.64705314238E+03  0.50400000000E-02 0. -1.
         -1   -1    0    0    0  501 -0.00000000000E+00 -0.00000000000E+00 -0.91532640235E+03  0.91532640237E+03  0.50400000000E-02 0.  1.
    8880023    1    1    2    0    0  0.20697790495E+03  0.21883406409E+03 -0.70467951946E+03  0.10105006839E+04  0.65864270000E+03 0.  0.
    8880022    1    1    2    0    0 -0.20697790495E+03 -0.21883406409E+03  0.43640625947E+03  0.55187886085E+03  0.15294330000E+03 0.  0.
<mgrwt>
<rscale>  0 0.59853098E+03</rscale>
<asrwt>0</asrwt>
<pdfrwt beam="1">  1        1 0.99546637E-01 0.72425024E+03</pdfrwt>
<pdfrwt beam="2">  1       -1 0.14081945E+00 0.72425024E+03</pdfrwt>
<totfact> 0.13065392E+01</totfact>
</mgrwt>
</event>
<event>
 4    1  0.1043382E-007  0.1050127E+04  0.7818608E-02  0.9318729E-01
         -1   -1    0    0    0  501 -0.00000000000E+00  0.00000000000E+00  0.16188633261E+04  0.16188633261E+04  0.50400000000E-02 0.  1.
          1   -1    0    0  501    0  0.00000000000E+00 -0.00000000000E+00 -0.68036702116E+03  0.68036702118E+03  0.50400000000E-02 0. -1.
    8880023    1    1    2    0    0 -0.31072219484E+03  0.75657611431E+03  0.69084043840E+01  0.10501493377E+04  0.65864270000E+03 0.  0.
    8880022    1    1    2    0    0  0.31072219484E+03 -0.75657611431E+03  0.93158790060E+03  0.12490810096E+04  0.15294330000E+03 0.  0.
<mgrwt>
<rscale>  0 0.99076750E+03</rscale>
<asrwt>0</asrwt>
<pdfrwt beam="1">  1        1 0.10467185E+00 0.10501266E+04</pdfrwt>
<pdfrwt beam="2">  1       -1 0.24905590E+00 0.10501266E+04</pdfrwt>
<totfact> 0.20150425E+00</totfact>
</mgrwt>
</event>
<event>
 4    1  0.1043382E-007  0.8293895E+03  0.7818608E-02  0.9650521E-01
          1   -1    0    0  501    0  0.00000000000E+00  0.00000000000E+00  0.30075938507E+04  0.30075938507E+04  0.50400000000E-02 0. -1.
         -1   -1    0    0    0  501 -0.00000000000E+00 -0.00000000000E+00 -0.19607491970E+03  0.19607491977E+03  0.50400000000E-02 0.  1.
    8880023    1    1    2    0    0  0.49241387569E+03 -0.10772794461E+03  0.91319498619E+03  0.12336174545E+04  0.65864270000E+03 0.  0.
    8880022    1    1    2    0    0 -0.49241387569E+03  0.10772794461E+03  0.18983239448E+04  0.19700513159E+04  0.15294330000E+03 0.  0.
<mgrwt>
<rscale>  0 0.74040712E+03</rscale>
<asrwt>0</asrwt>
<pdfrwt beam="1">  1        1 0.46270668E+00 0.82938950E+03</pdfrwt>
<pdfrwt beam="2">  1       -1 0.30165377E-01 0.82938950E+03</pdfrwt>
<totfact> 0.62713519E+00</totfact>
</mgrwt>
</event>
<event>
 4    1  0.1043382E-007  0.7797736E+03  0.7818608E-02  0.9756369E-01
         -1   -1    0    0    0  501 -0.00000000000E+00  0.00000000000E+00  0.10755829194E+04  0.10755829194E+04  0.50400000000E-02 0.  1.
          1   -1    0    0  501    0  0.00000000000E+00 -0.00000000000E+00 -0.39209825117E+03  0.39209825121E+03  0.50400000000E-02 0. -1.
    8880023    1    1    2    0    0  0.51299009400E+02  0.41425244082E+03  0.66153971736E+03  0.10225857798E+04  0.65864270000E+03 0.  1.
    8880022    1    1    2    0    0 -0.51299009400E+02 -0.41425244082E+03  0.21944950891E+02  0.44509539087E+03  0.15294330000E+03 0. -1.
<mgrwt>
<rscale>  0 0.67757527E+03</rscale>
<asrwt>0</asrwt>
<pdfrwt beam="1">  1        1 0.60322808E-01 0.77977361E+03</pdfrwt>
<pdfrwt beam="2">  1       -1 0.16547429E+00 0.77977361E+03</pdfrwt>
<totfact> 0.16767481E+01</totfact>
</mgrwt>
</event>
<event>
 4    1  0.1043382E-007  0.6644485E+03  0.7818608E-02  0.1020001E+00
         -1   -1    0    0    0  501 -0.00000000000E+00  0.00000000000E+00  0.68782600550E+03  0.68782600552E+03  0.50400000000E-02 0.  1.
          1   -1    0    0  501    0  0.00000000000E+00 -0.00000000000E+00 -0.32985579762E+03  0.32985579766E+03  0.50400000000E-02 0. -1.
    8880023    1    1    2    0    0  0.72618375454E+02 -0.49073087499E+02  0.46542047121E+03  0.81123857012E+03  0.65864270000E+03 0.  1.
    8880022    1    1    2    0    0 -0.72618375454E+02  0.49073087499E+02 -0.10745026333E+03  0.20644323306E+03  0.15294330000E+03 0.  0.
<mgrwt>
<rscale>  0 0.47686377E+03</rscale>
<asrwt>0</asrwt>
<pdfrwt beam="1">  1        1 0.50747046E-01 0.66444850E+03</pdfrwt>
<pdfrwt beam="2">  1       -1 0.10581939E+00 0.66444850E+03</pdfrwt>
<totfact> 0.66390272E+01</totfact>
</mgrwt>
</event>
<event>
 4    1  0.1043382E-007  0.6886871E+03  0.7818608E-02  0.1004783E+00
          1   -1    0    0  501    0  0.00000000000E+00  0.00000000000E+00  0.23593234705E+03  0.23593234710E+03  0.50400000000E-02 0. -1.
         -1   -1    0    0    0  501 -0.00000000000E+00 -0.00000000000E+00 -0.12243507758E+04  0.12243507758E+04  0.50400000000E-02 0.  1.
    8880023    1    1    2    0    0  0.10811734567E+03  0.16967715538E+03 -0.99188829189E+03  0.12075314850E+04  0.65864270000E+03 0.  1.
    8880022    1    1    2    0    0 -0.10811734567E+03 -0.16967715538E+03  0.34698631209E+01  0.25275163789E+03  0.15294330000E+03 0.  0.
<mgrwt>
<rscale>  0 0.53601842E+03</rscale>
<asrwt>0</asrwt>
<pdfrwt beam="1">  1        1 0.36297285E-01 0.68868709E+03</pdfrwt>
<pdfrwt beam="2">  1       -1 0.18836165E+00 0.68868709E+03</pdfrwt>
<totfact> 0.22450019E+01</totfact>
</mgrwt>
</event>
<event>
 4    1  0.1043382E-007  0.6632512E+03  0.7818608E-02  0.1021048E+00
         -1   -1    0    0    0  501 -0.00000000000E+00  0.00000000000E+00  0.62012324622E+03  0.62012324624E+03  0.50400000000E-02 0.  1.
          1   -1    0    0  501    0  0.00000000000E+00 -0.00000000000E+00 -0.65901027743E+03  0.65901027745E+03  0.50400000000E-02 0. -1.
    8880023    1    1    2    0    0 -0.78043882764E+02 -0.10654893827E+01  0.42279949861E+03  0.78655044669E+03  0.65864270000E+03 0.  1.
    8880022    1    1    2    0    0  0.78043882764E+02  0.10654893827E+01 -0.46168652982E+03  0.49258307699E+03  0.15294330000E+03 0.  0.
<mgrwt>
<rscale>  0 0.47310352E+03</rscale>
<asrwt>0</asrwt>
<pdfrwt beam="1">  1        1 0.10138620E+00 0.66325123E+03</pdfrwt>
<pdfrwt beam="2">  1       -1 0.95403575E-01 0.66325123E+03</pdfrwt>
<totfact> 0.32714328E+01</totfact>
</mgrwt>
</event>
<event>
 4    1  0.1043382E-007  0.1299921E+04  0.7818608E-02  0.9065628E-01
         -1   -1    0    0    0  501 -0.00000000000E+00  0.00000000000E+00  0.11021354056E+04  0.11021354056E+04  0.50400000000E-02 0.  1.
          1   -1    0    0  501    0  0.00000000000E+00 -0.00000000000E+00 -0.15259887395E+04  0.15259887395E+04  0.50400000000E-02 0. -1.
    8880023    1    1    2    0    0 -0.19550178605E+03 -0.11035229051E+04 -0.68197286082E+03  0.14679512729E+04  0.65864270000E+03 0.  1.
    8880022    1    1    2    0    0  0.19550178605E+03  0.11035229051E+04  0.25811952696E+03  0.11601728723E+04  0.15294330000E+03 0.  0.
<mgrwt>
<rscale>  0 0.12554875E+04</rscale>
<asrwt>0</asrwt>
<pdfrwt beam="1">  1        1 0.23476750E+00 0.12999208E+04</pdfrwt>
<pdfrwt beam="2">  1       -1 0.16955929E+00 0.12999208E+04</pdfrwt>
<totfact> 0.15080822E+00</totfact>
</mgrwt>
</event>
<event>
 4    1  0.1043382E-007  0.1014894E+04  0.7818608E-02  0.9362326E-01
          1   -1    0    0  501    0  0.00000000000E+00  0.00000000000E+00  0.11028680198E+04  0.11028680198E+04  0.50400000000E-02 0. -1.
         -1   -1    0    0    0  501 -0.00000000000E+00 -0.00000000000E+00 -0.15259069887E+04  0.15259069887E+04  0.50400000000E-02 0.  1.
    8880023    1    1    2    0    0  0.57140582427E+03  0.51932217119E+03 -0.11663858612E+04  0.15461132937E+04  0.65864270000E+03 0.  1.
    8880022    1    1    2    0    0 -0.57140582427E+03 -0.51932217119E+03  0.74334689229E+03  0.10826617148E+04  0.15294330000E+03 0.  0.
<mgrwt>
<rscale>  0 0.95242064E+03</rscale>
<asrwt>0</asrwt>
<pdfrwt beam="1">  1        1 0.16967200E+00 0.10148943E+04</pdfrwt>
<pdfrwt beam="2">  1       -1 0.23475492E+00 0.10148943E+04</pdfrwt>
<totfact> 0.11130857E+00</totfact>
</mgrwt>
</event>
<event>
 4    1  0.1043382E-007  0.6825741E+03  0.7818608E-02  0.1007904E+00
         -1   -1    0    0    0  501 -0.00000000000E+00  0.00000000000E+00  0.53434313786E+03  0.53434313788E+03  0.50400000000E-02 0.  1.
          1   -1    0    0  501    0  0.00000000000E+00 -0.00000000000E+00 -0.95304743260E+03  0.95304743261E+03  0.50400000000E-02 0. -1.
    8880023    1    1    2    0    0  0.56288826547E+02  0.17008455645E+03  0.28920768024E+03  0.74131536940E+03  0.65864270000E+03 0.  1.
    8880022    1    1    2    0    0 -0.56288826547E+02 -0.17008455645E+03 -0.70791197499E+03  0.74607520109E+03  0.15294330000E+03 0.  0.
<mgrwt>
<rscale>  0 0.52316425E+03</rscale>
<asrwt>0</asrwt>
<pdfrwt beam="1">  1        1 0.14662268E+00 0.68257409E+03</pdfrwt>
<pdfrwt beam="2">  1       -1 0.82206637E-01 0.68257409E+03</pdfrwt>
<totfact> 0.25127018E+01</totfact>
</mgrwt>
</event>
<event>
 4    1  0.1043382E-007  0.7174087E+03  0.7818608E-02  0.9931453E-01
         -1   -1    0    0    0  501 -0.00000000000E+00  0.00000000000E+00  0.55486390710E+03  0.55486390713E+03  0.50400000000E-02 0.  1.
          1   -1    0    0  501    0  0.00000000000E+00 -0.00000000000E+00 -0.11161231432E+04  0.11161231432E+04  0.50400000000E-02 0. -1.
    8880023    1    1    2    0    0 -0.20592452200E+03 -0.19611269416E+03  0.27982831094E+03  0.77005141870E+03  0.65864270000E+03 0.  0.
    8880022    1    1    2    0    0  0.20592452200E+03  0.19611269416E+03 -0.84108754707E+03  0.90093563168E+03  0.15294330000E+03 0.  0.
<mgrwt>
<rscale>  0 0.58760844E+03</rscale>
<asrwt>0</asrwt>
<pdfrwt beam="1">  1        1 0.17171125E+00 0.71740874E+03</pdfrwt>
<pdfrwt beam="2">  1       -1 0.85363678E-01 0.71740874E+03</pdfrwt>
<totfact> 0.17316017E+01</totfact>
</mgrwt>
</event>
<event>
 4    1  0.1043382E-007  0.9822188E+03  0.7818608E-02  0.9405200E-01
         -1   -1    0    0    0  501 -0.00000000000E+00  0.00000000000E+00  0.98320540233E+03  0.98320540235E+03  0.50400000000E-02 0.  1.
          1   -1    0    0  501    0  0.00000000000E+00 -0.00000000000E+00 -0.11904580584E+04  0.11904580584E+04  0.50400000000E-02 0. -1.
    8880023    1    1    2    0    0 -0.51085604945E+03 -0.51958605766E+03  0.53826372691E+03  0.11200364372E+04  0.65864270000E+03 0.  0.
    8880022    1    1    2    0    0  0.51085604945E+03  0.51958605766E+03 -0.74551638301E+03  0.10536270236E+04  0.15294330000E+03 0.  0.
<mgrwt>
<rscale>  0 0.91649003E+03</rscale>
<asrwt>0</asrwt>
<pdfrwt beam="1">  1        1 0.18314739E+00 0.98221880E+03</pdfrwt>
<pdfrwt beam="2">  1       -1 0.15126237E+00 0.98221880E+03</pdfrwt>
<totfact> 0.37246343E+00</totfact>
</mgrwt>
</event>
<event>
 4    1  0.1043382E-007  0.7178230E+03  0.7818608E-02  0.9930022E-01
         -1   -1    0    0    0  501 -0.00000000000E+00  0.00000000000E+00  0.52940133078E+03  0.52940133080E+03  0.50400000000E-02 0.  1.
          1   -1    0    0  501    0  0.00000000000E+00 -0.00000000000E+00 -0.18952696882E+04  0.18952696882E+04  0.50400000000E-02 0. -1.
    8880023    1    1    2    0    0 -0.28495794605E+03  0.16080029067E+02  0.26257966344E+03  0.76434147099E+03  0.65864270000E+03 0.  0.
    8880022    1    1    2    0    0  0.28495794605E+03 -0.16080029067E+02 -0.16284480208E+04  0.16603295480E+04  0.15294330000E+03 0.  0.
<mgrwt>
<rscale>  0 0.58828085E+03</rscale>
<asrwt>0</asrwt>
<pdfrwt beam="1">  1        1 0.29157995E+00 0.71782296E+03</pdfrwt>
<pdfrwt beam="2">  1       -1 0.81446359E-01 0.71782296E+03</pdfrwt>
<totfact> 0.55509198E+00</totfact>
</mgrwt>
</event>
<event>
 4    1  0.1043382E-007  0.6837494E+03  0.7818608E-02  0.1007278E+00
          1   -1    0    0  501    0  0.00000000000E+00  0.00000000000E+00  0.86239726236E+03  0.86239726238E+03  0.50400000000E-02 0. -1.
         -1   -1    0    0    0  501 -0.00000000000E+00 -0.00000000000E+00 -0.29992778350E+03  0.29992778354E+03  0.50400000000E-02 0.  1.
    8880023    1    1    2    0    0  0.17576977722E+03 -0.52990895318E+02  0.17282973652E+03  0.70525411992E+03  0.65864270000E+03 0.  1.
    8880022    1    1    2    0    0 -0.17576977722E+03  0.52990895318E+02  0.38963974234E+03  0.45707092600E+03  0.15294330000E+03 0.  0.
<mgrwt>
<rscale>  0 0.52571116E+03</rscale>
<asrwt>0</asrwt>
<pdfrwt beam="1">  1        1 0.13267650E+00 0.68374941E+03</pdfrwt>
<pdfrwt beam="2">  1       -1 0.46142737E-01 0.68374941E+03</pdfrwt>
<totfact> 0.93623819E+01</totfact>
</mgrwt>
</event>
<event>
 4    1  0.1043382E-007  0.1570727E+04  0.7818608E-02  0.8861243E-01
         -1   -1    0    0    0  501 -0.00000000000E+00  0.00000000000E+00  0.15925314497E+04  0.15925314497E+04  0.50400000000E-02 0.  1.
          1   -1    0    0  501    0  0.00000000000E+00 -0.00000000000E+00 -0.14868175181E+04  0.14868175181E+04  0.50400000000E-02 0. -1.
    8880023    1    1    2    0    0  0.20705816521E+03 -0.14108507916E+04  0.38742141246E+03  0.16178005430E+04  0.65864270000E+03 0. -1.
    8880022    1    1    2    0    0 -0.20705816521E+03  0.14108507916E+04 -0.28170748086E+03  0.14615484247E+04  0.15294330000E+03 0.  0.
<mgrwt>
<rscale>  0 0.15354073E+04</rscale>
<asrwt>0</asrwt>
<pdfrwt beam="1">  1        1 0.22874116E+00 0.15707270E+04</pdfrwt>
<pdfrwt beam="2">  1       -1 0.24500484E+00 0.15707270E+04</pdfrwt>
<totfact> 0.47159910E-01</totfact>
</mgrwt>
</event>
<event>
 4    1  0.1043382E-007  0.7851037E+03  0.7818608E-02  0.9743982E-01
         -1   -1    0    0    0  501 -0.00000000000E+00  0.00000000000E+00  0.30111119100E+03  0.30111119104E+03  0.50400000000E-02 0.  1.
          1   -1    0    0  501    0  0.00000000000E+00 -0.00000000000E+00 -0.13662845123E+04  0.13662845123E+04  0.50400000000E-02 0. -1.
    8880023    1    1    2    0    0 -0.12009600935E+03  0.41006658702E+03 -0.87425196025E+03  0.11750337670E+04  0.65864270000E+03 0.  0.
    8880022    1    1    2    0    0  0.12009600935E+03 -0.41006658702E+03 -0.19092136101E+03  0.49236193634E+03  0.15294330000E+03 0. -1.
<mgrwt>
<rscale>  0 0.68457430E+03</rscale>
<asrwt>0</asrwt>
<pdfrwt beam="1">  1        1 0.21019761E+00 0.78510373E+03</pdfrwt>
<pdfrwt beam="2">  1       -1 0.46324799E-01 0.78510373E+03</pdfrwt>
<totfact> 0.38571548E+01</totfact>
</mgrwt>
</event>
<event>
 4    1  0.1043382E-007  0.7011354E+03  0.7818608E-02  0.9992523E-01
          1   -1    0    0  501    0  0.00000000000E+00  0.00000000000E+00  0.69044980765E+03  0.69044980767E+03  0.50400000000E-02 0. -1.
         -1   -1    0    0    0  501 -0.00000000000E+00 -0.00000000000E+00 -0.51183194004E+03  0.51183194006E+03  0.50400000000E-02 0.  1.
    8880023    1    1    2    0    0  0.48820344132E+02 -0.23536612521E+03 -0.19938434988E+03  0.72893412881E+03  0.65864270000E+03 0.  0.
    8880022    1    1    2    0    0 -0.48820344132E+02  0.23536612521E+03  0.37800221749E+03  0.47334761893E+03  0.15294330000E+03 0.  0.
<mgrwt>
<rscale>  0 0.55979291E+03</rscale>
<asrwt>0</asrwt>
<pdfrwt beam="1">  1        1 0.10622305E+00 0.70113540E+03</pdfrwt>
<pdfrwt beam="2">  1       -1 0.78743376E-01 0.70113540E+03</pdfrwt>
<totfact> 0.46114882E+01</totfact>
</mgrwt>
</event>
<event>
 4    1  0.1043382E-007  0.1578905E+04  0.7818608E-02  0.8855839E-01
          1   -1    0    0  501    0  0.00000000000E+00  0.00000000000E+00  0.23799662929E+04  0.23799662929E+04  0.50400000000E-02 0. -1.
         -1   -1    0    0    0  501 -0.00000000000E+00 -0.00000000000E+00 -0.12054591234E+04  0.12054591235E+04  0.50400000000E-02 0.  1.
    8880023    1    1    2    0    0  0.10224075122E+04 -0.10068825397E+04  0.14176995468E+04  0.21219829832E+04  0.65864270000E+03 0.  0.
    8880022    1    1    2    0    0 -0.10224075122E+04  0.10068825397E+04 -0.24319237732E+03  0.14634424332E+04  0.15294330000E+03 0.  0.
<mgrwt>
<rscale>  0 0.15437984E+04</rscale>
<asrwt>0</asrwt>
<pdfrwt beam="1">  1        1 0.36614866E+00 0.15789046E+04</pdfrwt>
<pdfrwt beam="2">  1       -1 0.18545525E+00 0.15789046E+04</pdfrwt>
<totfact> 0.29263222E-01</totfact>
</mgrwt>
</event>
<event>
 4    1  0.1043382E-007  0.9146553E+03  0.7818608E-02  0.9502903E-01
          1   -1    0    0  501    0  0.00000000000E+00  0.00000000000E+00  0.51487422918E+03  0.51487422921E+03  0.50400000000E-02 0. -1.
         -1   -1    0    0    0  501 -0.00000000000E+00 -0.00000000000E+00 -0.16577034219E+04  0.16577034219E+04  0.50400000000E-02 0.  1.
    8880023    1    1    2    0    0 -0.40512331573E+03 -0.48852761231E+03 -0.70764027636E+02  0.91738862147E+03  0.65864270000E+03 0.  0.
    8880022    1    1    2    0    0  0.40512331573E+03  0.48852761231E+03 -0.10720651650E+04  0.12551890296E+04  0.15294330000E+03 0.  0.
<mgrwt>
<rscale>  0 0.84070125E+03</rscale>
<asrwt>0</asrwt>
<pdfrwt beam="1">  1        1 0.79211420E-01 0.91465531E+03</pdfrwt>
<pdfrwt beam="2">  1       -1 0.25503129E+00 0.91465531E+03</pdfrwt>
<totfact> 0.28048710E+00</totfact>
</mgrwt>
</event>
<event>
 4    1  0.1043382E-007  0.6828377E+03  0.7818608E-02  0.1007762E+00
          1   -1    0    0  501    0  0.00000000000E+00  0.00000000000E+00  0.54237431405E+03  0.54237431408E+03  0.50400000000E-02 0. -1.
         -1   -1    0    0    0  501 -0.00000000000E+00 -0.00000000000E+00 -0.61967562094E+03  0.61967562096E+03  0.50400000000E-02 0.  1.
    8880023    1    1    2    0    0 -0.17418748700E+03 -0.45998680855E+02 -0.37730525752E+03  0.78014525755E+03  0.65864270000E+03 0.  1.
    8880022    1    1    2    0    0  0.17418748700E+03  0.45998680855E+02  0.30000395064E+03  0.38190467748E+03  0.15294330000E+03 0.  0.
<mgrwt>
<rscale>  0 0.52373895E+03</rscale>
<asrwt>0</asrwt>
<pdfrwt beam="1">  1        1 0.83442202E-01 0.68283773E+03</pdfrwt>
<pdfrwt beam="2">  1       -1 0.95334711E-01 0.68283773E+03</pdfrwt>
<totfact> 0.43235706E+01</totfact>
</mgrwt>
</event>
<event>
 4    1  0.1043382E-007  0.1063639E+04  0.7818608E-02  0.9302663E-01
         -1   -1    0    0    0  501 -0.00000000000E+00  0.00000000000E+00  0.13875920825E+04  0.13875920825E+04  0.50400000000E-02 0.  1.
          1   -1    0    0  501    0  0.00000000000E+00 -0.00000000000E+00 -0.14815491834E+04  0.14815491834E+04  0.50400000000E-02 0. -1.
    8880023    1    1    2    0    0 -0.21791151928E+03  0.80624561368E+03  0.10165129546E+04  0.14712668735E+04  0.65864270000E+03 0.  0.
    8880022    1    1    2    0    0  0.21791151928E+03 -0.80624561368E+03 -0.11104700556E+04  0.13978743925E+04  0.15294330000E+03 0.  0.
<mgrwt>
<rscale>  0 0.10053811E+04</rscale>
<asrwt>0</asrwt>
<pdfrwt beam="1">  1        1 0.22793064E+00 0.10636389E+04</pdfrwt>
<pdfrwt beam="2">  1       -1 0.21347571E+00 0.10636389E+04</pdfrwt>
<totfact> 0.81900518E-01</totfact>
</mgrwt>
</event>
<event>
 4    1  0.1043382E-007  0.8034986E+03  0.7818608E-02  0.9703282E-01
          1   -1    0    0  501    0  0.00000000000E+00  0.00000000000E+00  0.47102979090E+03  0.47102979093E+03  0.50400000000E-02 0. -1.
         -1   -1    0    0    0  501 -0.00000000000E+00 -0.00000000000E+00 -0.13074631550E+04  0.13074631550E+04  0.50400000000E-02 0.  1.
    8880023    1    1    2    0    0 -0.36803905333E+03  0.27630955414E+03 -0.98511853142E+03  0.12712468060E+04  0.65864270000E+03 0.  1.
    8880022    1    1    2    0    0  0.36803905333E+03 -0.27630955414E+03  0.14868516734E+03  0.50724613995E+03  0.15294330000E+03 0.  0.
<mgrwt>
<rscale>  0 0.70821724E+03</rscale>
<asrwt>0</asrwt>
<pdfrwt beam="1">  1        1 0.72466122E-01 0.80349855E+03</pdfrwt>
<pdfrwt beam="2">  1       -1 0.20114818E+00 0.80349855E+03</pdfrwt>
<totfact> 0.72994975E+00</totfact>
</mgrwt>
</event>
<event>
 4    1  0.1043382E-007  0.9417844E+03  0.7818608E-02  0.9462034E-01
         -1   -1    0    0    0  501 -0.00000000000E+00  0.00000000000E+00  0.10065505499E+04  0.10065505499E+04  0.50400000000E-02 0.  1.
          1   -1    0    0  501    0  0.00000000000E+00 -0.00000000000E+00 -0.11526687718E+04  0.11526687718E+04  0.50400000000E-02 0. -1.
    8880023    1    1    2    0    0 -0.10792026061E+03 -0.66445528013E+03  0.62032822168E+03  0.11277255476E+04  0.65864270000E+03 0. -1.
    8880022    1    1    2    0    0  0.10792026061E+03  0.66445528013E+03 -0.76644644360E+03  0.10314937740E+04  0.15294330000E+03 0.  0.
<mgrwt>
<rscale>  0 0.87141683E+03</rscale>
<asrwt>0</asrwt>
<pdfrwt beam="1">  1        1 0.17733366E+00 0.94178437E+03</pdfrwt>
<pdfrwt beam="2">  1       -1 0.15485393E+00 0.94178437E+03</pdfrwt>
<totfact> 0.37443092E+00</totfact>
</mgrwt>
</event>
<event>
 4    1  0.1043382E-007  0.9072195E+03  0.7818608E-02  0.9514540E-01
         -1   -1    0    0    0  501 -0.00000000000E+00  0.00000000000E+00  0.39544181870E+03  0.39544181874E+03  0.50400000000E-02 0.  1.
          1   -1    0    0  501    0  0.00000000000E+00 -0.00000000000E+00 -0.19148551541E+04  0.19148551541E+04  0.50400000000E-02 0. -1.
    8880023    1    1    2    0    0 -0.46150909143E+03 -0.41981710856E+03 -0.34292846914E+03  0.96986967543E+03  0.65864270000E+03 0.  0.
    8880022    1    1    2    0    0  0.46150909143E+03  0.41981710856E+03 -0.11764848663E+04  0.13404272974E+04  0.15294330000E+03 0.  0.
<mgrwt>
<rscale>  0 0.83220289E+03</rscale>
<asrwt>0</asrwt>
<pdfrwt beam="1">  1        1 0.29459310E+00 0.90721952E+03</pdfrwt>
<pdfrwt beam="2">  1       -1 0.60837204E-01 0.90721952E+03</pdfrwt>
<totfact> 0.95301813E+00</totfact>
</mgrwt>
</event>
<event>
 4    1  0.1043382E-007  0.7108621E+03  0.7818608E-02  0.9954814E-01
         -1   -1    0    0    0  501 -0.00000000000E+00  0.00000000000E+00  0.43506535133E+03  0.43506535136E+03  0.50400000000E-02 0.  1.
          1   -1    0    0  501    0  0.00000000000E+00 -0.00000000000E+00 -0.14551063061E+04  0.14551063061E+04  0.50400000000E-02 0. -1.
    8880023    1    1    2    0    0 -0.14903173163E+03  0.22204556956E+03  0.10961362374E+03  0.71926354333E+03  0.65864270000E+03 0.  1.
    8880022    1    1    2    0    0  0.14903173163E+03 -0.22204556956E+03 -0.11296545785E+04  0.11709081142E+04  0.15294330000E+03 0.  0.
<mgrwt>
<rscale>  0 0.57676768E+03</rscale>
<asrwt>0</asrwt>
<pdfrwt beam="1">  1        1 0.22386251E+00 0.71086208E+03</pdfrwt>
<pdfrwt beam="2">  1       -1 0.66933131E-01 0.71086208E+03</pdfrwt>
<totfact> 0.16544778E+01</totfact>
</mgrwt>
</event>
<event>
 4    1  0.1043382E-007  0.6880247E+03  0.7818608E-02  0.1005106E+00
         -1   -1    0    0    0  501 -0.00000000000E+00  0.00000000000E+00  0.26872257467E+03  0.26872257471E+03  0.50400000000E-02 0.  1.
          1   -1    0    0  501    0  0.00000000000E+00 -0.00000000000E+00 -0.85756750983E+03  0.85756750984E+03  0.50400000000E-02 0. -1.
    8880023    1    1    2    0    0  0.25627313571E+02  0.19725872938E+03 -0.32083058818E+03  0.75915099821E+03  0.65864270000E+03 0. -1.
    8880022    1    1    2    0    0 -0.25627313571E+02 -0.19725872938E+03 -0.26801434698E+03  0.36713908634E+03  0.15294330000E+03 0.  1.
<mgrwt>
<rscale>  0 0.53466974E+03</rscale>
<asrwt>0</asrwt>
<pdfrwt beam="1">  1        1 0.13193346E+00 0.68802469E+03</pdfrwt>
<pdfrwt beam="2">  1       -1 0.41341935E-01 0.68802469E+03</pdfrwt>
<totfact> 0.11567428E+02</totfact>
</mgrwt>
</event>
<event>
 4    1  0.1043382E-007  0.7951432E+03  0.7818608E-02  0.9721397E-01
          1   -1    0    0  501    0  0.00000000000E+00  0.00000000000E+00  0.22878124709E+04  0.22878124709E+04  0.50400000000E-02 0. -1.
         -1   -1    0    0    0  501 -0.00000000000E+00 -0.00000000000E+00 -0.25553398322E+03  0.25553398327E+03  0.50400000000E-02 0.  1.
    8880023    1    1    2    0    0  0.33620859637E+03  0.29224358178E+03  0.49757058905E+03  0.93799212615E+03  0.65864270000E+03 0.  0.
    8880022    1    1    2    0    0 -0.33620859637E+03 -0.29224358178E+03  0.15347078986E+04  0.16053543280E+04  0.15294330000E+03 0.  0.
<mgrwt>
<rscale>  0 0.69756965E+03</rscale>
<asrwt>0</asrwt>
<pdfrwt beam="1">  1        1 0.35197117E+00 0.79514322E+03</pdfrwt>
<pdfrwt beam="2">  1       -1 0.39312918E-01 0.79514322E+03</pdfrwt>
<totfact> 0.12423005E+01</totfact>
</mgrwt>
</event>
<event>
 4    1  0.1043382E-007  0.7135722E+03  0.7818608E-02  0.9944968E-01
         -1   -1    0    0    0  501 -0.00000000000E+00  0.00000000000E+00  0.40378326512E+03  0.40378326515E+03  0.50400000000E-02 0.  1.
          1   -1    0    0  501    0  0.00000000000E+00 -0.00000000000E+00 -0.11228461643E+04  0.11228461643E+04  0.50400000000E-02 0. -1.
    8880023    1    1    2    0    0  0.25075369573E+03  0.11179289114E+03  0.30112024327E+02  0.71420725753E+03  0.65864270000E+03 0.  1.
    8880022    1    1    2    0    0 -0.25075369573E+03 -0.11179289114E+03 -0.74917492347E+03  0.81242217191E+03  0.15294330000E+03 0.  0.
<mgrwt>
<rscale>  0 0.58130595E+03</rscale>
<asrwt>0</asrwt>
<pdfrwt beam="1">  1        1 0.17274556E+00 0.71357219E+03</pdfrwt>
<pdfrwt beam="2">  1       -1 0.62120503E-01 0.71357219E+03</pdfrwt>
<totfact> 0.33053744E+01</totfact>
</mgrwt>
</event>
<event>
 4    1  0.1043382E-007  0.7429700E+03  0.7818608E-02  0.9851379E-01
          1   -1    0    0  501    0  0.00000000000E+00  0.00000000000E+00  0.87442773452E+03  0.87442773453E+03  0.50400000000E-02 0. -1.
         -1   -1    0    0    0  501 -0.00000000000E+00 -0.00000000000E+00 -0.46618054343E+03  0.46618054346E+03  0.50400000000E-02 0.  1.
    8880023    1    1    2    0    0  0.51277617632E+02 -0.33994818475E+03 -0.53578853091E+02  0.74489936377E+03  0.65864270000E+03 0.  0.
    8880022    1    1    2    0    0 -0.51277617632E+02  0.33994818475E+03  0.46182604418E+03  0.59570891422E+03  0.15294330000E+03 0.  0.
<mgrwt>
<rscale>  0 0.62676670E+03</rscale>
<asrwt>0</asrwt>
<pdfrwt beam="1">  1        1 0.13452734E+00 0.74296996E+03</pdfrwt>
<pdfrwt beam="2">  1       -1 0.71720084E-01 0.74296996E+03</pdfrwt>
<totfact> 0.38446983E+01</totfact>
</mgrwt>
</event>
<event>
 4    1  0.1043382E-007  0.6590938E+03  0.7818608E-02  0.1025105E+00
         -1   -1    0    0    0  501 -0.00000000000E+00  0.00000000000E+00  0.21426057113E+03  0.21426057119E+03  0.50400000000E-02 0.  1.
          1   -1    0    0  501    0  0.00000000000E+00 -0.00000000000E+00 -0.48396033276E+04  0.48396033276E+04  0.50400000000E-02 0. -1.
    8880023    1    1    2    0    0  0.23768437128E+02 -0.54318810996E+01 -0.29728726037E+03  0.72303828763E+03  0.65864270000E+03 0.  1.
    8880022    1    1    2    0    0 -0.23768437128E+02  0.54318810996E+01 -0.43280554961E+04  0.43308256111E+04  0.15294330000E+03 0.  0.
<mgrwt>
<rscale>  0 0.45888660E+03</rscale>
<asrwt>0</asrwt>
<pdfrwt beam="1">  1        1 0.74455428E+00 0.65909381E+03</pdfrwt>
<pdfrwt beam="2">  1       -1 0.32963168E-01 0.65909381E+03</pdfrwt>
<totfact> 0.13984755E-01</totfact>
</mgrwt>
</event>
<event>
 4    1  0.1043382E-007  0.8496472E+03  0.7818608E-02  0.9612251E-01
         -1   -1    0    0    0  501 -0.00000000000E+00  0.00000000000E+00  0.11388670528E+04  0.11388670528E+04  0.50400000000E-02 0.  1.
          1   -1    0    0  501    0  0.00000000000E+00 -0.00000000000E+00 -0.57143079091E+03  0.57143079093E+03  0.50400000000E-02 0. -1.
    8880023    1    1    2    0    0  0.53177624235E+03  0.72829321618E+02 -0.82471662538E+02  0.85364035952E+03  0.65864270000E+03 0. -1.
    8880022    1    1    2    0    0 -0.53177624235E+03 -0.72829321618E+02  0.64990792441E+03  0.85665748421E+03  0.15294330000E+03 0.  0.
<mgrwt>
<rscale>  0 0.76490593E+03</rscale>
<asrwt>0</asrwt>
<pdfrwt beam="1">  1        1 0.87912431E-01 0.84964716E+03</pdfrwt>
<pdfrwt beam="2">  1       -1 0.17521031E+00 0.84964716E+03</pdfrwt>
<totfact> 0.84398990E+00</totfact>
</mgrwt>
</event>
<event>
 4    1  0.1043382E-007  0.1069869E+04  0.7818608E-02  0.9295369E-01
          1   -1    0    0  501    0  0.00000000000E+00  0.00000000000E+00  0.13736224500E+04  0.13736224500E+04  0.50400000000E-02 0. -1.
         -1   -1    0    0    0  501 -0.00000000000E+00 -0.00000000000E+00 -0.98478245693E+03  0.98478245694E+03  0.50400000000E-02 0.  1.
    8880023    1    1    2    0    0 -0.44422442861E+03  0.71657053111E+03  0.86708703825E+03  0.13771197505E+04  0.65864270000E+03 0. -1.
    8880022    1    1    2    0    0  0.44422442861E+03 -0.71657053111E+03 -0.47824704519E+03  0.98128515645E+03  0.15294330000E+03 0.  1.
<mgrwt>
<rscale>  0 0.10121029E+04</rscale>
<asrwt>0</asrwt>
<pdfrwt beam="1">  1        1 0.21132653E+00 0.10698686E+04</pdfrwt>
<pdfrwt beam="2">  1       -1 0.15150499E+00 0.10698686E+04</pdfrwt>
<totfact> 0.27114292E+00</totfact>
</mgrwt>
</event>
<event>
 4    1  0.1043382E-007  0.7399916E+03  0.7818608E-02  0.9859972E-01
         -1   -1    0    0    0  501 -0.00000000000E+00  0.00000000000E+00  0.36738197845E+03  0.36738197849E+03  0.50400000000E-02 0.  1.
          1   -1    0    0  501    0  0.00000000000E+00 -0.00000000000E+00 -0.18577933288E+04  0.18577933288E+04  0.50400000000E-02 0. -1.
    8880023    1    1    2    0    0 -0.26769761468E+03  0.20522029941E+03 -0.54194573979E+02  0.74197347817E+03  0.65864270000E+03 0.  1.
    8880022    1    1    2    0    0  0.26769761468E+03 -0.20522029941E+03 -0.14362167764E+04  0.14832018291E+04  0.15294330000E+03 0.  0.
<mgrwt>
<rscale>  0 0.62241079E+03</rscale>
<asrwt>0</asrwt>
<pdfrwt beam="1">  1        1 0.28581435E+00 0.73999162E+03</pdfrwt>
<pdfrwt beam="2">  1       -1 0.56520305E-01 0.73999162E+03</pdfrwt>
<totfact> 0.12309811E+01</totfact>
</mgrwt>
</event>
<event>
 4    1  0.1043382E-007  0.7361809E+03  0.7818608E-02  0.9871215E-01
         -1   -1    0    0    0  501 -0.00000000000E+00  0.00000000000E+00  0.21323778160E+04  0.21323778160E+04  0.50400000000E-02 0.  1.
          1   -1    0    0  501    0  0.00000000000E+00 -0.00000000000E+00 -0.15728304148E+03  0.15728304156E+03  0.50400000000E-02 0. -1.
    8880023    1    1    2    0    0  0.25480735952E+03 -0.20790709577E+03  0.16321973666E+04  0.17905391928E+04  0.65864270000E+03 0.  1.
    8880022    1    1    2    0    0 -0.25480735952E+03  0.20790709577E+03  0.34289740792E+03  0.49912166484E+03  0.15294330000E+03 0.  1.
<mgrwt>
<rscale>  0 0.61676855E+03</rscale>
<asrwt>0</asrwt>
<pdfrwt beam="1">  1        1 0.24197392E-01 0.73618093E+03</pdfrwt>
<pdfrwt beam="2">  1       -1 0.32805811E+00 0.73618093E+03</pdfrwt>
<totfact> 0.46469483E+00</totfact>
</mgrwt>
</event>
<event>
 4    1  0.1043382E-007  0.8824928E+03  0.7818608E-02  0.9554742E-01
          1   -1    0    0  501    0  0.00000000000E+00  0.00000000000E+00  0.37006385229E+03  0.37006385232E+03  0.50400000000E-02 0. -1.
         -1   -1    0    0    0  501 -0.00000000000E+00 -0.00000000000E+00 -0.17089304594E+04  0.17089304594E+04  0.50400000000E-02 0.  1.
    8880023    1    1    2    0    0 -0.54491425474E+03 -0.21920720093E+03 -0.11371539306E+04  0.14394139815E+04  0.65864270000E+03 0.  0.
    8880022    1    1    2    0    0  0.54491425474E+03  0.21920720093E+03 -0.20171267652E+03  0.63958033024E+03  0.15294330000E+03 0.  0.
<mgrwt>
<rscale>  0 0.80365499E+03</rscale>
<asrwt>0</asrwt>
<pdfrwt beam="1">  1        1 0.56932901E-01 0.88249280E+03</pdfrwt>
<pdfrwt beam="2">  1       -1 0.26291237E+00 0.88249280E+03</pdfrwt>
<totfact> 0.39135079E+00</totfact>
</mgrwt>
</event>
<event>
 4    1  0.1043382E-007  0.1023706E+04  0.7818608E-02  0.9351179E-01
         -1   -1    0    0    0  501 -0.00000000000E+00  0.00000000000E+00  0.10822232152E+04  0.10822232152E+04  0.50400000000E-02 0.  1.
          1   -1    0    0  501    0  0.00000000000E+00 -0.00000000000E+00 -0.13331580771E+04  0.13331580771E+04  0.50400000000E-02 0. -1.
    8880023    1    1    2    0    0 -0.31060732828E+03 -0.71950494469E+03  0.64914829419E+03  0.12121749015E+04  0.65864270000E+03 0.  0.
    8880022    1    1    2    0    0  0.31060732828E+03  0.71950494469E+03 -0.90008315612E+03  0.12032063908E+04  0.15294330000E+03 0.  0.
<mgrwt>
<rscale>  0 0.96204703E+03</rscale>
<asrwt>0</asrwt>
<pdfrwt beam="1">  1        1 0.20510124E+00 0.10237062E+04</pdfrwt>
<pdfrwt beam="2">  1       -1 0.16649588E+00 0.10237062E+04</pdfrwt>
<totfact> 0.22405269E+00</totfact>
</mgrwt>
</event>
<event>
 4    1  0.1043382E-007  0.7113808E+03  0.7818608E-02  0.9952909E-01
          1   -1    0    0  501    0  0.00000000000E+00  0.00000000000E+00  0.63629652023E+03  0.63629652025E+03  0.50400000000E-02 0. -1.
         -1   -1    0    0    0  501 -0.00000000000E+00 -0.00000000000E+00 -0.42440808466E+03  0.42440808469E+03  0.50400000000E-02 0.  1.
    8880023    1    1    2    0    0  0.14273533325E+03  0.22776967222E+03  0.53891135242E+02  0.71341913323E+03  0.65864270000E+03 0.  1.
    8880022    1    1    2    0    0 -0.14273533325E+03 -0.22776967222E+03  0.15799730033E+03  0.34728547172E+03  0.15294330000E+03 0.  0.
<mgrwt>
<rscale>  0 0.57764210E+03</rscale>
<asrwt>0</asrwt>
<pdfrwt beam="1">  1        1 0.97891772E-01 0.71138077E+03</pdfrwt>
<pdfrwt beam="2">  1       -1 0.65293552E-01 0.71138077E+03</pdfrwt>
<totfact> 0.76453459E+01</totfact>
</mgrwt>
</event>
<event>
 4    1  0.2621676E-007  0.8717485E+03  0.7818608E-02  0.9572997E-01
          1   -1    0    0  501    0  0.00000000000E+00  0.00000000000E+00  0.22334520476E+04  0.22334520476E+04  0.50400000000E-02 0. -1.
         -1   -1    0    0    0  501 -0.00000000000E+00 -0.00000000000E+00 -0.15137921189E+04  0.15137921189E+04  0.50400000000E-02 0.  1.
    8880023    1    1    2    0    0  0.56283485294E+03  0.96706965582E+02 -0.13432256844E+04  0.16013121977E+04  0.65864270000E+03 0.  1.
    8880022    1    1    2    0    0 -0.56283485294E+03 -0.96706965582E+02  0.20628856131E+04  0.21459319688E+04  0.15294330000E+03 0.  0.
<mgrwt>
<rscale>  0 0.79109476E+03</rscale>
<asrwt>0</asrwt>
<pdfrwt beam="1">  1        1 0.34360801E+00 0.87174854E+03</pdfrwt>
<pdfrwt beam="2">  1       -1 0.23289110E+00 0.87174854E+03</pdfrwt>
<totfact> 0.19517361E-01</totfact>
</mgrwt>
</event>
<event>
 4    1  0.1043382E-007  0.7470045E+03  0.7818608E-02  0.9839994E-01
          1   -1    0    0  501    0  0.00000000000E+00  0.00000000000E+00  0.27839186303E+03  0.27839186308E+03  0.50400000000E-02 0. -1.
         -1   -1    0    0    0  501 -0.00000000000E+00 -0.00000000000E+00 -0.11762770447E+04  0.11762770447E+04  0.50400000000E-02 0.  1.
    8880023    1    1    2    0    0 -0.23330699661E+03 -0.26414649822E+03 -0.69448578200E+03  0.10199638400E+04  0.65864270000E+03 0. -1.
    8880022    1    1    2    0    0  0.23330699661E+03  0.26414649822E+03 -0.20339939968E+03  0.43470506782E+03  0.15294330000E+03 0.  1.
<mgrwt>
<rscale>  0 0.63259707E+03</rscale>
<asrwt>0</asrwt>
<pdfrwt beam="1">  1        1 0.42829518E-01 0.74700451E+03</pdfrwt>
<pdfrwt beam="2">  1       -1 0.18096570E+00 0.74700451E+03</pdfrwt>
<totfact> 0.20314199E+01</totfact>
</mgrwt>
</event>
<event>
 4    1  0.1043382E-007  0.9233305E+03  0.7818608E-02  0.9489571E-01
          1   -1    0    0  501    0  0.00000000000E+00  0.00000000000E+00  0.93536565942E+03  0.93536565944E+03  0.50400000000E-02 0. -1.
         -1   -1    0    0    0  501 -0.00000000000E+00 -0.00000000000E+00 -0.13081080350E+04  0.13081080350E+04  0.50400000000E-02 0.  1.
    8880023    1    1    2    0    0  0.13176891317E+03  0.63353451479E+03 -0.97752267631E+03  0.13446523033E+04  0.65864270000E+03 0.  0.
    8880022    1    1    2    0    0 -0.13176891317E+03 -0.63353451479E+03  0.60478030075E+03  0.89882139110E+03  0.15294330000E+03 0.  1.
<mgrwt>
<rscale>  0 0.85057085E+03</rscale>
<asrwt>0</asrwt>
<pdfrwt beam="1">  1        1 0.14390241E+00 0.92333051E+03</pdfrwt>
<pdfrwt beam="2">  1       -1 0.20124739E+00 0.92333051E+03</pdfrwt>
<totfact> 0.25489452E+00</totfact>
</mgrwt>
</event>
<event>
 4    1  0.1043382E-007  0.6623218E+03  0.7818608E-02  0.1021894E+00
         -1   -1    0    0    0  501 -0.00000000000E+00  0.00000000000E+00  0.16029090198E+03  0.16029090206E+03  0.50400000000E-02 0.  1.
          1   -1    0    0  501    0  0.00000000000E+00 -0.00000000000E+00 -0.12975506215E+04  0.12975506215E+04  0.50400000000E-02 0. -1.
    8880023    1    1    2    0    0  0.21116322610E+02  0.66438726710E+02 -0.59571564761E+03  0.89081274270E+03  0.65864270000E+03 0.  0.
    8880022    1    1    2    0    0 -0.21116322610E+02 -0.66438726710E+02 -0.54154407189E+03  0.56702878084E+03  0.15294330000E+03 0.  0.
<mgrwt>
<rscale>  0 0.47009139E+03</rscale>
<asrwt>0</asrwt>
<pdfrwt beam="1">  1        1 0.19962317E+00 0.66232183E+03</pdfrwt>
<pdfrwt beam="2">  1       -1 0.24660140E-01 0.66232183E+03</pdfrwt>
<totfact> 0.13363626E+02</totfact>
</mgrwt>
</event>
<event>
 4    1  0.1043382E-007  0.8238715E+03  0.7818608E-02  0.9661376E-01
         -1   -1    0    0    0  501 -0.00000000000E+00  0.00000000000E+00  0.62830392744E+03  0.62830392746E+03  0.50400000000E-02 0.  1.
          1   -1    0    0  501    0  0.00000000000E+00 -0.00000000000E+00 -0.10076817063E+04  0.10076817063E+04  0.50400000000E-02 0. -1.
    8880023    1    1    2    0    0 -0.98898059217E+02 -0.48494668438E+03  0.21109929475E+03  0.85048646745E+03  0.65864270000E+03 0.  1.
    8880022    1    1    2    0    0  0.98898059217E+02  0.48494668438E+03 -0.59047707359E+03  0.78549916630E+03  0.15294330000E+03 0.  0.
<mgrwt>
<rscale>  0 0.73363741E+03</rscale>
<asrwt>0</asrwt>
<pdfrwt beam="1">  1        1 0.15502795E+00 0.82387154E+03</pdfrwt>
<pdfrwt beam="2">  1       -1 0.96662143E-01 0.82387154E+03</pdfrwt>
<totfact> 0.15692287E+01</totfact>
</mgrwt>
</event>
<event>
 4    1  0.1219682E-007  0.6600421E+03  0.7818608E-02  0.1024113E+00
         -1   -1    0    0    0  501 -0.00000000000E+00  0.00000000000E+00  0.99270251905E+03  0.99270251906E+03  0.50400000000E-02 0.  1.
          1   -1    0    0  501    0  0.00000000000E+00 -0.00000000000E+00 -0.94001787262E+03  0.94001787263E+03  0.50400000000E-02 0. -1.
    8880023    1    1    2    0    0 -0.23743790791E+02  0.35799317366E+02  0.87453432563E+03  0.10956577256E+04  0.65864270000E+03 0.  1.
    8880022    1    1    2    0    0  0.23743790791E+02 -0.35799317366E+02 -0.82184967920E+03  0.83706266608E+03  0.15294330000E+03 0.  0.
<mgrwt>
<rscale>  0 0.46231019E+03</rscale>
<asrwt>0</asrwt>
<pdfrwt beam="1">  1        1 0.14461814E+00 0.66004209E+03</pdfrwt>
<pdfrwt beam="2">  1       -1 0.15272346E+00 0.66004209E+03</pdfrwt>
<totfact> 0.58926096E+00</totfact>
</mgrwt>
</event>
<event>
 4    1  0.1043382E-007  0.7388571E+03  0.7818608E-02  0.9863289E-01
          1   -1    0    0  501    0  0.00000000000E+00  0.00000000000E+00  0.23643890272E+03  0.23643890277E+03  0.50400000000E-02 0. -1.
         -1   -1    0    0    0  501 -0.00000000000E+00 -0.00000000000E+00 -0.14226521121E+04  0.14226521121E+04  0.50400000000E-02 0.  1.
    8880023    1    1    2    0    0  0.18978349007E+03 -0.27582939045E+03 -0.53914065313E+03  0.91464882652E+03  0.65864270000E+03 0. -1.
    8880022    1    1    2    0    0 -0.18978349007E+03  0.27582939045E+03 -0.64707255625E+03  0.74444218836E+03  0.15294330000E+03 0.  1.
<mgrwt>
<rscale>  0 0.62073933E+03</rscale>
<asrwt>0</asrwt>
<pdfrwt beam="1">  1        1 0.36375217E-01 0.73885711E+03</pdfrwt>
<pdfrwt beam="2">  1       -1 0.21886955E+00 0.73885711E+03</pdfrwt>
<totfact> 0.13811270E+01</totfact>
</mgrwt>
</event>
<event>
 4    1  0.1043382E-007  0.7419965E+03  0.7818608E-02  0.9854169E-01
          1   -1    0    0  501    0  0.00000000000E+00  0.00000000000E+00  0.74264240010E+03  0.74264240012E+03  0.50400000000E-02 0. -1.
         -1   -1    0    0    0  501 -0.00000000000E+00 -0.00000000000E+00 -0.13248119587E+04  0.13248119587E+04  0.50400000000E-02 0.  1.
    8880023    1    1    2    0    0  0.32955688534E+03 -0.90226569340E+02 -0.11611571990E+04  0.13779857843E+04  0.65864270000E+03 0.  1.
    8880022    1    1    2    0    0 -0.32955688534E+03  0.90226569340E+02  0.57898764045E+03  0.68946857455E+03  0.15294330000E+03 0.  0.
<mgrwt>
<rscale>  0 0.62534796E+03</rscale>
<asrwt>0</asrwt>
<pdfrwt beam="1">  1        1 0.11425268E+00 0.74199648E+03</pdfrwt>
<pdfrwt beam="2">  1       -1 0.20381722E+00 0.74199648E+03</pdfrwt>
<totfact> 0.36647261E+00</totfact>
</mgrwt>
</event>
<event>
 4    1  0.1043382E-007  0.7744494E+03  0.7818608E-02  0.9769041E-01
         -1   -1    0    0    0  501 -0.00000000000E+00  0.00000000000E+00  0.65766658867E+03  0.65766658869E+03  0.50400000000E-02 0.  1.
          1   -1    0    0  501    0  0.00000000000E+00 -0.00000000000E+00 -0.11728673553E+04  0.11728673553E+04  0.50400000000E-02 0. -1.
    8880023    1    1    2    0    0 -0.20081295307E+02  0.40688874736E+03  0.35930993710E+03  0.85374208536E+03  0.65864270000E+03 0.  1.
    8880022    1    1    2    0    0  0.20081295307E+02 -0.40688874736E+03 -0.87451070372E+03  0.97679185863E+03  0.15294330000E+03 0.  0.
<mgrwt>
<rscale>  0 0.67050794E+03</rscale>
<asrwt>0</asrwt>
<pdfrwt beam="1">  1        1 0.18044113E+00 0.77444943E+03</pdfrwt>
<pdfrwt beam="2">  1       -1 0.10117948E+00 0.77444943E+03</pdfrwt>
<totfact> 0.10696291E+01</totfact>
</mgrwt>
</event>
<event>
 4    1  0.1043382E-007  0.6693319E+03  0.7818608E-02  0.1016146E+00
          1   -1    0    0  501    0  0.00000000000E+00  0.00000000000E+00  0.74868793186E+03  0.74868793187E+03  0.50400000000E-02 0. -1.
         -1   -1    0    0    0  501 -0.00000000000E+00 -0.00000000000E+00 -0.99013016122E+03  0.99013016123E+03  0.50400000000E-02 0.  1.
    8880023    1    1    2    0    0  0.46307062566E+02 -0.10977566174E+03 -0.86046825341E+03  0.10901425876E+04  0.65864270000E+03 0.  1.
    8880022    1    1    2    0    0 -0.46307062566E+02  0.10977566174E+03  0.61902602405E+03  0.64867550548E+03  0.15294330000E+03 0.  0.
<mgrwt>
<rscale>  0 0.49103271E+03</rscale>
<asrwt>0</asrwt>
<pdfrwt beam="1">  1        1 0.11518276E+00 0.66933194E+03</pdfrwt>
<pdfrwt beam="2">  1       -1 0.15232772E+00 0.66933194E+03</pdfrwt>
<totfact> 0.85804149E+00</totfact>
</mgrwt>
</event>
<event>
 4    1  0.1043382E-007  0.8120563E+03  0.7818608E-02  0.9685309E-01
         -1   -1    0    0    0  501 -0.00000000000E+00  0.00000000000E+00  0.71964021667E+03  0.71964021669E+03  0.50400000000E-02 0.  1.
          1   -1    0    0  501    0  0.00000000000E+00 -0.00000000000E+00 -0.14678634656E+04  0.14678634656E+04  0.50400000000E-02 0. -1.
    8880023    1    1    2    0    0  0.32139671342E+03  0.34975626506E+03  0.42211858651E+03  0.91521560284E+03  0.65864270000E+03 0.  1.
    8880022    1    1    2    0    0 -0.32139671342E+03 -0.34975626506E+03 -0.11703418355E+04  0.12722880795E+04  0.15294330000E+03 0.  0.
<mgrwt>
<rscale>  0 0.71898236E+03</rscale>
<asrwt>0</asrwt>
<pdfrwt beam="1">  1        1 0.22582515E+00 0.81205634E+03</pdfrwt>
<pdfrwt beam="2">  1       -1 0.11071388E+00 0.81205634E+03</pdfrwt>
<totfact> 0.53367013E+00</totfact>
</mgrwt>
</event>
<event>
 4    1  0.1043382E-007  0.1014947E+04  0.7818608E-02  0.9362258E-01
         -1   -1    0    0    0  501 -0.00000000000E+00  0.00000000000E+00  0.17626236403E+04  0.17626236403E+04  0.50400000000E-02 0.  1.
          1   -1    0    0  501    0  0.00000000000E+00 -0.00000000000E+00 -0.56544137596E+03  0.56544137598E+03  0.50400000000E-02 0. -1.
    8880023    1    1    2    0    0 -0.74863988234E+03 -0.18933054454E+03  0.11580695347E+04  0.15398840807E+04  0.65864270000E+03 0.  1.
    8880022    1    1    2    0    0  0.74863988234E+03  0.18933054454E+03  0.39112729597E+02  0.78818093555E+03  0.15294330000E+03 0.  0.
<mgrwt>
<rscale>  0 0.95247863E+03</rscale>
<asrwt>0</asrwt>
<pdfrwt beam="1">  1        1 0.86990981E-01 0.10149473E+04</pdfrwt>
<pdfrwt beam="2">  1       -1 0.27117287E+00 0.10149473E+04</pdfrwt>
<totfact> 0.19100984E+00</totfact>
</mgrwt>
</event>
<event>
 4    1  0.1043382E-007  0.8349515E+03  0.7818608E-02  0.9639774E-01
         -1   -1    0    0    0  501 -0.00000000000E+00  0.00000000000E+00  0.94517861986E+03  0.94517861987E+03  0.50400000000E-02 0.  1.
          1   -1    0    0  501    0  0.00000000000E+00 -0.00000000000E+00 -0.76954042650E+03  0.76954042652E+03  0.50400000000E-02 0. -1.
    8880023    1    1    2    0    0 -0.48237260009E+03  0.17507298391E+03  0.60274292543E+03  0.10297781875E+04  0.65864270000E+03 0.  1.
    8880022    1    1    2    0    0  0.48237260009E+03 -0.17507298391E+03 -0.42710473207E+03  0.68494085890E+03  0.15294330000E+03 0.  0.
<mgrwt>
<rscale>  0 0.74718690E+03</rscale>
<asrwt>0</asrwt>
<pdfrwt beam="1">  1        1 0.11839083E+00 0.83495154E+03</pdfrwt>
<pdfrwt beam="2">  1       -1 0.14541210E+00 0.83495154E+03</pdfrwt>
<totfact> 0.91022931E+00</totfact>
</mgrwt>
</event>
<event>
 4    1  0.1043382E-007  0.7671275E+03  0.7818608E-02  0.9786993E-01
          1   -1    0    0  501    0  0.00000000000E+00  0.00000000000E+00  0.20124576309E+03  0.20124576315E+03  0.50400000000E-02 0. -1.
         -1   -1    0    0    0  501 -0.00000000000E+00 -0.00000000000E+00 -0.18822028932E+04  0.18822028932E+04  0.50400000000E-02 0.  1.
    8880023    1    1    2    0    0  0.21632806635E+03 -0.32844569070E+03 -0.13265297259E+04  0.15323725800E+04  0.65864270000E+03 0.  0.
    8880022    1    1    2    0    0 -0.21632806635E+03  0.32844569070E+03 -0.35442740416E+03  0.55107607629E+03  0.15294330000E+03 0.  0.
<mgrwt>
<rscale>  0 0.66065284E+03</rscale>
<asrwt>0</asrwt>
<pdfrwt beam="1">  1        1 0.30960888E-01 0.76712751E+03</pdfrwt>
<pdfrwt beam="2">  1       -1 0.28956966E+00 0.76712751E+03</pdfrwt>
<totfact> 0.59230576E+00</totfact>
</mgrwt>
</event>
<event>
 4    1  0.1043382E-007  0.7229686E+03  0.7818608E-02  0.9912666E-01
         -1   -1    0    0    0  501 -0.00000000000E+00  0.00000000000E+00  0.33224592805E+03  0.33224592809E+03  0.50400000000E-02 0.  1.
          1   -1    0    0  501    0  0.00000000000E+00 -0.00000000000E+00 -0.15391262168E+04  0.15391262168E+04  0.50400000000E-02 0. -1.
    8880023    1    1    2    0    0  0.28627642484E+03  0.83182129384E+02 -0.11853912955E+03  0.73262213287E+03  0.65864270000E+03 0.  1.
    8880022    1    1    2    0    0 -0.28627642484E+03 -0.83182129384E+02 -0.10883411592E+04  0.11387500120E+04  0.15294330000E+03 0.  0.
<mgrwt>
<rscale>  0 0.59651339E+03</rscale>
<asrwt>0</asrwt>
<pdfrwt beam="1">  1        1 0.23678865E+00 0.72296865E+03</pdfrwt>
<pdfrwt beam="2">  1       -1 0.51114759E-01 0.72296865E+03</pdfrwt>
<totfact> 0.24535027E+01</totfact>
</mgrwt>
</event>
<event>
 4    1  0.1043382E-007  0.9309506E+03  0.7818608E-02  0.9478069E-01
          1   -1    0    0  501    0  0.00000000000E+00  0.00000000000E+00  0.29128833828E+04  0.29128833828E+04  0.50400000000E-02 0. -1.
         -1   -1    0    0    0  501 -0.00000000000E+00 -0.00000000000E+00 -0.57428509617E+03  0.57428509619E+03  0.50400000000E-02 0.  1.
    8880023    1    1    2    0    0  0.42016212706E+03 -0.50628309731E+03 -0.11891756853E+03  0.93851498763E+03  0.65864270000E+03 0.  1.
    8880022    1    1    2    0    0 -0.42016212706E+03  0.50628309731E+03  0.24575158552E+04  0.25486534914E+04  0.15294330000E+03 0.  0.
<mgrwt>
<rscale>  0 0.85920221E+03</rscale>
<asrwt>0</asrwt>
<pdfrwt beam="1">  1        1 0.44813589E+00 0.93095059E+03</pdfrwt>
<pdfrwt beam="2">  1       -1 0.88351556E-01 0.93095059E+03</pdfrwt>
<totfact> 0.90366641E-01</totfact>
</mgrwt>
</event>
<event>
 4    1  0.1043382E-007  0.1278237E+04  0.7818608E-02  0.9084585E-01
         -1   -1    0    0    0  501 -0.00000000000E+00  0.00000000000E+00  0.15569181776E+04  0.15569181776E+04  0.50400000000E-02 0.  1.
          1   -1    0    0  501    0  0.00000000000E+00 -0.00000000000E+00 -0.11065495899E+04  0.11065495899E+04  0.50400000000E-02 0. -1.
    8880023    1    1    2    0    0 -0.10796733312E+04 -0.18542929248E+03  0.79454113360E+03  0.15050529372E+04  0.65864270000E+03 0.  1.
    8880022    1    1    2    0    0  0.10796733312E+04  0.18542929248E+03 -0.34417254595E+03  0.11584148303E+04  0.15294330000E+03 0.  0.
<mgrwt>
<rscale>  0 0.12328425E+04</rscale>
<asrwt>0</asrwt>
<pdfrwt beam="1">  1        1 0.17023840E+00 0.12782366E+04</pdfrwt>
<pdfrwt beam="2">  1       -1 0.23952587E+00 0.12782366E+04</pdfrwt>
<totfact> 0.99527009E-01</totfact>
</mgrwt>
</event>
<event>
 4    1  0.1043382E-007  0.8252608E+03  0.7818608E-02  0.9658625E-01
         -1   -1    0    0    0  501 -0.00000000000E+00  0.00000000000E+00  0.31952685755E+03  0.31952685759E+03  0.50400000000E-02 0.  1.
          1   -1    0    0  501    0  0.00000000000E+00 -0.00000000000E+00 -0.23839319319E+04  0.23839319319E+04  0.50400000000E-02 0. -1.
    8880023    1    1    2    0    0 -0.37836697893E+03  0.32261997765E+03 -0.32335633612E+03  0.88634911130E+03  0.65864270000E+03 0.  0.
    8880022    1    1    2    0    0  0.37836697893E+03 -0.32261997765E+03 -0.17410487382E+04  0.18171096782E+04  0.15294330000E+03 0.  0.
<mgrwt>
<rscale>  0 0.73534610E+03</rscale>
<asrwt>0</asrwt>
<pdfrwt beam="1">  1        1 0.36675875E+00 0.82526082E+03</pdfrwt>
<pdfrwt beam="2">  1       -1 0.49157980E-01 0.82526082E+03</pdfrwt>
<totfact> 0.70368996E+00</totfact>
</mgrwt>
</event>
<event>
 4    1  0.1043382E-007  0.7324598E+03  0.7818608E-02  0.9882482E-01
         -1   -1    0    0    0  501 -0.00000000000E+00  0.00000000000E+00  0.41266122129E+03  0.41266122132E+03  0.50400000000E-02 0.  1.
          1   -1    0    0  501    0  0.00000000000E+00 -0.00000000000E+00 -0.80832507547E+03  0.80832507549E+03  0.50400000000E-02 0. -1.
    8880023    1    1    2    0    0 -0.32043978231E+03 -0.23293320822E+01 -0.64242706402E+02  0.73527165827E+03  0.65864270000E+03 0.  0.
    8880022    1    1    2    0    0  0.32043978231E+03  0.23293320822E+01 -0.33142114778E+03  0.48571463853E+03  0.15294330000E+03 0.  0.
<mgrwt>
<rscale>  0 0.61117848E+03</rscale>
<asrwt>0</asrwt>
<pdfrwt beam="1">  1        1 0.12435770E+00 0.73245975E+03</pdfrwt>
<pdfrwt beam="2">  1       -1 0.63486342E-01 0.73245975E+03</pdfrwt>
<totfact> 0.56021110E+01</totfact>
</mgrwt>
</event>
<event>
 4    1  0.1043382E-007  0.7467356E+03  0.7818608E-02  0.9840744E-01
          1   -1    0    0  501    0  0.00000000000E+00  0.00000000000E+00  0.88172915594E+03  0.88172915595E+03  0.50400000000E-02 0. -1.
         -1   -1    0    0    0  501 -0.00000000000E+00 -0.00000000000E+00 -0.41274877055E+03  0.41274877058E+03  0.50400000000E-02 0.  1.
    8880023    1    1    2    0    0 -0.19800362042E+03 -0.29085799616E+03  0.84804878246E+02  0.75153568197E+03  0.65864270000E+03 0.  1.
    8880022    1    1    2    0    0  0.19800362042E+03  0.29085799616E+03  0.38417550714E+03  0.54294224457E+03  0.15294330000E+03 0. -1.
<mgrwt>
<rscale>  0 0.63221083E+03</rscale>
<asrwt>0</asrwt>
<pdfrwt beam="1">  1        1 0.13565064E+00 0.74673557E+03</pdfrwt>
<pdfrwt beam="2">  1       -1 0.63499812E-01 0.74673557E+03</pdfrwt>
<totfact> 0.48515489E+01</totfact>
</mgrwt>
</event>
<event>
 4    1  0.1043382E-007  0.7370746E+03  0.7818608E-02  0.9868552E-01
         -1   -1    0    0    0  501 -0.00000000000E+00  0.00000000000E+00  0.58236071176E+03  0.58236071178E+03  0.50400000000E-02 0.  1.
          1   -1    0    0  501    0  0.00000000000E+00 -0.00000000000E+00 -0.24416168506E+04  0.24416168506E+04  0.50400000000E-02 0. -1.
    8880023    1    1    2    0    0  0.18295377507E+03  0.27567503448E+03  0.32785433249E+03  0.80670160409E+03  0.65864270000E+03 0.  0.
    8880022    1    1    2    0    0 -0.18295377507E+03 -0.27567503448E+03 -0.21871104714E+04  0.22172759583E+04  0.15294330000E+03 0.  0.
<mgrwt>
<rscale>  0 0.61809904E+03</rscale>
<asrwt>0</asrwt>
<pdfrwt beam="1">  1        1 0.37563336E+00 0.73707463E+03</pdfrwt>
<pdfrwt beam="2">  1       -1 0.89593957E-01 0.73707463E+03</pdfrwt>
<totfact> 0.19337124E+00</totfact>
</mgrwt>
</event>
<event>
 4    1  0.1043382E-007  0.9389831E+03  0.7818608E-02  0.9466145E-01
         -1   -1    0    0    0  501 -0.00000000000E+00  0.00000000000E+00  0.73982450967E+03  0.73982450969E+03  0.50400000000E-02 0.  1.
          1   -1    0    0  501    0  0.00000000000E+00 -0.00000000000E+00 -0.11604904790E+04  0.11604904790E+04  0.50400000000E-02 0. -1.
    8880023    1    1    2    0    0  0.58743715618E+03 -0.32061902085E+03  0.21658754784E+03  0.96363859467E+03  0.65864270000E+03 0.  1.
    8880022    1    1    2    0    0 -0.58743715618E+03  0.32061902085E+03 -0.63725351718E+03  0.93667639405E+03  0.15294330000E+03 0.  0.
<mgrwt>
<rscale>  0 0.86826463E+03</rscale>
<asrwt>0</asrwt>
<pdfrwt beam="1">  1        1 0.17853700E+00 0.93898305E+03</pdfrwt>
<pdfrwt beam="2">  1       -1 0.11381916E+00 0.93898305E+03</pdfrwt>
<totfact> 0.81201311E+00</totfact>
</mgrwt>
</event>
<event>
 4    1  0.1043382E-007  0.9045724E+03  0.7818608E-02  0.9518731E-01
          1   -1    0    0  501    0  0.00000000000E+00  0.00000000000E+00  0.22862025906E+04  0.22862025907E+04  0.50400000000E-02 0. -1.
         -1   -1    0    0    0  501 -0.00000000000E+00 -0.00000000000E+00 -0.26733438780E+03  0.26733438784E+03  0.50400000000E-02 0.  1.
    8880023    1    1    2    0    0  0.61862038499E+03 -0.41831332923E+02  0.97646641536E+03  0.13310664550E+04  0.65864270000E+03 0.  0.
    8880022    1    1    2    0    0 -0.61862038499E+03  0.41831332923E+02  0.10424017875E+04  0.12224705235E+04  0.15294330000E+03 0. -1.
<mgrwt>
<rscale>  0 0.82916843E+03</rscale>
<asrwt>0</asrwt>
<pdfrwt beam="1">  1        1 0.35172349E+00 0.90457241E+03</pdfrwt>
<pdfrwt beam="2">  1       -1 0.41128366E-01 0.90457241E+03</pdfrwt>
<totfact> 0.11297638E+01</totfact>
</mgrwt>
</event>
<event>
 4    1  0.1043382E-007  0.7098440E+03  0.7818608E-02  0.9958581E-01
          1   -1    0    0  501    0  0.00000000000E+00  0.00000000000E+00  0.53453711217E+03  0.53453711220E+03  0.50400000000E-02 0. -1.
         -1   -1    0    0    0  501 -0.00000000000E+00 -0.00000000000E+00 -0.62932265734E+03  0.62932265736E+03  0.50400000000E-02 0.  1.
    8880023    1    1    2    0    0 -0.67905800746E+02  0.25584580385E+03 -0.32544538725E+03  0.78089255309E+03  0.65864270000E+03 0.  1.
    8880022    1    1    2    0    0  0.67905800746E+02 -0.25584580385E+03  0.23065984208E+03  0.38296721647E+03  0.15294330000E+03 0.  0.
<mgrwt>
<rscale>  0 0.57504305E+03</rscale>
<asrwt>0</asrwt>
<pdfrwt beam="1">  1        1 0.82236478E-01 0.70984398E+03</pdfrwt>
<pdfrwt beam="2">  1       -1 0.96818871E-01 0.70984398E+03</pdfrwt>
<totfact> 0.42508760E+01</totfact>
</mgrwt>
</event>
<event>
 4    1  0.1043382E-007  0.8264404E+03  0.7818608E-02  0.9656298E-01
          1   -1    0    0  501    0  0.00000000000E+00  0.00000000000E+00  0.72038782919E+03  0.72038782921E+03  0.50400000000E-02 0. -1.
         -1   -1    0    0    0  501 -0.00000000000E+00 -0.00000000000E+00 -0.73811390444E+03  0.73811390446E+03  0.50400000000E-02 0.  1.
    8880023    1    1    2    0    0  0.13804497659E+03 -0.47972600034E+03 -0.28213144085E+03  0.87327075248E+03  0.65864270000E+03 0.  0.
    8880022    1    1    2    0    0 -0.13804497659E+03  0.47972600034E+03  0.26440536560E+03  0.58523098118E+03  0.15294330000E+03 0.  0.
<mgrwt>
<rscale>  0 0.73679454E+03</rscale>
<asrwt>0</asrwt>
<pdfrwt beam="1">  1        1 0.11082890E+00 0.82644035E+03</pdfrwt>
<pdfrwt beam="2">  1       -1 0.11355599E+00 0.82644035E+03</pdfrwt>
<totfact> 0.18793239E+01</totfact>
</mgrwt>
</event>
<event>
 4    1  0.1043382E-007  0.1330420E+04  0.7818608E-02  0.9039725E-01
         -1   -1    0    0    0  501 -0.00000000000E+00  0.00000000000E+00  0.20535297422E+04  0.20535297422E+04  0.50400000000E-02 0.  1.
          1   -1    0    0  501    0  0.00000000000E+00 -0.00000000000E+00 -0.10610551521E+04  0.10610551521E+04  0.50400000000E-02 0. -1.
    8880023    1    1    2    0    0 -0.11559012929E+04 -0.99952808928E+01  0.13495932984E+04  0.18951042140E+04  0.65864270000E+03 0.  0.
    8880022    1    1    2    0    0  0.11559012929E+04  0.99952808928E+01 -0.35711870835E+03  0.12194806803E+04  0.15294330000E+03 0.  0.
<mgrwt>
<rscale>  0 0.12872651E+04</rscale>
<asrwt>0</asrwt>
<pdfrwt beam="1">  1        1 0.16323925E+00 0.13304202E+04</pdfrwt>
<pdfrwt beam="2">  1       -1 0.31592765E+00 0.13304202E+04</pdfrwt>
<totfact> 0.34239483E-01</totfact>
</mgrwt>
</event>
<event>
 4    1  0.1043382E-007  0.1055653E+04  0.7818608E-02  0.9312116E-01
          1   -1    0    0  501    0  0.00000000000E+00  0.00000000000E+00  0.61200023523E+03  0.61200023525E+03  0.50400000000E-02 0. -1.
         -1   -1    0    0    0  501 -0.00000000000E+00 -0.00000000000E+00 -0.35967945596E+04  0.35967945596E+04  0.50400000000E-02 0.  1.
    8880023    1    1    2    0    0  0.80317637637E+03  0.18841898163E+03 -0.31771939442E+04  0.33479793263E+04  0.65864270000E+03 0.  1.
    8880022    1    1    2    0    0 -0.80317637637E+03 -0.18841898163E+03  0.19239961979E+03  0.86081546856E+03  0.15294330000E+03 0.  0.
<mgrwt>
<rscale>  0 0.99675060E+03</rscale>
<asrwt>0</asrwt>
<pdfrwt beam="1">  1        1 0.94153884E-01 0.10556535E+04</pdfrwt>
<pdfrwt beam="2">  1       -1 0.55335300E+00 0.10556535E+04</pdfrwt>
<totfact> 0.23787786E-02</totfact>
</mgrwt>
</event>
<event>
 4    1  0.1043382E-007  0.1258641E+04  0.7818608E-02  0.9102125E-01
         -1   -1    0    0    0  501 -0.00000000000E+00  0.00000000000E+00  0.15130286620E+04  0.15130286620E+04  0.50400000000E-02 0.  1.
          1   -1    0    0  501    0  0.00000000000E+00 -0.00000000000E+00 -0.13478486366E+04  0.13478486366E+04  0.50400000000E-02 0. -1.
    8880023    1    1    2    0    0 -0.23727429829E+03 -0.10459768976E+04 -0.73041699501E+03  0.14552271149E+04  0.65864270000E+03 0.  0.
    8880022    1    1    2    0    0  0.23727429829E+03  0.10459768976E+04  0.89559702047E+03  0.14056501837E+04  0.15294330000E+03 0.  0.
<mgrwt>
<rscale>  0 0.12123380E+04</rscale>
<asrwt>0</asrwt>
<pdfrwt beam="1">  1        1 0.20736133E+00 0.12586409E+04</pdfrwt>
<pdfrwt beam="2">  1       -1 0.23277364E+00 0.12586409E+04</pdfrwt>
<totfact> 0.73636038E-01</totfact>
</mgrwt>
</event>
<event>
 4    1  0.1043382E-007  0.1779743E+04  0.7818608E-02  0.8733826E-01
         -1   -1    0    0    0  501 -0.00000000000E+00  0.00000000000E+00  0.39034844274E+04  0.39034844275E+04  0.50400000000E-02 0.  1.
          1   -1    0    0  501    0  0.00000000000E+00 -0.00000000000E+00 -0.82671627045E+03  0.82671627046E+03  0.50400000000E-02 0. -1.
    8880023    1    1    2    0    0  0.14684214807E+04 -0.75987610265E+03  0.90564472002E+03  0.19969165985E+04  0.65864270000E+03 0.  0.
    8880022    1    1    2    0    0 -0.14684214807E+04  0.75987610265E+03  0.21711234370E+04  0.27332840994E+04  0.15294330000E+03 0. -1.
<mgrwt>
<rscale>  0 0.17491367E+04</rscale>
<asrwt>0</asrwt>
<pdfrwt beam="1">  1        1 0.12718712E+00 0.17797425E+04</pdfrwt>
<pdfrwt beam="2">  1       -1 0.60053607E+00 0.17797425E+04</pdfrwt>
<totfact> 0.82613890E-03</totfact>
</mgrwt>
</event>
<event>
 4    1  0.1043382E-007  0.6755253E+03  0.7818608E-02  0.1011977E+00
         -1   -1    0    0    0  501 -0.00000000000E+00  0.00000000000E+00  0.45924300392E+03  0.45924300395E+03  0.50400000000E-02 0.  1.
          1   -1    0    0  501    0  0.00000000000E+00 -0.00000000000E+00 -0.60055040592E+03  0.60055040594E+03  0.50400000000E-02 0. -1.
    8880023    1    1    2    0    0  0.10876583674E+03  0.10341255253E+03  0.15600923613E+03  0.69330603004E+03  0.65864270000E+03 0.  1.
    8880022    1    1    2    0    0 -0.10876583674E+03 -0.10341255253E+03 -0.29731663813E+03  0.36648737985E+03  0.15294330000E+03 0.  0.
<mgrwt>
<rscale>  0 0.50696325E+03</rscale>
<asrwt>0</asrwt>
<pdfrwt beam="1">  1        1 0.92392370E-01 0.67552525E+03</pdfrwt>
<pdfrwt beam="2">  1       -1 0.70652770E-01 0.67552525E+03</pdfrwt>
<totfact> 0.71054860E+01</totfact>
</mgrwt>
</event>
<event>
 4    1  0.1043382E-007  0.1077594E+04  0.7818608E-02  0.9286422E-01
         -1   -1    0    0    0  501 -0.00000000000E+00  0.00000000000E+00  0.15533619642E+04  0.15533619643E+04  0.50400000000E-02 0.  1.
          1   -1    0    0  501    0  0.00000000000E+00 -0.00000000000E+00 -0.81593140035E+03  0.81593140037E+03  0.50400000000E-02 0. -1.
    8880023    1    1    2    0    0  0.57271688533E+03 -0.63197681683E+03  0.99357694175E+03  0.14657437270E+04  0.65864270000E+03 0.  0.
    8880022    1    1    2    0    0 -0.57271688533E+03  0.63197681683E+03 -0.25614637786E+03  0.90354963763E+03  0.15294330000E+03 0.  0.
<mgrwt>
<rscale>  0 0.10204256E+04</rscale>
<asrwt>0</asrwt>
<pdfrwt beam="1">  1        1 0.12552791E+00 0.10775943E+04</pdfrwt>
<pdfrwt beam="2">  1       -1 0.23897876E+00 0.10775943E+04</pdfrwt>
<totfact> 0.17582606E+00</totfact>
</mgrwt>
</event>
<event>
 4    1  0.1043382E-007  0.6766755E+03  0.7818608E-02  0.1011270E+00
          1   -1    0    0  501    0  0.00000000000E+00  0.00000000000E+00  0.35111538113E+03  0.35111538117E+03  0.50400000000E-02 0. -1.
         -1   -1    0    0    0  501 -0.00000000000E+00 -0.00000000000E+00 -0.80222786929E+03  0.80222786931E+03  0.50400000000E-02 0.  1.
    8880023    1    1    2    0    0  0.15509786313E+03 -0.49154492222E+01 -0.58764227179E+03  0.89622159908E+03  0.65864270000E+03 0.  1.
    8880022    1    1    2    0    0 -0.15509786313E+03  0.49154492222E+01  0.13652978363E+03  0.25712165140E+03  0.15294330000E+03 0.  0.
<mgrwt>
<rscale>  0 0.50972868E+03</rscale>
<asrwt>0</asrwt>
<pdfrwt beam="1">  1        1 0.54017751E-01 0.67667549E+03</pdfrwt>
<pdfrwt beam="2">  1       -1 0.12341967E+00 0.67667549E+03</pdfrwt>
<totfact> 0.42346855E+01</totfact>
</mgrwt>
</event>
<event>
 4    1  0.1043382E-007  0.6893265E+03  0.7818608E-02  0.1004474E+00
          1   -1    0    0  501    0  0.00000000000E+00  0.00000000000E+00  0.52047321297E+03  0.52047321300E+03  0.50400000000E-02 0. -1.
         -1   -1    0    0    0  501 -0.00000000000E+00 -0.00000000000E+00 -0.60470311745E+03  0.60470311748E+03  0.50400000000E-02 0.  1.
    8880023    1    1    2    0    0 -0.89188948916E+02 -0.18277335099E+03 -0.33630981182E+03  0.76699104443E+03  0.65864270000E+03 0.  1.
    8880022    1    1    2    0    0  0.89188948916E+02  0.18277335099E+03  0.25207990734E+03  0.35818528605E+03  0.15294330000E+03 0.  0.
<mgrwt>
<rscale>  0 0.53731098E+03</rscale>
<asrwt>0</asrwt>
<pdfrwt beam="1">  1        1 0.80072803E-01 0.68932646E+03</pdfrwt>
<pdfrwt beam="2">  1       -1 0.93031248E-01 0.68932646E+03</pdfrwt>
<totfact> 0.48319953E+01</totfact>
</mgrwt>
</event>
<event>
 4    1  0.1043382E-007  0.7016396E+03  0.7818608E-02  0.9990466E-01
          1   -1    0    0  501    0  0.00000000000E+00  0.00000000000E+00  0.56737022750E+03  0.56737022752E+03  0.50400000000E-02 0. -1.
         -1   -1    0    0    0  501 -0.00000000000E+00 -0.00000000000E+00 -0.69420327023E+03  0.69420327025E+03  0.50400000000E-02 0.  1.
    8880023    1    1    2    0    0 -0.12934254615E+03 -0.20434866637E+03 -0.44718812732E+03  0.83203082826E+03  0.65864270000E+03 0.  1.
    8880022    1    1    2    0    0  0.12934254615E+03  0.20434866637E+03  0.32035508459E+03  0.42954266951E+03  0.15294330000E+03 0.  0.
<mgrwt>
<rscale>  0 0.56070247E+03</rscale>
<asrwt>0</asrwt>
<pdfrwt beam="1">  1        1 0.87287727E-01 0.70163956E+03</pdfrwt>
<pdfrwt beam="2">  1       -1 0.10680050E+00 0.70163956E+03</pdfrwt>
<totfact> 0.31247503E+01</totfact>
</mgrwt>
</event>
<event>
 4    1  0.1043382E-007  0.6976324E+03  0.7818608E-02  0.1000717E+00
         -1   -1    0    0    0  501 -0.00000000000E+00  0.00000000000E+00  0.98486242099E+03  0.98486242101E+03  0.50400000000E-02 0.  1.
          1   -1    0    0  501    0  0.00000000000E+00 -0.00000000000E+00 -0.90347589309E+03  0.90347589310E+03  0.50400000000E-02 0. -1.
    8880023    1    1    2    0    0  0.20250202384E+03  0.10896631140E+03  0.83361374659E+03  0.10870155525E+04  0.65864270000E+03 0.  1.
    8880022    1    1    2    0    0 -0.20250202384E+03 -0.10896631140E+03 -0.75222721868E+03  0.80132276158E+03  0.15294330000E+03 0.  0.
<mgrwt>
<rscale>  0 0.55337035E+03</rscale>
<asrwt>0</asrwt>
<pdfrwt beam="1">  1        1 0.13899629E+00 0.69763238E+03</pdfrwt>
<pdfrwt beam="2">  1       -1 0.15151729E+00 0.69763238E+03</pdfrwt>
<totfact> 0.64003621E+00</totfact>
</mgrwt>
</event>
<event>
 4    1  0.1043382E-007  0.7037232E+03  0.7818608E-02  0.9982093E-01
         -1   -1    0    0    0  501 -0.00000000000E+00  0.00000000000E+00  0.14017089650E+03  0.14017089659E+03  0.50400000000E-02 0.  1.
          1   -1    0    0  501    0  0.00000000000E+00 -0.00000000000E+00 -0.22966909082E+04  0.22966909082E+04  0.50400000000E-02 0. -1.
    8880023    1    1    2    0    0  0.16576442565E+03  0.18422357245E+03 -0.87605713134E+03  0.11237003484E+04  0.65864270000E+03 0.  1.
    8880022    1    1    2    0    0 -0.16576442565E+03 -0.18422357245E+03 -0.12804628804E+04  0.13131614564E+04  0.15294330000E+03 0. -1.
<mgrwt>
<rscale>  0 0.56442456E+03</rscale>
<asrwt>0</asrwt>
<pdfrwt beam="1">  1        1 0.35333703E+00 0.70372322E+03</pdfrwt>
<pdfrwt beam="2">  1       -1 0.21564755E-01 0.70372322E+03</pdfrwt>
<totfact> 0.35287765E+01</totfact>
</mgrwt>
</event>
<event>
 4    1  0.1043382E-007  0.9055914E+03  0.7818608E-02  0.9517115E-01
          1   -1    0    0  501    0  0.00000000000E+00  0.00000000000E+00  0.56786870433E+03  0.56786870435E+03  0.50400000000E-02 0. -1.
         -1   -1    0    0    0  501 -0.00000000000E+00 -0.00000000000E+00 -0.10555315296E+04  0.10555315297E+04  0.50400000000E-02 0.  1.
    8880023    1    1    2    0    0 -0.98567588114E+02 -0.61365297432E+03 -0.33339114708E+03  0.96501057275E+03  0.65864270000E+03 0.  1.
    8880022    1    1    2    0    0  0.98567588114E+02  0.61365297432E+03 -0.15427167824E+03  0.65838966125E+03  0.15294330000E+03 0. -1.
<mgrwt>
<rscale>  0 0.83033708E+03</rscale>
<asrwt>0</asrwt>
<pdfrwt beam="1">  1        1 0.87364416E-01 0.90559138E+03</pdfrwt>
<pdfrwt beam="2">  1       -1 0.16238947E+00 0.90559138E+03</pdfrwt>
<totfact> 0.10518053E+01</totfact>
</mgrwt>
</event>
<event>
 4    1  0.1043382E-007  0.1002753E+04  0.7818608E-02  0.9377965E-01
          1   -1    0    0  501    0  0.00000000000E+00  0.00000000000E+00  0.14246059632E+04  0.14246059632E+04  0.50400000000E-02 0. -1.
         -1   -1    0    0    0  501 -0.00000000000E+00 -0.00000000000E+00 -0.62829915959E+03  0.62829915961E+03  0.50400000000E-02 0.  1.
    8880023    1    1    2    0    0  0.47864826881E+03  0.58531924184E+03  0.89668300958E+02  0.10067538878E+04  0.65864270000E+03 0.  0.
    8880022    1    1    2    0    0 -0.47864826881E+03 -0.58531924184E+03  0.70663850266E+03  0.10461512350E+04  0.15294330000E+03 0.  0.
<mgrwt>
<rscale>  0 0.93911465E+03</rscale>
<asrwt>0</asrwt>
<pdfrwt beam="1">  1        1 0.21917015E+00 0.10027527E+04</pdfrwt>
<pdfrwt beam="2">  1       -1 0.96661410E-01 0.10027527E+04</pdfrwt>
<totfact> 0.76384377E+00</totfact>
</mgrwt>
</event>
<event>
 4    1  0.1043382E-007  0.9292233E+03  0.7818608E-02  0.9480659E-01
         -1   -1    0    0    0  501 -0.00000000000E+00  0.00000000000E+00  0.87314153510E+03  0.87314153512E+03  0.50400000000E-02 0.  1.
          1   -1    0    0  501    0  0.00000000000E+00 -0.00000000000E+00 -0.10214848774E+04  0.10214848774E+04  0.50400000000E-02 0. -1.
    8880023    1    1    2    0    0 -0.40215583410E+03 -0.51760641202E+03 -0.57966713339E+03  0.10952031339E+04  0.65864270000E+03 0.  0.
    8880022    1    1    2    0    0  0.40215583410E+03  0.51760641202E+03  0.43132379109E+03  0.79942327865E+03  0.15294330000E+03 0. -1.
<mgrwt>
<rscale>  0 0.85724866E+03</rscale>
<asrwt>0</asrwt>
<pdfrwt beam="1">  1        1 0.15715152E+00 0.92922329E+03</pdfrwt>
<pdfrwt beam="2">  1       -1 0.13432947E+00 0.92922329E+03</pdfrwt>
<totfact> 0.68645783E+00</totfact>
</mgrwt>
</event>
<event>
 4    1  0.1043382E-007  0.7073622E+03  0.7818608E-02  0.9967930E-01
          1   -1    0    0  501    0  0.00000000000E+00  0.00000000000E+00  0.69937666286E+03  0.69937666287E+03  0.50400000000E-02 0. -1.
         -1   -1    0    0    0  501 -0.00000000000E+00 -0.00000000000E+00 -0.69053815574E+03  0.69053815576E+03  0.50400000000E-02 0.  1.
    8880023    1    1    2    0    0  0.13352294056E+03  0.22073231823E+03 -0.45246454050E+03  0.83969369334E+03  0.65864270000E+03 0.  1.
    8880022    1    1    2    0    0 -0.13352294056E+03 -0.22073231823E+03  0.46130304761E+03  0.55022112529E+03  0.15294330000E+03 0.  0.
<mgrwt>
<rscale>  0 0.57079110E+03</rscale>
<asrwt>0</asrwt>
<pdfrwt beam="1">  1        1 0.10759641E+00 0.70736224E+03</pdfrwt>
<pdfrwt beam="2">  1       -1 0.10623664E+00 0.70736224E+03</pdfrwt>
<totfact> 0.23301862E+01</totfact>
</mgrwt>
</event>
<event>
 4    1  0.1043382E-007  0.8232259E+03  0.7818608E-02  0.9662659E-01
         -1   -1    0    0    0  501 -0.00000000000E+00  0.00000000000E+00  0.13350005982E+04  0.13350005982E+04  0.50400000000E-02 0.  1.
          1   -1    0    0  501    0  0.00000000000E+00 -0.00000000000E+00 -0.44814059739E+03  0.44814059742E+03  0.50400000000E-02 0. -1.
    8880023    1    1    2    0    0  0.40185447993E+03 -0.28706028775E+03  0.95593717002E+03  0.12615532930E+04  0.65864270000E+03 0.  0.
    8880022    1    1    2    0    0 -0.40185447993E+03  0.28706028775E+03 -0.69077169193E+02  0.52158790262E+03  0.15294330000E+03 0.  0.
<mgrwt>
<rscale>  0 0.73284230E+03</rscale>
<asrwt>0</asrwt>
<pdfrwt beam="1">  1        1 0.68944708E-01 0.82322587E+03</pdfrwt>
<pdfrwt beam="2">  1       -1 0.20538470E+00 0.82322587E+03</pdfrwt>
<totfact> 0.72900610E+00</totfact>
</mgrwt>
</event>
<event>
 4    1  0.1043382E-007  0.1200133E+04  0.7818608E-02  0.9156993E-01
         -1   -1    0    0    0  501 -0.00000000000E+00  0.00000000000E+00  0.38064502845E+03  0.38064502848E+03  0.50400000000E-02 0.  1.
          1   -1    0    0  501    0  0.00000000000E+00 -0.00000000000E+00 -0.35751763944E+04  0.35751763944E+04  0.50400000000E-02 0. -1.
    8880023    1    1    2    0    0 -0.45255164578E+03 -0.89538058638E+03 -0.23371866258E+04  0.26273105862E+04  0.65864270000E+03 0.  0.
    8880022    1    1    2    0    0  0.45255164578E+03  0.89538058638E+03 -0.85734474013E+03  0.13285108366E+04  0.15294330000E+03 0.  0.
<mgrwt>
<rscale>  0 0.11508574E+04</rscale>
<asrwt>0</asrwt>
<pdfrwt beam="1">  1        1 0.55002712E+00 0.12001332E+04</pdfrwt>
<pdfrwt beam="2">  1       -1 0.58560776E-01 0.12001332E+04</pdfrwt>
<totfact> 0.64966557E-01</totfact>
</mgrwt>
</event>
<event>
 4    1  0.1043382E-007  0.7428713E+03  0.7818608E-02  0.9851661E-01
          1   -1    0    0  501    0  0.00000000000E+00  0.00000000000E+00  0.76042156957E+03  0.76042156958E+03  0.50400000000E-02 0. -1.
         -1   -1    0    0    0  501 -0.00000000000E+00 -0.00000000000E+00 -0.56734637970E+03  0.56734637973E+03  0.50400000000E-02 0.  1.
    8880023    1    1    2    0    0  0.27115143217E+03 -0.21100827593E+03 -0.21447101089E+03  0.77321123405E+03  0.65864270000E+03 0.  0.
    8880022    1    1    2    0    0 -0.27115143217E+03  0.21100827593E+03  0.40754620076E+03  0.55455671526E+03  0.15294330000E+03 0.  0.
<mgrwt>
<rscale>  0 0.62662315E+03</rscale>
<asrwt>0</asrwt>
<pdfrwt beam="1">  1        1 0.11698793E+00 0.74287132E+03</pdfrwt>
<pdfrwt beam="2">  1       -1 0.87284059E-01 0.74287132E+03</pdfrwt>
<totfact> 0.31768389E+01</totfact>
</mgrwt>
</event>
<event>
 4    1  0.1043382E-007  0.6712778E+03  0.7818608E-02  0.1014763E+00
          1   -1    0    0  501    0  0.00000000000E+00  0.00000000000E+00  0.13633090657E+04  0.13633090657E+04  0.50400000000E-02 0. -1.
         -1   -1    0    0    0  501 -0.00000000000E+00 -0.00000000000E+00 -0.52375637947E+03  0.52375637949E+03  0.50400000000E-02 0.  1.
    8880023    1    1    2    0    0 -0.12669584957E+03  0.27419781463E+02 -0.29622218201E+03  0.73373119744E+03  0.65864270000E+03 0.  1.
    8880022    1    1    2    0    0  0.12669584957E+03 -0.27419781463E+02  0.11357748683E+04  0.11533342478E+04  0.15294330000E+03 0.  0.
<mgrwt>
<rscale>  0 0.49624789E+03</rscale>
<asrwt>0</asrwt>
<pdfrwt beam="1">  1        1 0.20973985E+00 0.67127780E+03</pdfrwt>
<pdfrwt beam="2">  1       -1 0.80577906E-01 0.67127780E+03</pdfrwt>
<totfact> 0.13120896E+01</totfact>
</mgrwt>
</event>
<event>
 4    1  0.1043382E-007  0.1049800E+04  0.7818608E-02  0.9319122E-01
          1   -1    0    0  501    0  0.00000000000E+00  0.00000000000E+00  0.77124862440E+03  0.77124862441E+03  0.50400000000E-02 0. -1.
         -1   -1    0    0    0  501 -0.00000000000E+00 -0.00000000000E+00 -0.16266430724E+04  0.16266430724E+04  0.50400000000E-02 0.  1.
    8880023    1    1    2    0    0  0.62577968493E+03 -0.52599421969E+03 -0.11103210810E+04  0.15280357464E+04  0.65864270000E+03 0.  0.
    8880022    1    1    2    0    0 -0.62577968493E+03  0.52599421969E+03  0.25492663298E+03  0.86985595039E+03  0.15294330000E+03 0.  0.
<mgrwt>
<rscale>  0 0.99041382E+03</rscale>
<asrwt>0</asrwt>
<pdfrwt beam="1">  1        1 0.11865363E+00 0.10498001E+04</pdfrwt>
<pdfrwt beam="2">  1       -1 0.25025278E+00 0.10498001E+04</pdfrwt>
<totfact> 0.16304676E+00</totfact>
</mgrwt>
</event>
<event>
 4    1  0.1043382E-007  0.8287391E+03  0.7818608E-02  0.9651791E-01
          1   -1    0    0  501    0  0.00000000000E+00  0.00000000000E+00  0.67212621272E+03  0.67212621274E+03  0.50400000000E-02 0. -1.
         -1   -1    0    0    0  501 -0.00000000000E+00 -0.00000000000E+00 -0.13085161798E+04  0.13085161798E+04  0.50400000000E-02 0.  1.
    8880023    1    1    2    0    0 -0.24695931679E+03  0.43818882043E+03 -0.10313661867E+04  0.13230739828E+04  0.65864270000E+03 0.  0.
    8880022    1    1    2    0    0  0.24695931679E+03 -0.43818882043E+03  0.39497621962E+03  0.65756840981E+03  0.15294330000E+03 0.  0.
<mgrwt>
<rscale>  0 0.73961154E+03</rscale>
<asrwt>0</asrwt>
<pdfrwt beam="1">  1        1 0.10340403E+00 0.82873913E+03</pdfrwt>
<pdfrwt beam="2">  1       -1 0.20131018E+00 0.82873913E+03</pdfrwt>
<totfact> 0.43796147E+00</totfact>
</mgrwt>
</event>
<event>
 4    1  0.1043382E-007  0.7554376E+03  0.7818608E-02  0.9817065E-01
         -1   -1    0    0    0  501 -0.00000000000E+00  0.00000000000E+00  0.93585569004E+03  0.93585569005E+03  0.50400000000E-02 0.  1.
          1   -1    0    0  501    0  0.00000000000E+00 -0.00000000000E+00 -0.44917256621E+03  0.44917256624E+03  0.50400000000E-02 0. -1.
    8880023    1    1    2    0    0  0.36303135842E+03 -0.71302191871E+02  0.60471126736E+03  0.96765783875E+03  0.65864270000E+03 0.  1.
    8880022    1    1    2    0    0 -0.36303135842E+03  0.71302191871E+02 -0.11802814352E+03  0.41737041754E+03  0.15294330000E+03 0.  0.
<mgrwt>
<rscale>  0 0.64454702E+03</rscale>
<asrwt>0</asrwt>
<pdfrwt beam="1">  1        1 0.69103472E-01 0.75543761E+03</pdfrwt>
<pdfrwt beam="2">  1       -1 0.14397780E+00 0.75543761E+03</pdfrwt>
<totfact> 0.20488518E+01</totfact>
</mgrwt>
</event>
<event>
 4    1  0.1043382E-007  0.6969349E+03  0.7818608E-02  0.1001016E+00
          1   -1    0    0  501    0  0.00000000000E+00  0.00000000000E+00  0.12532764489E+04  0.12532764489E+04  0.50400000000E-02 0. -1.
         -1   -1    0    0    0  501 -0.00000000000E+00 -0.00000000000E+00 -0.63421861869E+03  0.63421861871E+03  0.50400000000E-02 0.  1.
    8880023    1    1    2    0    0 -0.21719380801E+02 -0.22679587882E+03 -0.41939756743E+03  0.81339573885E+03  0.65864270000E+03 0.  1.
    8880022    1    1    2    0    0  0.21719380801E+02  0.22679587882E+03  0.10384553977E+04  0.10740993288E+04  0.15294330000E+03 0.  0.
<mgrwt>
<rscale>  0 0.55206902E+03</rscale>
<asrwt>0</asrwt>
<pdfrwt beam="1">  1        1 0.19281176E+00 0.69693494E+03</pdfrwt>
<pdfrwt beam="2">  1       -1 0.97572095E-01 0.69693494E+03</pdfrwt>
<totfact> 0.10279259E+01</totfact>
</mgrwt>
</event>
<event>
 4    1  0.1043382E-007  0.8916150E+03  0.7818608E-02  0.9539628E-01
         -1   -1    0    0    0  501 -0.00000000000E+00  0.00000000000E+00  0.70432887426E+03  0.70432887427E+03  0.50400000000E-02 0.  1.
          1   -1    0    0  501    0  0.00000000000E+00 -0.00000000000E+00 -0.98170904088E+03  0.98170904090E+03  0.50400000000E-02 0. -1.
    8880023    1    1    2    0    0 -0.55768739645E+03 -0.22394628732E+03  0.18736423852E+03  0.91108876401E+03  0.65864270000E+03 0.  1.
    8880022    1    1    2    0    0  0.55768739645E+03  0.22394628732E+03 -0.46474440514E+03  0.77494915116E+03  0.15294330000E+03 0.  0.
<mgrwt>
<rscale>  0 0.81424179E+03</rscale>
<asrwt>0</asrwt>
<pdfrwt beam="1">  1        1 0.15103216E+00 0.89161504E+03</pdfrwt>
<pdfrwt beam="2">  1       -1 0.10835829E+00 0.89161504E+03</pdfrwt>
<totfact> 0.12539140E+01</totfact>
</mgrwt>
</event>
<event>
 4    1  0.1043382E-007  0.9728464E+03  0.7818608E-02  0.9417978E-01
         -1   -1    0    0    0  501 -0.00000000000E+00  0.00000000000E+00  0.40270348410E+03  0.40270348414E+03  0.50400000000E-02 0.  1.
          1   -1    0    0  501    0  0.00000000000E+00 -0.00000000000E+00 -0.19417210971E+04  0.19417210971E+04  0.50400000000E-02 0. -1.
    8880023    1    1    2    0    0 -0.60121758712E+03  0.38878960930E+03 -0.56192082318E+03  0.11234701443E+04  0.65864270000E+03 0.  1.
    8880022    1    1    2    0    0  0.60121758712E+03 -0.38878960930E+03 -0.97709678978E+03  0.12209544369E+04  0.15294330000E+03 0.  0.
<mgrwt>
<rscale>  0 0.90610805E+03</rscale>
<asrwt>0</asrwt>
<pdfrwt beam="1">  1        1 0.29872632E+00 0.97284642E+03</pdfrwt>
<pdfrwt beam="2">  1       -1 0.61954383E-01 0.97284642E+03</pdfrwt>
<totfact> 0.87453003E+00</totfact>
</mgrwt>
</event>
<event>
 4    1  0.1043382E-007  0.7136882E+03  0.7818608E-02  0.9944552E-01
          1   -1    0    0  501    0  0.00000000000E+00  0.00000000000E+00  0.57435120610E+03  0.57435120613E+03  0.50400000000E-02 0. -1.
         -1   -1    0    0    0  501 -0.00000000000E+00 -0.00000000000E+00 -0.50799296351E+03  0.50799296354E+03  0.50400000000E-02 0.  1.
    8880023    1    1    2    0    0 -0.25614766595E+03  0.99644786275E+02 -0.10941517651E+03  0.72202672895E+03  0.65864270000E+03 0.  1.
    8880022    1    1    2    0    0  0.25614766595E+03 -0.99644786275E+02  0.17577341911E+03  0.36031744071E+03  0.15294330000E+03 0. -1.
<mgrwt>
<rscale>  0 0.58149865E+03</rscale>
<asrwt>0</asrwt>
<pdfrwt beam="1">  1        1 0.88361723E-01 0.71368825E+03</pdfrwt>
<pdfrwt beam="2">  1       -1 0.78152764E-01 0.71368825E+03</pdfrwt>
<totfact> 0.61210877E+01</totfact>
</mgrwt>
</event>
<event>
 4    1  0.1403030E-007  0.1118579E+04  0.7818608E-02  0.9240647E-01
         -1   -1    0    0    0  501 -0.00000000000E+00  0.00000000000E+00  0.19972584055E+04  0.19972584055E+04  0.50400000000E-02 0.  1.
          1   -1    0    0  501    0  0.00000000000E+00 -0.00000000000E+00 -0.17660041809E+04  0.17660041809E+04  0.50400000000E-02 0. -1.
    8880023    1    1    2    0    0  0.43503513518E+03  0.79256128708E+03  0.16980909415E+04  0.20334040460E+04  0.65864270000E+03 0.  0.
    8880022    1    1    2    0    0 -0.43503513518E+03 -0.79256128708E+03 -0.14668367169E+04  0.17298585404E+04  0.15294330000E+03 0.  0.
<mgrwt>
<rscale>  0 0.10643554E+04</rscale>
<asrwt>0</asrwt>
<pdfrwt beam="1">  1        1 0.27169295E+00 0.11185791E+04</pdfrwt>
<pdfrwt beam="2">  1       -1 0.30727052E+00 0.11185791E+04</pdfrwt>
<totfact> 0.12712862E-01</totfact>
</mgrwt>
</event>
<event>
 4    1  0.1043382E-007  0.1073212E+04  0.7818608E-02  0.9291484E-01
          1   -1    0    0  501    0  0.00000000000E+00  0.00000000000E+00  0.11119175514E+04  0.11119175514E+04  0.50400000000E-02 0. -1.
         -1   -1    0    0    0  501 -0.00000000000E+00 -0.00000000000E+00 -0.11306896648E+04  0.11306896648E+04  0.50400000000E-02 0.  1.
    8880023    1    1    2    0    0  0.53450412916E+03 -0.65747931202E+03 -0.57500170173E+03  0.12175429656E+04  0.65864270000E+03 0.  0.
    8880022    1    1    2    0    0 -0.53450412916E+03  0.65747931202E+03  0.55622958833E+03  0.10250642506E+04  0.15294330000E+03 0.  0.
<mgrwt>
<rscale>  0 0.10157063E+04</rscale>
<asrwt>0</asrwt>
<pdfrwt beam="1">  1        1 0.17106424E+00 0.10732120E+04</pdfrwt>
<pdfrwt beam="2">  1       -1 0.17395226E+00 0.10732120E+04</pdfrwt>
<totfact> 0.28435888E+00</totfact>
</mgrwt>
</event>
<event>
 4    1  0.1043382E-007  0.7809439E+03  0.7818608E-02  0.9753624E-01
         -1   -1    0    0    0  501 -0.00000000000E+00  0.00000000000E+00  0.63318584067E+03  0.63318584069E+03  0.50400000000E-02 0.  1.
          1   -1    0    0  501    0  0.00000000000E+00 -0.00000000000E+00 -0.10572733215E+04  0.10572733215E+04  0.50400000000E-02 0. -1.
    8880023    1    1    2    0    0 -0.10958317336E+03  0.40503666642E+03  0.30258806469E+03  0.83751591996E+03  0.65864270000E+03 0.  1.
    8880022    1    1    2    0    0  0.10958317336E+03 -0.40503666642E+03 -0.72667554553E+03  0.85294324226E+03  0.15294330000E+03 0.  0.
<mgrwt>
<rscale>  0 0.67911832E+03</rscale>
<asrwt>0</asrwt>
<pdfrwt beam="1">  1        1 0.16265743E+00 0.78094390E+03</pdfrwt>
<pdfrwt beam="2">  1       -1 0.97413206E-01 0.78094390E+03</pdfrwt>
<totfact> 0.14200970E+01</totfact>
</mgrwt>
</event>
<event>
 4    1  0.1043382E-007  0.8376291E+03  0.7818608E-02  0.9634667E-01
          1   -1    0    0  501    0  0.00000000000E+00  0.00000000000E+00  0.59406042697E+03  0.59406042699E+03  0.50400000000E-02 0. -1.
         -1   -1    0    0    0  501 -0.00000000000E+00 -0.00000000000E+00 -0.89971781552E+03  0.89971781554E+03  0.50400000000E-02 0.  1.
    8880023    1    1    2    0    0 -0.15336675022E+03 -0.49425790608E+03 -0.42771732145E+03  0.94051291917E+03  0.65864270000E+03 0.  0.
    8880022    1    1    2    0    0  0.15336675022E+03  0.49425790608E+03  0.12205993290E+03  0.55326532336E+03  0.15294330000E+03 0.  0.
<mgrwt>
<rscale>  0 0.75043564E+03</rscale>
<asrwt>0</asrwt>
<pdfrwt beam="1">  1        1 0.91393912E-01 0.83762906E+03</pdfrwt>
<pdfrwt beam="2">  1       -1 0.13841813E+00 0.83762906E+03</pdfrwt>
<totfact> 0.15272304E+01</totfact>
</mgrwt>
</event>
<event>
 4    1  0.1043382E-007  0.7012774E+03  0.7818608E-02  0.9991943E-01
          1   -1    0    0  501    0  0.00000000000E+00  0.00000000000E+00  0.62800314226E+03  0.62800314228E+03  0.50400000000E-02 0. -1.
         -1   -1    0    0    0  501 -0.00000000000E+00 -0.00000000000E+00 -0.16934175560E+04  0.16934175560E+04  0.50400000000E-02 0.  1.
    8880023    1    1    2    0    0  0.24069789332E+03  0.66582737036E+01 -0.15824706425E+04  0.17308966893E+04  0.65864270000E+03 0.  0.
    8880022    1    1    2    0    0 -0.24069789332E+03 -0.66582737036E+01  0.51705622876E+03  0.59052400897E+03  0.15294330000E+03 0.  0.
<mgrwt>
<rscale>  0 0.56004949E+03</rscale>
<asrwt>0</asrwt>
<pdfrwt beam="1">  1        1 0.96615868E-01 0.70127742E+03</pdfrwt>
<pdfrwt beam="2">  1       -1 0.26052578E+00 0.70127742E+03</pdfrwt>
<totfact> 0.20147890E+00</totfact>
</mgrwt>
</event>
<event>
 4    1  0.1043382E-007  0.8931172E+03  0.7818608E-02  0.9537172E-01
          1   -1    0    0  501    0  0.00000000000E+00  0.00000000000E+00  0.24664702481E+04  0.24664702481E+04  0.50400000000E-02 0. -1.
         -1   -1    0    0    0  501 -0.00000000000E+00 -0.00000000000E+00 -0.38729423742E+03  0.38729423745E+03  0.50400000000E-02 0.  1.
    8880023    1    1    2    0    0  0.50614648367E+03  0.32812167356E+03  0.25864129143E+03  0.92981375527E+03  0.65864270000E+03 0.  1.
    8880022    1    1    2    0    0 -0.50614648367E+03 -0.32812167356E+03  0.18205347192E+04  0.19239507303E+04  0.15294330000E+03 0.  0.
<mgrwt>
<rscale>  0 0.81597870E+03</rscale>
<asrwt>0</asrwt>
<pdfrwt beam="1">  1        1 0.37945695E+00 0.89311718E+03</pdfrwt>
<pdfrwt beam="2">  1       -1 0.59583730E-01 0.89311718E+03</pdfrwt>
<totfact> 0.42200017E+00</totfact>
</mgrwt>
</event>
<event>
 4    1  0.1043382E-007  0.6673231E+03  0.7818608E-02  0.1017659E+00
          1   -1    0    0  501    0  0.00000000000E+00  0.00000000000E+00  0.43676111542E+03  0.43676111545E+03  0.50400000000E-02 0. -1.
         -1   -1    0    0    0  501 -0.00000000000E+00 -0.00000000000E+00 -0.72642631948E+03  0.72642631950E+03  0.50400000000E-02 0.  1.
    8880023    1    1    2    0    0  0.53514351812E+02  0.92984519292E+02 -0.53465898495E+03  0.85509083911E+03  0.65864270000E+03 0.  1.
    8880022    1    1    2    0    0 -0.53514351812E+02 -0.92984519292E+02  0.24499378088E+03  0.30809659583E+03  0.15294330000E+03 0.  0.
<mgrwt>
<rscale>  0 0.48540888E+03</rscale>
<asrwt>0</asrwt>
<pdfrwt beam="1">  1        1 0.67194018E-01 0.66732309E+03</pdfrwt>
<pdfrwt beam="2">  1       -1 0.11175790E+00 0.66732309E+03</pdfrwt>
<totfact> 0.40362670E+01</totfact>
</mgrwt>
</event>
<event>
 4    1  0.1043382E-007  0.1208078E+04  0.7818608E-02  0.9149309E-01
         -1   -1    0    0    0  501 -0.00000000000E+00  0.00000000000E+00  0.16610732349E+04  0.16610732349E+04  0.50400000000E-02 0.  1.
          1   -1    0    0  501    0  0.00000000000E+00 -0.00000000000E+00 -0.12857501550E+04  0.12857501550E+04  0.50400000000E-02 0. -1.
    8880023    1    1    2    0    0 -0.99840758061E+03 -0.16978022257E+03  0.11459015790E+04  0.16650956898E+04  0.65864270000E+03 0.  1.
    8880022    1    1    2    0    0  0.99840758061E+03  0.16978022257E+03 -0.77057849907E+03  0.12817277001E+04  0.15294330000E+03 0.  0.
<mgrwt>
<rscale>  0 0.11592312E+04</rscale>
<asrwt>0</asrwt>
<pdfrwt beam="1">  1        1 0.19780771E+00 0.12080783E+04</pdfrwt>
<pdfrwt beam="2">  1       -1 0.25554973E+00 0.12080783E+04</pdfrwt>
<totfact> 0.58231084E-01</totfact>
</mgrwt>
</event>
<event>
 4    1  0.1043382E-007  0.7048616E+03  0.7818608E-02  0.9977601E-01
         -1   -1    0    0    0  501 -0.00000000000E+00  0.00000000000E+00  0.12792201887E+04  0.12792201887E+04  0.50400000000E-02 0.  1.
          1   -1    0    0  501    0  0.00000000000E+00 -0.00000000000E+00 -0.32264141915E+03  0.32264141918E+03  0.50400000000E-02 0. -1.
    8880023    1    1    2    0    0 -0.25088670202E+03 -0.86873080275E+01  0.10745605639E+04  0.12851109751E+04  0.65864270000E+03 0.  0.
    8880022    1    1    2    0    0  0.25088670202E+03  0.86873080275E+01 -0.11798179433E+03  0.31675063280E+03  0.15294330000E+03 0.  0.
<mgrwt>
<rscale>  0 0.56643380E+03</rscale>
<asrwt>0</asrwt>
<pdfrwt beam="1">  1        1 0.49637142E-01 0.70486156E+03</pdfrwt>
<pdfrwt beam="2">  1       -1 0.19680310E+00 0.70486156E+03</pdfrwt>
<totfact> 0.13063924E+01</totfact>
</mgrwt>
</event>
<event>
 4    1  0.1043382E-007  0.7251026E+03  0.7818608E-02  0.9905684E-01
          1   -1    0    0  501    0  0.00000000000E+00  0.00000000000E+00  0.11905929546E+04  0.11905929546E+04  0.50400000000E-02 0. -1.
         -1   -1    0    0    0  501 -0.00000000000E+00 -0.00000000000E+00 -0.36479984068E+03  0.36479984071E+03  0.50400000000E-02 0.  1.
    8880023    1    1    2    0    0  0.13585124574E+03  0.27112366314E+03  0.72064193882E+02  0.72867486301E+03  0.65864270000E+03 0.  1.
    8880022    1    1    2    0    0 -0.13585124574E+03 -0.27112366314E+03  0.75372892001E+03  0.82671793228E+03  0.15294330000E+03 0.  0.
<mgrwt>
<rscale>  0 0.59986604E+03</rscale>
<asrwt>0</asrwt>
<pdfrwt beam="1">  1        1 0.18316814E+00 0.72510262E+03</pdfrwt>
<pdfrwt beam="2">  1       -1 0.56123053E-01 0.72510262E+03</pdfrwt>
<totfact> 0.35938029E+01</totfact>
</mgrwt>
</event>
<event>
 4    1  0.1043382E-007  0.7253412E+03  0.7818608E-02  0.9904911E-01
         -1   -1    0    0    0  501 -0.00000000000E+00  0.00000000000E+00  0.26657874651E+03  0.26657874656E+03  0.50400000000E-02 0.  1.
          1   -1    0    0  501    0  0.00000000000E+00 -0.00000000000E+00 -0.21771584641E+04  0.21771584641E+04  0.50400000000E-02 0. -1.
    8880023    1    1    2    0    0 -0.20687592533E+03  0.22251276969E+03 -0.27911509681E+03  0.77719046873E+03  0.65864270000E+03 0.  1.
    8880022    1    1    2    0    0  0.20687592533E+03 -0.22251276969E+03 -0.16314646208E+04  0.16665467420E+04  0.15294330000E+03 0.  0.
<mgrwt>
<rscale>  0 0.60023869E+03</rscale>
<asrwt>0</asrwt>
<pdfrwt beam="1">  1        1 0.33494744E+00 0.72534115E+03</pdfrwt>
<pdfrwt beam="2">  1       -1 0.41012116E-01 0.72534115E+03</pdfrwt>
<totfact> 0.13795556E+01</totfact>
</mgrwt>
</event>
<event>
 4    1  0.1043382E-007  0.8014074E+03  0.7818608E-02  0.9707761E-01
          1   -1    0    0  501    0  0.00000000000E+00  0.00000000000E+00  0.26523495537E+04  0.26523495537E+04  0.50400000000E-02 0. -1.
         -1   -1    0    0    0  501 -0.00000000000E+00 -0.00000000000E+00 -0.26509997280E+03  0.26509997285E+03  0.50400000000E-02 0.  1.
    8880023    1    1    2    0    0 -0.45600781103E+03  0.22372594986E+02  0.44553542692E+03  0.91692730336E+03  0.65864270000E+03 0.  1.
    8880022    1    1    2    0    0  0.45600781103E+03 -0.22372594986E+02  0.19417141540E+04  0.20005222232E+04  0.15294330000E+03 0.  0.
<mgrwt>
<rscale>  0 0.70556572E+03</rscale>
<asrwt>0</asrwt>
<pdfrwt beam="1">  1        1 0.40805378E+00 0.80140743E+03</pdfrwt>
<pdfrwt beam="2">  1       -1 0.40784610E-01 0.80140743E+03</pdfrwt>
<totfact> 0.65444703E+00</totfact>
</mgrwt>
</event>
<event>
 4    1  0.1043382E-007  0.6675443E+03  0.7818608E-02  0.1017488E+00
         -1   -1    0    0    0  501 -0.00000000000E+00  0.00000000000E+00  0.19137863519E+03  0.19137863526E+03  0.50400000000E-02 0.  1.
          1   -1    0    0  501    0  0.00000000000E+00 -0.00000000000E+00 -0.16929135041E+04  0.16929135041E+04  0.50400000000E-02 0. -1.
    8880023    1    1    2    0    0 -0.10760384031E+03  0.15053207781E+02 -0.42460128425E+03  0.79113945823E+03  0.65864270000E+03 0.  1.
    8880022    1    1    2    0    0  0.10760384031E+03 -0.15053207781E+02 -0.10769335847E+04  0.10931526812E+04  0.15294330000E+03 0.  0.
<mgrwt>
<rscale>  0 0.48604113E+03</rscale>
<asrwt>0</asrwt>
<pdfrwt beam="1">  1        1 0.26044822E+00 0.66754430E+03</pdfrwt>
<pdfrwt beam="2">  1       -1 0.29442868E-01 0.66754430E+03</pdfrwt>
<totfact> 0.52828914E+01</totfact>
</mgrwt>
</event>
<event>
 4    1  0.1043382E-007  0.1426518E+04  0.7818608E-02  0.8963347E-01
         -1   -1    0    0    0  501 -0.00000000000E+00  0.00000000000E+00  0.15269396388E+04  0.15269396388E+04  0.50400000000E-02 0.  1.
          1   -1    0    0  501    0  0.00000000000E+00 -0.00000000000E+00 -0.13755817291E+04  0.13755817291E+04  0.50400000000E-02 0. -1.
    8880023    1    1    2    0    0 -0.13430920813E+03  0.12582142935E+04  0.60516198931E+03  0.15495720091E+04  0.65864270000E+03 0.  0.
    8880022    1    1    2    0    0  0.13430920813E+03 -0.12582142935E+04 -0.45380407957E+03  0.13529493588E+04  0.15294330000E+03 0.  0.
<mgrwt>
<rscale>  0 0.13869121E+04</rscale>
<asrwt>0</asrwt>
<pdfrwt beam="1">  1        1 0.21162796E+00 0.14265176E+04</pdfrwt>
<pdfrwt beam="2">  1       -1 0.23491379E+00 0.14265176E+04</pdfrwt>
<totfact> 0.66827233E-01</totfact>
</mgrwt>
</event>
<event>
 4    1  0.1043382E-007  0.8006815E+03  0.7818608E-02  0.9709324E-01
         -1   -1    0    0    0  501 -0.00000000000E+00  0.00000000000E+00  0.19571040211E+04  0.19571040211E+04  0.50400000000E-02 0.  1.
          1   -1    0    0  501    0  0.00000000000E+00 -0.00000000000E+00 -0.94384313632E+03  0.94384313633E+03  0.50400000000E-02 0. -1.
    8880023    1    1    2    0    0 -0.42092815185E+03 -0.17349401202E+03  0.18051717147E+04  0.19747748750E+04  0.65864270000E+03 0.  0.
    8880022    1    1    2    0    0  0.42092815185E+03  0.17349401202E+03 -0.79191082990E+03  0.92617228243E+03  0.15294330000E+03 0.  0.
<mgrwt>
<rscale>  0 0.70464324E+03</rscale>
<asrwt>0</asrwt>
<pdfrwt beam="1">  1        1 0.14520664E+00 0.80068151E+03</pdfrwt>
<pdfrwt beam="2">  1       -1 0.30109293E+00 0.80068151E+03</pdfrwt>
<totfact> 0.57210906E-01</totfact>
</mgrwt>
</event>
<event>
 4    1  0.1043382E-007  0.9452877E+03  0.7818608E-02  0.9456927E-01
          1   -1    0    0  501    0  0.00000000000E+00  0.00000000000E+00  0.31499106512E+04  0.31499106512E+04  0.50400000000E-02 0. -1.
         -1   -1    0    0    0  501 -0.00000000000E+00 -0.00000000000E+00 -0.22884899914E+03  0.22884899920E+03  0.50400000000E-02 0.  1.
    8880023    1    1    2    0    0  0.64384152056E+03 -0.21266566880E+03  0.12365931420E+04  0.15565125748E+04  0.65864270000E+03 0.  1.
    8880022    1    1    2    0    0 -0.64384152056E+03  0.21266566880E+03  0.16844685101E+04  0.18222470756E+04  0.15294330000E+03 0.  0.
<mgrwt>
<rscale>  0 0.87535310E+03</rscale>
<asrwt>0</asrwt>
<pdfrwt beam="1">  1        1 0.48460158E+00 0.94528768E+03</pdfrwt>
<pdfrwt beam="2">  1       -1 0.35207543E-01 0.94528768E+03</pdfrwt>
<totfact> 0.36927279E+00</totfact>
</mgrwt>
</event>
<event>
 4    1  0.1043382E-007  0.7735476E+03  0.7818608E-02  0.9771218E-01
         -1   -1    0    0    0  501 -0.00000000000E+00  0.00000000000E+00  0.26553457998E+03  0.26553458002E+03  0.50400000000E-02 0.  1.
          1   -1    0    0  501    0  0.00000000000E+00 -0.00000000000E+00 -0.17363382097E+04  0.17363382098E+04  0.50400000000E-02 0. -1.
    8880023    1    1    2    0    0  0.29199373953E+03 -0.28161207872E+03 -0.45504989986E+03  0.89746661466E+03  0.65864270000E+03 0.  0.
    8880022    1    1    2    0    0 -0.29199373953E+03  0.28161207872E+03 -0.10157537299E+04  0.11044061751E+04  0.15294330000E+03 0.  1.
<mgrwt>
<rscale>  0 0.66930290E+03</rscale>
<asrwt>0</asrwt>
<pdfrwt beam="1">  1        1 0.26712895E+00 0.77354762E+03</pdfrwt>
<pdfrwt beam="2">  1       -1 0.40851475E-01 0.77354762E+03</pdfrwt>
<totfact> 0.27225781E+01</totfact>
</mgrwt>
</event>
<event>
 4    1  0.1043382E-007  0.9278482E+03  0.7818608E-02  0.9482729E-01
         -1   -1    0    0    0  501 -0.00000000000E+00  0.00000000000E+00  0.12438247190E+04  0.12438247190E+04  0.50400000000E-02 0.  1.
          1   -1    0    0  501    0  0.00000000000E+00 -0.00000000000E+00 -0.16226884765E+04  0.16226884765E+04  0.50400000000E-02 0. -1.
    8880023    1    1    2    0    0  0.56571777733E+03  0.32719321990E+03 -0.13789697506E+04  0.16620649163E+04  0.65864270000E+03 0.  0.
    8880022    1    1    2    0    0 -0.56571777733E+03 -0.32719321990E+03  0.10001059931E+04  0.12044482792E+04  0.15294330000E+03 0.  0.
<mgrwt>
<rscale>  0 0.85569218E+03</rscale>
<asrwt>0</asrwt>
<pdfrwt beam="1">  1        1 0.24964438E+00 0.92784816E+03</pdfrwt>
<pdfrwt beam="2">  1       -1 0.19135765E+00 0.92784816E+03</pdfrwt>
<totfact> 0.94895147E-01</totfact>
</mgrwt>
</event>
<event>
 4    1  0.1043382E-007  0.9007703E+03  0.7818608E-02  0.9524796E-01
          1   -1    0    0  501    0  0.00000000000E+00  0.00000000000E+00  0.12212338040E+04  0.12212338041E+04  0.50400000000E-02 0. -1.
         -1   -1    0    0    0  501 -0.00000000000E+00 -0.00000000000E+00 -0.87373960897E+03  0.87373960899E+03  0.50400000000E-02 0.  1.
    8880023    1    1    2    0    0  0.51740684065E+03 -0.33146198239E+03 -0.50528011694E+03  0.10328093180E+04  0.65864270000E+03 0.  1.
    8880022    1    1    2    0    0 -0.51740684065E+03  0.33146198239E+03  0.85277431202E+03  0.10621640950E+04  0.15294330000E+03 0.  0.
<mgrwt>
<rscale>  0 0.82480127E+03</rscale>
<asrwt>0</asrwt>
<pdfrwt beam="1">  1        1 0.18788212E+00 0.90077028E+03</pdfrwt>
<pdfrwt beam="2">  1       -1 0.13442148E+00 0.90077028E+03</pdfrwt>
<totfact> 0.48787624E+00</totfact>
</mgrwt>
</event>
<event>
 4    1  0.1043382E-007  0.7309612E+03  0.7818608E-02  0.9887105E-01
         -1   -1    0    0    0  501 -0.00000000000E+00  0.00000000000E+00  0.15366379937E+04  0.15366379938E+04  0.50400000000E-02 0.  1.
          1   -1    0    0  501    0  0.00000000000E+00 -0.00000000000E+00 -0.62288076631E+03  0.62288076633E+03  0.50400000000E-02 0. -1.
    8880023    1    1    2    0    0  0.31637447504E+03  0.20031119798E+02  0.13881324618E+04  0.15688263103E+04  0.65864270000E+03 0.  1.
    8880022    1    1    2    0    0 -0.31637447504E+03 -0.20031119798E+02 -0.47437523436E+03  0.59069244976E+03  0.15294330000E+03 0.  0.
<mgrwt>
<rscale>  0 0.60890339E+03</rscale>
<asrwt>0</asrwt>
<pdfrwt beam="1">  1        1 0.95827810E-01 0.73096119E+03</pdfrwt>
<pdfrwt beam="2">  1       -1 0.23640585E+00 0.73096119E+03</pdfrwt>
<totfact> 0.29029344E+00</totfact>
</mgrwt>
</event>
<event>
 4    1  0.1043382E-007  0.7258206E+03  0.7818608E-02  0.9903362E-01
         -1   -1    0    0    0  501 -0.00000000000E+00  0.00000000000E+00  0.62615737038E+03  0.62615737040E+03  0.50400000000E-02 0.  1.
          1   -1    0    0  501    0  0.00000000000E+00 -0.00000000000E+00 -0.59249800491E+03  0.59249800493E+03  0.50400000000E-02 0. -1.
    8880023    1    1    2    0    0 -0.45497366484E+02 -0.30155481742E+03  0.30045895810E+03  0.78555146874E+03  0.65864270000E+03 0.  0.
    8880022    1    1    2    0    0  0.45497366484E+02  0.30155481742E+03 -0.26679959263E+03  0.43310390660E+03  0.15294330000E+03 0.  0.
<mgrwt>
<rscale>  0 0.60098644E+03</rscale>
<asrwt>0</asrwt>
<pdfrwt beam="1">  1        1 0.91153539E-01 0.72582059E+03</pdfrwt>
<pdfrwt beam="2">  1       -1 0.96331903E-01 0.72582059E+03</pdfrwt>
<totfact> 0.37118871E+01</totfact>
</mgrwt>
</event>
<event>
 4    1  0.1043382E-007  0.6591318E+03  0.7818608E-02  0.1025064E+00
         -1   -1    0    0    0  501 -0.00000000000E+00  0.00000000000E+00  0.64166467736E+03  0.64166467738E+03  0.50400000000E-02 0.  1.
          1   -1    0    0  501    0  0.00000000000E+00 -0.00000000000E+00 -0.37344832971E+03  0.37344832975E+03  0.50400000000E-02 0. -1.
    8880023    1    1    2    0    0 -0.23233725570E+02  0.10231131599E+02  0.43317793885E+03  0.78873177635E+03  0.65864270000E+03 0.  1.
    8880022    1    1    2    0    0  0.23233725570E+02 -0.10231131599E+02 -0.16496159121E+03  0.22638123077E+03  0.15294330000E+03 0.  0.
<mgrwt>
<rscale>  0 0.45902598E+03</rscale>
<asrwt>0</asrwt>
<pdfrwt beam="1">  1        1 0.57453589E-01 0.65913177E+03</pdfrwt>
<pdfrwt beam="2">  1       -1 0.98717643E-01 0.65913177E+03</pdfrwt>
<totfact> 0.66238941E+01</totfact>
</mgrwt>
</event>
<event>
 4    1  0.1043382E-007  0.6593613E+03  0.7818608E-02  0.1024821E+00
          1   -1    0    0  501    0  0.00000000000E+00  0.00000000000E+00  0.11448370966E+04  0.11448370967E+04  0.50400000000E-02 0. -1.
         -1   -1    0    0    0  501 -0.00000000000E+00 -0.00000000000E+00 -0.58163498366E+03  0.58163498368E+03  0.50400000000E-02 0.  1.
    8880023    1    1    2    0    0  0.29676275770E+02 -0.81486297564E+01 -0.38633326701E+03  0.76420591530E+03  0.65864270000E+03 0.  1.
    8880022    1    1    2    0    0 -0.29676275770E+02  0.81486297564E+01  0.94953537999E+03  0.96226616504E+03  0.15294330000E+03 0.  0.
<mgrwt>
<rscale>  0 0.45986444E+03</rscale>
<asrwt>0</asrwt>
<pdfrwt beam="1">  1        1 0.17612878E+00 0.65936127E+03</pdfrwt>
<pdfrwt beam="2">  1       -1 0.89482306E-01 0.65936127E+03</pdfrwt>
<totfact> 0.15008682E+01</totfact>
</mgrwt>
</event>
<event>
 4    1  0.1043382E-007  0.6823044E+03  0.7818608E-02  0.1008049E+00
          1   -1    0    0  501    0  0.00000000000E+00  0.00000000000E+00  0.86746301721E+03  0.86746301723E+03  0.50400000000E-02 0. -1.
         -1   -1    0    0    0  501 -0.00000000000E+00 -0.00000000000E+00 -0.61220689697E+03  0.61220689699E+03  0.50400000000E-02 0.  1.
    8880023    1    1    2    0    0 -0.12645439223E+03 -0.12545268579E+03 -0.39495450846E+03  0.78837069942E+03  0.65864270000E+03 0.  0.
    8880022    1    1    2    0    0  0.12645439223E+03  0.12545268579E+03  0.65021062871E+03  0.69129921480E+03  0.15294330000E+03 0. -1.
<mgrwt>
<rscale>  0 0.52257426E+03</rscale>
<asrwt>0</asrwt>
<pdfrwt beam="1">  1        1 0.13345585E+00 0.68230440E+03</pdfrwt>
<pdfrwt beam="2">  1       -1 0.94185676E-01 0.68230440E+03</pdfrwt>
<totfact> 0.21899350E+01</totfact>
</mgrwt>
</event>
<event>
 4    1  0.1043382E-007  0.7541019E+03  0.7818608E-02  0.9820623E-01
          1   -1    0    0  501    0  0.00000000000E+00  0.00000000000E+00  0.61978005696E+03  0.61978005698E+03  0.50400000000E-02 0. -1.
         -1   -1    0    0    0  501 -0.00000000000E+00 -0.00000000000E+00 -0.15366947643E+04  0.15366947643E+04  0.50400000000E-02 0.  1.
    8880023    1    1    2    0    0  0.30592573341E+03 -0.20314758512E+03 -0.13636619950E+04  0.15582823039E+04  0.65864270000E+03 0.  1.
    8880022    1    1    2    0    0 -0.30592573341E+03  0.20314758512E+03  0.44674728773E+03  0.59819251735E+03  0.15294330000E+03 0.  0.
<mgrwt>
<rscale>  0 0.64267424E+03</rscale>
<asrwt>0</asrwt>
<pdfrwt beam="1">  1        1 0.95350779E-01 0.75410192E+03</pdfrwt>
<pdfrwt beam="2">  1       -1 0.23641458E+00 0.75410192E+03</pdfrwt>
<totfact> 0.29127676E+00</totfact>
</mgrwt>
</event>
<event>
 4    1  0.1043382E-007  0.7919121E+03  0.7818608E-02  0.9728564E-01
          1   -1    0    0  501    0  0.00000000000E+00  0.00000000000E+00  0.35002192264E+03  0.35002192268E+03  0.50400000000E-02 0. -1.
         -1   -1    0    0    0  501 -0.00000000000E+00 -0.00000000000E+00 -0.14372385880E+04  0.14372385880E+04  0.50400000000E-02 0.  1.
    8880023    1    1    2    0    0 -0.35709116178E+03  0.25651616129E+03 -0.10570219889E+04  0.13207650548E+04  0.65864270000E+03 0.  1.
    8880022    1    1    2    0    0  0.35709116178E+03 -0.25651616129E+03 -0.30194676476E+02  0.46649545585E+03  0.15294330000E+03 0.  0.
<mgrwt>
<rscale>  0 0.69341254E+03</rscale>
<asrwt>0</asrwt>
<pdfrwt beam="1">  1        1 0.53849528E-01 0.79191214E+03</pdfrwt>
<pdfrwt beam="2">  1       -1 0.22111362E+00 0.79191214E+03</pdfrwt>
<totfact> 0.79693057E+00</totfact>
</mgrwt>
</event>
<event>
 4    1  0.1043382E-007  0.7789963E+03  0.7818608E-02  0.9758200E-01
         -1   -1    0    0    0  501 -0.00000000000E+00  0.00000000000E+00  0.21733327037E+03  0.21733327042E+03  0.50400000000E-02 0.  1.
          1   -1    0    0  501    0  0.00000000000E+00 -0.00000000000E+00 -0.22489220956E+04  0.22489220956E+04  0.50400000000E-02 0. -1.
    8880023    1    1    2    0    0  0.41507440577E+03 -0.27170118191E+02 -0.64756160221E+03  0.10130010921E+04  0.65864270000E+03 0.  1.
    8880022    1    1    2    0    0 -0.41507440577E+03  0.27170118191E+02 -0.13840272230E+04  0.14532542739E+04  0.15294330000E+03 0.  0.
<mgrwt>
<rscale>  0 0.67654831E+03</rscale>
<asrwt>0</asrwt>
<pdfrwt beam="1">  1        1 0.34598800E+00 0.77899627E+03</pdfrwt>
<pdfrwt beam="2">  1       -1 0.33435889E-01 0.77899627E+03</pdfrwt>
<totfact> 0.17680344E+01</totfact>
</mgrwt>
</event>
<event>
 4    1  0.1043382E-007  0.6895937E+03  0.7818608E-02  0.1004346E+00
          1   -1    0    0  501    0  0.00000000000E+00  0.00000000000E+00  0.71495706704E+03  0.71495706706E+03  0.50400000000E-02 0. -1.
         -1   -1    0    0    0  501 -0.00000000000E+00 -0.00000000000E+00 -0.45052909569E+03  0.45052909572E+03  0.50400000000E-02 0.  1.
    8880023    1    1    2    0    0  0.76540513071E+02 -0.18939579514E+03 -0.12407666522E+03  0.70066714100E+03  0.65864270000E+03 0.  0.
    8880022    1    1    2    0    0 -0.76540513071E+02  0.18939579514E+03  0.38850463657E+03  0.46481902178E+03  0.15294330000E+03 0.  0.
<mgrwt>
<rscale>  0 0.53784851E+03</rscale>
<asrwt>0</asrwt>
<pdfrwt beam="1">  1        1 0.10999339E+00 0.68959367E+03</pdfrwt>
<pdfrwt beam="2">  1       -1 0.69312169E-01 0.68959367E+03</pdfrwt>
<totfact> 0.57057006E+01</totfact>
</mgrwt>
</event>
<event>
 4    1  0.1043382E-007  0.7076443E+03  0.7818608E-02  0.9966855E-01
         -1   -1    0    0    0  501 -0.00000000000E+00  0.00000000000E+00  0.71314683688E+03  0.71314683690E+03  0.50400000000E-02 0.  1.
          1   -1    0    0  501    0  0.00000000000E+00 -0.00000000000E+00 -0.39160797753E+03  0.39160797756E+03  0.50400000000E-02 0. -1.
    8880023    1    1    2    0    0 -0.14556589536E+03  0.21391787996E+03  0.37281242063E+03  0.79984348250E+03  0.65864270000E+03 0.  0.
    8880022    1    1    2    0    0  0.14556589536E+03 -0.21391787996E+03 -0.51273561272E+02  0.30491133196E+03  0.15294330000E+03 0.  0.
<mgrwt>
<rscale>  0 0.57127794E+03</rscale>
<asrwt>0</asrwt>
<pdfrwt beam="1">  1        1 0.60247382E-01 0.70764433E+03</pdfrwt>
<pdfrwt beam="2">  1       -1 0.10971490E+00 0.70764433E+03</pdfrwt>
<totfact> 0.48554496E+01</totfact>
</mgrwt>
</event>
<event>
 4    1  0.1043382E-007  0.7996047E+03  0.7818608E-02  0.9711651E-01
          1   -1    0    0  501    0  0.00000000000E+00  0.00000000000E+00  0.15667334847E+04  0.15667334847E+04  0.50400000000E-02 0. -1.
         -1   -1    0    0    0  501 -0.00000000000E+00 -0.00000000000E+00 -0.62653075030E+03  0.62653075032E+03  0.50400000000E-02 0.  1.
    8880023    1    1    2    0    0 -0.21428655235E+03 -0.39954826268E+03 -0.30770537446E+03  0.85676738060E+03  0.65864270000E+03 0.  1.
    8880022    1    1    2    0    0  0.21428655235E+03  0.39954826268E+03  0.12479081089E+04  0.13364968545E+04  0.15294330000E+03 0.  0.
<mgrwt>
<rscale>  0 0.70327295E+03</rscale>
<asrwt>0</asrwt>
<pdfrwt beam="1">  1        1 0.24103592E+00 0.79960474E+03</pdfrwt>
<pdfrwt beam="2">  1       -1 0.96389347E-01 0.79960474E+03</pdfrwt>
<totfact> 0.63007846E+00</totfact>
</mgrwt>
</event>
<event>
 4    1  0.1043382E-007  0.1038006E+04  0.7818608E-02  0.9333441E-01
          1   -1    0    0  501    0  0.00000000000E+00  0.00000000000E+00  0.25417876108E+04  0.25417876108E+04  0.50400000000E-02 0. -1.
         -1   -1    0    0    0  501 -0.00000000000E+00 -0.00000000000E+00 -0.61321041241E+03  0.61321041243E+03  0.50400000000E-02 0.  1.
    8880023    1    1    2    0    0  0.62567646082E+03 -0.50216998216E+03 -0.24221470436E+02  0.10382883080E+04  0.65864270000E+03 0.  1.
    8880022    1    1    2    0    0 -0.62567646082E+03  0.50216998216E+03  0.19527986688E+04  0.21167097152E+04  0.15294330000E+03 0.  0.
<mgrwt>
<rscale>  0 0.97761665E+03</rscale>
<asrwt>0</asrwt>
<pdfrwt beam="1">  1        1 0.39104425E+00 0.10380057E+04</pdfrwt>
<pdfrwt beam="2">  1       -1 0.94340064E-01 0.10380057E+04</pdfrwt>
<totfact> 0.13966517E+00</totfact>
</mgrwt>
</event>
<event>
 4    1  0.1043382E-007  0.7618410E+03  0.7818608E-02  0.9800364E-01
         -1   -1    0    0    0  501 -0.00000000000E+00  0.00000000000E+00  0.52934965840E+03  0.52934965843E+03  0.50400000000E-02 0.  1.
          1   -1    0    0  501    0  0.00000000000E+00 -0.00000000000E+00 -0.15773655102E+04  0.15773655102E+04  0.50400000000E-02 0. -1.
    8880023    1    1    2    0    0 -0.33045845971E+03 -0.19336159108E+03  0.20390182484E+03  0.78865560223E+03  0.65864270000E+03 0.  1.
    8880022    1    1    2    0    0  0.33045845971E+03  0.19336159108E+03 -0.12519176767E+04  0.13180595664E+04  0.15294330000E+03 0.  0.
<mgrwt>
<rscale>  0 0.65342988E+03</rscale>
<asrwt>0</asrwt>
<pdfrwt beam="1">  1        1 0.24267161E+00 0.76184100E+03</pdfrwt>
<pdfrwt beam="2">  1       -1 0.81438410E-01 0.76184100E+03</pdfrwt>
<totfact> 0.90166734E+00</totfact>
</mgrwt>
</event>
<event>
 4    1  0.1043382E-007  0.7225631E+03  0.7818608E-02  0.9914007E-01
          1   -1    0    0  501    0  0.00000000000E+00  0.00000000000E+00  0.13996975458E+04  0.13996975458E+04  0.50400000000E-02 0. -1.
         -1   -1    0    0    0  501 -0.00000000000E+00 -0.00000000000E+00 -0.94800232491E+03  0.94800232492E+03  0.50400000000E-02 0.  1.
    8880023    1    1    2    0    0  0.24159325690E+03 -0.17297387854E+03 -0.78483892952E+03  0.10668034571E+04  0.65864270000E+03 0.  1.
    8880022    1    1    2    0    0 -0.24159325690E+03  0.17297387854E+03  0.12365341504E+04  0.12808964137E+04  0.15294330000E+03 0.  0.
<mgrwt>
<rscale>  0 0.59587237E+03</rscale>
<asrwt>0</asrwt>
<pdfrwt beam="1">  1        1 0.21533808E+00 0.72256313E+03</pdfrwt>
<pdfrwt beam="2">  1       -1 0.14584651E+00 0.72256313E+03</pdfrwt>
<totfact> 0.30322109E+00</totfact>
</mgrwt>
</event>
<event>
 4    1  0.1043382E-007  0.1484656E+04  0.7818608E-02  0.8920547E-01
          1   -1    0    0  501    0  0.00000000000E+00  0.00000000000E+00  0.97695636604E+03  0.97695636605E+03  0.50400000000E-02 0. -1.
         -1   -1    0    0    0  501 -0.00000000000E+00 -0.00000000000E+00 -0.41913575783E+04  0.41913575783E+04  0.50400000000E-02 0.  1.
    8880023    1    1    2    0    0 -0.13068790436E+04 -0.24992314513E+03 -0.34973498634E+04  0.37994289948E+04  0.65864270000E+03 0.  0.
    8880022    1    1    2    0    0  0.13068790436E+04  0.24992314513E+03  0.28294865111E+03  0.13688849496E+04  0.15294330000E+03 0.  0.
<mgrwt>
<rscale>  0 0.14469076E+04</rscale>
<asrwt>0</asrwt>
<pdfrwt beam="1">  1        1 0.15030098E+00 0.14846564E+04</pdfrwt>
<pdfrwt beam="2">  1       -1 0.64482423E+00 0.14846564E+04</pdfrwt>
<totfact> 0.44328482E-03</totfact>
</mgrwt>
</event>
<event>
 4    1  0.1043382E-007  0.7013824E+03  0.7818608E-02  0.9991514E-01
          1   -1    0    0  501    0  0.00000000000E+00  0.00000000000E+00  0.11045786729E+04  0.11045786729E+04  0.50400000000E-02 0. -1.
         -1   -1    0    0    0  501 -0.00000000000E+00 -0.00000000000E+00 -0.22434249528E+03  0.22434249534E+03  0.50400000000E-02 0.  1.
    8880023    1    1    2    0    0  0.23197788004E+03 -0.65676455119E+02  0.70199212839E+03  0.99233577390E+03  0.65864270000E+03 0.  0.
    8880022    1    1    2    0    0 -0.23197788004E+03  0.65676455119E+02  0.17824404924E+03  0.33658539435E+03  0.15294330000E+03 0.  0.
<mgrwt>
<rscale>  0 0.56023906E+03</rscale>
<asrwt>0</asrwt>
<pdfrwt beam="1">  1        1 0.16993518E+00 0.70138245E+03</pdfrwt>
<pdfrwt beam="2">  1       -1 0.34514230E-01 0.70138245E+03</pdfrwt>
<totfact> 0.10245212E+02</totfact>
</mgrwt>
</event>
<event>
 4    1  0.1043382E-007  0.7539951E+03  0.7818608E-02  0.9820909E-01
          1   -1    0    0  501    0  0.00000000000E+00  0.00000000000E+00  0.93093305407E+03  0.93093305409E+03  0.50400000000E-02 0. -1.
         -1   -1    0    0    0  501 -0.00000000000E+00 -0.00000000000E+00 -0.10594852384E+04  0.10594852384E+04  0.50400000000E-02 0.  1.
    8880023    1    1    2    0    0  0.27225395857E+03 -0.24612241041E+03 -0.86867101950E+03  0.11502599729E+04  0.65864270000E+03 0.  0.
    8880022    1    1    2    0    0 -0.27225395857E+03  0.24612241041E+03  0.74011883515E+03  0.84015831962E+03  0.15294330000E+03 0.  0.
<mgrwt>
<rscale>  0 0.64252421E+03</rscale>
<asrwt>0</asrwt>
<pdfrwt beam="1">  1        1 0.14322047E+00 0.75399514E+03</pdfrwt>
<pdfrwt beam="2">  1       -1 0.16299773E+00 0.75399514E+03</pdfrwt>
<totfact> 0.49331966E+00</totfact>
</mgrwt>
</event>
<event>
 4    1  0.1043382E-007  0.8480184E+03  0.7818608E-02  0.9615242E-01
          1   -1    0    0  501    0  0.00000000000E+00  0.00000000000E+00  0.11431017275E+04  0.11431017275E+04  0.50400000000E-02 0. -1.
         -1   -1    0    0    0  501 -0.00000000000E+00 -0.00000000000E+00 -0.57515119168E+03  0.57515119170E+03  0.50400000000E-02 0.  1.
    8880023    1    1    2    0    0  0.10887556963E+03 -0.52294458156E+03 -0.94923459035E+02  0.85331447567E+03  0.65864270000E+03 0.  0.
    8880022    1    1    2    0    0 -0.10887556963E+03  0.52294458156E+03  0.66287399483E+03  0.86493844352E+03  0.15294330000E+03 0.  0.
<mgrwt>
<rscale>  0 0.76295502E+03</rscale>
<asrwt>0</asrwt>
<pdfrwt beam="1">  1        1 0.17586180E+00 0.84801836E+03</pdfrwt>
<pdfrwt beam="2">  1       -1 0.88484799E-01 0.84801836E+03</pdfrwt>
<totfact> 0.15049070E+01</totfact>
</mgrwt>
</event>
<event>
 4    1  0.1043382E-007  0.7331777E+03  0.7818608E-02  0.9880285E-01
         -1   -1    0    0    0  501 -0.00000000000E+00  0.00000000000E+00  0.18306215246E+04  0.18306215247E+04  0.50400000000E-02 0.  1.
          1   -1    0    0  501    0  0.00000000000E+00 -0.00000000000E+00 -0.28072981724E+03  0.28072981729E+03  0.50400000000E-02 0. -1.
    8880023    1    1    2    0    0 -0.21622178349E+03  0.23872054839E+03  0.26772233772E+03  0.78052854929E+03  0.65864270000E+03 0.  0.
    8880022    1    1    2    0    0  0.21622178349E+03 -0.23872054839E+03  0.12821693697E+04  0.13308227926E+04  0.15294330000E+03 0.  0.
<mgrwt>
<rscale>  0 0.61226352E+03</rscale>
<asrwt>0</asrwt>
<pdfrwt beam="1">  1        1 0.43189204E-01 0.73317772E+03</pdfrwt>
<pdfrwt beam="2">  1       -1 0.28163407E+00 0.73317772E+03</pdfrwt>
<totfact> 0.43453230E+00</totfact>
</mgrwt>
</event>
<event>
 4    1  0.1043382E-007  0.6838537E+03  0.7818608E-02  0.1007223E+00
          1   -1    0    0  501    0  0.00000000000E+00  0.00000000000E+00  0.55398934242E+03  0.55398934244E+03  0.50400000000E-02 0. -1.
         -1   -1    0    0    0  501 -0.00000000000E+00 -0.00000000000E+00 -0.84668744357E+03  0.84668744358E+03  0.50400000000E-02 0.  1.
    8880023    1    1    2    0    0 -0.17945578265E+03 -0.40512720877E+02 -0.66776290804E+03  0.95580498330E+03  0.65864270000E+03 0.  1.
    8880022    1    1    2    0    0  0.17945578265E+03  0.40512720877E+02  0.37506480689E+03  0.44487180273E+03  0.15294330000E+03 0.  0.
<mgrwt>
<rscale>  0 0.52593527E+03</rscale>
<asrwt>0</asrwt>
<pdfrwt beam="1">  1        1 0.85229130E-01 0.68385369E+03</pdfrwt>
<pdfrwt beam="2">  1       -1 0.13025961E+00 0.68385369E+03</pdfrwt>
<totfact> 0.20032947E+01</totfact>
</mgrwt>
</event>
<event>
 4    1  0.2515558E-007  0.7128174E+03  0.7818608E-02  0.9947684E-01
          1   -1    0    0  501    0  0.00000000000E+00  0.00000000000E+00  0.30399653655E+04  0.30399653655E+04  0.50400000000E-02 0. -1.
         -1   -1    0    0    0  501 -0.00000000000E+00 -0.00000000000E+00 -0.11452205449E+04  0.11452205449E+04  0.50400000000E-02 0.  1.
    8880023    1    1    2    0    0 -0.13545950906E+03 -0.23653575021E+03 -0.10251470680E+04  0.12486132936E+04  0.65864270000E+03 0.  0.
    8880022    1    1    2    0    0  0.13545950906E+03  0.23653575021E+03  0.29198918886E+04  0.29365726168E+04  0.15294330000E+03 0.  0.
<mgrwt>
<rscale>  0 0.58004947E+03</rscale>
<asrwt>0</asrwt>
<pdfrwt beam="1">  1        1 0.46768698E+00 0.71281740E+03</pdfrwt>
<pdfrwt beam="2">  1       -1 0.17618778E+00 0.71281740E+03</pdfrwt>
<totfact> 0.13668342E-01</totfact>
</mgrwt>
</event>
<event>
 4    1  0.1043382E-007  0.6840681E+03  0.7818608E-02  0.1007110E+00
         -1   -1    0    0    0  501 -0.00000000000E+00  0.00000000000E+00  0.72850975936E+02  0.72850976111E+02  0.50400000000E-02 0.  1.
          1   -1    0    0  501    0  0.00000000000E+00 -0.00000000000E+00 -0.35015409502E+04  0.35015409502E+04  0.50400000000E-02 0. -1.
    8880023    1    1    2    0    0 -0.14490158707E+03 -0.11464047752E+03 -0.30527345853E+04  0.31284401166E+04  0.65864270000E+03 0. -1.
    8880022    1    1    2    0    0  0.14490158707E+03  0.11464047752E+03 -0.37595538898E+03  0.44595180966E+03  0.15294330000E+03 0.  0.
<mgrwt>
<rscale>  0 0.52639507E+03</rscale>
<asrwt>0</asrwt>
<pdfrwt beam="1">  1        1 0.53869848E+00 0.68406806E+03</pdfrwt>
<pdfrwt beam="2">  1       -1 0.11207845E-01 0.68406806E+03</pdfrwt>
<totfact> 0.14261173E+01</totfact>
</mgrwt>
</event>
<event>
 4    1  0.1043382E-007  0.8418866E+03  0.7818608E-02  0.9626633E-01
         -1   -1    0    0    0  501 -0.00000000000E+00  0.00000000000E+00  0.45441083373E+03  0.45441083376E+03  0.50400000000E-02 0.  1.
          1   -1    0    0  501    0  0.00000000000E+00 -0.00000000000E+00 -0.12507004702E+04  0.12507004702E+04  0.50400000000E-02 0. -1.
    8880023    1    1    2    0    0 -0.38109073360E+03 -0.36018418508E+03 -0.14364459844E+03  0.85405314316E+03  0.65864270000E+03 0.  0.
    8880022    1    1    2    0    0  0.38109073360E+03  0.36018418508E+03 -0.65264503803E+03  0.85105816081E+03  0.15294330000E+03 0.  0.
<mgrwt>
<rscale>  0 0.75558226E+03</rscale>
<asrwt>0</asrwt>
<pdfrwt beam="1">  1        1 0.19241546E+00 0.84188657E+03</pdfrwt>
<pdfrwt beam="2">  1       -1 0.69909360E-01 0.84188657E+03</pdfrwt>
<totfact> 0.20717418E+01</totfact>
</mgrwt>
</event>
<event>
 4    1  0.1043382E-007  0.9085882E+03  0.7818608E-02  0.9512383E-01
         -1   -1    0    0    0  501 -0.00000000000E+00  0.00000000000E+00  0.55699504889E+03  0.55699504891E+03  0.50400000000E-02 0.  1.
          1   -1    0    0  501    0  0.00000000000E+00 -0.00000000000E+00 -0.18481285053E+04  0.18481285053E+04  0.50400000000E-02 0. -1.
    8880023    1    1    2    0    0 -0.55189459395E+02  0.62343913734E+03  0.57588392120E+02  0.91041137051E+03  0.65864270000E+03 0.  1.
    8880022    1    1    2    0    0  0.55189459395E+02 -0.62343913734E+03 -0.13487218485E+04  0.14947121837E+04  0.15294330000E+03 0.  0.
<mgrwt>
<rscale>  0 0.83376990E+03</rscale>
<asrwt>0</asrwt>
<pdfrwt beam="1">  1        1 0.28432746E+00 0.90858816E+03</pdfrwt>
<pdfrwt beam="2">  1       -1 0.85691547E-01 0.90858816E+03</pdfrwt>
<totfact> 0.51929822E+00</totfact>
</mgrwt>
</event>
<event>
 4    1  0.1043382E-007  0.7949739E+03  0.7818608E-02  0.9721771E-01
          1   -1    0    0  501    0  0.00000000000E+00  0.00000000000E+00  0.21205507517E+04  0.21205507517E+04  0.50400000000E-02 0. -1.
         -1   -1    0    0    0  501 -0.00000000000E+00 -0.00000000000E+00 -0.64083716189E+03  0.64083716191E+03  0.50400000000E-02 0.  1.
    8880023    1    1    2    0    0 -0.42510621850E+03 -0.13212865357E+03 -0.35254088938E+03  0.86963702948E+03  0.65864270000E+03 0.  1.
    8880022    1    1    2    0    0  0.42510621850E+03  0.13212865357E+03  0.18322544792E+04  0.18917508841E+04  0.15294330000E+03 0.  0.
<mgrwt>
<rscale>  0 0.69735236E+03</rscale>
<asrwt>0</asrwt>
<pdfrwt beam="1">  1        1 0.32623857E+00 0.79497389E+03</pdfrwt>
<pdfrwt beam="2">  1       -1 0.98590334E-01 0.79497389E+03</pdfrwt>
<totfact> 0.25428194E+00</totfact>
</mgrwt>
</event>
<event>
 4    1  0.1043382E-007  0.1008095E+04  0.7818608E-02  0.9371043E-01
          1   -1    0    0  501    0  0.00000000000E+00  0.00000000000E+00  0.19812536977E+04  0.19812536977E+04  0.50400000000E-02 0. -1.
         -1   -1    0    0    0  501 -0.00000000000E+00 -0.00000000000E+00 -0.40912462028E+03  0.40912462031E+03  0.50400000000E-02 0.  1.
    8880023    1    1    2    0    0  0.45889118480E+03 -0.60980630798E+03  0.73701638122E+03  0.12487786854E+04  0.65864270000E+03 0.  0.
    8880022    1    1    2    0    0 -0.45889118480E+03  0.60980630798E+03  0.83511269617E+03  0.11415996326E+04  0.15294330000E+03 0.  1.
<mgrwt>
<rscale>  0 0.94497529E+03</rscale>
<asrwt>0</asrwt>
<pdfrwt beam="1">  1        1 0.30480826E+00 0.10080948E+04</pdfrwt>
<pdfrwt beam="2">  1       -1 0.62942249E-01 0.10080948E+04</pdfrwt>
<totfact> 0.79357470E+00</totfact>
</mgrwt>
</event>
<event>
 4    1  0.1043382E-007  0.9830114E+03  0.7818608E-02  0.9404129E-01
         -1   -1    0    0    0  501 -0.00000000000E+00  0.00000000000E+00  0.76465146020E+03  0.76465146022E+03  0.50400000000E-02 0.  1.
          1   -1    0    0  501    0  0.00000000000E+00 -0.00000000000E+00 -0.17564679253E+04  0.17564679253E+04  0.50400000000E-02 0. -1.
    8880023    1    1    2    0    0 -0.12550004495E+03  0.71885391555E+03  0.30156388455E+03  0.10282276965E+04  0.65864270000E+03 0.  0.
    8880022    1    1    2    0    0  0.12550004495E+03 -0.71885391555E+03 -0.12933803496E+04  0.14928916890E+04  0.15294330000E+03 0.  0.
<mgrwt>
<rscale>  0 0.91736635E+03</rscale>
<asrwt>0</asrwt>
<pdfrwt beam="1">  1        1 0.27022583E+00 0.98301140E+03</pdfrwt>
<pdfrwt beam="2">  1       -1 0.11763869E+00 0.98301140E+03</pdfrwt>
<totfact> 0.28637955E+00</totfact>
</mgrwt>
</event>
<event>
 4    1  0.1043382E-007  0.8569208E+03  0.7818608E-02  0.9599064E-01
          1   -1    0    0  501    0  0.00000000000E+00  0.00000000000E+00  0.15799219515E+04  0.15799219515E+04  0.50400000000E-02 0. -1.
         -1   -1    0    0    0  501 -0.00000000000E+00 -0.00000000000E+00 -0.69378691802E+03  0.69378691804E+03  0.50400000000E-02 0.  1.
    8880023    1    1    2    0    0 -0.24109134839E+03 -0.49231901469E+03 -0.34001895559E+03  0.92191439240E+03  0.65864270000E+03 0.  1.
    8880022    1    1    2    0    0  0.24109134839E+03  0.49231901469E+03  0.12261539890E+04  0.13517944771E+04  0.15294330000E+03 0.  0.
<mgrwt>
<rscale>  0 0.77358136E+03</rscale>
<asrwt>0</asrwt>
<pdfrwt beam="1">  1        1 0.24306491E+00 0.85692080E+03</pdfrwt>
<pdfrwt beam="2">  1       -1 0.10673645E+00 0.85692080E+03</pdfrwt>
<totfact> 0.48414242E+00</totfact>
</mgrwt>
</event>
<event>
 4    1  0.1043382E-007  0.9976536E+03  0.7818608E-02  0.9384634E-01
          1   -1    0    0  501    0  0.00000000000E+00  0.00000000000E+00  0.19596979152E+04  0.19596979152E+04  0.50400000000E-02 0. -1.
         -1   -1    0    0    0  501 -0.00000000000E+00 -0.00000000000E+00 -0.11812771341E+04  0.11812771341E+04  0.50400000000E-02 0.  1.
    8880023    1    1    2    0    0  0.62045451979E+03  0.42016505454E+03 -0.87004587618E+03  0.13237418620E+04  0.65864270000E+03 0.  1.
    8880022    1    1    2    0    0 -0.62045451979E+03 -0.42016505454E+03  0.16484666572E+04  0.18172331873E+04  0.15294330000E+03 0.  0.
<mgrwt>
<rscale>  0 0.93351110E+03</rscale>
<asrwt>0</asrwt>
<pdfrwt beam="1">  1        1 0.30149199E+00 0.99765359E+03</pdfrwt>
<pdfrwt beam="2">  1       -1 0.18173494E+00 0.99765359E+03</pdfrwt>
<totfact> 0.64937455E-01</totfact>
</mgrwt>
</event>
<event>
 4    1  0.1043382E-007  0.6996526E+03  0.7818608E-02  0.9998645E-01
         -1   -1    0    0    0  501 -0.00000000000E+00  0.00000000000E+00  0.94125544192E+02  0.94125544327E+02  0.50400000000E-02 0.  1.
          1   -1    0    0  501    0  0.00000000000E+00 -0.00000000000E+00 -0.29261807372E+04  0.29261807372E+04  0.50400000000E-02 0. -1.
    8880023    1    1    2    0    0 -0.22355714717E+03 -0.75668764295E+02 -0.14505924762E+04  0.16105068452E+04  0.65864270000E+03 0.  1.
    8880022    1    1    2    0    0  0.22355714717E+03  0.75668764295E+02 -0.13814627168E+04  0.14097994364E+04  0.15294330000E+03 0. -1.
<mgrwt>
<rscale>  0 0.55709674E+03</rscale>
<asrwt>0</asrwt>
<pdfrwt beam="1">  1        1 0.45018158E+00 0.69965260E+03</pdfrwt>
<pdfrwt beam="2">  1       -1 0.14480855E-01 0.69965260E+03</pdfrwt>
<totfact> 0.25066301E+01</totfact>
</mgrwt>
</event>
<event>
 4    1  0.1043382E-007  0.6861155E+03  0.7818608E-02  0.1006056E+00
         -1   -1    0    0    0  501 -0.00000000000E+00  0.00000000000E+00  0.33392618336E+03  0.33392618340E+03  0.50400000000E-02 0.  1.
          1   -1    0    0  501    0  0.00000000000E+00 -0.00000000000E+00 -0.23441598381E+04  0.23441598381E+04  0.50400000000E-02 0. -1.
    8880023    1    1    2    0    0  0.19045934511E+03 -0.25874104259E+02 -0.34330856494E+02  0.68697383166E+03  0.65864270000E+03 0.  1.
    8880022    1    1    2    0    0 -0.19045934511E+03  0.25874104259E+02 -0.19759027982E+04  0.19911121898E+04  0.15294330000E+03 0.  0.
<mgrwt>
<rscale>  0 0.53072539E+03</rscale>
<asrwt>0</asrwt>
<pdfrwt beam="1">  1        1 0.36063996E+00 0.68611547E+03</pdfrwt>
<pdfrwt beam="2">  1       -1 0.51373260E-01 0.68611547E+03</pdfrwt>
<totfact> 0.70511637E+00</totfact>
</mgrwt>
</event>
<event>
 4    1  0.1043382E-007  0.1127015E+04  0.7818608E-02  0.9231558E-01
         -1   -1    0    0    0  501 -0.00000000000E+00  0.00000000000E+00  0.43660746499E+03  0.43660746501E+03  0.50400000000E-02 0.  1.
          1   -1    0    0  501    0  0.00000000000E+00 -0.00000000000E+00 -0.27462283999E+04  0.27462283999E+04  0.50400000000E-02 0. -1.
    8880023    1    1    2    0    0 -0.77166066234E+03 -0.49080797814E+03 -0.18029336269E+04  0.21262014294E+04  0.65864270000E+03 0. -1.
    8880022    1    1    2    0    0  0.77166066234E+03  0.49080797814E+03 -0.50668730805E+03  0.10566344355E+04  0.15294330000E+03 0.  0.
<mgrwt>
<rscale>  0 0.10733551E+04</rscale>
<asrwt>0</asrwt>
<pdfrwt beam="1">  1        1 0.42249667E+00 0.11270150E+04</pdfrwt>
<pdfrwt beam="2">  1       -1 0.67170381E-01 0.11270150E+04</pdfrwt>
<totfact> 0.20539213E+00</totfact>
</mgrwt>
</event>
<event>
 4    1  0.1043382E-007  0.8394393E+03  0.7818608E-02  0.9631238E-01
          1   -1    0    0  501    0  0.00000000000E+00  0.00000000000E+00  0.14262054231E+04  0.14262054231E+04  0.50400000000E-02 0. -1.
         -1   -1    0    0    0  501 -0.00000000000E+00 -0.00000000000E+00 -0.39946088127E+03  0.39946088130E+03  0.50400000000E-02 0.  1.
    8880023    1    1    2    0    0  0.44767606779E+03  0.26539444881E+03  0.24555767215E+03  0.87461811766E+03  0.65864270000E+03 0.  0.
    8880022    1    1    2    0    0 -0.44767606779E+03 -0.26539444881E+03  0.78118686963E+03  0.95104818670E+03  0.15294330000E+03 0.  0.
<mgrwt>
<rscale>  0 0.75262670E+03</rscale>
<asrwt>0</asrwt>
<pdfrwt beam="1">  1        1 0.21941622E+00 0.83943927E+03</pdfrwt>
<pdfrwt beam="2">  1       -1 0.61455521E-01 0.83943927E+03</pdfrwt>
<totfact> 0.20217803E+01</totfact>
</mgrwt>
</event>
<event>
 4    1  0.1043382E-007  0.6870004E+03  0.7818608E-02  0.1005612E+00
         -1   -1    0    0    0  501 -0.00000000000E+00  0.00000000000E+00  0.34149682260E+03  0.34149682264E+03  0.50400000000E-02 0.  1.
          1   -1    0    0  501    0  0.00000000000E+00 -0.00000000000E+00 -0.10020661182E+04  0.10020661182E+04  0.50400000000E-02 0. -1.
    8880023    1    1    2    0    0 -0.13817485774E+03  0.13808369265E+03 -0.55065454964E+02  0.68920374932E+03  0.65864270000E+03 0.  0.
    8880022    1    1    2    0    0  0.13817485774E+03 -0.13808369265E+03 -0.60550384063E+03  0.65435919151E+03  0.15294330000E+03 0.  0.
<mgrwt>
<rscale>  0 0.53256448E+03</rscale>
<asrwt>0</asrwt>
<pdfrwt beam="1">  1        1 0.15416402E+00 0.68700044E+03</pdfrwt>
<pdfrwt beam="2">  1       -1 0.52537973E-01 0.68700044E+03</pdfrwt>
<totfact> 0.56668965E+01</totfact>
</mgrwt>
</event>
<event>
 4    1  0.1043382E-007  0.1005758E+04  0.7818608E-02  0.9374063E-01
         -1   -1    0    0    0  501 -0.00000000000E+00  0.00000000000E+00  0.84524124529E+03  0.84524124531E+03  0.50400000000E-02 0.  1.
          1   -1    0    0  501    0  0.00000000000E+00 -0.00000000000E+00 -0.11130599533E+04  0.11130599533E+04  0.50400000000E-02 0. -1.
    8880023    1    1    2    0    0 -0.52808778725E+02 -0.75825474132E+03  0.23675323460E+03  0.10332479471E+04  0.65864270000E+03 0.  0.
    8880022    1    1    2    0    0  0.52808778725E+02  0.75825474132E+03 -0.50457194259E+03  0.92505325149E+03  0.15294330000E+03 0.  0.
<mgrwt>
<rscale>  0 0.94241295E+03</rscale>
<asrwt>0</asrwt>
<pdfrwt beam="1">  1        1 0.17123999E+00 0.10057580E+04</pdfrwt>
<pdfrwt beam="2">  1       -1 0.13003711E+00 0.10057580E+04</pdfrwt>
<totfact> 0.62955671E+00</totfact>
</mgrwt>
</event>
<event>
 4    1  0.1043382E-007  0.6736664E+03  0.7818608E-02  0.1013160E+00
          1   -1    0    0  501    0  0.00000000000E+00  0.00000000000E+00  0.18273857266E+04  0.18273857266E+04  0.50400000000E-02 0. -1.
         -1   -1    0    0    0  501 -0.00000000000E+00 -0.00000000000E+00 -0.23590138246E+03  0.23590138252E+03  0.50400000000E-02 0.  1.
    8880023    1    1    2    0    0 -0.12162595520E+03 -0.72272676455E+02  0.27045414944E+03  0.72592827879E+03  0.65864270000E+03 0.  1.
    8880022    1    1    2    0    0  0.12162595520E+03  0.72272676455E+02  0.13210301947E+04  0.13373588304E+04  0.15294330000E+03 0.  0.
<mgrwt>
<rscale>  0 0.50237697E+03</rscale>
<asrwt>0</asrwt>
<pdfrwt beam="1">  1        1 0.28113627E+00 0.67366640E+03</pdfrwt>
<pdfrwt beam="2">  1       -1 0.36292520E-01 0.67366640E+03</pdfrwt>
<totfact> 0.29689659E+01</totfact>
</mgrwt>
</event>
<event>
 4    1  0.1043382E-007  0.6984699E+03  0.7818608E-02  0.1000361E+00
          1   -1    0    0  501    0  0.00000000000E+00  0.00000000000E+00  0.77474429585E+03  0.77474429587E+03  0.50400000000E-02 0. -1.
         -1   -1    0    0    0  501 -0.00000000000E+00 -0.00000000000E+00 -0.76610054827E+03  0.76610054828E+03  0.50400000000E-02 0.  1.
    8880023    1    1    2    0    0 -0.12770727320E+03 -0.19427007875E+03 -0.56819256638E+03  0.90039047634E+03  0.65864270000E+03 0.  1.
    8880022    1    1    2    0    0  0.12770727320E+03  0.19427007875E+03  0.57683631397E+03  0.64045436781E+03  0.15294330000E+03 0.  0.
<mgrwt>
<rscale>  0 0.55492285E+03</rscale>
<asrwt>0</asrwt>
<pdfrwt beam="1">  1        1 0.11919143E+00 0.69846991E+03</pdfrwt>
<pdfrwt beam="2">  1       -1 0.11786162E+00 0.69846991E+03</pdfrwt>
<totfact> 0.15585769E+01</totfact>
</mgrwt>
</event>
<event>
 4    1  0.1043382E-007  0.6591192E+03  0.7818608E-02  0.1025078E+00
         -1   -1    0    0    0  501 -0.00000000000E+00  0.00000000000E+00  0.28326996926E+03  0.28326996930E+03  0.50400000000E-02 0.  1.
          1   -1    0    0  501    0  0.00000000000E+00 -0.00000000000E+00 -0.96308502470E+03  0.96308502471E+03  0.50400000000E-02 0. -1.
    8880023    1    1    2    0    0  0.10440926954E+02  0.22778586408E+02 -0.12573089219E+03  0.67100397947E+03  0.65864270000E+03 0.  1.
    8880022    1    1    2    0    0 -0.10440926954E+02 -0.22778586408E+02 -0.55408416325E+03  0.57535101454E+03  0.15294330000E+03 0.  0.
<mgrwt>
<rscale>  0 0.45897975E+03</rscale>
<asrwt>0</asrwt>
<pdfrwt beam="1">  1        1 0.14816693E+00 0.65911917E+03</pdfrwt>
<pdfrwt beam="2">  1       -1 0.43579996E-01 0.65911917E+03</pdfrwt>
<totfact> 0.86522483E+01</totfact>
</mgrwt>
</event>
<event>
 4    1  0.1043382E-007  0.6669786E+03  0.7818608E-02  0.1017928E+00
         -1   -1    0    0    0  501 -0.00000000000E+00  0.00000000000E+00  0.16032072853E+04  0.16032072853E+04  0.50400000000E-02 0.  1.
          1   -1    0    0  501    0  0.00000000000E+00 -0.00000000000E+00 -0.45113466336E+03  0.45113466338E+03  0.50400000000E-02 0. -1.
    8880023    1    1    2    0    0  0.99293375309E+02 -0.34511107973E+02  0.15102312613E+04  0.16509569527E+04  0.65864270000E+03 0.  1.
    8880022    1    1    2    0    0 -0.99293375309E+02  0.34511107973E+02 -0.35815863938E+03  0.40338499592E+03  0.15294330000E+03 0.  0.
<mgrwt>
<rscale>  0 0.48441737E+03</rscale>
<asrwt>0</asrwt>
<pdfrwt beam="1">  1        1 0.69405332E-01 0.66697856E+03</pdfrwt>
<pdfrwt beam="2">  1       -1 0.24664728E+00 0.66697856E+03</pdfrwt>
<totfact> 0.39473901E+00</totfact>
</mgrwt>
</event>
<event>
 4    1  0.1063998E-007  0.8584557E+03  0.7818608E-02  0.9596316E-01
          1   -1    0    0  501    0  0.00000000000E+00  0.00000000000E+00  0.10679638302E+04  0.10679638302E+04  0.50400000000E-02 0. -1.
         -1   -1    0    0    0  501 -0.00000000000E+00 -0.00000000000E+00 -0.19398128474E+04  0.19398128474E+04  0.50400000000E-02 0.  1.
    8880023    1    1    2    0    0 -0.54717489427E+03 -0.61120196267E+02 -0.17562510709E+04  0.19548309578E+04  0.65864270000E+03 0.  0.
    8880022    1    1    2    0    0  0.54717489427E+03  0.61120196267E+02  0.88440205372E+03  0.10529457199E+04  0.15294330000E+03 0.  0.
<mgrwt>
<rscale>  0 0.77540471E+03</rscale>
<asrwt>0</asrwt>
<pdfrwt beam="1">  1        1 0.16430213E+00 0.85845574E+03</pdfrwt>
<pdfrwt beam="2">  1       -1 0.29843275E+00 0.85845574E+03</pdfrwt>
<totfact> 0.47124120E-01</totfact>
</mgrwt>
</event>
<event>
 4    1  0.1043382E-007  0.8723812E+03  0.7818608E-02  0.9571908E-01
          1   -1    0    0  501    0  0.00000000000E+00  0.00000000000E+00  0.43944424274E+04  0.43944424274E+04  0.50400000000E-02 0. -1.
         -1   -1    0    0    0  501 -0.00000000000E+00 -0.00000000000E+00 -0.25046121590E+03  0.25046121595E+03  0.50400000000E-02 0.  1.
    8880023    1    1    2    0    0 -0.56649874243E+03  0.79485335993E+02  0.61690314795E+03  0.10684654623E+04  0.65864270000E+03 0.  1.
    8880022    1    1    2    0    0  0.56649874243E+03 -0.79485335993E+02  0.35270780636E+04  0.35764381811E+04  0.15294330000E+03 0.  0.
<mgrwt>
<rscale>  0 0.79183723E+03</rscale>
<asrwt>0</asrwt>
<pdfrwt beam="1">  1        1 0.67606804E+00 0.87238120E+03</pdfrwt>
<pdfrwt beam="2">  1       -1 0.38532496E-01 0.87238120E+03</pdfrwt>
<totfact> 0.29422568E-01</totfact>
</mgrwt>
</event>
<event>
 4    1  0.1043382E-007  0.8014277E+03  0.7818608E-02  0.9707718E-01
         -1   -1    0    0    0  501 -0.00000000000E+00  0.00000000000E+00  0.48509585463E+03  0.48509585466E+03  0.50400000000E-02 0.  1.
          1   -1    0    0  501    0  0.00000000000E+00 -0.00000000000E+00 -0.15739987298E+04  0.15739987298E+04  0.50400000000E-02 0. -1.
    8880023    1    1    2    0    0 -0.14559538225E+03  0.43275637639E+03  0.69659559121E+02  0.80444935022E+03  0.65864270000E+03 0.  1.
    8880022    1    1    2    0    0  0.14559538225E+03 -0.43275637639E+03 -0.11585624342E+04  0.12546452342E+04  0.15294330000E+03 0.  0.
<mgrwt>
<rscale>  0 0.70559142E+03</rscale>
<asrwt>0</asrwt>
<pdfrwt beam="1">  1        1 0.24215365E+00 0.80142767E+03</pdfrwt>
<pdfrwt beam="2">  1       -1 0.74630132E-01 0.80142767E+03</pdfrwt>
<totfact> 0.10834501E+01</totfact>
</mgrwt>
</event>
<event>
 4    1  0.1043382E-007  0.8571482E+03  0.7818608E-02  0.9598656E-01
          1   -1    0    0  501    0  0.00000000000E+00  0.00000000000E+00  0.74631428502E+03  0.74631428504E+03  0.50400000000E-02 0. -1.
         -1   -1    0    0    0  501 -0.00000000000E+00 -0.00000000000E+00 -0.94597382449E+03  0.94597382451E+03  0.50400000000E-02 0.  1.
    8880023    1    1    2    0    0 -0.52704898702E+03 -0.15202708212E+03 -0.55492198559E+03  0.10210981759E+04  0.65864270000E+03 0.  1.
    8880022    1    1    2    0    0  0.52704898702E+03  0.15202708212E+03  0.35526244612E+03  0.67118993367E+03  0.15294330000E+03 0.  0.
<mgrwt>
<rscale>  0 0.77385167E+03</rscale>
<asrwt>0</asrwt>
<pdfrwt beam="1">  1        1 0.11481758E+00 0.85714822E+03</pdfrwt>
<pdfrwt beam="2">  1       -1 0.14553443E+00 0.85714822E+03</pdfrwt>
<totfact> 0.95028624E+00</totfact>
</mgrwt>
</event>
<event>
 4    1  0.1043382E-007  0.7337552E+03  0.7818608E-02  0.9878526E-01
          1   -1    0    0  501    0  0.00000000000E+00  0.00000000000E+00  0.10700357261E+04  0.10700357261E+04  0.50400000000E-02 0. -1.
         -1   -1    0    0    0  501 -0.00000000000E+00 -0.00000000000E+00 -0.85641595305E+03  0.85641595306E+03  0.50400000000E-02 0.  1.
    8880023    1    1    2    0    0 -0.24943313170E+03  0.20583860914E+03 -0.65718210056E+03  0.98503042580E+03  0.65864270000E+03 0.  1.
    8880022    1    1    2    0    0  0.24943313170E+03 -0.20583860914E+03  0.87080187357E+03  0.94142125334E+03  0.15294330000E+03 0.  0.
<mgrwt>
<rscale>  0 0.61313389E+03</rscale>
<asrwt>0</asrwt>
<pdfrwt beam="1">  1        1 0.16462088E+00 0.73375515E+03</pdfrwt>
<pdfrwt beam="2">  1       -1 0.13175630E+00 0.73375515E+03</pdfrwt>
<totfact> 0.67962004E+00</totfact>
</mgrwt>
</event>
<event>
 4    1  0.1043382E-007  0.6986860E+03  0.7818608E-02  0.1000270E+00
          1   -1    0    0  501    0  0.00000000000E+00  0.00000000000E+00  0.42161182073E+03  0.42161182076E+03  0.50400000000E-02 0. -1.
         -1   -1    0    0    0  501 -0.00000000000E+00 -0.00000000000E+00 -0.57464094883E+03  0.57464094885E+03  0.50400000000E-02 0.  1.
    8880023    1    1    2    0    0 -0.32397956986E+02  0.23087293873E+03 -0.55597931090E+02  0.70089462664E+03  0.65864270000E+03 0. -1.
    8880022    1    1    2    0    0  0.32397956986E+02 -0.23087293873E+03 -0.97431197004E+02  0.29535814297E+03  0.15294330000E+03 0. -1.
<mgrwt>
<rscale>  0 0.55532166E+03</rscale>
<asrwt>0</asrwt>
<pdfrwt beam="1">  1        1 0.64863357E-01 0.69868602E+03</pdfrwt>
<pdfrwt beam="2">  1       -1 0.88406300E-01 0.69868602E+03</pdfrwt>
<totfact> 0.71876647E+01</totfact>
</mgrwt>
</event>
<event>
 4    1  0.1043382E-007  0.8060353E+03  0.7818608E-02  0.9697895E-01
         -1   -1    0    0    0  501 -0.00000000000E+00  0.00000000000E+00  0.11346729206E+04  0.11346729207E+04  0.50400000000E-02 0.  1.
          1   -1    0    0  501    0  0.00000000000E+00 -0.00000000000E+00 -0.48385403327E+03  0.48385403329E+03  0.50400000000E-02 0. -1.
    8880023    1    1    2    0    0  0.37497763006E+03  0.27436188478E+03  0.20785349084E+01  0.80603796030E+03  0.65864270000E+03 0.  0.
    8880022    1    1    2    0    0 -0.37497763006E+03 -0.27436188478E+03  0.64874035246E+03  0.81248899365E+03  0.15294330000E+03 0.  0.
<mgrwt>
<rscale>  0 0.71142242E+03</rscale>
<asrwt>0</asrwt>
<pdfrwt beam="1">  1        1 0.74439084E-01 0.80603528E+03</pdfrwt>
<pdfrwt beam="2">  1       -1 0.17456506E+00 0.80603528E+03</pdfrwt>
<totfact> 0.10812842E+01</totfact>
</mgrwt>
</event>
<event>
 4    1  0.1043382E-007  0.7100515E+03  0.7818608E-02  0.9957810E-01
         -1   -1    0    0    0  501 -0.00000000000E+00  0.00000000000E+00  0.79945185068E+03  0.79945185070E+03  0.50400000000E-02 0.  1.
          1   -1    0    0  501    0  0.00000000000E+00 -0.00000000000E+00 -0.37326272312E+03  0.37326272315E+03  0.50400000000E-02 0. -1.
    8880023    1    1    2    0    0 -0.21930320638E+03  0.14922792785E+03  0.48637899393E+03  0.86066114283E+03  0.65864270000E+03 0.  1.
    8880022    1    1    2    0    0  0.21930320638E+03 -0.14922792785E+03 -0.60189866364E+02  0.31205343102E+03  0.15294330000E+03 0.  0.
<mgrwt>
<rscale>  0 0.57539542E+03</rscale>
<asrwt>0</asrwt>
<pdfrwt beam="1">  1        1 0.57425035E-01 0.71005146E+03</pdfrwt>
<pdfrwt beam="2">  1       -1 0.12299259E+00 0.71005146E+03</pdfrwt>
<totfact> 0.39298233E+01</totfact>
</mgrwt>
</event>
<event>
 4    1  0.1043382E-007  0.7210996E+03  0.7818608E-02  0.9918883E-01
          1   -1    0    0  501    0  0.00000000000E+00  0.00000000000E+00  0.10143121939E+04  0.10143121939E+04  0.50400000000E-02 0. -1.
         -1   -1    0    0    0  501 -0.00000000000E+00 -0.00000000000E+00 -0.35533589539E+03  0.35533589542E+03  0.50400000000E-02 0.  1.
    8880023    1    1    2    0    0  0.15540546605E+03 -0.24904539019E+03  0.11119246852E+03  0.72962211903E+03  0.65864270000E+03 0.  1.
    8880022    1    1    2    0    0 -0.15540546605E+03  0.24904539019E+03  0.54778382999E+03  0.64002597031E+03  0.15294330000E+03 0.  0.
<mgrwt>
<rscale>  0 0.59354819E+03</rscale>
<asrwt>0</asrwt>
<pdfrwt beam="1">  1        1 0.15604803E+00 0.72109963E+03</pdfrwt>
<pdfrwt beam="2">  1       -1 0.54667061E-01 0.72109963E+03</pdfrwt>
<totfact> 0.51199926E+01</totfact>
</mgrwt>
</event>
<event>
 4    1  0.1043382E-007  0.7357991E+03  0.7818608E-02  0.9872357E-01
         -1   -1    0    0    0  501 -0.00000000000E+00  0.00000000000E+00  0.77574634317E+03  0.77574634319E+03  0.50400000000E-02 0.  1.
          1   -1    0    0  501    0  0.00000000000E+00 -0.00000000000E+00 -0.10126064558E+04  0.10126064558E+04  0.50400000000E-02 0. -1.
    8880023    1    1    2    0    0  0.26605714879E+03 -0.19184273537E+03  0.55239449265E+03  0.92007604214E+03  0.65864270000E+03 0.  1.
    8880022    1    1    2    0    0 -0.26605714879E+03  0.19184273537E+03 -0.78925460532E+03  0.86827675690E+03  0.15294330000E+03 0.  0.
<mgrwt>
<rscale>  0 0.61619865E+03</rscale>
<asrwt>0</asrwt>
<pdfrwt beam="1">  1        1 0.15578561E+00 0.73579905E+03</pdfrwt>
<pdfrwt beam="2">  1       -1 0.11934559E+00 0.73579905E+03</pdfrwt>
<totfact> 0.96055261E+00</totfact>
</mgrwt>
</event>
<event>
 4    1  0.1043382E-007  0.7214057E+03  0.7818608E-02  0.9917858E-01
          1   -1    0    0  501    0  0.00000000000E+00  0.00000000000E+00  0.23046022221E+04  0.23046022221E+04  0.50400000000E-02 0. -1.
         -1   -1    0    0    0  501 -0.00000000000E+00 -0.00000000000E+00 -0.26936445967E+03  0.26936445972E+03  0.50400000000E-02 0.  1.
    8880023    1    1    2    0    0  0.28592291080E+03  0.69742346282E+02  0.25816717407E+03  0.76620911102E+03  0.65864270000E+03 0.  0.
    8880022    1    1    2    0    0 -0.28592291080E+03 -0.69742346282E+02  0.17770705884E+04  0.18077575708E+04  0.15294330000E+03 0.  0.
<mgrwt>
<rscale>  0 0.59403560E+03</rscale>
<asrwt>0</asrwt>
<pdfrwt beam="1">  1        1 0.35455418E+00 0.72140565E+03</pdfrwt>
<pdfrwt beam="2">  1       -1 0.41440687E-01 0.72140565E+03</pdfrwt>
<totfact> 0.11120466E+01</totfact>
</mgrwt>
</event>
<event>
 4    1  0.1043382E-007  0.7132805E+03  0.7818608E-02  0.9946015E-01
          1   -1    0    0  501    0  0.00000000000E+00  0.00000000000E+00  0.16695141790E+04  0.16695141790E+04  0.50400000000E-02 0. -1.
         -1   -1    0    0    0  501 -0.00000000000E+00 -0.00000000000E+00 -0.50321618213E+03  0.50321618216E+03  0.50400000000E-02 0.  1.
    8880023    1    1    2    0    0 -0.85604170370E+02  0.26005926064E+03 -0.22390162914E+03  0.74759684244E+03  0.65864270000E+03 0.  1.
    8880022    1    1    2    0    0  0.85604170370E+02 -0.26005926064E+03  0.13901996260E+04  0.14251335187E+04  0.15294330000E+03 0.  0.
<mgrwt>
<rscale>  0 0.58082108E+03</rscale>
<asrwt>0</asrwt>
<pdfrwt beam="1">  1        1 0.25684833E+00 0.71328052E+03</pdfrwt>
<pdfrwt beam="2">  1       -1 0.77417875E-01 0.71328052E+03</pdfrwt>
<totfact> 0.87615050E+00</totfact>
</mgrwt>
</event>
<event>
 4    1  0.1043382E-007  0.7607501E+03  0.7818608E-02  0.9803169E-01
          1   -1    0    0  501    0  0.00000000000E+00  0.00000000000E+00  0.32935099770E+04  0.32935099770E+04  0.50400000000E-02 0. -1.
         -1   -1    0    0    0  501 -0.00000000000E+00 -0.00000000000E+00 -0.23371188650E+03  0.23371188655E+03  0.50400000000E-02 0.  1.
    8880023    1    1    2    0    0  0.23205302287E+03 -0.30179780021E+03  0.44688745453E+03  0.88229763737E+03  0.65864270000E+03 0.  1.
    8880022    1    1    2    0    0 -0.23205302287E+03  0.30179780021E+03  0.26129106360E+04  0.26449242262E+04  0.15294330000E+03 0.  0.
<mgrwt>
<rscale>  0 0.65192732E+03</rscale>
<asrwt>0</asrwt>
<pdfrwt beam="1">  1        1 0.50669384E+00 0.76075011E+03</pdfrwt>
<pdfrwt beam="2">  1       -1 0.35955675E-01 0.76075011E+03</pdfrwt>
<totfact> 0.28731716E+00</totfact>
</mgrwt>
</event>
<event>
 4    1  0.1043382E-007  0.9906642E+03  0.7818608E-02  0.9393875E-01
         -1   -1    0    0    0  501 -0.00000000000E+00  0.00000000000E+00  0.82052992791E+03  0.82052992793E+03  0.50400000000E-02 0.  1.
          1   -1    0    0  501    0  0.00000000000E+00 -0.00000000000E+00 -0.24579216960E+04  0.24579216960E+04  0.50400000000E-02 0. -1.
    8880023    1    1    2    0    0  0.63223781937E+03  0.38455252355E+03  0.42800282966E+03  0.10791672401E+04  0.65864270000E+03 0.  1.
    8880022    1    1    2    0    0 -0.63223781937E+03 -0.38455252355E+03 -0.20653945977E+04  0.21992843838E+04  0.15294330000E+03 0.  0.
<mgrwt>
<rscale>  0 0.92581469E+03</rscale>
<asrwt>0</asrwt>
<pdfrwt beam="1">  1        1 0.37814180E+00 0.99066418E+03</pdfrwt>
<pdfrwt beam="2">  1       -1 0.12623537E+00 0.99066418E+03</pdfrwt>
<totfact> 0.80642996E-01</totfact>
</mgrwt>
</event>
<event>
 4    1  0.1043382E-007  0.8987793E+03  0.7818608E-02  0.9527994E-01
          1   -1    0    0  501    0  0.00000000000E+00  0.00000000000E+00  0.96283681294E+03  0.96283681295E+03  0.50400000000E-02 0. -1.
         -1   -1    0    0    0  501 -0.00000000000E+00 -0.00000000000E+00 -0.11271679974E+04  0.11271679974E+04  0.50400000000E-02 0.  1.
    8880023    1    1    2    0    0 -0.47723267298E+03 -0.38241734303E+03 -0.79381388336E+03  0.11991433343E+04  0.65864270000E+03 0.  0.
    8880022    1    1    2    0    0  0.47723267298E+03  0.38241734303E+03  0.62948269890E+03  0.89086147612E+03  0.15294330000E+03 0.  0.
<mgrwt>
<rscale>  0 0.82251027E+03</rscale>
<asrwt>0</asrwt>
<pdfrwt beam="1">  1        1 0.14812874E+00 0.89877931E+03</pdfrwt>
<pdfrwt beam="2">  1       -1 0.17341046E+00 0.89877931E+03</pdfrwt>
<totfact> 0.38202897E+00</totfact>
</mgrwt>
</event>
<event>
 4    1  0.1043382E-007  0.8594459E+03  0.7818608E-02  0.9594550E-01
         -1   -1    0    0    0  501 -0.00000000000E+00  0.00000000000E+00  0.47704292969E+03  0.47704292972E+03  0.50400000000E-02 0.  1.
          1   -1    0    0  501    0  0.00000000000E+00 -0.00000000000E+00 -0.15106740704E+04  0.15106740704E+04  0.50400000000E-02 0. -1.
    8880023    1    1    2    0    0 -0.26297559672E+03 -0.48546971724E+03 -0.11163547639E+04  0.14088630792E+04  0.65864270000E+03 0.  0.
    8880022    1    1    2    0    0  0.26297559672E+03  0.48546971724E+03  0.82723623259E+02  0.57885392086E+03  0.15294330000E+03 0.  0.
<mgrwt>
<rscale>  0 0.77657957E+03</rscale>
<asrwt>0</asrwt>
<pdfrwt beam="1">  1        1 0.23241139E+00 0.85944588E+03</pdfrwt>
<pdfrwt beam="2">  1       -1 0.73391221E-01 0.85944588E+03</pdfrwt>
<totfact> 0.12299606E+01</totfact>
</mgrwt>
</event>
<event>
 4    1  0.1043382E-007  0.1049903E+04  0.7818608E-02  0.9318998E-01
          1   -1    0    0  501    0  0.00000000000E+00  0.00000000000E+00  0.16725218608E+04  0.16725218608E+04  0.50400000000E-02 0. -1.
         -1   -1    0    0    0  501 -0.00000000000E+00 -0.00000000000E+00 -0.10685959076E+04  0.10685959077E+04  0.50400000000E-02 0.  1.
    8880023    1    1    2    0    0  0.23239295013E+03 -0.78388802414E+03 -0.65114851801E+03  0.12354317126E+04  0.65864270000E+03 0.  0.
    8880022    1    1    2    0    0 -0.23239295013E+03  0.78388802414E+03  0.12550744711E+04  0.15056860559E+04  0.15294330000E+03 0.  0.
<mgrwt>
<rscale>  0 0.99052568E+03</rscale>
<asrwt>0</asrwt>
<pdfrwt beam="1">  1        1 0.25731105E+00 0.10499034E+04</pdfrwt>
<pdfrwt beam="2">  1       -1 0.16439937E+00 0.10499034E+04</pdfrwt>
<totfact> 0.13477482E+00</totfact>
</mgrwt>
</event>
<event>
 4    1  0.1043382E-007  0.1149268E+04  0.7818608E-02  0.9208088E-01
         -1   -1    0    0    0  501 -0.00000000000E+00  0.00000000000E+00  0.11290137456E+04  0.11290137456E+04  0.50400000000E-02 0.  1.
          1   -1    0    0  501    0  0.00000000000E+00 -0.00000000000E+00 -0.11047542916E+04  0.11047542916E+04  0.50400000000E-02 0. -1.
    8880023    1    1    2    0    0  0.30229000538E+03 -0.89197976058E+03  0.38746931247E+03  0.12128271992E+04  0.65864270000E+03 0.  0.
    8880022    1    1    2    0    0 -0.30229000538E+03  0.89197976058E+03 -0.36320985846E+03  0.10209408381E+04  0.15294330000E+03 0.  0.
<mgrwt>
<rscale>  0 0.10970338E+04</rscale>
<asrwt>0</asrwt>
<pdfrwt beam="1">  1        1 0.16996220E+00 0.11492682E+04</pdfrwt>
<pdfrwt beam="2">  1       -1 0.17369442E+00 0.11492682E+04</pdfrwt>
<totfact> 0.28670165E+00</totfact>
</mgrwt>
</event>
<event>
 4    1  0.1043382E-007  0.7797161E+03  0.7818608E-02  0.9756504E-01
          1   -1    0    0  501    0  0.00000000000E+00  0.00000000000E+00  0.18247039801E+04  0.18247039801E+04  0.50400000000E-02 0. -1.
         -1   -1    0    0    0  501 -0.00000000000E+00 -0.00000000000E+00 -0.43128175409E+03  0.43128175412E+03  0.50400000000E-02 0.  1.
    8880023    1    1    2    0    0  0.29385571542E+03 -0.29630360673E+03 -0.14217873370E+02  0.77984573028E+03  0.65864270000E+03 0.  0.
    8880022    1    1    2    0    0 -0.29385571542E+03  0.29630360673E+03  0.14076400993E+04  0.14761400039E+04  0.15294330000E+03 0.  0.
<mgrwt>
<rscale>  0 0.67749937E+03</rscale>
<asrwt>0</asrwt>
<pdfrwt beam="1">  1        1 0.28072369E+00 0.77971611E+03</pdfrwt>
<pdfrwt beam="2">  1       -1 0.66351040E-01 0.77971611E+03</pdfrwt>
<totfact> 0.93720333E+00</totfact>
</mgrwt>
</event>
<event>
 4    1  0.1043382E-007  0.6880616E+03  0.7818608E-02  0.1005088E+00
          1   -1    0    0  501    0  0.00000000000E+00  0.00000000000E+00  0.19934128041E+04  0.19934128041E+04  0.50400000000E-02 0. -1.
         -1   -1    0    0    0  501 -0.00000000000E+00 -0.00000000000E+00 -0.14779870658E+03  0.14779870667E+03  0.50400000000E-02 0.  1.
    8880023    1    1    2    0    0 -0.86949585459E+02 -0.17904847582E+03  0.75251367933E+03  0.10196595662E+04  0.65864270000E+03 0.  0.
    8880022    1    1    2    0    0  0.86949585459E+02  0.17904847582E+03  0.10931004182E+04  0.11215519446E+04  0.15294330000E+03 0.  0.
<mgrwt>
<rscale>  0 0.53474520E+03</rscale>
<asrwt>0</asrwt>
<pdfrwt beam="1">  1        1 0.30667888E+00 0.68806162E+03</pdfrwt>
<pdfrwt beam="2">  1       -1 0.22738264E-01 0.68806162E+03</pdfrwt>
<totfact> 0.51621561E+01</totfact>
</mgrwt>
</event>
<event>
 4    1  0.1043382E-007  0.7015034E+03  0.7818608E-02  0.9991021E-01
          1   -1    0    0  501    0  0.00000000000E+00  0.00000000000E+00  0.78974330238E+03  0.78974330240E+03  0.50400000000E-02 0. -1.
         -1   -1    0    0    0  501 -0.00000000000E+00 -0.00000000000E+00 -0.53492098380E+03  0.53492098383E+03  0.50400000000E-02 0.  1.
    8880023    1    1    2    0    0 -0.57094551360E+02  0.23459961762E+03 -0.24985850954E+03  0.74467190724E+03  0.65864270000E+03 0.  1.
    8880022    1    1    2    0    0  0.57094551360E+02 -0.23459961762E+03  0.50468082812E+03  0.57999237898E+03  0.15294330000E+03 0.  0.
<mgrwt>
<rscale>  0 0.56045711E+03</rscale>
<asrwt>0</asrwt>
<pdfrwt beam="1">  1        1 0.12149897E+00 0.70150337E+03</pdfrwt>
<pdfrwt beam="2">  1       -1 0.82295536E-01 0.70150337E+03</pdfrwt>
<totfact> 0.34137158E+01</totfact>
</mgrwt>
</event>
<event>
 4    1  0.1043382E-007  0.8710009E+03  0.7818608E-02  0.9574287E-01
         -1   -1    0    0    0  501 -0.00000000000E+00  0.00000000000E+00  0.51730300447E+03  0.51730300449E+03  0.50400000000E-02 0.  1.
          1   -1    0    0  501    0  0.00000000000E+00 -0.00000000000E+00 -0.22116433190E+04  0.22116433190E+04  0.50400000000E-02 0. -1.
    8880023    1    1    2    0    0 -0.45482994998E+01  0.56992258833E+03  0.64858884720E+02  0.87341245978E+03  0.65864270000E+03 0.  1.
    8880022    1    1    2    0    0  0.45482994998E+01 -0.56992258833E+03 -0.17591991993E+04  0.18555338637E+04  0.15294330000E+03 0.  0.
<mgrwt>
<rscale>  0 0.79021692E+03</rscale>
<asrwt>0</asrwt>
<pdfrwt beam="1">  1        1 0.34025281E+00 0.87100095E+03</pdfrwt>
<pdfrwt beam="2">  1       -1 0.79585079E-01 0.87100095E+03</pdfrwt>
<totfact> 0.34875238E+00</totfact>
</mgrwt>
</event>
<event>
 4    1  0.1043382E-007  0.8340797E+03  0.7818608E-02  0.9641446E-01
          1   -1    0    0  501    0  0.00000000000E+00  0.00000000000E+00  0.15000629875E+04  0.15000629875E+04  0.50400000000E-02 0. -1.
         -1   -1    0    0    0  501 -0.00000000000E+00 -0.00000000000E+00 -0.33206775992E+03  0.33206775996E+03  0.50400000000E-02 0.  1.
    8880023    1    1    2    0    0  0.37271244297E+03  0.35066257729E+03  0.48410708267E+03  0.96439031621E+03  0.65864270000E+03 0.  0.
    8880022    1    1    2    0    0 -0.37271244297E+03 -0.35066257729E+03  0.68388814489E+03  0.86774043123E+03  0.15294330000E+03 0.  0.
<mgrwt>
<rscale>  0 0.74612704E+03</rscale>
<asrwt>0</asrwt>
<pdfrwt beam="1">  1        1 0.23077892E+00 0.83407974E+03</pdfrwt>
<pdfrwt beam="2">  1       -1 0.51087348E-01 0.83407974E+03</pdfrwt>
<totfact> 0.25767905E+01</totfact>
</mgrwt>
</event>
<event>
 4    1  0.1043382E-007  0.7870507E+03  0.7818608E-02  0.9739528E-01
         -1   -1    0    0    0  501 -0.00000000000E+00  0.00000000000E+00  0.20909981969E+03  0.20909981975E+03  0.50400000000E-02 0.  1.
          1   -1    0    0  501    0  0.00000000000E+00 -0.00000000000E+00 -0.19317170140E+04  0.19317170140E+04  0.50400000000E-02 0. -1.
    8880023    1    1    2    0    0  0.40024432251E+03  0.15950874914E+03 -0.86875748168E+03  0.11722577903E+04  0.65864270000E+03 0.  0.
    8880022    1    1    2    0    0 -0.40024432251E+03 -0.15950874914E+03 -0.85385971265E+03  0.96855904345E+03  0.15294330000E+03 0.  0.
<mgrwt>
<rscale>  0 0.68711298E+03</rscale>
<asrwt>0</asrwt>
<pdfrwt beam="1">  1        1 0.29718722E+00 0.78705067E+03</pdfrwt>
<pdfrwt beam="2">  1       -1 0.32169204E-01 0.78705067E+03</pdfrwt>
<totfact> 0.30853718E+01</totfact>
</mgrwt>
</event>
<event>
 4    1  0.1043382E-007  0.8111568E+03  0.7818608E-02  0.9687172E-01
         -1   -1    0    0    0  501 -0.00000000000E+00  0.00000000000E+00  0.35230688478E+03  0.35230688482E+03  0.50400000000E-02 0.  1.
          1   -1    0    0  501    0  0.00000000000E+00 -0.00000000000E+00 -0.18938330839E+04  0.18938330839E+04  0.50400000000E-02 0. -1.
    8880023    1    1    2    0    0 -0.46786610062E+03 -0.72569833658E+02 -0.22958705737E+03  0.84302164387E+03  0.65864270000E+03 0.  1.
    8880022    1    1    2    0    0  0.46786610062E+03  0.72569833658E+02 -0.13119391417E+04  0.14031183248E+04  0.15294330000E+03 0.  0.
<mgrwt>
<rscale>  0 0.71785699E+03</rscale>
<asrwt>0</asrwt>
<pdfrwt beam="1">  1        1 0.29135893E+00 0.81115675E+03</pdfrwt>
<pdfrwt beam="2">  1       -1 0.54201060E-01 0.81115675E+03</pdfrwt>
<totfact> 0.12498932E+01</totfact>
</mgrwt>
</event>
<event>
 4    1  0.1043382E-007  0.8628670E+03  0.7818608E-02  0.9588484E-01
         -1   -1    0    0    0  501 -0.00000000000E+00  0.00000000000E+00  0.11506491992E+04  0.11506491992E+04  0.50400000000E-02 0.  1.
          1   -1    0    0  501    0  0.00000000000E+00 -0.00000000000E+00 -0.10778619311E+04  0.10778619311E+04  0.50400000000E-02 0. -1.
    8880023    1    1    2    0    0 -0.46366709565E+03 -0.30942228315E+03  0.88211244865E+03  0.12339618727E+04  0.65864270000E+03 0.  1.
    8880022    1    1    2    0    0  0.46366709565E+03  0.30942228315E+03 -0.80932518052E+03  0.99454925757E+03  0.15294330000E+03 0.  0.
<mgrwt>
<rscale>  0 0.78063115E+03</rscale>
<asrwt>0</asrwt>
<pdfrwt beam="1">  1        1 0.16582491E+00 0.86286704E+03</pdfrwt>
<pdfrwt beam="2">  1       -1 0.17702295E+00 0.86286704E+03</pdfrwt>
<totfact> 0.29457673E+00</totfact>
</mgrwt>
</event>
<event>
 4    1  0.1043382E-007  0.7734608E+03  0.7818608E-02  0.9771428E-01
          1   -1    0    0  501    0  0.00000000000E+00  0.00000000000E+00  0.37942788873E+03  0.37942788876E+03  0.50400000000E-02 0. -1.
         -1   -1    0    0    0  501 -0.00000000000E+00 -0.00000000000E+00 -0.14292287701E+04  0.14292287701E+04  0.50400000000E-02 0.  1.
    8880023    1    1    2    0    0  0.50958006836E+02 -0.40228679008E+03 -0.11285627474E+04  0.13681723068E+04  0.65864270000E+03 0.  1.
    8880022    1    1    2    0    0 -0.50958006836E+02  0.40228679008E+03  0.78761865983E+02  0.44048435214E+03  0.15294330000E+03 0.  0.
<mgrwt>
<rscale>  0 0.66918675E+03</rscale>
<asrwt>0</asrwt>
<pdfrwt beam="1">  1        1 0.58373522E-01 0.77346079E+03</pdfrwt>
<pdfrwt beam="2">  1       -1 0.21988135E+00 0.77346079E+03</pdfrwt>
<totfact> 0.73198693E+00</totfact>
</mgrwt>
</event>
<event>
 4    1  0.1043382E-007  0.7557244E+03  0.7818608E-02  0.9816305E-01
          1   -1    0    0  501    0  0.00000000000E+00  0.00000000000E+00  0.50042364697E+03  0.50042364700E+03  0.50400000000E-02 0. -1.
         -1   -1    0    0    0  501 -0.00000000000E+00 -0.00000000000E+00 -0.75801277639E+03  0.75801277641E+03  0.50400000000E-02 0.  1.
    8880023    1    1    2    0    0  0.31110800092E+03 -0.20129837288E+03 -0.37092775685E+03  0.84184727251E+03  0.65864270000E+03 0.  0.
    8880022    1    1    2    0    0 -0.31110800092E+03  0.20129837288E+03  0.11333862743E+03  0.41658915090E+03  0.15294330000E+03 0.  0.
<mgrwt>
<rscale>  0 0.64494827E+03</rscale>
<asrwt>0</asrwt>
<pdfrwt beam="1">  1        1 0.76988254E-01 0.75572444E+03</pdfrwt>
<pdfrwt beam="2">  1       -1 0.11661735E+00 0.75572444E+03</pdfrwt>
<totfact> 0.30066370E+01</totfact>
</mgrwt>
</event>
<event>
 4    1  0.1043382E-007  0.6613792E+03  0.7818608E-02  0.1022786E+00
         -1   -1    0    0    0  501 -0.00000000000E+00  0.00000000000E+00  0.28646064936E+03  0.28646064940E+03  0.50400000000E-02 0.  1.
          1   -1    0    0  501    0  0.00000000000E+00 -0.00000000000E+00 -0.71655220816E+03  0.71655220818E+03  0.50400000000E-02 0. -1.
    8880023    1    1    2    0    0 -0.11181358628E+02 -0.59052293802E+02 -0.14984643789E+03  0.67814184165E+03  0.65864270000E+03 0.  1.
    8880022    1    1    2    0    0  0.11181358628E+02  0.59052293802E+02 -0.28024512091E+03  0.32487101593E+03  0.15294330000E+03 0.  0.
<mgrwt>
<rscale>  0 0.46694539E+03</rscale>
<asrwt>0</asrwt>
<pdfrwt beam="1">  1        1 0.11023880E+00 0.66137917E+03</pdfrwt>
<pdfrwt beam="2">  1       -1 0.44070869E-01 0.66137917E+03</pdfrwt>
<totfact> 0.13685728E+02</totfact>
</mgrwt>
</event>
<event>
 4    1  0.1043382E-007  0.6807827E+03  0.7818608E-02  0.1008884E+00
         -1   -1    0    0    0  501 -0.00000000000E+00  0.00000000000E+00  0.49997890625E+03  0.49997890627E+03  0.50400000000E-02 0.  1.
          1   -1    0    0  501    0  0.00000000000E+00 -0.00000000000E+00 -0.17420095538E+04  0.17420095538E+04  0.50400000000E-02 0. -1.
    8880023    1    1    2    0    0 -0.17218724181E+03  0.25357222723E+01  0.25527696990E+03  0.72707043246E+03  0.65864270000E+03 0.  1.
    8880022    1    1    2    0    0  0.17218724181E+03 -0.25357222723E+01 -0.14973076174E+04  0.15149180276E+04  0.15294330000E+03 0.  0.
<mgrwt>
<rscale>  0 0.51920457E+03</rscale>
<asrwt>0</asrwt>
<pdfrwt beam="1">  1        1 0.26800147E+00 0.68078270E+03</pdfrwt>
<pdfrwt beam="2">  1       -1 0.76919833E-01 0.68078270E+03</pdfrwt>
<totfact> 0.79836015E+00</totfact>
</mgrwt>
</event>
<event>
 4    1  0.1043382E-007  0.9816245E+03  0.7818608E-02  0.9406003E-01
         -1   -1    0    0    0  501 -0.00000000000E+00  0.00000000000E+00  0.32872613913E+03  0.32872613917E+03  0.50400000000E-02 0.  1.
          1   -1    0    0  501    0  0.00000000000E+00 -0.00000000000E+00 -0.27727786210E+04  0.27727786210E+04  0.50400000000E-02 0. -1.
    8880023    1    1    2    0    0  0.64186183433E+03 -0.34320535773E+03 -0.70047737704E+03  0.12059250781E+04  0.65864270000E+03 0.  0.
    8880022    1    1    2    0    0 -0.64186183433E+03  0.34320535773E+03 -0.17435751048E+04  0.18955796821E+04  0.15294330000E+03 0.  0.
<mgrwt>
<rscale>  0 0.91583282E+03</rscale>
<asrwt>0</asrwt>
<pdfrwt beam="1">  1        1 0.42658131E+00 0.98162454E+03</pdfrwt>
<pdfrwt beam="2">  1       -1 0.50573254E-01 0.98162454E+03</pdfrwt>
<totfact> 0.35116706E+00</totfact>
</mgrwt>
</event>
<event>
 4    1  0.1043382E-007  0.1240849E+04  0.7818608E-02  0.9118402E-01
         -1   -1    0    0    0  501 -0.00000000000E+00  0.00000000000E+00  0.10052522360E+04  0.10052522361E+04  0.50400000000E-02 0.  1.
          1   -1    0    0  501    0  0.00000000000E+00 -0.00000000000E+00 -0.21832134102E+04  0.21832134102E+04  0.50400000000E-02 0. -1.
    8880023    1    1    2    0    0 -0.78420150206E+03  0.70066057781E+03  0.38433343041E+03  0.12990071721E+04  0.65864270000E+03 0.  0.
    8880022    1    1    2    0    0  0.78420150206E+03 -0.70066057781E+03 -0.15622946046E+04  0.18894584742E+04  0.15294330000E+03 0.  0.
<mgrwt>
<rscale>  0 0.11936856E+04</rscale>
<asrwt>0</asrwt>
<pdfrwt beam="1">  1        1 0.33587899E+00 0.12408495E+04</pdfrwt>
<pdfrwt beam="2">  1       -1 0.15465419E+00 0.12408495E+04</pdfrwt>
<totfact> 0.70275666E-01</totfact>
</mgrwt>
</event>
<event>
 4    1  0.1043382E-007  0.6806732E+03  0.7818608E-02  0.1008945E+00
         -1   -1    0    0    0  501 -0.00000000000E+00  0.00000000000E+00  0.61957083844E+03  0.61957083846E+03  0.50400000000E-02 0.  1.
          1   -1    0    0  501    0  0.00000000000E+00 -0.00000000000E+00 -0.18883618416E+04  0.18883618416E+04  0.50400000000E-02 0. -1.
    8880023    1    1    2    0    0 -0.11505067963E+02 -0.17138672616E+03  0.42245853529E+03  0.80111621928E+03  0.65864270000E+03 0.  0.
    8880022    1    1    2    0    0  0.11505067963E+02  0.17138672616E+03 -0.16912495384E+04  0.17068164608E+04  0.15294330000E+03 0. -1.
<mgrwt>
<rscale>  0 0.51895930E+03</rscale>
<asrwt>0</asrwt>
<pdfrwt beam="1">  1        1 0.29051720E+00 0.68067318E+03</pdfrwt>
<pdfrwt beam="2">  1       -1 0.95318591E-01 0.68067318E+03</pdfrwt>
<totfact> 0.40080248E+00</totfact>
</mgrwt>
</event>
<event>
 4    1  0.1043382E-007  0.9353140E+03  0.7818608E-02  0.9471566E-01
         -1   -1    0    0    0  501 -0.00000000000E+00  0.00000000000E+00  0.10763279890E+04  0.10763279890E+04  0.50400000000E-02 0.  1.
          1   -1    0    0  501    0  0.00000000000E+00 -0.00000000000E+00 -0.96320840196E+03  0.96320840198E+03  0.50400000000E-02 0. -1.
    8880023    1    1    2    0    0 -0.66143547073E+03 -0.59205129248E+02  0.67733553206E+03  0.11548141662E+04  0.65864270000E+03 0.  0.
    8880022    1    1    2    0    0  0.66143547073E+03  0.59205129248E+02 -0.56421594505E+03  0.88472222473E+03  0.15294330000E+03 0.  0.
<mgrwt>
<rscale>  0 0.86412961E+03</rscale>
<asrwt>0</asrwt>
<pdfrwt beam="1">  1        1 0.14818591E+00 0.93531403E+03</pdfrwt>
<pdfrwt beam="2">  1       -1 0.16558892E+00 0.93531403E+03</pdfrwt>
<totfact> 0.43374376E+00</totfact>
</mgrwt>
</event>
<event>
 4    1  0.1043382E-007  0.1278614E+04  0.7818608E-02  0.9084251E-01
         -1   -1    0    0    0  501 -0.00000000000E+00  0.00000000000E+00  0.49435724185E+03  0.49435724188E+03  0.50400000000E-02 0.  1.
          1   -1    0    0  501    0  0.00000000000E+00 -0.00000000000E+00 -0.35582834161E+04  0.35582834161E+04  0.50400000000E-02 0. -1.
    8880023    1    1    2    0    0  0.61849539275E+03  0.90471433344E+03 -0.73651012450E+03  0.14755683467E+04  0.65864270000E+03 0. -1.
    8880022    1    1    2    0    0 -0.61849539275E+03 -0.90471433344E+03 -0.23274160498E+04  0.25770723113E+04  0.15294330000E+03 0.  0.
<mgrwt>
<rscale>  0 0.12332375E+04</rscale>
<asrwt>0</asrwt>
<pdfrwt beam="1">  1        1 0.54742820E+00 0.12786144E+04</pdfrwt>
<pdfrwt beam="2">  1       -1 0.76054962E-01 0.12786144E+04</pdfrwt>
<totfact> 0.38851283E-01</totfact>
</mgrwt>
</event>
<event>
 4    1  0.1043382E-007  0.1093040E+04  0.7818608E-02  0.9268845E-01
          1   -1    0    0  501    0  0.00000000000E+00  0.00000000000E+00  0.18003235678E+04  0.18003235678E+04  0.50400000000E-02 0. -1.
         -1   -1    0    0    0  501 -0.00000000000E+00 -0.00000000000E+00 -0.88259212838E+03  0.88259212840E+03  0.50400000000E-02 0.  1.
    8880023    1    1    2    0    0  0.60005488057E+03 -0.63313515932E+03 -0.33997202146E+03  0.11446908628E+04  0.65864270000E+03 0.  1.
    8880022    1    1    2    0    0 -0.60005488057E+03  0.63313515932E+03  0.12577034609E+04  0.15382248334E+04  0.15294330000E+03 0.  0.
<mgrwt>
<rscale>  0 0.10370233E+04</rscale>
<asrwt>0</asrwt>
<pdfrwt beam="1">  1        1 0.27697285E+00 0.10930399E+04</pdfrwt>
<pdfrwt beam="2">  1       -1 0.13578341E+00 0.10930399E+04</pdfrwt>
<totfact> 0.18400894E+00</totfact>
</mgrwt>
</event>
<event>
 4    1  0.1043382E-007  0.9640963E+03  0.7818608E-02  0.9430116E-01
          1   -1    0    0  501    0  0.00000000000E+00  0.00000000000E+00  0.19863850126E+04  0.19863850126E+04  0.50400000000E-02 0. -1.
         -1   -1    0    0    0  501 -0.00000000000E+00 -0.00000000000E+00 -0.46815310094E+03  0.46815310097E+03  0.50400000000E-02 0.  1.
    8880023    1    1    2    0    0 -0.66564768166E+03  0.22931350928E+03  0.25005084952E+03  0.99599555985E+03  0.65864270000E+03 0.  0.
    8880022    1    1    2    0    0  0.66564768166E+03 -0.22931350928E+03  0.12681810622E+04  0.14585425538E+04  0.15294330000E+03 0.  0.
<mgrwt>
<rscale>  0 0.89638143E+03</rscale>
<asrwt>0</asrwt>
<pdfrwt beam="1">  1        1 0.30559770E+00 0.96409633E+03</pdfrwt>
<pdfrwt beam="2">  1       -1 0.72023553E-01 0.96409633E+03</pdfrwt>
<totfact> 0.60157178E+00</totfact>
</mgrwt>
</event>
<event>
 4    1  0.1144474E-007  0.6950018E+03  0.7818608E-02  0.1001860E+00
         -1   -1    0    0    0  501 -0.00000000000E+00  0.00000000000E+00  0.69763642216E+03  0.69763642218E+03  0.50400000000E-02 0.  1.
          1   -1    0    0  501    0  0.00000000000E+00 -0.00000000000E+00 -0.14273761631E+04  0.14273761631E+04  0.50400000000E-02 0. -1.
    8880023    1    1    2    0    0 -0.17293101788E+03  0.13896844278E+03  0.50634946269E+03  0.85989380139E+03  0.65864270000E+03 0.  1.
    8880022    1    1    2    0    0  0.17293101788E+03 -0.13896844278E+03 -0.12360892036E+04  0.12651187839E+04  0.15294330000E+03 0.  0.
<mgrwt>
<rscale>  0 0.54842001E+03</rscale>
<asrwt>0</asrwt>
<pdfrwt beam="1">  1        1 0.21959633E+00 0.69500185E+03</pdfrwt>
<pdfrwt beam="2">  1       -1 0.10732868E+00 0.69500185E+03</pdfrwt>
<totfact> 0.62384098E+00</totfact>
</mgrwt>
</event>
<event>
 4    1  0.1043382E-007  0.7091993E+03  0.7818608E-02  0.9960986E-01
         -1   -1    0    0    0  501 -0.00000000000E+00  0.00000000000E+00  0.14689839426E+04  0.14689839426E+04  0.50400000000E-02 0.  1.
          1   -1    0    0  501    0  0.00000000000E+00 -0.00000000000E+00 -0.59603684565E+03  0.59603684567E+03  0.50400000000E-02 0. -1.
    8880023    1    1    2    0    0 -0.23499582756E+03 -0.11802688176E+03  0.13350755485E+04  0.15117507434E+04  0.65864270000E+03 0.  1.
    8880022    1    1    2    0    0  0.23499582756E+03  0.11802688176E+03 -0.46212845155E+03  0.55327004485E+03  0.15294330000E+03 0.  0.
<mgrwt>
<rscale>  0 0.57394509E+03</rscale>
<asrwt>0</asrwt>
<pdfrwt beam="1">  1        1 0.91697977E-01 0.70919926E+03</pdfrwt>
<pdfrwt beam="2">  1       -1 0.22599753E+00 0.70919926E+03</pdfrwt>
<totfact> 0.36319690E+00</totfact>
</mgrwt>
</event>
<event>
 4    1  0.1043382E-007  0.9020686E+03  0.7818608E-02  0.9522719E-01
         -1   -1    0    0    0  501 -0.00000000000E+00  0.00000000000E+00  0.13883942115E+04  0.13883942115E+04  0.50400000000E-02 0.  1.
          1   -1    0    0  501    0  0.00000000000E+00 -0.00000000000E+00 -0.85839138887E+03  0.85839138888E+03  0.50400000000E-02 0. -1.
    8880023    1    1    2    0    0  0.51919361853E+03  0.33219808914E+03  0.10796432993E+04  0.14068963871E+04  0.65864270000E+03 0.  1.
    8880022    1    1    2    0    0 -0.51919361853E+03 -0.33219808914E+03 -0.54964047671E+03  0.83988921329E+03  0.15294330000E+03 0.  0.
<mgrwt>
<rscale>  0 0.82629372E+03</rscale>
<asrwt>0</asrwt>
<pdfrwt beam="1">  1        1 0.13206021E+00 0.90206862E+03</pdfrwt>
<pdfrwt beam="2">  1       -1 0.21359911E+00 0.90206862E+03</pdfrwt>
<totfact> 0.24379283E+00</totfact>
</mgrwt>
</event>
<event>
 4    1  0.1043382E-007  0.7122366E+03  0.7818608E-02  0.9949788E-01
          1   -1    0    0  501    0  0.00000000000E+00  0.00000000000E+00  0.10465113916E+04  0.10465113916E+04  0.50400000000E-02 0. -1.
         -1   -1    0    0    0  501 -0.00000000000E+00 -0.00000000000E+00 -0.33432684514E+03  0.33432684517E+03  0.50400000000E-02 0.  1.
    8880023    1    1    2    0    0  0.18299548169E+02 -0.27043647686E+03  0.13475061937E+03  0.72487150390E+03  0.65864270000E+03 0.  1.
    8880022    1    1    2    0    0 -0.18299548169E+02  0.27043647686E+03  0.57743392705E+03  0.65596673284E+03  0.15294330000E+03 0.  0.
<mgrwt>
<rscale>  0 0.57907875E+03</rscale>
<asrwt>0</asrwt>
<pdfrwt beam="1">  1        1 0.16100175E+00 0.71223660E+03</pdfrwt>
<pdfrwt beam="2">  1       -1 0.51434899E-01 0.71223660E+03</pdfrwt>
<totfact> 0.54416700E+01</totfact>
</mgrwt>
</event>
<event>
 4    1  0.1043382E-007  0.8599987E+03  0.7818608E-02  0.9593566E-01
          1   -1    0    0  501    0  0.00000000000E+00  0.00000000000E+00  0.15546900475E+04  0.15546900475E+04  0.50400000000E-02 0. -1.
         -1   -1    0    0    0  501 -0.00000000000E+00 -0.00000000000E+00 -0.59029728058E+03  0.59029728061E+03  0.50400000000E-02 0.  1.
    8880023    1    1    2    0    0 -0.45306753933E+01  0.55296202266E+03 -0.16734202490E+03  0.87612846380E+03  0.65864270000E+03 0.  1.
    8880022    1    1    2    0    0  0.45306753933E+01 -0.55296202266E+03  0.11317347918E+04  0.12688588643E+04  0.15294330000E+03 0.  0.
<mgrwt>
<rscale>  0 0.77723506E+03</rscale>
<asrwt>0</asrwt>
<pdfrwt beam="1">  1        1 0.23918308E+00 0.85999868E+03</pdfrwt>
<pdfrwt beam="2">  1       -1 0.90814967E-01 0.85999868E+03</pdfrwt>
<totfact> 0.72704129E+00</totfact>
</mgrwt>
</event>
<event>
 4    1  0.1043382E-007  0.7914634E+03  0.7818608E-02  0.9729567E-01
          1   -1    0    0  501    0  0.00000000000E+00  0.00000000000E+00  0.11293007964E+04  0.11293007964E+04  0.50400000000E-02 0. -1.
         -1   -1    0    0    0  501 -0.00000000000E+00 -0.00000000000E+00 -0.48941891171E+03  0.48941891174E+03  0.50400000000E-02 0.  1.
    8880023    1    1    2    0    0 -0.30016739269E+02 -0.43783907594E+03 -0.43068588492E+02  0.79263432340E+03  0.65864270000E+03 0.  0.
    8880022    1    1    2    0    0  0.30016739269E+02  0.43783907594E+03  0.68295047318E+03  0.82608538474E+03  0.15294330000E+03 0.  0.
<mgrwt>
<rscale>  0 0.69283331E+03</rscale>
<asrwt>0</asrwt>
<pdfrwt beam="1">  1        1 0.17373858E+00 0.79146337E+03</pdfrwt>
<pdfrwt beam="2">  1       -1 0.75295217E-01 0.79146337E+03</pdfrwt>
<totfact> 0.21903840E+01</totfact>
</mgrwt>
</event>
<event>
 4    1  0.1043382E-007  0.8195429E+03  0.7818608E-02  0.9670032E-01
          1   -1    0    0  501    0  0.00000000000E+00  0.00000000000E+00  0.35099456146E+04  0.35099456146E+04  0.50400000000E-02 0. -1.
         -1   -1    0    0    0  501 -0.00000000000E+00 -0.00000000000E+00 -0.66816090955E+03  0.66816090957E+03  0.50400000000E-02 0.  1.
    8880023    1    1    2    0    0 -0.46663614560E+03  0.14174272518E+03  0.33550904524E+04  0.34537345646E+04  0.65864270000E+03 0. -1.
    8880022    1    1    2    0    0  0.46663614560E+03 -0.14174272518E+03 -0.51330574737E+03  0.72437195957E+03  0.15294330000E+03 0.  0.
<mgrwt>
<rscale>  0 0.72829451E+03</rscale>
<asrwt>0</asrwt>
<pdfrwt beam="1">  1        1 0.53999163E+00 0.81954286E+03</pdfrwt>
<pdfrwt beam="2">  1       -1 0.10279399E+00 0.81954286E+03</pdfrwt>
<totfact> 0.23728637E-01</totfact>
</mgrwt>
</event>
<event>
 4    1  0.1043382E-007  0.6738627E+03  0.7818608E-02  0.1013033E+00
          1   -1    0    0  501    0  0.00000000000E+00  0.00000000000E+00  0.30990513318E+04  0.30990513318E+04  0.50400000000E-02 0. -1.
         -1   -1    0    0    0  501 -0.00000000000E+00 -0.00000000000E+00 -0.75227877193E+02  0.75227877362E+02  0.50400000000E-02 0.  1.
    8880023    1    1    2    0    0 -0.10867744954E+03  0.92031987938E+02  0.16135967430E+04  0.17486524326E+04  0.65864270000E+03 0.  0.
    8880022    1    1    2    0    0  0.10867744954E+03 -0.92031987938E+02  0.14102267116E+04  0.14256267765E+04  0.15294330000E+03 0.  0.
<mgrwt>
<rscale>  0 0.50286839E+03</rscale>
<asrwt>0</asrwt>
<pdfrwt beam="1">  1        1 0.47677718E+00 0.67386266E+03</pdfrwt>
<pdfrwt beam="2">  1       -1 0.11573518E-01 0.67386266E+03</pdfrwt>
<totfact> 0.27124667E+01</totfact>
</mgrwt>
</event>
<event>
 4    1  0.1043382E-007  0.9925752E+03  0.7818608E-02  0.9391337E-01
         -1   -1    0    0    0  501 -0.00000000000E+00  0.00000000000E+00  0.62312506260E+03  0.62312506262E+03  0.50400000000E-02 0.  1.
          1   -1    0    0  501    0  0.00000000000E+00 -0.00000000000E+00 -0.31728770532E+04  0.31728770532E+04  0.50400000000E-02 0. -1.
    8880023    1    1    2    0    0 -0.71157560061E+03 -0.21226296137E+03  0.13913270345E+03  0.10022791605E+04  0.65864270000E+03 0.  0.
    8880022    1    1    2    0    0  0.71157560061E+03  0.21226296137E+03 -0.26888846941E+04  0.27937229553E+04  0.15294330000E+03 0.  0.
<mgrwt>
<rscale>  0 0.92792089E+03</rscale>
<asrwt>0</asrwt>
<pdfrwt beam="1">  1        1 0.48813492E+00 0.99257524E+03</pdfrwt>
<pdfrwt beam="2">  1       -1 0.95865396E-01 0.99257524E+03</pdfrwt>
<totfact> 0.48281112E-01</totfact>
</mgrwt>
</event>
<event>
 4    1  0.1043382E-007  0.6704614E+03  0.7818608E-02  0.1015334E+00
          1   -1    0    0  501    0  0.00000000000E+00  0.00000000000E+00  0.13021247976E+04  0.13021247976E+04  0.50400000000E-02 0. -1.
         -1   -1    0    0    0  501 -0.00000000000E+00 -0.00000000000E+00 -0.18638081948E+03  0.18638081955E+03  0.50400000000E-02 0.  1.
    8880023    1    1    2    0    0  0.12524743997E+03 -0.46176518463E+01  0.48499838153E+03  0.82749131734E+03  0.65864270000E+03 0.  1.
    8880022    1    1    2    0    0 -0.12524743997E+03  0.46176518463E+01  0.63074559658E+03  0.66101429980E+03  0.15294330000E+03 0.  0.
<mgrwt>
<rscale>  0 0.49408569E+03</rscale>
<asrwt>0</asrwt>
<pdfrwt beam="1">  1        1 0.20032690E+00 0.67046137E+03</pdfrwt>
<pdfrwt beam="2">  1       -1 0.28673972E-01 0.67046137E+03</pdfrwt>
<totfact> 0.10235877E+02</totfact>
</mgrwt>
</event>
<event>
 4    1  0.1043382E-007  0.1002028E+04  0.7818608E-02  0.9378909E-01
         -1   -1    0    0    0  501 -0.00000000000E+00  0.00000000000E+00  0.19270995940E+04  0.19270995940E+04  0.50400000000E-02 0.  1.
          1   -1    0    0  501    0  0.00000000000E+00 -0.00000000000E+00 -0.12354694730E+04  0.12354694730E+04  0.50400000000E-02 0. -1.
    8880023    1    1    2    0    0 -0.18767542732E+03  0.73145597112E+03  0.16515041426E+04  0.19317158287E+04  0.65864270000E+03 0.  1.
    8880022    1    1    2    0    0  0.18767542732E+03 -0.73145597112E+03 -0.95987402162E+03  0.12308532383E+04  0.15294330000E+03 0.  0.
<mgrwt>
<rscale>  0 0.93831883E+03</rscale>
<asrwt>0</asrwt>
<pdfrwt beam="1">  1        1 0.19007223E+00 0.10020280E+04</pdfrwt>
<pdfrwt beam="2">  1       -1 0.29647686E+00 0.10020280E+04</pdfrwt>
<totfact> 0.35547175E-01</totfact>
</mgrwt>
</event>
<event>
 4    1  0.1043382E-007  0.6609852E+03  0.7818608E-02  0.1023169E+00
          1   -1    0    0  501    0  0.00000000000E+00  0.00000000000E+00  0.94778435590E+03  0.94778435591E+03  0.50400000000E-02 0. -1.
         -1   -1    0    0    0  501 -0.00000000000E+00 -0.00000000000E+00 -0.21502850650E+03  0.21502850656E+03  0.50400000000E-02 0.  1.
    8880023    1    1    2    0    0  0.50233582409E+02  0.23827840353E+02  0.35229208961E+03  0.74900674325E+03  0.65864270000E+03 0.  1.
    8880022    1    1    2    0    0 -0.50233582409E+02 -0.23827840353E+02  0.38046375979E+03  0.41380611922E+03  0.15294330000E+03 0. -1.
<mgrwt>
<rscale>  0 0.46560146E+03</rscale>
<asrwt>0</asrwt>
<pdfrwt beam="1">  1        1 0.14581298E+00 0.66098516E+03</pdfrwt>
<pdfrwt beam="2">  1       -1 0.33081309E-01 0.66098516E+03</pdfrwt>
<totfact> 0.14608886E+02</totfact>
</mgrwt>
</event>
<event>
 4    1  0.1043382E-007  0.7046891E+03  0.7818608E-02  0.9978278E-01
         -1   -1    0    0    0  501 -0.00000000000E+00  0.00000000000E+00  0.42992908741E+03  0.42992908744E+03  0.50400000000E-02 0.  1.
          1   -1    0    0  501    0  0.00000000000E+00 -0.00000000000E+00 -0.13951268723E+04  0.13951268723E+04  0.50400000000E-02 0. -1.
    8880023    1    1    2    0    0  0.19272394896E+03 -0.16010639382E+03  0.10756940244E+03  0.71285199056E+03  0.65864270000E+03 0.  1.
    8880022    1    1    2    0    0 -0.19272394896E+03  0.16010639382E+03 -0.10727671874E+04  0.11122039692E+04  0.15294330000E+03 0.  0.
<mgrwt>
<rscale>  0 0.56613054E+03</rscale>
<asrwt>0</asrwt>
<pdfrwt beam="1">  1        1 0.21463490E+00 0.70468914E+03</pdfrwt>
<pdfrwt beam="2">  1       -1 0.66142937E-01 0.70468914E+03</pdfrwt>
<totfact> 0.18658409E+01</totfact>
</mgrwt>
</event>
<event>
 4    1  0.1043382E-007  0.8675907E+03  0.7818608E-02  0.9580201E-01
          1   -1    0    0  501    0  0.00000000000E+00  0.00000000000E+00  0.15502642009E+04  0.15502642009E+04  0.50400000000E-02 0. -1.
         -1   -1    0    0    0  501 -0.00000000000E+00 -0.00000000000E+00 -0.89679457630E+03  0.89679457631E+03  0.50400000000E-02 0.  1.
    8880023    1    1    2    0    0 -0.46920064273E+03 -0.31425187664E+03 -0.60603811408E+03  0.10582985813E+04  0.65864270000E+03 0.  0.
    8880022    1    1    2    0    0  0.46920064273E+03  0.31425187664E+03  0.12595077387E+04  0.13887601960E+04  0.15294330000E+03 0.  0.
<mgrwt>
<rscale>  0 0.78620585E+03</rscale>
<asrwt>0</asrwt>
<pdfrwt beam="1">  1        1 0.23850218E+00 0.86759074E+03</pdfrwt>
<pdfrwt beam="2">  1       -1 0.13796840E+00 0.86759074E+03</pdfrwt>
<totfact> 0.26958268E+00</totfact>
</mgrwt>
</event>
<event>
 4    1  0.1043382E-007  0.1527706E+04  0.7818608E-02  0.8890316E-01
          1   -1    0    0  501    0  0.00000000000E+00  0.00000000000E+00  0.28862260265E+04  0.28862260265E+04  0.50400000000E-02 0. -1.
         -1   -1    0    0    0  501 -0.00000000000E+00 -0.00000000000E+00 -0.11955490728E+04  0.11955490729E+04  0.50400000000E-02 0.  1.
    8880023    1    1    2    0    0  0.24298040806E+03  0.13568478271E+04  0.21351470900E+04  0.26254025990E+04  0.65864270000E+03 0.  0.
    8880022    1    1    2    0    0 -0.24298040806E+03 -0.13568478271E+04 -0.44447013633E+03  0.14563725004E+04  0.15294330000E+03 0.  0.
<mgrwt>
<rscale>  0 0.14912156E+04</rscale>
<asrwt>0</asrwt>
<pdfrwt beam="1">  1        1 0.44403477E+00 0.15277060E+04</pdfrwt>
<pdfrwt beam="2">  1       -1 0.18393063E+00 0.15277060E+04</pdfrwt>
<totfact> 0.13319960E-01</totfact>
</mgrwt>
</event>
<event>
 4    1  0.1043382E-007  0.7368799E+03  0.7818608E-02  0.9869131E-01
          1   -1    0    0  501    0  0.00000000000E+00  0.00000000000E+00  0.10361721056E+04  0.10361721056E+04  0.50400000000E-02 0. -1.
         -1   -1    0    0    0  501 -0.00000000000E+00 -0.00000000000E+00 -0.51595737149E+03  0.51595737152E+03  0.50400000000E-02 0.  1.
    8880023    1    1    2    0    0  0.31549836957E+03 -0.98196253118E+02 -0.18386703722E+03  0.75947285598E+03  0.65864270000E+03 0.  0.
    8880022    1    1    2    0    0 -0.31549836957E+03  0.98196253118E+02  0.70408177135E+03  0.79265662117E+03  0.15294330000E+03 0. -1.
<mgrwt>
<rscale>  0 0.61780946E+03</rscale>
<asrwt>0</asrwt>
<pdfrwt beam="1">  1        1 0.15941109E+00 0.73687986E+03</pdfrwt>
<pdfrwt beam="2">  1       -1 0.79378058E-01 0.73687986E+03</pdfrwt>
<totfact> 0.23176628E+01</totfact>
</mgrwt>
</event>
<event>
 4    1  0.1043382E-007  0.6835359E+03  0.7818608E-02  0.1007390E+00
          1   -1    0    0  501    0  0.00000000000E+00  0.00000000000E+00  0.83077980069E+03  0.83077980070E+03  0.50400000000E-02 0. -1.
         -1   -1    0    0    0  501 -0.00000000000E+00 -0.00000000000E+00 -0.84700825713E+03  0.84700825715E+03  0.50400000000E-02 0.  1.
    8880023    1    1    2    0    0 -0.50744507961E+02  0.17560205983E+03 -0.68507030886E+03  0.96775132284E+03  0.65864270000E+03 0.  1.
    8880022    1    1    2    0    0  0.50744507961E+02 -0.17560205983E+03  0.66884185242E+03  0.71003673501E+03  0.15294330000E+03 0.  0.
<mgrwt>
<rscale>  0 0.52525131E+03</rscale>
<asrwt>0</asrwt>
<pdfrwt beam="1">  1        1 0.12781228E+00 0.68353588E+03</pdfrwt>
<pdfrwt beam="2">  1       -1 0.13030896E+00 0.68353588E+03</pdfrwt>
<totfact> 0.10907044E+01</totfact>
</mgrwt>
</event>
<event>
 4    1  0.1043382E-007  0.8067332E+03  0.7818608E-02  0.9696422E-01
         -1   -1    0    0    0  501 -0.00000000000E+00  0.00000000000E+00  0.59657738083E+03  0.59657738086E+03  0.50400000000E-02 0.  1.
          1   -1    0    0  501    0  0.00000000000E+00 -0.00000000000E+00 -0.98469145081E+03  0.98469145082E+03  0.50400000000E-02 0. -1.
    8880023    1    1    2    0    0  0.28149604818E+03  0.37117140306E+03  0.18435644041E+03  0.82752990216E+03  0.65864270000E+03 0.  1.
    8880022    1    1    2    0    0 -0.28149604818E+03 -0.37117140306E+03 -0.57247051038E+03  0.75373892951E+03  0.15294330000E+03 0.  0.
<mgrwt>
<rscale>  0 0.71230210E+03</rscale>
<asrwt>0</asrwt>
<pdfrwt beam="1">  1        1 0.15149099E+00 0.80673319E+03</pdfrwt>
<pdfrwt beam="2">  1       -1 0.91781135E-01 0.80673319E+03</pdfrwt>
<totfact> 0.18397062E+01</totfact>
</mgrwt>
</event>
<event>
 4    1  0.1043382E-007  0.8362567E+03  0.7818608E-02  0.9637279E-01
         -1   -1    0    0    0  501 -0.00000000000E+00  0.00000000000E+00  0.69779841531E+03  0.69779841533E+03  0.50400000000E-02 0.  1.
          1   -1    0    0  501    0  0.00000000000E+00 -0.00000000000E+00 -0.13764409539E+04  0.13764409539E+04  0.50400000000E-02 0. -1.
    8880023    1    1    2    0    0 -0.48195438912E+03 -0.18230476822E+03 -0.11066943812E+04  0.13871184958E+04  0.65864270000E+03 0. -1.
    8880022    1    1    2    0    0  0.48195438912E+03  0.18230476822E+03  0.42805184263E+03  0.68712087343E+03  0.15294330000E+03 0.  1.
<mgrwt>
<rscale>  0 0.74877168E+03</rscale>
<asrwt>0</asrwt>
<pdfrwt beam="1">  1        1 0.21176015E+00 0.83625670E+03</pdfrwt>
<pdfrwt beam="2">  1       -1 0.10735360E+00 0.83625670E+03</pdfrwt>
<totfact> 0.66173998E+00</totfact>
</mgrwt>
</event>
<event>
 4    1  0.1043382E-007  0.6618183E+03  0.7818608E-02  0.1022366E+00
          1   -1    0    0  501    0  0.00000000000E+00  0.00000000000E+00  0.19105384581E+03  0.19105384588E+03  0.50400000000E-02 0. -1.
         -1   -1    0    0    0  501 -0.00000000000E+00 -0.00000000000E+00 -0.89770043093E+03  0.89770043095E+03  0.50400000000E-02 0.  1.
    8880023    1    1    2    0    0  0.15078748394E+01 -0.64737573758E+02 -0.55169981454E+03  0.86161251080E+03  0.65864270000E+03 0.  0.
    8880022    1    1    2    0    0 -0.15078748394E+01  0.64737573758E+02 -0.15494677058E+03  0.22714176602E+03  0.15294330000E+03 0.  1.
<mgrwt>
<rscale>  0 0.46842272E+03</rscale>
<asrwt>0</asrwt>
<pdfrwt beam="1">  1        1 0.29392900E-01 0.66181828E+03</pdfrwt>
<pdfrwt beam="2">  1       -1 0.13810776E+00 0.66181828E+03</pdfrwt>
<totfact> 0.70231049E+01</totfact>
</mgrwt>
</event>
<event>
 4    1  0.1043382E-007  0.6657794E+03  0.7818608E-02  0.1018888E+00
          1   -1    0    0  501    0  0.00000000000E+00  0.00000000000E+00  0.76615063724E+03  0.76615063725E+03  0.50400000000E-02 0. -1.
         -1   -1    0    0    0  501 -0.00000000000E+00 -0.00000000000E+00 -0.63896783696E+03  0.63896783698E+03  0.50400000000E-02 0.  1.
    8880023    1    1    2    0    0  0.35235832919E+02 -0.90611468704E+02 -0.44772581587E+03  0.80232201431E+03  0.65864270000E+03 0.  1.
    8880022    1    1    2    0    0 -0.35235832919E+02  0.90611468704E+02  0.57490861614E+03  0.60279645993E+03  0.15294330000E+03 0.  0.
<mgrwt>
<rscale>  0 0.48089936E+03</rscale>
<asrwt>0</asrwt>
<pdfrwt beam="1">  1        1 0.11786933E+00 0.66577940E+03</pdfrwt>
<pdfrwt beam="2">  1       -1 0.98302744E-01 0.66577940E+03</pdfrwt>
<totfact> 0.24333344E+01</totfact>
</mgrwt>
</event>
<event>
 4    1  0.1043382E-007  0.6858197E+03  0.7818608E-02  0.1006206E+00
         -1   -1    0    0    0  501 -0.00000000000E+00  0.00000000000E+00  0.17650047988E+04  0.17650047988E+04  0.50400000000E-02 0.  1.
          1   -1    0    0  501    0  0.00000000000E+00 -0.00000000000E+00 -0.17970763346E+03  0.17970763353E+03  0.50400000000E-02 0. -1.
    8880023    1    1    2    0    0  0.34656015426E+02  0.18798266155E+03  0.15531184211E+04  0.16978002110E+04  0.65864270000E+03 0.  1.
    8880022    1    1    2    0    0 -0.34656015426E+02 -0.18798266155E+03  0.32178744301E+02  0.24691222134E+03  0.15294330000E+03 0.  1.
<mgrwt>
<rscale>  0 0.53010656E+03</rscale>
<asrwt>0</asrwt>
<pdfrwt beam="1">  1        1 0.27647329E-01 0.68581975E+03</pdfrwt>
<pdfrwt beam="2">  1       -1 0.27153920E+00 0.68581975E+03</pdfrwt>
<totfact> 0.90408921E+00</totfact>
</mgrwt>
</event>
<event>
 4    1  0.1043382E-007  0.8036323E+03  0.7818608E-02  0.9702997E-01
          1   -1    0    0  501    0  0.00000000000E+00  0.00000000000E+00  0.12465085913E+04  0.12465085913E+04  0.50400000000E-02 0. -1.
         -1   -1    0    0    0  501 -0.00000000000E+00 -0.00000000000E+00 -0.36754165189E+03  0.36754165192E+03  0.50400000000E-02 0.  1.
    8880023    1    1    2    0    0  0.10037086943E+03  0.44937780176E+03  0.29794149297E+03  0.85708462805E+03  0.65864270000E+03 0. -1.
    8880022    1    1    2    0    0 -0.10037086943E+03 -0.44937780176E+03  0.58102544643E+03  0.75696561517E+03  0.15294330000E+03 0.  0.
<mgrwt>
<rscale>  0 0.70838659E+03</rscale>
<asrwt>0</asrwt>
<pdfrwt beam="1">  1        1 0.19177055E+00 0.80363233E+03</pdfrwt>
<pdfrwt beam="2">  1       -1 0.56544870E-01 0.80363233E+03</pdfrwt>
<totfact> 0.32000823E+01</totfact>
</mgrwt>
</event>
